/*--------------------------------*- C++ -*----------------------------------*\
| =========                 |                                                 |
| \\      /  F ield         | OpenFOAM: The Open Source CFD Toolbox           |
|  \\    /   O peration     | Version:  v1912                                 |
|   \\  /    A nd           | Website:  www.openfoam.com                      |
|    \\/     M anipulation  |                                                 |
\*---------------------------------------------------------------------------*/
FoamFile
{
    version     2.0;
    format      ascii;
    class       volScalarField;
    location    "100";
    object      p;
}
// * * * * * * * * * * * * * * * * * * * * * * * * * * * * * * * * * * * * * //

dimensions      [0 2 -2 0 0 0 0];


internalField   nonuniform List<scalar> 
2000
(
-0.0488856
0.0685265
0.123106
0.116217
0.10039
0.0940785
0.0934669
0.0948185
0.0950425
0.0948173
0.0949488
0.0946185
0.0943596
0.0943385
0.0944254
0.0942943
0.0938871
0.0934475
0.0929625
0.0923754
0.0916253
0.0907254
0.0897846
0.0889784
0.0884584
0.0883047
0.0885215
0.0890494
0.0897922
0.0906282
0.0914113
0.0920018
0.0920395
0.0914001
0.0900431
0.0879844
0.0852749
0.0819964
0.0783592
0.0746786
0.0713949
0.0689708
0.0678384
0.0681623
0.0708113
0.0748962
0.0801605
0.0861161
0.0919366
0.0965292
0.0980919
0.0947974
0.0852455
0.069588
0.0506534
0.0337314
0.0239306
0.0225358
0.0301095
0.0443508
0.0623906
0.0818041
0.100982
0.119163
0.136208
0.152233
0.167262
0.180997
0.192872
0.202388
0.208687
0.211267
0.209424
0.202624
0.190531
0.172932
0.14914
0.119218
0.0784882
0.0377545
0.00434746
0.0895282
0.12835
0.115157
0.0974224
0.0932145
0.0967183
0.0991289
0.0963919
0.0931967
0.0927567
0.0940344
0.094517
0.0944586
0.0945807
0.0942868
0.0938646
0.0933934
0.0929386
0.0923735
0.0916032
0.0906257
0.0895697
0.0886031
0.0879061
0.0876117
0.087778
0.0883684
0.0892932
0.0904128
0.0914547
0.0922741
0.0929684
0.0926469
0.091553
0.0895305
0.0865071
0.0825513
0.077868
0.07284
0.0680986
0.0644928
0.0628931
0.0638881
0.0664422
0.0717058
0.0793313
0.0883492
0.0977286
0.103908
0.103237
0.0921801
0.0692548
0.0381065
0.00838755
-0.00902328
-0.00999669
0.00139616
0.0187369
0.0390832
0.060356
0.0810814
0.100416
0.118085
0.134203
0.149133
0.163064
0.175817
0.186874
0.195452
0.20064
0.201808
0.198373
0.189915
0.176186
0.15706
0.132017
0.101394
0.0619591
0.0265967
0.0553979
0.0891988
0.111894
0.110339
0.101143
0.0969599
0.0969827
0.096343
0.0944579
0.0938235
0.0954095
0.0968904
0.0958106
0.0933534
0.0925216
0.0934378
0.0942305
0.0940394
0.0932307
0.0922519
0.0912494
0.0902661
0.0892754
0.0882387
0.0872741
0.086641
0.0866262
0.0872272
0.0885345
0.0904764
0.0927244
0.0947735
0.0960768
0.0968598
0.0965411
0.0945022
0.0904614
0.0843396
0.0762748
0.0667724
0.0569342
0.0486372
0.0441806
0.0454126
0.0514148
0.063547
0.0797588
0.0969836
0.111152
0.118658
0.115261
0.0983698
0.0690044
0.0338741
0.00390065
-0.0118869
-0.0111939
0.0009189
0.018523
0.0386287
0.0594327
0.0793923
0.0975745
0.113787
0.128354
0.141714
0.154078
0.165266
0.174732
0.181716
0.185436
0.185289
0.180857
0.17189
0.158239
0.139851
0.116377
0.0883769
0.0535109
0.0231461
0.0803699
0.0903846
0.102935
0.107014
0.10432
0.101297
0.0996338
0.0979086
0.0963004
0.0955012
0.0952877
0.0951212
0.094758
0.0941587
0.093885
0.0947487
0.095524
0.0943579
0.0924615
0.0912185
0.0904151
0.0898403
0.0891199
0.0880448
0.0865592
0.0850035
0.0842454
0.0842946
0.0860932
0.0897723
0.0946677
0.0997084
0.103779
0.105882
0.106763
0.104472
0.0983589
0.0880425
0.0736102
0.0560611
0.0377282
0.0222835
0.0139469
0.0150094
0.0276032
0.0490564
0.0754758
0.101546
0.122069
0.132285
0.130095
0.114933
0.0878633
0.0557246
0.0277468
0.0115803
0.00849317
0.0162184
0.0296739
0.0458321
0.0630739
0.0800413
0.0957963
0.110044
0.12293
0.134674
0.145311
0.154579
0.161965
0.166858
0.168717
0.167157
0.16195
0.152957
0.140043
0.123118
0.101862
0.0767915
0.0461618
0.0193686
0.0926974
0.0962977
0.103817
0.107785
0.106653
0.104319
0.102934
0.101892
0.100591
0.099139
0.0977699
0.0966612
0.0959533
0.0951991
0.0943377
0.0942858
0.0946899
0.0946411
0.0936221
0.0920242
0.0906352
0.089665
0.0887338
0.0873467
0.0852337
0.0825362
0.0800568
0.0799981
0.0826758
0.0883879
0.0961917
0.104639
0.112129
0.117682
0.11885
0.115805
0.10739
0.0929296
0.0728379
0.0489945
0.0249164
0.00543666
-0.00440682
-0.00167115
0.013402
0.0383575
0.0688954
0.0993483
0.123899
0.137937
0.138733
0.125519
0.103104
0.0774182
0.0544803
0.0384112
0.0323349
0.0350729
0.0434026
0.0549155
0.0681269
0.0818089
0.0950027
0.107211
0.118286
0.128167
0.136689
0.143552
0.1484
0.15092
0.150909
0.148254
0.142857
0.134576
0.123166
0.108379
0.0897869
0.0677646
0.0408636
0.0169673
0.101127
0.10296
0.106912
0.109079
0.108259
0.106644
0.105677
0.104992
0.104024
0.102823
0.101679
0.100673
0.0996588
0.0983627
0.097009
0.0962379
0.0959552
0.095447
0.0940581
0.0921671
0.0906124
0.0895253
0.0884608
0.086875
0.0844409
0.0813196
0.0786375
0.0784557
0.0819412
0.0888403
0.0982373
0.108473
0.117634
0.123997
0.125901
0.122576
0.112878
0.0963263
0.0739376
0.0483344
0.0236164
0.00469927
-0.00396397
-0.000854331
0.0145083
0.0389206
0.0676327
0.0951748
0.116713
0.129106
0.131114
0.123043
0.106962
0.0866878
0.0673889
0.0534181
0.0470741
0.0478895
0.0538523
0.0629688
0.0737984
0.0852301
0.0963814
0.106667
0.115745
0.123375
0.129329
0.133414
0.135538
0.13574
0.134141
0.130837
0.125778
0.118711
0.109185
0.0967126
0.0806813
0.0612876
0.037206
0.0153933
0.107928
0.10875
0.109984
0.110317
0.109524
0.10853
0.10786
0.107307
0.106625
0.105851
0.105103
0.104354
0.103466
0.102338
0.101139
0.100179
0.0994153
0.0983427
0.0966161
0.0945987
0.0928368
0.0913862
0.0899002
0.0879945
0.0855372
0.082892
0.081145
0.0817474
0.0854815
0.0919072
0.100467
0.109844
0.118691
0.125406
0.128178
0.12503
0.114651
0.0974472
0.0752567
0.0509013
0.0280699
0.0110045
0.00357706
0.00765085
0.0223157
0.0442488
0.0691449
0.0926054
0.110968
0.12184
0.124192
0.11842
0.106532
0.0918589
0.0780612
0.0680039
0.0631707
0.063492
0.0677912
0.0746733
0.0830216
0.0919457
0.100679
0.108603
0.115259
0.120304
0.123504
0.124784
0.124281
0.122335
0.119364
0.115659
0.11119
0.10555
0.0980181
0.0878129
0.0740876
0.056855
0.0348183
0.0144553
0.113797
0.11374
0.112821
0.111607
0.110775
0.110247
0.109758
0.10927
0.108807
0.108345
0.107861
0.107322
0.106676
0.105879
0.10499
0.104135
0.103289
0.102176
0.100612
0.0987982
0.0970508
0.0954387
0.0937832
0.0918899
0.0897749
0.0878181
0.0868222
0.0877602
0.0912214
0.0970774
0.104559
0.112685
0.119973
0.124856
0.125737
0.121392
0.111267
0.0957253
0.0761482
0.0549736
0.0358908
0.0226595
0.0178501
0.0222935
0.0347413
0.0524765
0.0721796
0.0906201
0.105174
0.114185
0.117079
0.114332
0.107328
0.0981019
0.0889538
0.0819206
0.0782292
0.0780973
0.0809563
0.0859319
0.092181
0.0989509
0.105547
0.111347
0.115826
0.118566
0.119302
0.118006
0.114994
0.110914
0.106555
0.102475
0.0986866
0.0945892
0.0891209
0.0811324
0.0694959
0.0540434
0.0334545
0.0140145
0.119194
0.118203
0.115234
0.112684
0.111919
0.111818
0.111468
0.11104
0.110751
0.110502
0.110193
0.109817
0.109366
0.108806
0.10815
0.107457
0.106715
0.105759
0.104469
0.102947
0.101401
0.0999148
0.0984132
0.0968117
0.0951819
0.0938489
0.0934011
0.0945166
0.0975886
0.102454
0.10845
0.114701
0.120081
0.123391
0.123443
0.119295
0.110501
0.0973941
0.0812834
0.0644512
0.0495881
0.0393153
0.0353456
0.0382277
0.0471574
0.0602669
0.0751894
0.0895695
0.101431
0.109453
0.113079
0.112502
0.108599
0.102789
0.0967454
0.0919639
0.089389
0.0893018
0.0914306
0.095204
0.0999855
0.105161
0.110127
0.114283
0.117052
0.117916
0.116501
0.112757
0.107159
0.100759
0.094857
0.0903915
0.0874157
0.085059
0.0818114
0.0760758
0.0664045
0.0524619
0.0328365
0.01399
0.124419
0.122229
0.117029
0.113378
0.112903
0.113216
0.11297
0.112624
0.112511
0.112444
0.112276
0.112026
0.11171
0.1113
0.110795
0.110232
0.109599
0.108784
0.107705
0.106427
0.105105
0.103819
0.102544
0.101252
0.100037
0.099174
0.0991042
0.100292
0.102972
0.106983
0.11181
0.116731
0.120859
0.123237
0.122945
0.11927
0.111927
0.101257
0.088312
0.0747461
0.0624906
0.0535842
0.0493929
0.050462
0.0563882
0.0659547
0.0774717
0.0891298
0.0993003
0.106795
0.111017
0.111994
0.110313
0.106981
0.103186
0.10003
0.0982836
0.0982688
0.0998898
0.102786
0.106494
0.110515
0.114312
0.117286
0.118785
0.118137
0.114784
0.108589
0.100225
0.0912739
0.0837147
0.0789411
0.0769956
0.0766304
0.0757794
0.0723464
0.0645475
0.0518999
0.0327991
0.0143738
0.129653
0.125801
0.118102
0.113703
0.113782
0.114459
0.114268
0.114029
0.114101
0.114198
0.114159
0.114022
0.113817
0.113519
0.113124
0.112654
0.112099
0.11138
0.110442
0.109339
0.108189
0.107066
0.105971
0.10491
0.103986
0.103434
0.103591
0.104788
0.107174
0.110606
0.114663
0.118727
0.122057
0.123867
0.123427
0.120201
0.113999
0.105103
0.0942957
0.0828247
0.072248
0.0641331
0.0596123
0.0592514
0.0629559
0.0699956
0.0791661
0.0890265
0.0981632
0.105453
0.110242
0.112406
0.112303
0.110654
0.108364
0.10632
0.105183
0.10528
0.10661
0.108947
0.111945
0.115192
0.118198
0.120364
0.120948
0.11908
0.11395
0.105308
0.094071
0.0824729
0.0732708
0.0683218
0.0675817
0.0693591
0.0709734
0.0697927
0.0636983
0.0521441
0.0331826
0.0151241
0.135016
0.128844
0.118423
0.113755
0.114609
0.115555
0.115384
0.115281
0.115534
0.115773
0.115848
0.115818
0.115716
0.115518
0.115218
0.114828
0.114338
0.113695
0.112863
0.111887
0.110863
0.109859
0.108894
0.107997
0.10727
0.106914
0.107199
0.108376
0.110545
0.113576
0.117105
0.120599
0.12342
0.124902
0.12444
0.121597
0.116226
0.108552
0.0992019
0.0891913
0.0797375
0.0720784
0.0671937
0.0656839
0.0676905
0.0728491
0.080326
0.0889566
0.0974698
0.104758
0.110092
0.113215
0.114317
0.113932
0.112778
0.111586
0.110934
0.111149
0.112297
0.114244
0.116735
0.11943
0.12189
0.123516
0.123464
0.120627
0.113922
0.102995
0.0890401
0.0749528
0.0642463
0.0592044
0.0596364
0.0634713
0.0673831
0.0682328
0.0636288
0.0529934
0.0338684
0.0161872
0.140586
0.131254
0.118028
0.113655
0.115404
0.116503
0.116347
0.116407
0.116827
0.117182
0.117357
0.117426
0.117417
0.117311
0.117096
0.116782
0.116357
0.115786
0.115043
0.11417
0.113248
0.11234
0.11148
0.110705
0.110117
0.109889
0.110247
0.111386
0.113379
0.116105
0.11925
0.122346
0.124836
0.126136
0.12572
0.123209
0.118477
0.111712
0.103437
0.0944664
0.0857789
0.0783822
0.0731304
0.0706439
0.0712508
0.074894
0.0810593
0.0888098
0.0969682
0.104403
0.110291
0.114251
0.116337
0.116946
0.116662
0.116116
0.115838
0.116157
0.117184
0.118849
0.120968
0.123266
0.125357
0.126638
0.126157
0.12259
0.114624
0.101835
0.0856483
0.0694778
0.0574538
0.0522795
0.0535699
0.0591336
0.0649333
0.0674779
0.0641078
0.0542369
0.0347495
0.0174673
0.146403
0.132914
0.117011
0.113518
0.116166
0.117306
0.117188
0.117427
0.117992
0.118444
0.118708
0.118865
0.11894
0.118913
0.118775
0.11853
0.118169
0.117664
0.117002
0.116218
0.115384
0.114561
0.113787
0.113111
0.112626
0.112487
0.112885
0.113978
0.115819
0.118305
0.121161
0.123974
0.126247
0.127457
0.127129
0.124926
0.120725
0.114682
0.107232
0.0990378
0.0908985
0.0836379
0.0779978
0.0746117
0.0739745
0.0763133
0.0814081
0.0885173
0.0965164
0.104214
0.110671
0.115386
0.118301
0.119716
0.120118
0.120078
0.120095
0.1205
0.121436
0.122879
0.124704
0.126694
0.128507
0.129538
0.128752
0.124679
0.115862
0.101826
0.0840939
0.0663726
0.0532223
0.0477718
0.0495329
0.0562911
0.0634627
0.0673064
0.0648917
0.0556587
0.0357234
0.0188524
0.152475
0.133715
0.115522
0.113437
0.116876
0.117976
0.117933
0.118355
0.119041
0.119575
0.119919
0.120155
0.120303
0.120346
0.120275
0.120093
0.119791
0.119347
0.118755
0.118049
0.117291
0.116542
0.115843
0.115246
0.114841
0.114765
0.115182
0.116226
0.117938
0.120231
0.122867
0.125476
0.127612
0.128795
0.128586
0.12667
0.122924
0.11747
0.110671
0.103076
0.0953384
0.0881274
0.0820816
0.0778415
0.0760586
0.0772352
0.0814327
0.0880787
0.0960653
0.104109
0.111139
0.116544
0.120163
0.122235
0.123187
0.123542
0.123781
0.124244
0.125094
0.126343
0.127907
0.129618
0.131169
0.131961
0.130931
0.126549
0.117292
0.102621
0.084018
0.0652727
0.0512033
0.0453297
0.0472209
0.0546526
0.0627155
0.0674781
0.0657666
0.0570783
0.0367027
0.0202445
0.158781
0.133581
0.113735
0.113459
0.117511
0.118532
0.118607
0.119202
0.119986
0.120589
0.121007
0.121313
0.121525
0.121629
0.121619
0.121493
0.121244
0.120855
0.120325
0.119686
0.118995
0.118309
0.117674
0.117142
0.116798
0.116766
0.117189
0.118185
0.119785
0.121921
0.124388
0.126851
0.128905
0.130102
0.130026
0.128379
0.125026
0.120061
0.113789
0.10667
0.0992319
0.0920102
0.0855451
0.0804842
0.0776359
0.0777728
0.0812194
0.0875425
0.0956182
0.104052
0.111641
0.117656
0.121878
0.12446
0.125839
0.126496
0.126894
0.127382
0.128138
0.129198
0.130507
0.13193
0.133194
0.133725
0.132481
0.12794
0.118555
0.103713
0.0847701
0.0654482
0.0506879
0.0442754
0.0461511
0.0538523
0.0624271
0.0678008
0.0665912
0.058377
0.0376241
0.0215757
0.16527
0.132501
0.11183
0.113594
0.11805
0.118998
0.119225
0.119973
0.120835
0.121501
0.121984
0.122352
0.122621
0.12278
0.122823
0.122748
0.122546
0.122207
0.121731
0.12115
0.120516
0.119884
0.119302
0.118823
0.118527
0.118525
0.118946
0.119894
0.121395
0.123401
0.125738
0.128095
0.130104
0.13134
0.131403
0.129997
0.126984
0.122425
0.11658
0.109831
0.102601
0.0953109
0.0884215
0.0826001
0.0788082
0.0780617
0.0809069
0.0870145
0.0952268
0.104037
0.112114
0.11864
0.123339
0.126336
0.128021
0.128895
0.129394
0.129877
0.130529
0.131401
0.132456
0.133585
0.134544
0.134808
0.133382
0.128776
0.119448
0.104721
0.0857981
0.0662485
0.0510271
0.0441219
0.0458518
0.0535711
0.062395
0.0681546
0.0672952
0.059495
0.0384493
0.0228064
0.171857
0.130497
0.109967
0.113825
0.118488
0.119398
0.119795
0.12067
0.121595
0.122316
0.122857
0.123279
0.123597
0.123803
0.123891
0.12386
0.1237
0.123403
0.122974
0.122441
0.121855
0.121267
0.120728
0.120289
0.120027
0.120044
0.120454
0.121356
0.122779
0.124665
0.126899
0.129182
0.131172
0.132459
0.132651
0.131449
0.128713
0.124474
0.118949
0.112456
0.105339
0.0979372
0.0906633
0.0842142
0.0796767
0.0782507
0.0806471
0.0866072
0.0949417
0.104054
0.112514
0.119432
0.12449
0.127788
0.129694
0.13071
0.131268
0.131727
0.132276
0.132972
0.13379
0.13464
0.135314
0.135338
0.133768
0.12915
0.119959
0.105484
0.0867926
0.0672624
0.0517798
0.044451
0.0459803
0.053581
0.0624859
0.0684749
0.067856
0.0604138
0.0391608
0.0239176
0.17845
0.127666
0.108258
0.114108
0.118825
0.119747
0.120314
0.121288
0.122259
0.123025
0.123613
0.124077
0.124433
0.124675
0.124799
0.124802
0.124675
0.124411
0.124017
0.123521
0.122969
0.122414
0.121904
0.121493
0.121252
0.121276
0.121682
0.122523
0.123873
0.125685
0.127829
0.130063
0.132046
0.133382
0.133679
0.132634
0.130096
0.126077
0.120758
0.11441
0.107333
0.0998169
0.0922562
0.085372
0.0803292
0.0784415
0.0805258
0.0863672
0.0947772
0.104092
0.112814
0.120005
0.125311
0.128817
0.130885
0.131979
0.132569
0.132997
0.133454
0.133999
0.134614
0.13523
0.135673
0.135512
0.133839
0.129229
0.120186
0.105998
0.0876306
0.0682691
0.0526775
0.0450017
0.0463165
0.053733
0.0626176
0.0687318
0.0682774
0.0611411
0.0397568
0.024904
0.184958
0.12414
0.106772
0.114395
0.119069
0.120041
0.120756
0.121797
0.122796
0.123592
0.12421
0.124702
0.125082
0.125348
0.125494
0.125519
0.125413
0.12517
0.124799
0.124326
0.123797
0.123261
0.122768
0.122372
0.122141
0.122172
0.122547
0.123353
0.124651
0.126413
0.128494
0.130698
0.13268
0.134051
0.134421
0.133477
0.13106
0.127168
0.12196
0.11568
0.108605
0.101009
0.0932799
0.0861508
0.0808208
0.0786576
0.0805363
0.086281
0.0947104
0.104132
0.113009
0.120368
0.125834
0.129476
0.131643
0.132795
0.133401
0.133799
0.13418
0.134606
0.135066
0.13551
0.135792
0.135506
0.133765
0.129166
0.120249
0.106323
0.0882891
0.0691611
0.0535599
0.0456162
0.0467193
0.0539325
0.0627423
0.0689166
0.0685764
0.061699
0.0402465
0.0257712
0.191303
0.120076
0.105549
0.114648
0.11923
0.120262
0.121083
0.122156
0.123168
0.123978
0.124613
0.125119
0.125512
0.12579
0.125948
0.125985
0.12589
0.125659
0.1253
0.124839
0.124321
0.123795
0.12331
0.122921
0.122695
0.12272
0.123082
0.12387
0.125137
0.126864
0.128916
0.131101
0.133083
0.134473
0.134882
0.133992
0.131639
0.127808
0.12265
0.116396
0.109315
0.101678
0.0938741
0.0866393
0.0811777
0.078872
0.080624
0.0862874
0.0946966
0.104154
0.113107
0.120561
0.126122
0.12985
0.132081
0.13327
0.133881
0.134254
0.134577
0.134919
0.135278
0.135616
0.135803
0.13544
0.133654
0.129062
0.120241
0.106531
0.0887899
0.0698988
0.0543388
0.0462082
0.0471052
0.0541248
0.0628377
0.0690346
0.0687767
0.062118
0.0406472
0.0265344
0.197486
0.115742
0.104616
0.114839
0.119312
0.120394
0.121274
0.122361
0.123376
0.124193
0.124835
0.125347
0.125746
0.12603
0.126194
0.126236
0.126147
0.125921
0.125567
0.125113
0.1246
0.124078
0.123597
0.123211
0.122987
0.12301
0.123368
0.124147
0.125401
0.127111
0.129149
0.131325
0.133305
0.134704
0.135128
0.134263
0.131937
0.128131
0.12299
0.116743
0.109657
0.102006
0.0941816
0.0869195
0.0814163
0.0790499
0.0807293
0.0863277
0.0946977
0.104151
0.113131
0.120632
0.126248
0.130027
0.132297
0.133508
0.134119
0.134472
0.134757
0.13505
0.135355
0.13564
0.135777
0.135371
0.133556
0.128968
0.12022
0.106676
0.0891702
0.0704837
0.0549783
0.0467321
0.0474313
0.054284
0.0628997
0.0691014
0.0689071
0.0624336
0.0409831
0.0272189
0.203649
0.111653
0.103981
0.114956
0.119329
0.120441
0.121353
0.122445
0.123463
0.124283
0.124929
0.125444
0.125845
0.126132
0.126299
0.126344
0.126256
0.126032
0.125681
0.125229
0.124719
0.124199
0.123719
0.123333
0.123112
0.123137
0.123495
0.124271
0.125522
0.127227
0.129261
0.131433
0.133412
0.134811
0.13524
0.134382
0.132058
0.128266
0.123129
0.116883
0.109794
0.102141
0.0943177
0.0870598
0.0815549
0.0791701
0.0808118
0.0863631
0.094692
0.104125
0.113107
0.12063
0.126275
0.130083
0.132375
0.133597
0.134207
0.134547
0.134813
0.135084
0.135367
0.135632
0.135745
0.135316
0.133489
0.128904
0.12021
0.1068
0.0894744
0.0709455
0.0554844
0.0471625
0.0476871
0.0544059
0.0629364
0.0691386
0.0689983
0.0626834
0.0412805
0.0278644
0.209746
0.108447
0.103584
0.115005
0.119309
0.120435
0.12136
0.122459
0.12348
0.124302
0.12495
0.125467
0.12587
0.126158
0.126326
0.126372
0.126285
0.126062
0.125711
0.12526
0.12475
0.12423
0.123751
0.123367
0.123148
0.123175
0.123534
0.124312
0.125565
0.127269
0.129306
0.131477
0.133455
0.134853
0.135281
0.134423
0.132098
0.128308
0.123171
0.116925
0.109836
0.102183
0.0943654
0.0871163
0.0816183
0.0792291
0.0808514
0.0863718
0.0946694
0.104082
0.113061
0.120592
0.126253
0.130078
0.132383
0.133611
0.13422
0.134553
0.134811
0.135074
0.135352
0.135611
0.135718
0.135288
0.133458
0.128893
0.12024
0.106937
0.0897461
0.0713184
0.0558705
0.047471
0.0478559
0.0544787
0.0629511
0.069166
0.0690847
0.0629191
0.0415782
0.02853
0.214473
0.106504
0.103359
0.115032
0.119286
0.12041
0.121343
0.122449
0.123472
0.124296
0.124945
0.125463
0.125866
0.126154
0.126323
0.126369
0.126282
0.126058
0.125707
0.125256
0.124746
0.124227
0.123748
0.123365
0.123148
0.123176
0.123538
0.124319
0.125574
0.127281
0.129319
0.131492
0.133469
0.134867
0.135293
0.134435
0.132109
0.128316
0.123181
0.116935
0.109847
0.102196
0.0943818
0.0871372
0.0816409
0.0792456
0.0808509
0.0863453
0.0946284
0.104031
0.113009
0.120546
0.126218
0.130054
0.132368
0.133599
0.134208
0.134539
0.134794
0.135056
0.135334
0.135591
0.135698
0.135263
0.133438
0.128904
0.120312
0.107092
0.0899939
0.0716299
0.0561668
0.0476886
0.0479667
0.0545021
0.0629467
0.0691835
0.0691603
0.063139
0.0418448
0.029175
)
;

boundaryField
{
    inlet
    {
        type            zeroGradient;
    }
    outlet
    {
        type            fixedValue;
        value           uniform 0;
    }
    fixedWalls
    {
        type            zeroGradient;
    }
    frontAndBack
    {
        type            empty;
    }
}


// ************************************************************************* //
