/*--------------------------------*- C++ -*----------------------------------*\
| =========                 |                                                 |
| \\      /  F ield         | OpenFOAM: The Open Source CFD Toolbox           |
|  \\    /   O peration     | Version:  v1912                                 |
|   \\  /    A nd           | Website:  www.openfoam.com                      |
|    \\/     M anipulation  |                                                 |
\*---------------------------------------------------------------------------*/
FoamFile
{
    version     2.0;
    format      ascii;
    class       volVectorField;
    location    "100";
    object      U;
}
// * * * * * * * * * * * * * * * * * * * * * * * * * * * * * * * * * * * * * //

dimensions      [0 1 -1 0 0 0 0];


internalField   nonuniform List<vector> 
2000
(
(0.846159 0.187397 0)
(0.515123 0.124095 0)
(0.223424 0.0684478 0)
(0.0597759 0.0174437 6.21365e-20)
(-0.00456639 -0.0231974 1.17304e-17)
(-0.0642765 -0.0383652 1.01092e-17)
(-0.0777177 -0.03718 0)
(-0.0717251 -0.0168796 0)
(-0.0591463 0.0110183 0)
(-0.0418999 0.0246282 2.29687e-17)
(-0.0411703 0.0103094 -1.40725e-17)
(-0.0271901 -0.00167882 -1.32163e-17)
(-0.0158429 -0.00413385 0)
(-0.0178274 -0.00366681 0)
(-0.0177577 -0.00303081 -1.05374e-17)
(-0.00902231 -0.00382861 0)
(0.00226625 -0.00542813 9.44698e-18)
(0.00986475 -0.00545363 2.82697e-21)
(0.0158124 -0.00604377 8.92957e-18)
(0.0217376 -0.00718692 -4.34057e-18)
(0.0291407 -0.00846303 8.42975e-18)
(0.0377693 -0.00947778 0)
(0.046552 -0.0100492 0)
(0.0543036 -0.00996448 -8.71969e-21)
(0.060483 -0.00922767 0)
(0.065109 -0.00799317 -3.77913e-18)
(0.0685523 -0.00629714 0)
(0.0711957 -0.00405873 3.79968e-18)
(0.0732046 -0.0014703 0)
(0.0746441 0.00107291 0)
(0.0754581 0.00308432 0)
(0.0753053 0.00421764 9.94533e-19)
(0.0738261 0.00476575 0)
(0.070734 0.0053458 -5.06856e-19)
(0.0657474 0.00598857 1.66426e-14)
(0.0586028 0.00675262 1.63909e-14)
(0.0489304 0.00808797 4.97007e-19)
(0.0364128 0.0100515 -4.93245e-19)
(0.0210228 0.0125555 0)
(0.00351715 0.0145613 1.88238e-18)
(-0.0141636 0.0146128 0)
(-0.0290906 0.0119648 -1.75656e-18)
(-0.039223 0.00668922 0)
(-0.0440662 7.71974e-05 -3.50346e-18)
(-0.0434229 -0.00642992 1.88797e-18)
(-0.0393 -0.0125797 0)
(-0.0341449 -0.0164722 0)
(-0.0344111 -0.012785 -2.46915e-18)
(-0.0432779 0.00357331 0)
(-0.068938 0.022231 2.76696e-18)
(-0.112497 0.0385266 0)
(-0.171484 0.0475251 4.66276e-18)
(-0.241201 0.0453501 -3.93469e-18)
(-0.313467 0.0309842 3.04286e-18)
(-0.378235 0.00710166 -5.94583e-19)
(-0.425619 -0.0204469 0)
(-0.449119 -0.0450171 1.24469e-19)
(-0.449538 -0.0624578 -2.42036e-19)
(-0.437884 -0.0728833 -1.3273e-18)
(-0.415221 -0.0779556 1.91193e-18)
(-0.385057 -0.0791768 -2.97748e-18)
(-0.34982 -0.0778829 4.2106e-18)
(-0.311406 -0.075055 -5.58556e-18)
(-0.270744 -0.0713599 7.13961e-18)
(-0.227985 -0.067074 -6.93796e-20)
(-0.182709 -0.0623254 1.07597e-17)
(-0.134408 -0.0571286 0)
(-0.0829555 -0.0514615 0)
(-0.0289912 -0.0451232 3.23131e-19)
(0.0272076 -0.0375078 0)
(0.0883051 -0.0284586 2.07265e-17)
(0.1512 -0.017729 0)
(0.215538 -0.00561707 1.86112e-17)
(0.280984 0.00751055 -5.74379e-19)
(0.346884 0.0213306 1.56359e-17)
(0.414123 0.0355499 2.6873e-17)
(0.48057 0.0498087 7.06444e-19)
(0.556013 0.0638896 -9.05475e-18)
(0.614557 0.0761015 -5.83714e-18)
(0.743875 0.0879109 0)
(1.0153 0.210392 0)
(0.94463 0.19423 0)
(0.804455 0.18001 -3.44512e-18)
(0.654374 0.152341 7.11039e-18)
(0.509152 0.111198 0)
(0.359918 0.0684138 -7.07044e-18)
(0.216382 0.029391 0)
(0.0820448 -0.0051621 0)
(-0.0282687 -0.0180261 0)
(-0.0565512 -0.0188885 -1.67826e-17)
(-0.0673253 -0.0243424 1.52631e-17)
(-0.0726363 -0.0152305 1.39984e-17)
(-0.06516 0.00603109 0)
(-0.053462 0.0179257 6.12379e-18)
(-0.0580284 0.00530797 0)
(-0.05457 -0.00832659 0)
(-0.0483655 -0.0111329 0)
(-0.0459622 -0.00872143 4.95434e-18)
(-0.0487035 -0.00723329 -9.7238e-18)
(-0.0499364 -0.00824637 -4.74571e-18)
(-0.0489305 -0.0110951 0)
(-0.0458128 -0.0136188 0)
(-0.0413625 -0.0143006 0)
(-0.0363105 -0.0128985 -6.68269e-18)
(-0.0313661 -0.0104743 0)
(-0.0265331 -0.00839765 4.46104e-18)
(-0.0211715 -0.00747512 2.22724e-18)
(-0.0144018 -0.00763476 0)
(-0.00569924 -0.00837204 0)
(0.00452151 -0.00881875 0)
(0.0146104 -0.00808503 0)
(0.0234888 -0.00581988 -5.89511e-19)
(0.0299224 -0.0020563 0)
(0.0321201 0.00290858 2.91431e-19)
(0.0290845 0.00986392 1.49671e-19)
(0.0206391 0.0189321 0)
(0.00574143 0.0294515 0)
(-0.0156458 0.0401746 5.48155e-19)
(-0.0414584 0.0490732 0)
(-0.0692058 0.0530574 -9.37649e-19)
(-0.0955254 0.0494444 0)
(-0.117165 0.0378464 -7.06802e-19)
(-0.131755 0.0211118 0)
(-0.138044 0.00433917 1.01517e-18)
(-0.13574 -0.00782919 7.73718e-19)
(-0.126178 -0.0118259 0)
(-0.113901 -0.0049282 0)
(-0.106318 0.0136426 -2.71807e-18)
(-0.106591 0.0435792 0)
(-0.118024 0.0779881 3.17293e-19)
(-0.141205 0.109317 0)
(-0.171577 0.128581 0)
(-0.202237 0.129632 0)
(-0.223655 0.110582 0)
(-0.226362 0.0742563 9.42639e-19)
(-0.206306 0.0272181 0)
(-0.172945 -0.0221137 1.49991e-19)
(-0.149908 -0.0633889 3.74594e-19)
(-0.116163 -0.0901133 -6.49612e-19)
(-0.0812835 -0.105813 -3.0868e-18)
(-0.0455251 -0.113344 4.89784e-18)
(-0.00959773 -0.115083 -7.0115e-18)
(0.0263411 -0.11306 8.87163e-18)
(0.0627996 -0.109626 0)
(0.100526 -0.106186 -1.67726e-17)
(0.139862 -0.103222 -1.22481e-17)
(0.181628 -0.100499 0)
(0.226481 -0.097357 6.53864e-18)
(0.274481 -0.0929736 1.41796e-17)
(0.325133 -0.0862625 0)
(0.377743 -0.076802 0)
(0.431422 -0.0644847 0)
(0.485604 -0.0496584 0)
(0.540039 -0.0329725 -1.35434e-17)
(0.594517 -0.0151979 5.74589e-18)
(0.649802 0.00291044 -1.13448e-17)
(0.704817 0.0204544 9.67719e-18)
(0.76609 0.0367493 -3.27137e-18)
(0.814773 0.0492037 0)
(0.912223 0.0584485 0)
(0.97849 0.201547 0)
(0.978856 0.193031 -2.69764e-18)
(0.969153 0.205153 3.39865e-18)
(0.939066 0.208588 -2.97999e-18)
(0.87799 0.194674 2.8051e-18)
(0.785521 0.168793 2.76144e-18)
(0.669229 0.138146 0)
(0.540831 0.106078 0)
(0.408 0.0750948 0)
(0.285614 0.0459536 6.66387e-18)
(0.173301 0.0180189 0)
(0.0717316 -0.00632221 0)
(-0.0209459 -0.0136242 0)
(-0.0462202 -0.003917 -6.97579e-18)
(-0.0514431 -0.0109728 0)
(-0.0607272 -0.0156338 -5.85399e-18)
(-0.0642084 -0.00861751 0)
(-0.0626789 0.00619972 5.56162e-18)
(-0.0717162 0.00801876 2.67896e-18)
(-0.0822653 0.00120072 0)
(-0.0916266 -0.00645395 -2.49347e-18)
(-0.0985818 -0.0116681 0)
(-0.103608 -0.0133462 0)
(-0.107588 -0.0124288 4.6275e-18)
(-0.111286 -0.0105763 0)
(-0.114488 -0.00974468 1.11083e-18)
(-0.116114 -0.0111223 -3.34996e-18)
(-0.114868 -0.0143936 0)
(-0.10979 -0.0183847 0)
(-0.100646 -0.0210137 -5.90275e-19)
(-0.0885513 -0.020375 0)
(-0.0758796 -0.0155422 2.59699e-20)
(-0.0657653 -0.00658935 0)
(-0.0602327 0.00589923 6.94421e-19)
(-0.0601571 0.021483 8.92116e-20)
(-0.0671902 0.0404808 0)
(-0.0820703 0.0608736 1.58313e-19)
(-0.103992 0.0796174 -2.80411e-19)
(-0.13094 0.0922804 -2.36913e-19)
(-0.160314 0.0946226 -3.79758e-19)
(-0.188934 0.084041 2.8904e-19)
(-0.212937 0.0608891 4.84467e-19)
(-0.22819 0.028867 0)
(-0.232054 -0.0053328 7.11665e-19)
(-0.223954 -0.0332248 -1.28663e-18)
(-0.202831 -0.0453713 0)
(-0.16798 -0.0363024 -1.12585e-18)
(-0.122739 -0.00612087 2.95407e-18)
(-0.0763775 0.037346 0)
(-0.0371677 0.0822325 -1.75099e-18)
(-0.00353795 0.122183 2.20399e-18)
(0.0258788 0.147587 -1.8592e-18)
(0.0534214 0.150354 -1.34596e-18)
(0.0830649 0.125631 0)
(0.118696 0.0742562 -2.14402e-19)
(0.15546 0.0072535 -1.07531e-20)
(0.177032 -0.0490975 -3.67282e-19)
(0.192588 -0.0874155 1.5637e-19)
(0.212213 -0.112077 6.28872e-19)
(0.235168 -0.126686 0)
(0.259488 -0.133476 0)
(0.285093 -0.134435 0)
(0.312522 -0.131864 -1.57497e-18)
(0.342215 -0.128115 0)
(0.374536 -0.125095 4.22356e-18)
(0.40978 -0.123624 0)
(0.448027 -0.123298 -2.35976e-18)
(0.488953 -0.122823 -5.32323e-18)
(0.531807 -0.120605 0)
(0.575609 -0.11536 -2.68993e-18)
(0.61943 -0.106532 2.73718e-18)
(0.66259 -0.0942603 0)
(0.70478 -0.0792679 0)
(0.746106 -0.0626111 0)
(0.786852 -0.0454354 -5.4371e-18)
(0.827957 -0.0287971 0)
(0.868993 -0.0138049 -1.84313e-18)
(0.914584 -0.00124463 3.26726e-18)
(0.951192 0.00665106 0)
(1.02317 0.0108771 3.78663e-19)
(0.970611 0.209126 0)
(0.963918 0.19479 1.47511e-18)
(0.966435 0.198558 0)
(0.97716 0.206474 1.65053e-18)
(0.982038 0.208974 -2.92057e-18)
(0.968279 0.204374 -1.30117e-18)
(0.930697 0.193837 0)
(0.870638 0.177979 0)
(0.790914 0.156673 0)
(0.695087 0.131441 1.31145e-18)
(0.589007 0.105534 1.34176e-18)
(0.479475 0.0807723 0)
(0.368572 0.0579852 0)
(0.266044 0.0373606 0)
(0.178093 0.0178341 0)
(0.0982723 0.00189374 6.22324e-18)
(0.0289045 -0.00890912 -3.28304e-18)
(-0.0265509 -0.00418862 0)
(-0.0315316 0.00615142 -3.13833e-18)
(-0.0400545 0.00634414 1.52149e-18)
(-0.048729 0.00262133 2.95636e-18)
(-0.0611559 -0.00127659 0)
(-0.0755621 -0.00232019 0)
(-0.090262 -0.000897275 -2.67798e-18)
(-0.104302 0.000897443 0)
(-0.117332 0.000288464 -1.25858e-18)
(-0.128325 -0.00482815 1.23473e-18)
(-0.136222 -0.0142144 0)
(-0.139731 -0.0244178 0)
(-0.137619 -0.0318219 6.33396e-19)
(-0.129927 -0.0335358 0)
(-0.118146 -0.0280191 -7.09034e-19)
(-0.105179 -0.0153725 0)
(-0.0945772 0.00336675 -1.7583e-19)
(-0.0877342 0.0269517 -9.74405e-20)
(-0.0853149 0.0530233 -2.59556e-20)
(-0.0885382 0.0792067 -2.69345e-19)
(-0.0960776 0.101702 3.12368e-19)
(-0.105961 0.115674 2.68476e-19)
(-0.115984 0.116718 6.28669e-19)
(-0.123863 0.102226 -2.30437e-19)
(-0.127576 0.0723792 2.14948e-19)
(-0.125865 0.0303239 0)
(-0.119241 -0.0176943 5.12751e-20)
(-0.1071 -0.0627687 4.75379e-19)
(-0.0909013 -0.0967422 0)
(-0.0691995 -0.112453 1.34632e-18)
(-0.0383313 -0.104344 9.46274e-19)
(0.00907466 -0.0700474 0)
(0.0751674 -0.0114105 -3.66718e-18)
(0.149019 0.0489991 -2.15964e-18)
(0.224364 0.0922837 7.50056e-19)
(0.295678 0.109085 1.19047e-18)
(0.35858 0.0965588 0)
(0.410126 0.0600256 3.11365e-19)
(0.446599 0.0119209 1.99991e-19)
(0.466859 -0.0358177 -1.06075e-20)
(0.47718 -0.0760433 -1.28487e-19)
(0.485165 -0.10668 -2.6164e-19)
(0.493996 -0.12773 0)
(0.504662 -0.140261 0)
(0.518381 -0.146376 0)
(0.536493 -0.148793 2.09424e-18)
(0.559832 -0.150104 7.8984e-19)
(0.588485 -0.152022 0)
(0.621763 -0.154889 -1.90196e-18)
(0.658291 -0.157732 2.1591e-18)
(0.696315 -0.158839 -2.14841e-18)
(0.734124 -0.156564 -2.24606e-18)
(0.770409 -0.149942 2.26363e-19)
(0.804436 -0.138926 -2.63376e-18)
(0.836052 -0.124252 0)
(0.865574 -0.107137 0)
(0.893692 -0.0889578 0)
(0.92119 -0.0710138 0)
(0.949218 -0.0543728 0)
(0.977755 -0.0400135 3.6217e-18)
(1.01023 -0.0284464 -1.317e-18)
(1.03673 -0.0214258 0)
(1.08878 -0.0169757 -4.09768e-19)
(0.972988 0.21609 0)
(0.965832 0.201831 1.81364e-18)
(0.95921 0.19564 2.42423e-19)
(0.961499 0.195608 1.85622e-18)
(0.972687 0.197623 0)
(0.985546 0.199349 -1.56248e-18)
(0.992519 0.199434 0)
(0.988448 0.196414 -3.52341e-19)
(0.970154 0.189216 0)
(0.935477 0.17778 -1.55883e-18)
(0.884452 0.163003 -1.20597e-18)
(0.819166 0.145908 -3.06085e-19)
(0.742544 0.126894 3.03857e-19)
(0.656895 0.106206 0)
(0.567278 0.085431 3.04259e-19)
(0.476624 0.066488 0)
(0.389924 0.0504636 2.57542e-18)
(0.30979 0.0369319 -3.39476e-19)
(0.243032 0.0257235 0)
(0.18937 0.0174628 -1.7938e-18)
(0.146108 0.0120394 0)
(0.10963 0.00893194 0)
(0.0786369 0.00782388 0)
(0.0526864 0.00847317 0)
(0.0320027 0.00987543 -1.91976e-19)
(0.0155853 0.00931606 0)
(0.00369153 0.00254708 0)
(-0.00581536 -0.0102393 9.30982e-20)
(-0.01426 -0.0246107 0)
(-0.0227688 -0.0369829 0)
(-0.0294442 -0.0441527 0)
(-0.0313959 -0.042912 -5.99111e-20)
(-0.0265747 -0.0313055 0)
(-0.0149333 -0.0100256 -3.08391e-19)
(-0.00214313 0.0179014 0)
(0.010482 0.0478829 3.224e-20)
(0.0240307 0.0771806 1.46616e-19)
(0.0385693 0.101743 2.57424e-20)
(0.0550255 0.116866 -3.91316e-20)
(0.0745376 0.118503 -2.21719e-19)
(0.0981158 0.104584 -1.322e-19)
(0.125537 0.0756646 5.83242e-20)
(0.154226 0.0348261 4.67875e-21)
(0.179759 -0.0123538 -5.27819e-20)
(0.20411 -0.057083 1.63808e-19)
(0.22552 -0.0924432 -3.82724e-20)
(0.242925 -0.114133 0)
(0.256544 -0.121298 -7.95286e-19)
(0.269238 -0.115389 0)
(0.288243 -0.0997245 1.12052e-18)
(0.322523 -0.0740477 0)
(0.375509 -0.0418724 9.68992e-19)
(0.439314 -0.016778 0)
(0.502774 -0.00887697 -1.53684e-19)
(0.556838 -0.0195411 -3.07719e-19)
(0.597785 -0.0424879 -1.84443e-19)
(0.624829 -0.0701461 7.01415e-20)
(0.641586 -0.0963942 0)
(0.653226 -0.1184 2.54962e-19)
(0.663544 -0.135507 -1.02407e-19)
(0.6751 -0.148141 0)
(0.689967 -0.157526 1.46382e-19)
(0.70959 -0.165247 -6.70331e-19)
(0.734337 -0.172547 -7.63878e-19)
(0.763371 -0.179732 0)
(0.794939 -0.186031 1.84885e-18)
(0.826928 -0.189943 0)
(0.857456 -0.189906 2.12674e-18)
(0.885276 -0.184911 2.25095e-18)
(0.90987 -0.174815 2.35933e-18)
(0.931326 -0.160321 2.72444e-19)
(0.95017 -0.142726 0)
(0.96721 -0.123586 0)
(0.98345 -0.104409 0)
(0.999868 -0.0864566 -2.59174e-19)
(1.01763 -0.0706395 0)
(1.03682 -0.0576509 -1.64562e-18)
(1.06015 -0.0477315 1.61191e-18)
(1.07957 -0.0419325 1.01488e-19)
(1.11972 -0.0384972 4.36288e-20)
(0.974194 0.218523 -1.19841e-18)
(0.970936 0.206385 1.16028e-18)
(0.965123 0.19821 -2.74322e-19)
(0.961147 0.194168 0)
(0.962214 0.19202 0)
(0.96829 0.190649 0)
(0.977818 0.190021 0)
(0.98856 0.189656 1.2175e-18)
(0.997487 0.188528 0)
(1.00096 0.185631 -1.08801e-18)
(0.995746 0.180286 -1.35543e-18)
(0.979701 0.172287 3.10435e-19)
(0.952316 0.161864 9.38264e-19)
(0.913598 0.149163 0)
(0.864353 0.134466 -1.4312e-18)
(0.80616 0.118819 0)
(0.742946 0.103659 -1.14078e-18)
(0.679197 0.089453 2.84928e-19)
(0.617386 0.076153 -1.17854e-18)
(0.559798 0.0640721 -8.97681e-19)
(0.507254 0.0534706 0)
(0.460023 0.044546 0)
(0.418444 0.0373414 -6.21719e-19)
(0.382985 0.0317042 0)
(0.354166 0.0271642 -4.65838e-19)
(0.33228 0.0224972 0)
(0.317001 0.0161221 0)
(0.303862 0.00742489 -7.70433e-20)
(0.288672 -0.00356461 0)
(0.269716 -0.0155144 0)
(0.246039 -0.0267302 0)
(0.219324 -0.0347897 5.58329e-20)
(0.194569 -0.0365081 2.55666e-19)
(0.178842 -0.0288033 1.73028e-19)
(0.177206 -0.0102585 0)
(0.189121 0.0172893 0)
(0.211408 0.04749 -2.85497e-20)
(0.241239 0.0733107 -1.19998e-19)
(0.276367 0.0888468 3.54284e-20)
(0.314967 0.0901161 0)
(0.355415 0.0751348 0)
(0.396293 0.0440628 -1.536e-20)
(0.436234 0.00067123 -3.872e-21)
(0.472693 -0.046236 -1.29024e-20)
(0.504363 -0.088692 6.31828e-20)
(0.530951 -0.120203 3.20005e-20)
(0.552674 -0.136575 0)
(0.571126 -0.136841 3.11201e-19)
(0.588411 -0.123177 0)
(0.605597 -0.100541 0)
(0.622743 -0.0760206 0)
(0.640982 -0.0570469 0)
(0.662858 -0.0476581 0)
(0.689256 -0.0485916 1.51076e-19)
(0.717135 -0.058609 0)
(0.742452 -0.0755309 4.38575e-19)
(0.763069 -0.0957277 -7.11778e-20)
(0.779516 -0.115958 0)
(0.793718 -0.134604 4.29693e-19)
(0.807616 -0.151148 1.03784e-19)
(0.822661 -0.165587 5.52777e-19)
(0.839798 -0.178238 -1.47183e-19)
(0.859328 -0.189506 0)
(0.880735 -0.199478 -7.63036e-19)
(0.902813 -0.207654 0)
(0.924123 -0.213011 0)
(0.943527 -0.214389 -9.23858e-19)
(0.960496 -0.210921 0)
(0.975057 -0.202325 0)
(0.987524 -0.188994 -1.02581e-18)
(0.998281 -0.171939 -2.94684e-19)
(1.00777 -0.152619 0)
(1.01656 -0.132653 0)
(1.02545 -0.113533 0)
(1.0353 -0.0964098 2.88652e-19)
(1.04717 -0.0820001 -9.60181e-19)
(1.06115 -0.070701 -2.31491e-19)
(1.0796 -0.0624759 -1.82648e-19)
(1.09533 -0.0577902 -1.14873e-19)
(1.12964 -0.0550627 -2.32704e-19)
(0.974501 0.219018 4.23902e-18)
(0.973758 0.208055 -4.07089e-18)
(0.971718 0.20046 0)
(0.969168 0.196263 -2.47033e-18)
(0.967069 0.19301 0)
(0.966191 0.189408 -2.17696e-18)
(0.967461 0.185943 0)
(0.971731 0.183171 2.89763e-18)
(0.979063 0.18094 -3.59612e-18)
(0.988392 0.178757 1.64063e-18)
(0.997817 0.176124 1.53303e-18)
(1.00509 0.172597 0)
(1.00818 0.167836 -4.14322e-18)
(1.00538 0.161451 -2.63726e-18)
(0.99528 0.153138 3.70364e-18)
(0.977114 0.143183 0)
(0.951856 0.132457 1.13063e-18)
(0.921935 0.121678 0)
(0.889211 0.110814 1.11254e-18)
(0.855047 0.0997545 1.1007e-18)
(0.820583 0.0888084 0)
(0.786999 0.0784415 0)
(0.755485 0.0689226 -5.81178e-19)
(0.727117 0.0601623 0)
(0.702705 0.0516676 5.37029e-19)
(0.68257 0.0425388 0)
(0.666107 0.0320297 0)
(0.651622 0.0205317 0)
(0.637969 0.00939382 0)
(0.623687 0.000299545 0)
(0.60805 -0.00530034 0)
(0.590602 -0.00681717 0)
(0.570691 -0.00485985 2.1469e-19)
(0.548231 -0.000642932 -1.13454e-19)
(0.524376 0.00529536 5.87307e-20)
(0.50489 0.014226 0)
(0.497997 0.0263241 0)
(0.507312 0.0381949 8.81717e-20)
(0.531224 0.044459 -2.71926e-19)
(0.565666 0.0401281 1.88925e-19)
(0.607087 0.0222558 0)
(0.653061 -0.00826354 1.33848e-19)
(0.698345 -0.0466425 -7.39797e-20)
(0.737299 -0.0865916 -8.66511e-20)
(0.767058 -0.121134 -5.79892e-20)
(0.787091 -0.144974 0)
(0.798714 -0.155601 0)
(0.804742 -0.153371 -8.74492e-19)
(0.808707 -0.140941 0)
(0.814058 -0.122181 0)
(0.823581 -0.10114 0)
(0.838508 -0.0818116 8.13363e-19)
(0.857711 -0.0682012 1.5164e-18)
(0.878291 -0.0636325 0)
(0.897297 -0.0690397 0)
(0.912917 -0.0827132 -4.36202e-19)
(0.924635 -0.101411 0)
(0.933079 -0.121943 1.01605e-18)
(0.939593 -0.142081 6.31571e-19)
(0.945494 -0.16063 0)
(0.951624 -0.177099 7.02552e-19)
(0.958333 -0.191383 1.39663e-18)
(0.965567 -0.203485 1.52357e-18)
(0.972948 -0.213248 8.05012e-19)
(0.980003 -0.220225 -1.75655e-18)
(0.986508 -0.223773 1.85273e-18)
(0.992712 -0.223277 2.9353e-18)
(0.999189 -0.218295 0)
(1.00635 -0.208657 0)
(1.01408 -0.19462 1.13838e-18)
(1.02179 -0.177046 0)
(1.02894 -0.157401 2.11157e-18)
(1.03545 -0.137451 2.13693e-18)
(1.04186 -0.118841 0)
(1.04907 -0.102769 2.10923e-18)
(1.05828 -0.0898505 -9.07796e-19)
(1.06977 -0.0802473 0)
(1.08586 -0.0736898 0)
(1.09988 -0.0701238 0)
(1.13159 -0.0682389 -1.9082e-19)
(0.974733 0.218945 -3.26701e-18)
(0.975459 0.20822 3.12765e-18)
(0.976062 0.201092 -6.07736e-18)
(0.975947 0.197416 2.79394e-18)
(0.974893 0.194528 0)
(0.973227 0.190876 2.46206e-18)
(0.971526 0.186701 -4.71316e-18)
(0.970528 0.182488 -4.36708e-18)
(0.971072 0.178323 -7.8355e-20)
(0.973814 0.174202 0)
(0.978959 0.170199 0)
(0.986171 0.166292 3.49219e-18)
(0.994628 0.162265 3.19295e-18)
(1.00316 0.15773 -3.17666e-18)
(1.01033 0.152327 -8.61152e-18)
(1.01473 0.145966 0)
(1.01546 0.138924 0)
(1.01256 0.131428 0)
(1.00648 0.123323 0)
(0.99767 0.114511 0)
(0.986627 0.105224 0)
(0.974089 0.0958032 0)
(0.960951 0.0864286 1.12592e-18)
(0.948079 0.0770033 -2.32287e-18)
(0.936106 0.0671754 0)
(0.925247 0.0564912 0)
(0.915165 0.0448542 0)
(0.90515 0.0329534 0)
(0.894539 0.0219514 0)
(0.882877 0.0128773 -6.49264e-19)
(0.869965 0.00667564 0)
(0.856108 0.00404265 0)
(0.841949 0.00543241 2.19464e-21)
(0.82851 0.0108524 0)
(0.81682 0.0191763 -5.3226e-20)
(0.808104 0.0279652 0)
(0.804527 0.0343171 1.86398e-19)
(0.80881 0.0358709 0)
(0.822822 0.0307465 5.21071e-19)
(0.846809 0.0171351 -1.79798e-19)
(0.8786 -0.00607656 -2.9087e-19)
(0.911873 -0.0379767 -1.11975e-19)
(0.940774 -0.0742689 7.05753e-20)
(0.961028 -0.108844 9.57777e-20)
(0.970807 -0.136169 5.1038e-19)
(0.970807 -0.152869 7.04491e-19)
(0.963638 -0.158027 0)
(0.952953 -0.152819 -5.77902e-19)
(0.942512 -0.139888 0)
(0.935344 -0.122669 0)
(0.933236 -0.104958 -1.65468e-18)
(0.936611 -0.0904688 -8.58496e-19)
(0.94472 -0.0820899 1.57712e-20)
(0.955913 -0.0811599 0)
(0.967972 -0.0873813 0)
(0.97873 -0.0993182 0)
(0.986798 -0.114952 1.29505e-18)
(0.991856 -0.132223 -1.10032e-18)
(0.994358 -0.149544 -1.16159e-18)
(0.995013 -0.165946 0)
(0.994454 -0.180893 -1.3916e-18)
(0.993189 -0.194091 1.05643e-19)
(0.991644 -0.205348 -1.68389e-18)
(0.990224 -0.214441 1.87562e-18)
(0.989484 -0.221071 -1.55678e-20)
(0.990334 -0.224882 -2.07444e-18)
(0.993923 -0.225419 -2.16433e-18)
(1.001 -0.222002 0)
(1.01117 -0.21385 0)
(1.02283 -0.200626 0)
(1.03394 -0.183022 0)
(1.04302 -0.162813 -2.3802e-18)
(1.04977 -0.142302 -2.41733e-18)
(1.05505 -0.123586 0)
(1.06029 -0.108052 -2.4017e-18)
(1.06723 -0.0962597 4.40507e-18)
(1.07654 -0.0881109 0)
(1.09066 -0.0830788 0)
(1.1033 -0.0805418 0)
(1.13324 -0.0795169 9.10209e-19)
(0.975035 0.218509 8.14068e-18)
(0.977129 0.207493 0)
(0.979629 0.200839 1.39129e-17)
(0.980954 0.197766 0)
(0.980768 0.195243 6.05088e-18)
(0.97987 0.191906 0)
(0.978701 0.188016 5.32608e-18)
(0.977242 0.183804 0)
(0.975683 0.179175 -4.90089e-18)
(0.974545 0.174133 0)
(0.974412 0.168856 8.63115e-18)
(0.975773 0.163514 -3.99167e-18)
(0.978932 0.158157 0)
(0.983925 0.15271 7.08151e-18)
(0.99044 0.147052 -1.8021e-19)
(0.99787 0.141113 -6.44718e-18)
(1.00538 0.134999 6.22442e-18)
(1.01229 0.128728 0)
(1.01819 0.122061 0)
(1.02276 0.114821 5.73319e-18)
(1.0258 0.107053 0)
(1.02734 0.0988921 -2.73883e-18)
(1.02767 0.0903948 0)
(1.02712 0.0814618 2.51605e-18)
(1.02588 0.0718823 0)
(1.02391 0.0614796 2.57628e-18)
(1.02087 0.0503756 0)
(1.01632 0.0391821 0)
(1.01004 0.0288731 1.36176e-18)
(1.00223 0.0205049 6.82114e-19)
(0.993473 0.0149807 0)
(0.984666 0.0128507 0)
(0.976891 0.0141349 -1.24545e-18)
(0.971403 0.0182102 0)
(0.969436 0.0237395 0)
(0.971883 0.0287244 0)
(0.979191 0.0308483 -1.89551e-19)
(0.991476 0.02791 0)
(1.00854 0.0180772 -8.57649e-19)
(1.02914 0.000179505 -4.85963e-19)
(1.04989 -0.0253676 2.94878e-19)
(1.06673 -0.0559186 0)
(1.07618 -0.0871531 0)
(1.0762 -0.114477 5.89038e-19)
(1.06689 -0.134393 -5.48746e-19)
(1.05022 -0.145195 -7.65768e-19)
(1.02932 -0.146973 0)
(1.00761 -0.141206 1.04415e-20)
(0.98819 -0.130269 1.49614e-18)
(0.973387 -0.11691 0)
(0.964493 -0.103845 1.83761e-18)
(0.961697 -0.0934352 1.84395e-18)
(0.964115 -0.0874534 -1.8116e-18)
(0.970006 -0.086958 0)
(0.977222 -0.0921629 0)
(0.983811 -0.102348 0)
(0.988491 -0.116074 -1.45995e-18)
(0.990767 -0.131685 0)
(0.99077 -0.14776 0)
(0.98898 -0.16331 0)
(0.98602 -0.177745 3.71474e-18)
(0.982573 -0.190763 -1.86219e-18)
(0.979348 -0.202217 0)
(0.977166 -0.212023 -2.12713e-18)
(0.977184 -0.220133 -2.29352e-18)
(0.980964 -0.226387 4.62281e-18)
(0.989848 -0.230084 -4.62743e-18)
(1.00383 -0.229706 -4.54341e-18)
(1.02097 -0.223432 0)
(1.03811 -0.210355 -4.24228e-18)
(1.05222 -0.191408 0)
(1.06176 -0.169187 0)
(1.06693 -0.14688 0)
(1.06941 -0.127178 4.47818e-18)
(1.07139 -0.111643 -4.62502e-18)
(1.07519 -0.10069 -7.03139e-18)
(1.08185 -0.0938544 0)
(1.09394 -0.0903585 3.50532e-18)
(1.10523 -0.0888188 0)
(1.1339 -0.0889173 -1.53345e-18)
(0.975434 0.217696 -9.23402e-18)
(0.979145 0.206106 -8.99159e-18)
(0.983429 0.200273 -1.60291e-17)
(0.985594 0.198039 0)
(0.985509 0.195739 -1.37592e-17)
(0.984822 0.192494 -6.55491e-18)
(0.984252 0.188831 0)
(0.983523 0.184856 1.16759e-17)
(0.982445 0.180369 1.08932e-17)
(0.981151 0.175321 0)
(0.979854 0.169807 -9.76103e-18)
(0.978799 0.163932 0)
(0.978311 0.157769 0)
(0.978739 0.151361 8.44074e-18)
(0.980342 0.144733 7.8088e-18)
(0.983241 0.137927 -1.75222e-19)
(0.987339 0.131131 1.76596e-19)
(0.992382 0.124445 0)
(0.99806 0.117696 0)
(1.00396 0.110693 -6.5684e-18)
(1.00967 0.103373 -6.60892e-18)
(1.01489 0.0957483 9.5949e-18)
(1.0195 0.087801 3.17329e-18)
(1.02342 0.0794297 3.11996e-18)
(1.02651 0.0704886 0)
(1.02847 0.060899 -2.91089e-18)
(1.02888 0.0508193 0)
(1.0274 0.040776 0)
(1.02401 0.0315856 -3.12561e-18)
(1.01915 0.0240978 0)
(1.01363 0.018947 0)
(1.00857 0.0164258 0)
(1.00522 0.0164096 9.22411e-19)
(1.00481 0.0183007 -4.71383e-19)
(1.00836 0.0209647 2.33885e-19)
(1.01643 0.0227969 0)
(1.02883 0.0218853 0)
(1.04465 0.0163168 0)
(1.06221 0.00472697 6.48164e-19)
(1.07918 -0.013073 5.34255e-19)
(1.0929 -0.0359636 -1.0174e-18)
(1.10058 -0.0615236 0)
(1.10038 -0.086507 0)
(1.09192 -0.107676 -1.47892e-18)
(1.07631 -0.122651 -8.98557e-19)
(1.0557 -0.13039 0)
(1.03271 -0.131197 0)
(1.00996 -0.126398 1.46101e-18)
(0.989727 -0.117923 -2.71908e-20)
(0.973714 -0.107917 0)
(0.962887 -0.0984551 0)
(0.957372 -0.0913639 -2.09543e-18)
(0.956493 -0.0880631 0)
(0.958953 -0.0893625 0)
(0.96315 -0.0952959 0)
(0.967542 -0.105172 0)
(0.970968 -0.117862 0)
(0.972825 -0.13214 -4.06829e-18)
(0.973056 -0.146941 0)
(0.972005 -0.161512 0)
(0.970239 -0.175419 2.43445e-19)
(0.968414 -0.188442 0)
(0.967252 -0.200497 0)
(0.967789 -0.211679 0)
(0.971659 -0.2222 1.02578e-17)
(0.980686 -0.231849 -5.15897e-18)
(0.995598 -0.239159 5.13741e-18)
(1.01494 -0.241342 1.68297e-19)
(1.03539 -0.235588 0)
(1.05319 -0.2209 4.73178e-18)
(1.06565 -0.198983 -4.09539e-18)
(1.07195 -0.173569 0)
(1.07318 -0.148781 0)
(1.07168 -0.127833 -4.99571e-19)
(1.07022 -0.112303 5.29725e-18)
(1.07136 -0.1023 5.20254e-18)
(1.07612 -0.0969467 0)
(1.08717 -0.0952312 -3.89982e-18)
(1.09797 -0.0947916 0)
(1.12709 -0.0964461 1.13193e-18)
(0.975986 0.21648 0)
(0.981694 0.204229 2.07191e-17)
(0.987776 0.199673 1.83523e-17)
(0.990456 0.198451 0)
(0.990147 0.196292 7.81985e-18)
(0.98931 0.19305 -7.56986e-18)
(0.988828 0.189489 0)
(0.988359 0.185592 -1.32022e-17)
(0.987715 0.181166 0)
(0.986988 0.176211 0)
(0.986214 0.170792 0)
(0.985369 0.164941 0)
(0.984494 0.158676 0)
(0.983725 0.152016 1.78383e-19)
(0.983235 0.14498 -9.21818e-18)
(0.983215 0.137627 -1.75886e-19)
(0.983854 0.130191 1.7683e-19)
(0.985278 0.122861 0)
(0.98748 0.115564 0)
(0.9903 0.108168 0)
(0.993485 0.100615 -2.03018e-19)
(0.996801 0.0929006 2.10954e-19)
(1.00007 0.0849942 -3.63564e-18)
(1.00312 0.0768094 -3.57576e-18)
(1.0057 0.06824 0)
(1.00747 0.0592515 -3.63234e-18)
(1.008 0.0500016 3.64372e-18)
(1.00701 0.0409186 0)
(1.00448 0.0326224 1.82734e-18)
(1.0008 0.0257266 1.95469e-18)
(0.996735 0.020666 0)
(0.99328 0.0176115 0)
(0.991571 0.016409 1.07062e-18)
(0.992708 0.0165319 -3.6716e-21)
(0.99754 0.0170414 -5.34854e-19)
(1.00642 0.0166241 0)
(1.01901 0.0137598 0)
(1.03417 0.00706032 -9.25028e-19)
(1.05004 -0.00430139 0)
(1.06452 -0.0203703 -7.47502e-19)
(1.07549 -0.0402584 -1.46281e-19)
(1.081 -0.061958 0)
(1.08011 -0.0828268 1.07336e-18)
(1.07287 -0.10028 1.99574e-18)
(1.0602 -0.112439 1.02806e-18)
(1.04358 -0.118544 0)
(1.02473 -0.118976 -2.88045e-18)
(1.00552 -0.114972 0)
(0.987707 -0.108248 -1.90733e-18)
(0.972796 -0.100637 0)
(0.961778 -0.0938396 0)
(0.955009 -0.0892677 0)
(0.95219 -0.0879368 0)
(0.952474 -0.0903756 0)
(0.954677 -0.0965911 -4.93401e-18)
(0.95758 -0.106116 4.90017e-18)
(0.960216 -0.118142 0)
(0.962035 -0.13172 4.63055e-18)
(0.962927 -0.145986 -5.00616e-18)
(0.96312 -0.160308 0)
(0.963015 -0.1743 -5.07047e-18)
(0.963072 -0.187758 0)
(0.963969 -0.200731 0)
(0.966988 -0.213625 0)
(0.973909 -0.22682 -5.75812e-18)
(0.98585 -0.239597 5.81066e-18)
(1.00193 -0.2493 -5.60855e-18)
(1.01934 -0.252027 1.06699e-17)
(1.03484 -0.244675 -4.8234e-18)
(1.04605 -0.226828 0)
(1.05189 -0.201215 4.68452e-18)
(1.05263 -0.172586 -4.1056e-18)
(1.04975 -0.145671 0)
(1.04561 -0.123987 -4.83919e-19)
(1.04272 -0.108922 -5.27819e-18)
(1.04346 -0.100294 0)
(1.04872 -0.0967843 0)
(1.06126 -0.097202 -4.37629e-18)
(1.07363 -0.0980569 0)
(1.10659 -0.101806 -1.38645e-18)
(0.976761 0.214809 0)
(0.984938 0.202023 -1.19403e-17)
(0.992778 0.199228 -1.04371e-17)
(0.995665 0.199028 0)
(0.99501 0.196924 1.79499e-17)
(0.993999 0.193706 1.69484e-17)
(0.99345 0.190234 0)
(0.992913 0.186327 1.52523e-17)
(0.992275 0.181844 -1.44796e-17)
(0.99171 0.176868 0)
(0.99127 0.171469 0)
(0.990889 0.165661 0)
(0.990512 0.159443 0)
(0.99013 0.152808 -1.09734e-17)
(0.989755 0.145753 -1.07654e-17)
(0.989429 0.138301 9.86689e-18)
(0.989261 0.130667 -2.91028e-17)
(0.989389 0.123059 0)
(0.989896 0.11545 0)
(0.990758 0.107758 9.17384e-18)
(0.991878 0.0999554 1.78086e-17)
(0.993148 0.0920474 -8.64795e-18)
(0.994475 0.0840199 0)
(0.995743 0.0758158 0)
(0.996758 0.0673713 -4.27584e-18)
(0.997238 0.0586894 8.39704e-18)
(0.996859 0.0499234 -8.42734e-18)
(0.995378 0.0414189 0)
(0.992778 0.0336481 0)
(0.989346 0.027067 -2.22279e-18)
(0.98567 0.0219816 0)
(0.982559 0.0184747 2.41315e-18)
(0.98094 0.016349 -1.2178e-18)
(0.981732 0.0151093 -5.64579e-21)
(0.985671 0.0139528 -2.85012e-21)
(0.993104 0.0118262 0)
(1.0038 0.00758064 0)
(1.01683 0.000201594 -3.27153e-20)
(1.03075 -0.0109597 1.01343e-18)
(1.04393 -0.0259367 2.66405e-18)
(1.05457 -0.043882 3.09731e-18)
(1.06123 -0.0630352 1.45308e-18)
(1.06311 -0.0811574 -1.22104e-18)
(1.06005 -0.0960586 -1.20703e-18)
(1.05238 -0.106149 1.35717e-18)
(1.04078 -0.110839 0)
(1.02629 -0.11061 3.26801e-18)
(1.0103 -0.106737 -3.76103e-18)
(0.994418 -0.100882 0)
(0.980182 -0.0947115 0)
(0.968777 -0.0896629 0)
(0.960821 -0.0868483 0)
(0.956314 -0.0870192 0)
(0.954727 -0.0905446 0)
(0.955194 -0.0973822 5.58532e-18)
(0.956755 -0.107107 -1.13414e-17)
(0.958597 -0.119026 -5.80245e-18)
(0.960199 -0.132349 5.84206e-18)
(0.961382 -0.146379 5.65299e-18)
(0.96222 -0.16059 -6.0484e-18)
(0.96289 -0.174631 6.20516e-18)
(0.963678 -0.188378 0)
(0.965291 -0.20212 6.53721e-18)
(0.968932 -0.21647 -6.64847e-18)
(0.975452 -0.231481 0)
(0.984002 -0.245427 -1.3041e-17)
(0.991991 -0.254651 6.28324e-18)
(0.996931 -0.255111 -1.18149e-17)
(0.998178 -0.244441 5.52482e-18)
(0.996635 -0.223154 0)
(0.99335 -0.19466 4.27566e-18)
(0.989146 -0.164147 4.88617e-18)
(0.984824 -0.136419 -4.69974e-18)
(0.981508 -0.115055 -5.65473e-18)
(0.980986 -0.101232 5.983e-18)
(0.985336 -0.0945625 0)
(0.99482 -0.0933002 0)
(1.01229 -0.0962329 4.92583e-18)
(1.02887 -0.0986433 0)
(1.06978 -0.10503 1.54824e-18)
(0.977833 0.212622 1.58743e-17)
(0.988997 0.199662 0)
(0.99848 0.199081 -2.34909e-17)
(1.00127 0.199768 2.12612e-17)
(1.00021 0.197639 -2.02795e-17)
(0.999074 0.194501 1.94544e-17)
(0.998463 0.191121 0)
(0.997813 0.187173 1.58916e-19)
(0.997066 0.182605 1.63471e-17)
(0.996438 0.177562 0)
(0.996001 0.172111 0)
(0.995716 0.166262 0)
(0.995548 0.160019 2.68999e-17)
(0.995483 0.15338 0)
(0.995499 0.146334 2.38871e-17)
(0.995575 0.138888 0)
(0.995728 0.131227 4.44007e-17)
(0.996006 0.123554 0)
(0.996445 0.115856 0)
(0.997021 0.10807 -2.08942e-17)
(0.997672 0.100177 -1.01608e-17)
(0.998335 0.092188 0)
(0.998957 0.0840995 0)
(0.999467 0.0758806 0)
(0.999729 0.0675023 4.83021e-18)
(0.999537 0.0589972 -4.81452e-18)
(0.998651 0.0505163 -1.25688e-19)
(0.996894 0.0423547 0)
(0.994255 0.0348935 5.11542e-18)
(0.990964 0.0284851 0)
(0.987491 0.0233384 0)
(0.9845 0.0194608 -2.7214e-18)
(0.982762 0.0166146 1.40544e-18)
(0.983058 0.0143256 -7.15565e-21)
(0.986033 0.0118924 3.49416e-19)
(0.992034 0.00844948 0)
(1.00095 0.00308561 0)
(1.01214 -0.00499574 1.24517e-18)
(1.02457 -0.0162867 -1.14249e-18)
(1.03685 -0.0307202 -2.04405e-18)
(1.04752 -0.0474892 -1.81864e-18)
(1.05539 -0.0650449 -1.63695e-18)