/*--------------------------------*- C++ -*----------------------------------*\
| =========                 |                                                 |
| \\      /  F ield         | OpenFOAM: The Open Source CFD Toolbox           |
|  \\    /   O peration     | Version:  v1912                                 |
|   \\  /    A nd           | Website:  www.openfoam.com                      |
|    \\/     M anipulation  |                                                 |
\*---------------------------------------------------------------------------*/
FoamFile
{
    version     2.0;
    format      ascii;
    class       volScalarField;
    location    "40";
    object      epsilon;
}
// * * * * * * * * * * * * * * * * * * * * * * * * * * * * * * * * * * * * * //

dimensions      [0 2 -3 0 0 0 0];


internalField   nonuniform List<scalar> 
12441
(
0.0102738
0.00862157
0.0077124
0.00707111
0.00661599
0.00621873
0.00589434
0.00561952
0.0053752
0.00516995
0.00498132
0.00480673
0.00469151
0.0045099
0.00442554
0.00430561
0.00467904
0.0158577
0.187868
2.42415
20.3643
39.25
0.0100905
0.00793166
0.00707161
0.00648556
0.00608492
0.00573594
0.00544988
0.00520739
0.00499023
0.00480897
0.00464201
0.00448622
0.00438561
0.00422251
0.00415227
0.00405536
0.0044258
0.0153232
0.178018
2.43896
20.7202
40.2318
0.0098704
0.00730345
0.00652984
0.00600187
0.00563375
0.00530738
0.00504259
0.0048198
0.0046197
0.00445516
0.00430633
0.00416629
0.0040766
0.00391569
0.00385787
0.00377299
0.00395997
0.0132701
0.153911
2.43259
21.1071
41.3784
0.00964841
0.00675243
0.006035
0.00554622
0.00520482
0.00490894
0.00466431
0.00445814
0.00427331
0.00412199
0.00398815
0.00386328
0.00377885
0.0036415
0.00358949
0.00352495
0.00362131
0.0116108
0.128536
2.43067
21.5222
42.5504
0.00940629
0.00626712
0.00561561
0.00517159
0.00485484
0.00457326
0.00434368
0.00415164
0.00397864
0.00383901
0.0037169
0.00360247
0.0035266
0.00338717
0.00334447
0.00328683
0.00331569
0.010272
0.117938
2.45797
21.9677
43.6698
0.00920143
0.00585208
0.00523726
0.00481856
0.00452111
0.00426438
0.0040504
0.00387071
0.00370934
0.00357921
0.00346751
0.00336377
0.0032904
0.00317354
0.00313291
0.0030897
0.00314379
0.0108267
0.14206
2.57732
22.5084
44.7472
0.00898259
0.00548551
0.00492105
0.00453723
0.0042583
0.00400943
0.00380638
0.00363726
0.00348452
0.00336297
0.00325903
0.00316242
0.00309614
0.00297431
0.00294075
0.00291215
0.00488321
0.0204787
0.249724
2.87656
23.2284
45.7945
0.00880486
0.00516718
0.00462869
0.00426118
0.00399678
0.00376955
0.00357898
0.00341937
0.00327586
0.00316141
0.00306513
0.00297614
0.00291086
0.00281741
0.00280329
0.00396925
0.0350122
0.0825539
0.576646
3.4875
24.2233
46.8732
0.00861225
0.00488483
0.00438632
0.00404642
0.00379677
0.0035735
0.00339104
0.0032396
0.00310256
0.00299464
0.0029037
0.0028199
0.00276224
0.00265603
0.00420776
0.0281573
0.205548
0.354131
1.3539
4.56647
25.6028
48.0153
0.00845816
0.0046313
0.00415303
0.00382441
0.00358585
0.00338189
0.00320983
0.00306603
0.00293667
0.00283438
0.00274963
0.00267188
0.00261288
0.00288493
0.027647
0.184258
0.743649
1.11479
2.76668
6.21575
27.4551
49.2846
0.00829009
0.00441247
0.0039657
0.00365961
0.00343267
0.00322925
0.00306316
0.00292567
0.00280109
0.00270372
0.00262257
0.00255019
0.00248654
0.00918747
0.146082
0.665527
1.89035
2.59258
4.77282
8.41533
29.827
50.6975
0.00815552
0.00420369
0.00377434
0.00347636
0.00325837
0.00307295
0.00291576
0.0027846
0.0026666
0.0025739
0.002498
0.00243357
0.00266275
0.0583134
0.495307
1.63258
3.59605
4.63906
7.12208
11.0296
32.7034
52.295
0.00800758
0.00403284
0.00362807
0.00334804
0.00313955
0.00295247
0.00279964
0.00267341
0.00255885
0.00246987
0.00239645
0.00231591
0.00830986
0.233489
1.18255
2.99791
5.5094
6.86024
9.54621
13.8771
36.0217
54.0597
0.00788713
0.00385297
0.0034651
0.00319212
0.00299112
0.00282108
0.00267618
0.00255547
0.00244689
0.00236205
0.00229341
0.00219803
0.0493453
0.597684
2.12006
4.44463
7.30494
8.97365
11.87
16.7888
39.6815
56.0037
0.00775683
0.00372184
0.00335116
0.00309246
0.00289888
0.00272497
0.00258313
0.00246616
0.00235992
0.00227776
0.00221058
0.00268441
0.16294
1.1281
3.1358
5.74638
8.85357
10.8504
13.999
19.6348
43.5721
58.0812
0.0076481
0.00356167
0.00320901
0.00295682
0.00276994
0.00261263
0.00247796
0.00236595
0.00226522
0.00218684
0.00212429
0.00839887
0.376673
1.74688
4.08512
6.83916
10.1335
12.4471
15.89
22.3242
47.5799
60.2902
0.00753311
0.00346373
0.00312124
0.0028794
0.00269835
0.00253564
0.002403
0.00229374
0.00219448
0.00211791
0.00205672
0.0361461
0.676835
2.37525
4.90641
7.72318
11.1498
13.7561
17.5219
24.7976
51.607
62.571
0.00743195
0.00331459
0.00299298
0.00275847
0.0025837
0.00243704
0.00231114
0.00220658
0.00211258
0.00203974
0.00198735
0.108468
1.02879
2.96293
5.5855
8.41722
11.9158
14.7867
18.8838
27.0151
55.5682
64.9213
0.00733019
0.00324568
0.00292646
0.002699
0.00252841
0.002375
0.00225021
0.00214751
0.00205419
0.00198242
0.00195035
0.231914
1.39808
3.48392
6.1288
8.93598
12.4455
15.549
19.9656
28.952
59.4021
67.2818
0.00723585
0.00310322
0.00280863
0.00258938
0.002425
0.00228738
0.00216898
0.0020708
0.00198255
0.00191449
0.00252612
0.395922
1.75727
3.93081
6.54665
9.29408
12.7534
16.0507
20.7603
30.5924
63.0619
69.6617
0.00714636
0.00306016
0.00276026
0.00254435
0.00238267
0.00223741
0.00211937
0.0020223
0.00193413
0.00186656
0.00863617
0.585075
2.09344
4.30219
6.85101
9.50273
12.8517
16.2936
21.2637
31.9313
66.5247
72.0102
0.00705591
0.00291965
0.00264935
0.00244339
0.00228809
0.00215818
0.00204633
0.00195374
0.00187052
0.00180745
0.0312378
0.785172
2.39882
4.60191
7.05234
9.57415
12.7521
16.2809
21.4828
32.9718
69.781
74.3523
0.00697727
0.00289987
0.00261608
0.00241039
0.00225632
0.00211797
0.00200582
0.00191362
0.00182995
0.00176934
0.0793421
0.986959
2.67171
4.83422
7.16132
9.51906
12.4657
16.0207
21.4364
33.7282
72.8439
76.6493
0.00689105
0.00275955
0.00251064
0.0023164
0.00216902
0.00204582
0.00193967
0.00185196
0.00177314
0.00172711
0.151543
1.1845
2.9108
5.00552
7.18754
9.3503
12.0088
15.5363
21.1593
34.2237
75.7388
78.9445
0.00682333
0.00276149
0.002491
0.0022935
0.002146
0.00201378
0.00190677
0.00181882
0.00173913
0.00172634
0.240187
1.37442
3.1174
5.12175
7.14129
9.0814
11.4054
14.8657
20.6976
34.4906
78.5118
81.212
0.00673795
0.00261817
0.00238886
0.00220498
0.00206464
0.00194739
0.00184628
0.00176289
0.00168802
0.00176978
0.338097
1.55474
3.29229
5.1901
7.03272
8.73015
10.6911
14.061
20.1056
34.5668
81.2188
83.5114
0.00667929
0.00263934
0.00238032
0.00219038
0.00204868
0.0019218
0.00181934
0.00173516
0.00165912
0.00240293
0.441159
1.72445
3.43812
5.21708
6.87342
8.31671
9.90916
13.179
19.4371
34.4947
83.9323
85.8273
0.00659584
0.00249273
0.00228086
0.00210635
0.00197225
0.00186028
0.00176365
0.00168409
0.001613
0.00530098
0.547521
1.88296
3.5569
5.21016
6.67541
7.86513
9.1057
12.275
18.7422
34.3165
86.7294
88.2307
0.00654657
0.00253191
0.00228247
0.00209868
0.00196211
0.00184004
0.00174166
0.00166083
0.00158877
0.0123893
0.656615
2.03009
3.65209
5.17609
6.4519
7.39907
8.32207
11.395
18.061
34.0736
89.6962
90.7106
0.0064628
0.00238102
0.00218495
0.00201871
0.00189016
0.00178289
0.00169028
0.0016141
0.00154808
0.0260412
0.768351
2.16588
3.72633
5.12227
6.21558
6.94133
7.591
10.5741
17.4239
33.8026
92.9141
93.3406
0.00642092
0.00243357
0.00219337
0.00201595
0.00188408
0.00176634
0.00167167
0.0015939
0.00152889
0.0493656
0.882798
2.29066
3.78331
5.05506
5.97873
6.50992
6.93427
9.83457
16.8509
33.5349
96.4645
96.1058
0.00633874
0.00228751
0.00210258
0.00194251
0.00181853
0.00171516
0.001626
0.00155263
0.00149774
0.08492
1.00002
2.40494
3.82567
4.98097
5.75149
6.11875
6.364
9.18877
16.3537
33.2954
100.416
99.0732
0.00630533
0.00233067
0.00210543
0.00193663
0.00180996
0.00169687
0.00160591
0.00153139
0.00148689
0.135115
1.12009
2.50946
3.85679
4.905
5.5422
5.77606
5.88412
8.64039
15.9371
33.103
104.832
102.217
0.00622116
0.00223074
0.00204235
0.0018816
0.00175986
0.00165874
0.00157205
0.00150035
0.00148153
0.202224
1.24307
2.60497
3.87879
4.83178
5.35642
5.48644
5.49315
8.18797
15.6018
32.9706
109.762
105.592
0.00619454
0.00220336
0.00201029
0.00185736
0.00173767
0.00163024
0.00154339
0.00147263
0.00149644
0.288849
1.36901
2.69229
3.89423
4.76417
5.19771
5.25053
5.18598
7.82635
15.3453
32.9073
115.25
109.157
0.00610789
0.0022151
0.00200306
0.00183374
0.00171174
0.00161127
0.00152614
0.00145514
0.0016347
0.397818
1.4978
2.77214
3.90429
4.70444
5.06726
5.06699
4.95578
7.54886
15.1641
32.9185
121.327
112.957
0.00608451
0.00203974
0.00190122
0.00177347
0.00166323
0.00156285
0.00148083
0.00141484
0.00527291
0.531905
1.62906
2.84518
3.91046
4.65313
4.96476
4.93225
4.79483
7.34786
15.0541
33.0084
128.011
116.938
0.00599291
0.00227184
0.00200076
0.00180741
0.00168059
0.00157774
0.00149251
0.00142033
0.0436113
0.692725
1.76203
2.91185
3.91273
4.61028
4.88814
4.84199
4.69528
7.21589
15.0122
33.1802
135.293
121.137
0.00596473
0.00177129
0.00174489
0.00166784
0.00157442
0.00148587
0.00141114
0.0013538
0.151594
0.877515
1.89544
2.97248
3.91142
4.57443
4.83441
4.79054
4.64918
7.14548
15.0358
33.4391
143.114
125.495
0.00586044
0.00238417
0.00201108
0.00178019
0.00164558
0.00153896
0.00145303
0.00139097
0.303149
1.07778
2.02758
3.02712
3.90537
4.54397
4.79942
4.77195
4.64861
7.12974
15.1249
33.7922
151.33
130.045
0.00581885
0.00156741
0.00163871
0.00159828
0.00151775
0.00143752
0.00136813
0.00148983
0.470259
1.28396
2.15667
3.07579
3.89391
4.51611
4.77852
4.77924
4.6853
7.16189
15.2815
34.2528
159.686
134.727
0.00569687
0.00214332
0.00182876
0.00164293
0.00152792
0.00143639
0.00136016
0.00419983
0.639724
1.4883
2.28111
3.11839
3.87512
4.48833
4.76636
4.80534
4.75066
7.23567
15.5114
34.8427
167.799
139.588
0.00561354
0.00167507
0.00163563
0.00155237
0.001463
0.00137957
0.00131054
0.0162215
0.804921
1.6855
2.39987
3.15495
3.84791
4.45737
4.7576
4.84236
4.83535
7.34479
15.8246
35.5997
175.253
144.654
0.00525044
0.00210477
0.00179067
0.00158753
0.00145933
0.00136
0.00127933
0.0388894
0.961162
1.87197
2.5125
3.18576
3.81044
4.42053
4.74661
4.88269
4.92971
7.48335
16.2379
36.5886
181.839
150.447
95.0235
79.06
41.8214
17.2607
34.4896
36.2455
29.359
24.2312
21.1191
19.9056
18.8062
17.1157
15.9607
16.253
18.5613
22.3985
27.5837
33.9922
40.5072
44.5734
45.5416
33.4223
16.8355
10.2065
7.80519
6.93376
6.4943
6.14432
5.98291
6.27047
6.83854
7.16064
7.01815
6.07298
5.05726
94.6475
79.6025
41.7342
17.4737
36.0128
37.2828
30.1185
24.6651
21.4422
20.1675
18.8872
17.0501
15.7976
16.0384
18.3173
22.0945
27.1859
33.4972
39.9462
44.0025
45.0115
33.1678
16.7101
10.1477
7.76736
6.90314
6.46827
6.12279
5.96528
6.25681
6.82576
7.14653
7.00435
6.06084
5.04816
93.9266
80.5087
41.4981
17.4712
37.6731
37.1971
31.1647
25.4709
22.0444
20.5607
19.0085
16.9431
15.4969
15.6302
17.8459
21.4807
26.3181
32.3356
38.5063
42.2797
42.6652
31.5342
16.327
10.0228
7.69165
6.84265
6.41705
6.08041
5.93056
6.22977
6.80038
7.11847
6.9769
6.03665
5.03003
92.8104
81.6072
41.2497
17.6475
41.5509
39.3276
33.3767
26.6631
22.7441
20.9251
19.1248
16.8027
15.0845
15.0581
17.1874
20.6269
25.0787
30.638
36.3913
39.777
39.4115
29.2156
15.7499
9.8375
7.58083
6.75457
6.34253
6.01863
5.87979
6.19
6.76285
7.07683
6.93607
6.00061
5.00299
91.3035
82.766
41.0274
18.164
48.5618
44.1201
36.3331
27.8803
23.2938
21.1071
19.1575
16.6081
14.5711
14.35
16.3859
19.6198
23.5949
28.5488
33.7886
36.8066
35.8775
26.7017
15.0444
9.59969
7.4385
6.64175
6.24707
5.93925
5.81432
6.13832
6.71371
7.02206
6.88222
5.95296
4.96721
89.3553
83.8846
40.8482
19.0556
58.8333
50.4504
38.9895
28.6437
23.474
21.0087
19.0213
16.3136
13.9566
13.5334
15.4796
18.5432
22.0317
26.2777
30.9276
33.6505
32.4304
24.2631
14.2663
9.31833
7.26888
6.50753
6.13341
5.84438
5.73572
6.07568
6.65361
6.9547
6.81578
5.89401
4.92288
87.0012
84.8932
40.7218
20.2565
70.7375
55.7151
40.1943
28.5935
23.1791
20.6096
18.6636
15.8732
13.2415
12.6346
14.4949
17.4457
20.53
24.0616
28.0688
30.5529
29.2589
22.0211
13.4584
9.00294
7.07664
6.35555
6.00453
5.73633
5.64571
6.00315
6.58328
6.87538
6.73725
5.82413
4.87024
84.2135
85.7393
40.6574
21.6069
79.6602
57.1158
39.3681
27.6708
22.4514
19.9621
18.0904
15.2726
12.4416
11.682
13.4535
16.342
19.1564
22.0779
25.4431
27.6987
26.4426
20.0142
12.6514
8.66301
6.86671
6.1896
5.86356
5.61753
5.54614
5.92188
6.50354
6.78476
6.64721
5.74374
4.80957
81.0699
86.3737
40.6689
22.8799
80.789
53.9649
36.8684
26.1325
21.4528
19.1707
17.366
14.5466
11.5954
10.7113
12.3817
15.238
17.9151
20.3964
23.1889
25.1968
23.9968
18.2411
11.8661
8.30762
6.64408
6.01355
5.71364
5.49043
5.43888
5.83307
6.41522
6.68362
6.54629
5.65332
4.7412
77.574
86.7313
40.773
23.8335
74.165
48.1262
33.6373
24.3938
20.4017
18.3693
16.5997
13.7775
10.7629
9.76625
11.3146
14.1466
16.7871
19.0033
21.3411
23.0832
21.9021
16.6838
11.1163
7.9451
6.41362
5.83113
5.55784
5.35746
5.32579
5.7379
6.3192
6.57272
6.43519
5.55341
4.66548
73.8369
86.7243
40.9911
24.2636
64.1729
42.0225
30.59
22.8516
19.5141
17.7001
15.925
13.0789
10.0178
8.89755
10.2947
13.0925
15.758
17.8519
19.8656
21.3417
20.1225
15.3195
10.4107
7.5829
6.17993
5.64587
5.39905
5.22089
5.20865
5.63757
6.21636
6.45289
6.31462
5.4446
4.58282
69.8857
86.2365
41.3465
24.1743
54.7526
37.1556
28.3123
21.8035
18.9778
17.3051
15.4856
12.5772
9.43977
8.1583
9.36857
12.1086
14.8264
16.8973
18.7029
19.9305
18.6176
14.1261
9.75431
7.22743
5.94721
5.461
5.23991
5.08284
5.08913
5.53321
6.10755
6.32498
6.18538
5.32754
4.49366
65.8489
85.1483
41.8801
23.7554
47.7643
34.0946
27.1057
21.4637
18.959
17.3285
15.4304
12.4049
9.11276
7.60151
8.5821
11.2327
14.0038
16.1099
17.7965
18.8014
17.3495
13.0837
9.15003
6.88399
5.71912
5.27933
5.08274
4.94518
4.96873
5.42586
5.99362
6.18983
6.04824
5.20289
4.39846
61.7626
83.3568
42.6664
23.4132
43.5324
32.962
27.1457
22.0216
19.6303
17.9333
15.9273
12.7116
9.13547
7.28338
7.97915
10.5036
13.3108
15.4775
17.1047
17.9121
16.2858
12.1759
8.59881
6.5568
5.49877
5.10327
4.9295
4.80954
4.84878
5.31648
5.87533
6.04826
5.90404
5.07138
4.29772
57.7502
80.8362
43.8504
23.5906
41.9049
33.8205
28.6228
23.7098
21.2092
19.3274
17.1876
13.6951
9.64889
7.27706
7.60543
9.96097
12.7756
15.0034
16.6035
17.2314
15.4018
11.3893
8.10047
6.24904
5.28866
4.93473
4.78178
4.67724
4.7304
5.2059
5.75339
5.90107
5.75359
4.93372
4.19197
53.8399
77.6383
45.6386
24.6913
42.7605
36.8675
31.8394
26.8665
24.0026
21.8
19.5063
15.6515
10.8891
7.70302
7.52092
9.65051
12.434
14.7047
16.286
16.7408
14.6797
10.7129
7.65395
5.96292
5.0907
4.77521
4.64082
4.54931
4.61448
5.09482
5.62844
5.74903
5.59767
4.79068
4.08173
50.1273
73.932
48.2712
27.1236
46.2023
42.5249
37.2748
31.9881
28.4481
25.7565
23.2977
19.0369
13.2777
8.79013
7.82585
9.63491
12.3344
14.6124
16.1612
16.435
14.1091
10.1383
7.25767
5.69984
4.90622
4.62573
4.50745
4.4265
4.50173
4.98379
5.50102
5.59283
5.43709
4.64298
3.96755
46.6135
69.9298
51.9232
31.4091
52.6124
51.4532
45.6067
39.7413
35.1298
31.7318
29.101
24.5042
17.5565
11
8.71291
10.0163
12.5473
14.7752
16.2546
16.3219
13.6865
9.65903
6.90972
5.46049
4.73608
4.48694
4.38219
4.30928
4.39262
4.87325
5.37158
5.4331
5.27259
4.49136
3.84997
43.349
65.8819
56.7286
38.272
62.6686
64.4814
57.646
50.8774
44.7111
40.322
37.4757
32.8015
24.8786
15.2675
10.5776
10.9797
13.185
15.2676
16.6107
16.4235
13.4154
9.27078
6.60807
5.24503
4.5807
4.35914
4.26526
4.19786
4.28744
4.76346
5.24049
5.2704
5.10488
4.33653
3.72952
40.3033
61.9189
62.6843
48.7465
77.2902
82.3841
74.1122
65.9663
57.712
51.9661
48.7195
44.3527
36.4701
23.3293
14.2488
12.8792
14.4359
16.2045
17.2983
16.7783
13.3073
8.97125
6.35078
5.05316
4.44013
4.2423
4.15657
4.09222
4.18631
4.65457
5.10799
5.10523
4.93461
4.17917
3.60674
37.4893
58.0926
69.7577
64.1652
97.4701
105.509
95.2335
84.9798
74.1278
66.5775
62.4668
58.5865
52.2407
37.4608
21.3784
16.4051
16.6261
17.7643
18.4187
17.4448
13.383
8.76063
6.1361
4.88431
4.31413
4.13615
4.05583
3.99214
4.08917
4.5466
4.97428
4.93796
4.76241
4.0199
3.48213
34.8769
54.3499
77.9737
85.8854
123.886
133.361
120.337
106.976
93.1205
83.284
77.5699
73.7745
69.3625
57.5713
34.5155
22.8267
20.3124
20.2212
20.1172
18.5059
13.6753
8.64197
5.96265
4.73766
4.20223
4.04018
3.96252
3.89721
3.99584
4.43946
4.83944
4.76893
4.58883
3.85932
3.35618
32.4767
50.8052
87.5337
114.62
156.338
164.442
147.775
130.256
113.148
100.622
92.5558
88.0109
84.1235
77.3518
54.6796
33.9505
26.3554
23.9719
22.5905
20.073
14.2319
8.62182
5.82944
4.61224
4.10375
3.95369
3.87592
3.80685
3.906
4.33295
4.70349
4.59839
4.41437
3.69798
3.22935
30.2708
47.7842
98.7283
149.479
193.236
196.532
175.388
152.982
132.576
117.177
106.349
100.336
95.3323
90.2792
75.9433
50.4822
35.6889
29.4902
26.0725
22.2846
15.1188
8.71099
5.73605
4.50694
4.01782
3.87583
3.79518
3.72037
3.81926
4.22679
4.56639
4.42652
4.23949
3.53638
3.10208
28.2673
45.9091
111.851
187.596
231.701
227.352
201.244
173.804
150.268
132.086
118.533
110.767
103.98
97.4449
89.3768
68.6779
48.2529
37.0588
30.7569
25.2855
16.4224
8.92534
5.68255
4.42055
3.94347
3.80558
3.71929
3.63693
3.73511
4.12064
4.42805
4.25348
4.0646
3.37499
2.97478
26.4614
45.7297
127.085
225.045
268.417
255.177
224.149
192.079
165.762
145.102
129.163
119.697
111.196
102.543
95.0127
81.9339
61.6258
46.2063
36.61
29.1673
18.2457
9.28632
5.66961
4.35172
3.87953
3.74177
3.64712
3.55564
3.65298
4.01411
4.28836
4.07938
3.89008
3.21424
2.84783
24.8623
47.7303
144.474
258.641
300.806
279.119
243.705
207.733
179.071
156.325
138.443
127.471
117.54
107.242
97.881
88.4241
72.1792
55.3905
43.1404
33.8555
20.6911
9.82067
5.69829
4.29893
3.8247
3.68314
3.57745
3.47551
3.57228
3.90675
4.14719
3.90433
3.71627
3.05452
2.72158
23.4808
52.2676
163.877
286.874
327.573
298.982
260.043
220.995
190.438
165.994
146.587
134.308
123.204
111.75
100.578
91.1734
78.4329
62.8127
49.4143
38.989
23.8188
10.5582
5.76985
4.26042
3.77749
3.62824
3.50896
3.3955
3.49234
3.79815
4.00441
3.72847
3.54351
2.89621
2.59639
22.3333
59.7395
184.98
309.713
348.575
314.991
273.539
232.21
200.16
174.343
153.752
140.325
128.23
115.903
103.441
92.8361
81.5252
67.7054
54.5125
43.9275
27.5754
11.5259
5.88522
4.23411
3.73626
3.57556
3.44027
3.3146
3.41251
3.68788
3.85992
3.55197
3.37211
2.73971
2.47255
21.4546
70.6028
207.284
327.804
364.267
327.506
284.608
241.729
208.538
181.6
160.072
145.601
132.631
119.564
106.193
94.3241
83.0527
70.4697
58.0409
47.9967
31.7169
12.7371
6.04425
4.21752
3.69916
3.52347
3.37002
3.2318
3.33215
3.57555
3.71369
3.37509
3.20242
2.58536
2.35038
20.8892
85.122
230.204
342.006
375.332
336.895
293.612
249.876
215.851
187.968
165.667
150.201
136.421
122.671
108.589
95.6918
83.9146
71.8741
60.1584
50.8135
35.7876
14.1759
6.24448
4.20767
3.66418
3.47029
3.29686
3.14615
3.25063
3.46086
3.56572
3.19815
3.03477
2.43358
2.23016
20.7351
103.226
253.153
353.121
382.445
343.455
300.822
256.929
222.371
193.661
170.67
154.202
139.626
125.209
110.501
96.7967
84.4117
72.4855
61.2457
52.3963
39.2298
15.7808
6.47971
4.20105
3.62914
3.41434
3.21953
3.05684
3.1674
3.34357
3.41613
3.02158
2.86951
2.28473
2.11218
21.1259
124.72
275.724
361.926
386.261
347.427
306.403
263.106
228.348
198.887
175.224
157.69
142.284
127.184
111.88
97.516
84.5811
72.5863
61.6301
52.9995
41.5996
17.4363
6.73857
4.1936
3.5918
3.35399
3.13694
2.96319
3.08195
3.22357
3.26513
2.84592
2.70704
2.13925
1.9967
22.2957
149.208
297.796
369.176
387.408
349.001
310.4
268.524
233.991
203.855
179.477
160.759
144.433
128.605
112.702
97.7701
84.3799
72.278
61.5085
52.9035
42.7359
18.9822
7.00367
4.18082
3.54991
3.28776
3.04819
2.86476
2.99392
3.10087
3.11303
2.6718
2.54778
1.99755
1.884
24.5223
176.598
319.671
375.741
386.59
348.38
312.723
273.138
239.398
208.706
183.545
163.482
146.093
129.46
112.942
97.5025
83.7541
71.5769
60.9715
52.304
42.7498
20.2421
7.25199
4.15797
3.50132
3.21439
2.95271
2.76133
2.90303
2.9756
2.96027
2.49997
2.39215
1.86008
1.77434
28.1637
207.161
342.138
382.708
384.66
345.824
313.14
276.637
244.437
213.44
187.447
165.864
147.231
129.697
112.546
96.6561
82.6494
70.4659
60.0496
51.3095
41.8896
21.066
7.45702
4.12039
3.44414
3.13292
2.85023
2.65294
2.80918
2.84807
2.80739
2.33123
2.24063
1.72726
1.66798
33.4954
241.58
366.566
391.609
382.769
341.749
311.282
278.324
248.547
217.712
190.953
167.748
147.696
129.18
111.412
95.1564
81.0111
68.916
58.7422
49.9665
40.4066
21.3674
7.5924
4.06388
3.37683
3.04279
2.74084
2.5399
2.71238
2.7187
2.65505
2.16645
2.09367
1.59953
1.56517
40.701
280.057
394.813
404.558
382.488
336.767
306.651
277.017
250.499
220.586
193.377
168.665
147.139
127.647
109.363
92.8979
78.7779
66.8948
57.0371
48.2921
38.4969
21.1379
7.63625
3.98518
3.29836
2.94384
2.625
2.42283
2.61283
2.58807
2.50398
2.00651
1.95176
1.4773
1.46617
49.6321
321.615
428.829
424.216
385.873
331.663
298.62
271.053
248.244
220.261
193.302
167.645
144.897
124.655
106.134
89.7409
75.8828
64.371
54.9186
46.2899
36.2936
20.4346
7.57462
3.88229
3.20824
2.83637
2.50354
2.30253
2.51085
2.45685
2.35497
1.85229
1.81534
1.36095
1.37119
59.8743
363.307
469.465
452.889
395.041
327.039
286.361
258.539
239.159
214.15
188.545
163.135
139.969
119.599
101.385
85.5227
72.2589
61.3208
52.3775
43.9648
33.8856
19.3518
7.40315
3.75465
3.10661
2.7211
2.37756
2.18004
2.40693
2.32583
2.20888
1.7046
1.68486
1.25079
1.28044
70.5911
400.903
514.428
490.005
410.585
322.308
268.689
237.936
221.004
199.709
176.748
153.328
131.216
111.835
94.7833
80.0989
67.8579
57.7367
49.4179
41.3292
31.3341
17.993
7.12672
3.60325
2.99416
2.59913
2.24844
2.05654
2.30165
2.19584
2.06653
1.56416
1.56069
1.14709
1.19412
80.9187
429.953
555.837
527.452
427.66
313.797
243.955
208.847
193.375
176.079
156.817
137.134
117.938
101
86.1634
73.4132
62.6771
53.64
46.0675
38.4126
28.6877
16.4539
6.7576
3.43042
2.87213
2.4719
2.1177
1.93329
2.19572
2.06777
1.92876
1.43161
1.44316
1.05004
1.11235
89.3733
447.414
580.084
546.412
431.258
293.56
210.576
172.656
158.546
145.242
130.21
115.319
100.571
87.3807
75.7099
65.5796
56.7915
49.0929
42.3849
35.2644
25.99
14.8156
6.31305
3.23964
2.74221
2.34105
1.98694
1.81158
2.0899
1.94249
1.79631
1.30742
1.33252
0.959739
1.03527
95.1437
451.918
572.475
524.488
400.543
253.746
168.765
132.498
120.736
111.368
100.608
90.5896
80.8513
72.0265
64.0345
56.9183
50.3649
44.2026
38.463
31.9576
23.2859
13.1454
5.81298
3.03523
2.60637
2.20839
1.85778
1.69265
1.98497
1.82084
1.66988
1.19191
1.22893
0.876216
0.962926
0.00337494
0.000892532
0.0012624
0.00129083
0.0011831
0.00108293
0.000996714
0.0554308
1.06813
2.00016
2.5889
3.20057
3.77018
4.38326
4.7321
4.91184
5.00716
7.60762
16.6397
37.5568
186.376
158.304
0.0033423
0.000432886
0.000801069
0.000946639
0.000903656
0.000853393
0.000801254
0.064042
1.12513
2.06743
2.62483
3.19642
3.72929
4.34536
4.71361
4.92821
5.06654
7.69101
16.9229
38.2292
189.49
167.015
0.00353804
0.000887222
0.000762279
0.000782962
0.000735087
0.000687321
0.000664906
0.0699283
1.16585
2.11363
2.64451
3.17967
3.67798
4.29582
4.68526
4.93646
5.12528
7.76518
17.1925
38.8549
192.099
175.388
0.00366897
0.00050192
0.000571236
0.000610036
0.000577559
0.000548786
0.000532207
0.0735362
1.19182
2.14071
2.64976
3.15245
3.6183
4.23549
4.64586
4.9335
5.17847
7.82642
17.4429
39.4358
194.182
183.166
0.00392038
0.00103548
0.000716089
0.000606722
0.000538775
0.000488563
0.000478064
0.0750962
1.20427
2.15078
2.64267
3.11699
3.55275
4.16538
4.59505
4.9169
5.22177
7.87126
17.667
39.974
195.708
190.848
0.00405869
0.00061836
0.000598569
0.000542482
0.000484097
0.000440451
0.000411526
0.0748122
1.20424
2.14594
2.62542
3.07551
3.48343
4.08725
4.53309
4.88548
5.25167
7.89687
17.8581
40.4705
196.637
198.66
0.00433858
0.00120151
0.000814474
0.000627002
0.000531487
0.00046144
0.000384274
0.0728871
1.19271
2.12818
2.60025
3.0302
3.41292
4.003
4.46114
4.83888
5.26558
7.90092
18.0085
40.9262
196.946
206.646
0.00447736
0.000763962
0.000714175
0.000609776
0.000530133
0.000468453
0.000373202
0.0695422
1.17057
2.09928
2.56923
2.98317
3.3433
3.91511
4.38089
4.77804
5.2621
7.882
18.1115
41.34
196.623
214.78
0.00478242
0.00138181
0.000967413
0.000739687
0.000624847
0.00053694
0.000388575
0.065025
1.13873
2.0607
2.53417
2.9364
3.27709
3.82608
4.29471
4.70458
5.2409
7.83937
18.1608
41.71
195.675
223.023
0.00490785
0.000939857
0.000872809
0.000742744
0.000648942
0.000573257
0.000399757
0.0596212
1.09807
2.01352
2.49644
2.89163
3.21627
3.73881
4.20528
4.62115
5.20287
7.77343
18.1514
42.0319
194.116
231.329
0.00522814
0.00156935
0.00114779
0.000899413
0.000771736
0.000670275
0.000436103
0.0536259
1.04954
1.95842
2.45688
2.85029
3.16312
3.65601
4.11569
4.53078
5.14983
7.68527
18.079
42.2998
191.973
239.627
0.00533878
0.00114416
0.00106058
0.000913943
0.000810211
0.000724038
0.000462007
0.0473174
0.994164
1.89576
2.41573
2.81334
3.11928
3.58066
4.02908
4.43715
5.08458
7.57709
17.9417
42.5053
189.279
247.824
0.00567116
0.00176428
0.00134798
0.00108901
0.000952602
0.000840914
0.000521463
0.0409346
0.933055
1.82568
2.37263
2.7812
3.08653
3.51539
3.94874
4.34393
5.01048
7.45167
17.7386
42.6391
186.076
255.807
0.00575611
0.00137347
0.00127272
0.00111326
0.00100214
0.000907842
0.000585803
0.0346669
0.867403
1.74819
2.32663
2.75361
3.0658
3.463
3.8779
4.25513
4.93153
7.3127
17.4711
42.6891
182.408
263.452
0.00609154
0.00196351
0.00156319
0.00130124
0.0011594
0.00104031
0.000689852
0.0286687
0.798428
1.66339
2.27635
2.72959
3.05787
3.4258
3.81983
4.1745
4.85192
7.16424
17.1422
42.6434
178.322
270.627
0.00615236
0.00161957
0.00150306
0.0013344
0.0012183
0.00111809
0.000818087
0.0230571
0.727334
1.57154
2.22009
2.70734
3.06227
3.40605
3.77764
4.10597
4.77617
7.011
16.7571
42.4886
173.865
277.203
0.00648655
0.00217037
0.0017916
0.00153163
0.00138715
0.00126313
0.00100249
0.0179329
0.655228
1.47321
2.15614
2.68437
3.07799
3.40528
3.75444
4.05313
4.70875
6.85783
16.3222
42.2126
169.082
283.054
0.00651891
0.00187641
0.00174756
0.00157307
0.00145429
0.00135017
0.00117715
0.0133807
0.583069
1.36925
2.08291
2.65753
3.10229
3.42454
3.75306
4.0198
4.65426
6.71005
15.8462
41.8034
164.015
288.061
0.00683921
0.00238082
0.0020285
0.0017752
0.00163097
0.00150476
0.0013752
0.00949977
0.511633
1.26078
1.9993
2.62338
3.13157
3.46353
3.77613
4.00949
4.61727
6.57298
15.3385
41.2522
158.706
292.113
0.00685435
0.00213807
0.0020006
0.00182389
0.00170474
0.00159889
0.00151157
0.0063853
0.441539
1.14903
1.90473
2.57845
3.16036
3.52074
3.82556
4.0259
4.60248
6.45239
14.8103
40.552
153.187
295.109
0.00716063
0.00260043
0.00227424
0.00202989
0.00188777
0.00176125
0.00167849
0.00413132
0.373298
1.03527
1.79932
2.5197
3.18262
3.5924
3.90236
4.07237
4.61464
6.35411
14.2732
39.7008
147.495
296.952
0.0071578
0.00240329
0.00226121
0.00208505
0.00196731
0.0018613
0.00178986
0.00274982
0.307436
0.920681
1.68375
2.44482
3.19115
3.67269
4.00583
4.15209
4.65871
6.28452
13.7399
38.7
141.657
297.56
0.00744748
0.00282715
0.00252688
0.0022935
0.00215511
0.00203014
0.00194965
0.00211656
0.244636
0.806275
1.55918
2.35258
3.17962
3.75301
4.13292
4.26716
4.73959
6.25023
13.2233
37.5579
135.704
296.852
0.00743198
0.00267171
0.00252795
0.00235462
0.0022397
0.00213496
0.00205976
0.00197911
0.185963
0.692976
1.42697
2.24284
3.14213
3.82303
4.27724
4.4184
4.86212
6.25857
12.7367
36.2873
129.656
294.765
0.00770539
0.00306279
0.00278693
0.00256536
0.00243171
0.0023094
0.00222539
0.00209601
0.132974
0.581754
1.28852
2.11644
3.07529
3.87087
4.42859
4.60368
5.03024
6.31713
12.2935
34.9089
123.544
291.244
0.0076784
0.00294318
0.00280053
0.00263182
0.00252078
0.00241831
0.00234097
0.0022434
0.0877324
0.473849
1.14516
1.97486
2.97733
3.88555
4.57272
4.8173
5.24638
6.43396
11.9072
33.448
117.389
286.256
0.00793487
0.00330609
0.00305331
0.00284422
0.00271614
0.00259774
0.00251382
0.00242181
0.0522267
0.371056
0.99816
1.81983
2.84936
3.85789
4.6925
5.04795
5.50968
6.61655
11.591
31.9369
111.219
279.788
0.00790139
0.00321855
0.00307874
0.00291588
0.00280942
0.00271009
0.00263401
0.00255699
0.0275601
0.275945
0.848953
1.65292
2.69348
3.78288
4.76986
5.27882
5.81441
6.87118
11.3584
30.4112
105.06
271.856
0.008143
0.00355895
0.00332724
0.0031305
0.00300833
0.0028943
0.00281273
0.00272699
0.0129966
0.191807
0.699518
1.4755
2.51319
3.65937
4.78914
5.48723
6.14747
7.20046
11.2216
28.9104
98.9454
262.506
0.00810541
0.0034993
0.00336369
0.0032074
0.00310588
0.00301014
0.0029367
0.00285954
0.00610694
0.122221
0.552829
1.2888
2.31141
3.49049
4.73985
5.64807
6.48732
7.60107
11.1915
27.4731
92.9064
251.823
0.00833234
0.00382113
0.0036089
0.00342433
0.00330826
0.00319926
0.00312071
0.00303533
0.00375481
0.069966
0.413379
1.09448
2.09092
3.28134
4.61872
5.73687
6.80357
8.05951
11.2755
26.1374
86.9834
239.924
0.00829486
0.00378697
0.00365627
0.00350693
0.00341046
0.00331865
0.00324828
0.00317275
0.00323611
0.0354751
0.287264
0.895455
1.85335
3.03808
4.42923
5.73594
7.06061
8.5494
11.4756
24.9352
81.2149
226.968
0.00850832
0.00409448
0.00389996
0.003727
0.00361696
0.00351295
0.00343767
0.00335457
0.00328309
0.0163346
0.181513
0.69701
1.60068
2.76568
4.17974
5.63659
7.22284
9.02899
11.7835
23.8916
75.6472
213.144
0.00847337
0.0040828
0.00395769
0.00381552
0.00372407
0.0036363
0.0035691
0.00349644
0.00341755
0.00770724
0.101928
0.507665
1.33551
2.46817
3.8802
5.44135
7.26315
9.44476
12.1774
23.0203
70.3218
198.67
0.00867419
0.00437917
0.00420091
0.00403904
0.0039349
0.00383619
0.00376414
0.00368371
0.00359854
0.00468054
0.0502799
0.339024
1.06384
2.14828
3.53984
5.16011
7.16796
9.73821
12.617
22.3217
65.282
183.785
0.00864405
0.00438813
0.00426891
0.00413399
0.00404739
0.00396376
0.00389971
0.00383005
0.00375347
0.00389765
0.0224092
0.203169
0.796057
1.80965
3.16557
4.80737
6.94001
9.85971
13.0433
21.7786
60.5587
168.739
0.00883429
0.00467644
0.00451302
0.00436165
0.00426315
0.0041695
0.00410065
0.00402293
0.00394077
0.00386058
0.0102328
0.107637
0.548979
1.45871
2.76247
4.39689
6.59394
9.77929
13.3824
21.3551
56.1727
153.78
0.00881172
0.00470512
0.00459178
0.00446389
0.00438185
0.0043022
0.00424116
0.00417437
0.00410042
0.00400034
0.00588441
0.0508996
0.341786
1.10848
2.33541
3.94068
6.15121
9.49458
13.5582
20.9948
52.1218
139.144
0.00899248
0.00498753
0.00483775
0.00469622
0.00460306
0.00451447
0.00444859
0.00437347
0.00429387