/*--------------------------------*- C++ -*----------------------------------*\
| =========                 |                                                 |
| \\      /  F ield         | OpenFOAM: The Open Source CFD Toolbox           |
|  \\    /   O peration     | Version:  v1912                                 |
|   \\  /    A nd           | Website:  www.openfoam.com                      |
|    \\/     M anipulation  |                                                 |
\*---------------------------------------------------------------------------*/
FoamFile
{
    version     2.0;
    format      ascii;
    class       volScalarField;
    location    "40";
    object      nut;
}
// * * * * * * * * * * * * * * * * * * * * * * * * * * * * * * * * * * * * * //

dimensions      [0 2 -1 0 0 0 0];


internalField   nonuniform List<scalar> 
12441
(
5.83468e-24
1.88671e-20
8.75066e-20
3.62231e-19
1.15994e-18
4.2198e-18
1.09421e-17
2.70134e-17
6.62914e-17
1.37559e-16
3.30067e-16
8.35862e-16
2.34541e-15
8.07061e-15
1.1238e-13
2.06513e-11
0.000202302
0.00120165
0.00442866
0.00328428
0.00375232
0.00775321
6.3597e-24
3.4114e-20
1.29302e-19
4.95264e-19
1.51325e-18
5.57209e-18
1.40817e-17
3.45075e-17
8.44997e-17
1.76832e-16
4.34726e-16
1.18068e-15
3.2157e-15
1.07954e-14
1.2927e-13
4.46816e-11
6.26658e-05
0.00148847
0.00504054
0.00354507
0.00411066
0.00781733
6.38166e-24
4.28428e-20
1.4797e-19
5.53176e-19
1.6916e-18
6.01421e-18
1.57882e-17
3.8974e-17
9.77869e-17
2.07992e-16
5.05396e-16
1.35363e-15
3.34146e-15
9.34189e-15
6.46829e-14
7.95516e-12
1.30255e-05
0.00114356
0.00196938
0.00331928
0.00426425
0.0078909
6.33534e-24
4.7521e-20
1.53486e-19
5.60301e-19
1.72125e-18
6.10531e-18
1.61503e-17
4.02838e-17
1.00802e-16
2.2237e-16
5.41559e-16
1.47583e-15
3.30981e-15
1.08841e-14
4.90456e-14
1.96177e-12
2.0209e-06
0.000798853
0.00144851
0.00320321
0.00443942
0.0079647
6.30023e-24
5.80386e-20
1.75839e-19
6.24625e-19
1.90185e-18
6.47154e-18
1.76721e-17
4.41177e-17
1.13302e-16
2.51284e-16
6.07229e-16
1.71859e-15
4.00201e-15
5.48971e-14
3.30219e-13
3.06429e-12
1.83349e-07
0.000556795
0.00138028
0.00315968
0.00459573
0.00803394
6.2495e-24
5.71414e-20
1.71105e-19
6.13373e-19
1.91001e-18
6.55766e-18
1.80346e-17
4.56673e-17
1.16766e-16
2.70619e-16
6.6801e-16
2.02425e-15
6.29717e-15
1.87051e-12
1.66034e-11
7.09022e-11
6.2416e-07
0.000491182
0.00137136
0.00318919
0.0047407
0.00809948
6.21363e-24
7.23468e-20
2.02928e-19
7.03917e-19
2.14973e-18
7.05006e-18
1.99467e-17
5.04005e-17
1.32636e-16
3.07816e-16
7.57252e-16
2.90747e-15
3.60629e-14
6.08129e-11
9.55603e-10
1.35199e-08
2.31678e-05
0.000452187
0.0014538
0.00335199
0.00491054
0.00816218
6.1635e-24
6.50109e-20
1.88809e-19
6.78831e-19
2.16221e-18
7.23311e-18
2.06396e-17
5.30655e-17
1.39011e-16
3.39751e-16
8.66095e-16
8.21731e-15
9.15113e-13
3.41724e-09
1.25778e-07
6.48034e-06
0.000192491
0.000447873
0.00179139
0.00371357
0.00513665
0.00822577
6.12986e-24
8.61156e-20
2.30895e-19
7.92684e-19
2.45376e-18
7.8255e-18
2.30123e-17
5.90038e-17
1.60314e-16
3.92978e-16
1.00743e-15
9.57084e-14
4.00671e-11
1.1579e-07
1.33815e-05
0.000148456
0.000689206
0.000701545
0.00252627
0.00434165
0.00545569
0.00829204
6.08269e-24
7.09469e-20
2.05344e-19
7.51779e-19
2.47173e-18
8.10075e-18
2.40604e-17
6.30057e-17
1.70611e-16
4.46237e-16
1.20977e-15
2.71468e-12
1.73701e-09
6.56981e-06
0.000175437
0.00050415
0.00121515
0.00112765
0.00375864
0.00528988
0.00588177
0.00836448
6.05273e-24
9.90435e-20
2.57484e-19
8.85697e-19
2.80444e-18
8.72793e-18
2.68215e-17
7.01731e-17
1.9923e-16
5.28519e-16
1.48057e-15
8.66888e-11
9.02263e-08
8.51388e-05
0.000568907
0.0011308
0.00208871
0.00185769
0.00561883
0.00661466
0.00642397
0.00844366
6.00707e-24
7.56713e-20
2.2133e-19
8.30856e-19
2.83499e-18
9.14006e-18
2.83293e-17
7.59113e-17
2.16216e-16
6.2635e-16
1.98227e-15
2.48482e-09
5.06642e-06
0.000290927
0.0010465
0.00195811
0.00343511
0.00311032
0.00820074
0.00830425
0.00706292
0.00853143
5.98075e-24
1.11188e-19
2.83638e-19
9.82411e-19
3.20582e-18
9.79154e-18
3.1598e-17
8.48828e-17
2.58417e-16
7.81202e-16
2.96599e-15
6.14029e-08
7.32408e-05
0.000780865
0.00202534
0.00339118
0.00563795
0.00514025
0.0114289
0.0102936
0.00778048
0.00862633
5.93651e-24
7.91299e-20
2.36149e-19
9.1398e-19
3.25221e-18
1.03526e-17
3.3644e-17
9.30549e-17
2.89555e-16
1.00984e-15
6.47598e-15
1.40695e-06
0.000262558
0.00165622
0.00356891
0.00562294
0.00891723
0.00806589
0.0150465
0.0124407
0.00853679
0.00872852
5.91346e-24
1.22575e-19
3.08287e-19
1.08144e-18
3.65682e-18
1.0989e-17
3.74565e-17
1.04705e-16
3.61865e-16
1.43341e-15
3.02901e-14
2.41444e-05
0.00079827
0.00317429
0.00589351
0.0088251
0.0132719
0.0117673
0.0186755
0.0146094
0.00930828
0.00883515
5.86955e-24
8.21539e-20
2.51169e-19
1.00344e-18
3.73045e-18
1.17528e-17
4.02161e-17
1.16719e-16
4.31927e-16
2.29554e-15
5.67605e-13
0.00015599
0.00171308
0.00542995
0.00912983
0.0129835
0.0184516
0.0158583
0.0219658
0.0166568
0.0100577
0.00894576
5.84986e-24
1.33379e-19
3.3398e-19
1.18837e-18
4.1777e-18
1.24057e-17
4.48698e-17
1.33278e-16
5.92815e-16
4.4215e-15
2.40736e-11
0.0004756
0.00330148
0.00849873
0.0131856
0.01793
0.0239728
0.0198024
0.0246872
0.0185126
0.0107737
0.00905718
5.80565e-24
8.47276e-20
2.66103e-19
1.09937e-18
4.28014e-18
1.33755e-17
4.85502e-17
1.5196e-16
8.04049e-16
1.06867e-14
1.0681e-09
0.00103456
0.00564091
0.0123622
0.0179577
0.0233111
0.0291995
0.0230937
0.0268073
0.020127
0.0114334
0.00916919
5.78874e-24
1.43582e-19
3.59458e-19
1.29923e-18
4.763e-18
1.40033e-17
5.42536e-17
1.77453e-16
1.32013e-15
3.36758e-14
8.6119e-08
0.00212132
0.00880125
0.016796
0.0230988
0.0286803
0.0335118
0.0254722
0.0284374
0.0215225
0.0120426
0.00927899
5.74399e-24
8.70394e-20
2.80429e-19
1.19823e-18
4.89496e-18
1.52096e-17
5.92271e-17
2.08442e-16
2.20212e-15
1.52936e-13
1.45049e-05
0.00382022
0.0126597
0.0216148
0.0283189
0.0335392
0.0364779
0.0269895
0.0297911
0.022715
0.012593
0.00938714
5.73044e-24
1.53189e-19
3.84254e-19
1.41139e-18
5.41472e-18
1.58266e-17
6.66022e-17
2.51614e-16
4.52209e-15
1.60422e-12
0.000194298
0.00631905
0.0169692
0.0265045
0.0331688
0.0374996
0.0380051
0.0279673
0.0310806
0.023763
0.0131037
0.00949146
5.68483e-24
8.87563e-20
2.92965e-19
1.2965e-18
5.57467e-18
1.72832e-17
7.36012e-17
3.07842e-16
9.12684e-15
2.80907e-11
0.000608331
0.00959315
0.0214594
0.03127
0.0373796
0.0403365
0.0383596
0.0288195
0.0324929
0.0246951
0.0135763
0.00959327
5.67402e-24
1.62328e-19
4.07111e-19
1.52051e-18
6.1242e-18
1.78738e-17
8.37032e-17
3.89087e-16
2.18139e-14
3.51316e-10
0.00134117
0.0134459
0.0258716
0.0356338
0.0406702
0.0420858
0.0380743
0.0299144
0.034145
0.0255679
0.0140397
0.00969106
5.6279e-24
9.05395e-20
3.04046e-19
1.3923e-18
6.3147e-18
1.96054e-17
9.42431e-17
5.004e-16
4.84887e-14
3.34006e-09
0.00260564
0.0176226
0.0300237
0.0394622
0.0430415
0.0429814
0.0377544
0.0314796
0.0361084
0.0264053
0.0145038
0.00978684
5.62068e-24
1.71231e-19
4.2848e-19
1.6261e-18
6.89724e-18
2.01995e-17
1.09546e-16
6.66885e-16
1.2304e-13
2.94073e-08
0.00451138
0.0218088
0.033784
0.0426065
0.0445572
0.0434116
0.0379075
0.0336213
0.0383976
0.0272602
0.0150048
0.00987966
5.57273e-24
9.27726e-20
3.14097e-19
1.48568e-18
7.12167e-18
2.22308e-17
1.26991e-16
9.05562e-16
2.89416e-13
6.56956e-07
0.00709438
0.0258
0.0370838
0.0450862
0.0454913
0.0437704
0.038846
0.0363524
0.0409984
0.0281566
0.0155581
0.00997203
5.56806e-24
1.79907e-19
4.48222e-19
1.72675e-18
7.73145e-18
2.28354e-17
1.52788e-16
1.27797e-15
8.76444e-13
2.99626e-05
0.0101827
0.0294232
0.0398822
0.0469307
0.0460764
0.0443943
0.040699
0.0396415
0.0438573
0.0291449
0.0162031
0.0100634
5.51899e-24
9.53864e-20
3.22551e-19
1.57409e-18
7.9925e-18
2.51939e-17
1.8489e-16
1.83816e-15
4.15201e-12
0.000233222
0.0135735
0.0326189
0.042184
0.0482893
0.0465963
0.0454833
0.0434614
0.0434207
0.0469023
0.0302425
0.0169532
0.0101564
5.51775e-24
1.88405e-19
4.65787e-19
1.82083e-18
8.63383e-18
2.58697e-17
2.33808e-16
2.74369e-15
2.92022e-11
0.000654425
0.0169959
0.0353475
0.0440125
0.0492766
0.0472031
0.0471243
0.0470511
0.0476008
0.0500348
0.0314833
0.01784
0.0102507
5.46639e-24
9.81049e-20
3.28817e-19
1.65569e-18
8.93312e-18
2.85916e-17
2.99005e-16
4.15849e-15
1.71473e-10
0.00120636
0.0202832
0.0376241
0.0454246
0.0500484
0.0480252
0.0492921
0.0513333
0.0520621
0.0531502
0.0328585
0.0188617
0.0103488
5.46721e-24
1.96793e-19
4.81989e-19
1.90859e-18
9.60863e-18
2.94311e-17
4.01283e-16
6.52972e-15
8.27951e-10
0.00191455
0.0232809
0.0394615
0.0464808
0.0506892
0.0490668
0.0519007
0.0561353
0.0566656
0.0561332
0.0343676
0.0200291
0.01045
5.41481e-24
1.00508e-19
3.3209e-19
1.72827e-18
9.93998e-18
3.25042e-17
5.43766e-16
1.03497e-14
3.25554e-09
0.00277951
0.0259247
0.0409027
0.0472561
0.0512873
0.0503215
0.0548102
0.0612462
0.0612494
0.0588787
0.0359658
0.0213142
0.0105565
5.41879e-24
2.06391e-19
4.98074e-19
1.9967e-18
1.07039e-17
3.36883e-17
7.74871e-16
1.67952e-14
1.11561e-08
0.00380611
0.0281542
0.0419841
0.0478126
0.0518644
0.0517077
0.0578645
0.0664287
0.065649
0.0612864
0.0376217
0.022701
0.010667
5.36289e-24
1.01085e-19
3.30062e-19
1.78787e-18
1.10142e-17
3.70495e-17
1.09785e-15
2.70186e-14
3.38852e-08
0.00496625
0.0299735
0.0427614
0.048215
0.0524481
0.0531636
0.060892
0.0714308
0.0697007
0.0632784
0.0392711
0.0241354
0.0107831
5.36886e-24
2.13069e-19
5.09133e-19
2.07828e-18
1.19375e-17
3.88892e-17
1.64266e-15
4.47574e-14
9.95056e-08
0.00621627
0.0313911
0.0432809
0.0485088
0.0530238
0.0545919
0.0637377
0.0760128
0.0732662
0.0647901
0.0408791
0.0255848
0.0109032
5.30889e-24
9.79353e-20
3.17437e-19
1.82003e-18
1.21342e-17
4.22677e-17
2.37313e-15
7.23756e-14
4.77159e-07
0.00753518
0.0324642
0.0436012
0.0487407
0.0535973
0.0559371
0.0662635
0.0799692
0.0762344
0.0657831
0.0423951
0.0269872
0.0110282
5.31527e-24
2.17608e-19
5.11706e-19
2.14708e-18
1.33353e-17
4.50964e-17
3.65312e-15
1.41888e-13
1.37407e-05
0.0089227
0.0332489
0.0437684
0.0489409
0.0541515
0.0571323
0.0683771
0.0831571
0.0785413
0.0662327
0.0438128
0.0283156
0.0111563
5.24848e-24
9.38561e-20
2.9911e-19
1.8245e-18
1.32583e-17
4.8125e-17
5.19932e-15
1.13036e-12
0.000142676
0.0104294
0.0338279
0.0438357
0.0491448
0.0547006
0.0581641
0.0700254
0.0855085
0.0801626
0.0661385
0.0451176
0.0295267
0.0112883
5.2518e-24
1.54764e-19
4.14409e-19
2.07355e-18
1.47932e-17
5.27354e-17
8.15508e-15
5.85115e-11
0.000651499
0.0121266
0.0342665
0.0438429
0.0493753
0.0552458
0.0590163
0.0712136
0.087039
0.0811223
0.065511
0.0463373
0.030628
0.011422
5.17464e-24
9.08286e-20
2.61342e-19
1.73031e-18
1.43414e-17
5.72091e-17
1.13713e-14
2.51319e-09
0.00179059
0.014057
0.0346305
0.0438346
0.0496635
0.0558233
0.0597272
0.0719856
0.0878366
0.0814749
0.0643816
0.0474753
0.0316179
0.0115584
5.16805e-24
6.14245e-21
3.11495e-20
1.05699e-18
1.41352e-17
6.29684e-17
1.84829e-14
4.14569e-07
0.00367761
0.0161906
0.0349487
0.0438414
0.0500286
0.0564564
0.0603259
0.0724322
0.08805
0.0813059
0.0627878
0.0485387
0.0325461
0.0116955
5.0802e-24
3.87834e-20
1.09162e-19
1.04975e-18
1.38061e-17
9.16761e-17
4.56525e-14
4.52513e-05
0.00629061
0.0184671
0.0352368
0.0438985
0.0504984
0.0572036
0.0608923
0.0726624
0.0878617
0.0807076
0.0607841
0.0494384
0.0334222
0.0118345
5.04237e-24
1.92166e-21
2.27783e-22
6.19196e-19
1.32336e-17
2.16119e-16
9.65895e-13
0.000335165
0.00955512
0.0208093
0.0354734
0.0440265
0.0510853
0.0580996
0.0614794
0.0728129
0.087474
0.0797796
0.0584246
0.049971
0.0342087
0.011976
4.84231e-24
4.45735e-19
1.05212e-18
2.48167e-18
1.78585e-17
2.27782e-15
1.8098e-11
0.000967002
0.0133721
0.0232028
0.0356843
0.0442672
0.0518141
0.0592115
0.0621779
0.0730066
0.0870715
0.0785674
0.0557617
0.0496956
0.0344669
0.0121338
0.00987657
0.0187143
0.0251799
0.0182459
0.00681522
0.00545736
0.00657268
0.00742318
0.00798814
0.00866987
0.0128178
0.0128971
0.0136637
0.0152956
0.0167631
0.017761
0.0178255
0.016716
0.0144019
0.0113319
0.00979128
0.0132453
0.027062
0.0460431
0.0625059
0.0726306
0.0793636
0.0853723
0.0884509
0.0841881
0.0772775
0.0737699
0.0754213
0.0870624
0.104736
0.00986353
0.0189288
0.0245877
0.0177369
0.00659106
0.00533595
0.00658201
0.00749239
0.0080127
0.00869251
0.0125861
0.0126959
0.0135524
0.015196
0.0166707
0.0177358
0.0180194
0.017151
0.0148955
0.0116344
0.00992839
0.0133274
0.027213
0.0462016
0.0626579
0.072772
0.079495
0.0854872
0.0885588
0.0842085
0.0772836
0.0737756
0.0754421
0.0870817
0.10476
0.00983842
0.0190293
0.0235993
0.0172748
0.00651334
0.00546814
0.00673716
0.00765863
0.00811022
0.00881598
0.0117514
0.0118268
0.0129574
0.0145606
0.0155707
0.0161348
0.0163476
0.0158683
0.0143038
0.0116183
0.010293
0.0138789
0.0276539
0.0464787
0.0628936
0.0729796
0.0796863
0.0856518
0.088723
0.0842037
0.0772576
0.0737512
0.0754512
0.0870851
0.104773
0.00979929
0.0190484
0.0223028
0.0168523
0.00627006
0.00542076
0.00682152
0.00782288
0.00832599
0.00911699
0.0109254
0.0109176
0.012347
0.0140977
0.0147146
0.0145653
0.0143483
0.0140186
0.013193
0.0114305
0.0107919
0.0147236
0.0283237
0.0468622
0.0632012
0.0732397
0.0799239
0.0858539
0.0889335
0.0841673
0.0771958
0.0736937
0.0754464
0.0870711
0.104772
0.00974597
0.0189414
0.0207739
0.0162957
0.00576722
0.00513515
0.00684475
0.00800711
0.00866314
0.00957219
0.0103747
0.010279
0.0120856
0.0142262
0.0146022
0.0136926
0.0128209
0.0123359
0.0120136
0.0111994
0.0113678
0.0157387
0.0291665
0.0473445
0.063579
0.0735496
0.0802042
0.0860911
0.0891884
0.0841015
0.0771023
0.073608
0.075433
0.0870464
0.104767
0.00967615
0.0186688
0.0190839
0.0154999
0.00512348
0.00478849
0.00693563
0.00829307
0.00913245
0.0101331
0.0101178
0.00996097
0.0122162
0.0148984
0.0151878
0.013582
0.0119959
0.0111578
0.0110531
0.0110291
0.0119921
0.0168444
0.0301386
0.0479228
0.0640316
0.0739138
0.0805307
0.0863668
0.0894909
0.0840139
0.0769856
0.0735037
0.0754207
0.0870233
0.10477
0.00959042
0.0182066
0.0173169
0.0145359
0.00457447
0.00461985
0.00724988
0.00877161
0.00975545
0.0107675
0.0100936
0.00990339
0.0126162
0.015859
0.0161862
0.0140213
0.0117899
0.0105401
0.0104422
0.0109882
0.0126536
0.0179946
0.0312106
0.0485979
0.0645673
0.074341
0.0809103
0.086688
0.0898472
0.0839153
0.0768572
0.0733937
0.0754221
0.0870169
0.104797
0.00948687
0.0175369
0.0155635
0.0135904
0.00435499
0.00480106
0.0079101
0.0095081
0.010549
0.0114591
0.0102405
0.0100433
0.0131622
0.016885
0.0173273
0.0147535
0.0120052
0.0103834
0.0101884
0.0111043
0.0133481
0.0191661
0.0323648
0.0493733
0.0651964
0.0748412
0.0813519
0.0870633
0.0902646
0.0838184
0.0767306
0.0732927
0.0754516
0.0870451
0.104868
0.00936733
0.0166655
0.0139034
0.0128597
0.00461243
0.00542834
0.00897918
0.0105213
0.0115069
0.0121932
0.0105172
0.0103395
0.013787
0.0178806
0.018472
0.0156044
0.0124593
0.0105419
0.0102273
0.0113696
0.0140727
0.0203515
0.0335925
0.0502536
0.0659283
0.075424
0.0818639
0.0875011
0.0907507
0.0837369
0.07662
0.0732165
0.075525
0.0871267
0.105003
0.0092307
0.0156075
0.0123999
0.0124932
0.00542473
0.00654231
0.0104502
0.011776
0.0125902
0.0129422
0.0108861
0.0107547
0.0144542
0.0188378
0.0195866
0.0164876
0.0130257
0.0108827
0.0104674
0.0117515
0.0148225
0.0215508
0.0348895
0.0512426
0.0667704
0.0760966
0.0824526
0.0880084
0.0913121
0.0836842
0.0765398
0.0731816
0.0756587
0.0872817
0.105224
0.00908003
0.0144014
0.0110957
0.0126048
0.00682185
0.00812721
0.012238
0.0131793
0.0137216
0.0136572
0.0112987
0.0112306
0.0151131
0.0197689
0.0206898
0.0173759
0.0136334
0.0113099
0.0108227
0.0122082
0.0155893
0.0227669
0.0362534
0.0523416
0.0677259
0.0768622
0.0831212
0.0885897
0.0919534
0.0836728
0.076504
0.0732041
0.0758688
0.0875302
0.105552
0.00891508
0.0130902
0.0100204
0.0132396
0.00878495
0.0100864
0.0141792
0.0145868
0.0147893
0.0142659
0.0116842
0.0116744
0.0156644
0.0206342
0.0217856
0.018255
0.0142399
0.011759
0.0112235
0.0126966
0.0163619
0.0240003
0.0376796
0.053548
0.0687929
0.0777189
0.0838687
0.0892465
0.0926769
0.083714
0.0765258
0.0732996
0.0761712
0.087892
0.106008
0.00874002
0.01173
0.00918986
0.0143997
0.0111873
0.0122224
0.016047
0.0158175
0.0156582
0.0146797
0.0119506
0.0119597
0.0159514
0.0213045
0.0228226
0.0190983
0.0148145
0.012188
0.011619
0.013179
0.0171257
0.0252469
0.03916
0.054854
0.0699634
0.0786597
0.0846898
0.0899767
0.0934821
0.0838169
0.0766169
0.0734827
0.0765811
0.0883863
0.106613
0.00855535
0.0103711
0.0086098
0.0159611
0.0138008
0.0142589
0.0175906
0.0166863
0.0161929
0.0148085
0.011998
0.0119482
0.0157819
0.0215515
0.0236608
0.0198425
0.0153192
0.0125623
0.011971
0.0136225
0.0178627
0.0264952
0.040681
0.0562462
0.0712239
0.0796724
0.085575
0.0907754
0.0943662
0.0839891
0.0767881
0.0737669
0.077113
0.0890319
0.107386
0.00836592
0.00906359
0.00826958
0.0176815
0.0163242
0.0159061
0.018593
0.0170467
0.0162892
0.0145848
0.0117474
0.0115319
0.0149856
0.0210891
0.0240719
0.0203829
0.0157045
0.0128495
0.0122487
0.0139986
0.0185508
0.0277271
0.0422233
0.0577058
0.0725551
0.0807401
0.0865114
0.0916345
0.0953238
0.084236
0.0770482
0.0741647
0.07778
0.0898465
0.108347
0.00817267
0.00784932
0.00814544
0.0192394
0.0184548
0.016955
0.0189343
0.0168403
0.0159091
0.0139909
0.0111734
0.0106834
0.013498
0.0196615
0.023763
0.0205718
0.0159029
0.0130118
0.0124229
0.0142795
0.0191637
0.0289161
0.0437617
0.0592086
0.0739332
0.0818427
0.0874835
0.0925443
0.0963481
0.0845617
0.0774052
0.0746875
0.0785949
0.0908471
0.109512
0.00798033
0.00676789
0.00820689
0.0203179
0.0199678
0.0173486
0.0186347
0.0161283
0.0151059
0.0130817
0.0103314
0.00949216
0.011437
0.0171796
0.0224494
0.0202377
0.0158363
0.0130079
0.0124643
0.0144377
0.0196702
0.0300295
0.0452662
0.0607262
0.075331
0.082958
0.0884748
0.0934941
0.0974311
0.084969
0.077866
0.0753458
0.0795696
0.0920506
0.1109
0.00778933
0.00586061
0.00844354
0.0206982
0.0207739
0.0171966
0.0178551
0.0150886
0.0140261
0.0119867
0.00935449
0.008153
0.00911401
0.0138525
0.0199676
0.0192156
0.0154216
0.0127938
0.0123423
0.0144431
0.0200345
0.0310278
0.0467023
0.0622273
0.0767194
0.084063
0.0894687
0.0944733
0.0985646
0.08546
0.0784367
0.0761499
0.0807154
0.0934733
0.112525
0.00760307
0.00516135
0.00886878
0.0203438
0.0209275
0.0167254
0.0168483
0.0139686
0.0128789
0.0108866
0.00842177
0.00690499
0.00693903
0.0102202
0.0164237
0.0174036
0.0145908
0.0123315
0.0120293
0.0142663
0.0202168
0.0318675
0.0480329
0.0636787
0.0780689
0.0851358
0.09045
0.0954723
0.0997409
0.0860366
0.079123
0.0771099
0.0820438
0.0951317
0.114405
0.00742066
0.00469436
0.00954065
0.0193867
0.0205978
0.0161981
0.015887
0.0130171
0.0118836
0.00996796
0.00770675
0.0059504
0.00525287
0.00697958
0.0122991
0.0148335
0.0133112
0.0115975
0.0115052
0.0138798
0.0201752
0.0325009
0.0492192
0.0650474
0.0793513
0.0861565
0.091406
0.0964838
0.100953
0.0867011
0.0799308
0.0782363
0.0835661
0.0970432
0.116555
0.00724378
0.00446584
0.0105381
0.0180823
0.0200164
0.0158453
0.0152
0.0124274
0.0112196
0.00938168
0.00734013
0.0054066
0.00420633
0.00464861
0.00838088
0.0117487
0.0116189
0.0105977
0.0107668
0.0132657
0.0198695
0.0328794
0.0502226
0.0663019
0.0805413
0.0871091
0.0923279
0.0975035
0.102198
0.0874562
0.0808663
0.0795405
0.0852945
0.099226
0.118993
0.00707145
0.00447917
0.0119346
0.0167459
0.0194353
0.0158386
0.0149466
0.0123186
0.0110026
0.00922223
0.00739868
0.00531325
0.0037737
0.00333935
0.00540428
0.00862174
0.00964557
0.00937796
0.00983523
0.0124224
0.0192662
0.0329545
0.0510057
0.0674143
0.0816179
0.0879823
0.0932115
0.0985311
0.103471
0.0883061
0.0819367
0.0810353
0.0872418
0.1017
0.121734
0.00690537
0.00472955
0.013755
0.0156843
0.0190963
0.016298
0.015223
0.0127485
0.0112899
0.00953392
0.00791852
0.0056724
0.00385952
0.00285635
0.00364002
0.00601599
0.00763232
0.00803565
0.00876432
0.0113745
0.0183475
0.0326823
0.0515346
0.0683614
0.0825655
0.0887703
0.094058
0.0995703
0.104774
0.0892565
0.0831499
0.0827353
0.0894221
0.104486
0.124798
0.00674534
0.00520325
0.015966
0.0151529
0.0192151
0.0173162
0.0160873
0.0137408
0.0120999
0.0103256
0.00890664
0.0064799
0.00438827
0.00295099
0.00288928
0.00428926
0.00588043
0.00671423
0.00764003
0.0101781
0.0171209
0.0320272
0.0517802
0.0691271
0.0833756
0.0894741
0.0948744
0.10063
0.10611
0.0903149
0.0845158
0.0846576
0.0918513
0.10761
0.128203
0.00659312
0.00584113
0.0184747
0.0153337
0.0199682
0.0189715
0.0175763
0.0153019
0.0134291
0.0115841
0.0103456
0.00772997
0.00532961
0.00346904
0.00282094
0.00343378
0.00462983
0.00557805
0.00657264
0.00892138
0.0156295
0.0309695
0.0517207
0.0697035
0.0840474
0.0901014
0.0956743
0.101725
0.107485
0.0914907
0.0860456
0.0868221
0.0945468
0.111098
0.131971
0.00644962
0.00655157
0.021155
0.016348
0.021488
0.0213247
0.0197071
0.0174222
0.0152541
0.0132732
0.0121848
0.00939689
0.0066702
0.0043643
0.0031993
0.00323697
0.0039501
0.00475807
0.00567307
0.00771234
0.0139569
0.0295133
0.0513432
0.0700924
0.0845888
0.0906676
0.0964778
0.102875
0.108911
0.0927957
0.0877526
0.0892518
0.0975286
0.114982
0.136123
0.00631698
0.00721753
0.0238731
0.0182723
0.0238551
0.0243946
0.0224577
0.0200573
0.0175205
0.0153266
0.0143351
0.0114146
0.00837057
0.00563927
0.0039236
0.00349435
0.00376838
0.00430777
0.00502399
0.00665805
0.0122226
0.0276967
0.0506474
0.0703064
0.0850166
0.0911952
0.0973112
0.104104
0.1104
0.0942439
0.089652
0.0919737
0.100819
0.119295
0.140684
0.00619775
0.00775678
0.0265422
0.0211582
0.0270968
0.0281286
0.0257391
0.0231032
0.0201235
0.0176344
0.0166619
0.0136652
0.0103373
0.00726182
0.00497972
0.00408253
0.00397045
0.0042053
0.00465861
0.00583734
0.0105623
0.0255979
0.0496478
0.0703694
0.0853567
0.0917139
0.0982073
0.105443
0.111969
0.0958517
0.0917618
0.0950187
0.104443
0.124078
0.14568
0.00609509
0.00813565
0.0291568
0.0250329
0.031175
0.0323759
0.0293698
0.0263752
0.0228938
0.020038
0.0189921
0.0159838
0.0124241
0.00912538
0.00634852
0.00494627
0.00446244
0.00439317
0.00456542
0.00528698
0.00910067
0.0233359
0.0483773
0.0703167
0.0856436
0.09226
0.0992047
0.106927
0.113638
0.0976376
0.094102
0.0984221
0.108428
0.129375
0.15114
0.00601408
0.00837954
0.0318038
0.0298893
0.0359741
0.0368808
0.0330713
0.0296068
0.0255972
0.0223322
0.021123
0.0181727
0.0144491
0.011059
0.00793824
0.00604416
0.00517693
0.00480805
0.00470659
0.00500311
0.00792486
0.0210581
0.0468898
0.0701945
0.0859199
0.0928756
0.100347
0.108596
0.115429
0.0996222
0.0966954
0.102224
0.112808
0.135237
0.157095
0.00596079
0.00857052
0.0346079
0.0356313
0.0412659
0.0412847
0.0364847
0.0324682
0.0279511
0.0242827
0.0228437
0.0200243
0.0162205
0.0128646
0.00958606
0.00729774
0.00605298
0.00539027
0.00503536
0.00495851
0.00707487
0.0189179
0.0452608
0.0700584
0.0862343
0.0936071
0.101681
0.110495
0.117369
0.101828
0.0995677
0.106471
0.117617
0.141718
0.16358
0.00594609
0.00881587
0.0376648
0.0419904
0.0466755
0.0451514
0.0392139
0.0346086
0.0296608
0.0256531
0.0239576
0.0213452
0.0175618
0.0143503
0.011099
0.00857826
0.00701229
0.00607698
0.00550071
0.00511672
0.00654974
0.0170471
0.0435854
0.0699711
0.0866402
0.0945038
0.103258
0.11267
0.119483
0.10428
0.102748
0.111213
0.122896
0.148885
0.170633
0.00598322
0.00918781
0.0409428
0.0484366
0.0516656
0.0480147
0.0408884
0.0357166
0.0304688
0.026245
0.0243159
0.021986
0.0183388
0.0153653
0.0123033
0.00973587
0.0079565
0.00679787
0.00604729
0.00544111
0.00632408
0.0155374
0.0419721
0.07
0.0871928
0.0956162
0.105131
0.115171
0.121802
0.107005
0.106268
0.116509
0.128691
0.156809
0.178295
0.00609167
0.0097378
0.0442258
0.0541857
0.0555934
0.0494652
0.0412442
0.0355925
0.0302134
0.0259398
0.0238474
0.0218672
0.0184791
0.0158195
0.0130761
0.0106375
0.00878158
0.00747652
0.00661371
0.00589227
0.00636348
0.0144361
0.0405333
0.0702135
0.0879471
0.0969939
0.107352
0.118052
0.124357
0.110032
0.110165
0.122426
0.135053
0.165574
0.186615
0.00628805
0.0104627
0.0470932
0.0583338
0.0578311
0.0492419
0.0401907
0.0342079
0.0288781
0.024737
0.0225854
0.0210008
0.0179885
0.0157019
0.0133681
0.0112
0.00940436
0.00804454
0.00713962
0.00642652
0.00663467
0.0137562
0.039374
0.0706773
0.0889546
0.0986844
0.109975
0.121366
0.127179
0.113391
0.11448
0.12904
0.142043
0.175274
0.195647
0.00658505
0.0113275
0.0490207
0.0601058
0.0579207
0.0473007
0.0378419
0.03173
0.0266143
0.022767
0.0206701
0.0194947
0.0169502
0.0150748
0.0132004
0.0113986
0.00977705
0.00845238
0.00757398
0.00699341
0.00710703
0.0134884
0.0385821
0.0714504
0.0902617
0.100731
0.113053
0.125169
0.130304
0.117119
0.11926
0.136435
0.149729
0.186019
0.205453
0.00697682
0.0122491
0.0495101
0.0590574
0.0556745
0.0438135
0.0344844
0.0284857
0.0237165
0.0202755
0.0183303
0.017539
0.0155129
0.0140632
0.0126563
0.0112659
0.00989535
0.00868025
0.0078866
0.00754472
0.00774966
0.0136127
0.038222
0.0725827
0.0919074
0.103175
0.116637
0.129522
0.133767
0.121252
0.124559
0.144713
0.158189
0.197933
0.216105
0.00744499
0.0131429
0.0482419
0.0551719
0.0511981
0.0391133
0.0305011
0.0248807
0.0205558
0.0175715
0.0158389
0.015371
0.013863
0.0128238
0.0118538
0.0108717
0.00978846
0.00873481
0.00806979
0.00804075
0.00852619
0.0141018
0.0383332
0.0741127
0.0939234
0.106049
0.120783
0.134487
0.137609
0.125836
0.13044
0.153988
0.167514
0.211162
0.227685
0.00795396
0.0138955
0.0451621
0.0488515
0.044853
0.0336119
0.0262788
0.021298
0.0174891
0.0149614
0.0134619
0.0132332
0.0121929
0.0115208
0.0109251
0.0103083
0.00951107
0.00864666
0.00813933
0.00846205
0.00939498
0.0149251
0.0389343
0.0760693
0.0963346
0.10939
0.125544
0.140133
0.141873
0.130921
0.136975
0.164391
0.177808
0.22587
0.240287
0.00846726
0.0143964
0.0405674
0.0409134
0.0372441
0.027753
0.0221426
0.0180229
0.0147826
0.012682
0.0114067
0.0113298
0.0106699
0.0102953
0.00999032
0.00966828
0.00912601
0.0084575
0.00812539
0.00880776
0.010313
0.0160482
0.0400296
0.0784758
0.0991617
0.11323
0.130985
0.146536
0.146606
0.136567
0.144244
0.176075
0.189189
0.242244
0.254016
0.00894498
0.0144897
0.0350678
0.0325101
0.0292249
0.0219988
0.0183258
0.0152072
0.012569
0.0108613
0.00979167
0.0097977
0.00941421
0.00925379
0.00914743
0.0090352
0.00869706
0.00821514
0.00806836
0.00909821
0.0112451
0.0174383
0.04162
0.081357
0.102425
0.117608
0.137173
0.15378
0.151862
0.142841
0.152342
0.18921
0.201787
0.260492
0.268991
0.0093615
0.0140269
0.0294043
0.0248484
0.0218068
0.0168186
0.0149739
0.0128807
0.0108525
0.00951117
0.00863878
0.0086927
0.00848873
0.00845644
0.00846097
0.00847158
0.00827695
0.007963
0.0080092
0.00936526
0.0121716
0.0190702
0.0437146
0.0847483
0.10615
0.122571
0.14419
0.161959
0.157702
0.149823
0.161371
0.203983
0.215748
0.280842
0.285339
0.0096768
0.0128125
0.0241145
0.0187193
0.0158219
0.012585
0.0121544
0.0109909
0.00954949
0.00856016
0.00789875
0.00800386
0.00790484
0.00792672
0.00796837
0.00802043
0.00790748
0.00774023
0.00798921
0.00965267
0.0130956
0.0209379
0.0463441
0.0887043
0.110369
0.128174
0.152126
0.171178
0.16419
0.157598
0.171442
0.2206
0.231226
0.303538
0.303193
0.00988074
0.0107678
0.0193631
0.0142104
0.0114835
0.0093458
0.00979811
0.00941077
0.00850715
0.00787137
0.00746346
0.00765802
0.00761748
0.00764318
0.00767039
0.00769271
0.00760724
0.00757037
0.00804259
0.0100078
0.0140439
0.0230608
0.0495718
0.0933064
0.115125
0.134483
0.161081
0.181545
0.171397
0.166261
0.182673
0.239276
0.248383
0.328832
0.322689
4.88655e-24
8.846e-19
2.05884e-18
7.23072e-18
4.4879e-17
6.19673e-14
1.9582e-10
0.00258484
0.016654
0.0250022
0.035839
0.0445886
0.0525267
0.0602811
0.0628454
0.0732654
0.0868138
0.0773784
0.0535443
0.0486663
0.0335824
0.0122827
4.99918e-24
3.83013e-19
1.92049e-19
1.05926e-17
1.02538e-16
4.16627e-13
1.70462e-09
0.0042837
0.0188232
0.0261312
0.035955
0.0449216
0.053162
0.0611845
0.0634383
0.0735105
0.0866292
0.0765932
0.0522524
0.0476937
0.0327113
0.0124279
5.10568e-24
7.40713e-19
2.16724e-18
1.75509e-17
2.19812e-16
1.60832e-12
1.62666e-08
0.00617746
0.0207652
0.0271214
0.0361138
0.0453491
0.0539208
0.062226
0.0641636
0.0738637
0.0865067
0.0759243
0.0512844
0.046514
0.0317085
0.0126691
5.06445e-24
2.87177e-19
7.53349e-20
1.82964e-17
4.51877e-16
4.84004e-12
3.28771e-07
0.00814483
0.0224907
0.0280119
0.0363621
0.0458708
0.0548038
0.0634211
0.0650593
0.0743599
0.0864961
0.0754055
0.0506267
0.0451556
0.0306276
0.0130083
5.16872e-24
5.90709e-19
1.96547e-18
2.17102e-17
8.09619e-16
9.45141e-12
1.36882e-05
0.00997326
0.0240337
0.0288338
0.0367249
0.0464801
0.0558035
0.064762
0.0661291
0.0750303
0.0866326
0.0750628
0.0502551
0.0436744
0.0295293
0.0134357
5.11591e-24
2.17575e-19
4.835e-20
1.69446e-17
1.41731e-15
1.57522e-11
4.47437e-05
0.0114079
0.025431
0.0296181
0.0372193
0.0471728
0.0569129
0.0662557
0.0673982
0.0758905
0.0869359
0.0749122
0.0501454
0.0421133
0.0284326
0.0139666
5.23164e-24
4.77086e-19
1.54557e-18
1.65135e-17
2.06957e-15
1.78086e-11
9.48035e-05
0.0123277
0.026722
0.0303865
0.0378446
0.0479357
0.0581121
0.0678802
0.0688529
0.0769558
0.0874157
0.0749675
0.0502644
0.0405316
0.0273698
0.0146138
5.17159e-24
1.68262e-19
3.13787e-20
1.10464e-17
3.03801e-15
1.69108e-11
8.17715e-05
0.0127689
0.0279363
0.0311601
0.0385976
0.048757
0.0593793
0.0696278
0.0705032
0.0782253
0.0880698
0.0752313
0.0505851
0.0389669
0.0263419
0.0153943
5.29983e-24
3.91063e-19
1.19735e-18
1.04307e-17
3.69396e-15
1.09855e-11
9.22523e-05
0.0128582
0.0290978
0.0319518
0.0394623
0.0496154
0.0606769
0.0714562
0.0723152
0.0796986
0.0888918
0.0757051
0.0510759
0.0374691
0.0253699
0.0163107
5.22442e-24
1.3285e-19
2.23903e-20
6.5729e-18
4.50337e-15
6.64419e-12
0.000123405
0.01269
0.0302122
0.0327749
0.0404266
0.0504923
0.0619655
0.0733358
0.0742785
0.0813576
0.0898681
0.0763793
0.0517158
0.0360637
0.0244456
0.0173637
5.35911e-24
3.24082e-19
9.40473e-19
6.53372e-18
4.58575e-15
3.20451e-12
0.000139122
0.0122816
0.0312718
0.0336345
0.0414706
0.0513624
0.0631913
0.0751981
0.0763342
0.0831831
0.0909836
0.0772447
0.0524807
0.0347884
0.0235838
0.0185345
5.27167e-24
1.07449e-19
1.68533e-20
4.00619e-18
4.64441e-15
1.57561e-12
0.000145091
0.0116377
0.0322421
0.0345357
0.0425842
0.0522092
0.0643043
0.0769871
0.0784459
0.0851343
0.0922168
0.0782817
0.0533599
0.0336565
0.0227715
0.0198017
5.41316e-24
2.71748e-19
7.61473e-19
4.29375e-18
4.02338e-15
6.81251e-13
0.000122892
0.0107475
0.0330669
0.0354733
0.0437528
0.0530157
0.0652475
0.078609
0.0805257
0.087166
0.0935426
0.0794719
0.0543386
0.0326955
0.0220216
0.0211234
5.30941e-24
8.98739e-20