/*--------------------------------*- C++ -*----------------------------------*\
| =========                 |                                                 |
| \\      /  F ield         | OpenFOAM: The Open Source CFD Toolbox           |
|  \\    /   O peration     | Version:  v1912                                 |
|   \\  /    A nd           | Website:  www.openfoam.com                      |
|    \\/     M anipulation  |                                                 |
\*---------------------------------------------------------------------------*/
FoamFile
{
    version     2.0;
    format      ascii;
    class       volScalarField;
    location    "40";
    object      p;
}
// * * * * * * * * * * * * * * * * * * * * * * * * * * * * * * * * * * * * * //

dimensions      [0 2 -2 0 0 0 0];


internalField   nonuniform List<scalar> 
12441
(
5.93734
9.08671
19.8929
14.2322
9.0262
7.15248
15.1237
20.8502
27.1799
36.0633
42.8607
46.9012
51.372
59.7541
72.3911
92.8736
118.358
146.742
196.088
257.956
352.186
443.069
5.93771
9.08658
19.8916
14.2333
9.0263
7.15216
15.123
20.8514
27.1795
36.0635
42.8594
46.8998
51.3712
59.7536
72.3903
92.8697
118.343
146.72
195.981
257.867
352.099
442.777
5.93851
9.08651
19.8884
14.2352
9.02658
7.152
15.1212
20.8539
27.1789
36.0642
42.8572
46.8967
51.3686
59.7522
72.3885
92.8634
118.32
146.668
195.809
257.666
351.891
442.219
5.93976
9.08632
19.8837
14.238
9.02708
7.15181
15.1188
20.8575
27.1784
36.0652
42.8533
46.8913
51.3646
59.7501
72.386
92.8547
118.286
146.59
195.637
257.358
351.544
441.391
5.94142
9.08611
19.8775
14.2415
9.02773
7.15174
15.1155
20.8623
27.1778
36.0666
42.8478
46.884
51.3593
59.748
72.383
92.8435
118.241
146.491
195.477
256.97
351.073
440.295
5.94348
9.08577
19.8699
14.2458
9.02852
7.15175
15.1116
20.868
27.1773
36.0682
42.8405
46.8747
51.3529
59.7457
72.3793
92.8291
118.185
146.374
195.299
256.504
350.479
438.924
5.94591
9.08542
19.861
14.2507
9.02938
7.15196
15.1069
20.8749
27.1767
36.0701
42.8313
46.8637
51.3456
59.7436
72.3748
92.8111
118.118
146.234
195.094
255.957
349.765
437.284
5.9487
9.08493
19.8508
14.2563
9.0303
7.15231
15.1017
20.8829
27.1762
36.072
42.8202
46.8509
51.3375
59.7415
72.3692
92.7886
118.044
146.073
194.871
255.34
348.943
435.379
5.95184
9.08442
19.8394
14.2625
9.03126
7.15295
15.0956
20.8919
27.1756
36.0742
42.8072
46.8365
51.3286
59.74
72.3628
92.7602
117.965
145.895
194.64
254.666
348.021
433.211
5.9553
9.08376
19.8268
14.2693
9.03226
7.1538
15.0892
20.9018
27.1749
36.0762
42.7923
46.8206
51.3191
59.7392
72.3556
92.7229
117.885
145.71
194.405
253.949
347.002
430.775
5.9591
9.0831
19.813
14.2767
9.03326
7.15501
15.082
20.9127
27.1742
36.0782
42.7756
46.8033
51.309
59.7407
72.3462
92.6741
117.808
145.524
194.169
253.191
345.886
428.066
5.96319
9.08226
19.7982
14.2846
9.03428
7.15645
15.0745
20.9245
27.1734
36.08
42.757
46.7848
51.2991
59.7462
72.3314
92.6144
117.742
145.351
193.93
252.393
344.67
425.079
5.9676
9.08143
19.7823
14.293
9.0353
7.15831
15.0663
20.9372
27.1725
36.0817
42.7365
46.7652
51.2908
59.7577
72.3087
92.5512
117.694
145.197
193.683
251.543
343.345
421.808
5.97228
9.08043
19.7654
14.3019
9.03634
7.16043
15.0579
20.9507
27.1714
36.083
42.7143
46.7446
51.288
59.7736
72.2786
92.4945
117.667
145.062
193.412
250.625
341.906
418.246
5.97725
9.07945
19.7475
14.3112
9.03737
7.16301
15.0489
20.9649
27.1701
36.0843
42.6903
46.7232
51.2949
59.7906
72.2463
92.4534
117.658
144.934
193.097
249.62
340.344
414.387
5.98247
9.07828
19.7287
14.321
9.03843
7.16586
15.0397
20.9797
27.1687
36.0852
42.6646
46.7016
51.3163
59.8036
72.2211
92.4314
117.655
144.797
192.721
248.518
338.651
410.218
5.98797
9.07715
19.7089
14.331
9.0395
7.1692
15.0299
20.9953
27.167
36.086
42.6373
46.6809
51.3507
59.8139
72.2115
92.4267
117.645
144.632
192.275
247.308
336.824
405.732
5.99369
9.07583
19.6884
14.3415
9.04062
7.17283
15.0201
21.0113
27.1652
36.0864
42.6083
46.663
51.3947
59.823
72.2205
92.431
117.613
144.423
191.758
245.992
334.857
400.914
5.99968
9.07457
19.6669
14.3523
9.04177
7.17697
15.0097
21.0279
27.1631
36.0865
42.5777
46.6502
51.4403
59.8381
72.2467
92.4357
117.548
144.166
191.179
244.57
332.751
395.757
6.00587
9.07311
19.6446
14.3634
9.04299
7.18139
14.9993
21.0449
27.1609
36.0862
42.5447
46.6451
51.4842
59.8595
72.2833
92.4305
117.443
143.863
190.549
243.053
330.505
390.244
6.0123
9.07173
19.6215
14.3747
9.04425
7.18633
14.9883
21.0623
27.1585
36.0857
42.5076
46.6492
51.5215
59.8911
72.3235
92.41
117.301
143.525
189.887
241.447
328.122
384.369
6.01893
9.07014
19.5977
14.3864
9.04563
7.19155
14.9774
21.08
27.156
36.0846
42.4649
46.6624
51.5556
59.9268
72.3591
92.3694
117.127
143.166
189.198
239.762
325.603
378.114
6.02578
9.06866
19.5731
14.3981
9.04707
7.19729
14.966
21.098
27.1535
36.083
42.4172
46.6806
51.5834
59.9679
72.3864
92.3107
116.934
142.798
188.496
238.004
322.954
371.472
6.03281
9.06696
19.5478
14.4102
9.04864
7.2033
14.9546
21.1162
27.151
36.0805
42.3672
46.6988
51.6102
60.0054
72.4013
92.2359
116.731
142.431
187.782
236.183
320.178
364.423
6.04004
9.06539
19.5218
14.4224
9.05031
7.20983
14.9427
21.1346
27.1485
36.0772
42.3178
46.7126
51.631
60.0429
72.4061
92.1519
116.531
142.069
187.062
234.303
317.28
356.958
6.04744
9.0636
19.4952
14.4348
9.05216
7.21662
14.931
21.1531
27.1461
36.0725
42.2707
46.7205
51.6514
60.0716
72.4001
92.0627
116.337
141.712
186.331
232.373
314.265
349.054
6.05503
9.06195
19.4678
14.4471
9.05411
7.22391
14.9188
21.1717
27.1438
36.065
42.2262
46.7224
51.6647
60.0992
72.3898
91.975
116.155
141.36
185.591
230.396
311.137
340.701
6.06277
9.06008
19.44
14.4598
9.05627
7.23146
14.9066
21.1902
27.1417
36.052
42.1854
46.7199
51.6775
60.1171
72.3742
91.8898
115.983
141.01
184.832
228.379
307.899
331.87
6.07069
9.05838
19.4114
14.4724
9.05856
7.23951
14.8941
21.2089
27.1398
36.0309
42.1492
46.7131
51.6823
60.1359
72.3607
91.8111
115.82
140.659
184.057
226.322
304.552
322.551
6.07875
9.05646
19.3823
14.4851
9.0611
7.24778
14.8816
21.2274
27.138
36.0022
42.117
46.7031
51.6872
60.146
72.3453
91.7359
115.659
140.3
183.249
224.231
301.094
312.71
6.08697
9.05472
19.3526
14.4978
9.06378
7.25654
14.8687
21.2459
27.1362
35.9688
42.0864
46.6893
51.684
60.1597
72.3352
91.6654
115.497
139.929
182.414
222.102
297.522
302.331
6.09532
9.05275
19.3225
14.5107
9.06675
7.26552
14.8559
21.2643
27.1345
35.9328
42.0556
46.6729
51.6819
60.1651
72.3226
91.5939
115.325
139.54
181.535
219.939
293.83
291.377
6.10382
9.05097
19.2917
14.5234
9.06988
7.27498
14.8427
21.2826
27.1328
35.8956
42.0233
46.6535
51.6723
60.1758
72.315
91.5214
115.14
139.127
180.618
217.737
290.007
279.828
6.11243
9.04894
19.2606
14.5362
9.07335
7.28463
14.8296
21.3007
27.1312
35.8574
41.989
46.632
51.6648
60.1777
72.3018
91.4411
114.929
138.685
179.65
215.498
286.043
267.643
6.12118
9.0471
19.2288
14.5489
9.077
7.29476
14.8161
21.3187
27.1295
35.8184
41.9526
46.6082
51.6503
60.1855
72.2913
91.3532
114.691
138.21
178.639
213.219
281.927
254.8
6.13004
9.04504
19.1966
14.5616
9.08102
7.30508
14.8028
21.3365
27.1277
35.7785
41.9146
46.5831
51.6385
60.1835
72.2721
91.2514
114.418
137.698
177.573
210.907
277.648
241.253
6.13904
9.04327
19.1638
14.5741
9.08517
7.31587
14.789
21.354
27.1256
35.7375
41.8751
46.5562
51.6203
60.1874
72.2533
91.1373
114.11
137.149
176.462
208.558
273.196
226.977
6.14812
9.04142
19.1307
14.5866
9.08966
7.32679
14.7755
21.3713
27.1229
35.6963
41.835
46.5287
51.6057
60.1813
72.2239
91.006
113.764
136.561
175.298
206.184
268.563
211.922
6.15733
9.03992
19.0972
14.5988
9.09424
7.33811
14.7615
21.3882
27.1186
35.657
41.7947
46.5002
51.5854
60.1809
72.1932
90.8619
113.385
135.94
174.093
203.783
263.745
196.059
6.1666
9.03796
19.0636
14.6113
9.09919
7.34949
14.7476
21.4046
27.1104
35.6216
41.7544
46.4715
51.569
60.1711
72.1518
90.7021
112.977
135.289
172.842
201.369
258.742
179.333
6.17601
9.03572
19.0295
14.6236
9.10445
7.36128
14.733
21.4208
27.0972
35.5904
41.7137
46.4421
51.5469
60.1673
72.1092
90.5354
112.552
134.618
171.556
198.942
253.55
161.713
6.1855
9.0331
18.9947
14.636
9.11046
7.37331
14.7181
21.436
27.0812
35.5622
41.6726
46.4121
51.529
60.1536
72.0593
90.3608
112.112
133.921
170.229
196.516
248.17
143.151
6.19509
9.03161
18.9591
14.6474
9.11718
7.38586
14.7032
21.449
27.0679
35.5345
41.6306
46.3797
51.5024
60.1474
72.0155
90.188
111.665
133.189
168.87
194.072
242.582
123.57
6.20472
9.03047
18.9237
14.6579
9.12466
7.39821
14.6897
21.4585
27.0584
35.5049
41.5861
46.3446
51.4825
60.144
71.9757
90.0041
111.187
132.42
167.48
191.611
236.736
102.399
-36.9869
-53.0104
-28.2488
-1.71448
24.2384
38.8837
60.8292
58.64
59.1026
48.6998
42.1279
33.433
27.1159
21.6907
17.9589
15.3732
12.8058
10.2268
6.73571
2.82206
-1.77034
-3.18729
-2.00927
1.67639
4.7008
5.05909
4.93079
4.52818
4.20587
3.69331
3.08533
2.43416
2.18317
0.932435
1.11871
-37.045
-52.9736
-28.1931
-1.66357
24.266
38.8734
60.8101
58.6229
59.0927
48.6973
42.1403
33.4441
27.1205
21.6952
17.9668
15.3843
12.8152
10.2324
6.73863
2.82472
-1.77215
-3.19937
-2.02845
1.66602
4.69756
5.05785
4.9301
4.52772
4.20549
3.69322
3.08519
2.43414
2.18303
0.932353
1.1186
-37.1397
-52.9885
-28.1327
-1.63259
24.2785
38.8592
60.7854
58.6013
59.0778
48.6907
42.157
33.457
27.1269
21.7005
17.978
15.4018
12.8328
10.245
6.74496
2.82682
-1.77751
-3.21586
-2.04822
1.65564
4.69412
5.05642
4.92924
4.52713
4.20506
3.69308
3.08506
2.43408
2.18289
0.932205
1.11848
-37.2592
-53.0391
-28.0936
-1.6342
24.2824
38.8448
60.7554
58.5739
59.0559
48.6781
42.1735
33.4705
27.1335
21.7037
17.9879
15.4212
12.8557
10.2636
6.75463
2.82894
-1.78457
-3.23468
-2.06718
1.64582
4.69083
5.05503
4.9284
4.52655
4.20462
3.69298
3.08494
2.43404
2.18276
0.932081
1.11838
-37.4041
-53.1318
-28.0727
-1.6693
24.2809
38.8324
60.718
58.5403
59.0265
48.6595
42.1822
33.4794
27.1355
21.6997
17.9894
15.4335
12.8744
10.2808
6.76407
2.83001
-1.79304
-3.25504
-2.08446
1.63711
4.68778
5.05369
4.92756
4.52597
4.20414
3.69292
3.08484
2.43402
2.18265
0.931959
1.11828
-37.574
-53.2636
-28.0688
-1.73244
24.2697
38.8157
60.6703
58.4985
58.9896
48.6353
42.1817
33.4813
27.1313
21.6877
17.9811
15.4359
12.8846
10.2924
6.77073
2.82947
-1.80238
-3.27602
-2.1
1.62958
4.68497
5.05237
4.92668
4.52536
4.20359
3.6929
3.08472
2.43401
2.18253
0.931835
1.11819
-37.7673
-53.4304
-28.0835
-1.81764
24.2395
38.7824
60.6058
58.4456
58.9458
48.6062
42.1725
33.477
27.1223
21.6703
17.9653
15.4298
12.8866
10.2975
6.77366
2.8272
-1.81221
-3.29689
-2.11392
1.62315
4.68236
5.05107
4.92578
4.52471
4.20301
3.6929
3.08459
2.43401
2.1824
0.931712
1.11811
-37.9793
-53.6339
-28.118
-1.92102
24.1821
38.7252
60.5201
58.3782
58.8945
48.5734
42.1558
33.4683
27.1106
21.6507
17.9456
15.4183
12.8826
10.2971
6.77303
2.82335
-1.82233
-3.31715
-2.1263
1.61772
4.67997
5.04977
4.92484
4.52404
4.20236
3.69292
3.08443
2.43401
2.18226
0.93159
1.11803
-38.2077
-53.8725
-28.1642
-2.0362
24.0843
38.6363
60.4114
58.2966
58.8357
48.5369
42.1345
33.4558
27.0975
21.6305
17.924
15.4035
12.8746
10.2929
6.76956
2.8182
-1.83265
-3.33659
-2.13718
1.61322
4.67775
5.04847
4.92387
4.52332
4.20167
3.69295
3.08426
2.43402
2.18211
0.93147
1.11796
-38.4483
-54.1383
-28.2232
-2.16407
23.9399
38.5132
60.2808
58.2042
58.771
48.4963
42.109
33.4398
27.0838
21.6102
17.9013
15.3868
12.8644
10.2863
6.76417
2.81212
-1.84312
-3.35514
-2.14653
1.60957
4.67573
5.04716
4.92285
4.52256
4.20091
3.69297
3.08405
2.43403
2.18193
0.931345
1.11789
-38.6993
-54.422
-28.2888
-2.3048
23.746
38.3564
60.1331
58.1042
58.7029
48.4536
42.0786
33.421
27.0694
21.5892
17.8772
15.3686
12.8527
10.2784
6.75767
2.8055
-1.85368
-3.37286
-2.15433
1.60675
4.67389
5.04584
4.92179
4.52176
4.2001
3.69299
3.08381
2.43403
2.18174
0.931217
1.11782
-38.9561
-54.7114
-28.3654
-2.46117
23.5091
38.1763
59.9788
58.0033
58.6341
48.4103
42.0458
33.4021
27.0548
21.5681
17.8516
15.3491
12.84
10.2698
6.75072
2.79873
-1.86423
-3.38973
-2.16044
1.60477
4.67226
5.04452
4.92068
4.5209
4.19921
3.69299
3.08352
2.43403
2.18152
0.93108
1.11775
-39.2176
-54.9957
-28.4455
-2.62391
23.2371
37.9846
59.8304
57.9093
58.5689
48.3685
42.0134
33.3838
27.0425
21.5482
17.8249
15.3284
12.8267
10.2609
6.74377
2.79215
-1.87462
-3.40572
-2.16475
1.60366
4.67085
5.04323
4.91956
4.52001
4.19827
3.69296
3.08319
2.434
2.18128
0.930935
1.11769
-39.4785
-55.2631
-28.5362
-2.78267
22.9495
37.8026
59.7013
57.8304
58.5112
48.3298
41.9819
33.3685
27.0358
21.5324
17.7992
15.3073
12.8131
10.252
6.73714
2.78607
-1.88459
-3.42058
-2.16699
1.60353
4.66971
5.04196
4.9184
4.51908
4.19725
3.69291
3.0828
2.43396
2.18101
0.930777
1.11764
-39.7371
-55.5075
-28.6254
-2.91174
22.6637
37.6458
59.6017
57.7714
58.464
48.2966
41.9537
33.3573
27.0365
21.5245
17.7771
15.2869
12.7997
10.2435
6.73108
2.78076
-1.89386
-3.43409
-2.16696
1.60449
4.6689
5.04076
4.91725
4.51812
4.19617
3.69281
3.08236
2.4339
2.18071
0.930607
1.11758
-39.9871
-55.7237
-28.7187
-2.9926
22.4041
37.5315
59.537
57.7342
58.4277
48.2689
41.9294
33.3515
27.0446
21.5292
17.7632
15.2693
12.7872
10.2356
6.7258
2.77652
-1.90199
-3.44575
-2.1643
1.60669
4.66847
5.03964
4.9161
4.51713
4.19502
3.69267
3.08185
2.43381
2.18038
0.93042
1.11753
-40.2274
-55.9118
-28.7984
-3.0013
22.1821
37.4587
59.5042
57.7149
58.4007
48.2462
41.9086
33.3493
27.0593
21.5475
17.7613
15.2563
12.7764
10.2287
6.72155
2.77364
-1.90852
-3.45515
-2.15874
1.61027
4.66848
5.03866
4.91499
4.51615
4.19384
3.69248
3.08128
2.43369
2.18001
0.930218
1.11748
-40.4534
-56.0662
-28.8728
-2.93687
22.0093
37.4234
59.4933
57.7052
58.3776
48.2251
41.8879
33.3489
27.0776
21.5774
17.7744
15.2506
12.7683
10.2232
6.71855
2.77247
-1.91284
-3.46163
-2.14991
1.61538
4.66902
5.03782
4.91392
4.51515
4.19257
3.69224
3.08063
2.43354
2.17961
0.929997
1.11744
-40.6657
-56.1884
-28.9276
-2.80192
21.8797
37.405
59.4882
57.6933
58.3521
48.2019
41.8655
33.3455
27.0947
21.613
17.8017
15.2533
12.7636
10.2195
6.71706
2.7734
-1.91432
-3.46469
-2.13758
1.62217
4.67014
5.03719
4.91293
4.51417
4.19128
3.69194
3.07992
2.43336
2.17917
0.929759
1.11741
-40.8591
-56.2838
-28.9803
-2.62394
21.7903
37.3894
59.4728
57.6672
58.316
48.1712
41.8365
33.336
27.1057
21.6475
17.8392
15.265
12.763
10.2178
6.71722
2.77677
-1.91217
-3.46359
-2.12141
1.63076
4.6719
5.03676
4.91201
4.51321
4.18992
3.69158
3.07913
2.43315
2.17869
0.9295
1.11738
-41.0347
-56.3568
-29.0224
-2.42234
21.7249
37.3561
59.4333
57.618
58.2639
48.1299
41.7981
33.3167
27.1078
21.6744
17.8787
15.2837
12.7664
10.2182
6.71917
2.78293
-1.90571
-3.45782
-2.10128
1.64124
4.67434
5.03658
4.91119
4.51227
4.18854
3.69116
3.07828
2.43291
2.17817
0.929223
1.11736
-41.1894
-56.4142
-29.0733
-2.231
21.6765
37.2982
59.361
57.54
58.1909
48.0746
41.747
33.2869
27.0993
21.6907
17.9128
15.3056
12.773
10.2205
6.72272
2.79203
-1.89419
-3.44668
-2.07698
1.65367
4.67752
5.03663
4.91045
4.51136
4.18709
3.69067
3.07733
2.43263
2.17762
0.928922
1.11735
-41.3281
-56.4664
-29.1229
-2.06367
21.6273
37.2048
59.2514
57.4326
58.0965
48.0055
41.6844
33.2456
27.0798
21.6953
17.9362
15.3259
12.781
10.224
6.72757
2.80408
-1.87715
-3.4298
-2.04853
1.66807
4.68142
5.03696
4.90982
4.51048
4.18563
3.69011
3.07633
2.43232
2.17703
0.928602
1.11735
-41.4494
-56.517
-29.1905
-1.94252
21.5691
37.0763
59.1039
57.2975
57.9807
47.9225
41.6098
33.1934
27.0496
21.6891
17.9477
15.3407
12.7884
10.2276
6.73304
2.81869
-1.85432
-3.40669
-2.01586
1.68443
4.68607
5.03753
4.90927
4.50961
4.18409
3.68948
3.07523
2.43196
2.1764
0.928256
1.11737
-41.5587
-56.5704
-29.2638
-1.86739
21.4834
36.9058
58.9198
57.139
57.8471
47.8285
41.5264
33.1314
27.01
21.6728
17.9482
15.3477
12.7932
10.2305
6.73842
2.83525
-1.826
-3.37736
-1.97921
1.70267
4.69144
5.03835
4.90882
4.50878
4.18254
3.68877
3.07406
2.43158
2.17573
0.927888
1.1174
-41.6532
-56.6229
-29.3538
-1.84934
21.3643
36.6967
58.703
56.9617
57.6979
47.7249
41.4352
33.0619
26.9624
21.6476
17.9397
15.347
12.7938
10.2313
6.74279
2.85279
-1.79291
-3.34188
-1.93866
1.7227
4.69751
5.03937
4.90841
4.50793
4.18091
3.68799
3.07281
2.43115
2.17503
0.927492
1.11744
-41.7385
-56.669
-29.4331
-1.87983
21.1986
36.4468
58.459
56.7717
57.5382
47.615
41.3399
32.9867
26.9092
21.6148
17.9233
15.3392
12.7899
10.2296
6.74553
2.87038
-1.75643
-3.30102
-1.89464
1.74437
4.70422
5.0406
4.90808
4.50709
4.17926
3.68712
3.07148
2.43069
2.17428
0.92707
1.11751
-41.8111
-56.6993
-29.4947
-1.95982
20.989
36.1671
58.1977
56.5762
57.3719
47.5005
41.2411
32.9077
26.8518
21.576
17.9005
15.3256
12.7816
10.2249
6.74608
2.88707
-1.71814
-3.25584
-1.84746
1.76755
4.71151
5.04197
4.90773
4.50621
4.17751
3.68617
3.07006
2.43018
2.17349
0.926617
1.11759
-41.8773
-56.7143
-29.5212
-2.07627
20.7299
35.8638
57.9313
56.3843
57.2057
47.3852
41.1427
32.8271
26.7922
21.5327
17.8722
15.3071
12.7694
10.2173
6.74434
2.90233
-1.6798
-3.20817
-1.79776
1.79202
4.7193
5.04347
4.90741
4.50529
4.17572
3.68514
3.06857
2.42963
2.17266
0.926135
1.1177
-41.9336
-56.7058
-29.5056
-2.2171
20.4345
35.5556
57.6752
56.2062
57.0445
47.2716
41.0455
32.7474
26.7318
21.487
17.8396
15.2845
12.7539
10.2071
6.74029
2.91578
-1.64266
-3.16001
-1.74604
1.81766
4.72752
5.04501
4.90702
4.50428
4.17381
3.68402
3.06699
2.42903
2.17178
0.925615
1.11783
-41.9865
-56.6829
-29.4367
-2.36356
20.1086
35.2554
57.4443
56.0515
56.8952
47.1642
40.9531
32.6705
26.6726
21.4404
17.8038
15.2584
12.7356
10.1949
6.73429
2.9274
-1.60763
-3.11374
-1.69318
1.84426
4.73607
5.04658
4.90658
4.50318
4.17184
3.68282
3.06534
2.42839
2.17086
0.925061
1.11799
-42.0319
-56.6583
-29.3228
-2.48791
19.7772
34.9849
57.2524
55.9285
56.7616
47.0645
40.8663
32.5984
26.6161
21.395
17.7667
15.23
12.7151
10.181
6.72662
2.93719
-1.57486
-3.07125
-1.6399
1.87175
4.74488
5.04811
4.906
4.50193
4.16971
3.68153
3.06358
2.4277
2.16989
0.924463
1.11817
-42.078
-56.6644
-29.1529
-2.55438
19.4591
34.7577
57.1081
55.8414
56.6476
46.9758
40.788
32.5332
26.564
21.3524
17.7299
15.2003
12.6934
10.1661
6.71783
2.94527
-1.54432
-3.03407
-1.58725
1.90004
4.75387
5.04958
4.90532
4.50054
4.1675
3.68016
3.06175
2.42696
2.16886
0.923822
1.11839
-42.1237
-56.7024
-28.9091
-2.51059
19.1948
34.5914
57.0138
55.7892
56.5515
46.8976
40.7174
32.4761
26.5172
21.314
17.6953
15.1709
12.6712
10.1507
6.70838
2.95182
-1.51566
-3.00266
-1.53605
1.92916
4.76299
5.05092
4.90444
4.49894
4.16509
3.6787
3.05982
2.42617
2.16777
0.923127
1.11863
-42.1795
-56.7923
-28.5633
-2.31836
19.0108
34.4907
56.9637
55.7649
56.4711
46.8299
40.6543
32.4264
26.4757
21.2802
17.6636
15.1427
12.6493
10.1355
6.69893
2.95722
-1.48873
-2.97698
-1.48723
1.95912
4.7722
5.05214
4.90341
4.49713
4.16256
3.67717
3.05781
2.42531
2.16662
0.922375
1.1189
-42.2434
-56.9466
-28.0783
-1.94834
18.9351
34.4544
56.9432
55.7551
56.3971
46.7677
40.5958
32.3827
26.4388
21.2506
17.6353
15.1165
12.6282
10.1206
6.68986
2.96191
-1.4633
-2.95614
-1.44126
1.99008
4.78149
5.05317
4.90213
4.49505
4.15978
3.67555
3.05568
2.4244
2.1654
0.921556
1.11921
-42.3268
-57.1952
-27.4467
-1.41153
18.9688
34.4675
56.9311
55.7421
56.3204
46.7071
40.54
32.3436
26.4057
21.2247
17.6103
15.0924
12.6083
10.1065
6.68155
2.96643
-1.43935
-2.93921
-1.3985
2.02219
4.79084
5.05407
4.90066
4.4927
4.15683
3.67386
3.05348
2.42342
2.16409
0.920665
1.11956
-42.4253
-57.5044
-26.6615
-0.733193
19.1144
34.5163
56.9064
55.7079
56.229
46.6412
40.4822
32.3063
26.3747
21.2016
17.5881
15.0706
12.5898
10.0932
6.67408
2.97122
-1.41668
-2.92491
-1.35859
2.05572
4.80033
5.05477
4.89893
4.48999
4.15359
3.67209
3.05114
2.42236
2.1627
0.919676
1.11994
-42.5474
-57.8637
-25.7471
0.0234414
19.351
34.5818
56.8512
55.6377
56.1142
46.5656
40.4199
32.2683
26.3446
21.18
17.5679
15.0505
12.5725
10.0807
6.66752
2.97669
-1.3951
-2.91223
-1.32101
2.09089
4.80999
5.05536
4.89699
4.48695
4.15014
3.67026
3.04871
2.42123
2.16121
0.918593
1.12037
-42.6915
-58.2354
-24.7495
0.790016
19.6641
34.6511
56.7535
55.5223
55.9695
46.4758
40.35
32.2278
26.3138
21.159
17.5489
15.0319
12.5563
10.0689
6.66165
2.98298
-1.37411
-2.90004
-1.28467
2.12803
4.81991
5.0558
4.89478
4.48349
4.14634
3.66835
3.04614
2.41999
2.15961
0.91738
1.12082
-42.8932
-58.5924
-23.7498
1.49682
20.0241
34.708
56.6051
55.3592
55.7931
46.3713
40.2718
32.1839
26.2813
21.1379
17.5304
15.0141
12.5408
10.0575
6.65639
2.9904
-1.35318
-2.88787
-1.24907
2.16706
4.83008
5.05615
4.89236
4.47961
4.14226
3.66636
3.04346
2.41865
2.15786
0.91605
1.12134
-43.1779
-58.8998
-22.8223
2.10617
20.3931
34.7356
56.3997
55.1517
55.5864
46.2521
40.1848
32.1361
26.2466
21.1164
17.5121
14.997
12.5257
10.0464
6.65176
2.99912
-1.33221
-2.87631
-1.21439
2.20752
4.84033
5.05624
4.8896
4.47519
4.13774
3.66427
3.04059
2.41725
2.15597
0.914641
1.12189
-43.4486
-59.1669
-22.0197
2.60313
20.6922
34.7068
56.1331
54.9105
55.3574
46.123
40.0906
32.0835
26.2099
21.0937
17.4932
14.9791
12.5106
10.0356
6.64812
3.00904
-1.31259
-2.86733
-1.18027
2.24987
4.85078
5.05614
4.88658
4.47032
4.13301
3.66206
3.03757
2.41572
2.15392
0.913089
1.12248
-43.2742
-59.3793
-21.2996
2.99149
20.8739
34.618
55.8271
54.6579
55.1209
45.9897
39.991
32.0259
26.171
21.0685
17.4719
14.9588
12.4942
10.0245
6.64478
3.018
-1.29693
-2.85729
-1.13187
2.30586
4.86463
5.05656
4.88351
4.46478
4.12762
3.65986
3.03434
2.41416
2.15163
0.911339
1.12316
6.21235
9.02882
18.8969
14.6655
9.13158
7.40633
14.6822
21.4608
27.0468
35.4731
41.5357
46.3084
51.4732
60.2088
71.9992
89.8587
110.719
131.767
166.386
189.66
231.836
81.2155
6.21799
9.02693
18.8776
14.671
9.13716
7.41149
14.6784
21.4579
27.0308
35.4409
41.4832
46.2736
51.4864
60.3074
72.0632
89.7417
110.274
131.244
165.582
188.25
228.016
78.436
6.22396
9.02535
18.8568
14.6761
9.14263
7.41783
14.6743
21.4583
27.0135
35.4047
41.4279
46.2352
51.493
60.4298
72.1419
89.6192
109.796
130.686
164.768
186.784
224.136
80.6043
6.23023
9.02345
18.8347
14.6813
9.14872
7.42513
14.6695
21.4604
26.9964
35.3682
41.374
46.1962
51.5035
60.5341
72.2141
89.4975
109.326
130.108
163.923
185.266
220.214
81.2917
6.23686
9.02182
18.8113
14.6866
9.1554
7.43327
14.6633
21.4659
26.9798
35.3317
41.3217
46.1573
51.503
60.6415
72.2861
89.384
108.871
129.525
163.056
183.698
216.174
80.1717
6.24381
9.0199
18.7867
14.6923
9.16295
7.44173
14.6569
21.4708
26.9623
35.2952
41.2707
46.1195
51.5097
60.7322
72.3463
89.2663
108.424
128.941
162.155
182.089
212.031
78.5632
6.25114
9.01826
18.7608
14.6981
9.17078
7.45083
14.6502
21.4762
26.9438
35.2583
41.2206
46.0823
51.5075
60.8289
72.4051
89.1495
107.982
128.351
161.228
180.419
207.803
77.0473
6.25881
9.01631
18.7335
14.7042
9.17924
7.46044
14.6438
21.4787
26.9244
35.2211
41.1711
46.0457
51.5126
60.9104
72.4532
89.0251
107.539
127.75
160.259
178.699
203.5
75.572
6.26689
9.01468
18.7048
14.7103
9.18794
7.471
14.6369
21.4807
26.9046
35.1831
41.1217
46.0087
51.5079
60.9985
72.5017
88.9009
107.098
127.137
159.252
176.918
199.11
74.0193
6.27533
9.01273
18.6746
14.7168
9.19743
7.48224
14.6302
21.4803
26.8846
35.1449
41.0723
45.9713
51.509
61.0706
72.5395
88.7689
106.653
126.51
158.194
175.086
194.638
72.3642
6.2842
9.01113
18.6429
14.7231
9.2072
7.49456
14.6229
21.479
26.8644
35.1058
41.0224
45.9325
51.4985
61.1477
72.5772
88.636
106.207
125.867
157.088
173.191
190.081
70.6365
6.29345
9.00919
18.6096
14.7299
9.21781
7.50762
14.6158
21.4756
26.844
35.0665
40.972
45.8923
51.492
61.2061
72.6019
88.4933
105.754
125.206
155.923
171.239
185.45
68.8564
6.30316
9.00763
18.5746
14.7366
9.2287
7.52185
14.6076
21.4713
26.8233
35.0263
40.9205
45.8497
51.4721
61.2669
72.6246
88.3469
105.296
124.527
154.702
169.221
180.741
67.0282
6.31328
9.00572
18.538
14.7438
9.24048
7.5369
14.5987
21.4653
26.8023
34.9858
40.8683
45.8051
51.4541
61.3053
72.6307
88.1875
104.828
123.825
153.414
167.141
175.963
65.1498
6.32388
9.00422
18.4995
14.7507
9.25251
7.5532
14.5878
21.4593
26.781
34.9443
40.8146
45.7576
51.4213
61.3421
72.6316
88.0206
104.351
123.1
152.066
164.991
171.111
63.2265
6.33491
9.00236
18.4593
14.7582
9.26548
7.57043
14.5756
21.4522
26.7589
34.9022
40.7601
45.7076
51.3886
61.3527
72.6114
87.8366
103.859
122.349
150.644
162.776
166.191
61.2758
6.34646
9.00095
18.417
14.7655
9.27868
7.58897
14.5611
21.4457
26.7365
34.8588
40.7037
45.6545
51.3408
61.3575
72.5815
87.6405
103.353
121.57
149.155
160.486
161.199
59.3186
6.35845
8.99916
18.3728
14.7734
9.29287
7.60853
14.5452
21.4386
26.7127
34.8144
40.6462
45.5987
51.2922
61.3327
72.5256
87.4223
102.828
120.761
147.589
158.128
156.143
57.3767
6.37099
8.99786
18.3265
14.781
9.30729
7.62948
14.5273
21.4329
26.6885
34.7684
40.5864
45.5397
51.2296
61.2985
72.4553
87.1866
102.284
119.921
145.953
155.69
151.018
55.463
6.384
8.99617
18.2782
14.7893
9.32275
7.65156
14.5081
21.428
26.6618
34.7207
40.5251
45.4778
51.1664
61.2341
72.3546
86.9239
101.715
119.045
144.234
153.18
145.833
53.5871
6.39758
8.995
18.2275
14.7972
9.33842
7.67506
14.4873
21.4256
26.6336
34.671
40.4607
45.4122
51.0912
61.1592
72.2357
86.6388
101.122
118.133
142.443
150.587
140.585
51.7472
6.41165
8.99343
18.1747
14.8059
9.35521
7.69974
14.4656
21.4259
26.6011
34.6191
40.3939
45.3431
51.0158
61.0567
72.085
86.3229
100.499
117.182
140.567
147.917
135.284
49.941
6.42633
8.99243
18.1193
14.8141
9.37221
7.72592
14.4424
21.4296
26.5661
34.5655
40.3228
45.2689
50.9302
60.945
71.9153
85.9814
99.8477
116.19
138.616
145.162
129.93
48.1567
6.44152
8.99101
18.0617
14.8231
9.39042
7.75338
14.4184
21.4358
26.5263
34.5099
40.2481
45.1891
50.8439
60.811
71.7161
85.6083
99.1628
115.152
136.581
142.326
124.535
46.3844
6.45735
8.99021
18.0014
14.8316
9.40882
7.78235
14.3929
21.4436
26.4858
34.453
40.1688
45.1015
50.747
60.6703
71.5002
85.2099
98.4481
114.07
134.471
139.402
119.101
44.6061
6.4737
8.98897
17.9385
14.841
9.42856
7.81267
14.3668
21.452
26.4441
34.3934
40.0862
45.0047
50.6462
60.512
71.2606
84.7827
97.7001
112.939
132.279
136.394
113.643
42.806
6.49072
8.98842
17.8729
14.8497
9.44851
7.84456
14.3392
21.4608
26.4057
34.3299
40.0008
44.8964
50.531
60.3476
71.0082
84.3339
96.924
111.759
130.017
133.295
108.168
40.9609
6.50828
8.9874
17.8045
14.8592
9.46994
7.8779
14.311
21.4691
26.3713
34.2591
39.915
44.7762
50.4048
60.1669
70.7373
83.8614
96.118
110.528
127.678
130.112
102.693
39.0513
6.52654
8.98711
17.7332
14.8681
9.49159
7.91278
14.2815
21.477
26.3436
34.1794
39.8294
44.6443
50.2568
59.9756
70.4555
83.3718
95.2881
109.248
125.276
126.838
97.2261
37.0529
6.54536
8.98634
17.659
14.8777
9.51489
7.94917
14.2515
21.4838
26.3214
34.0899
39.744
44.5036
50.0887
59.7619
70.1562
82.8621
94.4328
107.917
122.805
123.483
91.7883
34.9474
6.56489
8.98638
17.5817
14.8865
9.53845
7.98714
14.2203
21.4898
26.3035
33.9932
39.6565
44.3581
49.8937
59.526
69.8416
82.3363
93.556
106.539
120.279
120.042
86.3884
32.7129
6.585
8.98591
17.5014
14.8961
9.56384
8.02675
14.1887
21.4942
26.2866
33.8912
39.5634
44.2118
49.6775
59.2551
69.502
81.7888
92.654
105.114
117.69
116.527
81.0497
30.3355
6.60585
8.98631
17.4178
14.9045
9.58955
8.0679
14.156
21.4973
26.2697
33.7867
39.461
44.0671
49.442
58.948
69.1342
81.2192
91.7268
103.643
115.049
112.939
75.7823
27.8003
6.62727
8.98618
17.3309
14.9137
9.61729
8.11078
14.1231
21.4985
26.2513
33.6797
39.3464
43.9233
49.1977
58.5973
68.7263
80.6184
90.7666
102.122
112.344
109.292
70.6113
25.1016
6.64947
8.987
17.2407
14.9216
9.64544
8.15523
14.0894
21.4975
26.2319
33.5703
39.2191
43.7772
48.9509
58.2085
68.2742
79.9821
89.7686
100.553
109.582
105.585
65.5475
22.2328
6.67224
8.98727
17.1471
14.93
9.67585
8.20156
14.0555
21.4939
26.211
33.457
39.08
43.6239
48.7085
57.7849
67.771
79.3002
88.7216
98.9259
106.751
101.831
60.617
19.1969
6.69579
8.98854
17.05
14.9368
9.70674
8.24943
14.021
21.4877
26.1891
33.3393
38.9308
43.4599
48.47
57.3399
67.2201
78.569
87.6191
97.2372
103.855
98.0254
55.8298
15.9972
6.71992
8.98925
16.9494
14.9439
9.74014
8.29929
13.9864
21.478
26.1655
33.2161
38.7727
43.2834
48.2329
56.8817
66.6254
77.783
86.452
95.4757
100.883
94.174
51.2093
12.648
6.74484
8.99104
16.8453
14.9489
9.77409
8.35071
13.9514
21.465
26.1406
33.0878
38.6069
43.0947
47.991
56.4204
65.9978
76.944
85.2191
93.6346
97.8402
90.2674
46.7599
9.16384
6.77033
8.99223
16.7376
14.9541
9.8108
8.40432
13.9167
21.448
26.1134
32.9532
38.4335
42.8941
47.7402
55.9572
65.3454
76.0526
83.9202
91.7055
94.7213
86.3079
42.4957
5.57076
6.79661
8.99455
16.6264
14.9567
9.84811
8.45945
13.8817
21.4269
26.0844
32.813
38.2536
42.682
47.4766
55.4921
64.6761
75.1125
82.5626
89.6881
91.5342
82.2884
38.41
1.89621
6.82344
8.99623
16.5115
14.9591
9.8884
8.5169
13.8471
21.4012
26.0523
32.6661
38.0678
42.4569
47.1984
55.0189
63.9904
74.1239
81.1517
87.5844
88.2806
78.2168
34.5055
-1.81857
6.85107
8.99909
16.3932
14.9584
9.9293
8.57587
13.8125
21.3707
26.0177
32.5129
37.8778
42.217
46.9041
54.5343
63.2862
73.0873
79.694
85.404
84.974
74.0968
30.7679
-5.5323
6.87921
9.00128
16.2713
14.957
9.9734
8.63737
13.7786
21.3349
25.9792
32.3535
37.6807
41.9605
46.5934
54.0334
62.5567
72.0004
78.1893
83.154
81.6244
69.9475
27.1962
-9.19251
6.90813
9.00465
16.1461
14.952
10.0181
8.7003
13.7449
21.2938
25.9374
32.1898
37.474
41.688
46.2667
53.5159
61.7976
70.8611
76.6351
80.8406
78.2497
65.7847
23.779
-12.7522
6.93753
9.00727
16.0174
14.9458
10.0661
8.76589
13.7121
21.2469
25.8908
32.0196
37.2552
41.4009
45.9244
52.9777
61.0036
69.6669
75.0237
78.463
74.8606
61.635
20.5198
-16.1562
6.96769
9.01111
15.8857
14.9353
10.1145
8.83285
13.6799
21.1942
25.8402
31.8438
37.0256
41.1011
45.5655
52.4183
60.1734
68.4165
73.3481
76.0202
71.4664
57.517
17.4142
-19.3628
6.99827
9.01409
15.7506
14.923
10.1664
8.9026
13.6488
21.1351
25.7837
31.661
36.7841
40.7877
45.188
51.833
59.3036
67.1098
71.6017
73.5089
68.0673
53.4503
14.4675
-22.3275
7.02957
9.01825
15.6128
14.9058
10.2186
8.97356
13.6184
21.0697
25.7219
31.4726
36.5314
40.4604
44.7895
51.2219
58.3948
65.7482
69.7833
70.9301
64.6628
49.4415
11.6714
-25.0265
7.06122
9.02144
15.4719
14.8864
10.2741
9.04736
13.5894
20.9977
25.653
31.277
36.2654
40.1174
44.369
50.5818
57.4452
64.333
67.8939
68.2857
61.2506
45.4955
9.01712
-27.4327
7.09354
9.02576
15.3287
14.8613
10.3296
9.12214
13.5614
20.9191
25.5777
31.0756
35.9869
39.7589
43.9255
49.9141
56.4566
62.8663
65.9382
65.583
57.8323
41.6097
6.48133
-29.5464
7.12613
9.02896
15.1827
14.8334
10.3884
9.19974
13.535
20.8334
25.4939
30.8666
35.6937
39.3831
43.4583
49.2163
55.427
61.3493
63.9197
62.8295
54.4119