/*--------------------------------*- C++ -*----------------------------------*\
| =========                 |                                                 |
| \\      /  F ield         | OpenFOAM: The Open Source CFD Toolbox           |
|  \\    /   O peration     | Version:  v1912                                 |
|   \\  /    A nd           | Website:  www.openfoam.com                      |
|    \\/     M anipulation  |                                                 |
\*---------------------------------------------------------------------------*/
FoamFile
{
    version     2.0;
    format      ascii;
    class       surfaceScalarField;
    location    "40";
    object      phi;
}
// * * * * * * * * * * * * * * * * * * * * * * * * * * * * * * * * * * * * * //

dimensions      [0 3 -1 0 0 0 0];
oriented        oriented;


internalField   nonuniform List<scalar> 
24588
(
6.88298e-05
-9.83518e-07
6.89006e-05
-2.08015e-06
6.89535e-05
1.04026e-06
6.86096e-05
8.2093e-07
6.84588e-05
1.3618e-07
6.80753e-05
4.63483e-07
6.7877e-05
1.32215e-07
6.74779e-05
2.91142e-07
6.71675e-05
3.50039e-07
6.66541e-05
4.23498e-07
6.59318e-05
8.0738e-07
6.51692e-05
8.73009e-07
6.46246e-05
2.78543e-07
6.45246e-05
4.04711e-07
6.31718e-05
1.10468e-06
6.09635e-05
2.39959e-06
5.83594e-05
2.59333e-06
5.43249e-05
4.02317e-06
4.86389e-05
5.68909e-06
3.84076e-05
1.02223e-05
2.39956e-05
1.44095e-05
2.39981e-05
6.90145e-05
-2.24748e-06
6.93e-05
-4.89742e-06
6.92112e-05
2.5599e-06
6.86184e-05
2.04494e-06
6.82251e-05
5.22533e-07
6.80009e-05
7.6438e-07
6.77788e-05
2.845e-07
6.74255e-05
5.03276e-07
6.7311e-05
5.07631e-07
6.67816e-05
8.40991e-07
6.58712e-05
1.81911e-06
6.50179e-05
1.85136e-06
6.44891e-05
5.2593e-07
6.45508e-05
6.44607e-07
6.32413e-05
2.15785e-06
6.10557e-05
4.76103e-06
5.81651e-05
5.46509e-06
5.41931e-05
7.97221e-06
4.86285e-05
1.12576e-05
3.81562e-05
2.0682e-05
2.37825e-05
2.87801e-05
4.77849e-05
6.89505e-05
-3.42039e-06
6.91974e-05
-7.50515e-06
6.91509e-05
3.96631e-06
6.86099e-05
3.1638e-06
6.82166e-05
8.92117e-07
6.79837e-05
1.10427e-06
6.77611e-05
4.18328e-07
6.73932e-05
7.4719e-07
6.72594e-05
6.92345e-07
6.67153e-05
1.28419e-06
6.58191e-05
2.81326e-06
6.49446e-05
2.854e-06
6.44216e-05
7.29923e-07
6.45051e-05
9.19174e-07
6.32017e-05
3.17743e-06
6.10644e-05
7.11868e-06
5.81327e-05
8.37295e-06
5.41763e-05
1.19105e-05
4.85281e-05
1.6916e-05
3.80045e-05
3.1187e-05
2.36434e-05
4.31363e-05
7.14327e-05
6.89407e-05
-4.57878e-06
6.91385e-05
-1.0044e-05
6.90333e-05
5.48655e-06
6.84706e-05
4.34257e-06
6.80905e-05
1.26794e-06
6.78724e-05
1.38938e-06
6.76494e-05
5.72028e-07
6.72971e-05
9.59452e-07
6.71798e-05
8.52871e-07
6.6648e-05
1.70599e-06
6.57519e-05
3.81168e-06
6.4905e-05
3.82572e-06
6.43684e-05
9.86564e-07
6.44137e-05
1.16994e-06
6.30951e-05
4.25004e-06
6.09728e-05
9.4075e-06
5.80669e-05
1.12561e-05
5.4121e-05
1.58307e-05
4.84357e-05
2.26072e-05
3.78839e-05
4.17239e-05
2.35331e-05
5.74844e-05
9.49699e-05
6.88752e-05
-5.63831e-06
6.90217e-05
-1.23418e-05
6.89513e-05
6.89265e-06
6.84416e-05
5.39981e-06
6.8057e-05
1.62114e-06
6.78304e-05
1.72382e-06
6.76115e-05
6.91562e-07
6.72402e-05
1.21387e-06
6.70971e-05
1.05194e-06
6.65443e-05
2.16381e-06
6.56603e-05
4.79434e-06
6.47809e-05
4.83097e-06
6.42483e-05
1.18377e-06
6.43225e-05
1.46158e-06
6.30014e-05
5.28031e-06
6.09053e-05
1.1723e-05
5.80196e-05
1.41173e-05
5.40419e-05
1.97895e-05
4.83665e-05
2.82961e-05
3.77934e-05
5.22785e-05
2.34502e-05
7.18226e-05
0.000118424
6.88839e-05
-6.71048e-06
6.8995e-05
-1.46427e-05
6.88517e-05
8.44649e-06
6.83036e-05
6.5548e-06
6.79299e-05
1.99333e-06
6.77164e-05
1.99463e-06
6.74924e-05
8.45919e-07
6.71409e-05
1.42614e-06
6.70202e-05
1.21685e-06
6.64828e-05
2.59389e-06
6.55926e-05
5.78954e-06
6.47524e-05
5.79475e-06
6.42101e-05
1.45321e-06
6.4239e-05
1.71696e-06
6.29026e-05
6.38475e-06
6.07962e-05
1.3985e-05
5.79444e-05
1.6942e-05
5.39547e-05
2.37518e-05
4.82999e-05
3.39548e-05
3.77262e-05
6.28372e-05
2.33918e-05
8.61547e-05
0.000141819
6.8816e-05
-7.68097e-06
6.88817e-05
-1.66848e-05
6.87885e-05
9.85904e-06
6.83056e-05
7.55469e-06
6.79225e-05
2.34112e-06
6.76946e-05
2.33613e-06
6.74735e-05
9.59872e-07
6.70969e-05
1.69415e-06
6.6944e-05
1.42983e-06
6.63827e-05
3.06592e-06
6.55046e-05
6.76739e-06
6.46184e-05
6.80264e-06
6.40867e-05
1.64326e-06
6.41603e-05
2.02218e-06
6.28211e-05
7.43165e-06
6.07263e-05
1.62955e-05
5.79115e-05
1.97348e-05
5.38801e-05
2.77682e-05
4.8229e-05
3.96192e-05
3.76755e-05
7.33744e-05
2.33555e-05
0.00010047
0.000165178
6.88381e-05
-8.68407e-06
6.88818e-05
-1.87953e-05
6.87058e-05
1.14367e-05
6.81706e-05
8.69119e-06
6.7802e-05
2.71229e-06
6.75916e-05
2.59528e-06
6.7365e-05
1.11717e-06
6.7014e-05
1.90725e-06
6.68889e-05
1.59989e-06
6.63449e-05
3.50592e-06
6.54563e-05
7.76366e-06
6.46246e-05
7.7568e-06
6.40825e-05
1.92655e-06
6.4092e-05
2.28121e-06
6.2719e-05
8.58742e-06
6.06036e-05
1.85434e-05
5.78591e-05
2.24533e-05
5.37916e-05
3.18099e-05
4.81368e-05
4.52748e-05
3.76353e-05
8.38637e-05
2.33399e-05
0.000114763
0.000188521
6.87681e-05
-9.58239e-06
6.87752e-05
-2.06394e-05
6.8662e-05
1.28474e-05
6.82015e-05
9.64914e-06
6.78216e-05
3.05033e-06
6.75956e-05
2.93682e-06
6.73744e-05
1.22238e-06
6.69937e-05
2.1859e-06
6.68306e-05
1.82764e-06
6.62612e-05
3.99172e-06
6.53891e-05
8.73601e-06
6.44923e-05
8.77085e-06
6.39498e-05
2.10982e-06
6.40068e-05
2.60171e-06
6.26122e-05
9.72405e-06
6.05009e-05
2.08188e-05
5.77847e-05
2.51592e-05
5.36903e-05
3.58969e-05
4.80089e-05
5.09683e-05
3.76e-05
9.42602e-05
2.33443e-05
0.000129014
0.000211868
6.87976e-05
-1.05244e-05
6.87891e-05
-2.25936e-05
6.85891e-05
1.44287e-05
6.80657e-05
1.07725e-05
6.77025e-05
3.42054e-06
6.7496e-05
3.1831e-06
6.72672e-05
1.38276e-06
6.69174e-05
2.39926e-06
6.67873e-05
2.00309e-06
6.62382e-05
4.44111e-06
6.53503e-05
9.73271e-06
6.45356e-05
9.70649e-06
6.40092e-05
2.40537e-06
6.39286e-05
2.9228e-06
6.24789e-05
1.10269e-05
6.0342e-05
2.30262e-05
5.75971e-05
2.78841e-05
5.35173e-05
3.99571e-05
4.78415e-05
5.66424e-05
3.75722e-05
0.000104521
2.33698e-05
0.000143215
0.000235241
6.87234e-05
-1.13556e-05
6.86823e-05
-2.42581e-05
6.85602e-05
1.58133e-05
6.81227e-05
1.16847e-05
6.77433e-05
3.75532e-06
6.75154e-05
3.53153e-06
6.72907e-05
1.48609e-06
6.69054e-05
2.6902e-06
6.67332e-05
2.24319e-06
6.6159e-05
4.93627e-06
6.52872e-05
1.07028e-05
6.44013e-05
1.0702e-05
6.38551e-05
2.59661e-06
6.37583e-05
3.33652e-06
6.22988e-05
1.23268e-05
6.01076e-05
2.53186e-05
5.72871e-05
3.07024e-05
5.32724e-05
4.39728e-05
4.76603e-05
6.2264e-05
3.75592e-05
0.000114614
2.34176e-05
0.000157352
0.000258661
6.87602e-05
-1.22414e-05
6.87103e-05
-2.60764e-05
6.84953e-05
1.73763e-05
6.79843e-05
1.27955e-05
6.76261e-05
4.12617e-06
6.74228e-05
3.76618e-06
6.71905e-05
1.65159e-06
6.68414e-05
2.90498e-06
6.67052e-05
2.42483e-06
6.61522e-05
5.39455e-06
6.52545e-05
1.17081e-05
6.44844e-05
1.1586e-05
6.39709e-05
2.93116e-06
6.36424e-05
3.81393e-06
6.20725e-05
1.38317e-05
5.97713e-05
2.76427e-05
5.68998e-05
3.35595e-05
5.30066e-05
4.78522e-05
4.74975e-05
6.77702e-05
3.75682e-05
0.000124538
2.34888e-05
0.00017143
0.000282152
6.86828e-05
-1.30113e-05
6.86077e-05
-2.75942e-05
6.8483e-05
1.87151e-05
6.80658e-05
1.36727e-05
6.76892e-05
4.45318e-06
6.74624e-05
4.11475e-06
6.72354e-05
1.75175e-06
6.68464e-05
3.20625e-06
6.66647e-05
2.67728e-06
6.60898e-05
5.8955e-06
6.51964e-05
1.26943e-05
6.44026e-05
1.24758e-05
6.39187e-05
3.10327e-06
6.34823e-05
4.42352e-06
6.1784e-05
1.5442e-05
5.93908e-05
3.00944e-05
5.65285e-05
3.64249e-05
5.2777e-05
5.16081e-05
4.7369e-05
7.31862e-05
3.76003e-05
0.000134301
2.3583e-05
0.000185443
0.000305737
6.87239e-05
-1.38423e-05
6.86414e-05
-2.92934e-05
6.84204e-05
2.02395e-05
6.7922e-05
1.47727e-05
6.75696e-05
4.82393e-06
6.73705e-05
4.33648e-06
6.71352e-05
1.92205e-06
6.67874e-05
3.42221e-06
6.66447e-05
2.86546e-06
6.60934e-05
6.35785e-06
6.51718e-05
1.37199e-05
6.45235e-05
1.32178e-05
6.4069e-05
3.48538e-06
6.33248e-05
5.21639e-06
6.14561e-05
1.72946e-05
5.90194e-05
3.25294e-05
5.62217e-05
3.92124e-05
5.25991e-05
5.52205e-05
4.72726e-05
7.85095e-05
3.76523e-05
0.000143918
2.36993e-05
0.000199395
0.000329438
6.86423e-05
-1.45515e-05
6.85365e-05
-3.06656e-05
6.84188e-05
2.15145e-05
6.80244e-05
1.56056e-05
6.76487e-05
5.1485e-06
6.74197e-05
4.6914e-06
6.71885e-05
2.02336e-06
6.67952e-05
3.73489e-06
6.66061e-05
3.12742e-06
6.6035e-05
6.85806e-06
6.51078e-05
1.47345e-05
6.45297e-05
1.38637e-05
6.40879e-05
3.74586e-06
6.31366e-05
6.25661e-06
6.11321e-05
1.92504e-05
5.86984e-05
3.50017e-05
5.59853e-05
4.19302e-05
5.24642e-05
5.87471e-05
4.71984e-05
8.37821e-05
3.7719e-05
0.000153393
2.38355e-05
0.000213274
0.000353275
6.86893e-05
-1.53309e-05
6.858e-05
-3.2256e-05
6.83588e-05
2.29869e-05
6.78736e-05
1.66939e-05
6.75269e-05
5.51988e-06
6.73315e-05
4.9015e-06
6.70926e-05
2.19935e-06
6.67445e-05
3.95413e-06
6.65955e-05
3.32194e-06
6.60376e-05
7.33368e-06
6.51066e-05
1.57631e-05
6.4608e-05
1.44256e-05
6.41004e-05
4.26403e-06
6.29289e-05
7.43386e-06
6.08327e-05
2.13496e-05
5.84309e-05
3.73937e-05
5.58021e-05
4.45511e-05
5.23561e-05
6.21848e-05
4.71363e-05
8.89985e-05
3.77954e-05
0.000162732
2.39895e-05
0.00022708
0.000377266
6.8605e-05
-1.59837e-05
6.84783e-05
-3.35072e-05
6.83707e-05
2.4186e-05
6.79961e-05
1.7493e-05
6.76236e-05
5.83668e-06
6.7395e-05
5.25698e-06
6.71603e-05
2.30162e-06
6.67621e-05
4.27813e-06
6.6568e-05
3.59027e-06
6.59805e-05
7.8543e-06
6.50788e-05
1.67422e-05
6.46438e-05
1.48915e-05
6.405e-05
4.74371e-06
6.27239e-05
8.81183e-06
6.05687e-05
2.34714e-05
5.82114e-05
3.97793e-05
5.56549e-05
4.71126e-05
5.22619e-05
6.5583e-05
4.70785e-05
9.41884e-05
3.78772e-05
0.000171929
2.41592e-05
0.000240793
0.000401427
6.86559e-05
-1.67126e-05
6.85258e-05
-3.50014e-05
6.831e-05
2.55949e-05
6.78377e-05
1.85723e-05
6.74975e-05
6.20741e-06
6.73065e-05
5.45453e-06
6.70648e-05
2.4823e-06
6.67157e-05
4.50191e-06
6.65641e-05
3.78758e-06
6.59824e-05
8.36095e-06
6.50964e-05
1.77176e-05
6.46901e-05
1.53282e-05
6.39816e-05
5.4878e-06
6.25252e-05
1.02589e-05
6.03382e-05
2.56673e-05
5.80278e-05
4.20774e-05
5.55286e-05
4.96053e-05
5.21717e-05
6.89325e-05
4.70194e-05
9.93373e-05
3.79615e-05
0.000180985
2.43428e-05
0.000254412
0.000425771
6.85682e-05
-1.73101e-05
6.84218e-05
-3.61308e-05
6.83303e-05
2.67103e-05
6.79776e-05
1.93294e-05
6.76063e-05
6.52151e-06
6.73754e-05
5.81612e-06
6.71361e-05
2.58776e-06
6.67336e-05
4.83653e-06
6.65362e-05
4.06056e-06
6.59289e-05
8.90451e-06
6.50849e-05
1.86218e-05
6.47e-05
1.57199e-05
6.38919e-05
6.21765e-06
6.23402e-05
1.18486e-05
6.01374e-05
2.78445e-05
5.7871e-05
4.43674e-05
5.54129e-05
5.20682e-05
5.20793e-05
7.22713e-05
4.69554e-05
0.000104467
3.80461e-05
0.000189891
2.45389e-05
0.000267915
0.000450311
6.86244e-05
-1.79921e-05
6.84769e-05
-3.75355e-05
6.82692e-05
2.80506e-05
6.78101e-05
2.03992e-05
6.7476e-05
6.89221e-06
6.72893e-05
6.00209e-06
6.7044e-05
2.77349e-06
6.66945e-05
5.06493e-06
6.65353e-05
4.26608e-06
6.59312e-05
9.44037e-06
6.5112e-05
1.95067e-05
6.46965e-05
1.61505e-05
6.37959e-05
7.16031e-06
6.21671e-05
1.34635e-05
5.99603e-05
3.0062e-05
5.77316e-05
4.65836e-05
5.52995e-05
5.44946e-05
5.19798e-05
7.55838e-05
4.68841e-05
0.000109559
3.81302e-05
0.000198644
2.47465e-05
0.000281298
0.000475058
6.85344e-05
-1.85385e-05
6.83749e-05
-3.85633e-05
6.82993e-05
2.90796e-05
6.79648e-05
2.11255e-05
6.75971e-05
7.19846e-06
6.73664e-05
6.36443e-06
6.71223e-05
2.88266e-06
6.67184e-05
5.40727e-06
6.65089e-05
4.55143e-06
6.5884e-05
1.00046e-05
6.51336e-05
2.02815e-05
6.46729e-05
1.66111e-05
6.36942e-05
8.07526e-06
6.2007e-05
1.51813e-05
5.98023e-05
3.22448e-05
5.76037e-05
4.8803e-05
5.51832e-05
5.69199e-05
5.18707e-05
7.89015e-05
4.68044e-05
0.000114632
3.82131e-05
0.000207231
2.49651e-05
0.000294542
0.000500025
6.85939e-05
-1.91744e-05
6.84327e-05
-3.98878e-05
6.82362e-05
3.03464e-05
6.77892e-05
2.21885e-05
6.74616e-05
7.56819e-06
6.72803e-05
6.53773e-06
6.70315e-05
3.07297e-06
6.66832e-05
5.63924e-06
6.65086e-05
4.77337e-06
6.58729e-05
1.0579e-05
6.51603e-05
2.10245e-05
6.46405e-05
1.71407e-05
6.35924e-05
9.16506e-06
6.18572e-05
1.69011e-05
5.96585e-05
3.44545e-05
5.74812e-05
5.09677e-05
5.50598e-05
5.93358e-05
5.17507e-05
8.22032e-05
4.67162e-05
0.000119662
3.82953e-05
0.000215652
2.51946e-05
0.000307643
0.00052522
6.8501e-05
-1.96707e-05
6.83277e-05
-4.08095e-05
6.82725e-05
3.12864e-05
6.79586e-05
2.28743e-05
6.75923e-05
7.8717e-06
6.73594e-05
6.90549e-06
6.71103e-05
3.18677e-06
6.67057e-05
5.98798e-06
6.64831e-05
5.0722e-06
6.58261e-05
1.1178e-05
6.51635e-05
2.1689e-05
6.45988e-05
1.77033e-05
6.34905e-05
1.02187e-05
6.17173e-05
1.87013e-05
5.95253e-05
3.66268e-05
5.73607e-05
5.31522e-05
5.49274e-05
6.1774e-05
5.16202e-05
8.55162e-05
4.66203e-05
0.000124668
3.83775e-05
0.000223891
2.54349e-05
0.000320581
0.000550656
6.85654e-05
-2.02642e-05
6.83923e-05
-4.20586e-05
6.82078e-05
3.24788e-05
6.77733e-05
2.39298e-05
6.74522e-05
8.24086e-06
6.72757e-05
7.06729e-06
6.70232e-05
3.3817e-06
6.66741e-05
6.22608e-06
6.64883e-05
5.30663e-06
6.58143e-05
1.17983e-05
6.51576e-05
2.23577e-05
6.45538e-05
1.83147e-05
6.33905e-05
1.14228e-05
6.15848e-05
2.04914e-05
5.93993e-05
3.88233e-05
5.7239e-05
5.52997e-05
5.47856e-05
6.42218e-05
5.14805e-05
8.88139e-05
4.65181e-05
0.000129627
3.84612e-05
0.000231947
2.56868e-05
0.000333356
0.000576343
6.84706e-05
-2.07143e-05
6.82887e-05
-4.28925e-05
6.82518e-05
3.33306e-05
6.7955e-05
2.45862e-05
6.75927e-05
8.53607e-06
6.73591e-05
7.43652e-06
6.71044e-05
3.50235e-06
6.66982e-05
6.58219e-06
6.64687e-05
5.61175e-06
6.57767e-05
1.24369e-05
6.51408e-05
2.29899e-05
6.45048e-05
1.89482e-05
6.32919e-05
1.25858e-05
6.14589e-05
2.23493e-05
5.92784e-05
4.09853e-05
5.71153e-05
5.74825e-05
5.46361e-05
6.67062e-05
5.13348e-05
9.21212e-05
4.64117e-05
0.000134556
3.85481e-05
0.000239808
2.59508e-05
0.000345949
0.000602295
6.85382e-05
-2.1267e-05
6.83566e-05
-4.4075e-05
6.81855e-05
3.44475e-05
6.77617e-05
2.56381e-05
6.74468e-05
8.90439e-06
6.72757e-05
7.58639e-06
6.70194e-05
3.70203e-06
6.66694e-05
6.82706e-06
6.64689e-05
5.86185e-06
6.57632e-05
1.31003e-05
6.51213e-05
2.36372e-05
6.4455e-05
1.96211e-05
6.31956e-05
1.38846e-05
6.13377e-05
2.41914e-05
5.91607e-05
4.31734e-05
5.6989e-05
5.96409e-05
5.44812e-05
6.92083e-05
5.1186e-05
9.5409e-05
4.63037e-05
0.000139434
3.86404e-05
0.000247471
2.62282e-05
0.000358361
0.000628523
6.84411e-05
-2.16728e-05
6.82502e-05
-4.48186e-05
6.82349e-05
3.52115e-05
6.79564e-05
2.62574e-05
6.75952e-05
9.19735e-06
6.73596e-05
7.96075e-06
6.70976e-05
3.83121e-06
6.6698e-05
7.18065e-06
6.64259e-05
6.20855e-06
6.57081e-05
1.3781e-05
6.50988e-05
2.42427e-05
6.44036e-05
2.03135e-05
6.3101e-05
1.51407e-05
6.12209e-05
2.60954e-05
5.90457e-05
4.53307e-05
5.68617e-05
6.1845e-05
5.43245e-05
7.17507e-05
5.10379e-05
9.87019e-05
4.61964e-05
0.000144281
3.87401e-05
0.000254924
2.65197e-05
0.000370578
0.000655044
6.85131e-05
-2.21883e-05
6.83241e-05
-4.59381e-05
6.81667e-05
3.62543e-05
6.77541e-05
2.73041e-05
6.74446e-05
9.56655e-06
6.72794e-05
8.09919e-06
6.70142e-05
4.04034e-06
6.6681e-05
7.41485e-06
6.63883e-05
6.55133e-06
6.56601e-05
1.44892e-05
6.50765e-05
2.48298e-05
6.43525e-05
2.10435e-05
6.30083e-05
1.65232e-05
6.11071e-05
2.79807e-05
5.89327e-05
4.75162e-05
5.67345e-05
6.40293e-05
5.41691e-05
7.43104e-05
5.08934e-05
0.00010197
4.60922e-05
0.000149078
3.88497e-05
0.000262166
2.68269e-05
0.0003826
0.00068187
6.84144e-05
-2.25534e-05
6.82182e-05
-4.66068e-05
6.82216e-05
3.69342e-05
6.79582e-05
2.78968e-05
6.76e-05
9.85323e-06
6.73641e-05
8.47524e-06
6.709e-05
4.18459e-06
6.67115e-05
7.75246e-06
6.63457e-05
6.98862e-06
6.56091e-05
1.52075e-05
6.50545e-05
2.53814e-05
6.43003e-05
2.1795e-05
6.2917e-05
1.78621e-05
6.09964e-05
2.99247e-05
5.88223e-05
4.9673e-05
5.66099e-05
6.62616e-05
5.40183e-05
7.69074e-05
5.07554e-05
0.00010524
4.59932e-05
0.000153846
3.89709e-05
0.000269186
2.71508e-05
0.000394417
0.000709022
6.84891e-05
-2.30329e-05
6.82945e-05
-4.76694e-05
6.81515e-05
3.79038e-05
6.77483e-05
2.8941e-05
6.74438e-05
1.02237e-05
6.72844e-05
8.60295e-06
6.70106e-05
4.40296e-06
6.6692e-05
7.9786e-06
6.63204e-05
7.41025e-06
6.55774e-05
1.5943e-05
6.50338e-05
2.5928e-05
6.42484e-05
2.25861e-05
6.28273e-05
1.93207e-05
6.0888e-05
3.18478e-05
5.87145e-05
5.18577e-05
5.64888e-05
6.84731e-05
5.3874e-05
7.95166e-05
5.06258e-05
0.000108481
4.59011e-05
0.000158566
3.91056e-05
0.000275981
2.74923e-05
0.00040603
0.000736514
6.83884e-05
-2.33589e-05
6.8185e-05
-4.82571e-05
6.82105e-05
3.85013e-05
6.79643e-05
2.94958e-05
6.76065e-05
1.05101e-05
6.73677e-05
8.98471e-06
6.70853e-05
4.55817e-06
6.67188e-05
8.30683e-06
6.63001e-05
7.89652e-06
6.55508e-05
1.66816e-05
6.50139e-05
2.64625e-05
6.41955e-05
2.34017e-05
6.27384e-05
2.0735e-05
6.07823e-05
3.38271e-05
5.86103e-05
5.40128e-05
5.63729e-05
7.07301e-05
5.37379e-05
8.2157e-05
5.0506e-05
0.000111719
4.58174e-05
0.000163261
3.92547e-05
0.000282541
2.78522e-05
0.000417429
0.000764368
6.84672e-05
-2.38059e-05
6.82672e-05
-4.92654e-05
6.81381e-05
3.94008e-05
6.77454e-05
3.05353e-05
6.74456e-05
1.08825e-05
6.72905e-05
9.10431e-06
6.70105e-05
4.78322e-06
6.66957e-05
8.53656e-06
6.6282e-05
8.35989e-06
6.55318e-05
1.74289e-05
6.49953e-05
2.7002e-05
6.41428e-05
2.42596e-05
6.26504e-05
2.22642e-05
6.06787e-05
3.57825e-05
5.85096e-05
5.6193e-05
5.62627e-05
7.29625e-05
5.36109e-05
8.48032e-05
5.03969e-05
0.000114926
4.57433e-05
0.00016791
3.94192e-05
0.000288865
2.82311e-05
0.000428618
0.000792598
6.8365e-05
-2.40963e-05
6.81575e-05
-4.97858e-05
6.82015e-05
3.99205e-05
6.79696e-05
3.10622e-05
6.76143e-05
1.11641e-05
6.7372e-05
9.49224e-06
6.70818e-05
4.95119e-06
6.67214e-05
8.86155e-06
6.62704e-05
8.8753e-06
6.55158e-05
1.81762e-05
6.49775e-05
2.75384e-05
6.40889e-05
2.51455e-05
6.25626e-05
2.37483e-05
6.05775e-05
3.77906e-05
5.84128e-05
5.83415e-05
5.61586e-05
7.52359e-05
5.34935e-05
8.74737e-05
5.02991e-05
0.000118127
4.56794e-05
0.000172535
3.95993e-05
0.000294943
2.8629e-05
0.000439585
0.000821228
6.84469e-05
-2.45129e-05
6.82431e-05
-5.07459e-05
6.81273e-05
4.0754e-05
6.77428e-05
3.21004e-05
6.74468e-05
1.15395e-05
6.72951e-05
9.60621e-06
6.70094e-05
5.18227e-06
6.66949e-05
9.09942e-06
6.6254e-05
9.3638e-06
6.55042e-05
1.8925e-05
6.49608e-05
2.80847e-05
6.40347e-05
2.6077e-05
6.24749e-05
2.53442e-05
6.04781e-05
3.97706e-05
5.83199e-05
6.05106e-05
5.60605e-05
7.74805e-05
5.33855e-05
9.01435e-05
5.02127e-05
0.000121293
4.56265e-05
0.000177117
3.97954e-05
0.000300774
2.90464e-05
0.000450334
0.000850274
6.8343e-05
-2.47696e-05
6.81312e-05
-5.1199e-05
6.81948e-05
4.11998e-05
6.79777e-05
3.2594e-05
6.76233e-05
1.18189e-05
6.73774e-05
1.00003e-05
6.70797e-05
5.3608e-06
6.67213e-05
9.42879e-06
6.62482e-05
9.89576e-06
6.54953e-05
1.96719e-05
6.49448e-05
2.86339e-05
6.39786e-05
2.70403e-05
6.23866e-05
2.68965e-05
6.03808e-05
4.18003e-05
5.82308e-05
6.26456e-05
5.59685e-05
7.97624e-05
5.32869e-05
9.28301e-05
5.01377e-05
0.000124449
4.55852e-05
0.000181675
4.00073e-05
0.00030635
2.94832e-05
0.000460855
0.000879758
6.84292e-05
-2.51597e-05
6.82217e-05
-5.21122e-05
6.81187e-05
4.19721e-05
6.77432e-05
3.36277e-05
6.74496e-05
1.22e-05
6.72997e-05
1.01124e-05
6.70085e-05
5.59764e-06
6.6693e-05
9.67657e-06
6.62328e-05
1.0398e-05
6.549e-05
2.04146e-05
6.49297e-05
2.91973e-05
6.39214e-05
2.80538e-05
6.22973e-05
2.85564e-05
6.02846e-05
4.37963e-05
5.81451e-05
6.47957e-05
5.58819e-05
8.20108e-05
5.31973e-05
9.55096e-05
5.00741e-05
0.000127566
4.55556e-05
0.000186189
4.02356e-05
0.00031167
2.99398e-05
0.000471151
0.000909697
6.83243e-05
-2.53874e-05
6.81072e-05
-5.25026e-05
6.81866e-05
4.23559e-05
6.79831e-05
3.40916e-05
6.76289e-05
1.24793e-05
6.73743e-05
1.05216e-05
6.70749e-05
5.7833e-06
6.67109e-05
1.00118e-05
6.62128e-05
1.09427e-05
6.54873e-05
2.11351e-05
6.49149e-05
2.97687e-05
6.38614e-05
2.91044e-05
6.22064e-05
3.01714e-05
6.01896e-05
4.58368e-05
5.80627e-05
6.69081e-05
5.58006e-05
8.42919e-05
5.31162e-05
9.8199e-05
5.00218e-05
0.000130667
4.5538e-05
0.000190678
4.04803e-05
0.000316726
3.04167e-05
0.000481212
0.000940116
6.84126e-05
-2.57525e-05
6.81998e-05
-5.33707e-05
6.81077e-05
4.30726e-05
6.77391e-05
3.51237e-05
6.74481e-05
1.28668e-05
6.72953e-05
1.0637e-05
6.70117e-05
6.01306e-06
6.66666e-05
1.02965e-05
6.61564e-05
1.14689e-05
6.54883e-05
2.18041e-05
6.49003e-05
3.036e-05
6.37992e-05
3.02109e-05
6.21136e-05
3.18933e-05
6.0095e-05
4.7838e-05
5.7983e-05
6.90306e-05
5.5724e-05
8.65359e-05
5.30433e-05
0.000100875
4.99806e-05
0.000133723
4.55325e-05
0.000195122
4.0742e-05
0.000321517
3.09144e-05
0.00049104
0.000971029
6.83047e-05
-2.595e-05
6.80796e-05
-5.36901e-05
6.81789e-05
4.33919e-05
6.79913e-05
3.55443e-05
6.76366e-05
1.31477e-05
6.73694e-05
1.10641e-05
6.7082e-05
6.19154e-06
6.66664e-05
1.06905e-05
6.61023e-05
1.20516e-05
6.54926e-05
2.24095e-05
6.48853e-05
3.09665e-05
6.3733e-05
3.13603e-05
6.20181e-05
3.35676e-05
6.00008e-05
4.98784e-05
5.79058e-05
7.11113e-05
5.56517e-05
8.88084e-05
5.29781e-05
0.000103553
4.99504e-05
0.000136757
4.55387e-05
0.000199539
4.10205e-05
0.000326033
3.14334e-05
0.000500625
0.00100246
6.83974e-05
-2.62908e-05
6.81784e-05
-5.45136e-05
6.8098e-05
4.40527e-05
6.77403e-05
3.65686e-05
6.74539e-05
1.35365e-05
6.72965e-05
1.1186e-05
6.70293e-05
6.40403e-06
6.6641e-05
1.10191e-05
6.60758e-05
1.26157e-05
6.5501e-05
2.29859e-05
6.48693e-05
3.1602e-05
6.36636e-05
3.25716e-05
6.19197e-05
3.535e-05
5.99062e-05
5.18733e-05
5.78308e-05
7.31977e-05
5.55833e-05
9.104e-05
5.29201e-05
0.000106211
4.99312e-05
0.000139739
4.55562e-05
0.000203909
4.13148e-05
0.000330275
3.19734e-05
0.000509967
0.00103444
6.82872e-05
-2.64669e-05
6.80549e-05
-5.47837e-05
6.81629e-05
4.43258e-05
6.79823e-05
3.69768e-05
6.76315e-05
1.38162e-05
6.73617e-05
1.16143e-05
6.7075e-05
6.58781e-06
6.66416e-05
1.14451e-05
6.60678e-05
1.32003e-05
6.55122e-05
2.35373e-05
6.48516e-05
3.22612e-05
6.35892e-05
3.38304e-05
6.18181e-05
3.7072e-05
5.98115e-05
5.39057e-05
5.77578e-05
7.52348e-05
5.55187e-05
9.32996e-05
5.2869e-05
0.000108867
4.99229e-05
0.000142692
4.55844e-05
0.000208254
4.16214e-05
0.000334236
3.2532e-05
0.000519053
0.00106697
6.83827e-05
-2.67968e-05
6.81743e-05
-5.55669e-05
6.80987e-05
4.49322e-05
6.7753e-05
3.79762e-05
6.74644e-05
1.41951e-05
6.72955e-05
1.17672e-05
6.70381e-05
6.78376e-06
6.66338e-05
1.17984e-05
6.60717e-05
1.37583e-05
6.55258e-05
2.4085e-05
6.48319e-05
3.29594e-05
6.35109e-05
3.51575e-05
6.17133e-05
3.89118e-05
5.97158e-05
5.58826e-05
5.76866e-05
7.7276e-05
5.54573e-05
9.55113e-05
5.28244e-05
0.000111494
4.99255e-05
0.000145584
4.56222e-05
0.000212553
4.19327e-05
0.000337926
3.31035e-05
0.000527883
0.00110007
6.83215e-05
-2.70382e-05
6.8152e-05
-5.584e-05
6.82401e-05
4.51792e-05
6.8045e-05
3.83695e-05
6.76843e-05
1.44826e-05
6.74005e-05
1.22088e-05
6.7103e-05
6.98378e-06
6.66361e-05
1.22836e-05
6.60799e-05
1.43219e-05
6.55403e-05
2.46207e-05
6.48095e-05
3.36889e-05
6.34271e-05
3.65361e-05
6.16053e-05
4.06843e-05
5.962e-05
5.78932e-05
5.76173e-05
7.92625e-05
5.53993e-05
9.77497e-05
5.27861e-05
0.000114114
4.99393e-05
0.000148438
4.56688e-05
0.000216829
4.22347e-05
0.000341358
3.36753e-05
0.00053644
0.00113375
6.85522e-05
-2.75986e-05
6.85287e-05
-5.67972e-05
6.83785e-05
4.58338e-05
6.79554e-05
3.94776e-05
6.76214e-05
1.49154e-05
6.74451e-05
1.23755e-05
6.71295e-05
7.22603e-06
6.66304e-05
1.27535e-05
6.60907e-05
1.48568e-05
6.55549e-05
2.51583e-05
6.47846e-05
3.44633e-05
6.33398e-05
3.79862e-05
6.14952e-05
4.25718e-05
5.95232e-05
5.98448e-05
5.75494e-05
8.12488e-05
5.53442e-05
9.99378e-05
5.27534e-05
0.000116699
4.99653e-05
0.000151219
4.57224e-05
0.000221067
4.25181e-05
0.000344563
3.43201e-05
0.000544639
0.00116807
-7.84959e-06
7.85327e-06
-9.17554e-06
1.33057e-06
-6.5983e-06
-2.57105e-06
-3.90529e-06
-2.6972e-06
-3.24165e-07
-3.56835e-06
6.31474e-06
-6.64417e-06
1.26661e-05
-6.34988e-06
1.79582e-05
-5.29149e-06
2.19183e-05
-3.95797e-06
2.5102e-05
-3.18802e-06
2.7921e-05
-2.84589e-06
3.0648e-05
-2.7102e-06
3.32203e-05
-2.57554e-06
3.56664e-05
-2.44609e-06
3.81628e-05
-2.49588e-06
4.08464e-05
-2.683e-06
4.36324e-05
-2.78571e-06
4.63693e-05
-2.73712e-06
4.89424e-05
-2.57161e-06
5.16213e-05
-2.68244e-06
5.54162e-05
-3.80098e-06
5.98876e-05
-4.46758e-06
6.29436e-05
-3.05576e-06
6.42897e-05
-1.34645e-06
6.49696e-05
-6.80155e-07
6.5453e-05
-4.83433e-07
6.5861e-05
-4.07948e-07
6.62332e-05
-3.72233e-07
6.65687e-05
-3.33616e-07
6.68411e-05
-2.73726e-07
6.70412e-05
-2.00456e-07
6.71949e-05
-1.53126e-07
6.7335e-05
-1.4139e-07
6.74492e-05
-1.12975e-07
-3.66671e-08
-7.47484e-06
1.53364e-05
-9.33737e-06
3.20151e-06
-7.02498e-06
-4.87183e-06
-4.53641e-06
-5.19382e-06
-1.1849e-06
-6.89535e-06
5.54448e-06
-1.33823e-05
1.22165e-05
-1.30189e-05
1.78357e-05
-1.0909e-05
2.19862e-05
-8.10517e-06
2.52215e-05
-6.4322e-06
2.79758e-05
-5.64623e-06
3.06268e-05
-5.33433e-06
3.31685e-05
-5.12342e-06
3.55978e-05
-4.8754e-06
3.80501e-05
-4.94713e-06
4.06642e-05
-5.29601e-06
4.33836e-05
-5.50445e-06
4.6065e-05
-5.4188e-06
4.85771e-05
-5.08115e-06
5.1135e-05
-5.24709e-06
5.48231e-05
-7.50012e-06
5.9436e-05
-9.07351e-06
6.27565e-05
-6.37605e-06
6.42213e-05
-2.81179e-06
6.49311e-05
-1.39047e-06
6.54247e-05
-9.77107e-07
6.58378e-05
-8.21079e-07
6.62138e-05
-7.48251e-07
6.65523e-05
-6.68637e-07
6.68279e-05
-5.51733e-07
6.70305e-05
-4.0366e-07
6.71857e-05
-3.07235e-07
6.73276e-05
-2.85623e-07
6.74428e-05
-2.25981e-07
-7.47458e-08
-7.28477e-06
2.26271e-05
-9.31788e-06
5.24306e-06
-7.23836e-06
-6.93983e-06
-4.89352e-06
-7.54587e-06
-1.58635e-06
-1.01802e-05
5.25621e-06
-2.02338e-05
1.21512e-05
-1.99115e-05
1.79174e-05
-1.66743e-05
2.21658e-05
-1.23498e-05
2.54045e-05
-9.67817e-06
2.80805e-05
-8.36791e-06
3.06574e-05
-7.88378e-06
3.31667e-05
-7.63865e-06
3.55762e-05
-7.28486e-06
3.79841e-05
-7.35407e-06
4.05274e-05
-7.83821e-06
4.31766e-05
-8.15303e-06
4.58019e-05
-8.0445e-06
4.8259e-05
-7.53557e-06
5.07232e-05
-7.71756e-06
5.4335e-05
-1.11219e-05
5.90611e-05
-1.37931e-05
6.25894e-05
-9.90396e-06
6.41549e-05
-4.37781e-06
6.48921e-05
-2.12815e-06
6.53957e-05
-1.4807e-06
6.5814e-05
-1.23944e-06
6.61937e-05
-1.12789e-06
6.65355e-05
-1.00725e-06
6.68139e-05
-8.32474e-07
6.7019e-05
-6.09304e-07
6.71761e-05
-4.63352e-07
6.73193e-05
-4.31028e-07
6.74362e-05
-3.40704e-07
-1.13925e-07
-7.07867e-06
2.97147e-05
-9.23239e-06
7.40535e-06
-7.33528e-06
-8.82461e-06
-5.02259e-06
-9.86642e-06
-1.63318e-06
-1.35444e-05
5.33328e-06
-2.72079e-05
1.23497e-05
-2.69249e-05
1.81621e-05
-2.24849e-05
2.24404e-05
-1.66252e-05
2.5653e-05
-1.28993e-05
2.82466e-05
-1.10044e-05
3.0749e-05
-1.0363e-05
3.32214e-05
-1.01175e-05
3.56081e-05
-9.67169e-06
3.79686e-05
-9.71347e-06
4.0432e-05
-1.03003e-05
4.2999e-05
-1.07192e-05
4.55635e-05
-1.06093e-05
4.79742e-05
-9.94361e-06
5.03805e-05
-1.01307e-05
5.39542e-05
-1.47052e-05
5.87641e-05
-1.85969e-05
6.24429e-05
-1.35825e-05
6.40906e-05
-6.02607e-06
6.4853e-05
-2.891e-06
6.53662e-05
-1.99406e-06
6.57898e-05
-1.66299e-06
6.6173e-05
-1.51117e-06
6.65184e-05
-1.34929e-06
6.67995e-05
-1.11607e-06
6.70071e-05
-8.17406e-07
6.71662e-05
-6.2137e-07
6.73106e-05
-5.77745e-07
6.74291e-05
-4.5688e-07
-1.5412e-07
-6.85445e-06
3.65749e-05
-9.08926e-06
9.64894e-06
-7.32267e-06
-1.05785e-05
-4.92725e-06
-1.22691e-05
-1.34527e-06
-1.71027e-05
5.73446e-06
-3.4297e-05
1.27756e-05
-3.39641e-05
1.85442e-05
-2.8253e-05
2.27928e-05
-2.08706e-05
2.59583e-05
-1.60706e-05
2.84746e-05
-1.35585e-05
3.09035e-05
-1.27709e-05
3.33328e-05
-1.25526e-05
3.56939e-05
-1.20326e-05
3.80081e-05
-1.20268e-05
4.03864e-05
-1.26774e-05
4.28581e-05
-1.31902e-05
4.53521e-05
-1.31038e-05
4.77219e-05
-1.23105e-05
5.0102e-05
-1.25171e-05
5.36706e-05
-1.8282e-05
5.85388e-05
-2.34595e-05
6.23168e-05
-1.73602e-05
6.40286e-05
-7.73835e-06
6.48138e-05
-3.67664e-06
6.53366e-05
-2.51684e-06
6.57652e-05
-2.09167e-06
6.61521e-05
-1.89807e-06
6.65009e-05
-1.69499e-06
6.67848e-05
-1.40229e-06
6.69948e-05
-1.02797e-06
6.71559e-05
-7.81494e-07
6.73017e-05
-7.25635e-07
6.74217e-05
-5.748e-07
-1.95253e-07
-6.61219e-06
4.3197e-05
-8.89425e-06
1.19406e-05
-7.20436e-06
-1.22543e-05
-4.5938e-06
-1.48873e-05
-7.13756e-07
-2.09546e-05
6.42871e-06
-4.1446e-05
1.33864e-05
-4.09187e-05
1.90321e-05
-3.38969e-05
2.32028e-05
-2.5039e-05
2.63082e-05
-1.91838e-05
2.87578e-05
-1.60446e-05
3.11163e-05
-1.51123e-05
3.34943e-05
-1.49368e-05
3.58258e-05
-1.43643e-05
3.81e-05
-1.43e-05
4.03972e-05
-1.49734e-05
4.2766e-05
-1.5558e-05
4.51785e-05
-1.55167e-05
4.75076e-05
-1.46368e-05
4.98838e-05
-1.49002e-05
5.34708e-05
-2.18775e-05
5.83758e-05
-2.83591e-05
6.22104e-05
-2.11947e-05
6.39694e-05
-9.49785e-06
6.4775e-05
-4.4827e-06
6.5307e-05
-3.04888e-06
6.57407e-05
-2.52539e-06
6.61311e-05
-2.28854e-06
6.64833e-05
-2.04395e-06
6.67698e-05
-1.69128e-06
6.69823e-05
-1.24101e-06
6.71454e-05
-9.43519e-07
6.72925e-05
-8.74921e-07
6.74141e-05
-6.94034e-07
-2.37222e-07
-6.35269e-06
4.95545e-05
-8.65011e-06
1.4248e-05
-6.9792e-06
-1.39106e-05
-4.00276e-06
-1.78708e-05
2.60691e-07
-2.51946e-05
7.36314e-06
-4.85576e-05
1.41259e-05
-4.76801e-05
1.959e-05
-3.9361e-05
2.365e-05
-2.90962e-05
2.66892e-05
-2.22279e-05
2.90848e-05
-1.84686e-05
3.13765e-05
-1.73903e-05
3.36942e-05
-1.72596e-05
3.59919e-05
-1.66619e-05
3.8234e-05
-1.65414e-05
4.04624e-05
-1.72007e-05
4.27315e-05
-1.78266e-05
4.5055e-05
-1.78407e-05
4.73391e-05
-1.6918e-05
4.97227e-05
-1.72899e-05
5.33417e-05
-2.55033e-05
5.82653e-05
-3.32777e-05
6.21223e-05
-2.50512e-05
6.39133e-05
-1.12894e-05
6.47369e-05
-5.30668e-06
6.52777e-05
-3.58975e-06
6.57163e-05
-2.96402e-06
6.61103e-05
-2.6825e-06
6.64657e-05
-2.39648e-06
6.67547e-05
-1.98268e-06
6.69697e-05
-1.45649e-06
6.71348e-05
-1.10769e-06
6.72832e-05
-1.02533e-06
6.74063e-05
-8.14967e-07
-2.79938e-07
-6.07687e-06
5.56424e-05
-8.35664e-06
1.65393e-05
-6.64241e-06
-1.56077e-05
-3.16849e-06
-2.13515e-05
1.50917e-06
-2.98442e-05
8.44406e-06
-5.54968e-05
1.49286e-05
-5.41619e-05
2.01816e-05
-4.46123e-05
2.41162e-05
-3.30292e-05
2.70898e-05
-2.5209e-05
2.94427e-05
-2.08504e-05
3.16712e-05
-1.9608e-05
3.39208e-05
-1.95149e-05
3.61806e-05
-1.8922e-05
3.83978e-05
-1.87577e-05
4.05724e-05
-1.9374e-05
4.27536e-05
-2.00068e-05
4.49883e-05
-2.00759e-05
4.7222e-05
-1.91491e-05
4.96154e-05
-1.96902e-05
5.32712e-05
-2.91665e-05
5.81981e-05
-3.81997e-05