/*--------------------------------*- C++ -*----------------------------------*\
| =========                 |                                                 |
| \\      /  F ield         | OpenFOAM: The Open Source CFD Toolbox           |
|  \\    /   O peration     | Version:  v1912                                 |
|   \\  /    A nd           | Website:  www.openfoam.com                      |
|    \\/     M anipulation  |                                                 |
\*---------------------------------------------------------------------------*/
FoamFile
{
    version     2.0;
    format      ascii;
    class       volVectorField;
    location    "40";
    object      U;
}
// * * * * * * * * * * * * * * * * * * * * * * * * * * * * * * * * * * * * * //

dimensions      [0 1 -1 0 0 0 0];


internalField   nonuniform List<vector> 
12441
(
(29.8319 -0.000867514 0)
(30.6375 -0.00197504 0)
(30.3167 0.00178342 0)
(30.1488 0.000821077 0)
(30.1648 -0.000126183 0)
(30.0686 0.000296066 0)
(29.9373 0.000714585 0)
(29.7892 0.000343217 0)
(29.6201 0.00065152 0)
(29.4765 0.000878188 0)
(29.1434 0.00211643 0)
(28.9007 0.00280443 0)
(28.467 0.00152876 0)
(28.4844 0.00192255 0)
(28.1399 0.00463603 0)
(27.4321 0.0112302 0)
(26.3861 0.0119266 0)
(24.9841 0.0258202 0)
(23.0075 0.0441692 0)
(19.8927 0.0835439 0)
(14.316 0.130217 0)
(7.36717 0.238618 0)
(29.7904 -0.00275504 0)
(30.8478 -0.00632536 0)
(30.4594 0.00358975 0)
(30.1968 0.0034573 0)
(30.1095 0.000652201 0)
(30 0.00182144 0)
(29.896 0.000285192 0)
(29.7593 0.00161345 0)
(29.6328 0.00192249 0)
(29.5394 0.00349551 0)
(29.162 0.00754272 0)
(28.8587 0.00832624 0)
(28.398 0.00216648 0)
(28.4611 0.00341112 0)
(28.1557 0.013924 0)
(27.4609 0.0351081 0)
(26.3401 0.044732 0)
(24.9202 0.0751281 0)
(22.9843 0.11615 0)
(19.8368 0.241272 0)
(14.2369 0.378881 0)
(7.31601 0.706534 0)
(29.8004 -0.0046971 0)
(30.7874 -0.0116929 0)
(30.4222 0.00668723 0)
(30.1835 0.00627171 0)
(30.1142 0.00192172 0)
(29.988 0.0028126 0)
(29.8926 0.00118983 0)
(29.7477 0.00254426 0)
(29.6161 0.00262798 0)
(29.5117 0.00521475 0)
(29.1327 0.012538 0)
(28.8411 0.0140412 0)
(28.3522 0.00408421 0)
(28.4455 0.00590388 0)
(28.134 0.023081 0)
(27.4518 0.0577788 0)
(26.3306 0.0763289 0)
(24.9124 0.121045 0)
(22.9677 0.185412 0)
(19.7858 0.399517 0)
(14.1538 0.626802 0)
(7.25936 1.17096 0)
(29.8068 -0.00664668 0)
(30.7751 -0.0165634 0)
(30.3783 0.00989148 0)
(30.1292 0.00897188 0)
(30.0468 0.00289576 0)
(29.9432 0.00370232 0)
(29.8392 0.00169061 0)
(29.7025 0.00325106 0)
(29.5762 0.00328299 0)
(29.4812 0.00716458 0)
(29.1048 0.0178096 0)
(28.8096 0.0201345 0)
(28.3472 0.0056576 0)
(28.4054 0.00801521 0)
(28.0959 0.0322082 0)
(27.4007 0.0804005 0)
(26.287 0.107442 0)
(24.8836 0.16934 0)
(22.9468 0.278147 0)
(19.7462 0.565968 0)
(14.0884 0.877977 0)
(7.21211 1.63401 0)
(29.8184 -0.00851227 0)
(30.7116 -0.0210575 0)
(30.3327 0.0129619 0)
(30.1051 0.0116509 0)
(30.044 0.00387918 0)
(29.9171 0.00464013 0)
(29.8279 0.00214957 0)
(29.6811 0.00413552 0)
(29.5478 0.0040756 0)
(29.4379 0.00929717 0)
(29.0579 0.0232035 0)
(28.7747 0.0261665 0)
(28.2746 0.00760907 0)
(28.3702 0.0102682 0)
(28.0536 0.0412734 0)
(27.3639 0.102702 0)
(26.2593 0.138681 0)
(24.8508 0.219005 0)
(22.9246 0.354169 0)
(19.7141 0.729836 0)
(14.0392 1.12863 0)
(7.17448 2.09531 0)
(29.8222 -0.0102835 0)
(30.7165 -0.0254024 0)
(30.3006 0.0161204 0)
(30.0554 0.0142086 0)
(29.9735 0.00479484 0)
(29.8743 0.00553392 0)
(29.7704 0.00256326 0)
(29.6334 0.00503491 0)
(29.5074 0.00485942 0)
(29.4101 0.0114382 0)
(29.0323 0.0285313 0)
(28.7409 0.0322604 0)
(28.2812 0.00875295 0)
(28.332 0.0121544 0)
(28.0203 0.0504764 0)
(27.3141 0.124789 0)
(26.2165 0.169114 0)
(24.811 0.26783 0)
(22.8984 0.42921 0)
(19.6862 0.893033 0)
(14.0036 1.37884 0)
(7.1459 2.55527 0)
(29.8331 -0.0120024 0)
(30.6514 -0.0294274 0)
(30.2598 0.0192294 0)
(30.0424 0.016835 0)
(29.9867 0.00580862 0)
(29.8555 0.00648308 0)
(29.7694 0.00309239 0)
(29.6187 0.00599462 0)
(29.4837 0.00569076 0)
(29.3681 0.0136178 0)
(28.9871 0.0338667 0)
(28.7076 0.0380817 0)
(28.1991 0.0108968 0)
(28.3026 0.014516 0)
(27.9834 0.0596954 0)
(27.2824 0.147229 0)
(26.1974 0.199053 0)
(24.7835 0.314707 0)
(22.8698 0.506392 0)
(19.6576 1.0567 0)
(13.9797 1.62907 0)
(7.12606 3.01436 0)
(29.8349 -0.0136383 0)
(30.6691 -0.0333738 0)
(30.2389 0.0224378 0)
(29.9969 0.0192709 0)
(29.9149 0.00669265 0)
(29.8193 0.00736527 0)
(29.715 0.0034797 0)
(29.5772 0.00686565 0)
(29.4514 0.00646734 0)
(29.3512 0.0157635 0)
(28.9713 0.0391311 0)
(28.6812 0.0442534 0)
(28.2283 0.0116563 0)
(28.2723 0.0162293 0)
(27.9573 0.0693003 0)
(27.2285 0.169462 0)
(26.1635 0.229458 0)
(24.7515 0.364338 0)
(22.8273 0.585219 0)
(19.6238 1.22031 0)
(13.9661 1.87906 0)
(7.11474 3.47288 0)
(29.8449 -0.0152415 0)
(30.6029 -0.0370233 0)
(30.2049 0.0255508 0)
(29.9938 0.0218677 0)
(29.9432 0.00772589 0)
(29.8096 0.00830034 0)
(29.7276 0.00400453 0)
(29.5741 0.0078492 0)
(29.4371 0.00735476 0)
(29.3159 0.0180162 0)
(28.9337 0.0445066 0)
(28.6585 0.049929 0)
(28.1382 0.0144242 0)
(28.2411 0.018785 0)
(27.9252 0.0795222 0)
(27.1833 0.190717 0)
(26.131 0.258451 0)
(24.7159 0.415191 0)
(22.7621 0.6642 0)
(19.5811 1.38285 0)
(13.9622 2.12847 0)
(7.11196 3.93123 0)
(29.8463 -0.0167615 0)
(30.627 -0.0406561 0)
(30.1902 0.0287626 0)
(29.9508 0.0242046 0)
(29.8686 0.00858133 0)
(29.7771 0.00915648 0)
(29.6726 0.00435148 0)
(29.5342 0.00871233 0)
(29.4088 0.00815909 0)
(29.3054 0.0202075 0)
(28.9244 0.0497373 0)
(28.6343 0.0562406 0)
(28.1969 0.0143575 0)
(28.2333 0.0207101 0)
(27.891 0.0902276 0)
(27.1154 0.211175 0)
(26.0583 0.288128 0)
(24.6364 0.46539 0)
(22.6687 0.742917 0)
(19.5325 1.54362 0)
(13.9689 2.37705 0)
(7.11771 4.38986 0)
(29.8559 -0.0182618 0)
(30.5573 -0.0439685 0)
(30.1595 0.0318481 0)
(29.9569 0.0267653 0)
(29.9104 0.00961798 0)
(29.7729 0.0100802 0)
(29.6932 0.00490863 0)
(29.5357 0.00974754 0)
(29.3971 0.00909966 0)
(29.271 0.0225237 0)
(28.8894 0.055162 0)
(28.6128 0.0616116 0)
(28.1045 0.0176383 0)
(28.1791 0.0245667 0)
(27.8267 0.100183 0)
(27.0296 0.232316 0)
(25.9367 0.319291 0)
(24.5026 0.515591 0)
(22.5623 0.821272 0)
(19.4852 1.702 0)
(13.9873 2.62459 0)
(7.13209 4.84924 0)
(29.8566 -0.0196755 0)
(30.5879 -0.0473251 0)
(30.151 0.0350247 0)
(29.915 0.0290024 0)
(29.8326 0.0104569 0)
(29.7449 0.010938 0)
(29.6398 0.00524736 0)
(29.5002 0.0106253 0)
(29.3751 0.00993623 0)
(29.2677 0.0247515 0)
(28.8871 0.0603554 0)
(28.5878 0.0677994 0)
(28.1991 0.0169725 0)
(28.174 0.0283943 0)
(27.7654 0.111402 0)
(26.8995 0.255535 0)
(25.7714 0.351051 0)
(24.3426 0.564514 0)
(22.4637 0.898352 0)
(19.4462 1.85766 0)
(14.0183 2.87105 0)
(7.1551 5.3098 0)
(29.8656 -0.02108 0)
(30.5161 -0.0503605 0)
(30.1261 0.0380277 0)
(29.9296 0.0315431 0)
(29.8872 0.0114947 0)
(29.7479 0.0118325 0)
(29.6709 0.00582036 0)
(29.5103 0.0116961 0)
(29.3699 0.0109139 0)
(29.2391 0.0271071 0)
(28.8609 0.0658417 0)
(28.5637 0.0725887 0)
(28.1551 0.0208173 0)
(28.1505 0.0326494 0)
(27.6815 0.124604 0)
(26.7367 0.280033 0)
(25.5985 0.382861 0)
(24.1993 0.611544 0)
(22.385 0.973843 0)
(19.4174 2.01057 0)
(14.0616 3.11637 0)
(7.18674 5.77199 0)
(29.8665 -0.0223927 0)
(30.55 -0.0534842 0)
(30.1197 0.0411171 0)
(29.8875 0.0336906 0)
(29.8051 0.0123228 0)
(29.7217 0.0126806 0)
(29.6164 0.00614056 0)
(29.4758 0.0125665 0)
(29.3511 0.0117903 0)
(29.2395 0.0293637 0)
(28.8638 0.0711597 0)
(28.5434 0.0778599 0)
(28.2789 0.0228922 0)
(28.1461 0.0365611 0)
(27.5748 0.140196 0)
(26.5606 0.304389 0)
(25.4449 0.413761 0)
(24.0887 0.656655 0)
(22.3251 1.04791 0)
(19.3971 2.161 0)
(14.1163 3.36057 0)
(7.2269 6.23623 0)
(29.8753 -0.0237052 0)
(30.4748 -0.0562473 0)
(30.0962 0.0440096 0)
(29.9094 0.0361981 0)
(29.8706 0.0133523 0)
(29.7282 0.0135479 0)
(29.6525 0.00674435 0)
(29.4884 0.0136777 0)
(29.3459 0.0128083 0)
(29.2124 0.0317341 0)
(28.8393 0.076857 0)
(28.5159 0.0815536 0)
(28.3113 0.0269109 0)
(28.1195 0.0429889 0)
(27.455 0.15739 0)
(26.3991 0.328469 0)
(25.3207 0.443685 0)
(24.0076 0.700334 0)
(22.2786 1.12092 0)
(19.382 2.30912 0)
(14.1804 3.60357 0)
(7.27545 6.70293 0)
(29.8757 -0.0249209 0)
(30.5141 -0.0591527 0)
(30.0936 0.0469877 0)
(29.866 0.0382483 0)
(29.7839 0.0141801 0)
(29.7044 0.0144158 0)
(29.5987 0.00706631 0)
(29.4569 0.0145689 0)
(29.3314 0.01373 0)
(29.2168 0.0340027 0)
(28.8376 0.0822279 0)
(28.5228 0.0856753 0)
(28.3687 0.0285275 0)
(28.0704 0.0516201 0)
(27.3338 0.175393 0)
(26.2588 0.351986 0)
(25.2223 0.47266 0)
(23.946 0.742903 0)
(22.2397 1.19317 0)
(19.369 2.4551 0)
(14.2524 3.84531 0)
(7.33211 7.17248 0)
(29.8839 -0.0261455 0)
(30.437 -0.0616872 0)
(30.0747 0.0497318 0)
(29.8947 0.0407314 0)
(29.8599 0.0151946 0)
(29.7163 0.0152374 0)
(29.642 0.00768522 0)
(29.4751 0.0157211 0)
(29.3293 0.0147644 0)
(29.1963 0.0364712 0)
(28.8082 0.0876785 0)
(28.5356 0.0895982 0)
(28.381 0.0308167 0)
(28.0128 0.0618861 0)
(27.2194 0.193713 0)
(26.1416 0.375092 0)
(25.1436 0.500825 0)
(23.8955 0.784704 0)
(22.204 1.26488 0)
(19.3557 2.59894 0)
(14.3303 4.0856 0)
(7.39663 7.64522 0)
(29.8846 -0.0272682 0)
(30.4792 -0.0644048 0)
(30.0731 0.0525649 0)
(29.8498 0.0427039 0)
(29.7683 0.016029 0)
(29.6931 0.0161092 0)
(29.5875 0.00800265 0)
(29.4446 0.0166275 0)
(29.3175 0.0157093 0)
(29.2038 0.0388774 0)
(28.8029 0.0929156 0)
(28.5639 0.0927027 0)
(28.3872 0.0345286 0)
(27.9478 0.0730031 0)
(27.1149 0.212358 0)
(26.0432 0.397702 0)
(25.0781 0.528291 0)
(23.8498 0.82596 0)
(22.1683 1.33618 0)
(19.3405 2.74065 0)
(14.4129 4.32429 0)
(7.46867 8.12142 0)
(29.8924 -0.0284086 0)
(30.3996 -0.0667117 0)
(30.0548 0.0551529 0)
(29.8847 0.0451498 0)
(29.8533 0.0170191 0)
(29.707 0.0168923 0)
(29.6334 0.00864934 0)
(29.4635 0.0178187 0)
(29.315 0.0167516 0)
(29.1833 0.0414362 0)
(28.7781 0.0980944 0)
(28.5816 0.0949288 0)
(28.3745 0.0394231 0)
(27.8831 0.0848227 0)
(27.0206 0.231159 0)
(25.9604 0.419916 0)
(25.0211 0.555235 0)
(23.805 0.866903 0)
(22.1306 1.40712 0)
(19.3225 2.88012 0)
(14.4991 4.56113 0)
(7.54795 8.60136 0)
(29.8927 -0.0294431 0)
(30.4465 -0.0692506 0)
(30.0556 0.057831 0)
(29.8371 0.0470395 0)
(29.7565 0.0178657 0)
(29.6851 0.0177926 0)
(29.5798 0.00897847 0)
(29.4351 0.0187516 0)
(29.3074 0.0177491 0)
(29.1895 0.043962 0)
(28.7837 0.10244 0)
(28.5946 0.0970815 0)
(28.357 0.0453215 0)
(27.818 0.0971389 0)
(26.9358 0.250102 0)
(25.8888 0.441712 0)
(24.9687 0.581819 0)
(23.7578 0.90767 0)
(22.0896 1.47772 0)
(19.301 3.01726 0)
(14.5884 4.79595 0)
(7.63417 9.08528 0)
(29.9 -0.0305036 0)
(30.3654 -0.0713671 0)
(30.0406 0.0602474 0)
(29.877 0.0494559 0)
(29.8494 0.0188295 0)
(29.7022 0.0185255 0)
(29.6296 0.00964067 0)
(29.4563 0.0199733 0)
(29.3077 0.0187997 0)
(29.1679 0.0467466 0)
(28.7824 0.106635 0)
(28.5992 0.0995754 0)
(28.3314 0.0517543 0)
(27.7556 0.10994 0)
(26.8589 0.269052 0)
(25.8259 0.463196 0)
(24.918 0.608219 0)
(23.7065 0.948378 0)
(22.0445 1.54794 0)
(19.2758 3.15194 0)
(14.6804 5.02849 0)
(7.72709 9.57339 0)
(29.9007 -0.0314538 0)
(30.4146 -0.0737493 0)
(30.0418 0.0627553 0)
(29.8273 0.0512868 0)
(29.7477 0.0196855 0)
(29.6803 0.0194355 0)
(29.5759 0.00997378 0)
(29.4291 0.0209164 0)
(29.3025 0.019886 0)
(29.1723 0.0493972 0)
(28.7892 0.111146 0)
(28.5986 0.102455 0)
(28.3041 0.0587198 0)
(27.695 0.123111 0)
(26.7888 0.288001 0)
(25.7687 0.484417 0)
(24.8669 0.634592 0)
(23.6498 0.989058 0)
(21.9952 1.61774 0)
(19.2471 3.28404 0)
(14.7752 5.25858 0)
(7.82652 10.0659 0)
(29.9075 -0.0324377 0)
(30.3316 -0.0756695 0)
(30.0263 0.0650037 0)
(29.8725 0.0536612 0)
(29.8481 0.0206232 0)
(29.6987 0.0201219 0)
(29.6264 0.0106615 0)
(29.4502 0.0221586 0)
(29.3016 0.0209875 0)
(29.1523 0.0522473 0)
(28.7833 0.115534 0)
(28.5938 0.105678 0)
(28.2731 0.0660498 0)
(27.6375 0.136625 0)
(26.724 0.30689 0)
(25.7156 0.50549 0)
(24.8138 0.661073 0)
(23.5875 1.02973 0)
(21.9419 1.68707 0)
(19.2153 3.41343 0)
(14.873 5.48599 0)
(7.93233 10.563 0)
(29.9079 -0.0333082 0)
(30.385 -0.0778994 0)
(30.0296 0.0673417 0)
(29.8196 0.0554222 0)
(29.7413 0.0214887 0)
(29.6775 0.0210669 0)
(29.5739 0.0110086 0)
(29.4249 0.0231287 0)
(29.2977 0.022173 0)
(29.1598 0.0551157 0)
(28.7766 0.119331 0)
(28.5865 0.10922 0)
(28.2418 0.0737952 0)
(27.5821 0.150399 0)
(26.6634 0.32574 0)
(25.6648 0.526485 0)
(24.7577 0.687761 0)
(23.5201 1.07035 0)
(21.8856 1.75589 0)
(19.1809 3.54 0)
(14.9745 5.71056 0)
(8.04443 11.0649 0)
(29.9141 -0.03422 0)
(30.3009 -0.0796545 0)
(30.0164 0.069415 0)
(29.8688 0.0577585 0)
(29.8483 0.0223997 0)
(29.6983 0.0216959 0)
(29.6259 0.0117173 0)
(29.4466 0.0243928 0)
(29.2977 0.0233084 0)
(29.1437 0.0585807 0)
(28.7656 0.122732 0)
(28.5776 0.113011 0)
(28.2087 0.0818656 0)
(27.5294 0.164408 0)
(26.6058 0.34454 0)
(25.6155 0.547495 0)
(24.6987 0.714718 0)
(23.449 1.11093 0)
(21.8274 1.82418 0)
(19.1448 3.66361 0)
(15.0803 5.93209 0)
(8.16282 11.5719 0)
(29.9149 -0.0350148 0)
(30.3567 -0.0817546 0)
(30.0205 0.0715777 0)
(29.8137 0.0594819 0)
(29.7366 0.0232727 0)
(29.6766 0.0226592 0)
(29.5742 0.0120747 0)
(29.4224 0.0254033 0)
(29.2951 0.0244397 0)
(29.1462 0.0621486 0)
(28.7553 0.126042 0)
(28.5679 0.117003 0)
(28.176 0.090286 0)
(27.4784 0.178612 0)
(26.5505 0.363318 0)
(25.5668 0.568568 0)
(24.6371 0.74197 0)
(23.3756 1.15142 0)
(21.7687 1.89189 0)
(19.1077 3.78418 0)
(15.1914 6.15048 0)
(8.28753 12.0843 0)
(29.9207 -0.0358589 0)
(30.271 -0.0833426 0)
(30.0066 0.0734825 0)
(29.868 0.06177 0)
(29.8502 0.0241596 0)
(29.6981 0.0232378 0)
(29.6258 0.012805 0)
(29.442 0.0266866 0)
(29.3007 0.0256383 0)
(29.1077 0.0645596 0)
(28.744 0.129356 0)
(28.5575 0.121165 0)
(28.1424 0.0990007 0)
(27.4296 0.192999 0)
(26.497 0.382075 0)
(25.5189 0.58976 0)
(24.574 0.76953 0)
(23.302 1.19183 0)
(21.7107 1.95905 0)
(19.0707 3.90159 0)
(15.3087 6.36556 0)
(8.41865 12.6021 0)
(29.9213 -0.0365833 0)
(30.3306 -0.0853184 0)
(30.0125 0.0754722 0)
(29.8096 0.0634462 0)
(29.7338 0.0250504 0)
(29.6766 0.0242444 0)
(29.5767 0.0132018 0)
(29.4169 0.0276435 0)
(29.3089 0.0273629 0)
(29.0721 0.0665244 0)
(28.7341 0.132583 0)
(28.5468 0.125496 0)
(28.1093 0.10802 0)
(27.3819 0.207551 0)
(26.4448 0.400833 0)
(25.4714 0.611075 0)
(24.5108 0.797394 0)
(23.2296 1.23212 0)
(21.6547 2.02563 0)
(19.0345 4.01574 0)
(15.4331 6.57726 0)
(8.55636 13.1259 0)
(29.9264 -0.0373639 0)
(30.2441 -0.0867676 0)
(29.9999 0.0772079 0)
(29.867 0.0656833 0)
(29.8524 0.025911 0)
(29.6995 0.0247613 0)
(29.6277 0.013977 0)
(29.435 0.0288696 0)
(29.3174 0.0289068 0)
(29.0323 0.0701021 0)
(28.7253 0.135638 0)
(28.5358 0.129993 0)
(28.0757 0.117308 0)
(27.3359 0.222258 0)
(26.3938 0.419583 0)
(25.425 0.632534 0)
(24.4485 0.825555 0)
(23.1599 1.27226 0)
(21.6016 2.09168 0)
(19.0001 4.12651 0)
(15.5656 6.78544 0)
(8.70082 13.6558 0)
(29.9276 -0.0380219 0)
(30.3055 -0.0886291 0)
(30.0065 0.0790217 0)
(29.8065 0.0673385 0)
(29.7317 0.0268166 0)
(29.6771 0.0257948 0)
(29.5797 0.0144106 0)
(29.4122 0.0298078 0)
(29.3215 0.0307558 0)
(29.0092 0.0744159 0)
(28.7182 0.138568 0)
(28.5244 0.134674 0)
(28.0426 0.126868 0)
(27.2906 0.23711 0)
(26.344 0.438338 0)
(25.3799 0.654114 0)
(24.3882 0.853983 0)
(23.0938 1.31224 0)
(21.5523 2.15718 0)
(18.9683 4.23382 0)
(15.7068 6.99008 0)
(8.85226 14.1923 0)
(29.9323 -0.0387426 0)
(30.2176 -0.0899281 0)
(29.9921 0.0806058 0)
(29.8686 0.0695107 0)
(29.8561 0.0276526 0)
(29.701 0.0262559 0)
(29.6288 0.0152201 0)
(29.431 0.0309918 0)
(29.3262 0.0325847 0)
(28.9899 0.0783857 0)
(28.7125 0.14145 0)
(28.5128 0.13955 0)
(28.009 0.136676 0)
(27.2466 0.252098 0)
(26.2954 0.457077 0)
(25.3365 0.675822 0)
(24.3306 0.882655 0)
(23.0322 1.35203 0)
(21.5073 2.22218 0)
(18.9395 4.33754 0)
(15.8572 7.19104 0)
(9.01087 14.7357 0)
(29.9333 -0.0393385 0)
(30.2825 -0.0916739 0)
(30.0005 0.0822564 0)
(29.8045 0.071133 0)
(29.7311 0.0285748 0)
(29.6786 0.0273381 0)
(29.5829 0.0156883 0)
(29.4102 0.0319159 0)
(29.3253 0.0347429 0)
(28.9764 0.0820364 0)
(28.7082 0.144329 0)
(28.5009 0.14463 0)
(27.9757 0.146731 0)
(27.203 0.267209 0)
(26.2481 0.475804 0)
(25.295 0.697619 0)
(24.2759 0.911526 0)
(22.9754 1.39161 0)
(21.467 2.28669 0)
(18.9146 4.43761 0)
(16.0169 7.3883 0)
(9.17691 15.2863 0)
(29.9374 -0.0400045 0)
(30.194 -0.0928369 0)
(29.987 0.0836951 0)
(29.8694 0.0732391 0)
(29.8597 0.0293851 0)
(29.7037 0.0277339 0)
(29.6294 0.0165173 0)
(29.4287 0.0331017 0)
(29.3292 0.0367225 0)
(28.9645 0.0855931 0)
(28.7051 0.147223 0)
(28.4888 0.149922 0)
(27.9417 0.157019 0)
(27.1603 0.28243 0)
(26.2021 0.494493 0)
(25.2556 0.719506 0)
(24.2246 0.940567 0)
(22.9236 1.43096 0)
(21.4316 2.35073 0)
(18.8938 4.53392 0)
(16.1858 7.58176 0)
(9.35054 15.8445 0)
(29.9387 -0.0405449 0)
(30.2611 -0.0944794 0)
(29.9964 0.0852029 0)
(29.8028 0.074873 0)
(29.7303 0.0303273 0)
(29.6796 0.028858 0)
(29.5852 0.0170133 0)
(29.4083 0.034047 0)
(29.3249 0.0389696 0)
(28.9554 0.0891356 0)
(28.7033 0.150144 0)
(28.4764 0.155438 0)
(27.9076 0.167539 0)
(27.1177 0.297745 0)
(26.1574 0.51314 0)
(25.2181 0.741441 0)
(24.1764 0.969732 0)
(22.8768 1.47006 0)
(21.4012 2.41429 0)
(18.8776 4.6264 0)
(16.364 7.77141 0)
(9.53197 16.4107 0)
(29.9423 -0.0411606 0)
(30.1716 -0.0955441 0)
(29.9818 0.0865157 0)
(29.8719 0.0769223 0)
(29.8643 0.03113 0)
(29.7064 0.0292046 0)
(29.6308 0.0178571 0)
(29.4266 0.0352448 0)
(29.3293 0.0411099 0)
(28.9476 0.0926908 0)
(28.7026 0.1531 0)
(28.4636 0.161188 0)
(27.8724 0.178286 0)
(27.0756 0.313144 0)
(26.114 0.531723 0)
(25.1827 0.763427 0)
(24.1314 0.998989 0)
(22.835 1.50888 0)
(21.3761 2.4774 0)
(18.8663 4.71497 0)
(16.5512 7.95713 0)
(9.72135 16.9853 0)
(29.9441 -0.0416445 0)
(30.242 -0.0971725 0)
(29.9924 0.0878421 0)
(29.8026 0.0785747 0)
(29.7309 0.0321377 0)
(29.6807 0.030413 0)
(29.5874 0.0183826 0)
(29.4065 0.036203 0)
(29.3226 0.0439944 0)
(28.9418 0.0962321 0)
(28.7032 0.156101 0)
(28.4504 0.167186 0)
(27.8366 0.189256 0)
(27.0332 0.328601 0)
(26.0717 0.550229 0)
(25.1492 0.785422 0)
(24.0894 1.02829 0)
(22.7979 1.5474 0)
(21.3562 2.54003 0)
(18.8602 4.79959 0)
(16.7475 8.13891 0)
(9.91885 17.5688 0)
(29.9473 -0.0422066 0)
(30.1519 -0.0981883 0)
(29.9763 0.0889495 0)
(29.8733 0.0805135 0)
(29.8675 0.0329402 0)
(29.7074 0.0307571 0)
(29.6268 0.0192935 0)
(29.4272 0.0372876 0)
(29.314 0.0467547 0)
(28.9372 0.0997214 0)
(28.705 0.15916 0)
(28.4365 0.173447 0)
(27.799 0.200434 0)
(26.991 0.344105 0)
(26.0304 0.568635 0)
(25.1174 0.807423 0)
(24.05 1.05762 0)
(22.7656 1.58558 0)
(21.3415 2.60219 0)
(18.8594 4.88016 0)
(16.9532 8.31665 0)
(10.1246 18.1613 0)
(29.9496 -0.0426449 0)
(30.2235 -0.0996062 0)
(29.9878 0.0900352 0)
(29.8008 0.082083 0)
(29.7291 0.0339678 0)
(29.6804 0.0320845 0)
(29.5835 0.019868 0)
(29.4137 0.0384528 0)
(29.2765 0.0477263 0)
(28.9348 0.103106 0)
(28.7079 0.162295 0)
(28.4218 0.17999 0)
(27.7604 0.211829 0)
(26.9482 0.359624 0)
(25.9899 0.586925 0)
(25.0872 0.829395 0)
(24.0132 1.08692 0)
(22.7377 1.62339 0)
(21.3321 2.66387 0)
(18.8638 4.95664 0)
(17.1684 8.49031 0)
(10.3388 18.7634 0)
(29.9524 -0.0431897 0)
(30.1314 -0.100169 0)
(29.9689 0.0911466 0)
(29.8765 0.0838288 0)
(29.8716 0.0346489 0)
(29.7096 0.0324034 0)
(29.6202 0.0207697 0)
(29.4401 0.0399421 0)
(29.2395 0.0488293 0)
(28.9345 0.106249 0)
(28.7116 0.165523 0)
(28.4059 0.186833 0)
(27.7195 0.223422 0)
(26.9051 0.375152 0)
(25.9499 0.605081 0)
(25.0587 0.851327 0)
(23.9786 1.11615 0)
(22.7143 1.66078 0)
(21.328 2.72505 0)
(18.8733 5.02892 0)
(17.3935 8.6598 0)
(10.5616 19.3755 0)
(29.9551 -0.0435969 0)
(30.2062 -0.101424 0)
(29.9827 0.0924334 0)
(29.8004 0.0854158 0)
(29.7306 0.0355261 0)
(29.6832 0.0336957 0)
(29.5814 0.0213308 0)
(29.4315 0.0414263 0)
(29.2185 0.0516747 0)
(28.9374 0.109089 0)
(28.7159 0.168866 0)
(28.3888 0.193996 0)
(27.677 0.23523 0)
(26.8612 0.390654 0)
(25.9104 0.623079 0)
(25.0314 0.873189 0)
(23.946 1.14529 0)
(22.6951 1.69772 0)
(21.3291 2.78572 0)
(18.8875 5.09693 0)
(17.6278 8.82509 0)
(10.7933 19.998 0)
(29.9565 -0.0440484 0)
(30.1134 -0.102552 0)
(29.9617 0.0936025 0)
(29.8726 0.0874021 0)
(29.8677 0.036272 0)
(29.7082 0.0339596 0)
(29.6145 0.021988 0)
(29.4401 0.0436292 0)
(29.2084 0.0547741 0)
(28.9427 0.111746 0)
(28.7204 0.172352 0)
(28.37 0.201497 0)
(27.6319 0.247206 0)
(26.8168 0.406135 0)
(25.8712 0.640881 0)
(25.0057 0.894983 0)
(23.9152 1.17429 0)
(22.68 1.73419 0)
(21.3358 2.8459 0)
(18.9057 5.16062 0)
(17.869 8.98608 0)
(11.0339 20.6312 0)
(29.9517 -0.0443653 0)
(30.1972 -0.104226 0)
(29.9848 0.0941769 0)
(29.8019 0.0891176 0)
(29.7398 0.0371469 0)
(29.6832 0.0350896 0)
(29.58 0.0221877 0)
(29.4375 0.0438478 0)
(29.2051 0.0575297 0)
(28.9502 0.114338 0)
(28.725 0.176014 0)
(28.3496 0.209369 0)
(27.5849 0.259397 0)
(26.7714 0.421527 0)
(25.8321 0.658462 0)
(24.9813 0.916669 0)
(23.8859 1.20315 0)
(22.669 1.77015 0)
(21.3479 2.9056 0)
(18.9269 5.22003 0)
(18.1117 9.14277 0)
(11.2835 21.2764 0)
(29.9421 -0.0449558 0)
(30.1549 -0.104195 0)
(30.0029 0.0950517 0)
(29.9031 0.0910008 0)
(29.8931 0.0390059 0)
(29.7288 0.03636 0)
(29.6277 0.0228959 0)
(29.4447 0.0449768 0)
(29.2038 0.0601494 0)
(28.959 0.116913 0)
(28.7292 0.179892 0)
(28.3272 0.217626 0)
(27.5352 0.271731 0)
(26.7258 0.436769 0)
(25.793 0.675734 0)
(24.9584 0.938258 0)
(23.858 1.2319 0)
(22.6619 1.80554 0)
(21.3659 2.96482 0)
(18.9503 5.27533 0)
(18.3454 9.29513 0)
(11.5409 21.9389 0)
(29.933 -0.0456271 0)
(30.355 -0.104204 0)
(30.1349 0.0939155 0)
(29.9055 0.0903233 0)
(29.817 0.0369093 0)
(29.7437 0.0396368 0)
(29.6496 0.0232673 0)
(29.4429 0.0476554 0)
(29.204 0.0625492 0)
(28.9684 0.119029 0)
(28.733 0.183766 0)
(28.303 0.226661 0)
(27.4841 0.284868 0)
(26.6796 0.452259 0)
(25.7539 0.692457 0)
(24.9368 0.959095 0)
(23.8313 1.25996 0)
(22.6587 1.84047 0)
(21.39 3.02404 0)
(18.9754 5.32742 0)
(18.5544 9.44174 0)
(11.8895 22.6453 0)
(-2.92361 0.0808464 0)
(-4.0785 0.0130869 0)
(-3.96268 -0.023421 0)
(-1.75424 -0.0222989 0)
(-1.66441 -0.0268291 0)
(1.47839 -0.0454218 0)
(4.22417 -0.0395884 0)
(7.0007 -0.0307328 0)
(8.88835 -0.0211516 0)
(10.4497 -0.0159339 0)
(11.6934 -0.0133993 0)
(12.9241 -0.0116573 0)
(14.0935 -0.0101294 0)
(15.1836 -0.00890443 0)
(16.2454 -0.00846762 0)
(17.3835 -0.00847645 0)
(18.6101 -0.00815789 0)
(19.8353 -0.0074189 0)
(21.0166 -0.00644115 0)
(22.0957 -0.00616799 0)
(23.3812 -0.00783533 0)
(25.4686 -0.00829749 0)
(27.3059 -0.00527138 0)
(28.1169 -0.00216648 0)
(28.4722 -0.00101591 0)
(28.7104 -0.000669136 0)
(28.8956 -0.000522562 0)
(29.0689 -0.000440997 0)
(29.2224 -0.000362845 0)
(29.3637 -0.000277685 0)
(29.4603 -0.000187087 0)
(29.5391 -0.000131231 0)
(29.5947 -0.000113501 0)
(29.6628 -8.19276e-05 0)
(29.6938 -2.47136e-05 0)
(-2.75182 0.238325 0)
(-4.04677 0.0406436 0)
(-4.07862 -0.0653678 0)
(-1.99829 -0.0635526 0)
(-1.9991 -0.0773521 0)
(1.05778 -0.136768 0)
(3.96904 -0.122113 0)
(6.88066 -0.0939574 0)
(8.89075 -0.0646034 0)
(10.5069 -0.0477027 0)
(11.7379 -0.0391233 0)
(12.9251 -0.0344239 0)
(14.0732 -0.0303756 0)
(15.1587 -0.0265972 0)
(16.209 -0.0249985 0)
(17.3195 -0.0248206 0)
(18.5131 -0.0238713 0)
(19.7127 -0.021699 0)
(20.8708 -0.0187755 0)
(21.9191 -0.017963 0)
(23.1266 -0.0236611 0)
(25.1995 -0.0259596 0)
(27.1843 -0.0165352 0)
(28.0774 -0.00671075 0)
(28.4524 -0.00310733 0)
(28.6965 -0.00203164 0)
(28.8847 -0.0015806 0)
(29.0596 -0.00133092 0)
(29.2146 -0.00110146 0)
(29.3572 -0.00083442 0)
(29.4551 -0.000564492 0)
(29.5348 -0.000397979 0)
(29.5911 -0.000339576 0)
(29.6596 -0.000250577 0)
(29.6915 -7.55118e-05 0)
(-2.64108 0.388913 0)
(-3.99037 0.0790153 0)
(-4.12264 -0.10365 0)
(-2.14559 -0.10281 0)
(-2.16714 -0.127443 0)
(0.8714 -0.231193 0)
(3.906 -0.20838 0)
(6.88947 -0.161188 0)
(8.95633 -0.110342 0)
(10.6007 -0.0804025 0)
(11.8041 -0.064538 0)
(12.9491 -0.0561946 0)
(14.0753 -0.0500488 0)
(15.1548 -0.0439909 0)
(16.1935 -0.0410739 0)
(17.2759 -0.0404929 0)
(18.4351 -0.0388777 0)
(19.6075 -0.0354117 0)
(20.7436 -0.0307061 0)
(21.7653 -0.0292101 0)
(22.9157 -0.0387334 0)
(24.9806 -0.0437729 0)
(27.0778 -0.0286832 0)
(28.0396 -0.0116919 0)
(28.4325 -0.00529529 0)
(28.6823 -0.00342093 0)
(28.8735 -0.00265027 0)
(29.05 -0.00222901 0)
(29.2066 -0.00183843 0)
(29.3506 -0.00140237 0)
(29.4495 -0.000947391 0)
(29.5303 -0.000665626 0)
(29.5872 -0.000571717 0)
(29.6563 -0.000417355 0)
(29.6891 -0.000128098 0)
(-2.54053 0.535862 0)
(-3.90911 0.11889 0)
(-4.13249 -0.137982 0)
(-2.22309 -0.140013 0)
(-2.20142 -0.176237 0)
(0.864746 -0.325169 0)
(3.98319 -0.296264 0)
(6.98804 -0.228958 0)
(9.07396 -0.156531 0)
(10.7255 -0.11276 0)
(11.8969 -0.0893221 0)
(13.0008 -0.0776593 0)
(14.1033 -0.0697372 0)
(15.1746 -0.0614827 0)
(16.2013 -0.057159 0)
(17.2532 -0.0560912 0)
(18.3722 -0.0538467 0)
(19.5129 -0.049115 0)
(20.6275 -0.042523 0)
(21.63 -0.0401548 0)
(22.7482 -0.0536627 0)
(24.8129 -0.062082 0)
(26.9871 -0.0414864 0)
(28.0035 -0.0169565 0)
(28.4127 -0.00756203 0)
(28.6679 -0.0048391 0)
(28.862 -0.00373445 0)
(29.0401 -0.00313623 0)
(29.1984 -0.00258612 0)
(29.3438 -0.00197452 0)
(29.4437 -0.00133488 0)
(29.5256 -0.000937221 0)
(29.5831 -0.000804957 0)
(29.6527 -0.000587633 0)
(29.6864 -0.000182171 0)
(-2.4448 0.678329 0)
(-3.80697 0.160671 0)
(-4.11144 -0.169502 0)
(-2.23353 -0.177444 0)
(-2.10212 -0.226828 0)
(1.01944 -0.420984 0)
(4.18268 -0.385309 0)
(7.16257 -0.29685 0)
(9.23517 -0.202692 0)
(10.8746 -0.144687 0)
(12.0153 -0.113341 0)
(13.0813 -0.0985578 0)
(14.1579 -0.089164 0)
(15.2177 -0.0788319 0)
(16.2332 -0.072941 0)
(17.2548 -0.071214 0)
(18.3287 -0.0683921 0)
(19.4309 -0.0625665 0)
(20.5225 -0.0541883 0)
(21.5124 -0.0509352 0)
(22.6203 -0.0685025 0)
(24.6915 -0.0806372 0)
(26.912 -0.0547326 0)
(27.9694 -0.0224648 0)
(28.3929 -0.00990227 0)
(28.6535 -0.00628434 0)
(28.8505 -0.0048321 0)
(29.0301 -0.00405224 0)
(29.19 -0.00334138 0)
(29.3368 -0.00255249 0)
(29.4378 -0.00172699 0)
(29.5208 -0.00121231 0)
(29.5789 -0.00104031 0)
(29.6491 -0.000760256 0)
(29.6836 -0.000237605 0)
(-2.35088 0.816108 0)
(-3.68753 0.203624 0)
(-4.06064 -0.199163 0)
(-2.17903 -0.217228 0)
(-1.85457 -0.281051 0)
(1.32784 -0.518886 0)
(4.48394 -0.474336 0)
(7.39647 -0.363836 0)
(9.42915 -0.248241 0)
(11.0411 -0.176038 0)
(12.1556 -0.136556 0)
(13.1888 -0.118797 0)
(14.2366 -0.108149 0)
(15.2805 -0.0958913 0)
(16.2861 -0.0883314 0)
(17.2817 -0.0857191 0)
(18.3096 -0.0823052 0)
(19.3673 -0.0756043 0)
(20.4323 -0.0656642 0)
(21.4137 -0.0616555 0)
(22.5272 -0.0833784 0)
(24.6093 -0.0993678 0)
(26.8515 -0.0682493 0)
(27.9373 -0.0281554 0)
(28.3733 -0.0123079 0)
(28.6391 -0.00775565 0)
(28.839 -0.0059428 0)
(29.0201 -0.00497677 0)
(29.1816 -0.00410425 0)
(29.3297 -0.00313589 0)
(29.4317 -0.0021237 0)
(29.516 -0.00149087 0)
(29.5745 -0.00127765 0)
(29.6454 -0.000935138 0)
(29.6806 -0.000294234 0)
(-2.25692 0.94879 0)
(-3.55376 0.24715 0)
(-3.9791 -0.227966 0)
(-2.05969 -0.261802 0)
(-1.44155 -0.340752 0)
(1.77153 -0.617479 0)
(4.85804 -0.561771 0)
(7.67011 -0.42904 0)
(9.64431 -0.292746 0)
(11.2189 -0.206741 0)
(12.3124 -0.159136 0)
(13.3187 -0.138427 0)
(14.3344 -0.126632 0)
(15.3577 -0.112654 0)
(16.3547 -0.103411 0)
(17.3302 -0.099677 0)
(18.3167 -0.0955551 0)
(19.3279 -0.0881437 0)
(20.3618 -0.0769237 0)
(21.3357 -0.0723913 0)
(22.4642 -0.098368 0)
(24.5593 -0.118205 0)
(26.8044 -0.0818974 0)
(27.9075 -0.0339745 0)
(28.3542 -0.0147715 0)
(28.6249 -0.00925219 0)
(28.8275 -0.00706634 0)
(29.0102 -0.0059097 0)
(29.1732 -0.00487466 0)
(29.3227 -0.00372456 0)
(29.4255 -0.00252501 0)
(29.5111 -0.00177296 0)
(29.5701 -0.001517 0)
(29.6417 -0.00111226 0)
(29.6775 -0.00035194 0)
(-2.16179 1.076 0)
(-3.40803 0.290657 0)
(-3.86371 -0.256917 0)
(-1.87479 -0.313474 0)
(-0.877952 -0.406946 0)
(2.30485 -0.714586 0)
(5.26851 -0.646071 0)
(7.96284 -0.491863 0)
(9.8699 -0.335949 0)
(11.4028 -0.236782 0)
(12.4802 -0.18124 0)
(13.4651 -0.157523 0)
(14.4459 -0.1446 0)
(15.4446 -0.12915 0)
(16.4336 -0.118291 0)
(17.3948 -0.113233 0)
(18.3475 -0.108223 0)
(19.3148 -0.100168 0)
(20.3148 -0.0879345 0)
(21.2792 -0.0831706 0)
(22.427 -0.113507 0)
(24.535 -0.137086 0)
(26.769 -0.0955705 0)
(27.8801 -0.0398756 0)
(28.3355 -0.0172856 0)
(28.611 -0.010773 0)
(28.8163 -0.00820237 0)
(29.0004 -0.00685082 0)
(29.165 -0.00565228 0)
(29.3157 -0.00431826 0)
(29.4193 -0.00293089 0)
(29.5063 -0.00205853 0)
(29.5657 -0.00175836 0)
(29.638 -0.00129149 0)
(29.6743 -0.000410583 0)
(-2.06491 1.19742 0)
(-3.2521 0.333512 0)
(-3.70957 -0.287162 0)
(-1.62598 -0.373849 0)
(-0.228909 -0.479452 0)
(2.86334 -0.808332 0)
(5.68056 -0.726409 0)
(8.25707 -0.552102 0)
(10.0972 -0.37776 0)
(11.5891 -0.266189 0)
(12.6544 -0.202953 0)
(13.6218 -0.17613 0)
(14.5661 -0.162022 0)
(15.5374 -0.145383 0)
(16.5189 -0.133043 0)
(17.4702 -0.12651 0)
(18.3966 -0.120427 0)
(19.3261 -0.111718 0)
(20.2921 -0.0986749 0)
(21.2442 -0.0939868 0)
(22.4117 -0.128798 0)
(24.5311 -0.155957 0)
(26.7438 -0.109186 0)
(27.8552 -0.0458193 0)
(28.3176 -0.0198431 0)
(28.5976 -0.012317 0)
(28.8054 -0.00935046 0)
(28.991 -0.00779983 0)
(29.157 -0.00643687 0)
(29.3089 -0.00491667 0)
(29.4133 -0.0033413 0)
(29.5016 -0.0023476 0)
(29.5614 -0.00200167 0)
(29.6344 -0.00147279 0)
(29.6712 -0.000470012 0)
(-1.96596 1.31272 0)
(-3.08718 0.374954 0)
(-3.51096 -0.319737 0)
(-1.32058 -0.443053 0)
(0.4203 -0.556779 0)
(3.39371 -0.89796 0)
(6.0704 -0.802771 0)
(8.54102 -0.609911 0)
(10.3204 -0.418254 0)
(11.7752 -0.295021 0)
(12.8313 -0.224372 0)
(13.7835 -0.194268 0)
(14.6907 -0.178863 0)
(15.6333 -0.161335 0)
(16.6073 -0.147695 0)
(17.552 -0.13959 0)
(18.4587 -0.132271 0)
(19.3573 -0.122859 0)
(20.2916 -0.109144 0)
(21.2289 -0.104821 0)
(22.4146 -0.144229 0)
(24.543 -0.174771 0)
(26.7271 -0.122683 0)
(27.8327 -0.0517729 0)
(28.3006 -0.022437 0)
(28.5847 -0.013883 0)
(28.7951 -0.0105101 0)
(28.9819 -0.00875631 0)
(29.1493 -0.00722799 0)
(29.3023 -0.00551945 0)
(29.4073 -0.00375613 0)
(29.4971 -0.00264007 0)
(29.5571 -0.00224684 0)
(29.6309 -0.00165597 0)
(29.668 -0.000530062 0)
(-1.86491 1.42165 0)
(-2.91401 0.414141 0)
(-3.26265 -0.355586 0)
(-0.973112 -0.51975 0)
(1.01201 -0.637195 0)
(3.87019 -0.983696 0)
(6.42769 -0.875659 0)
(8.80934 -0.665625 0)
(10.5369 -0.457598 0)
(11.9598 -0.323354 0)
(13.0086 -0.245517 0)
(13.9463 -0.211928 0)
(14.8165 -0.195105 0)
(15.7298 -0.176986 0)
(16.6964 -0.162261 0)
(17.6367 -0.152529 0)
(18.5291 -0.143839 0)
(19.4031 -0.13366 0)
(20.3095 -0.119356 0)
(21.231 -0.115653 0)