/*--------------------------------*- C++ -*----------------------------------*\
| =========                 |                                                 |
| \\      /  F ield         | OpenFOAM: The Open Source CFD Toolbox           |
|  \\    /   O peration     | Version:  v1912                                 |
|   \\  /    A nd           | Website:  www.openfoam.com                      |
|    \\/     M anipulation  |                                                 |
\*---------------------------------------------------------------------------*/
FoamFile
{
    version     2.0;
    format      ascii;
    class       volScalarField;
    location    "500";
    object      k;
}
// * * * * * * * * * * * * * * * * * * * * * * * * * * * * * * * * * * * * * //

dimensions      [0 2 -2 0 0 0 0];


internalField   nonuniform List<scalar> 
10000
(
1e-15
1e-15
1e-15
1.01023e-15
1.15748e-15
1.2837e-15
1.84074e-15
2.15122e-15
3.29586e-15
3.99304e-15
6.40614e-15
7.98727e-15
1.32054e-14
1.67434e-14
2.86301e-14
3.72433e-14
6.43288e-14
8.66447e-14
9.6167e-13
1.61365e-07
1e-15
1e-15
1.035e-15
1.08576e-15
1.4988e-15
1.70931e-15
2.6887e-15
3.24314e-15
5.16361e-15
6.37469e-15
1.04145e-14
1.32327e-14
2.16574e-14
2.5686e-14
4.34022e-14
6.19634e-14
1.01902e-13
1.30907e-13
3.33096e-13
1.62089e-08
1e-15
1e-15
1e-15
1e-15
1e-15
1e-15
1e-15
1e-15
1e-15
1e-15
1.00002e-15
1.07484e-15
1.25475e-15
1.74238e-15
2.50766e-15
5.48133e-15
1.09642e-14
3.36013e-14
1.01608e-13
2.21512e-07
1e-15
1e-15
1e-15
1e-15
1e-15
1e-15
1e-15
1e-15
1e-15
1e-15
1e-15
1e-15
1e-15
1e-15
1.00382e-15
1e-15
1.12862e-15
1.48481e-15
7.45067e-14
1.48397e-15
1e-15
1e-15
1e-15
1e-15
1e-15
1e-15
1e-15
1e-15
1e-15
1e-15
1e-15
1e-15
1e-15
1e-15
1.01073e-15
1e-15
1e-15
1e-15
1.12921e-12
2.24422e-12
1e-15
1e-15
1e-15
1e-15
1e-15
1e-15
1.00108e-15
1e-15
1e-15
1e-15
1e-15
1e-15
1e-15
1e-15
1.0107e-15
1e-15
1e-15
1e-15
7.43755e-14
9.45883e-12
1e-15
1e-15
1e-15
1e-15
1e-15
1e-15
1e-15
1.00682e-15
1e-15
1e-15
1e-15
1e-15
1e-15
1.00119e-15
1e-15
1e-15
1e-15
1e-15
2.76617e-15
2.50064e-12
1e-15
1e-15
1e-15
1e-15
1e-15
1e-15
1e-15
1e-15
1e-15
1e-15
1e-15
1e-15
1.01247e-15
1e-15
1e-15
1e-15
1e-15
1e-15
8.40566e-14
1.05406e-13
1e-15
1e-15
1e-15
1e-15
1e-15
1e-15
1e-15
1e-15
1e-15
1e-15
1e-15
1e-15
1e-15
1.01338e-15
1e-15
1e-15
1e-15
1e-15
2.8961e-15
7.15326e-14
1e-15
1e-15
1e-15
1e-15
1e-15
1e-15
1e-15
1e-15
1e-15
1e-15
1e-15
1e-15
1e-15
1e-15
1e-15
1e-15
1e-15
1e-15
1.00589e-15
1.00005e-15
1e-15
1e-15
1e-15
1e-15
1e-15
1e-15
1e-15
1e-15
1e-15
1e-15
1e-15
1e-15
1e-15
1e-15
1e-15
1e-15
1e-15
1e-15
1e-15
1e-15
1e-15
1e-15
1e-15
1e-15
1e-15
1e-15
1e-15
1e-15
1e-15
1e-15
1e-15
1e-15
1e-15
1e-15
1e-15
1e-15
1e-15
1e-15
1e-15
1e-15
1e-15
1e-15
1e-15
1e-15
1e-15
1e-15
1e-15
1e-15
1e-15
1e-15
1e-15
1e-15
1e-15
1e-15
1e-15
1e-15
1e-15
1e-15
1e-15
1e-15
1e-15
1e-15
1e-15
1e-15
1e-15
1e-15
1e-15
1e-15
1e-15
1e-15
1e-15
1e-15
1e-15
1.0144e-15
1e-15
1e-15
1e-15
1e-15
1e-15
1e-15
1e-15
1e-15
1e-15
1e-15
1e-15
1e-15
1.00611e-15
1e-15
1e-15
1e-15
1e-15
1e-15
1.0153e-15
1e-15
1e-15
1e-15
1e-15
1e-15
1e-15
1e-15
1e-15
1e-15
1e-15
1e-15
1e-15
1e-15
1e-15
1e-15
1e-15
1e-15
1e-15
1.00257e-15
1e-15
1e-15
1e-15
1e-15
1e-15
1.00704e-15
1e-15
1e-15
1e-15
1e-15
1e-15
1e-15
1e-15
1e-15
1e-15
1e-15
1e-15
1e-15
1.0007e-15
1e-15
1e-15
1e-15
1e-15
1e-15
1.00771e-15
1e-15
1e-15
1e-15
1e-15
1e-15
1e-15
1e-15
1e-15
1e-15
1e-15
1e-15
1e-15
1e-15
1.00142e-15
1e-15
1e-15
1e-15
1e-15
1e-15
1e-15
1.01372e-15
1e-15
1e-15
1e-15
1e-15
1e-15
1e-15
1e-15
1e-15
1e-15
1e-15
1e-15
1.01547e-15
1e-15
1e-15
1e-15
1e-15
1e-15
1e-15
1e-15
1e-15
1e-15
1e-15
1e-15
1e-15
1e-15
1e-15
1e-15
1e-15
1e-15
1e-15
1e-15
1e-15
1.00193e-15
1e-15
1e-15
1e-15
1e-15
1e-15
1e-15
1e-15
1e-15
1e-15
1e-15
1e-15
1e-15
1e-15
1e-15
1e-15
1e-15
1e-15
1e-15
1e-15
1e-15
1e-15
1e-15
1e-15
1e-15
1.01566e-15
1e-15
1e-15
1e-15
1e-15
1e-15
1e-15
1e-15
1e-15
1e-15
1e-15
1e-15
1e-15
1e-15
1e-15
1.01665e-15
1e-15
1e-15
1e-15
1e-15
1e-15
1.00808e-15
1e-15
1e-15
1e-15
1e-15
1e-15
1e-15
1e-15
1e-15
1e-15
1e-15
1e-15
1e-15
1.01633e-15
1e-15
1e-15
1e-15
1e-15
1e-15
1.00758e-15
1e-15
1e-15
1e-15
1e-15
1e-15
1e-15
1e-15
1e-15
1e-15
1e-15
1e-15
1e-15
1.01577e-15
1e-15
1e-15
1e-15
1e-15
1e-15
1.00756e-15
1e-15
1e-15
1e-15
1e-15
1e-15
1e-15
1e-15
1e-15
1e-15
1e-15
1e-15
1e-15
1e-15
1e-15
1.01649e-15
1e-15
1e-15
1e-15
1e-15
1e-15
1e-15
1e-15
1e-15
1e-15
1.00786e-15
1e-15
1e-15
1e-15
1e-15
1e-15
1e-15
1e-15
1e-15
1e-15
1e-15
1e-15
1e-15
1e-15
1e-15
1.01333e-15
1e-15
1e-15
1e-15
1e-15
1e-15
1e-15
1e-15
1e-15
1e-15
1e-15
1e-15
1.00929e-15
1e-15
1e-15
1e-15
1e-15
1e-15
1e-15
1.01418e-15
1e-15
1e-15
1e-15
1e-15
1e-15
1e-15
1e-15
1e-15
1e-15
1e-15
1e-15
1.00055e-15
1e-15
1e-15
1e-15
1e-15
1e-15
1e-15
1.01416e-15
1e-15
1e-15
1e-15
1e-15
1e-15
1.00902e-15
1e-15
1e-15
1e-15
1e-15
1e-15
1e-15
1e-15
1e-15
1e-15
1e-15
1e-15
1e-15
1.01339e-15
1e-15
1e-15
1e-15
1e-15
1e-15
1.00885e-15
1e-15
1e-15
1e-15
1e-15
1e-15
1e-15
1e-15
1e-15
1e-15
1e-15
1e-15
1e-15
1e-15
1e-15
1e-15
1e-15
1e-15
1e-15
1.00712e-15
1e-15
1e-15
1e-15
1e-15
1e-15
1e-15
1e-15
1e-15
1.00107e-15
1e-15
1e-15
1e-15
1e-15
1e-15
1e-15
1e-15
1e-15
1e-15
1.01634e-15
1e-15
1e-15
1e-15
1e-15
1e-15
1e-15
1e-15
1e-15
1e-15
1e-15
1.00992e-15
1e-15
1e-15
1e-15
1e-15
1e-15
1.00659e-15
1e-15
1e-15
1e-15
1e-15
1e-15
1e-15
1e-15
1e-15
1e-15
1e-15
1e-15
1e-15
1.00108e-15
1e-15
1e-15
1e-15
1e-15
1e-15
1.0052e-15
1e-15
1e-15
1e-15
1e-15
1e-15
1.00912e-15
1e-15
1e-15
1e-15
1e-15
1e-15
1e-15
1e-15
1e-15
1e-15
1e-15
1e-15
1e-15
1.00312e-15
1e-15
1e-15
1e-15
1e-15
1e-15
1.00906e-15
1e-15
1e-15
1e-15
1e-15
1e-15
1e-15
1e-15
1e-15
1.00125e-15
1e-15
1e-15
1e-15
1e-15
1e-15
1.00532e-15
1e-15
1e-15
1e-15
1e-15
1e-15
1e-15
1e-15
1e-15
1e-15
1e-15
1e-15
1e-15
1e-15
1e-15
1e-15
1e-15
1e-15
1e-15
1e-15
1e-15
1e-15
1e-15
1e-15
1e-15
1e-15
1e-15
1e-15
1e-15
1e-15
1e-15
1e-15
1e-15
1e-15
1e-15
1e-15
1e-15
1.00948e-15
1e-15
1e-15
1e-15
1e-15
1e-15
1.00864e-15
1e-15
1e-15
1e-15
1e-15
1e-15
1e-15
1e-15
1e-15
1e-15
1e-15
1e-15
1e-15
1e-15
1.01681e-15
1e-15
1e-15
1e-15
1e-15
1e-15
1.00845e-15
1e-15
1e-15
1e-15
1e-15
1e-15
1e-15
1e-15
1e-15
1e-15
1e-15
1e-15
1e-15
1e-15
1.01687e-15
1e-15
1e-15
1e-15
1e-15
1e-15
1.00855e-15
1e-15
1e-15
1e-15
1e-15
1e-15
1e-15
1e-15
1e-15
1e-15
1e-15
1e-15
1e-15
1e-15
1e-15
1.01766e-15
1e-15
1e-15
1e-15
1e-15
1e-15
1e-15
1e-15
1e-15
1e-15
1e-15
1e-15
1e-15
1e-15
1e-15
1e-15
1e-15
1e-15
1e-15
1e-15
1e-15
1.00324e-15
1e-15
1e-15
1e-15
1e-15
1e-15
1.00911e-15
1e-15
1e-15
1e-15
1e-15
1e-15
1e-15
1e-15
1e-15
1e-15
1e-15
1e-15
1e-15
1e-15
1e-15
1e-15
1e-15
1e-15
1e-15
1.00882e-15
1e-15
1e-15
1e-15
1e-15
1e-15
1e-15
1e-15
1e-15
1e-15
1e-15
1e-15
1e-15
1.01679e-15
1e-15
1e-15
1e-15
1e-15
1e-15
1.00822e-15
1e-15
1e-15
1e-15
1e-15
1e-15
1e-15
1e-15
1e-15
1e-15
1e-15
1e-15
1e-15
1e-15
1e-15
1e-15
1e-15
1e-15
1e-15
1.01763e-15
1e-15
1e-15
1e-15
1e-15
1e-15
1.00909e-15
1e-15
1e-15
1e-15
1e-15
1e-15
1e-15
1e-15
1e-15
1e-15
1e-15
1e-15
1e-15
1e-15
1e-15
1.005e-15
1e-15
1e-15
1e-15
1e-15
1e-15
1e-15
1e-15
1e-15
1e-15
1e-15
1.00167e-15
1e-15
1e-15
1e-15
1e-15
1e-15
1e-15
1e-15
1e-15
1e-15
1.00587e-15
1e-15
1e-15
1e-15
1e-15
1e-15
1e-15
1e-15
1e-15
1e-15
1e-15
1e-15
1e-15
1e-15
1e-15
1.00334e-15
1e-15
1e-15
1e-15
1e-15
1e-15
1.00931e-15
1e-15
1e-15
1e-15
1e-15
1e-15
1e-15
1e-15
1e-15
1.00171e-15
1e-15
1e-15
1e-15
1e-15
1e-15
1.00562e-15
1e-15
1e-15
1e-15
1e-15
1e-15
1.00954e-15
1e-15
1e-15
1e-15
1e-15
1e-15
1e-15
1e-15
1e-15
1e-15
1e-15
1e-15
1e-15
1.00332e-15
1e-15
1e-15
1e-15
1e-15
1e-15
1.00925e-15
1e-15
1e-15
1e-15
1e-15
1e-15
1e-15
1e-15
1e-15
1.00171e-15
1e-15
1e-15
1e-15
1e-15
1e-15
1.00561e-15
1e-15
1e-15
1e-15
1e-15
1e-15
1.00952e-15
1e-15
1e-15
1e-15
1e-15
1e-15
1e-15
1e-15
1e-15
1e-15
1e-15
1e-15
1e-15
1.00342e-15
1e-15
1e-15
1e-15
1e-15
1e-15
1.00943e-15
1e-15
1e-15
1e-15
1e-15
1e-15
1e-15
1e-15
1e-15
1e-15
1e-15
1e-15
1e-15
1e-15
1.00351e-15
1e-15
1e-15
1e-15
1e-15
1e-15
1.00939e-15
1e-15
1e-15
1e-15
1e-15
1e-15
1e-15
1e-15
1e-15
1.00174e-15
1e-15
1e-15
1e-15
1e-15
1e-15
1e-15
1e-15
1e-15
1e-15
1.01697e-15
1e-15
1e-15
1e-15
1e-15
1e-15
1e-15
1e-15
1e-15
1e-15
1e-15
1e-15
1e-15
1e-15
1e-15
1.00345e-15
1e-15
1e-15
1e-15
1e-15
1e-15
1.00937e-15
1e-15
1e-15
1e-15
1e-15
1e-15
1e-15
1e-15
1e-15
1.00175e-15
1e-15
1e-15
1e-15
1e-15
1e-15
1.00566e-15
1e-15
1e-15
1e-15
1e-15
1e-15
1.00957e-15
1e-15
1e-15
1e-15
1e-15
1e-15
1e-15
1e-15
1e-15
1e-15
1e-15
1e-15
1e-15
1.00339e-15
1e-15
1e-15
1e-15
1e-15
1e-15
1.00939e-15
1e-15
1e-15
1e-15
1e-15
1e-15
1e-15
1e-15
1e-15
1e-15
1e-15
1e-15
1.01686e-15
1e-15
1e-15
1e-15
1e-15
1e-15
1e-15
1e-15
1.01371e-15
1e-15
1e-15
1e-15
1e-15
1e-15
1e-15
1e-15
1e-15
1e-15
1e-15
1.01353e-15
1e-15
1e-15
1e-15
1e-15
1e-15
1e-15
1e-15
1e-15
1.01662e-15
1e-15
1e-15
1e-15
1e-15
1e-15
1e-15
1e-15
1e-15
1e-15
1.0105e-15
1e-15
1e-15
1e-15
1e-15
1e-15
1.00698e-15
1e-15
1e-15
1e-15
1.01534e-15
1e-15
1e-15
1e-15
1e-15
1e-15
1e-15
1e-15
1e-15
1e-15
1e-15
1e-15
1e-15
1e-15
1e-15
1.00518e-15
1e-15
1e-15
1e-15
1e-15
1e-15
1e-15
1e-15
1e-15
1e-15
1e-15
1e-15
1e-15
1e-15
1e-15
1e-15
1e-15
1e-15
1e-15
1.00337e-15
1e-15
1e-15
1e-15
1e-15
1e-15
1.00939e-15
1e-15
1e-15
1e-15
1e-15
1e-15
1e-15
1e-15
1e-15
1e-15
1e-15
1e-15
1e-15
1e-15
1e-15
1e-15
1e-15
1e-15
1e-15
1.00893e-15
1e-15
1e-15
1e-15
1e-15
1e-15
1e-15
1e-15
1e-15
1e-15
1e-15
1e-15
1e-15
1.00971e-15
1e-15
1e-15
1e-15
1e-15
1e-15
1.0088e-15
1e-15
1e-15
1e-15
1e-15
1e-15
1e-15
1e-15
1e-15
1e-15
1e-15
1e-15
1e-15
1e-15
1e-15
1.01741e-15
1e-15
1e-15
1e-15
1e-15
1e-15
1.00868e-15
1e-15
1e-15
1e-15
1e-15
1e-15
1e-15
1e-15
1e-15
1e-15
1e-15
1e-15
1e-15
1e-15
1e-15
1.00338e-15
1e-15
1e-15
1e-15
1e-15
1e-15
1.00932e-15
1e-15
1e-15
1e-15
1e-15
1e-15
1e-15
1e-15
1e-15
1e-15
1e-15
1e-15
1e-15
1e-15
1e-15
1.0052e-15
1e-15
1e-15
1e-15
1e-15
1e-15
1.00948e-15
1e-15
1e-15
1e-15
1e-15
1e-15
1e-15
1e-15
1e-15
1.01049e-15
1e-15
1e-15
1e-15
1e-15
1e-15
1.007e-15
1e-15
1e-15
1e-15
1e-15
1e-15
1e-15
1e-15
1e-15
1e-15
1e-15
1e-15
1e-15
1e-15
1e-15
1.01488e-15
1e-15
1e-15
1e-15
1e-15
1e-15
1.00785e-15
1e-15
1e-15
1e-15
1e-15
1e-15
1e-15
1e-15
1e-15
1e-15
1e-15
1e-15
1e-15
1e-15
1e-15
1.0097e-15
1e-15
1e-15
1e-15
1e-15
1e-15
1.00876e-15
1e-15
1e-15
1e-15
1e-15
1e-15
1e-15
1e-15
1e-15
1e-15
1e-15
1e-15
1e-15
1e-15
1e-15
1e-15
1e-15
1e-15
1e-15
1.01753e-15
1e-15
1e-15
1e-15
1e-15
1e-15
1e-15
1e-15
1e-15
1e-15
1e-15
1e-15
1e-15
1.01051e-15
1e-15
1e-15
1e-15
1e-15
1e-15
1.00697e-15
1e-15
1e-15
1e-15
1e-15
1e-15
1e-15
1e-15
1e-15
1e-15
1e-15
1e-15
1e-15
1e-15
1e-15
1e-15
1e-15
1e-15
1e-15
1.0178e-15
1e-15
1e-15
1e-15
1e-15
1e-15
1.00898e-15
1e-15
1e-15
1e-15
1e-15
1e-15
1e-15
1e-15
1e-15
1e-15
1e-15
1e-15
1e-15
1.01794e-15
1e-15
1e-15
1e-15
1e-15
1e-15
1.00888e-15
1e-15
1e-15
1e-15
1e-15
1e-15
1e-15
1e-15
1e-15
1.00176e-15
1e-15
1e-15
1e-15
1e-15
1e-15
1e-15
1e-15
1e-15
1e-15
1.00592e-15
1e-15
1e-15
1e-15
1e-15
1e-15
1e-15
1e-15
1e-15
1e-15
1e-15
1e-15
1e-15
1e-15
1.01773e-15
1e-15
1e-15
1e-15
1e-15
1e-15
1.00873e-15
1e-15
1e-15
1e-15
1e-15
1e-15
1e-15
1e-15
1e-15
1e-15
1e-15
1e-15
1e-15
1.01621e-15
1e-15
1e-15
1e-15
1e-15
1e-15
1.00826e-15
1e-15
1e-15
1e-15
1e-15
1e-15
1e-15
1e-15
1e-15
1e-15
1e-15
1e-15
1e-15
1e-15
1.01693e-15
1e-15
1e-15
1e-15
1e-15
1e-15
1.00837e-15
1e-15
1e-15
1e-15
1e-15
1e-15
1e-15
1e-15
1e-15
1e-15
1e-15
1e-15
1e-15
1e-15
1e-15
1.01772e-15
1e-15
1e-15
1e-15
1e-15
1e-15
1.00872e-15
1e-15
1e-15
1e-15
1e-15
1e-15
1e-15
1e-15
1e-15
1e-15
1e-15
1e-15
1e-15
1e-15
1e-15
1.01792e-15
1e-15
1e-15
1e-15
1e-15
1e-15
1.00891e-15
1e-15
1e-15
1e-15
1e-15
1e-15
1e-15
1e-15
1e-15
1e-15
1e-15
1.01488e-15
1e-15
1e-15
1.00348e-15
1e-15
1e-15
1e-15
1e-15
1e-15
1.00958e-15
1e-15
1e-15
1e-15
1e-15
1e-15
1e-15
1e-15
1e-15
1e-15
1.01051e-15
1e-15
1e-15
1e-15
1e-15
1e-15
1.00699e-15
1e-15
1e-15
1e-15
1e-15
1e-15
1.00959e-15
1e-15
1e-15
1e-15
1e-15
1e-15
1e-15
1.00176e-15
1e-15
1e-15
1e-15
1e-15
1e-15
1.00564e-15
1e-15
1e-15
1e-15
1e-15
1e-15
1.0095e-15
1e-15
1e-15
1e-15
1e-15
1e-15
1e-15
1e-15
1e-15
1.01052e-15
1e-15
1e-15
1e-15
1e-15
1e-15
1e-15
1e-15
1e-15
1e-15
1.01644e-15
1e-15
1e-15
1e-15
1e-15
1e-15
1e-15
1e-15
1e-15
1e-15
1e-15
1.01488e-15
1e-15
1e-15
1e-15
1.01456e-15
1e-15
1e-15
1e-15
1e-15
1e-15
1.00956e-15
1e-15
1e-15
1e-15
1e-15
1e-15
1e-15
1e-15
1e-15
1.01051e-15
1e-15
1e-15
1e-15
1e-15
1e-15
1.007e-15
1e-15
1e-15
1e-15
1e-15
1e-15
1.0096e-15
1e-15
1e-15
1e-15
1e-15
1e-15
1e-15
1.00175e-15
1e-15
1e-15
1e-15
1e-15
1e-15
1.00563e-15
1e-15
1e-15
1e-15
1e-15
1e-15
1.00953e-15
1e-15
1e-15
1e-15
1e-15
1e-15
1e-15
1e-15
1e-15
1e-15
1e-15
1e-15
1e-15
1.00338e-15
1e-15
1e-15
1e-15
1e-15
1e-15
1.00931e-15
1e-15
1e-15
1e-15
1e-15
1e-15
1e-15
1e-15
1e-15
1e-15
1e-15
1e-15
1e-15
1.01772e-15
1e-15
1e-15
1e-15
1e-15
1e-15
1.00871e-15
1e-15
1e-15
1e-15
1e-15
1e-15
1e-15
1e-15
1e-15
1e-15
1e-15
1e-15
1e-15
1.01692e-15
1e-15
1e-15
1e-15
1e-15
1e-15
1.00833e-15
1e-15
1e-15
1e-15
1e-15
1e-15
1e-15
1e-15
1e-15
1e-15
1e-15
1e-15
1e-15
1e-15
1e-15
1e-15
1e-15
1e-15
1e-15
1e-15
1e-15
1.00894e-15
1e-15
1e-15
1e-15
1e-15
1e-15
1e-15
1e-15
1e-15
1e-15
1e-15
1e-15
1e-15
1e-15
1e-15
1e-15
1e-15
1e-15
1e-15
1e-15
1.00895e-15
1e-15
1e-15
1e-15
1e-15
1e-15
1e-15
1e-15
1e-15
1e-15
1e-15
1e-15
1e-15
1e-15
1e-15
1.00338e-15
1e-15
1e-15
1e-15
1e-15
1e-15
1.00932e-15
1e-15
1e-15
1e-15
1e-15
1e-15
1e-15
1e-15
1e-15
1.00175e-15
1e-15
1e-15
1e-15
1e-15
1e-15
1.00563e-15
1e-15
1e-15
1e-15
1e-15
1e-15
1.00953e-15
1e-15
1e-15
1e-15
1e-15
1e-15
1e-15
1e-15
1e-15
1.00793e-15
1e-15
1e-15
1e-15
1e-15
1e-15
1.00676e-15
1e-15
1e-15
1e-15
1e-15
1e-15
1.00958e-15
1e-15
1e-15
1e-15
1e-15
1e-15
1e-15
1e-15
1e-15
1e-15
1e-15
1e-15
1e-15
1e-15
1e-15
1.01719e-15
1e-15
1e-15
1e-15
1e-15
1e-15
1.00909e-15
1e-15
1e-15
1e-15
1e-15
1e-15
1e-15
1.01051e-15
1e-15
1e-15
1e-15
1e-15
1e-15
1.007e-15
1e-15
1e-15
1e-15
1e-15
1e-15
1.0096e-15
1e-15
1e-15
1e-15
1e-15
1e-15
1e-15
1e-15
1e-15
1.01488e-15
1e-15
1e-15
1e-15
1e-15
1e-15
1.00784e-15
1e-15
1e-15
1e-15
1e-15
1e-15
1e-15
1e-15
1e-15
1e-15
1e-15
1e-15
1e-15
1.01051e-15
1e-15
1e-15
1e-15
1e-15
1e-15
1.00699e-15
1e-15
1e-15
1e-15
1e-15
1e-15
1.0096e-15
1e-15
1e-15
1e-15
1e-15
1e-15
1e-15
1.00175e-15
1e-15
1e-15
1e-15
1e-15
1e-15
1.00563e-15
1e-15
1e-15
1e-15
1e-15
1e-15
1.00954e-15
1e-15
1e-15
1e-15
1e-15
1e-15
1e-15
1e-15
1e-15
1e-15
1e-15
1e-15
1e-15
1.00338e-15
1e-15
1e-15
1e-15
1e-15
1e-15
1.00931e-15
1e-15
1e-15
1e-15
0.00790757
0.00792195
0.00689317
0.00615088
0.00588327
0.00575519
0.00570509
0.00565168
0.00560465
0.00553428
0.0054678
0.00539467
0.0053292
0.00526007
0.00520231
0.00514146
0.00509287
0.00503924
0.00499724
0.00494924
0.00491233
0.00486956
0.00483737
0.00479906
0.0047705
0.00473538
0.00470977
0.00467749
0.00465458
0.00462479
0.00460431
0.00457671
0.00455816
0.00453221
0.00451525
0.00449084
0.00447541
0.0044524
0.00443836
0.00441662
0.0044038
0.00438307
0.00437128
0.00435144
0.0043406
0.00432162
0.00431165
0.00429347
0.00428432
0.0042668
0.00425836
0.00424145
0.00423359
0.00421734
0.00420999
0.00419434
0.00418751
0.00417242
0.00416604
0.00415141
0.00414546
0.00413125
0.0041257
0.00411188
0.00410673
0.00409327
0.00408849
0.00407537
0.00407096
0.00405813
0.00405404
0.00404147
0.0040377
0.00402534
0.0040219
0.00400974
0.00400663
0.00399457
0.00399195
0.0039793
0.000736847
0.00161295
0.00338301
0.00520292
0.00605303
0.00639536
0.00653976
0.00652162
0.00646877
0.00636515
0.00628254
0.00619552
0.0061219
0.00605019
0.00599434
0.00593664
0.00589098
0.00583784
0.00579756
0.00574873
0.00571353
0.00567041
0.00563989
0.0056003
0.00557189
0.00553487
0.00550924
0.00547501
0.00545203
0.00542043
0.00539987
0.00537002
0.00535086
0.00532239
0.00530484
0.00527804
0.00526208
0.00523678
0.00522228
0.00519821
0.00518473
0.00516154
0.00514908
0.00512681
0.00511536
0.00509402
0.00508352
0.00506309
0.00505332
0.00503357
0.00502431
0.00500544
0.00499661
0.00497861
0.0049702
0.00495302
0.00494503
0.00492855
0.0049209
0.00490496
0.00489767
0.00488224
0.00487533
0.00486041
0.00485389
0.00483944
0.00483328
0.00481923
0.00481341
0.00479966
0.00479418
0.00478068
0.00477574
0.00476223
0.0047579
0.0047444
0.00474056
0.00472734
0.00472352
0.00471022
3.48507e-05
0.000218092
0.000470648
0.00121887
0.00233737
0.0034346
0.0041729
0.00456338
0.00477857
0.00485988
0.00490994
0.00492288
0.00492533
0.00492029
0.00491623
0.00490505
0.00489729
0.00487988
0.00486982
0.00484951
0.00483905
0.00481988
0.00480925
0.00478962
0.00477749
0.00475771
0.00474587
0.00472665
0.00471554
0.0046972
0.00468678
0.00466849
0.00465804
0.00463986
0.00462995
0.00461247
0.00460324
0.00458647
0.00457791
0.00456161
0.00455332
0.00453726
0.00452939
0.00451376
0.00450634
0.00449129
0.00448431
0.00446988
0.00446315
0.00444904
0.00444252
0.00442885
0.00442258
0.00440943
0.0044034
0.00439078
0.00438498
0.00437278
0.00436714
0.00435523
0.00434978
0.00433819
0.00433296
0.00432172
0.00431673
0.00430583
0.00430106
0.00429043
0.00428585
0.0042754
0.00427102
0.00426073
0.00425665
0.00424646
0.0042427
0.00423261
0.00422913
0.00421929
0.00421583
0.00420575
8.883e-06
2.52018e-05
3.81372e-05
0.000192879
0.000421014
0.000971336
0.0019357
0.0027405
0.00327901
0.0036266
0.00385706
0.0039873
0.00407877
0.00414182
0.00419248
0.00422482
0.00425679
0.00427302
0.00429258
0.00429889
0.00431165
0.00431405
0.00432088
0.00431935
0.0043213
0.00431722
0.00431706
0.0043114
0.00431013
0.00430347
0.00430118
0.00429304
0.00428953
0.00428029
0.00427646
0.00426698
0.00426301
0.0042535
0.00424945
0.00423973
0.00423532
0.00422526
0.00422079
0.0042107
0.00420628
0.00419632
0.00419203
0.00418227
0.00417791
0.0041681
0.00416374
0.00415403
0.00414974
0.00414025
0.00413607
0.00412685
0.00412274
0.00411369
0.0041096
0.00410061
0.00409659
0.00408775
0.00408384
0.0040752
0.00407142
0.004063
0.00405933
0.00405106
0.00404747
0.00403927
0.00403578
0.00402766
0.00402433
0.00401629
0.00401316
0.00400521
0.00400225
0.00399446
0.00399155
0.00398347
3.47526e-09
5.00261e-07
4.52761e-06
1.6252e-05
2.71631e-05
0.000161057
0.000374491
0.000883276
0.00161066
0.00222822
0.00267107
0.00298619
0.00322142
0.0033867
0.00351637
0.00361178
0.00369217
0.00374697
0.00379983
0.00383551
0.00387358
0.00389765
0.00392472
0.00394054
0.00396021
0.00396988
0.00398447
0.00399004
0.00400131
0.00400442
0.00401215
0.00401282
0.00401743
0.00401654
0.00401944
0.0040175
0.00401922
0.00401653
0.00401728
0.0040137
0.00401338
0.00400906
0.00400811
0.00400326
0.00400194
0.00399677
0.00399524
0.00398981
0.00398788
0.00398206
0.0039799
0.00397388
0.00397158
0.00396552
0.00396316
0.00395709
0.00395465
0.00394848
0.00394591
0.0039396
0.00393699
0.00393065
0.00392805
0.00392176
0.00391919
0.00391299
0.00391042
0.00390422
0.00390164
0.00389539
0.00389283
0.00388658
0.00388409
0.00387785
0.00387547
0.00386926
0.00386699
0.00386082
0.00385861
0.00385224
9.33782e-11
1.25098e-07
4.81828e-08
8.6816e-07
2.9003e-06
1.17026e-05
2.26621e-05
0.000138676
0.000328741
0.000731492
0.00129394
0.00178873
0.0021749
0.00247202
0.00271875
0.00290659
0.00306064
0.00317504
0.00327751
0.00335441
0.00342635
0.00347941
0.00353183
0.00356879
0.00360799
0.00363387
0.00366441
0.0036832
0.00370782
0.00372147
0.00374079
0.0037504
0.00376566
0.00377221
0.00378439
0.00378881
0.00379844
0.00380145
0.00380896
0.0038105
0.00381597
0.00381651
0.00382052
0.00382033
0.00382318
0.00382238
0.00382446
0.00382301
0.00382423
0.0038222
0.00382279
0.00382036
0.00382046
0.0038178
0.00381756
0.00381465
0.00381409
0.00381081
0.00380996
0.00380637
0.00380532
0.00380155
0.00380037
0.00379649
0.00379523
0.00379128
0.00378989
0.00378582
0.00378431
0.00378006
0.0037785
0.00377414
0.00377257
0.00376814
0.0037666
0.0037621
0.00376062
0.00375606
0.00375459
0.00374998
3.95405e-10
5.4676e-11
5.14957e-09
4.24064e-08
1.75075e-07
6.00084e-07
1.93118e-06
9.2476e-06
1.98622e-05
0.000110623
0.000251585
0.000561003
0.000977442
0.00139195
0.00174858
0.00202919
0.00227672
0.00247742
0.00264956
0.00278423
0.00290471
0.00299982
0.00308864
0.0031563
0.00322194
0.00327066
0.00332206
0.0033586
0.00339959
0.00342706
0.00345968
0.00348013
0.00350694
0.0035224
0.00354445
0.0035563
0.00357468
0.0035839
0.00359925
0.00360611
0.00361883
0.00362397
0.00363455
0.00363845
0.00364709
0.00364997
0.0036571
0.00365904
0.00366471
0.00366594
0.00367044
0.0036711
0.00367465
0.00367491
0.00367771
0.00367757
0.00367965
0.00367902
0.00368051
0.00367948
0.00368053
0.00367921
0.0036799
0.00367836
0.00367876
0.00367704
0.00367712
0.00367519
0.00367497
0.00367278
0.0036724
0.00367001
0.00366951
0.00366695
0.00366641
0.00366368
0.00366311
0.00366022
0.00365955
0.00365685
8.36832e-11
5.0096e-11
1.2914e-09
1.38134e-09
8.92281e-09
2.89049e-08
1.24666e-07
4.34455e-07
1.50784e-06
7.12412e-06
1.45056e-05
7.62172e-05
0.000170187
0.000383888
0.000684261
0.00103321
0.00136063
0.00163406
0.00187056
0.00207382
0.00225909
0.00241136
0.00254874
0.002659
0.00276224
0.00284395
0.00292414
0.00298544
0.0030483
0.00309506
0.00314587
0.00318148
0.00322286
0.0032503
0.00328454
0.00330631
0.0033351
0.00335249
0.00337656
0.00338996
0.0034105
0.00342124
0.00343891
0.0034475
0.0034626
0.00346944
0.00348248
0.00348795
0.0034991
0.00350349
0.00351293
0.00351647
0.00352449
0.00352737
0.00353422
0.00353648
0.00354221
0.00354386
0.0035486
0.0035498
0.00355377
0.0035546
0.0035579
0.00355842
0.00356116
0.00356139
0.00356356
0.00356351
0.00356515
0.00356483
0.00356613
0.00356555
0.00356657
0.00356577
0.00356658
0.00356556
0.00356618
0.00356498
0.00356524
0.00356463
5.18768e-12
2.08583e-11
3.99204e-13
2.54331e-11
2.22416e-09
1.23434e-09
3.11766e-08
2.62485e-08
8.44839e-08
3.07511e-07
1.06858e-06
4.6134e-06
9.34118e-06
4.59955e-05
9.76861e-05
0.000225502
0.000444485
0.000703752
0.000997816
0.00126128
0.00149658
0.0016951
0.0018817
0.00204255
0.00219485
0.00231842
0.00243604
0.00253101
0.00262434
0.00269833
0.00277406
0.00283092
0.00289192
0.00293621
0.00298672
0.00302211
0.00306426
0.00309266
0.00312801
0.00315055
0.00318075
0.00319907
0.00322512
0.00324
0.00326256
0.00327478
0.00329445
0.0033043
0.00332143
0.00332953
0.00334452
0.00335122
0.00336441
0.00337006
0.00338159
0.00338635
0.00339638
0.00340037
0.00340908
0.00341247
0.00342005
0.00342291
0.00342951
0.00343192
0.00343767
0.00343966
0.0034446
0.00344621
0.00345043
0.00345171
0.00345534
0.00345634
0.00345945
0.00346021
0.00346289
0.00346342
0.00346564
0.0034661
0.00346741
0.0034692
1.29555e-12
1.15689e-12
1.46003e-14
3.44174e-13
3.16351e-13
3.44168e-11
7.01582e-11
1.91417e-09
8.35238e-09
1.50932e-08
6.12509e-08
1.97915e-07
3.45859e-07
2.69449e-06
4.31983e-06
2.17251e-05
4.82618e-05
0.000119419
0.00024459
0.000434133
0.000664801
0.000902013
0.00113864
0.00133669
0.00152356
0.00168165
0.00183863
0.00197261
0.00210363
0.00221028
0.0023168
0.00240166
0.00248903
0.00255675
0.00262924
0.00268344
0.00274359
0.00278728
0.00283787
0.00287326
0.00291614
0.00294488
0.0029816
0.00300509
0.003037
0.0030565
0.0030844
0.00310036
0.00312465
0.00313787
0.00315933
0.00317043
0.00318948
0.00319887
0.00321578
0.00322367
0.0032386
0.00324523
0.00325852
0.00326427
0.00327604
0.00328103
0.00329146
0.00329581
0.00330508
0.0033089
0.00331712
0.00332045
0.00332772
0.00333062
0.00333705
0.00333958
0.00334528
0.00334752
0.00335251
0.00335456
0.0033587
0.00336107
0.00336345
0.00336802
1e-15
2.86576e-13
1e-15
8.57847e-14
6.52704e-15
5.78708e-13
6.29949e-12
6.37754e-11
4.44145e-10
7.97454e-10
1.37659e-09
6.80053e-09
8.67243e-08
1.21428e-07
2.6653e-07
9.43071e-07
1.55207e-06
9.47845e-06
1.89914e-05
5.443e-05
0.000114097
0.000220379
0.000388917
0.000578988
0.00078611
0.000987548
0.00117692
0.00133666
0.00149386
0.00162661
0.00176379
0.00187955
0.00199757
0.0020925
0.002191
0.00226874
0.00235202
0.00241606
0.00248669
0.00253943
0.00259913
0.00264225
0.00269322
0.00272882
0.0027731
0.00280265
0.00284121
0.00286563
0.0028991
0.00291947
0.00294902
0.00296617
0.00299239
0.00300688
0.00303021
0.00304248
0.00306327
0.00307366
0.00309225
0.00310122
0.00311786
0.00312562
0.00314056
0.00314734
0.00316081
0.00316672
0.00317875
0.00318395
0.00319473
0.00319936
0.00320903
0.00321319
0.00322185
0.00322567
0.00323327
0.00323714
0.0032432
0.0032479
0.00325145
0.0032591
1e-15
1e-15
1e-15
1e-15
1e-15
1.45108e-13
1.68376e-13
2.56516e-12
2.06624e-11
3.97586e-11
7.15672e-11
4.06217e-10
2.10676e-10
2.15861e-09
1.82301e-09
2.97802e-08
4.24014e-08
3.25357e-07
3.67507e-07
3.22444e-06
6.00126e-06
1.99982e-05
4.28989e-05
9.11229e-05
0.000181376
0.000309504
0.000477668
0.000648171
0.000830456
0.000997828
0.00115794
0.00129294
0.00143061
0.00154626
0.00166852
0.00177081
0.00187944
0.00196635
0.0020592
0.00213225
0.00221241
0.00227384
0.00234311
0.00239464
0.00245485
0.0024978
0.00255016
0.00258616
0.00263178
0.00266213
0.00270225
0.00272779
0.00276322
0.00278479
0.00281628
0.0028347
0.00286282
0.00287849
0.00290359
0.00291703
0.00293953
0.00295116
0.00297146
0.00298161
0.00300001
0.00300886
0.0030254
0.00303313
0.00304805
0.00305494
0.00306843
0.00307469
0.00308676
0.00309269
0.00310312
0.00310924
0.00311751
0.00312475
0.00312979
0.00314083
1e-15
1e-15
1e-15
1e-15
1e-15
1.05191e-15
5.88091e-15
2.48367e-13
1.11733e-12
2.12704e-12
2.50968e-12
1.38145e-11
4.80152e-11
9.84071e-11
1.55483e-10
8.27043e-10
1.05701e-08
1.242e-08
9.40902e-09
1.32863e-07
2.9499e-07
8.00453e-07
1.46994e-06
6.0056e-06
1.21478e-05
3.25444e-05
6.71935e-05
0.000127867
0.000228291
0.000355042
0.000510579
0.000660333
0.000819772
0.000962129
0.00110348
0.00122144
0.00134463
0.00144802
0.00155833
0.00165058
0.00175162
0.00183268
0.00192161
0.00199062
0.00206886
0.00212797
0.0021971
0.0022477
0.00230855
0.00235179
0.00240527
0.00244196
0.00248923
0.00252046
0.00256256
0.00258939
0.00262692
0.00264988
0.0026833
0.00270298
0.00273292
0.00275
0.00277699
0.00279188
0.00281629
0.0028293
0.00285127
0.00286266
0.00288248
0.00289266
0.00291053
0.00291984
0.00293575
0.00294464
0.00295829
0.00296747
0.00297823
0.00298882
0.00299557
0.00301074
1e-15
1e-15
1e-15
1e-15
1e-15
1.08865e-15
8.90679e-15
1.86104e-14
1.14713e-13
2.92402e-13
3.85056e-13
6.31658e-13
1.59158e-12
5.0776e-12
3.85592e-11
2.83622e-11
3.48104e-12
2.82045e-10
2.72009e-10
4.07914e-09
8.76485e-09
2.44774e-08
6.78362e-08
1.98926e-07
2.6858e-07
1.66708e-06
2.91728e-06
8.99924e-06
1.83178e-05
4.11492e-05
8.36502e-05
0.00014517
0.000243913
0.000358467
0.000498675
0.000630987
0.000772177
0.000895842
0.00102493
0.00113028
0.00124274
0.00133603
0.0014384
0.00152142
0.00161611
0.00169168
0.0017779
0.0018439
0.0019207
0.0019781
0.00204685
0.00209688
0.00215844
0.00220178
0.00225689
0.00229441
0.0023436
0.00237607
0.00242002
0.00244814
0.00248761
0.00251213
0.00254761
0.00256901
0.00260094
0.00261975
0.00264846
0.00266509
0.00269092
0.00270586
0.00272897
0.00274271
0.00276307
0.00277623
0.00279356
0.00280706
0.00282067
0.00283573
0.00284461
0.00286492
1e-15
1e-15
1e-15
1e-15
1e-15
1e-15
1.18046e-15
2.07152e-15
7.21366e-15
2.01549e-14
1.27418e-14
1.56521e-13
8.80719e-14
1.78948e-13
1.4058e-13
7.02651e-13
1.08211e-13
8.37206e-12
1.82468e-11
1.14295e-10
2.87127e-10
5.37345e-10
2.38356e-09
6.15245e-09
2.73396e-08
6.05116e-08
3.97252e-08
3.50353e-07
5.41211e-07
2.05466e-06
3.98902e-06
1.01903e-05
2.11816e-05
4.29647e-05
8.62007e-05
0.000140072
0.000231583
0.000328301
0.000454703
0.000571495
0.000699557
0.000808893
0.000927352
0.00102445
0.00112886
0.00121378
0.00130984
0.0013865
0.00147492
0.00154482
0.00162799
0.00169146
0.00176741
0.00182319
0.00189191
0.00194117
0.00200352
0.00204722
0.00210359
0.00214208
0.00219299
0.00222686
0.00227264
0.00230255
0.00234371
0.00237031
0.00240732
0.0024312
0.00246433
0.00248598
0.00251534
0.00253542
0.00256098
0.00258029
0.00260187
0.00262145
0.00263844
0.00265942
0.00267107
0.00269797
1e-15
1e-15
1e-15
1e-15
1e-15
1e-15
1.03766e-15
1.00946e-15
1.12937e-15
1.63151e-15
1.73753e-15
1.00918e-15
2.22538e-14
4.44361e-14
3.52076e-14
1.19899e-14
4.70202e-15
2.87278e-13
1.50437e-12
8.85441e-12
1.82543e-11
5.26394e-11
7.30197e-11
2.81787e-10
7.45223e-10
1.41877e-09
9.78827e-09
5.42354e-09
1.79487e-08
5.46961e-08
7.90691e-08
3.73719e-07
6.35043e-07
2.06542e-06
4.11243e-06
9.72987e-06
2.01342e-05
3.88327e-05
7.59394e-05
0.000119277
0.000197639
0.000277893
0.000386681
0.000490271
0.00060757
0.000706602
0.000816027
0.000905133
0.00100516
0.0010836
0.00117423
0.00124545
0.00133015
0.00139453
0.00147372
0.00153364
0.00160835
0.00166319
0.00173166
0.00178071
0.00184315
0.0018873
0.00194427
0.00198429
0.00203589
0.00207214
0.00211861
0.00215171
0.00219315
0.00222364
0.00226017
0.00228886
0.00232044
0.00234821
0.00237474
0.00240251
0.00242357
0.00245225
0.00246745
0.00250284
1e-15
1e-15
1.01097e-15
1e-15
1e-15
1e-15
1e-15
1e-15
1.0116e-15
1e-15
1e-15
1e-15
1e-15
1e-15
1e-15
3.67503e-15
1.30779e-15
2.44552e-14
1.02898e-13
7.01599e-13
1.67118e-12
6.29424e-12
8.32954e-12
1.57447e-11
2.7918e-11
4.4418e-11
2.74371e-11
1.32778e-09
5.55223e-10
1.41091e-09
1.99832e-09
3.93039e-09
6.64449e-10
5.98291e-08
9.26287e-08
2.88195e-07
6.33798e-07
1.21377e-06
3.68328e-06
6.80307e-06
1.62245e-05
2.78817e-05
5.88313e-05
8.93028e-05
0.000152753
0.000214152
0.000306597
0.000391987
0.000499993
0.00059077
0.000694206
0.000776499
0.000871311
0.000945982
0.00103279
0.00109968
0.00118012
0.00124193
0.00131725
0.00137392
0.00144464
0.00149844
0.00156513
0.0016155
0.00167646
0.00172296
0.00177808
0.00182151
0.00187108
0.00191226
0.00195614
0.00199556
0.00203349
0.0020719
0.00210378
0.00214178
0.00216754
0.0022058
0.00222543
0.00227138
1e-15
1e-15
1e-15
1.01004e-15
1e-15
1e-15
1e-15
1e-15
1e-15
1e-15
1e-15
1e-15
1e-15
1e-15
1e-15
1e-15
1e-15
1.86449e-15
5.65541e-15
3.32668e-14
8.53196e-14
3.01726e-13
4.96315e-13
5.86094e-13
1.45555e-12
2.0162e-12
1.83184e-12
1.6567e-13
1.00809e-11
3.14748e-11
8.75511e-11
1.61924e-10
2.10245e-10
1.09975e-09
1.91296e-09
1.10814e-08
2.06504e-08
2.4303e-08
1.06337e-07
1.65139e-07
5.56062e-07
9.18165e-07
2.62082e-06
4.50652e-06
1.07539e-05
1.84853e-05
3.85863e-05
5.86535e-05
0.000105374
0.000147837
0.000221857
0.000289913
0.000381829
0.000463564
0.00056088
0.000639925
0.000730114
0.000801259
0.000883981
0.000949797
0.00102568
0.0010864
0.00115654
0.00121408
0.00127902
0.00133362
0.00139345
0.00144683
0.00150231
0.00155467
0.00160422
0.00165505
0.00169805
0.00174788