/*--------------------------------*- C++ -*----------------------------------*\
| =========                 |                                                 |
| \\      /  F ield         | OpenFOAM: The Open Source CFD Toolbox           |
|  \\    /   O peration     | Version:  v1912                                 |
|   \\  /    A nd           | Website:  www.openfoam.com                      |
|    \\/     M anipulation  |                                                 |
\*---------------------------------------------------------------------------*/
FoamFile
{
    version     2.0;
    format      ascii;
    class       volScalarField;
    location    "500";
    object      nut;
}
// * * * * * * * * * * * * * * * * * * * * * * * * * * * * * * * * * * * * * //

dimensions      [0 2 -1 0 0 0 0];


internalField   nonuniform List<scalar> 
10000
(
1.62469e-18
2.28005e-18
2.64349e-18
3.19341e-18
3.81871e-18
4.54215e-18
6.47032e-18
7.73256e-18
1.15185e-17
1.4061e-17
2.17167e-17
2.70826e-17
4.28037e-17
5.42528e-17
8.8359e-17
1.13628e-16
1.87811e-16
2.49723e-16
2.65918e-15
4.35446e-10
1.58876e-18
2.14908e-18
2.53295e-18
3.06257e-18
4.30933e-18
5.25128e-18
8.19298e-18
1.00358e-17
1.5644e-17
1.94491e-17
3.09271e-17
3.94178e-17
6.26295e-17
7.43693e-17
1.21853e-16
1.73984e-16
2.77302e-16
3.5602e-16
8.77838e-16
4.26746e-11
1.67339e-18
2.38832e-18
3.14654e-18
3.84624e-18
4.61601e-18
5.23914e-18
5.99442e-18
6.52695e-18
7.24209e-18
7.7013e-18
8.35137e-18
9.42787e-18
1.17041e-17
1.69875e-17
2.55378e-17
5.83223e-17
1.19911e-16
3.8387e-16
1.17578e-15
2.66093e-09
1.67556e-18
2.41742e-18
3.19177e-18
3.98242e-18
4.78374e-18
5.59112e-18
6.39748e-18
7.21518e-18
8.01246e-18
8.84326e-18
9.61704e-18
1.04685e-17
1.12036e-17
1.20848e-17
1.28146e-17
1.36865e-17
1.61216e-17
2.26548e-17
1.17916e-15
2.50943e-17
1.67563e-18
2.41799e-18
3.19216e-18
3.98501e-18
4.7866e-18
5.59863e-18
6.40796e-18
7.23242e-18
8.03964e-18
8.87769e-18
9.67374e-18
1.05325e-17
1.13034e-17
1.21985e-17
1.30687e-17
1.38723e-17
1.45813e-17
1.56266e-17
1.86121e-14
4.03183e-14
1.67565e-18
2.41797e-18
3.19223e-18
3.98482e-18
4.78711e-18
5.59791e-18
6.41676e-18
7.23054e-18
8.04426e-18
8.87382e-18
9.68384e-18
1.05239e-17
1.13256e-17
1.21794e-17
1.31052e-17
1.3846e-17
1.46048e-17
1.55422e-17
1.21239e-15
1.63836e-13
1.67566e-18
2.41792e-18
3.19226e-18
3.98457e-18
4.78741e-18
5.59707e-18
6.41095e-18
7.27762e-18
8.0473e-18
8.86892e-18
9.69045e-18
1.05146e-17
1.13379e-17
1.21778e-17
1.29879e-17
1.38159e-17
1.46387e-17
1.54754e-17
4.51e-17
4.28829e-14
1.67564e-18
2.41785e-18
3.19223e-18
3.98435e-18
4.78752e-18
5.59642e-18
6.41159e-18
7.22669e-18
8.04919e-18
8.86533e-18
9.69471e-18
1.05078e-17
1.14875e-17
1.21515e-17
1.30024e-17
1.37949e-17
1.46639e-17
1.54377e-17
1.37291e-15
1.80051e-15
1.6756e-18
2.41778e-18
3.19214e-18
3.98426e-18
4.78739e-18
5.59635e-18
6.41136e-18
7.22672e-18
8.04878e-18
8.86563e-18
9.69394e-18
1.05087e-17
1.13446e-17
1.23161e-17
1.29998e-17
1.37985e-17
1.46592e-17
1.54435e-17
4.72762e-17
1.22231e-15
1.67561e-18
2.41776e-18
3.19209e-18
3.98427e-18
4.78718e-18
5.59652e-18
6.41081e-18
7.22736e-18
8.04748e-18
8.86726e-18
9.69125e-18
1.05122e-17
1.13395e-17
1.216e-17
1.2991e-17
1.38095e-17
1.46452e-17
1.5461e-17
1.63971e-17
1.71161e-17
1.67563e-18
2.41775e-18
3.19203e-18
3.98425e-18
4.78701e-18
5.59658e-18
6.41038e-18
7.22769e-18
8.04658e-18
8.86814e-18
9.6895e-18
1.0514e-17
1.13363e-17
1.21635e-17
1.29857e-17
1.38156e-17
1.46368e-17
1.54703e-17
1.6289e-17
1.71283e-17
1.67562e-18
2.41771e-18
3.19197e-18
3.98416e-18
4.7869e-18
5.59645e-18
6.41025e-18
7.22747e-18
8.04643e-18
8.86782e-18
9.6894e-18
1.05135e-17
1.13364e-17
1.21627e-17
1.2986e-17
1.38144e-17
1.46374e-17
1.54684e-17
1.62906e-17
1.71249e-17
1.67562e-18
2.41767e-18
3.19192e-18
3.98408e-18
4.78681e-18
5.5963e-18
6.41014e-18
7.22725e-18
8.04634e-18
8.86746e-18
9.68937e-18
1.0513e-17
1.13365e-17
1.21619e-17
1.29863e-17
1.38132e-17
1.46382e-17
1.54666e-17
1.62919e-17
1.71223e-17
1.67561e-18
2.41763e-18
3.19186e-18
3.984e-18
4.7867e-18
5.59618e-18
6.40998e-18
7.22709e-18
8.04612e-18
8.8673e-18
9.68906e-18
1.05128e-17
1.13361e-17
1.2337e-17
1.29857e-17
1.38133e-17
1.46373e-17
1.54669e-17
1.62907e-17
1.71229e-17
1.67562e-18
2.4176e-18
3.19181e-18
3.98392e-18
4.78661e-18
5.59606e-18
6.449e-18
7.22694e-18
8.04593e-18
8.86711e-18
9.68882e-18
1.05126e-17
1.15092e-17
1.21616e-17
1.29853e-17
1.3813e-17
1.46368e-17
1.54667e-17
1.62901e-17
1.71227e-17
1.67563e-18
2.41757e-18
3.19177e-18
3.98385e-18
4.78652e-18
5.59593e-18
6.40973e-18
7.22672e-18
8.04582e-18
8.86678e-18
9.68875e-18
1.05392e-17
1.13358e-17
1.21608e-17
1.29855e-17
1.3812e-17
1.46373e-17
1.5574e-17
1.6291e-17
1.71205e-17
1.67563e-18
2.41753e-18
3.19172e-18
3.98377e-18
4.78643e-18
5.59579e-18
6.40961e-18
7.22652e-18
8.04569e-18
8.86647e-18
9.69539e-18
1.05117e-17
1.13358e-17
1.21602e-17
1.29857e-17
1.3811e-17
1.47506e-17
1.54638e-17
1.62918e-17
1.71186e-17
1.67563e-18
2.4175e-18
3.19166e-18
3.98369e-18
4.78633e-18
5.59567e-18
6.40946e-18
7.22635e-18
8.04549e-18
8.86627e-18
9.70217e-18
1.05114e-17
1.13355e-17
1.21599e-17
1.29853e-17
1.38107e-17
1.46373e-17
1.56757e-17
1.62912e-17
1.71183e-17
1.67563e-18
2.41746e-18
3.1916e-18
3.98361e-18
4.78622e-18
5.59556e-18
6.40929e-18
7.22623e-18
8.04524e-18
9.00331e-18
9.68803e-18
1.05113e-17
1.13349e-17
1.21599e-17
1.29845e-17
1.38109e-17
1.46362e-17
1.54639e-17
1.62897e-17
1.71191e-17
1.67562e-18
2.41742e-18
3.19154e-18
3.98353e-18
4.78611e-18
5.59543e-18
6.40913e-18
7.22605e-18
8.04502e-18
8.86594e-18
9.70648e-18
1.05111e-17
1.13346e-17
1.21597e-17
1.29841e-17
1.38106e-17
1.46356e-17
1.54636e-17
1.6289e-17
1.71187e-17
1.67559e-18
2.41736e-18
3.19146e-18
3.98343e-18
4.78598e-18
5.59528e-18
6.40896e-18
7.22586e-18
8.0448e-18
8.86569e-18
9.68748e-18
1.05108e-17
1.13342e-17
1.21593e-17
1.29837e-17
1.40264e-17
1.46353e-17
1.5463e-17
1.62887e-17
1.71179e-17
1.67556e-18
2.41729e-18
3.19137e-18
3.98332e-18
4.78584e-18
5.59512e-18
6.40874e-18
7.22563e-18
8.0445e-18
8.86539e-18
9.84834e-18
1.05104e-17
1.13337e-17
1.21588e-17
1.2983e-17
1.38095e-17
1.47526e-17
1.54622e-17
1.62875e-17
1.71168e-17
1.67545e-18
2.41715e-18
3.19122e-18
3.98314e-18
4.78566e-18
5.59492e-18
6.40856e-18
7.22541e-18
8.04432e-18
9.00994e-18
9.68692e-18
1.05102e-17
1.13336e-17
1.21585e-17
1.2983e-17
1.3914e-17
1.46345e-17
1.5462e-17
1.62878e-17
1.71166e-17
1.67548e-18
2.41716e-18
3.19121e-18
3.98311e-18
4.78563e-18
5.59481e-18
6.4085e-18
7.22521e-18
8.17112e-18
8.86482e-18
9.68687e-18
1.05096e-17
1.13336e-17
1.21577e-17
1.30812e-17
1.38082e-17
1.46346e-17
1.54605e-17
1.62879e-17
1.71146e-17
1.67563e-18
2.4173e-18
3.19134e-18
3.98321e-18
4.78572e-18
5.59487e-18
6.40855e-18
7.22519e-18
8.04424e-18
9.01086e-18
9.68676e-18
1.05093e-17
1.13334e-17
1.21572e-17
1.29827e-17
1.38074e-17
1.46341e-17
1.54593e-17
1.62872e-17
1.72476e-17
1.67575e-18
2.41742e-18
3.19145e-18
3.98332e-18
4.78582e-18
5.59499e-18
6.40865e-18
7.22535e-18
8.04437e-18
8.86493e-18
9.68695e-18
1.05097e-17
1.13336e-17
1.21578e-17
1.31561e-17
1.38082e-17
1.46346e-17
1.54605e-17
1.62879e-17
1.71145e-17
1.6758e-18
2.41746e-18
3.19148e-18
3.98336e-18
4.78584e-18
5.59502e-18
6.46819e-18
7.2254e-18
8.04437e-18
8.86501e-18
9.68694e-18
1.05099e-17
1.13336e-17
1.23304e-17
1.29831e-17
1.38086e-17
1.46346e-17
1.5461e-17
1.62879e-17
1.71152e-17
1.67581e-18
2.41746e-18
3.19147e-18
3.98334e-18
4.78582e-18
5.59809e-18
6.40862e-18
7.22536e-18
8.04431e-18
8.86497e-18
9.68686e-18
1.05098e-17
1.1494e-17
1.2158e-17
1.29829e-17
1.38086e-17
1.46344e-17
1.5461e-17
1.64346e-17
1.71152e-17
1.67582e-18
2.41746e-18
3.19146e-18
3.98332e-18
4.78578e-18
5.59496e-18
6.40857e-18
7.22531e-18
8.04424e-18
8.86489e-18
9.68676e-18
1.06505e-17
1.13334e-17
1.21579e-17
1.29828e-17
1.38084e-17
1.46342e-17
1.55977e-17
1.62874e-17
1.7115e-17
1.67582e-18
2.41746e-18
3.19144e-18
3.9833e-18
4.78575e-18
5.59491e-18
6.40852e-18
7.22524e-18
8.04417e-18
8.86482e-18
9.68668e-18
1.05096e-17
1.13333e-17
1.21578e-17
1.29827e-17
1.38083e-17
1.47382e-17
1.54607e-17
1.62872e-17
1.71147e-17
1.67582e-18
2.41745e-18
3.19143e-18
3.98328e-18
4.78572e-18
5.60088e-18
6.40847e-18
7.22519e-18
8.04411e-18
8.86475e-18
9.6866e-18
1.05096e-17
1.13332e-17
1.21577e-17
1.29825e-17
1.40338e-17
1.46339e-17
1.54605e-17
1.6287e-17
1.71145e-17
1.67583e-18
2.41745e-18
3.19142e-18
3.98325e-18
4.78569e-18
5.59484e-18
6.47201e-18
7.22513e-18
8.04405e-18
8.86468e-18
9.68652e-18
1.05095e-17
1.14078e-17
1.21576e-17
1.29824e-17
1.38081e-17
1.46338e-17
1.54604e-17
1.62868e-17
1.71143e-17
1.67583e-18
2.41745e-18
3.1914e-18
3.98324e-18
4.78567e-18
5.60082e-18
6.40839e-18
7.22509e-18
8.04399e-18
8.86462e-18
9.68645e-18
1.05641e-17
1.1333e-17
1.21575e-17
1.29823e-17
1.38079e-17
1.46336e-17
1.56012e-17
1.62866e-17
1.7114e-17
1.67583e-18
2.41744e-18
3.19139e-18
3.98322e-18
4.78564e-18
5.59477e-18
6.40835e-18
7.22504e-18
8.04394e-18
8.86456e-18
9.71665e-18
1.05093e-17
1.13329e-17
1.21574e-17
1.29822e-17
1.38078e-17
1.4766e-17
1.546e-17
1.62864e-17
1.71138e-17
1.67583e-18
2.41744e-18
3.19138e-18
3.9832e-18
4.78562e-18
5.60175e-18
6.40831e-18
7.225e-18
8.04389e-18
8.8645e-18
9.68632e-18
1.05652e-17
1.13329e-17
1.21573e-17
1.29821e-17
1.38077e-17
1.46334e-17
1.54599e-17
1.62862e-17
1.71135e-17
1.67583e-18
2.41744e-18
3.19137e-18
3.98319e-18
4.7856e-18
5.59472e-18
6.40828e-18
7.22496e-18
8.04385e-18
8.86445e-18
9.68627e-18
1.05092e-17
1.13328e-17
1.21572e-17
1.2982e-17
1.38076e-17
1.46333e-17
1.54597e-17
1.62861e-17
1.71133e-17
1.67583e-18
2.41744e-18
3.19137e-18
3.98317e-18
4.78558e-18
5.5947e-18
6.40825e-18
7.22493e-18
8.12003e-18
8.8644e-18
9.68621e-18
1.05091e-17
1.13327e-17
1.21571e-17
1.3094e-17
1.38075e-17
1.46331e-17
1.54596e-17
1.62859e-17
1.71131e-17
1.67583e-18
2.41744e-18
3.19136e-18
3.98316e-18
4.78557e-18
5.59467e-18
6.40823e-18
7.22489e-18
8.17896e-18
8.86436e-18
9.68616e-18
1.05091e-17
1.13327e-17
1.21571e-17
1.30916e-17
1.38074e-17
1.4633e-17
1.54594e-17
1.62857e-17
1.71128e-17
1.67584e-18
2.41744e-18
3.19135e-18
3.98315e-18
4.78555e-18
5.59465e-18
6.4082e-18
7.22487e-18
8.17941e-18
8.86432e-18
9.68612e-18
1.0509e-17
1.13326e-17
1.2157e-17
1.30928e-17
1.38073e-17
1.46329e-17
1.54593e-17
1.62855e-17
1.71126e-17
1.67584e-18
2.41744e-18
3.19135e-18
3.98314e-18
4.78554e-18
5.59464e-18
6.40818e-18
7.22484e-18
8.04371e-18
9.02079e-18
9.68608e-18
1.0509e-17
1.13325e-17
1.21569e-17
1.29817e-17
1.38072e-17
1.46328e-17
1.54592e-17
1.62853e-17
1.71124e-17
1.67584e-18
2.41744e-18
3.19135e-18
3.98313e-18
4.78553e-18
5.59462e-18
6.40816e-18
7.22482e-18
8.04368e-18
8.86425e-18
9.71746e-18
1.05089e-17
1.13325e-17
1.21569e-17
1.29816e-17
1.38071e-17
1.4766e-17
1.5459e-17
1.62852e-17
1.71122e-17
1.67584e-18
2.41744e-18
3.19134e-18
3.98313e-18
4.78552e-18
5.5946e-18
6.40814e-18
7.22479e-18
8.04365e-18
8.86421e-18
9.686e-18
1.05089e-17
1.13324e-17
1.21568e-17
1.29815e-17
1.39287e-17
1.46326e-17
1.54589e-17
1.6285e-17
1.7112e-17
1.67584e-18
2.41744e-18
3.19134e-18
3.98312e-18
4.78551e-18
5.59459e-18
6.40813e-18
7.22477e-18
8.1787e-18
8.86418e-18
9.68596e-18
1.05088e-17
1.13324e-17
1.21567e-17
1.30882e-17
1.38069e-17
1.46324e-17
1.54587e-17
1.62848e-17
1.71118e-17
1.67584e-18
2.41744e-18
3.19134e-18
3.98311e-18
4.7855e-18
5.59458e-18
6.40811e-18
7.22475e-18
8.0436e-18
8.86415e-18
9.68593e-18
1.05088e-17
1.13323e-17
1.2371e-17
1.29814e-17
1.38068e-17
1.46323e-17
1.54586e-17
1.62846e-17
1.72671e-17
1.67584e-18
2.41744e-18
3.19134e-18
3.98311e-18
4.78549e-18
5.59457e-18
6.4081e-18
7.22473e-18
8.04358e-18
8.86413e-18
9.68589e-18
1.05087e-17
1.13323e-17
1.21566e-17
1.30462e-17
1.38067e-17
1.46322e-17
1.54584e-17
1.62844e-17
1.71113e-17
1.67584e-18
2.41744e-18
3.19133e-18
3.98311e-18
4.78548e-18
5.60391e-18
6.40808e-18
7.22472e-18
8.04356e-18
8.8641e-18
9.68586e-18
1.05087e-17
1.13322e-17
1.21566e-17
1.29812e-17
1.38877e-17
1.46321e-17
1.54583e-17
1.62843e-17
1.71111e-17
1.67584e-18
2.41744e-18
3.19133e-18
3.9831e-18
4.78548e-18
5.59455e-18
6.40807e-18
7.2247e-18
8.04354e-18
8.86408e-18
9.71815e-18
1.05087e-17
1.13322e-17
1.21565e-17
1.29812e-17
1.38065e-17
1.47681e-17
1.54581e-17
1.62841e-17
1.71109e-17
1.67584e-18
2.41744e-18
3.19133e-18
3.9831e-18
4.78547e-18
5.60411e-18
6.40806e-18
7.22469e-18
8.04352e-18
8.86405e-18
9.6858e-18
1.05676e-17
1.13321e-17
1.21564e-17
1.29811e-17
1.38064e-17
1.46319e-17
1.56055e-17
1.62839e-17
1.71106e-17
1.67584e-18
2.41744e-18
3.19133e-18
3.9831e-18
4.78547e-18
5.59454e-18
6.40805e-18
7.22467e-18
8.0435e-18
8.86403e-18
9.71797e-18
1.05086e-17
1.13321e-17
1.21564e-17
1.2981e-17
1.38063e-17
1.47671e-17
1.54579e-17
1.62837e-17
1.71104e-17
1.67584e-18
2.41744e-18
3.19133e-18
3.98309e-18
4.78546e-18
5.60407e-18
6.40804e-18
7.22466e-18
8.04348e-18
8.86401e-18
9.68574e-18
1.05675e-17
1.1332e-17
1.21563e-17
1.29809e-17
1.38063e-17
1.46316e-17
1.56049e-17
1.62835e-17
1.71102e-17
1.67584e-18
2.41744e-18
3.19133e-18
3.98309e-18
4.78546e-18
5.59452e-18
6.40803e-18
7.22465e-18
8.04347e-18
8.86398e-18
9.71881e-18
1.05085e-17
1.1332e-17
1.21563e-17
1.29808e-17
1.38062e-17
1.47695e-17
1.54576e-17
1.62833e-17
1.711e-17
1.67584e-18
2.41744e-18
3.19133e-18
3.98309e-18
4.78546e-18
5.59452e-18
6.40802e-18
7.22463e-18
8.04345e-18
8.86396e-18
9.71968e-18
1.05085e-17
1.13319e-17
1.21562e-17
1.29808e-17
1.3806e-17
1.47688e-17
1.54574e-17
1.62832e-17
1.71098e-17
1.67584e-18
2.41744e-18
3.19133e-18
3.98309e-18
4.78545e-18
5.60425e-18
6.40801e-18
7.22462e-18
8.04343e-18
8.86394e-18
9.68565e-18
1.05084e-17
1.13319e-17
1.21561e-17
1.29807e-17
1.40403e-17
1.46312e-17
1.54572e-17
1.6283e-17
1.71095e-17
1.67584e-18
2.41744e-18
3.19133e-18
3.98309e-18
4.78545e-18
5.59451e-18
6.40801e-18
7.22461e-18
8.04342e-18
8.86391e-18
9.71903e-18
1.05084e-17
1.13318e-17
1.21561e-17
1.29806e-17
1.38058e-17
1.47682e-17
1.54571e-17
1.62828e-17
1.71093e-17
1.67584e-18
2.41744e-18
3.19133e-18
3.98309e-18
4.78545e-18
5.60428e-18
6.408e-18
7.2246e-18
8.0434e-18
8.86389e-18
9.68559e-18
1.05678e-17
1.13318e-17
1.2156e-17
1.29805e-17
1.38058e-17
1.4631e-17
1.56049e-17
1.62826e-17
1.71091e-17
1.67584e-18
2.41744e-18
3.19133e-18
3.98309e-18
4.78544e-18
5.5945e-18
6.40799e-18
7.22459e-18
8.04338e-18
8.86387e-18
9.71838e-18
1.05083e-17
1.13317e-17
1.21559e-17
1.29804e-17
1.38056e-17
1.47682e-17
1.54568e-17
1.62824e-17
1.71089e-17
1.67584e-18
2.41744e-18
3.19133e-18
3.98309e-18
4.78544e-18
5.59449e-18
6.40798e-18
7.22458e-18
8.17895e-18
8.86385e-18
9.68552e-18
1.05083e-17
1.13317e-17
1.21559e-17
1.29803e-17
1.38055e-17
1.48313e-17
1.54567e-17
1.62822e-17
1.71087e-17
1.67584e-18
2.41744e-18
3.19133e-18
3.98308e-18
4.78544e-18
5.59449e-18
6.40798e-18
7.32229e-18
8.04335e-18
8.86383e-18
9.68549e-18
1.05082e-17
1.13316e-17
1.21558e-17
1.29803e-17
1.38054e-17
1.48737e-17
1.54565e-17
1.62821e-17
1.71086e-17
1.67584e-18
2.41744e-18
3.19133e-18
3.98308e-18
4.78544e-18
5.59449e-18
6.47525e-18
7.22456e-18
8.04334e-18
8.86381e-18
9.68546e-18
1.05082e-17
1.14106e-17
1.21557e-17
1.29802e-17
1.38053e-17
1.48549e-17
1.54564e-17
1.62819e-17
1.71084e-17
1.67584e-18
2.41744e-18
3.19133e-18
3.98308e-18
4.78544e-18
5.59448e-18
6.40796e-18
7.22455e-18
8.04332e-18
8.86378e-18
9.68543e-18
1.05626e-17
1.13315e-17
1.21557e-17
1.29801e-17
1.38052e-17
1.46303e-17
1.54562e-17
1.62817e-17
1.71082e-17
1.67584e-18
2.41744e-18
3.19133e-18
3.98308e-18
4.78543e-18
5.59448e-18
6.40796e-18
7.22454e-18
8.0433e-18
8.86376e-18
9.71803e-18
1.05081e-17
1.13315e-17
1.21556e-17
1.298e-17
1.38051e-17
1.47676e-17
1.54561e-17
1.62816e-17
1.7108e-17
1.67584e-18
2.41744e-18
3.19133e-18
3.98308e-18
4.78543e-18
5.59447e-18
6.40795e-18
7.22453e-18
8.04329e-18
8.86374e-18
9.68537e-18
1.05081e-17
1.13314e-17
1.21555e-17
1.29799e-17
1.39283e-17
1.46301e-17
1.5456e-17
1.62814e-17
1.71078e-17
1.67584e-18
2.41744e-18
3.19133e-18
3.98308e-18
4.78543e-18
5.59447e-18
6.40794e-18
7.22451e-18
8.12134e-18
8.86372e-18
9.68535e-18
1.0508e-17
1.13314e-17
1.21555e-17
1.3094e-17
1.3805e-17
1.463e-17
1.54558e-17
1.62813e-17
1.71077e-17
1.67584e-18
2.41744e-18
3.19133e-18
3.98308e-18
4.78543e-18
5.59447e-18
6.40794e-18
7.22451e-18
8.04326e-18
9.01806e-18
9.68532e-18
1.0508e-17
1.13313e-17
1.21554e-17
1.29798e-17
1.39247e-17
1.46299e-17
1.54557e-17
1.62812e-17
1.71075e-17
1.67584e-18
2.41744e-18
3.19133e-18
3.98308e-18
4.78543e-18
5.59446e-18
6.40793e-18
7.2245e-18
8.04325e-18
8.86368e-18
9.71804e-18
1.0508e-17
1.13313e-17
1.21554e-17
1.29797e-17
1.38048e-17
1.47661e-17
1.54556e-17
1.6281e-17
1.71074e-17
1.67584e-18
2.41744e-18
3.19133e-18
3.98308e-18
4.78542e-18
5.59446e-18
6.40792e-18
7.22449e-18
8.04323e-18
8.86366e-18
9.68527e-18
1.05626e-17
1.13312e-17
1.21553e-17
1.29797e-17
1.38047e-17
1.46297e-17
1.56021e-17
1.62809e-17
1.71073e-17
1.67584e-18
2.41744e-18
3.19133e-18
3.98308e-18
4.78542e-18
5.59446e-18
6.47517e-18
7.22448e-18
8.04322e-18
8.86364e-18
9.68525e-18
1.05079e-17
1.14105e-17
1.21553e-17
1.29796e-17
1.38047e-17
1.46297e-17
1.54554e-17
1.62808e-17
1.71071e-17
1.67584e-18
2.41744e-18
3.19133e-18
3.98308e-18
4.78542e-18
5.59445e-18
6.40791e-18
7.33196e-18
8.04321e-18
8.86363e-18
9.68522e-18
1.05079e-17
1.13312e-17
1.22506e-17
1.29796e-17
1.38046e-17
1.46296e-17
1.54553e-17
1.62807e-17
1.71071e-17
1.67584e-18
2.41744e-18
3.19133e-18
3.98308e-18
4.78542e-18
5.59445e-18
6.40791e-18
7.22446e-18
8.12121e-18
8.86361e-18
9.68521e-18
1.05079e-17
1.13311e-17
1.21552e-17
1.30932e-17
1.38046e-17
1.46295e-17
1.54553e-17
1.62807e-17
1.7107e-17
1.67584e-18
2.41744e-18
3.19133e-18
3.98308e-18
4.78542e-18
5.59445e-18
6.40791e-18
7.22446e-18
8.04319e-18
8.8636e-18
9.68519e-18
1.05078e-17
1.13311e-17
1.23682e-17
1.29795e-17
1.38045e-17
1.46295e-17
1.54552e-17
1.62806e-17
1.71069e-17
1.67584e-18
2.41744e-18
3.19133e-18
3.98308e-18
4.78542e-18
5.59445e-18
6.47526e-18
7.22445e-18
8.04318e-18
8.86359e-18
9.68517e-18
1.05078e-17
1.14101e-17
1.21551e-17
1.29794e-17
1.38045e-17
1.46294e-17
1.54552e-17
1.62805e-17
1.71068e-17
1.67584e-18
2.41744e-18
3.19133e-18
3.98308e-18
4.78542e-18
5.59445e-18
6.4079e-18
7.22445e-18
8.04317e-18
8.86358e-18
9.68516e-18
1.06948e-17
1.13311e-17
1.21551e-17
1.29794e-17
1.38044e-17
1.46294e-17
1.55939e-17
1.62805e-17
1.71068e-17
1.67584e-18
2.41744e-18
3.19132e-18
3.98308e-18
4.78542e-18
5.59444e-18
6.4079e-18
7.22444e-18
8.04317e-18
8.86357e-18
9.85891e-18
1.05078e-17
1.1331e-17
1.21551e-17
1.29794e-17
1.38044e-17
1.47592e-17
1.54551e-17
1.62804e-17
1.71068e-17
1.67584e-18
2.41744e-18
3.19132e-18
3.98307e-18
4.78542e-18
5.60431e-18
6.4079e-18
7.22444e-18
8.04317e-18
8.86356e-18
9.68515e-18
1.05078e-17
1.1331e-17
1.21551e-17
1.29794e-17
1.38862e-17
1.46294e-17
1.5455e-17
1.62804e-17
1.71067e-17
1.67584e-18
2.41744e-18
3.19132e-18
3.98307e-18
4.78541e-18
5.59444e-18
6.40789e-18
7.22444e-18
8.04316e-18
9.02071e-18
9.68514e-18
1.05078e-17
1.1331e-17
1.21551e-17
1.29794e-17
1.39249e-17
1.46293e-17
1.5455e-17
1.62804e-17
1.71067e-17
1.67584e-18
2.41744e-18
3.19132e-18
3.98307e-18
4.78541e-18
5.59444e-18
6.40789e-18
7.22443e-18
8.17355e-18
8.86356e-18
9.68513e-18
1.05078e-17
1.1331e-17
1.2155e-17
1.30865e-17
1.38043e-17
1.46293e-17
1.5455e-17
1.62804e-17
1.71067e-17
1.67584e-18
2.41744e-18
3.19132e-18
3.98307e-18
4.78541e-18
5.59444e-18
6.40789e-18
7.22443e-18
8.17932e-18
8.86356e-18
9.68513e-18
1.05078e-17
1.1331e-17
1.2155e-17
1.3088e-17
1.38044e-17
1.46293e-17
1.5455e-17
1.62804e-17
1.71067e-17
1.67584e-18
2.41744e-18
3.19132e-18
3.98307e-18
4.78541e-18
5.59444e-18
6.40789e-18
7.22443e-18
8.04316e-18
9.02065e-18
9.68513e-18
1.05078e-17
1.1331e-17
1.2155e-17
1.29793e-17
1.39247e-17
1.46293e-17
1.5455e-17
1.62804e-17
1.71067e-17
1.67584e-18
2.41744e-18
3.19132e-18
3.98307e-18
4.78541e-18
5.59444e-18
6.40789e-18
7.22443e-18
8.04316e-18
8.86355e-18
9.85868e-18
1.05078e-17
1.1331e-17
1.2155e-17
1.29793e-17
1.38044e-17
1.47597e-17
1.5455e-17
1.62804e-17
1.71067e-17
1.67584e-18
2.41744e-18
3.19132e-18
3.98307e-18
4.78541e-18
5.59444e-18
6.40789e-18
7.33195e-18
8.04316e-18
8.86356e-18
9.71879e-18
1.05078e-17
1.1331e-17
1.21551e-17
1.29794e-17
1.38044e-17
1.47694e-17
1.54551e-17
1.62804e-17
1.71067e-17
1.67584e-18
2.41744e-18
3.19132e-18
3.98307e-18
4.78541e-18
5.59444e-18
6.47527e-18
7.22443e-18
8.04316e-18
8.86356e-18
9.68513e-18
1.05078e-17
1.14103e-17
1.21551e-17
1.29794e-17
1.38044e-17
1.46293e-17
1.54551e-17
1.64366e-17
1.71068e-17
1.67584e-18
2.41744e-18
3.19132e-18
3.98307e-18
4.78541e-18
5.60427e-18
6.40789e-18
7.22444e-18
8.04316e-18
8.86356e-18
9.68513e-18
1.0567e-17
1.1331e-17
1.21551e-17
1.29794e-17
1.38044e-17
1.46294e-17
1.5602e-17
1.62805e-17
1.71068e-17
1.67584e-18
2.41744e-18
3.19132e-18
3.98307e-18
4.78541e-18
5.59444e-18
6.47527e-18
7.22444e-18
8.04316e-18
8.86356e-18
9.68514e-18
1.05078e-17
1.1331e-17
1.21551e-17
1.29794e-17
1.38044e-17
1.48699e-17
1.54551e-17
1.62805e-17
1.71068e-17
1.67584e-18
2.41744e-18
3.19132e-18
3.98307e-18
4.78541e-18
5.59444e-18
6.40789e-18
7.33196e-18
8.04316e-18
8.86356e-18
9.68514e-18
1.06608e-17
1.1331e-17
1.21551e-17
1.29794e-17
1.38044e-17
1.46294e-17
1.56029e-17
1.62805e-17
1.71068e-17
1.67584e-18
2.41744e-18
3.19132e-18
3.98307e-18
4.78541e-18
5.59444e-18
6.47527e-18
7.22444e-18
8.04316e-18
8.86357e-18
9.68515e-18
1.05078e-17
1.14104e-17
1.21551e-17
1.29794e-17
1.38044e-17
1.46294e-17
1.54551e-17
1.64369e-17
1.71069e-17
1.67584e-18
2.41744e-18
3.19132e-18
3.98307e-18
4.78541e-18
5.60423e-18
6.40789e-18
7.22444e-18
8.04317e-18
8.86357e-18
9.68515e-18
1.05669e-17
1.1331e-17
1.21551e-17
1.29794e-17
1.38044e-17
1.46294e-17
1.56025e-17
1.62806e-17
1.71069e-17
1.67584e-18
2.41744e-18
3.19132e-18
3.98307e-18
4.78541e-18
5.59444e-18
6.40789e-18
7.22444e-18
8.04317e-18
8.86357e-18
9.71787e-18
1.05078e-17
1.13311e-17
1.21551e-17
1.29794e-17
1.38045e-17
1.47657e-17
1.54552e-17
1.62806e-17
1.71069e-17
1.67584e-18
2.41744e-18
3.19132e-18
3.98307e-18
4.78541e-18
5.59444e-18
6.4079e-18
7.22444e-18
8.04317e-18
9.02065e-18
9.68516e-18
1.05078e-17
1.13311e-17
1.21551e-17
1.29794e-17
1.39247e-17
1.46295e-17
1.54552e-17
1.62806e-17
1.7107e-17
1.67584e-18
2.41744e-18
3.19132e-18
3.98307e-18
4.78541e-18
5.59444e-18
6.4079e-18
7.22444e-18
8.17923e-18
8.86358e-18
9.68516e-18
1.05078e-17
1.13311e-17
1.21551e-17
1.30875e-17
1.38045e-17
1.46295e-17
1.54552e-17
1.62806e-17
1.7107e-17
1.67584e-18
2.41744e-18
3.19132e-18
3.98307e-18
4.78541e-18
5.59444e-18
6.4079e-18
7.22444e-18
8.04317e-18
8.86358e-18
9.68516e-18
1.05078e-17
1.13311e-17
1.21551e-17
1.29795e-17
1.39279e-17
1.46295e-17
1.54553e-17
1.62807e-17
1.7107e-17
1.67584e-18
2.41744e-18
3.19132e-18
3.98307e-18
4.78541e-18
5.59444e-18
6.4079e-18
7.22445e-18
8.04317e-18
8.86358e-18
9.68517e-18
1.05078e-17
1.13311e-17
1.21551e-17
1.29795e-17
1.39281e-17
1.46295e-17
1.54553e-17
1.62807e-17
1.7107e-17
1.67584e-18
2.41744e-18
3.19132e-18
3.98307e-18
4.78541e-18
5.59444e-18
6.4079e-18
7.22445e-18
8.04318e-18
8.86359e-18
9.71793e-18
1.05078e-17
1.13311e-17
1.21552e-17
1.29795e-17
1.38045e-17
1.47658e-17
1.54553e-17
1.62807e-17
1.71071e-17
1.67584e-18
2.41744e-18
3.19132e-18
3.98307e-18
4.78541e-18
5.60421e-18
6.4079e-18
7.22445e-18
8.04318e-18
8.86359e-18
9.68517e-18
1.05669e-17
1.13311e-17
1.21552e-17
1.29795e-17
1.38045e-17
1.46295e-17
1.56026e-17
1.62807e-17
1.71071e-17
1.67584e-18
2.41744e-18
3.19132e-18
3.98307e-18
4.78541e-18
5.59444e-18
6.45873e-18
7.22445e-18
8.04318e-18
8.86359e-18
9.68518e-18
1.05078e-17
1.14077e-17
1.21552e-17
1.29795e-17
1.38045e-17
1.46296e-17
1.54553e-17
1.64368e-17
1.71071e-17
1.67584e-18
2.41744e-18
3.19132e-18
3.98307e-18
4.78541e-18
5.59444e-18
6.4079e-18
7.22445e-18
8.04318e-18
8.86359e-18
9.68518e-18
1.05078e-17
1.13311e-17
1.23641e-17
1.29795e-17
1.38046e-17
1.46296e-17
1.54553e-17
1.62808e-17
1.72626e-17
1.67584e-18
2.41744e-18
3.19132e-18
3.98307e-18
4.78541e-18
5.59444e-18
6.47526e-18
7.22445e-18
8.04318e-18
8.86359e-18
9.68518e-18
1.05078e-17
1.14104e-17
1.21552e-17
1.29795e-17
1.38046e-17
1.46296e-17
1.54554e-17
1.64372e-17
1.71072e-17
1.67584e-18
2.41744e-18
3.19132e-18
3.98307e-18
4.78541e-18
5.59444e-18
6.4079e-18
7.33197e-18
8.04318e-18
8.86359e-18
9.68518e-18
1.05078e-17
1.13311e-17
1.22505e-17
1.29795e-17
1.38046e-17
1.46296e-17
1.54554e-17
1.62808e-17
1.71072e-17
1.67584e-18
2.41744e-18
3.19132e-18
3.98307e-18
4.78541e-18
5.59444e-18
6.47527e-18
7.22445e-18
8.04318e-18
8.86359e-18
9.68519e-18
1.05078e-17
1.14104e-17
1.21552e-17
1.29795e-17
1.38046e-17
1.46296e-17
1.54554e-17
1.64372e-17
1.71072e-17
1.67584e-18
2.41744e-18
3.19132e-18
3.98307e-18
4.78541e-18
5.60422e-18
6.4079e-18
7.22445e-18
8.04318e-18
8.86359e-18
9.68519e-18
1.0567e-17
1.13311e-17
1.21552e-17
1.29795e-17
1.38046e-17
1.46296e-17
1.56029e-17
1.62809e-17
1.71072e-17
1.67584e-18
2.41743e-18
3.19132e-18
3.98307e-18
4.78541e-18
5.59444e-18
6.4079e-18
7.22445e-18
8.04318e-18
8.8636e-18
9.71789e-18
1.05078e-17
1.13311e-17
1.21552e-17
1.29795e-17
1.38046e-17
1.47658e-17
1.54554e-17
1.62808e-17
1.71072e-17
5.89454e-07
6.44616e-07
6.06321e-07
5.72722e-07
5.67901e-07
5.69672e-07
5.73252e-07
5.75172e-07
5.76196e-07
5.74923e-07
5.73163e-07
5.70768e-07
5.68451e-07
5.65848e-07
5.63648e-07
5.61248e-07
5.59355e-07
5.57178e-07
5.55501e-07
5.53497e-07
5.51984e-07
5.50169e-07
5.4883e-07
5.47181e-07
5.45969e-07
5.44429e-07
5.43322e-07
5.41886e-07
5.40884e-07
5.39544e-07
5.3864e-07
5.37385e-07
5.36557e-07
5.3536e-07
5.34591e-07
5.33455e-07
5.3275e-07
5.31671e-07
5.31024e-07
5.29997e-07
5.29403e-07
5.28415e-07
5.27862e-07
5.2691e-07
5.26396e-07
5.25481e-07
5.25004e-07
5.24125e-07
5.23682e-07
5.22833e-07
5.22416e-07
5.21598e-07
5.21197e-07
5.20421e-07
5.20029e-07
5.19293e-07
5.18911e-07
5.18213e-07
5.17839e-07
5.17173e-07
5.16806e-07
5.16169e-07
5.15808e-07
5.15201e-07
5.14847e-07
5.14269e-07
5.13919e-07
5.13369e-07
5.13024e-07
5.12498e-07
5.12156e-07
5.11653e-07
5.11317e-07
5.10832e-07
5.10502e-07
5.10034e-07
5.09713e-07
5.09258e-07
5.08952e-07
5.08449e-07
6.24469e-07
1.02797e-06
1.72247e-06
2.5231e-06
3.07662e-06
3.52066e-06
3.86542e-06
4.10605e-06
4.27564e-06
4.36152e-06
4.41845e-06
4.45394e-06
4.47642e-06
4.49099e-06
4.5029e-06
4.51047e-06
4.51936e-06
4.52247e-06
4.528e-06
4.52756e-06
4.53049e-06
4.52912e-06
4.5309e-06
4.52884e-06
4.52898e-06
4.52558e-06
4.52479e-06
4.52082e-06
4.51963e-06
4.51542e-06
4.51414e-06
4.50964e-06
4.50789e-06
4.50279e-06
4.5007e-06
4.4955e-06
4.49336e-06
4.48818e-06
4.48609e-06
4.48097e-06
4.47882e-06
4.47351e-06
4.47124e-06
4.46591e-06
4.46357e-06
4.45838e-06
4.456e-06
4.45106e-06
4.44858e-06
4.44381e-06
4.44104e-06
4.43663e-06
4.43352e-06
4.42956e-06
4.42612e-06
4.42266e-06
4.41891e-06
4.41592e-06
4.41186e-06
4.40922e-06
4.40485e-06
4.40258e-06
4.39792e-06
4.39608e-06
4.39114e-06
4.38974e-06
4.38452e-06
4.38356e-06
4.37804e-06
4.37746e-06
4.37163e-06
4.37141e-06
4.36543e-06
4.36539e-06
4.35937e-06
4.35945e-06
4.3535e-06
4.35358e-06
4.34809e-06
4.34625e-06
1.35181e-07
4.02784e-07
6.16787e-07
1.26274e-06
2.27439e-06
3.43062e-06
4.54908e-06
5.27485e-06
5.79048e-06
6.14738e-06
6.42209e-06
6.62319e-06
6.77727e-06
6.90304e-06
7.00673e-06
7.09335e-06
7.1697e-06
7.22941e-06
7.28621e-06
7.32829e-06
7.37189e-06
7.40517e-06
7.43888e-06
7.46468e-06
7.48968e-06
7.50908e-06
7.52866e-06
7.54375e-06
7.5596e-06
7.57155e-06
7.58436e-06
7.59319e-06
7.60292e-06
7.60885e-06
7.61645e-06
7.62076e-06
7.62683e-06
7.62998e-06
7.6348e-06
7.63685e-06
7.64036e-06
7.64114e-06
7.6436e-06
7.64356e-06
7.64514e-06
7.6447e-06
7.64552e-06
7.64489e-06
7.64498e-06
7.6438e-06
7.64321e-06
7.64177e-06
7.64061e-06
7.63908e-06
7.63744e-06
7.63597e-06
7.63387e-06
7.63239e-06
7.62982e-06
7.6282e-06
7.62524e-06
7.62358e-06
7.6203e-06
7.61874e-06
7.61519e-06
7.61375e-06
7.60992e-06
7.60859e-06
7.60447e-06
7.60316e-06
7.59877e-06
7.59746e-06
7.59327e-06
7.59144e-06
7.58768e-06
7.58532e-06
7.582e-06
7.57928e-06
7.57598e-06
7.57302e-06
1.0936e-07
2.15326e-07
1.59413e-07
5.16828e-07
7.76555e-07
1.4694e-06
2.8591e-06
4.00534e-06
5.06175e-06
6.0118e-06
6.72678e-06
7.21888e-06
7.61676e-06
7.94543e-06
8.2295e-06
8.4707e-06
8.6852e-06
8.86116e-06
9.0245e-06
9.15916e-06
9.28794e-06
9.39783e-06
9.49961e-06
9.5904e-06
9.67029e-06
9.74495e-06
9.81025e-06
9.87301e-06
9.92756e-06
9.98077e-06
1.00262e-05
1.00711e-05
1.01084e-05
1.01458e-05
1.01771e-05
1.02094e-05
1.02359e-05
1.02643e-05
1.02866e-05
1.03116e-05
1.033e-05
1.03515e-05
1.03668e-05
1.03855e-05
1.03983e-05
1.0415e-05
1.04256e-05
1.04406e-05
1.04492e-05
1.04622e-05
1.04692e-05
1.04805e-05
1.04863e-05
1.04963e-05
1.0501e-05
1.051e-05
1.05138e-05
1.05217e-05
1.05245e-05
1.05313e-05
1.05333e-05
1.05392e-05
1.05406e-05
1.05459e-05
1.05467e-05
1.05515e-05
1.05518e-05
1.0556e-05
1.05558e-05
1.05594e-05
1.05587e-05
1.05618e-05
1.05609e-05
1.05634e-05
1.05624e-05
1.05643e-05
1.05633e-05
1.05647e-05
1.05632e-05
1.05659e-05
6.36013e-11
9.77968e-09
5.46847e-08
1.62951e-07
1.49744e-07
5.88513e-07
9.22736e-07
1.8213e-06
3.1026e-06
4.15304e-06
5.19034e-06
6.14842e-06
6.9761e-06
7.68085e-06
8.33245e-06
8.88847e-06
9.30275e-06
9.65322e-06
9.97763e-06
1.02553e-05
1.05166e-05
1.07451e-05
1.09602e-05
1.11487e-05
1.13241e-05
1.148e-05
1.16271e-05
1.17594e-05
1.18846e-05
1.19995e-05
1.21049e-05
1.22051e-05
1.22923e-05
1.23801e-05
1.2454e-05
1.25319e-05
1.25955e-05
1.26654e-05
1.27198e-05
1.27826e-05
1.28287e-05
1.28851e-05
1.29245e-05
1.29751e-05
1.30091e-05
1.30549e-05
1.30844e-05
1.31262e-05
1.31516e-05
1.31892e-05
1.32112e-05
1.32453e-05
1.32644e-05
1.32956e-05
1.33124e-05
1.33408e-05
1.33555e-05
1.33813e-05
1.33941e-05
1.34174e-05
1.34286e-05
1.34497e-05
1.34596e-05
1.34789e-05
1.34877e-05
1.35054e-05
1.35131e-05
1.35292e-05
1.35359e-05
1.35505e-05
1.35563e-05
1.35695e-05
1.35746e-05
1.35866e-05
1.35911e-05
1.3602e-05
1.36061e-05
1.3616e-05
1.36189e-05
1.36323e-05
1.70322e-12
2.47151e-09
9.52009e-10
1.68866e-08
4.60523e-08
1.60193e-07
1.60978e-07
6.42779e-07
1.04113e-06
1.93125e-06
3.2053e-06
4.12401e-06
5.08226e-06
6.01909e-06
6.92835e-06
7.71875e-06
8.45879e-06
9.13694e-06
9.74933e-06
1.02839e-05
1.07857e-05
1.12436e-05
1.16429e-05
1.19642e-05
1.22686e-05
1.25389e-05
1.27988e-05
1.30307e-05
1.32547e-05
1.34572e-05
1.36506e-05
1.38259e-05
1.39917e-05
1.41451e-05
1.4289e-05
1.44259e-05
1.45511e-05
1.4675e-05
1.4784e-05
1.48959e-05
1.49898e-05
1.50917e-05
1.5173e-05
1.52663e-05
1.53369e-05
1.54227e-05
1.54848e-05