/*--------------------------------*- C++ -*----------------------------------*\
| =========                 |                                                 |
| \\      /  F ield         | OpenFOAM: The Open Source CFD Toolbox           |
|  \\    /   O peration     | Version:  v1912                                 |
|   \\  /    A nd           | Website:  www.openfoam.com                      |
|    \\/     M anipulation  |                                                 |
\*---------------------------------------------------------------------------*/
FoamFile
{
    version     2.0;
    format      ascii;
    class       volScalarField;
    location    "500";
    object      p;
}
// * * * * * * * * * * * * * * * * * * * * * * * * * * * * * * * * * * * * * //

dimensions      [0 2 -2 0 0 0 0];


internalField   nonuniform List<scalar> 
10000
(
0.00140749
0.00262968
0.0023563
0.00221289
0.0022048
0.00224265
0.00225385
0.00229243
0.0023123
0.00237151
0.00240494
0.00248867
0.00253852
0.00266168
0.00273845
0.00293645
0.00306842
0.003461
0.00376719
0.00508917
0.00142344
0.00261332
0.00235404
0.00221228
0.00220445
0.0022425
0.0022537
0.00229241
0.00231218
0.00237156
0.0024048
0.00248879
0.00253831
0.00266191
0.00273809
0.00293686
0.00306778
0.00346151
0.00376691
0.00506681
0.00144455
0.00259118
0.00235311
0.00221251
0.00220473
0.00224255
0.00225393
0.00229235
0.00231241
0.00237139
0.00240508
0.00248849
0.0025387
0.00266141
0.00273869
0.00293599
0.00306882
0.00345942
0.00376991
0.00502205
0.00146715
0.0025692
0.00235277
0.00221298
0.00220461
0.00224264
0.00225372
0.00229248
0.00231214
0.00237158
0.00240474
0.00248876
0.00253827
0.00266177
0.00273812
0.00293641
0.00306811
0.0034592
0.00376916
0.00497407
0.00149062
0.00254668
0.00235205
0.00221291
0.00220457
0.00224238
0.00225385
0.00229226
0.00231234
0.00237133
0.00240499
0.00248845
0.00253854
0.00266139
0.00273839
0.00293592
0.00306825
0.00345801
0.00376742
0.00492713
0.00151471
0.00252379
0.00235081
0.00221323
0.00220441
0.0022425
0.00225374
0.0022924
0.0023122
0.00237144
0.00240482
0.00248851
0.00253839
0.00266133
0.0027383
0.00293552
0.00306838
0.00345597
0.00376598
0.00487898
0.00153954
0.0025003
0.0023495
0.00221343
0.00220441
0.00224232
0.00225379
0.00229225
0.00231224
0.00237128
0.00240485
0.00248835
0.00253837
0.00266113
0.00273823
0.0029351
0.00306832
0.00345363
0.00376419
0.00482917
0.00156497
0.00247657
0.00234774
0.00221381
0.00220424
0.00224226
0.00225372
0.00229224
0.0023122
0.00237123
0.00240482
0.00248822
0.00253835
0.00266087
0.0027382
0.00293449
0.00306828
0.0034508
0.00376178
0.00477813
0.00159105
0.00245247
0.00234571
0.00221414
0.00220413
0.00224212
0.00225371
0.00229216
0.00231217
0.00237112
0.00240477
0.00248805
0.00253829
0.00266056
0.00273813
0.00293372
0.00306824
0.00344733
0.00375883
0.00472594
0.00161758
0.00242826
0.00234327
0.00221458
0.00220397
0.00224198
0.00225366
0.00229207
0.00231214
0.00237098
0.00240472
0.00248784
0.00253823
0.00266018
0.00273804
0.00293282
0.00306815
0.00344324
0.00375528
0.00467264
0.00164455
0.00240394
0.00234047
0.00221505
0.00220381
0.00224179
0.00225361
0.00229197
0.00231209
0.00237083
0.00240467
0.00248759
0.00253815
0.00265972
0.00273794
0.00293173
0.00306799
0.00343846
0.00375104
0.00461827
0.00167191
0.0023796
0.00233724
0.00221556
0.00220362
0.00224158
0.00225355
0.00229184
0.00231204
0.00237064
0.00240459
0.00248729
0.00253806
0.00265918
0.00273781
0.00293043
0.00306777
0.00343296
0.00374603
0.00456294
0.00169959
0.00235535
0.00233357
0.00221611
0.00220341
0.00224132
0.00225348
0.00229169
0.00231198
0.00237042
0.00240451
0.00248694
0.00253795
0.00265853
0.00273766
0.00292891
0.00306746
0.00342667
0.00374016
0.00450673
0.00172746
0.0023313
0.00232946
0.00221669
0.00220319
0.00224102
0.00225339
0.00229151
0.0023119
0.00237015
0.00240441
0.00248652
0.00253782
0.00265778
0.00273746
0.00292713
0.00306702
0.00341956
0.00373334
0.00444973
0.00175543
0.0023076
0.00232489
0.00221729
0.00220296
0.00224068
0.00225329
0.0022913
0.00231181
0.00236985
0.0024043
0.00248604
0.00253766
0.00265689
0.00273723
0.00292508
0.00306644
0.00341158
0.00372549
0.00439205
0.00178336
0.00228435
0.00231986
0.00221789
0.00220271
0.00224028
0.00225317
0.00229105
0.00231171
0.00236949
0.00240416
0.00248547
0.00253747
0.00265587
0.00273694
0.00292272
0.00306568
0.00340268
0.00371649
0.0043338
0.00181118
0.00226167
0.00231436
0.00221849
0.00220246
0.00223982
0.00225302
0.00229076
0.00231158
0.00236907
0.002404
0.00248482
0.00253725
0.00265469
0.00273658
0.00292002
0.00306469
0.00339283
0.00370626
0.00427509
0.00183873
0.00223969
0.0023084
0.00221905
0.0022022
0.00223931
0.00225285
0.00229043
0.00231144
0.00236859
0.00240381
0.00248407
0.00253699
0.00265334
0.00273615
0.00291696
0.00306344
0.003382
0.00369467
0.00421603
0.00186588
0.00221856
0.002302
0.00221957
0.00220193
0.00223872
0.00225264
0.00229004
0.00231127
0.00236804
0.00240359
0.00248321
0.00253668
0.0026518
0.00273563
0.00291349
0.00306187
0.00337015
0.00368162
0.00415674
0.00189241
0.00219847
0.00229518
0.00222001
0.00220166
0.00223807
0.0022524
0.00228959
0.00231107
0.00236741
0.00240334
0.00248223
0.00253632
0.00265005
0.00273499
0.0029096
0.00305991
0.00335725
0.00366701
0.00409734
0.0019181
0.00217964
0.002288
0.00222036
0.00220139
0.00223733
0.00225213
0.00228908
0.00231084
0.00236669
0.00240304
0.00248111
0.00253589
0.00264806
0.00273421
0.00290524
0.00305752
0.00334328
0.00365074
0.00403794
0.00194251
0.00216241
0.00228043
0.00222058
0.00220113
0.00223653
0.00225181
0.00228849
0.00231058
0.00236587
0.00240269
0.00247984
0.00253538
0.00264583
0.00273328
0.00290039
0.0030546
0.00332824
0.0036327
0.00397864
0.00196511
0.00214754
0.00227255
0.00222059
0.00220085
0.00223562
0.00225143
0.00228782
0.00231027
0.00236494
0.00240228
0.00247841
0.00253477
0.00264332
0.00273214
0.002895
0.00305109
0.00331211
0.0036128
0.00391955
0.0019843
0.00213609
0.00226462
0.00222042
0.00220059
0.00223462
0.002251
0.00228706
0.00230991
0.00236388
0.00240181
0.0024768
0.00253406
0.0026405
0.00273078
0.00288906
0.0030469
0.00329487
0.00359096
0.00386074
0.00199975
0.00212834
0.00225675
0.00222008
0.00220035
0.00223354
0.00225051
0.0022862
0.0023095
0.0023627
0.00240125
0.00247499
0.00253322
0.00263737
0.00272915
0.00288252
0.00304193
0.00327656
0.00356709
0.00380236
0.00201276
0.00212325
0.00224878
0.00221943
0.00220008
0.00223235
0.00224994
0.00228522
0.00230902
0.00236136
0.0024006
0.00247296
0.00253222
0.0026339
0.00272719
0.00287538
0.00303608
0.00325718
0.00354112
0.00374446
0.00202454
0.00211964
0.00224068
0.00221849
0.0021998
0.00223105
0.00224929
0.00228412
0.00230846
0.00235987
0.00239985
0.0024707
0.00253104
0.00263005
0.00272485
0.00286759
0.00302925
0.00323675
0.00351302
0.00368708
0.00203552
0.00211689
0.00223257
0.00221725
0.0021995
0.00222965
0.00224855
0.00228288
0.00230782
0.00235819
0.00239897
0.0024682
0.00252966
0.00262581
0.00272208
0.00285913
0.00302134
0.00321526
0.00348278
0.00363024
0.00204579
0.00211482
0.00222457
0.0022157
0.00219917
0.00222812
0.0022477
0.00228149
0.00230706
0.00235633
0.00239793
0.00246541
0.00252802
0.00262115
0.0027188
0.00284997
0.00301223
0.00319275
0.00345039
0.00357396
0.00205532
0.00211339
0.00221671
0.00221382
0.00219877
0.00222648
0.00224674
0.00227993
0.0023062
0.00235425
0.00239673
0.00246234
0.00252609
0.00261605
0.00271495
0.0028401
0.00300183
0.00316923
0.00341589
0.00351823
0.00206413
0.00211252
0.00220907
0.00221161
0.0021983
0.0022247
0.00224565
0.00227819
0.00230519
0.00235195
0.00239533
0.00245895
0.00252383
0.00261048
0.00271044
0.00282949
0.00299003
0.00314472
0.00337933
0.00346305
0.00207218
0.00211216
0.00220169
0.00220905
0.00219773
0.00222279
0.00224441
0.00227625
0.00230403
0.00234941
0.00239369
0.00245523
0.00252119
0.00260443
0.0027052
0.00281811
0.00297674
0.00311922
0.00334079
0.00340836
0.00207949
0.00211222
0.00219461
0.00220616
0.00219703
0.00222073
0.00224301
0.00227409
0.00230267
0.0023466
0.00239179
0.00245115
0.0025181
0.00259785
0.00269913
0.00280595
0.00296188
0.00309276
0.00330038
0.00335413
0.00208601
0.00211261
0.00218787
0.00220293
0.00219617
0.00221851
0.00224143
0.0022717
0.00230111
0.00234351
0.00238957
0.0024467
0.0025145
0.00259074
0.00269215
0.00279298
0.00294538
0.00306534
0.00325824
0.0033003
0.0020918
0.00211326
0.00218149
0.00219939
0.00219513
0.00221613
0.00223966
0.00226906
0.0022993
0.00234012
0.002387
0.00244184
0.00251034
0.00258306
0.00268417
0.00277917
0.00292719
0.00303695
0.00321453
0.00324681
0.00209682
0.00211407
0.0021755
0.00219554
0.00219387
0.00221356
0.00223766
0.00226615
0.0022972
0.00233641
0.00238402
0.00243656
0.00250553
0.00257478
0.00267511
0.00276449
0.00290727
0.00300758
0.00316943
0.0031936
0.00210112
0.00211493
0.00216989
0.0021914
0.00219236
0.0022108
0.00223541
0.00226295
0.00229478
0.00233235
0.00238058
0.00243083
0.00250001
0.00256586
0.00266488
0.00274891
0.00288562
0.00297723
0.00312314
0.0031406
0.00210468
0.00211575
0.00216464
0.002187
0.00219055
0.00220781
0.00223288
0.00225943
0.002292
0.00232793
0.00237663
0.00242462
0.0024937
0.00255629
0.00265341
0.00273238
0.00286224
0.00294587
0.00307586
0.00308777
0.00210755
0.00211643
0.00215975
0.00218235
0.00218843
0.00220459
0.00223004
0.00225559
0.00228879
0.00232312
0.00237209
0.00241789
0.00248653
0.002546
0.00264064
0.00271485
0.00283717
0.00291349
0.00302781
0.00303508
0.0021097
0.00211689
0.00215515
0.00217748
0.00218594
0.00220111
0.00222686
0.00225138
0.00228512
0.00231788
0.00236692
0.00241062
0.00247843
0.00253496
0.00262652
0.00269628
0.00281046
0.00288007
0.00297919
0.00298251
0.00211119
0.00211705
0.0021508
0.00217241
0.00218305
0.00219733
0.00222329
0.0022468
0.00228092
0.00231219
0.00236103
0.00240276
0.00246933
0.0025231
0.00261101
0.0026766
0.0027822
0.00284559
0.0029302
0.00293006
0.00211198
0.00211681
0.00214661
0.00216715
0.00217973
0.00219324
0.00221929
0.00224181
0.00227615
0.00230602
0.00235438
0.00239427
0.00245917
0.00251037
0.0025941
0.00265577
0.00275246
0.00281006
0.00288102
0.00287776
0.00211212
0.00211613
0.00214251
0.0021617
0.00217594
0.00218879
0.00221481
0.00223638
0.00227073
0.00229931
0.00234689
0.00238508
0.0024479
0.00249671
0.00257577
0.00263373
0.00272137
0.00277348
0.00283182
0.00282565
0.00211155
0.00211494
0.0021384
0.00215607
0.00217164
0.00218394
0.00220981
0.00223047
0.00226462
0.00229203
0.00233853
0.00237514
0.00243547
0.00248203
0.00255604
0.00261042
0.00268903
0.00273588
0.00278271
0.00277379
0.00211033
0.00211319
0.00213419
0.00215024
0.00216682
0.00217867
0.00220424
0.00222406
0.00225776
0.00228411
0.00232921
0.00236438
0.00242185
0.00246627
0.00253492
0.00258581
0.00265555
0.00269732
0.00273382
0.00272226
0.00210838
0.00211084
0.00212975
0.00214419
0.00216141
0.00217292
0.00219803
0.00221709
0.00225009
0.0022755
0.0023189
0.00235273
0.00240702
0.00244935
0.00251245
0.00255987
0.00262104
0.00265783
0.00268522
0.00267113
0.00210573
0.00210784
0.00212498
0.00213787
0.00215541
0.00216665
0.00219114
0.00220951
0.00224156
0.00226612
0.00230755
0.0023401
0.00239096
0.00243121
0.00248867
0.00253258
0.00258562
0.00261753
0.00263697
0.00262048
0.0021023
0.00210416
0.00211979
0.00213124
0.00214875
0.00215979
0.00218351
0.00220126
0.00223212
0.00225591
0.00229513
0.00232643
0.00237365
0.00241178
0.00246362
0.00250396
0.00254938
0.00257649
0.0025891
0.00257038
0.00209811
0.00209975
0.00211406
0.00212422
0.00214142
0.0021523
0.00217509
0.00219228
0.00222173
0.00224477
0.0022816
0.00231162
0.0023551
0.00239101
0.00243735
0.00247403
0.00251241
0.00253483
0.00254163
0.0025209
0.00209305
0.00209458
0.00210769
0.00211675
0.00213335
0.00214411
0.00216582
0.00218248
0.00221035
0.00223265
0.00226693
0.00229561
0.0023353
0.00236887
0.0024099
0.00244284
0.00247477
0.00249266
0.00249456
0.00247208
0.00208714
0.00208859
0.00210059
0.00210872
0.00212452
0.00213514
0.00215566
0.00217181
0.00219793
0.00221945
0.0022511
0.00227833
0.00231426
0.00234534
0.00238131
0.00241044
0.00243654
0.00245009
0.00244789
0.00242395
0.00208028
0.00208172
0.00209268
0.00210004
0.00211485
0.00212533
0.00214454
0.00216016
0.00218443
0.0022051
0.00223408
0.00225974
0.00229197
0.00232044
0.00235163
0.00237693
0.00239778
0.00240725
0.00240162
0.00237651
0.00207245
0.00207393
0.00208387
0.0020906
0.00210431
0.00211458
0.00213242
0.00214747
0.00216982
0.00218952
0.00221584
0.00223978
0.00226844
0.00229416
0.00232089
0.00234239
0.00235852
0.00236421
0.00235574
0.00232977
0.00206355
0.00206513
0.00207409
0.0020803
0.00209283
0.00210283
0.00211924
0.00213365
0.00215405
0.00217266
0.00219637
0.00221843
0.00224368
0.00226654
0.00228912
0.00230691
0.00231884
0.00232107
0.00231024
0.00228369
0.00205356
0.00205525
0.00206326
0.00206902
0.00208035
0.00208998
0.00210495
0.00211862
0.00213708
0.00215445
0.00217562
0.00219568
0.00221768
0.00223764
0.00225638
0.00227059
0.00227876
0.0022779
0.00226512
0.00223824
0.00204237
0.00204421
0.00205131
0.00205667
0.00206678
0.00207596
0.00208949
0.0021023
0.00211887
0.00213487
0.00215358
0.00217153
0.00219045
0.0022075
0.00222269
0.00223352
0.00223835
0.00223475
0.00222037
0.00219339
0.00202996
0.00203192
0.00203817
0.00204312
0.00205206
0.00206069
0.00207279
0.00208465
0.00209937
0.00211387
0.00213022
0.00214599
0.002162
0.00217619
0.0021881
0.00219577
0.00219763
0.00219165
0.00217598
0.00214908
0.00201621
0.0020183
0.00202376
0.00202829
0.0020361
0.00204408
0.0020548
0.0020656
0.00207852
0.00209144
0.00210553
0.00211909
0.00213235
0.00214377
0.00215267
0.00215743
0.00215667
0.00214863
0.00213193
0.00210527
0.00200108
0.00200327
0.002008
0.00201208
0.00201883
0.00202608
0.00203546
0.00204511
0.0020563
0.00206756
0.00207949
0.00209084
0.00210152
0.00211029
0.00211644
0.00211855
0.00211548
0.00210572
0.00208821
0.00206189
0.00198447
0.00198675
0.00199081
0.00199441
0.00200016
0.0020066
0.00201469
0.00202313
0.00203265
0.00204223
0.00205209
0.00206128
0.00206954
0.00207582
0.00207945
0.00207919
0.00207411
0.0020629
0.00204479
0.00201892
0.00196634
0.00196865
0.00197212
0.00197521
0.00198002
0.0019856
0.00199245
0.00199963
0.00200755
0.00201545
0.00202334
0.00203045
0.00203644
0.00204042
0.00204176
0.0020394
0.00203257
0.00202017
0.00200165
0.00197628
0.00194658
0.00194891
0.00195185
0.00195439
0.00195832
0.00196302
0.00196867
0.00197459
0.00198097
0.00198722
0.00199324
0.00199837
0.00200226
0.00200412
0.00200342
0.0019992
0.00199088
0.00197753
0.00195874
0.00193393
0.00192514
0.00192746
0.00192992
0.00193191
0.00193501
0.00193881
0.00194332
0.00194799
0.0019529
0.00195755
0.00196181
0.00196508
0.00196704
0.00196698
0.00196445
0.00195863
0.00194905
0.00193495
0.00191602
0.00189183
0.00190195
0.00190425
0.00190627
0.00190771
0.00191002
0.00191294
0.00191635
0.0019198
0.00192332
0.00192646
0.00192907
0.00193062
0.00193082
0.00192904
0.0019249
0.00191771
0.00190709
0.00189241
0.00187347
0.00184991
0.00187697
0.00187923
0.00188084
0.00188173
0.00188331
0.00188538
0.00188774
0.00189003
0.00189223
0.00189395
0.00189504
0.00189501
0.00189363
0.00189032
0.00188479
0.00187643
0.00186497
0.00184988
0.00183103
0.00180813
0.00185012
0.00185234
0.00185359
0.00185395
0.00185484
0.00185609
0.00185748
0.00185867
0.00185964
0.00186005
0.00185975
0.0018583
0.0018555
0.00185087
0.00184414
0.00183482
0.00182269
0.00180733
0.00178865
0.00176643
0.0018214
0.00182357
0.00182448
0.00182435
0.00182459
0.00182507
0.00182555
0.00182573
0.00182557
0.00182478
0.00182322
0.00182051
0.00181648
0.00181069
0.00180296
0.00179286
0.00178023
0.00176473
0.00174629
0.00172476
0.00179076
0.00179289
0.00179349
0.00179289
0.00179254
0.00179232
0.00179196
0.00179121
0.00179003
0.00178816
0.00178549
0.00178168
0.00177657
0.00176982
0.00176126
0.00175055
0.00173756
0.00172202
0.0017039
0.00168306
0.00175821
0.00176029
0.00176061
0.00175959
0.00175869
0.00175783
0.00175672
0.00175513
0.00175304
0.00175023
0.00174657
0.00174181
0.0017358
0.00172825
0.00171903
0.00170787
0.00169465
0.00167918
0.00166142
0.00164129
0.00172373
0.00172578
0.00172584
0.00172445
0.00172306
0.00172163
0.00171985
0.00171752
0.00171463
0.001711
0.00170651
0.00170095
0.00169419
0.00168601
0.00167628
0.00166479
0.00165147
0.00163615
0.00161881
0.00159939
0.00168736
0.00168937
0.00168921
0.00168748
0.00168567
0.00168373
0.00168137
0.00167841
0.00167483
0.00167051
0.00166533
0.00165911
0.00165175
0.00164308
0.00163298
0.00162131
0.00160798
0.00159288
0.00157601
0.00155731
0.00164912
0.00165109
0.00165074
0.00164872
0.00164655
0.00164419
0.00164133
0.00163783
0.00163369
0.00162879
0.00162304
0.00161631
0.0016085
0.00159947
0.00158914
0.00157738
0.00156414
0.00154934
0.00153297
0.00151499
0.00160906
0.001611
0.00161049
0.00160823
0.00160575
0.00160303
0.00159976
0.00159583
0.00159122
0.00158587
0.00157969
0.00157257
0.00156444
0.00155517
0.00154472
0.00153299
0.00151992
0.00150547
0.00148963
0.00147238
0.00156724
0.00156916
0.00156851
0.00156605
0.00156333
0.00156032
0.00155673
0.00155245
0.00154749
0.0015418
0.0015353
0.00152791
0.00151957
0.00151019
0.00149972
0.0014881
0.00147528
0.00146124
0.00144596
0.00142944
0.00152372
0.00152562
0.00152488
0.00152226
0.00151935
0.00151612
0.00151228
0.00150775
0.00150254
0.00149661
0.0014899
0.00148235
0.00147391
0.00146451
0.00145412
0.00144269
0.00143019
0.00141659
0.0014019
0.00138611
0.00147859
0.00148048
0.00147965
0.00147693
0.00147388
0.0014705
0.00146649
0.00146178
0.00145641
0.00145033
0.00144351
0.0014359
0.00142745
0.00141813
0.0014079
0.00139673
0.0013846
0.00137149
0.0013574
0.00134234
0.00143194
0.00143381
0.00143293
0.00143014
0.001427
0.00142352
0.00141941
0.00141461
0.00140915
0.00140302
0.00139617
0.00138858
0.00138022
0.00137105
0.00136105
0.0013502
0.00133848
0.00132589
0.00131243
0.00129811
0.00138385
0.0013857
0.0013848
0.00138197
0.00137879
0.00137527
0.00137112
0.00136628
0.00136081
0.0013547
0.00134791
0.00134042
0.00133221
0.00132326
0.00131355
0.00130307
0.00129181
0.00127977
0.00126695
0.00125335
0.00133442
0.00133626
0.00133534
0.00133251
0.00132933
0.00132581
0.00132167
0.00131687
0.00131145
0.00130542
0.00129876
0.00129143
0.00128344
0.00127477
0.0012654
0.00125533
0.00124456
0.00123309
0.00122091
0.00120805
0.00128375
0.00128557
0.00128467
0.00128186
0.0012787
0.00127523
0.00127115
0.00126643
0.00126112
0.00125523
0.00124874
0.00124164
0.00123392
0.00122557
0.00121658
0.00120697
0.00119671
0.00118582
0.0011743
0.00116216
0.00123193
0.00123374
0.00123285
0.00123009
0.001227
0.00122361
0.00121962
0.00121503
0.00120987
0.00120417
0.0011979
0.00119107
0.00118365
0.00117567
0.0011671
0.00115796
0.00114823
0.00113794
0.00112707
0.00111566
0.00117906
0.00118084
0.00117999
0.0011773
0.0011743
0.00117101
0.00116716
0.00116272
0.00115775
0.00115227
0.00114627
0.00113973
0.00113267
0.00112507
0.00111695
0.0011083
0.00109912
0.00108943
0.00107922
0.00106851
0.00112522
0.00112698
0.00112617
0.00112356
0.00112066
0.0011175
0.00111381
0.00110956
0.00110481
0.00109959
0.00109387
0.00108766
0.00108097
0.00107379
0.00106613
0.00105798
0.00104936
0.00104027
0.00103071
0.0010207
0.00107049
0.00107222
0.00107145
0.00106895
0.00106618
0.00106316
0.00105964
0.0010556
0.0010511
0.00104614
0.00104074
0.00103488
0.00102858
0.00102183
0.00101463
0.001007
0.000998936
0.000990445
0.000981535
0.000972215
0.00101494
0.00101663
0.00101592
0.00101353
0.00101089
0.00100803
0.0010047
0.00100089
0.000996639
0.000991978
0.0009869
0.000981406
0.0009755
0.000969186
0.000962469
0.000955354
0.000947844
0.000939948
0.000931673
0.000923026
0.000958632
0.000960279
0.000959619
0.000957351
0.000954852
0.000952162
0.000949036
0.000945455
0.000941475
0.000937115
0.000932373
0.000927248
0.000921748
0.000915876
0.000909636
0.000903034
0.000896074
0.000888764
0.00088111
0.00087312
0.000901597
0.000903197
0.000902594
0.000900453
0.000898106
0.00089559
0.000892672
0.000889332
0.000885627
0.000881574
0.00087717
0.000872419
0.000867325
0.000861893
0.000856127
0.000850033
0.000843614
0.000836879
0.000829832
0.000822481
0.000843887
0.000845426
0.000844875
0.000842867
0.000840674
0.000838337
0.000835629
0.000832535
0.000829107
0.000825362
0.000821299
0.000816919
0.000812229
0.000807233
0.000801934
0.000796338
0.00079045
0.000784275
0.000777818
0.000771087
0.000785477
0.000786958
0.000786466
0.000784596
0.000782563
0.000780406
0.000777911
0.000775063
0.000771912
0.000768474
0.000764749
0.000760737
0.000756445
0.000751878
0.000747037
0.000741929
0.000736558
0.000730928
0.000725045
0.000718914
0.000726419
0.000727817
0.000727371
0.000725639
0.000723766
0.000721788
0.000719507
0.000716904
0.000714027
0.000710894
0.000707502
0.000703853
0.000699952
0.000695803
0.000691411
0.000686778
0.000681909
0.000676808
0.00067148
0.00066593
0.000666594
0.000667924
0.000667537
0.000665952
0.000664244
0.000662448
0.000660378
0.000658019
0.000655414
0.00065258
0.000649516
0.000646222
0.000642704
0.000638965
0.000635008
0.000630838
0.000626456
0.000621869
0.000617078
0.00061209
0.000606073
0.000607295
0.000606947
0.000605501
0.000603953
0.000602335
0.000600474
0.000598355
0.000596019
0.00059348
0.000590736
0.00058779
0.000584644
0.000581304
0.000577771
0.000574048
0.000570139
0.000566048
0.000561776
0.000557329
0.000544601
0.000545745
0.000545458
0.000544169
0.00054279
0.000541354
0.000539702
0.000537821
0.000535749
0.000533499
0.00053107
0.000528464
0.000525684
0.000522732
0.000519613
0.000516327
0.000512878
0.000509268
0.000505501
0.000501581
0.000482271
0.000483284
0.000483025
0.000481877
0.000480658
0.000479395
0.000477945
0.000476297
0.000474484
0.000472517
0.000470396
0.000468121
0.000465695
0.000463121
0.000460402
0.000457539
0.000454534
0.000451391
0.000448111
0.000444698
0.00041868
0.000419595
0.00041939
0.000418401
0.000417352
0.000416268
0.000415024
0.000413609
0.000412054
0.000410368
0.000408551
0.000406604
0.000404529
0.000402328
0.000400004
0.000397558
0.000394991
0.000392307
0.000389506
0.000386592
0.000353802
0.000354572
0.000354395
0.000353554
0.000352665
0.000351751
0.000350705
0.000349517
0.000348211
0.000346799
0.000345277
0.000343647
0.000341911
0.000340072
0.000338129
0.000336086
0.000333942
0.000331702
0.000329364
0.000326932
0.000287311
0.000287957
0.000287823
0.000287143
0.000286427
0.000285693
0.000284852
0.000283898
0.000282851
0.000281718
0.000280498
0.000279192
0.000277801
0.000276328
0.000274773
0.000273138
0.000271422
0.000269629
0.000267758
0.000265812
0.00021887
0.000219353
0.00021924
0.000218713
0.000218159
0.000217592
0.000216945
0.000216212
0.000215408
0.000214541
0.000213609
0.000212612
0.000211552
0.000210431
0.000209247
0.000208004
0.000206701
0.000205339
0.00020392
0.000202444
0.000148211
0.000148557
0.000148496
0.000148145
0.000147777
0.000147403
0.000146975
0.00014649
0.000145958
0.000145384
0.000144765
0.000144103
0.000143399
0.000142653
0.000141865
0.000141037
0.000140169
0.000139262
0.000138315
0.00013733
7.44293e-05
7.45739e-05
7.45118e-05
7.43175e-05
7.41159e-05
7.39089e-05
7.36742e-05
7.34113e-05
7.31253e-05
7.28186e-05
7.24904e-05
7.21417e-05
7.17722e-05
7.13831e-05
7.09737e-05
7.05453e-05
7.00972e-05
6.96305e-05
6.91447e-05
6.86411e-05
0.0055312
0.00316821
0.00204527
0.00180726
0.00178123
0.00173318
0.00169106
0.00165227
0.00159155
0.00151898
0.00144514
0.00137766
0.00131002
0.00124831
0.00119119
0.00114018
0.00109442
0.00104975
0.00100807
0.000969645
0.000931923
0.000896828
0.000864786
0.00083406
0.000803065
0.000774505
0.000747358
0.00072049
0.000694182
0.00067023
0.000647189
0.000623979
0.000600999
0.000579515
0.000558656
0.000538171
0.000517857
0.000498825
0.000480586
0.000462897
0.000444763
0.000427429
0.000410436
0.000394296
0.000377935
0.000361944
0.000346266
0.000331208
0.000316348
0.000301978
0.000287388
0.000273297
0.00025925
0.000245918
0.000232831
0.000220075
0.000207268
0.000194935
0.000182694
0.000171094
0.000159442
0.000148071
0.000136742
0.000125669
0.000114674
0.000104062
9.39477e-05
8.38891e-05
7.41681e-05
6.43108e-05
5.53339e-05
4.58402e-05
3.77109e-05
2.86464e-05
2.1668e-05
1.26632e-05
7.0999e-06
-1.69916e-06
-4.19089e-06
-1.16175e-05
0.00550853
0.00318783
0.00207408
0.00183439
0.00180134
0.00174769
0.00170134
0.00166009
0.00159775
0.00152415
0.00144976
0.00138188
0.00131392
0.00125193
0.00119454
0.00114328
0.00109731
0.00105244
0.00101059
0.000972007
0.000934143
0.000898915
0.000866751
0.000835913
0.00080482
0.000776172
0.000748944
0.000721998
0.000695622
0.000671603
0.000648501
0.000625232
0.000602202
0.000580671
0.000559769
0.000539241
0.00051889
0.000499819
0.000481546
0.000463821
0.000445658
0.000428293
0.000411276
0.000395108
0.000378725
0.000362709
0.000347011
0.000331928
0.000317053
0.000302659
0.000288055
0.000273943
0.000259885
0.000246533
0.000233436
0.00022066
0.000207845
0.000195492
0.000183245
0.000171626
0.000159969
0.000148581
0.000137247
0.000126157
0.000115159
0.000104531
9.44146e-05
8.43396e-05
7.4617e-05
6.47442e-05
5.57665e-05
4.62576e-05
3.81286e-05
2.90502e-05
2.20714e-05
1.30533e-05
7.49047e-06
-1.32021e-06
-3.82728e-06
-1.12422e-05
0.00545747
0.00319578
0.00209516
0.00185682
0.00182206
0.00176573
0.00171554
0.00167052
0.0016059
0.00153107
0.00145596
0.00138751
0.00131914
0.00125678
0.00119905
0.00114749
0.00110125
0.00105612
0.00101404
0.000975249
0.000937204
0.000901797
0.000869478
0.000838487
0.000807264
0.000778497
0.000751162
0.000724111
0.000697642
0.000673534
0.000650348
0.000626998
0.000603899
0.000582303
0.000561342
0.000540754
0.00052035
0.000501227
0.000482907
0.000465132
0.000446928
0.000429521
0.000412468
0.000396262
0.000379848
0.000363796
0.000348072
0.000332954
0.000318056
0.000303631
0.000289006
0.000274864
0.00026079
0.00024741
0.000234298
0.000221495
0.000208667
0.000196289
0.00018403
0.000172387
0.000160721
0.00014931
0.000137969
0.000126855
0.000115853
0.000105203
9.50821e-05
8.49841e-05
7.52588e-05
6.53641e-05
5.6385e-05
4.68541e-05
3.87259e-05
2.96272e-05
2.26484e-05
1.36109e-05
8.0488e-06
-7.7892e-07
-3.30654e-06
-1.0703e-05
0.00541242
0.00320469
0.0021057
0.0018635
0.00182865
0.00177543
0.00172634
0.00167843
0.00161285
0.00153712
0.00146106
0.001392
0.00132337
0.00126082
0.00120292
0.00115118
0.0011047
0.00105937
0.00101711
0.000978156
0.000939969
0.000904414
0.000871978
0.000840859
0.000809523
0.000780655
0.000753226
0.000726085
0.000699533
0.000675349
0.000652089
0.000628667
0.000605503
0.00058385
0.000562835
0.000542193
0.000521742
0.000502571
0.000484208
0.000466389
0.000448145
0.000430699
0.000413613
0.000397371
0.000380929
0.000364843
0.000349094
0.000333945
0.000319023
0.000304571
0.000289923
0.000275757
0.000261663
0.000248262
0.000235133
0.000222307
0.000209464
0.000197063
0.000184791
0.000173127
0.000161451
0.000150019
0.000138669
0.000127534
0.000116526
0.000105857
9.57305e-05
8.56124e-05
7.58824e-05
6.59686e-05
5.6986e-05
4.74348e-05
3.93062e-05
3.01894e-05
2.3209e-05
1.41539e-05
8.59069e-06
-2.51539e-07
-2.80149e-06
-1.01956e-05
0.00536665
0.00321212
0.00211719
0.0018723
0.00183241
0.00177754
0.00172898
0.00168317
0.00161913
0.00154229
0.00146571
0.00139598
0.0013271
0.00126451
0.00120659
0.00115455
0.00110776
0.00106231
0.00101995
0.00098089
0.000942615
0.000906957
0.000874428
0.000843187
0.000811752
0.000782794
0.000755286
0.00072806
0.000701435
0.000677178
0.000653858
0.000630364
0.000607139
0.00058543
0.000564364
0.000543669
0.000523171
0.000503953
0.00048555
0.000467687
0.000449403
0.000431919
0.000414798
0.000398522
0.00038205
0.000365933
0.000350155
0.000334977
0.00032003
0.000305553
0.00029088
0.00027669
0.000262576
0.000249154
0.000236005
0.000223157
0.000210297
0.000197876
0.000185587
0.000173903
0.000162215
0.000150764
0.000139402
0.000128248
0.000117232
0.000106545
9.64111e-05
8.62743e-05
7.65373e-05
6.66055e-05
5.76168e-05
4.80463e-05
3.99155e-05
3.0782e-05
2.37976e-05
1.4726e-05
9.15898e-06
3.0488e-07
-2.2741e-06
-9.68324e-06
0.00531773
0.00321893
0.00212982
0.00188172
0.00183778
0.00178074
0.00172902
0.00168282
0.00162024
0.00154587
0.00147062
0.00139982
0.00133086
0.00126825
0.0012101
0.00115767
0.0011107
0.00106522
0.00102275
0.000983627
0.00094533
0.000909585
0.000876888
0.000845501
0.000813996
0.00078498
0.000757415
0.00073012
0.000703439
0.000679119
0.000655738
0.000632168
0.000608887
0.00058712
0.000566008
0.000545256
0.000524715
0.000505449
0.00048701
0.000469098
0.000450775
0.000433247
0.000416091
0.000399778
0.000383275
0.000367125
0.000351319
0.00033611
0.000321137
0.000306633
0.000291934
0.000277717
0.000263582
0.000250138
0.000236968
0.000224097
0.000211218
0.000198775
0.000186467
0.000174763
0.00016306
0.00015159
0.000140213
0.00012904
0.000118013
0.00010731
9.71652e-05
8.70096e-05
7.72631e-05
6.73134e-05
5.83161e-05
4.87264e-05
4.05911e-05
3.14414e-05
2.44503e-05
1.53624e-05
9.78905e-06
9.24008e-07
-1.69095e-06
-9.12788e-06
0.00526675
0.00322598
0.002143
0.00189145
0.00184358
0.00178385
0.00173044
0.00168325
0.00161944
0.00154569
0.00147141
0.00140232
0.00133487
0.00127182
0.00121307
0.00116067
0.00111372
0.00106807
0.0010254
0.000986308
0.000948029
0.00091216
0.000879271
0.00084778
0.000816251
0.000787197
0.000759585
0.000732234
0.000705523
0.00068112
0.000657626
0.000633993
0.000610672
0.000588863
0.00056772
0.000546921
0.000526346
0.000507033
0.000488555
0.000470593
0.000452235
0.000434661
0.000417474
0.000401119
0.00038459
0.000368403
0.000352573
0.00033733
0.000322333
0.000307798
0.000293073
0.000278827
0.000264671
0.000251203
0.000238012
0.000225116
0.000212218
0.000199752
0.000187424
0.000175698
0.00016398
0.00015249
0.000141096
0.000129902
0.000118865
0.000108145
9.79881e-05
8.78134e-05
7.80554e-05
6.8088e-05
5.90792e-05
4.94708e-05
4.13288e-05
3.21638e-05
2.51635e-05
1.60593e-05
1.04774e-05
1.60188e-06
-1.05478e-06
-8.53155e-06
0.00521394
0.00323278
0.00215644
0.0019015
0.00184942
0.00178726
0.00173217
0.00168379
0.00161984
0.00154599
0.0014709
0.00140219
0.00133551
0.00127344
0.00121615
0.00116419
0.00111643
0.00107044
0.00102788
0.000988869
0.000950519
0.000914483
0.000881553
0.000850096
0.00081854
0.000789382
0.000761729
0.000734334
0.00070761
0.000683117
0.000659502
0.000635817
0.000612475
0.000590649
0.000569485
0.000548647
0.000528041
0.000508664
0.000490112
0.00047211
0.000453725
0.000436114
0.000418903