/*--------------------------------*- C++ -*----------------------------------*\
| =========                 |                                                 |
| \\      /  F ield         | OpenFOAM: The Open Source CFD Toolbox           |
|  \\    /   O peration     | Version:  v1912                                 |
|   \\  /    A nd           | Website:  www.openfoam.com                      |
|    \\/     M anipulation  |                                                 |
\*---------------------------------------------------------------------------*/
FoamFile
{
    version     2.0;
    format      ascii;
    class       surfaceScalarField;
    location    "500";
    object      phi;
}
// * * * * * * * * * * * * * * * * * * * * * * * * * * * * * * * * * * * * * //

dimensions      [0 3 -1 0 0 0 0];
oriented        oriented;


internalField   nonuniform List<scalar> 
19800
(
2.28521e-07
-1.3977e-08
2.2853e-07
-8.74435e-12
2.28672e-07
-1.42777e-10
2.28514e-07
1.57611e-10
2.28695e-07
-1.81167e-10
2.28515e-07
1.79824e-10
2.28697e-07
-1.82124e-10
2.28505e-07
1.92951e-10
2.28691e-07
-1.87101e-10
2.28485e-07
2.06363e-10
2.28676e-07
-1.91143e-10
2.28456e-07
2.20698e-10
2.28649e-07
-1.92763e-10
2.28412e-07
2.36435e-10
2.28599e-07
-1.87028e-10
2.28346e-07
2.5387e-10
2.28502e-07
-1.57033e-10
2.28239e-07
2.63636e-10
2.28175e-07
6.32997e-11
5.01201e-10
2.27674e-07
2.42204e-07
-1.70895e-08
2.42473e-07
-2.77944e-10
2.42305e-07
2.49508e-11
2.4244e-07
2.25853e-11
2.42293e-07
-3.47977e-11
2.42429e-07
4.33097e-11
2.42263e-07
-1.5783e-11
2.42411e-07
4.49517e-11
2.42227e-07
-3.08629e-12
2.42387e-07
4.57388e-11
2.42183e-07
1.3388e-11
2.42358e-07
4.62229e-11
2.42128e-07
3.74032e-11
2.42317e-07
4.73402e-11
2.4205e-07
7.96202e-11
2.42255e-07
4.94475e-11
2.41921e-07
1.76327e-10
2.4215e-07
3.44384e-11
2.41534e-07
6.78986e-10
4.1913e-10
2.41616e-07
2.55714e-07
-1.67757e-08
2.55917e-07
-4.80616e-10
2.55845e-07
9.64962e-11
2.55899e-07
-3.11608e-11
2.55859e-07
5.12899e-12
2.55899e-07
2.76071e-12
2.55852e-07
3.13757e-11
2.55887e-07
9.58923e-12
2.55837e-07
4.69662e-11
2.55867e-07
1.54483e-11
2.55813e-07
6.79041e-11
2.55837e-07
2.18384e-11
2.55775e-07
9.95513e-11
2.55793e-07
3.00663e-11
2.55714e-07
1.58181e-10
2.55723e-07
4.07289e-11
2.55599e-07
2.99658e-10
2.55603e-07
3.04765e-11
2.55232e-07
1.05002e-09
6.11126e-10
2.5504e-07
2.70137e-07
-1.60968e-08
2.70304e-07
-6.47993e-10
2.70269e-07
1.31656e-10
2.70286e-07
-4.80552e-11
2.70279e-07
1.11022e-11
2.70285e-07
-2.80839e-12
2.7027e-07
4.59669e-11
2.70272e-07
7.43747e-12
2.70252e-07
6.65474e-11
2.70251e-07
1.65613e-11
2.70225e-07
9.42477e-11
2.70221e-07
2.61705e-11
2.70184e-07
1.36824e-10
2.70176e-07
3.82659e-11
2.70118e-07
2.1646e-10
2.70105e-07
5.38046e-11
2.69995e-07
4.09065e-10
2.69979e-07
4.60509e-11
2.69618e-07
1.41092e-09
8.29697e-10
2.69399e-07
2.85463e-07
-1.54963e-08
2.85623e-07
-8.08032e-10
2.85594e-07
1.60665e-10
2.85604e-07
-5.80384e-11
2.85602e-07
1.34769e-11
2.85601e-07
-2.64013e-12
2.85589e-07
5.79944e-11
2.85586e-07
1.07767e-11
2.85568e-07
8.40195e-11
2.85563e-07
2.23223e-11
2.85537e-07
1.1959e-10
2.85529e-07
3.47803e-11
2.85491e-07
1.74279e-10
2.85479e-07
5.04255e-11
2.85419e-07
2.76516e-10
2.85402e-07
7.04186e-11
2.85288e-07
5.23905e-10
2.85266e-07
6.75693e-11
2.84899e-07
1.77756e-09
1.06447e-09
2.84664e-07
3.01666e-07
-1.49012e-08
3.01825e-07
-9.66754e-10
3.01797e-07
1.88816e-10
3.01807e-07
-6.81869e-11
3.01803e-07
1.7269e-11
3.01804e-07
-3.62225e-12
3.01789e-07
7.2031e-11
3.01787e-07
1.2808e-11
3.01767e-07
1.04377e-10
3.01762e-07
2.72038e-11
3.01734e-07
1.48192e-10
3.01726e-07
4.25356e-11
3.01685e-07
2.15739e-10
3.01673e-07
6.19018e-11
3.01608e-07
3.41899e-10
3.01591e-07
8.70127e-11
3.01469e-07
6.46346e-10
3.01444e-07
9.19174e-11
3.0107e-07
2.15127e-09
1.31054e-09
3.00824e-07
3.18789e-07
-1.42988e-08
3.18944e-07
-1.12209e-09
3.18918e-07
2.14747e-10
3.18927e-07
-7.73876e-11
3.18923e-07
2.14173e-11
3.18923e-07
-4.39431e-12
3.18909e-07
8.68868e-11
3.18906e-07
1.55101e-11
3.18885e-07
1.25366e-10
3.1888e-07
3.23949e-11
3.1885e-07
1.78119e-10
3.18841e-07
5.0834e-11
3.18798e-07
2.59299e-10
3.18786e-07
7.4188e-11
3.18717e-07
4.10552e-10
3.18699e-07
1.04707e-10
3.18571e-07
7.75047e-10
3.18541e-07
1.21697e-10
3.18163e-07
2.52837e-09
1.57023e-09
3.17904e-07
3.36883e-07
-1.36689e-08
3.37034e-07
-1.27307e-09
3.3701e-07
2.38208e-10
3.37018e-07
-8.5794e-11
3.37014e-07
2.59016e-11
3.37015e-07
-5.37557e-12
3.36999e-07
1.02445e-10
3.36996e-07
1.79773e-11
3.36974e-07
1.47914e-10
3.36968e-07
3.80764e-11
3.36937e-07
2.09799e-10
3.36928e-07
5.97789e-11
3.36882e-07
3.05272e-10
3.36869e-07
8.74086e-11
3.36796e-07
4.82981e-10
3.36777e-07
1.24196e-10
3.36642e-07
9.09619e-10
3.36607e-07
1.56931e-10
3.36227e-07
2.90796e-09
1.84333e-09
3.35954e-07
3.56003e-07
-1.2983e-08
3.56148e-07
-1.41888e-09
3.56127e-07
2.59477e-10
3.56135e-07
-9.37775e-11
3.56129e-07
3.15914e-11
3.56131e-07
-6.86006e-12
3.56113e-07
1.19681e-10
3.56111e-07
2.04181e-11
3.56087e-07
1.71937e-10
3.56082e-07
4.32586e-11
3.56048e-07
2.43754e-10
3.56039e-07
6.84827e-11
3.5599e-07
3.54352e-10
3.55977e-07
1.00733e-10
3.559e-07
5.59696e-10
3.5588e-07
1.44271e-10
3.55738e-07
1.05143e-09
3.55697e-07
1.97882e-10
3.55316e-07
3.28945e-09
2.12956e-09
3.55029e-07
3.76209e-07
-1.22992e-08
3.76347e-07
-1.55759e-09
3.76329e-07
2.77222e-10
3.76336e-07
-1.0045e-10
3.7633e-07
3.72919e-11
3.76331e-07
-8.16329e-12
3.76313e-07
1.37203e-10
3.76311e-07
2.30178e-11
3.76285e-07
1.97225e-10
3.76279e-07
4.94502e-11
3.76244e-07
2.79168e-10
3.76234e-07
7.83697e-11
3.76183e-07
4.0559e-10
3.76168e-07
1.15609e-10
3.76088e-07
6.39932e-10
3.76066e-07
1.67111e-10
3.75918e-07
1.19839e-09
3.7587e-07
2.46162e-10
3.75489e-07
3.66976e-09
2.43039e-09
3.75189e-07
3.97563e-07
-1.16216e-08
3.97693e-07
-1.68772e-09
3.97679e-07
2.91651e-10
3.97684e-07
-1.05916e-10
3.97678e-07
4.37568e-11
3.97679e-07
-9.25114e-12
3.9766e-07
1.55884e-10
3.97657e-07
2.6442e-11
3.9763e-07
2.23327e-10
3.97624e-07
5.59014e-11
3.97587e-07
3.16258e-10
3.97576e-07
8.88757e-11
3.97523e-07
4.59361e-10
3.97507e-07
1.31565e-10
3.97423e-07
7.23878e-10
3.97398e-07
1.91774e-10
3.97244e-07
1.35183e-09
3.97188e-07
3.02502e-10
3.96809e-07
4.04859e-09
2.74521e-09
3.96494e-07
4.2013e-07
-1.09344e-08
4.2025e-07
-1.8082e-09
4.20239e-07
3.02512e-10
4.20243e-07
-1.10428e-10
4.20236e-07
5.08483e-11
4.20237e-07
-1.06531e-11
4.20218e-07
1.75396e-10
4.20214e-07
2.94756e-11
4.20186e-07
2.5145e-10
4.2018e-07
6.29708e-11
4.2014e-07
3.55573e-10
4.20129e-07
1.00185e-10
4.20073e-07
5.16114e-10
4.20055e-07
1.48787e-10
4.19967e-07
8.12218e-10
4.1994e-07
2.19292e-10
4.19781e-07
1.51088e-09
4.19716e-07
3.6711e-10
4.1934e-07
4.42424e-09
3.07359e-09
4.19011e-07
4.43977e-07
-1.02334e-08
4.44086e-07
-1.91735e-09
4.44079e-07
3.09746e-10
4.44082e-07
-1.1381e-10
4.44074e-07
5.90475e-11
4.44075e-07
-1.1948e-11
4.44055e-07
1.96308e-10
4.44051e-07
3.33178e-11
4.44022e-07
2.80559e-10
4.44014e-07
7.02227e-11
4.43973e-07
3.96805e-10
4.43961e-07
1.12116e-10
4.43902e-07
5.75667e-10
4.43883e-07
1.67234e-10
4.43791e-07
9.04473e-10
4.43761e-07
2.49154e-10
4.43596e-07
1.67618e-09
4.43521e-07
4.41371e-10
4.4315e-07
4.79525e-09
3.41559e-09
4.42808e-07
4.69178e-07
-9.52429e-09
4.69275e-07
-2.01395e-09
4.69271e-07
3.12952e-10
4.69274e-07
-1.16156e-10
4.69265e-07
6.7995e-11
4.69266e-07
-1.34975e-11
4.69244e-07
2.18025e-10
4.6924e-07
3.68296e-11
4.69209e-07
3.11796e-10
4.69201e-07
7.8315e-11
4.69158e-07
4.40347e-10
4.69145e-07
1.25137e-10
4.69083e-07
6.38286e-10
4.69063e-07
1.8739e-10
4.68966e-07
1.00113e-09
4.68933e-07
2.82805e-10
4.68762e-07
1.8464e-09
4.68678e-07
5.25637e-10
4.68313e-07
5.15961e-09
3.77069e-09
4.67958e-07
4.9581e-07
-8.81789e-09
4.95892e-07
-2.09631e-09
4.95893e-07
3.12204e-10
4.95894e-07
-1.17303e-10
4.95884e-07
7.82491e-11
4.95885e-07
-1.48156e-11
4.95862e-07
2.41215e-10
4.95858e-07
4.13902e-11
4.95826e-07
3.43967e-10
4.95817e-07
8.67113e-11
4.95772e-07
4.85835e-10
4.95758e-07
1.39011e-10
4.95692e-07
7.03734e-10
4.9567e-07
2.09189e-10
4.9557e-07
1.10161e-09
4.95532e-07
3.1966e-10
4.95357e-07
2.02219e-09
4.95261e-07
6.21377e-10
4.94905e-07
5.51592e-09
4.13856e-09
4.94537e-07
5.23953e-07
-8.12272e-09
5.2402e-07
-2.16324e-09
5.24025e-07
3.07191e-10
5.24025e-07
-1.17403e-10
5.24014e-07
8.94001e-11
5.24015e-07
-1.63171e-11
5.23991e-07
2.65186e-10
5.23986e-07
4.56662e-11
5.23952e-07
3.78421e-10
5.23943e-07
9.62118e-11
5.23895e-07
5.33744e-10
5.2388e-07
1.54317e-10
5.23811e-07
7.72342e-10
5.23787e-07
2.33243e-10
5.23683e-07
1.20645e-09
5.23641e-07
3.6144e-10
5.23461e-07
2.20199e-09
5.23353e-07
7.28875e-10
5.23007e-07
5.86227e-09
4.51808e-09
5.22627e-07
5.53694e-07
-7.43368e-09
5.53744e-07
-2.21319e-09
5.53753e-07
2.98221e-10
5.53752e-07
-1.164e-10
5.53739e-07
1.0216e-10
5.5374e-07
-1.75423e-11
5.53715e-07
2.90775e-10
5.5371e-07
5.11259e-11
5.53674e-07
4.13884e-10
5.53664e-07
1.06104e-10
5.53614e-07
5.83727e-10
5.53597e-07
1.70689e-10
5.53526e-07
8.43884e-10
5.535e-07
2.59384e-10
5.53391e-07
1.31503e-09
5.53344e-07
4.07411e-10
5.5316e-07
2.38651e-09
5.5304e-07
8.4953e-10
5.52705e-07
6.19748e-09
4.90835e-09
5.52314e-07
5.85121e-07
-6.751e-09
5.85153e-07
-2.24518e-09
5.85166e-07
2.85072e-10
5.85164e-07
-1.14479e-10
5.8515e-07
1.16065e-10
5.85151e-07
-1.89131e-11
5.85125e-07
3.172e-10
5.85119e-07
5.63309e-11
5.85082e-07
4.51821e-10
5.85071e-07
1.17315e-10
5.85018e-07
6.36279e-10
5.85e-07
1.88822e-10
5.84926e-07
9.1868e-10
5.84897e-07
2.88372e-10
5.84784e-07
1.42784e-09
5.84732e-07
4.59548e-10
5.84545e-07
2.57387e-09
5.8441e-07
9.83566e-10
5.84088e-07
6.51959e-09
5.30786e-09
5.83689e-07
6.18332e-07
-6.06403e-09
6.18345e-07
-2.25788e-09
6.18362e-07
2.68213e-10
6.18359e-07
-1.1158e-10
6.18343e-07
1.31866e-10
6.18344e-07
-1.98792e-11
6.18316e-07
3.45353e-10
6.1831e-07
6.29551e-11
6.18271e-07
4.90755e-10
6.18259e-07
1.29076e-10
6.18204e-07
6.90937e-10
6.18184e-07
2.08341e-10
6.18107e-07
9.96373e-10
6.18075e-07
3.20062e-10
6.17959e-07
1.54406e-09
6.179e-07
5.17092e-10
6.1771e-07
2.7647e-09
6.17561e-07
1.13236e-09
6.17254e-07
6.8275e-09
5.7153e-09
6.16846e-07
6.53427e-07
-5.37095e-09
6.53419e-07
-2.25061e-09
6.5344e-07
2.47505e-10
6.53436e-07
-1.07887e-10
6.53419e-07
1.48971e-10
6.53419e-07
-2.08334e-11
6.5339e-07
3.74307e-10
6.53384e-07
6.94503e-11
6.53342e-07
5.32276e-10
6.53329e-07
1.42518e-10
6.53272e-07
7.48202e-10
6.5325e-07
2.30132e-10
6.5317e-07
1.07726e-09
6.53135e-07
3.55431e-10
6.53015e-07
1.66414e-09
6.5295e-07
5.82339e-10
6.52757e-07
2.95682e-09
6.52593e-07
1.296e-09
6.52301e-07
7.11949e-09
6.12857e-09
6.51888e-07
6.90511e-07
-4.62374e-09
6.90483e-07
-2.22275e-09
6.90507e-07
2.2377e-10
6.90502e-07
-1.0347e-10
6.90483e-07
1.68267e-10
6.90484e-07
-2.12605e-11
6.90453e-07
4.05116e-10
6.90446e-07
7.75571e-11
6.90402e-07
5.74851e-10
6.90388e-07
1.56704e-10
6.90329e-07
8.07633e-10
6.90305e-07
2.53694e-10
6.90221e-07
1.16099e-09
6.90182e-07
3.94238e-10
6.90059e-07
1.7872e-09
6.89986e-07
6.5435e-10
6.89793e-07
3.15095e-09
6.89613e-07
1.47556e-09
6.89338e-07
7.39488e-09
6.54571e-09
6.88921e-07
7.29698e-07
-3.80779e-09
7.29649e-07
-2.17427e-09
7.29676e-07
1.96986e-10
7.2967e-07
-9.83657e-11
7.2965e-07
1.88894e-10
7.29649e-07
-2.13287e-11
7.29618e-07
4.36594e-10
7.29609e-07
8.58592e-11
7.29564e-07
6.1998e-10
7.29548e-07
1.73102e-10
7.29486e-07
8.69573e-10
7.2946e-07
2.80246e-10
7.29374e-07
1.24769e-09
7.2933e-07
4.37807e-10
7.29204e-07
1.91353e-09
7.29123e-07
7.35765e-10
7.28929e-07
3.34472e-09
7.28733e-07
1.67093e-09
7.28476e-07
7.65253e-09
6.96387e-09
7.28057e-07
7.71102e-07
-2.73041e-09
7.71035e-07
-2.10767e-09
7.71063e-07
1.69296e-10
7.71058e-07
-9.35706e-11
7.71035e-07
2.12502e-10
7.71035e-07
-2.12438e-11
7.71001e-07
4.70545e-10
7.70992e-07
9.54594e-11
7.70945e-07
6.66666e-10
7.70928e-07
1.8996e-10
7.70863e-07
9.34115e-10
7.70835e-07
3.08526e-10
7.70745e-07
1.33744e-09
7.70697e-07
4.85186e-10
7.70568e-07
2.04251e-09
7.70478e-07
8.249e-10
7.70285e-07
3.53892e-09
7.70073e-07
1.88242e-09
7.69835e-07
7.89134e-09
7.38136e-09
7.69417e-07
8.14849e-07
-1.70439e-09
8.14768e-07
-2.02653e-09
8.14796e-07
1.41009e-10
8.14792e-07
-8.8955e-11
8.14766e-07
2.37516e-10
8.14766e-07
-2.06938e-11
8.14731e-07
5.05012e-10
8.14721e-07
1.05397e-10
8.14672e-07
7.15694e-10
8.14653e-07
2.09456e-10
8.14586e-07
1.00068e-09
8.14555e-07
3.40531e-10
8.14463e-07
1.42924e-09
8.1441e-07
5.38588e-10
8.1428e-07
2.1729e-09
8.14179e-07
9.25436e-10
8.13989e-07
3.72894e-09
8.1376e-07
2.11098e-09
8.13545e-07
8.10661e-09
7.79872e-09
8.13127e-07
8.61073e-07
-1.04944e-09
8.6098e-07
-1.93398e-09
8.61008e-07
1.1389e-10
8.61003e-07
-8.43143e-11
8.60976e-07
2.64229e-10
8.60974e-07
-1.84515e-11
8.60939e-07
5.40632e-10
8.60927e-07
1.18229e-10
8.60877e-07
7.64848e-10
8.60855e-07
2.31146e-10
8.60787e-07
1.06828e-09
8.60751e-07
3.76296e-10
8.60658e-07
1.5222e-09
8.60598e-07
5.98304e-10
8.60468e-07
2.30343e-09
8.60356e-07
1.03667e-09
8.6017e-07
3.91575e-09
8.59924e-07
2.3571e-09
8.5973e-07
8.30017e-09
8.21178e-09
8.59317e-07
9.09912e-07
-7.02895e-10
9.09812e-07
-1.83394e-09
9.09836e-07
8.95008e-11
9.09832e-07
-8.06103e-11
9.09804e-07
2.92369e-10
9.09801e-07
-1.53886e-11
9.09764e-07
5.76955e-10
9.09751e-07
1.31679e-10
9.09699e-07
8.16625e-10
9.09674e-07
2.5592e-10
9.09605e-07
1.13819e-09
9.09565e-07
4.16434e-10
9.0947e-07
1.61746e-09
9.09403e-07
6.65002e-10
9.09271e-07
2.43549e-09
9.09148e-07
1.16031e-09
9.08965e-07
4.09853e-09
9.08703e-07
2.61841e-09
9.08529e-07
8.47458e-09
8.6142e-09
9.08126e-07
9.61517e-07
-4.99071e-10
9.61412e-07
-1.72855e-09
9.61432e-07
6.93871e-11
9.61429e-07
-7.78327e-11
9.61399e-07
3.22769e-10
9.61394e-07
-1.0771e-11
9.61357e-07
6.15115e-10
9.61341e-07
1.47825e-10
9.61288e-07
8.69195e-10
9.61261e-07
2.82812e-10
9.61189e-07
1.20972e-09
9.61145e-07
4.60508e-10
9.61048e-07
1.71432e-09
9.60974e-07
7.38509e-10
9.60842e-07
2.56784e-09
9.60706e-07
1.29508e-09
9.60527e-07
4.2781e-09
9.60251e-07
2.89456e-09
9.60095e-07
8.63083e-09
9.00283e-09
9.59707e-07
1.01605e-06
-3.48907e-10
1.01594e-06
-1.61971e-09
1.01595e-06
5.37948e-11
1.01595e-06
-7.61671e-11
1.01592e-06
3.54544e-10
1.01591e-06
-5.00258e-12
1.01587e-06
6.53947e-10
1.01586e-06
1.64934e-10
1.0158e-06
9.24251e-10
1.01577e-06
3.13353e-10
1.0157e-06
1.28327e-09
1.01565e-06
5.09813e-10
1.01555e-06
1.81285e-09
1.01547e-06
8.20205e-10
1.01534e-06
2.70056e-09
1.01519e-06
1.4433e-09
1.01502e-06
4.45186e-09
1.01473e-06
3.18383e-09
1.01459e-06
8.76837e-09
9.37481e-09
1.01422e-06
1.07367e-06
-2.23618e-10
1.07356e-06
-1.50829e-09
1.07357e-06
4.35134e-11
1.07356e-06
-7.50972e-11
1.07353e-06
3.8819e-10
1.07352e-06
2.92298e-12
1.07348e-06
6.94307e-10
1.07346e-06
1.85351e-10
1.07341e-06
9.79664e-10
1.07337e-06
3.46864e-10
1.0733e-06
1.35775e-09
1.07324e-06
5.6421e-10
1.07315e-06
1.91193e-09
1.07306e-06
9.10169e-10
1.07292e-06
2.83199e-09
1.07276e-06
1.60374e-09
1.07259e-06
4.62034e-09
1.07229e-06
3.48561e-09
1.07217e-06
8.88817e-09
9.7277e-09
1.07182e-06
1.13455e-06
-1.16827e-10
1.13444e-06
-1.39586e-09
1.13445e-06
3.8495e-11
1.13444e-06
-7.4655e-11
1.13441e-06
4.2277e-10
1.1344e-06
1.26201e-11
1.13436e-06
7.3503e-10
1.13434e-06
2.07409e-10
1.13428e-06
1.03708e-09
1.13424e-06
3.84912e-10
1.13417e-06
1.43359e-09
1.13411e-06
6.24994e-10
1.13401e-06
2.01169e-09
1.13391e-06
1.00967e-09
1.13378e-06
2.96238e-09
1.1336e-06
1.77824e-09
1.13344e-06
4.78156e-09
1.13313e-06
3.79729e-09
1.13303e-06
8.99091e-09
1.00582e-08
1.1327e-06
1.19889e-06
-2.61417e-11
1.19878e-06
-1.28324e-09
1.19878e-06
3.93613e-11
1.19878e-06
-7.41774e-11
1.19874e-06
4.58754e-10
1.19873e-06
2.50993e-11
1.19869e-06
7.77026e-10
1.19866e-06
2.33371e-10
1.1986e-06
1.0945e-09
1.19856e-06
4.26798e-10
1.19848e-06
1.50972e-09
1.19842e-06
6.91989e-10
1.19832e-06
2.11109e-09
1.19821e-06
1.11862e-09
1.19808e-06
3.09029e-09
1.19789e-06
1.96515e-09
1.19774e-06
4.9365e-09
1.19742e-06
4.11739e-09
1.19733e-06
9.07855e-09
1.03637e-08
1.19703e-06
1.26687e-06
4.93206e-11
1.26676e-06
-1.17199e-09
1.26675e-06
4.58441e-11
1.26675e-06
-7.35758e-11
1.26672e-06
4.95169e-10
1.2667e-06
4.00039e-11
1.26666e-06
8.19087e-10
1.26663e-06
2.61745e-10
1.26657e-06
1.15337e-09
1.26653e-06
4.74129e-10
1.26645e-06
1.58655e-09
1.26637e-06
7.6644e-10
1.26628e-06
2.21028e-09
1.26616e-06
1.23807e-09
1.26603e-06
3.21617e-09
1.26583e-06
2.16563e-09
1.26568e-06
5.08382e-09
1.26536e-06
4.44253e-09
1.26528e-06
9.15237e-09
1.06413e-08
1.26501e-06
1.33871e-06
1.11335e-10
1.3386e-06
-1.06286e-09
1.33859e-06
5.82985e-11
1.33859e-06
-7.20357e-11
1.33855e-06
5.32412e-10
1.33853e-06
5.83537e-11
1.33849e-06
8.62111e-10
1.33846e-06
2.94693e-10
1.3384e-06
1.21183e-09
1.33834e-06
5.26226e-10
1.33827e-06
1.66303e-09
1.33819e-06
8.48145e-10
1.33809e-06
2.30829e-09
1.33796e-06
1.36773e-09
1.33783e-06
3.33878e-09
1.33762e-06
2.37757e-09
1.33748e-06
5.2248e-09
1.33715e-06
4.77062e-09
1.33709e-06
9.21471e-09
1.08891e-08
1.33684e-06
1.41462e-06
1.60924e-10
1.41451e-06
-9.57267e-10
1.41449e-06
7.61563e-11
1.41449e-06
-6.93516e-11
1.41445e-06
5.69487e-10
1.41443e-06
7.98084e-11
1.41439e-06
9.04849e-10
1.41435e-06
3.30887e-10
1.41429e-06
1.27113e-09
1.41423e-06
5.84678e-10
1.41416e-06
1.73952e-09
1.41407e-06
9.3822e-10
1.41397e-06
2.40533e-09
1.41383e-06
1.5083e-09
1.41371e-06
3.45879e-09
1.41349e-06
2.60133e-09
1.41335e-06
5.35869e-09
1.41303e-06
5.09772e-09
1.41297e-06
9.26708e-09
1.1105e-08
1.41276e-06
1.49483e-06
2.00006e-10
1.49473e-06
-8.55713e-10
1.4947e-06
9.94455e-11
1.4947e-06
-6.45936e-11
1.49466e-06
6.06732e-10
1.49463e-06
1.05371e-10
1.49459e-06
9.48198e-10
1.49455e-06
3.72312e-10
1.49449e-06
1.3296e-09
1.49443e-06
6.48765e-10
1.49435e-06
1.81503e-09
1.49425e-06
1.03633e-09
1.49416e-06
2.50057e-09
1.49401e-06
1.65913e-09
1.49389e-06
3.57527e-09
1.49366e-06
2.83431e-09
1.49353e-06
5.48704e-09
1.49321e-06
5.42134e-09
1.49316e-06
9.31184e-09
1.12881e-08
1.49298e-06
1.57958e-06
2.29684e-10
1.57949e-06
-7.59299e-10
1.57946e-06
1.27295e-10
1.57945e-06
-5.74656e-11
1.57941e-06
6.43183e-10
1.57939e-06
1.34721e-10
1.57934e-06
9.90876e-10
1.5793e-06
4.17882e-10
1.57924e-06
1.38823e-09
1.57917e-06
7.20016e-10
1.57909e-06
1.88998e-09
1.57899e-06
1.14337e-09
1.57889e-06
2.59439e-09
1.57873e-06
1.82047e-09
1.57862e-06
3.68921e-09
1.57838e-06
3.07598e-09
1.57825e-06
5.6097e-09
1.57794e-06
5.73733e-09
1.5779e-06
9.35037e-09
1.14374e-08
1.57775e-06
1.66914e-06
2.51826e-10
1.66905e-06
-6.68169e-10
1.66902e-06
1.59416e-10
1.66901e-06
-4.69914e-11
1.66897e-06
6.79183e-10
1.66894e-06
1.68826e-10
1.6689e-06
1.03381e-09
1.66885e-06
4.69378e-10
1.66879e-06
1.44558e-09
1.66871e-06
7.97547e-10
1.66864e-06
1.96342e-09
1.66852e-06
1.25871e-09
1.66843e-06
2.68615e-09
1.66826e-06
1.9911e-09
1.66815e-06
3.80001e-09
1.6679e-06
3.32319e-09
1.66778e-06
5.72837e-09
1.66748e-06
6.04316e-09
1.66744e-06
9.3847e-09
1.15533e-08
1.66733e-06
1.76378e-06
2.67377e-10
1.7637e-06
-5.83018e-10
1.76366e-06
1.94641e-10
1.76365e-06
-3.2907e-11
1.76361e-06
7.13798e-10
1.76357e-06
2.07252e-10
1.76353e-06
1.07569e-09
1.76348e-06
5.25725e-10
1.76342e-06
1.50261e-09
1.76333e-06
8.82778e-10
1.76326e-06
2.03604e-09
1.76314e-06
1.38295e-09
1.76305e-06
2.77655e-09
1.76287e-06
2.1708e-09
1.76276e-06
3.90905e-09
1.76251e-06
3.57478e-09
1.76239e-06
5.84324e-09
1.7621e-06
6.33489e-09
1.76207e-06
9.41564e-09
1.16361e-08
1.76199e-06
1.86378e-06
2.77961e-10
1.8637e-06
-5.03546e-10
1.86367e-06
2.32447e-10
1.86365e-06
-1.42829e-11
1.86361e-06
7.47436e-10
1.86357e-06
2.50918e-10
1.86353e-06
1.11747e-09
1.86347e-06
5.88497e-10
1.86341e-06
1.55807e-09
1.86332e-06
9.7458e-10
1.86325e-06
2.10699e-09
1.86312e-06
1.515e-09
1.86303e-06
2.86519e-09
1.86284e-06
2.35768e-09
1.86273e-06
4.01602e-09
1.86248e-06
3.82712e-09
1.86237e-06
5.95593e-09
1.86209e-06
6.61038e-09
1.86206e-06
9.44455e-09
1.16874e-08
1.86201e-06
1.96946e-06
2.84224e-10
1.96938e-06
-4.30005e-10
1.96934e-06
2.71504e-10
1.96932e-06
9.00757e-12
1.96929e-06
7.79282e-10
1.96924e-06
2.99244e-10
1.9692e-06
1.158e-09
1.96913e-06
6.56569e-10
1.96907e-06
1.61297e-09
1.96898e-06
1.07405e-09
1.96891e-06
2.17725e-09
1.96877e-06
1.6551e-09
1.96868e-06
2.95314e-09
1.96848e-06
2.55104e-09
1.96838e-06
4.12256e-09
1.96813e-06
4.07866e-09
1.96802e-06
6.06665e-09
1.96776e-06
6.86645e-09
1.96773e-06
9.47146e-09
1.17087e-08
1.96771e-06
2.08112e-06
2.87425e-10
2.08105e-06
-3.61671e-10
2.08101e-06
3.11204e-10
2.08098e-06
3.77253e-11
2.08095e-06
8.09863e-10
2.0809e-06
3.53033e-10
2.08086e-06
1.19821e-09
2.08078e-06
7.31215e-10
2.08073e-06
1.66632e-09
2.08062e-06
1.17976e-09
2.08055e-06
2.24616e-09
2.08041e-06
1.8016e-09
2.08032e-06
3.04019e-09
2.08012e-06
2.74838e-09
2.08002e-06
4.2285e-09
2.07977e-06
4.32561e-09
2.07966e-06
6.17666e-09
2.07942e-06
7.10173e-09
2.0794e-06
9.49685e-09
1.17027e-08
2.0794e-06
2.19911e-06
2.87817e-10
2.19905e-06
-2.98445e-10
2.19901e-06
3.5022e-10
2.19897e-06
7.17248e-11
2.19894e-06
8.3853e-10
2.19889e-06
4.11499e-10
2.19885e-06
1.23718e-09
2.19877e-06
8.11146e-10
2.19871e-06
1.71928e-09
2.1986e-06
1.2924e-09
2.19853e-06
2.31504e-09
2.19838e-06
1.95432e-09
2.19829e-06
3.12775e-09
2.19809e-06
2.9486e-09
2.19799e-06
4.33549e-09
2.19774e-06
4.56644e-09
2.19764e-06
6.28583e-09
2.19742e-06
7.31418e-09
2.1974e-06
9.51986e-09
1.16718e-08
2.19743e-06
2.32379e-06
2.86278e-10
2.32373e-06
-2.39315e-10
2.32369e-06
3.88056e-10
2.32365e-06
1.11475e-10
2.32363e-06
8.65953e-10
2.32356e-06
4.75236e-10
2.32353e-06
1.27586e-09
2.32344e-06
8.97232e-10
2.32339e-06
1.77117e-09
2.32327e-06
1.41022e-09
2.3232e-06
2.38345e-09
2.32304e-06
2.11111e-09
2.32296e-06
3.21574e-09
2.32276e-06
3.14884e-09
2.32265e-06
4.4433e-09
2.32242e-06
4.79764e-09
2.32231e-06
6.3947e-09
2.32212e-06
7.50345e-09
2.3221e-06
9.54016e-09
1.16191e-08
2.32215e-06
2.45554e-06
2.82736e-10
2.45549e-06
-1.83994e-10
2.45545e-06
4.23612e-10
2.45541e-06
1.56477e-10
2.45538e-06
8.9173e-10
2.45531e-06
5.43247e-10
2.45527e-06
1.31368e-09
2.45518e-06
9.87983e-10
2.45513e-06
1.82328e-09
2.45501e-06
1.53335e-09
2.45494e-06
2.45292e-09
2.45478e-06
2.2714e-09
2.45469e-06
3.30562e-09
2.45449e-06
3.34783e-09
2.45438e-06
4.5532e-09
2.45416e-06
5.01807e-09
2.45405e-06
6.5026e-09
2.45389e-06
7.66882e-09
2.45387e-06
9.55624e-09
1.15474e-08
2.45394e-06
2.59476e-06
2.77777e-10
2.59471e-06
-1.31408e-10
2.59468e-06
4.56683e-10
2.59463e-06
2.06812e-10
2.5946e-06
9.16662e-10
2.59453e-06
6.15811e-10
2.59449e-06
1.35159e-09
2.5944e-06
1.08375e-09
2.59434e-06
1.8753e-09
2.59422e-06
1.65984e-09
2.59415e-06
2.52319e-09
2.59398e-06
2.43276e-09
2.59389e-06
3.39727e-09
2.5937e-06
3.54271e-09
2.59359e-06
4.66461e-09
2.59338e-06
5.22495e-09
2.59327e-06
6.60917e-09
2.59313e-06
7.81095e-09
2.59312e-06
9.5672e-09
1.14599e-08
2.59321e-06
2.74188e-06
2.71165e-10
2.74183e-06
-8.12998e-11
2.7418e-06
4.86589e-10
2.74174e-06
2.61615e-10
2.74172e-06
9.4062e-10
2.74164e-06
6.91757e-10
2.7416e-06
1.38939e-09
2.7415e-06
1.18291e-09
2.74145e-06
1.92852e-09
2.74132e-06
1.78929e-09
2.74125e-06
2.59578e-09
2.74109e-06
2.59434e-09
2.74099e-06
3.49188e-09
2.7408e-06
3.73233e-09
2.74069e-06
4.77809e-09
2.7405e-06
5.41776e-09
2.74039e-06
6.71315e-09
2.74027e-06
7.93029e-09
2.74027e-06
9.57134e-09
1.13591e-08
2.74037e-06
2.89733e-06
2.63366e-10
2.89728e-06
-3.27796e-11
2.89725e-06
5.13528e-10
2.8972e-06
3.20559e-10
2.89717e-06
9.64488e-10
2.89709e-06
7.7099e-10
2.89705e-06
1.42803e-09
2.89695e-06
1.28526e-09
2.8969e-06
1.98294e-09
2.89677e-06
1.9197e-09
2.89669e-06
2.67045e-09
2.89653e-06
2.75375e-09
2.89643e-06
3.58903e-09
2.89625e-06
3.91426e-09
2.89614e-06
4.89251e-09
2.89596e-06
5.59475e-09
2.89586e-06
6.8134e-09
2.89576e-06
8.02817e-09
2.89577e-06
9.56765e-09
1.12475e-08
2.89588e-06
3.0616e-06
2.54177e-10
3.06155e-06
1.41822e-11
3.06153e-06
5.37319e-10
3.06146e-06
3.82476e-10
3.06144e-06
9.88363e-10
3.06136e-06
8.52218e-10
3.06132e-06
1.46757e-09
3.06122e-06
1.38914e-09
3.06116e-06
2.03965e-09
3.06103e-06
2.05032e-09
3.06095e-06
2.74837e-09
3.06079e-06
2.91011e-09
3.06069e-06
3.6893e-09
3.06052e-06
4.08773e-09
3.06041e-06
5.00757e-09
3.06024e-06
5.7561e-09
3.06015e-06
6.90831e-09
3.06007e-06
8.1058e-09
3.06008e-06
9.55471e-09
1.11272e-08
3.06021e-06
3.23518e-06
2.44106e-10
3.23513e-06
6.01202e-11
3.23511e-06
5.58553e-10
3.23505e-06
4.46711e-10
3.23502e-06
1.01312e-09
3.23494e-06
9.35013e-10
3.2349e-06
1.50888e-09
3.23479e-06
1.49395e-09
3.23473e-06
2.09874e-09
3.23461e-06
2.17931e-09
3.23452e-06
2.82913e-09
3.23437e-06
3.06142e-09
3.23427e-06
3.79176e-09
3.23411e-06
4.25101e-09
3.23399e-06
5.12159e-09
3.23385e-06
5.90103e-09
3.23376e-06
6.99629e-09
3.2337e-06
8.16475e-09
3.23372e-06
9.53183e-09
1.09998e-08
3.23385e-06
3.4186e-06
2.33127e-10
3.41856e-06
1.04747e-10
3.41854e-06
5.77482e-10
3.41847e-06
5.11956e-10
3.41845e-06
1.03894e-09
3.41836e-06
1.01807e-09
3.41832e-06
1.5521e-09
3.41821e-06
1.59813e-09
3.41815e-06
2.16089e-09
3.41803e-06
2.30585e-09
3.41794e-06
2.91323e-09
3.4178e-06
3.20701e-09
3.41769e-06
3.8962e-09
3.41754e-06
4.40382e-09
3.41743e-06
5.23353e-09
3.4173e-06
6.03022e-09
3.41722e-06
7.07576e-09
3.41718e-06
8.20641e-09
3.41721e-06
9.4982e-09
1.08665e-08
3.41734e-06
3.61242e-06
2.21869e-10
3.61238e-06
1.48213e-10
3.61236e-06
5.94935e-10
3.6123e-06
5.77402e-10
3.61227e-06
1.06655e-09
3.61219e-06
1.10076e-09
3.61214e-06
1.59784e-09
3.61204e-06
1.70092e-09
3.61197e-06
2.226e-09
3.61185e-06
2.42851e-09
3.61176e-06
2.99986e-09
3.61162e-06
3.34546e-09
3.61152e-06
4.00113e-09
3.61138e-06
4.54518e-09
3.61127e-06
5.34138e-09
3.61116e-06
6.14358e-09
3.61109e-06
7.14521e-09
3.61106e-06
8.23218e-09
3.61111e-06
9.45367e-09
1.07283e-08
3.61124e-06
3.81723e-06
2.10496e-10
3.81719e-06
1.89978e-10
3.81717e-06
6.11382e-10
3.81711e-06
6.41822e-10
3.81708e-06
1.09606e-09
3.817e-06
1.18194e-09
3.81695e-06
1.64609e-09
3.81685e-06
1.80108e-09
3.81678e-06
2.29412e-09
3.81666e-06
2.54662e-09
3.81657e-06
3.08875e-09
3.81644e-06
3.47644e-09
3.81634e-06
4.10564e-09
3.81621e-06
4.6752e-09
3.81611e-06
5.44375e-09
3.81601e-06
6.24192e-09
3.81595e-06
7.20346e-09
3.81594e-06
8.24325e-09
3.81599e-06
9.39811e-09
1.05856e-08
3.81614e-06
4.03365e-06
1.99696e-10
4.03361e-06
2.29939e-10
4.0336e-06
6.27635e-10
4.03353e-06
7.04477e-10
4.0335e-06
1.12786e-09
4.03342e-06
1.26098e-09
4.03337e-06
1.69701e-09
4.03328e-06
1.89794e-09
4.03321e-06
2.36474e-09
4.03309e-06
2.65925e-09
4.033e-06
3.17863e-09
4.03288e-06
3.59911e-09
4.03278e-06
4.20788e-09
4.03266e-06
4.79343e-09
4.03256e-06
5.53869e-09
4.03248e-06
6.32545e-09
4.03243e-06
7.24946e-09
4.03244e-06
8.2406e-09
4.0325e-06
9.33184e-09
1.04389e-08
4.03265e-06
4.26235e-06
1.89704e-10
4.26231e-06
2.67498e-10
4.26229e-06
6.44101e-10
4.26223e-06
7.64434e-10
4.2622e-06
1.1618e-09
4.26212e-06
1.33702e-09
4.26207e-06
1.75021e-09
4.26198e-06
1.99067e-09
4.2619e-06
2.43725e-09
4.2618e-06
2.76601e-09
4.26171e-06
3.26855e-09
4.26159e-06
3.71338e-09
4.26149e-06
4.30653e-09
4.26139e-06
4.90009e-09
4.2613e-06
5.62492e-09
4.26123e-06
6.39485e-09
4.2612e-06
7.28265e-09
4.26121e-06
8.22506e-09
4.26129e-06
9.25523e-09
1.02884e-08
4.26144e-06
4.504e-06
1.81102e-10
4.50397e-06
3.02511e-10
4.50395e-06
6.61307e-10
4.50389e-06
8.21212e-10
4.50386e-06
1.19784e-09
4.50379e-06
1.40964e-09
4.50373e-06
1.80533e-09
4.50364e-06
2.07884e-09
4.50357e-06
2.51068e-09
4.50347e-06
2.86637e-09
4.50338e-06
3.35694e-09
4.50327e-06
3.81878e-09
4.50318e-06
4.39975e-09
4.50309e-06
4.99498e-09
4.50301e-06
5.70091e-09
4.50295e-06
6.45028e-09
4.50293e-06
7.30256e-09
4.50296e-06
8.19726e-09
4.50305e-06
9.16885e-09
1.0134e-08
4.5032e-06
4.75936e-06
1.74011e-10
4.75933e-06
3.3454e-10
4.75931e-06
6.79368e-10
4.75926e-06
8.74291e-10
4.75922e-06
1.23548e-09
4.75915e-06
1.4783e-09
4.7591e-06
1.86158e-09
4.75901e-06
2.16199e-09
4.75894e-06
2.58393e-09
4.75885e-06
2.96011e-09
4.75876e-06
3.4425e-09
4.75866e-06
3.91526e-09
4.75858e-06
4.48619e-09
4.75849e-06
5.0782e-09
4.75843e-06
5.76574e-09
4.75839e-06
6.49218e-09
4.75838e-06
7.30918e-09
4.75842e-06
8.15775e-09
4.75852e-06
9.07325e-09
9.97606e-09
4.75867e-06
5.0292e-06
1.6874e-10
5.02917e-06
3.63592e-10
5.02915e-06
6.98379e-10
5.0291e-06
9.23506e-10
5.02906e-06
1.27423e-09
5.029e-06
1.54279e-09
5.02894e-06
1.91812e-09
5.02886e-06
2.23988e-09
5.02879e-06
2.65573e-09
5.0287e-06
3.04691e-09
5.02862e-06
3.52367e-09
5.02854e-06
4.00245e-09
5.02846e-06
4.56436e-09
5.02839e-06
5.14954e-09
5.02833e-06
5.81851e-09
5.0283e-06
6.52064e-09
5.02831e-06
7.30253e-09
5.02836e-06
8.10695e-09
5.02847e-06
8.96902e-09
9.81448e-09
5.02863e-06
5.31433e-06
1.65175e-10
5.31431e-06
3.89505e-10
5.31429e-06
7.18096e-10
5.31424e-06
9.68707e-10
5.3142e-06
1.31334e-09
5.31414e-06
1.60285e-09
5.31409e-06
1.9739e-09
5.31401e-06
2.31223e-09
5.31395e-06
2.72481e-09
5.31387e-06
3.12652e-09
5.31379e-06
3.59915e-09
5.31371e-06
4.08018e-09
5.31364e-06
4.6332e-09
5.31358e-06
5.20895e-09
5.31354e-06
5.85876e-09
5.31353e-06
6.53591e-09
5.31355e-06
7.28294e-09
5.31361e-06
8.04529e-09
5.31372e-06
8.85669e-09
9.64937e-09
5.31389e-06
5.61563e-06
1.63305e-10
5.61561e-06
4.12481e-10
5.61559e-06
7.38221e-10
5.61555e-06
1.00995e-09
5.61551e-06
1.35203e-09
5.61546e-06
1.65837e-09
5.6154e-06
2.02789e-09
5.61533e-06
2.37883e-09
5.61527e-06
2.78991e-09
5.6152e-06
3.19861e-09
5.61513e-06
3.66764e-09
5.61506e-06
4.14804e-09
5.615e-06
4.69171e-09
5.61496e-06
5.25616e-09
5.61493e-06
5.88609e-09
5.61493e-06
6.53808e-09
5.61496e-06
7.25071e-09
5.61503e-06
7.97316e-09
5.61515e-06
8.73674e-09
9.48079e-09
5.61532e-06
5.93402e-06
1.62797e-10
5.934e-06
4.3259e-10
5.93398e-06
7.58263e-10
5.93394e-06
1.04728e-09
5.9339e-06
1.38945e-09
5.93385e-06
1.70918e-09
5.9338e-06
2.079e-09
5.93374e-06
2.43939e-09
5.93368e-06
2.84984e-09
5.93362e-06
3.26279e-09
5.93356e-06
3.72811e-09
5.9335e-06
4.20568e-09
5.93345e-06
4.7392e-09
5.93342e-06
5.29104e-09
5.9334e-06
5.90043e-09
5.93341e-06
6.52736e-09
5.93346e-06
7.2063e-09
5.93354e-06
7.89097e-09
5.93367e-06
8.60961e-09
9.30882e-09
5.93384e-06
6.27045e-06
1.63419e-10
6.27044e-06
4.50134e-10
6.27042e-06
7.77724e-10
6.27038e-06
1.0808e-09
6.27035e-06
1.42479e-09
6.2703e-06
1.75514e-09
6.27025e-06
2.12624e-09
6.2702e-06
2.49359e-09
6.27015e-06
2.90358e-09
6.27009e-06
3.31864e-09
6.27004e-06
3.77965e-09
6.26999e-06
4.25271e-09
6.26996e-06
4.77512e-09
6.26993e-06
5.31341e-09
6.26993e-06
5.90174e-09
6.26996e-06
6.50395e-09
6.27001e-06
7.15013e-09
6.2701e-06
7.79911e-09