/*--------------------------------*- C++ -*----------------------------------*\
| =========                 |                                                 |
| \\      /  F ield         | OpenFOAM: The Open Source CFD Toolbox           |
|  \\    /   O peration     | Version:  v1912                                 |
|   \\  /    A nd           | Website:  www.openfoam.com                      |
|    \\/     M anipulation  |                                                 |
\*---------------------------------------------------------------------------*/
FoamFile
{
    version     2.0;
    format      ascii;
    class       volVectorField;
    location    "500";
    object      U;
}
// * * * * * * * * * * * * * * * * * * * * * * * * * * * * * * * * * * * * * //

dimensions      [0 1 -1 0 0 0 0];


internalField   nonuniform List<vector> 
10000
(
(0.934899 -0.000807545 0)
(1.06049 -8.48047e-05 0)
(0.932602 -0.000107011 0)
(1.06245 2.35171e-05 0)
(0.931268 -8.39703e-05 0)
(1.06402 4.86552e-05 0)
(0.929642 -8.35951e-05 0)
(1.06565 6.55159e-05 0)
(0.927913 -9.07754e-05 0)
(1.06734 8.21228e-05 0)
(0.926051 -0.000103014 0)
(1.06908 0.0001014 0)
(0.924043 -0.000120825 0)
(1.07086 0.000126089 0)
(0.921854 -0.00014643 0)
(1.07265 0.000160481 0)
(0.919413 -0.000184437 0)
(1.07431 0.000211856 0)
(0.916471 -0.0002331 0)
(1.07508 0.000256326 0)
(0.986066 -0.00157558 0)
(1.01525 -0.00014991 0)
(0.986016 1.35116e-05 0)
(1.01454 -2.00288e-05 0)
(0.987176 3.31202e-05 0)
(1.01332 -2.09294e-05 0)
(0.988245 4.08714e-05 0)
(1.01199 -2.92318e-05 0)
(0.989421 4.86053e-05 0)
(1.01053 -3.95273e-05 0)
(0.990686 5.88713e-05 0)
(1.00891 -5.19359e-05 0)
(0.992042 7.26717e-05 0)
(1.00711 -6.71655e-05 0)
(0.993477 9.16019e-05 0)
(1.00507 -8.624e-05 0)
(0.994937 0.000119559 0)
(1.00261 -0.000113411 0)
(0.996197 0.000195538 0)
(0.998819 -0.000238951 0)
(0.999313 -0.00171365 0)
(1.00021 -1.25493e-05 0)
(0.998722 7.14713e-06 0)
(1.00028 3.84365e-05 0)
(0.999195 -2.31877e-05 0)
(0.999965 3.42801e-05 0)
(0.999456 -3.12639e-05 0)
(0.999639 3.63101e-05 0)
(0.999688 -3.65625e-05 0)
(0.9993 4.10509e-05 0)
(0.999864 -4.05537e-05 0)
(0.998944 4.67679e-05 0)
(0.999973 -4.31257e-05 0)
(0.998557 5.22268e-05 0)
(0.999984 -4.17643e-05 0)
(0.998097 5.48842e-05 0)
(0.999828 -2.78223e-05 0)
(0.997423 4.50661e-05 0)
(0.999259 6.04154e-05 0)
(0.995747 -4.3398e-05 0)
(1.00035 -0.00161905 0)
(0.998565 -7.19749e-05 0)
(0.9995 2.93374e-05 0)
(0.998894 -3.41435e-05 0)
(0.999686 1.68457e-05 0)
(0.998843 -2.95207e-05 0)
(0.999669 2.56297e-05 0)
(0.998778 -2.76409e-05 0)
(0.999638 3.14427e-05 0)
(0.998689 -2.66895e-05 0)
(0.999568 3.59219e-05 0)
(0.998566 -2.52072e-05 0)
(0.999451 3.92087e-05 0)
(0.998392 -2.12076e-05 0)
(0.999263 4.14745e-05 0)
(0.99812 -1.14792e-05 0)
(0.99894 4.50627e-05 0)
(0.997603 8.68812e-06 0)
(0.998242 9.74823e-05 0)
(0.996098 9.99203e-05 0)
(1 -0.00159192 0)
(0.998925 -5.90255e-05 0)
(0.999134 -2.6242e-06 0)
(0.999266 1.07994e-05 0)
(0.999274 -1.21898e-05 0)
(0.999243 1.89144e-05 0)
(0.999216 -7.9857e-06 0)
(0.999201 1.94307e-05 0)
(0.999149 -6.07138e-06 0)
(0.999131 1.84496e-05 0)
(0.999048 -2.05364e-06 0)
(0.999024 1.62258e-05 0)
(0.998904 5.81438e-06 0)
(0.998861 1.22387e-05 0)
(0.998694 2.08281e-05 0)
(0.998597 5.85137e-06 0)
(0.998352 5.17177e-05 0)
(0.998085 -3.83173e-06 0)
(0.997639 0.000165429 0)
(0.996626 0.00010625 0)
(0.999964 -0.00150976 0)
(0.999026 -9.91095e-05 0)
(0.999125 2.79028e-05 0)
(0.999336 -1.5173e-05 0)
(0.999269 1.12459e-05 0)
(0.999306 -1.0142e-05 0)
(0.999217 1.408e-05 0)
(0.999256 -8.27065e-06 0)
(0.999157 1.52708e-05 0)
(0.999176 -5.05322e-06 0)
(0.999063 1.71831e-05 0)
(0.999058 -6.40487e-07 0)
(0.998928 2.0517e-05 0)
(0.998884 4.81499e-06 0)
(0.998727 2.88554e-05 0)
(0.998607 1.01669e-05 0)
(0.998394 5.54904e-05 0)
(0.998083 8.01121e-06 0)
(0.997694 0.000200913 0)
(0.996653 0.000114339 0)
(0.999972 -0.00146605 0)
(0.999072 -9.86091e-05 0)
(0.999159 1.47802e-05 0)
(0.999358 -2.12314e-06 0)
(0.999301 -3.32465e-06 0)
(0.999329 3.78967e-06 0)
(0.99925 4.17209e-06 0)
(0.999279 4.94893e-06 0)
(0.999189 9.54197e-06 0)
(0.9992 5.33471e-06 0)
(0.999095 1.61045e-05 0)
(0.999083 5.50878e-06 0)
(0.998959 2.49397e-05 0)
(0.998909 6.45851e-06 0)
(0.998756 3.92105e-05 0)
(0.998634 9.50191e-06 0)
(0.998422 7.10125e-05 0)
(0.998113 1.25627e-05 0)
(0.997722 0.00023306 0)
(0.996732 0.000143607 0)
(1.00005 -0.00139462 0)
(0.99905 -0.000123303 0)
(0.999261 2.5156e-05 0)
(0.999313 -1.07028e-05 0)
(0.999402 4.41122e-06 0)
(0.999284 -2.01867e-06 0)
(0.99935 1.08605e-05 0)
(0.999234 8.87683e-07 0)
(0.999289 1.40628e-05 0)
(0.999155 3.2695e-06 0)
(0.999194 1.89527e-05 0)
(0.999038 5.58727e-06 0)
(0.999058 2.74727e-05 0)
(0.998865 7.9595e-06 0)
(0.998855 4.43782e-05 0)
(0.99859 1.0571e-05 0)
(0.998521 8.47243e-05 0)
(0.998071 1.28001e-05 0)
(0.997823 0.000271639 0)
(0.996737 0.000171264 0)
(1.0002 -0.00133362 0)
(0.998945 -0.000133613 0)
(0.999441 2.36613e-05 0)
(0.99918 -8.06312e-06 0)
(0.999583 2.22254e-06 0)
(0.999148 -1.80898e-07 0)
(0.999534 1.08084e-05 0)
(0.999095 1.90962e-06 0)
(0.999477 1.59914e-05 0)
(0.999012 3.89861e-06 0)
(0.999386 2.28548e-05 0)
(0.998892 6.38207e-06 0)
(0.999254 3.30865e-05 0)
(0.998715 9.71612e-06 0)
(0.999055 5.2041e-05 0)
(0.998436 1.38965e-05 0)
(0.998725 9.8207e-05 0)
(0.997917 1.75018e-05 0)
(0.998034 0.000310705 0)
(0.996628 0.000199508 0)
(1.00018 -0.00126301 0)
(0.999004 -0.000149155 0)
(0.999456 2.73029e-05 0)
(0.999217 -9.84362e-06 0)
(0.999594 3.59539e-06 0)
(0.999188 -7.85689e-07 0)
(0.999543 1.28496e-05 0)
(0.999137 2.25614e-06 0)
(0.999483 1.84493e-05 0)
(0.999057 4.71704e-06 0)
(0.99939 2.61963e-05 0)
(0.998939 7.29427e-06 0)
(0.999255 3.8115e-05 0)
(0.998765 1.06477e-05 0)
(0.999053 6.00496e-05 0)
(0.99849 1.54462e-05 0)
(0.998721 0.000112421 0)
(0.997977 2.18327e-05 0)
(0.99803 0.000348369 0)
(0.996742 0.000228314 0)
(1.00017 -0.00119573 0)
(0.99907 -0.000162214 0)
(0.999473 2.82975e-05 0)
(0.999258 -1.03436e-05 0)
(0.999608 3.99805e-06 0)
(0.99923 -9.45386e-07 0)
(0.999556 1.46737e-05 0)
(0.99918 2.4201e-06 0)
(0.999496 2.10214e-05 0)
(0.9991 5.24421e-06 0)
(0.999402 2.97183e-05 0)
(0.998983 8.36044e-06 0)
(0.999267 4.32065e-05 0)
(0.998809 1.23254e-05 0)
(0.999065 6.82537e-05 0)
(0.998535 1.78337e-05 0)
(0.998732 0.000127705 0)
(0.998026 2.70795e-05 0)
(0.998045 0.000386474 0)
(0.99684 0.000259312 0)
(1.00021 -0.00112725 0)
(0.999088 -0.000175013 0)
(0.999539 2.95797e-05 0)
(0.999251 -1.07583e-05 0)
(0.999671 4.68215e-06 0)
(0.999223 -9.38912e-07 0)
(0.999619 1.65533e-05 0)
(0.999172 2.83564e-06 0)
(0.99956 2.37364e-05 0)
(0.999092 5.97241e-06 0)
(0.999466 3.35902e-05 0)
(0.998974 9.50066e-06 0)
(0.999332 4.87504e-05 0)
(0.998801 1.40926e-05 0)
(0.99913 7.67695e-05 0)
(0.998527 2.05885e-05 0)
(0.998798 0.000143195 0)
(0.998021 3.31796e-05 0)
(0.998116 0.000424032 0)
(0.996884 0.000291698 0)
(1.00025 -0.0010578 0)
(0.999093 -0.000186543 0)
(0.999617 3.05645e-05 0)
(0.999231 -1.12282e-05 0)
(0.999746 5.51055e-06 0)
(0.999204 -1.17702e-06 0)
(0.999694 1.86163e-05 0)
(0.999152 3.09245e-06 0)
(0.999635 2.66355e-05 0)
(0.999072 6.60261e-06 0)
(0.999542 3.76722e-05 0)
(0.998954 1.05348e-05 0)
(0.999407 5.46634e-05 0)
(0.998781 1.56973e-05 0)
(0.999206 8.59326e-05 0)
(0.998508 2.32741e-05 0)
(0.998874 0.000159561 0)
(0.998006 3.99284e-05 0)
(0.998198 0.000461599 0)
(0.99692 0.000325071 0)
(1.00029 -0.000987338 0)
(0.999106 -0.000196629 0)
(0.999686 3.10018e-05 0)
(0.99922 -1.14342e-05 0)
(0.999811 6.27565e-06 0)
(0.999193 -1.23759e-06 0)
(0.99976 2.06689e-05 0)
(0.999142 3.55764e-06 0)
(0.999701 2.95668e-05 0)
(0.999062 7.486e-06 0)
(0.999607 4.18009e-05 0)
(0.998944 1.19251e-05 0)
(0.999473 6.06447e-05 0)
(0.998771 1.77834e-05 0)
(0.999272 9.52533e-05 0)
(0.998499 2.66021e-05 0)
(0.99894 0.000176206 0)
(0.998003 4.80258e-05 0)
(0.998271 0.000498212 0)
(0.996966 0.000360174 0)
(1.00031 -0.000916458 0)
(0.99914 -0.000205561 0)
(0.999737 3.12284e-05 0)
(0.999229 -1.16946e-05 0)
(0.999858 7.34561e-06 0)
(0.999203 -1.47489e-06 0)
(0.999806 2.30287e-05 0)
(0.999152 3.85002e-06 0)
(0.999747 3.28591e-05 0)
(0.999072 8.18347e-06 0)
(0.999653 4.63871e-05 0)
(0.998954 1.31329e-05 0)
(0.999519 6.71901e-05 0)
(0.998782 1.97388e-05 0)
(0.999318 0.00010526 0)
(0.998511 2.997e-05 0)
(0.998986 0.000193675 0)
(0.998021 5.68623e-05 0)
(0.998324 0.000534403 0)
(0.997035 0.000396263 0)
(1.00032 -0.000846473 0)
(0.999184 -0.000212928 0)
(0.999777 3.08021e-05 0)
(0.999249 -1.16611e-05 0)
(0.999893 8.2939e-06 0)
(0.999225 -1.51313e-06 0)
(0.999841 2.52604e-05 0)
(0.999173 4.40278e-06 0)
(0.999781 3.60579e-05 0)
(0.999093 9.19068e-06 0)
(0.999688 5.09202e-05 0)
(0.998977 1.4702e-05 0)
(0.999553 7.37549e-05 0)
(0.998805 2.21382e-05 0)
(0.999352 0.000115388 0)
(0.998535 3.40033e-05 0)
(0.999021 0.000211324 0)
(0.998052 6.71289e-05 0)
(0.998367 0.000569397 0)
(0.997116 0.000433835 0)
(1.00034 -0.00077715 0)
(0.999213 -0.000218934 0)
(0.999832 3.02066e-05 0)
(0.999254 -1.17242e-05 0)
(0.999943 9.61532e-06 0)
(0.999232 -1.76182e-06 0)
(0.999891 2.78729e-05 0)
(0.99918 4.78581e-06 0)
(0.999831 3.9699e-05 0)
(0.9991 1.00666e-05 0)
(0.999738 5.5966e-05 0)
(0.998983 1.61973e-05 0)
(0.999604 8.09167e-05 0)
(0.998812 2.45594e-05 0)
(0.999403 0.000126218 0)
(0.998543 3.82968e-05 0)
(0.999072 0.000229702 0)
(0.998068 7.84503e-05 0)
(0.998427 0.00060362 0)
(0.99718 0.000472326 0)
(1.00036 -0.000708696 0)
(0.999237 -0.000222969 0)
(0.999891 2.89547e-05 0)
(0.999256 -1.14583e-05 0)
(0.999996 1.08111e-05 0)
(0.999235 -1.7922e-06 0)
(0.999944 3.03122e-05 0)
(0.999183 5.39793e-06 0)
(0.999884 4.3196e-05 0)
(0.999103 1.11867e-05 0)
(0.999791 6.09195e-05 0)
(0.998987 1.79812e-05 0)
(0.999656 8.8069e-05 0)
(0.998816 2.73684e-05 0)
(0.999455 0.000137138 0)
(0.998549 4.32443e-05 0)
(0.999126 0.000248164 0)
(0.998081 9.12416e-05 0)
(0.998491 0.000636344 0)
(0.997242 0.000511958 0)
(1.00041 -0.00064013 0)
(0.999241 -0.000225371 0)
(0.999969 2.75983e-05 0)
(0.999239 -1.13267e-05 0)
(1.00007 1.24946e-05 0)
(0.999218 -1.96639e-06 0)
(1.00002 3.32708e-05 0)
(0.999166 5.94515e-06 0)
(0.999956 4.72684e-05 0)
(0.999086 1.22877e-05 0)
(0.999863 6.64987e-05 0)
(0.99897 1.98083e-05 0)
(0.999729 9.5899e-05 0)
(0.998799 3.03399e-05 0)
(0.999528 0.000148783 0)
(0.998535 4.86599e-05 0)
(0.9992 0.000267254 0)
(0.998075 0.000105335 0)
(0.998577 0.000667986 0)
(0.997282 0.00055234 0)
(1.00045 -0.000571357 0)
(0.999241 -0.00022567 0)
(1.00005 2.55136e-05 0)
(0.999218 -1.10036e-05 0)
(1.00014 1.38107e-05 0)
(0.999199 -2.09099e-06 0)
(1.00009 3.58183e-05 0)
(0.999146 6.61177e-06 0)
(1.00003 5.10187e-05 0)
(0.999067 1.35894e-05 0)
(0.999936 7.18502e-05 0)
(0.998951 2.1936e-05 0)
(0.999801 0.000103607 0)
(0.998782 3.37644e-05 0)
(0.999601 0.000160402 0)
(0.998519 5.48678e-05 0)
(0.999274 0.000286232 0)
(0.998068 0.000121044 0)
(0.998664 0.000697806 0)
(0.997322 0.000593543 0)
(1.00057 -0.000499567 0)
(0.999171 -0.00022436 0)
(1.0002 2.38358e-05 0)
(0.999129 -1.03759e-05 0)
(1.00028 1.60819e-05 0)
(0.99911 -2.10719e-06 0)
(1.00023 3.91373e-05 0)
(0.999058 7.30442e-06 0)
(1.00017 5.55007e-05 0)
(0.998978 1.48846e-05 0)
(1.00008 7.79384e-05 0)
(0.998862 2.40853e-05 0)
(0.999943 0.000112082 0)
(0.998693 3.73302e-05 0)
(0.999743 0.000172802 0)
(0.998433 6.15704e-05 0)
(0.999418 0.000305778 0)
(0.997991 0.000138079 0)
(0.998822 0.000726343 0)
(0.997289 0.000635048 0)
(1.00069 -0.000421001 0)
(0.99909 -0.00022212 0)
(1.00035 2.03895e-05 0)
(0.999031 -1.00752e-05 0)
(1.00043 1.77614e-05 0)
(0.999014 -2.06614e-06 0)
(1.00038 4.20292e-05 0)
(0.998962 8.252e-06 0)
(1.00032 5.96854e-05 0)
(0.998883 1.65658e-05 0)
(1.00022 8.38077e-05 0)
(0.998768 2.6761e-05 0)
(1.00009 0.000120398 0)
(0.9986 4.16362e-05 0)
(0.999887 0.000185053 0)
(0.998342 6.9452e-05 0)
(0.999564 0.000324927 0)
(0.99791 0.000157105 0)
(0.998983 0.000752693 0)
(0.997251 0.000677153 0)
(1.00105 -0.00032574 0)
(0.998769 -0.000215607 0)
(1.00074 1.7456e-05 0)
(0.998693 -9.98257e-06 0)
(1.00081 1.98945e-05 0)
(0.998675 -2.34149e-06 0)
(1.00076 4.53153e-05 0)
(0.998621 8.92367e-06 0)
(1.0007 6.43452e-05 0)
(0.99854 1.80252e-05 0)
(1.00061 9.02402e-05 0)
(0.998424 2.93004e-05 0)
(1.00048 0.000129366 0)
(0.998255 4.59673e-05 0)
(1.00028 0.000198009 0)
(0.997999 7.77321e-05 0)
(0.99996 0.000344578 0)
(0.997576 0.000177172 0)
(0.999398 0.00077786 0)
(0.99696 0.000718562 0)
(1.00097 -0.000221571 0)
(0.998872 -0.000203355 0)
(1.00069 1.59749e-05 0)
(0.998786 -8.77969e-06 0)
(1.00076 2.26814e-05 0)
(0.998769 -1.95025e-06 0)
(1.00071 4.88827e-05 0)
(0.998716 1.01431e-05 0)
(1.00065 6.91964e-05 0)
(0.998636 2.00311e-05 0)
(1.00055 9.68185e-05 0)
(0.998522 3.24728e-05 0)
(1.00042 0.000138442 0)
(0.998357 5.11448e-05 0)
(1.00022 0.000210962 0)
(0.998106 8.7344e-05 0)
(0.999906 0.000363756 0)
(0.997699 0.000199346 0)
(0.999359 0.000800477 0)
(0.997133 0.000760521 0)
(1.00052 -0.000137419 0)
(0.999348 -0.000193115 0)
(1.00027 1.32266e-05 0)
(0.999255 -8.62487e-06 0)
(1.00032 2.51387e-05 0)
(0.999241 -2.08215e-06 0)
(1.00027 5.2298e-05 0)
(0.999188 1.10565e-05 0)
(1.00021 7.40554e-05 0)
(0.999111 2.19001e-05 0)
(1.00011 0.000103501 0)
(0.998998 3.56977e-05 0)
(0.999981 0.000147667 0)
(0.998836 5.66632e-05 0)
(0.999783 0.000223991 0)
(0.998591 9.78389e-05 0)
(0.999467 0.000382532 0)
(0.998198 0.000223122 0)
(0.998937 0.000820694 0)
(0.997677 0.000802276 0)
(1.00018 -8.69415e-05 0)
(0.99971 -0.000185482 0)
(0.999944 9.80122e-06 0)
(0.999613 -8.39303e-06 0)
(0.99999 2.77155e-05 0)
(0.999599 -1.727e-06 0)
(0.999939 5.58413e-05 0)
(0.999546 1.2513e-05 0)
(0.999878 7.90764e-05 0)
(0.999469 2.43713e-05 0)
(0.999785 0.000110358 0)
(0.999357 3.96321e-05 0)
(0.999652 0.000157064 0)
(0.999196 6.31086e-05 0)
(0.999454 0.00023711 0)
(0.998954 0.000109699 0)
(0.999142 0.000400991 0)
(0.998572 0.000248659 0)
(0.998633 0.000839015 0)
(0.998086 0.000843245 0)
(1.00004 -5.95277e-05 0)
(0.999863 -0.000177116 0)
(0.999825 7.62631e-06 0)
(0.999763 -8.00678e-06 0)
(0.999864 3.08492e-05 0)
(0.99975 -1.34708e-06 0)
(0.999813 5.96866e-05 0)
(0.999696 1.3928e-05 0)
(0.999753 8.43732e-05 0)
(0.999619 2.68606e-05 0)
(0.99966 0.000117491 0)
(0.999508 4.37358e-05 0)
(0.999527 0.000166724 0)
(0.999347 7.00072e-05 0)
(0.999331 0.000250382 0)
(0.999108 0.000122514 0)
(0.999024 0.000419154 0)
(0.998738 0.000275475 0)
(0.998537 0.000855592 0)
(0.998286 0.00088267 0)
(1.00001 -4.22795e-05 0)
(0.999914 -0.00016687 0)
(0.999807 5.97319e-06 0)
(0.999812 -7.66704e-06 0)
(0.999839 3.38768e-05 0)
(0.999799 -7.99096e-07 0)
(0.999788 6.34332e-05 0)
(0.999745 1.56255e-05 0)
(0.999728 8.96719e-05 0)
(0.999668 2.97829e-05 0)
(0.999635 0.000124682 0)
(0.999557 4.84675e-05 0)
(0.999503 0.000176444 0)
(0.999398 7.78413e-05 0)
(0.999309 0.00026359 0)
(0.999162 0.000136762 0)
(0.999008 0.000436754 0)
(0.998804 0.000303925 0)
(0.998543 0.000870181 0)
(0.998387 0.000920832 0)
(0.999998 -2.86104e-05 0)
(0.999933 -0.000155971 0)
(0.999818 4.80437e-06 0)
(0.999831 -7.64874e-06 0)
(0.999842 3.71957e-05 0)
(0.999817 -1.94152e-07 0)
(0.999792 6.74733e-05 0)
(0.999763 1.74396e-05 0)
(0.999732 9.52873e-05 0)
(0.999687 3.29208e-05 0)
(0.99964 0.000132176 0)
(0.999577 5.35791e-05 0)
(0.999508 0.000186415 0)
(0.999419 8.63435e-05 0)
(0.999316 0.000276883 0)
(0.999188 0.000152124 0)
(0.99902 0.00045393 0)
(0.998844 0.000333471 0)
(0.998579 0.000883075 0)
(0.998459 0.000957011 0)
(0.999997 -1.71207e-05 0)
(0.999946 -0.000144709 0)
(0.999834 3.98002e-06 0)
(0.999844 -7.52709e-06 0)
(0.999851 4.05562e-05 0)
(0.99983 7.61001e-07 0)
(0.999802 7.14723e-05 0)
(0.999775 1.96262e-05 0)
(0.999741 0.000100865 0)
(0.999699 3.65563e-05 0)
(0.999649 0.000139625 0)
(0.99959 5.93963e-05 0)
(0.999519 0.00019629 0)
(0.999435 9.58835e-05 0)
(0.999328 0.000289901 0)
(0.999209 0.000168966 0)
(0.999039 0.00047032 0)
(0.998878 0.000364312 0)
(0.998622 0.000894083 0)
(0.998526 0.000991271 0)
(0.999997 -7.21773e-06 0)
(0.999955 -0.000133518 0)
(0.999851 3.85461e-06 0)
(0.999855 -7.54853e-06 0)
(0.99986 4.41557e-05 0)
(0.99984 1.80271e-06 0)
(0.999811 7.56714e-05 0)
(0.999786 2.19548e-05 0)
(0.999751 0.000106676 0)
(0.999711 4.04811e-05 0)
(0.999659 0.000147298 0)
(0.999603 6.57157e-05 0)
(0.999529 0.000206325 0)
(0.99945 0.000106243 0)
(0.999341 0.000302886 0)
(0.999228 0.000187001 0)
(0.999059 0.000486171 0)
(0.998911 0.000395933 0)
(0.998668 0.000903624 0)
(0.99859 0.001023 0)
(0.999997 1.0021e-06 0)
(0.999964 -0.000122268 0)
(0.999866 4.19216e-06 0)
(0.999866 -7.44857e-06 0)
(0.999869 4.77217e-05 0)
(0.99985 3.22457e-06 0)
(0.999821 7.98212e-05 0)
(0.999796 2.47248e-05 0)
(0.99976 0.000112441 0)
(0.999721 4.4997e-05 0)
(0.999669 0.000154897 0)
(0.999614 7.28443e-05 0)
(0.99954 0.000216201 0)
(0.999464 0.000117729 0)
(0.999354 0.00031551 0)
(0.999248 0.000206468 0)
(0.999081 0.000501192 0)
(0.998945 0.000428355 0)
(0.998714 0.000911595 0)
(0.998653 0.00105219 0)
(0.999997 7.89907e-06 0)
(0.999971 -0.000111305 0)
(0.99988 5.21668e-06 0)
(0.999876 -7.40455e-06 0)
(0.999877 5.14605e-05 0)
(0.99986 4.83383e-06 0)
(0.999829 8.41325e-05 0)
(0.999806 2.77347e-05 0)
(0.999768 0.000118366 0)
(0.999731 4.99109e-05 0)
(0.999678 0.00016262 0)
(0.999626 8.05983e-05 0)
(0.99955 0.000226116 0)
(0.999478 0.000130143 0)
(0.999368 0.000327977 0)
(0.999267 0.000227082 0)
(0.999103 0.000515625 0)
(0.998979 0.000461066 0)
(0.998762 0.000918422 0)
(0.998714 0.00107837 0)
(0.999997 1.34119e-05 0)
(0.999977 -0.000100535 0)
(0.999894 6.71603e-06 0)
(0.999886 -7.15814e-06 0)
(0.999884 5.51365e-05 0)
(0.999869 6.86647e-06 0)
(0.999837 8.83815e-05 0)
(0.999815 3.12301e-05 0)
(0.999776 0.000124216 0)
(0.999741 5.54799e-05 0)
(0.999687 0.00017023 0)
(0.999637 8.9234e-05 0)
(0.99956 0.000235825 0)
(0.999491 0.000143717 0)
(0.999381 0.000340049 0)
(0.999287 0.000248966 0)
(0.999126 0.000529288 0)
(0.999013 0.000493968 0)
(0.998811 0.00092409 0)
(0.998775 0.00110154 0)
(0.999997 1.78653e-05 0)
(0.999982 -9.02336e-05 0)
(0.999906 8.8422e-06 0)
(0.999895 -6.83221e-06 0)
(0.999891 5.88942e-05 0)
(0.999877 9.17783e-06 0)
(0.999845 9.27281e-05 0)
(0.999823 3.50701e-05 0)
(0.999784 0.000130147 0)
(0.99975 6.15678e-05 0)
(0.999695 0.000177871 0)
(0.999647 9.86119e-05 0)
(0.99957 0.000245473 0)
(0.999505 0.000158273 0)
(0.999395 0.000351891 0)
(0.999306 0.000271826 0)
(0.99915 0.0005424 0)
(0.999047 0.000526562 0)
(0.99886 0.00092897 0)
(0.998834 0.00112137 0)
(0.999997 2.12578e-05 0)
(0.999987 -8.03261e-05 0)
(0.999917 1.13979e-05 0)
(0.999904 -6.21183e-06 0)
(0.999897 6.25499e-05 0)
(0.999884 1.19542e-05 0)
(0.999852 9.70034e-05 0)
(0.999831 3.94477e-05 0)
(0.999791 0.000135977 0)
(0.999759 6.83666e-05 0)
(0.999703 0.000185365 0)
(0.999658 0.00010891 0)
(0.99958 0.000254889 0)
(0.999518 0.000173941 0)
(0.999409 0.000363358 0)
(0.999326 0.000295654 0)
(0.999175 0.000554886 0)
(0.999081 0.000558655 0)
(0.99891 0.000933106 0)
(0.998893 0.00113792 0)
(0.999997 2.38684e-05 0)
(0.99999 -7.10042e-05 0)
(0.999927 1.4453e-05 0)
(0.999912 -5.36138e-06 0)
(0.999903 6.61999e-05 0)
(0.999892 1.51011e-05 0)
(0.999859 0.000101313 0)
(0.999838 4.42746e-05 0)
(0.999798 0.000141803 0)
(0.999767 7.57848e-05 0)
(0.999711 0.000192807 0)
(0.999668 0.000120019 0)
(0.99959 0.00026418 0)
(0.999531 0.000190553 0)
(0.999423 0.000374591 0)
(0.999346 0.000320145 0)
(0.999201 0.000566944 0)
(0.999116 0.000589796 0)
(0.998961 0.000936783 0)
(0.99895 0.00115105 0)
(0.999997 2.57304e-05 0)
(0.999993 -6.22023e-05 0)
(0.999935 1.78279e-05 0)
(0.99992 -4.11293e-06 0)
(0.999908 6.97104e-05 0)
(0.999898 1.87492e-05 0)
(0.999865 0.000105537 0)
(0.999845 4.96866e-05 0)
(0.999804 0.000147503 0)
(0.999775 8.39501e-05 0)
(0.999718 0.000200087 0)
(0.999677 0.000132037 0)
(0.9996 0.000273254 0)
(0.999544 0.00020813 0)
(0.999438 0.000385535 0)
(0.999366 0.000345174 0)
(0.999228 0.000578579 0)
(0.999151 0.000619749 0)
(0.999012 0.000940055 0)
(0.999006 0.00116087 0)
(0.999997 2.70585e-05 0)
(0.999995 -5.40247e-05 0)
(0.999943 2.1522e-05 0)
(0.999928 -2.49079e-06 0)
(0.999913 7.31383e-05 0)
(0.999904 2.28404e-05 0)
(0.99987 0.000109738 0)
(0.999852 5.56311e-05 0)
(0.99981 0.00015314 0)
(0.999783 9.27984e-05 0)
(0.999725 0.000207271 0)
(0.999687 0.000144863 0)
(0.99961 0.000282201 0)
(0.999557 0.000226494 0)
(0.999454 0.00039632 0)
(0.999386 0.000370427 0)
(0.999255 0.000589953 0)
(0.999186 0.00064814 0)
(0.999063 0.000943098 0)
(0.999062 0.00116743 0)
(0.999997 2.78974e-05 0)
(0.999997 -4.64003e-05 0)
(0.99995 2.53745e-05 0)
(0.999935 -3.75751e-07 0)
(0.999918 7.6398e-05 0)
(0.99991 2.74564e-05 0)
(0.999876 0.000113842 0)
(0.999859 6.21908e-05 0)
(0.999816 0.000158642 0)
(0.99979 0.00010239 0)
(0.999733 0.000214308 0)
(0.999696 0.000158512 0)
(0.99962 0.000290997 0)
(0.99957 0.000245567 0)
(0.99947 0.000406958 0)
(0.999407 0.000395696 0)
(0.999284 0.000601109 0)
(0.999222 0.00067475 0)
(0.999114 0.000945928 0)
(0.999117 0.00117093 0)
(0.999996 2.83946e-05 0)
(0.999998 -3.93561e-05 0)
(0.999956 2.93388e-05 0)
(0.999941 2.22605e-06 0)
(0.999922 7.95245e-05 0)
(0.999915 3.25596e-05 0)
(0.999881 0.000117886 0)
(0.999865 6.93291e-05 0)
(0.999822 0.000164055 0)
(0.999797 0.000112661 0)
(0.99974 0.000221259 0)
(0.999705 0.00017287 0)
(0.99963 0.000299731 0)
(0.999584 0.000265149 0)
(0.999487 0.000417565 0)
(0.999428 0.000420674 0)
(0.999314 0.000612159 0)
(0.999258 0.000699318 0)
(0.999164 0.000948603 0)
(0.999171 0.00117155 0)
(0.999996 2.85843e-05 0)
(0.999999 -3.28101e-05 0)
(0.999961 3.32786e-05 0)
(0.999947 5.38342e-06 0)
(0.999926 8.24748e-05 0)
(0.99992 3.81877e-05 0)
(0.999886 0.000121835 0)
(0.99987 7.70774e-05 0)
(0.999827 0.000169353 0)
(0.999804 0.000123609 0)
(0.999747 0.000228125 0)
(0.999715 0.000187876 0)
(0.999641 0.000308432 0)
(0.999597 0.000285085 0)
(0.999505 0.000428189 0)
(0.99945 0.000445118 0)
(0.999345 0.000623132 0)
(0.999294 0.000721697 0)
(0.999214 0.000951078 0)
(0.999224 0.00116957 0)
(0.999996 2.85509e-05 0)
(1 -2.67334e-05 0)
(0.999965 3.71306e-05 0)
(0.999953 9.08451e-06 0)
(0.99993 8.52771e-05 0)
(0.999925 4.43048e-05 0)
(0.99989 0.000125716 0)
(0.999876 8.53934e-05 0)
(0.999833 0.000174585 0)
(0.999811 0.000135157 0)
(0.999755 0.000234972 0)
(0.999724 0.00020339 0)
(0.999653 0.00031719 0)
(0.999611 0.000305156 0)
(0.999523 0.000438924 0)
(0.999472 0.000468755 0)
(0.999376 0.000634068 0)
(0.999331 0.000741754 0)
(0.999263 0.000953305 0)
(0.999276 0.00116526 0)
(0.999996 2.83128e-05 0)
(1 -2.104e-05 0)
(0.999969 4.0794e-05 0)
(0.999958 1.33473e-05 0)
(0.999934 8.79254e-05 0)
(0.999929 5.09095e-05 0)
(0.999895 0.000129528 0)
(0.999881 9.42593e-05 0)
(0.999838 0.000179765 0)
(0.999818 0.00014724 0)
(0.999763 0.000241844 0)
(0.999733 0.000219289 0)
(0.999664 0.000326063 0)
(0.999625 0.000325165 0)
(0.999542 0.000449809 0)
(0.999495 0.000491366 0)
(0.999407 0.000644946 0)
(0.999368 0.000759448 0)
(0.999312 0.000955176 0)
(0.999328 0.00115893 0)
(0.999996 2.79077e-05 0)
(1 -1.56733e-05 0)
(0.999972 4.42183e-05 0)
(0.999963 1.81368e-05 0)
(0.999938 9.04533e-05 0)
(0.999933 5.79537e-05 0)
(0.999899 0.000133305 0)
(0.999886 0.000103611 0)
(0.999844 0.000184956 0)
(0.999825 0.000159753 0)
(0.999771 0.000248813 0)
(0.999743 0.000235411 0)
(0.999677 0.000335129 0)
(0.999639 0.000344896 0)
(0.999562 0.000460887 0)
(0.999518 0.000512743 0)
(0.99944 0.000655721 0)
(0.999405 0.000774773 0)
(0.99936 0.000956577 0)
(0.999378 0.00115086 0)
(0.999996 2.73436e-05 0)
(1 -1.05582e-05 0)
(0.999974 4.73493e-05 0)
(0.999967 2.34221e-05 0)
(0.999941 9.28856e-05 0)
(0.999937 6.54002e-05 0)
(0.999903 0.000137076 0)
(0.999891 0.000113385 0)
(0.99985 0.000190199 0)
(0.999831 0.000172587 0)
(0.999779 0.00025594 0)
(0.999753 0.000251597 0)
(0.999689 0.000344437 0)
(0.999654 0.000364153 0)
(0.999582 0.000472155 0)
(0.999542 0.000532731 0)
(0.999472 0.000666303 0)
(0.999443 0.000787792 0)
(0.999406 0.000957368 0)
(0.999427 0.00114136 0)
(0.999996 2.66352e-05 0)
(1 -5.64087e-06 0)
(0.999976 5.0171e-05 0)
(0.999971 2.91367e-05 0)
(0.999944 9.52667e-05 0)
(0.999941 7.31809e-05 0)
(0.999907 0.000140885 0)
(0.999896 0.000123492 0)
(0.999855 0.000195566 0)
(0.999838 0.000185613 0)
(0.999788 0.000263292 0)
(0.999763 0.000267679 0)
(0.999703 0.00035403 0)
(0.99967 0.000382751 0)
(0.999603 0.000483583 0)
(0.999567 0.000551211 0)
(0.999505 0.000676572 0)
(0.99948 0.000798597 0)
(0.999452 0.000957416 0)
(0.999475 0.00113067 0)
(0.999996 2.57933e-05 0)
(1 -8.73971e-07 0)
(0.999978 5.26805e-05 0)
(0.999974 3.52084e-05 0)
(0.999948 9.7642e-05 0)
(0.999944 8.12276e-05 0)
(0.999911 0.000144779 0)
(0.999901 0.000133833 0)
(0.999861 0.000201109 0)
(0.999845 0.000198696 0)
(0.999797 0.000270918 0)
(0.999773 0.000283494 0)
(0.999717 0.000363916 0)
(0.999686 0.000400533 0)
(0.999625 0.000495099 0)
(0.999592 0.000568112 0)
(0.999538 0.000686385 0)
(0.999518 0.000807318 0)
(0.999496 0.000956595 0)
(0.999522 0.00111902 0)
(0.999996 2.48328e-05 0)
(1 3.77047e-06 0)
(0.999979 5.49036e-05 0)
(0.999977 4.1543e-05 0)
(0.999951 0.000100063 0)
(0.999947 8.94526e-05 0)
(0.999916 0.00014881 0)
(0.999906 0.000144296 0)
(0.999867 0.000206892 0)
(0.999852 0.000211701 0)
(0.999806 0.000278855 0)
(0.999783 0.000298896 0)
(0.999731 0.000374077 0)
(0.999702 0.000417372 0)
(0.999647 0.000506601 0)
(0.999618 0.000583403 0)
(0.99957 0.000695579 0)
(0.999555 0.000814096 0)
(0.999539 0.000954801 0)
(0.999567 0.00110659 0)
(0.999996 2.37798e-05 0)
(1 8.30203e-06 0)
(0.999981 5.68815e-05 0)
(0.999979 4.80418e-05 0)
(0.999954 0.000102583 0)
(0.999951 9.77678e-05 0)
(0.99992 0.000153027 0)
(0.999911 0.00015477 0)
(0.999874 0.000212952 0)
(0.999859 0.000224499 0)
(0.999815 0.000287111 0)
(0.999794 0.000313753 0)
(0.999745 0.000384455 0)
(0.99972 0.000433174 0)
(0.999669 0.000517949 0)
(0.999644 0.000597086 0)
(0.999603 0.000703992 0)
(0.999592 0.000819081 0)
(0.999581 0.000951961 0)
(0.999611 0.00109352 0)
(0.999996 2.26627e-05 0)
(1 1.27148e-05 0)
(0.999982 5.86724e-05 0)
(0.999981 5.45978e-05 0)
(0.999956 0.000105249 0)
(0.999954 0.000106076 0)
(0.999924 0.000157471 0)
(0.999915 0.00016514 0)
(0.99988 0.000219321 0)
(0.999866 0.000236973 0)
(0.999825 0.000295668 0)
(0.999806 0.000327959 0)
(0.99976 0.000394962 0)
(0.999737 0.000447873 0)
(0.999692 0.000528987 0)
(0.99967 0.000609188 0)
(0.999635 0.000711468 0)
(0.999629 0.000822413 0)
(0.999622 0.000948028 0)
(0.999654 0.00107992 0)
(0.999996 2.15254e-05 0)
(1 1.69846e-05 0)
(0.999983 6.03415e-05 0)
(0.999983 6.11079e-05 0)
(0.999959 0.000108103 0)
(0.999957 0.000114287 0)
(0.999928 0.000162172 0)
(0.99992 0.000175303 0)
(0.999887 0.000225996 0)
(0.999874 0.00024902 0)
(0.999835 0.000304472 0)
(0.999817 0.000341431 0)
(0.999776 0.000405477 0)
(0.999755 0.000461431 0)
(0.999715 0.000539543 0)
(0.999697 0.000619751 0)
(0.999667 0.000717872 0)
(0.999665 0.000824222 0)
(0.999661 0.000942991 0)
(0.999694 0.00106585 0)
(0.999996 2.04086e-05 0)
(1 2.10807e-05 0)
(0.999984 6.19559e-05 0)
(0.999985 6.74734e-05 0)
(0.999962 0.00011117 0)
(0.99996 0.000122311 0)
(0.999932 0.000167138 0)
(0.999925 0.000185164 0)
(0.999893 0.000232953 0)
(0.999881 0.00026056 0)
(0.999846 0.000313443 0)
(0.99983 0.000354109 0)
(0.999791 0.000415856 0)
(0.999774 0.000473831 0)
(0.999737 0.000549447 0)
(0.999724 0.000628824 0)
(0.999698 0.000723092 0)
(0.9997 0.000824613 0)
(0.999699 0.000936863 0)
(0.999733 0.00105136 0)
(0.999996 1.93635e-05 0)
(1 2.49628e-05 0)
(0.999984 6.35764e-05 0)
(0.999986 7.36099e-05 0)
(0.999964 0.000114463 0)
(0.999962 0.000130074 0)
(0.999936 0.000172357 0)
(0.99993 0.000194648 0)
(0.9999 0.000240135 0)
(0.999889 0.000271529 0)
(0.999856 0.000322469 0)
(0.999842 0.00036595 0)
(0.999807 0.000425942 0)
(0.999792 0.000485066 0)
(0.99976 0.000558536 0)
(0.99975 0.000636454 0)
(0.999729 0.000727049 0)
(0.999735 0.000823678 0)
(0.999736 0.000929681 0)
(0.99977 0.00103647 0)
(0.999996 1.84285e-05 0)
(1 2.85963e-05 0)
(0.999985 6.52517e-05 0)
(0.999988 7.94476e-05 0)
(0.999967 0.000117972 0)
(0.999965 0.000137511 0)
(0.999941 0.000177793 0)
(0.999935 0.000203694 0)
(0.999907 0.000247462 0)
(0.999898 0.000281882 0)
(0.999867 0.000331421 0)
(0.999855 0.000376927 0)
(0.999823 0.000435571 0)
(0.999811 0.000495135 0)
(0.999783 0.000566667 0)
(0.999777 0.000642681 0)
(0.999759 0.000729692 0)
(0.999768 0.000821486 0)
(0.999771 0.000921493 0)
(0.999806 0.00102121 0)
(0.999996 1.76433e-05 0)
(1 3.19478e-05 0)
(0.999986 6.70124e-05 0)
(0.999989 8.49361e-05 0)
(0.999969 0.00012167 0)
(0.999968 0.000144575 0)
(0.999945 0.000183384 0)
(0.99994 0.000212257 0)
(0.999914 0.000254827 0)
(0.999906 0.000291583 0)
(0.999877 0.000340154 0)
(0.999868 0.000387017 0)
(0.999839 0.000444584 0)
(0.99983 0.000504035 0)
(0.999805 0.00057372 0)
(0.999803 0.000647536 0)
(0.999788 0.000731002 0)
(0.9998 0.000818096 0)
(0.999804 0.000912357 0)
(0.999839 0.00100557 0)
(0.999996 1.70263e-05 0)
(1 3.4999e-05 0)
(0.999987 6.88698e-05 0)
(0.99999 9.00431e-05 0)
(0.999971 0.000125507 0)
(0.999971 0.000151229 0)
(0.999949 0.000189048 0)
(0.999946 0.000220306 0)
(0.999921 0.000262111 0)
(0.999915 0.000300608 0)
(0.999888 0.000348521 0)
(0.999881 0.000396199 0)
(0.999855 0.000452838 0)
(0.999849 0.00051176 0)
(0.999827 0.000579605 0)
(0.999828 0.000651041 0)
(0.999816 0.000730979 0)
(0.99983 0.000813556 0)
(0.999836 0.000902331 0)
(0.999871 0.000989572 0)
(0.999996 1.65904e-05 0)
(1 3.77394e-05 0)
(0.999987 7.08137e-05 0)
(0.999991 9.47535e-05 0)
(0.999973 0.000129418 0)
(0.999974 0.000157452 0)
(0.999953 0.00019469 0)
(0.999951 0.000227814 0)
(0.999928 0.000269183 0)
(0.999923 0.000308927 0)
(0.999899 0.00035638 0)
(0.999894 0.000404445 0)
(0.999871 0.000460205 0)
(0.999868 0.000518294 0)
(0.999849 0.000584253 0)
(0.999852 0.000653215 0)
(0.999843 0.000729643 0)
(0.99986 0.000807907 0)
(0.999866 0.000891471 0)
(0.999902 0.000973216 0)
(0.999996 1.63255e-05 0)
(1 4.01751e-05 0)
(0.999988 7.28167e-05 0)
(0.999992 9.90648e-05 0)
(0.999975 0.000133327 0)
(0.999977 0.000163226 0)
(0.999957 0.000200202 0)
(0.999956 0.00023476 0)
(0.999935 0.000275917 0)
(0.999932 0.000316513 0)
(0.99991 0.000363599 0)
(0.999907 0.000411725 0)
(0.999886 0.000466582 0)
(0.999886 0.000523621 0)
(0.99987 0.000587625 0)
(0.999876 0.000654071 0)
(0.999869 0.000727026 0)