/*--------------------------------*- C++ -*----------------------------------*\
| =========                 |                                                 |
| \\      /  F ield         | OpenFOAM: The Open Source CFD Toolbox           |
|  \\    /   O peration     | Version:  v1912                                 |
|   \\  /    A nd           | Website:  www.openfoam.com                      |
|    \\/     M anipulation  |                                                 |
\*---------------------------------------------------------------------------*/
FoamFile
{
    version     2.0;
    format      ascii;
    class       volScalarField;
    location    "825";
    object      p;
}
// * * * * * * * * * * * * * * * * * * * * * * * * * * * * * * * * * * * * * //

dimensions      [0 2 -2 0 0 0 0];


internalField   nonuniform List<scalar> 
2000
(
-0.0459581
0.0714532
0.126033
0.119145
0.103317
0.0970116
0.0964064
0.0977551
0.0979725
0.0977513
0.0978913
0.0975682
0.0973106
0.0972549
0.0973126
0.0973342
0.0972911
0.0972696
0.0972641
0.0972677
0.0972714
0.0972649
0.0972434
0.0972086
0.097167
0.097125
0.0970879
0.0970571
0.0970305
0.0970054
0.0969799
0.0969534
0.0969258
0.0968972
0.0968677
0.0968377
0.0968077
0.0967778
0.0967484
0.0967197
0.0966923
0.0966669
0.0966442
0.0966253
0.0966107
0.096601
0.0965962
0.0965972
0.0966051
0.0966191
0.0966287
0.0965904
0.096385
0.0957697
0.0943829
0.0918357
0.0878418
0.0823554
0.0758501
0.069758
0.0661863
0.0662408
0.0709054
0.0797624
0.0918368
0.106113
0.121738
0.137918
0.153742
0.168135
0.180062
0.188659
0.193098
0.19257
0.186284
0.173574
0.153309
0.125286
0.0837954
0.0415197
0.007289
0.0924654
0.131283
0.118088
0.100346
0.0961488
0.0996903
0.10213
0.099376
0.0961322
0.0956948
0.0969949
0.097443
0.0973109
0.0975352
0.0974369
0.0973129
0.0972104
0.0971757
0.0971645
0.0971823
0.0972226
0.0972296
0.0972058
0.0971704
0.0971327
0.0970971
0.0970656
0.0970387
0.0970136
0.0969859
0.0969573
0.0969286
0.0969001
0.0968712
0.0968419
0.0968125
0.0967843
0.0967565
0.096729
0.0967023
0.0966774
0.0966551
0.0966359
0.0966202
0.0966082
0.0966003
0.0965999
0.0966198
0.0966826
0.0967902
0.0968537
0.0965911
0.0954444
0.0926427
0.0875268
0.0799496
0.0705227
0.0608905
0.0541593
0.0538864
0.0592261
0.0677143
0.0786339
0.0915035
0.105955
0.121414
0.137114
0.152147
0.165516
0.17622
0.183288
0.18583
0.183115
0.17448
0.159385
0.136917
0.107242
0.0663641
0.0294249
0.0583569
0.0921548
0.114846
0.113289
0.104091
0.0999159
0.0999541
0.0993168
0.0974109
0.0967262
0.0983162
0.0999148
0.0989345
0.096475
0.0955808
0.0964546
0.0973391
0.0975147
0.0973553
0.0972505
0.0971922
0.0971556
0.0971368
0.0971487
0.0971562
0.0971448
0.0971139
0.0970687
0.0970324
0.0969978
0.0969715
0.0969481
0.0969256
0.0969048
0.096885
0.0968638
0.0968392
0.0968119
0.0967832
0.0967548
0.0967283
0.0967054
0.0966855
0.0966669
0.0966522
0.0966586
0.0967185
0.0968635
0.0971214
0.0975007
0.0979394
0.0982137
0.0979078
0.0964048
0.0930361
0.0873942
0.079719
0.0712282
0.0639713
0.0595207
0.0585552
0.0620669
0.0694041
0.0794334
0.0913714
0.104743
0.11897
0.133235
0.146589
0.158051
0.16668
0.17163
0.172193
0.167814
0.158015
0.142454
0.120541
0.0928043
0.0565283
0.0249888
0.0833441
0.0933578
0.105908
0.109987
0.107295
0.104276
0.102615
0.100883
0.0992603
0.0984431
0.0982561
0.0981586
0.0978139
0.0971191
0.0965948
0.0975389
0.0987925
0.0980543
0.0968959
0.0964939
0.0964434
0.0966167
0.0969051
0.0971291
0.0972584
0.0973359
0.0973782
0.0973529
0.0972665
0.0971665
0.097071
0.096991
0.096934
0.0969061
0.0968931
0.0968805
0.0968594
0.0968347
0.0968094
0.0967846
0.0967626
0.0967456
0.0967316
0.0967161
0.0967031
0.0967244
0.0968406
0.0970805
0.0974819
0.0980378
0.0987051
0.0991255
0.098916
0.0975421
0.0945053
0.089589
0.0830834
0.0758051
0.0689339
0.0643458
0.0631418
0.0660059
0.0725231
0.0816634
0.0925825
0.104666
0.117246
0.129508
0.140577
0.149614
0.155867
0.158689
0.157549
0.152028
0.141772
0.126554
0.105982
0.0806632
0.0487118
0.0208004
0.0956847
0.0992852
0.106805
0.110775
0.109647
0.107318
0.105937
0.104898
0.103595
0.102144
0.100794
0.0997055
0.0989787
0.0981412
0.0971786
0.0972078
0.0977619
0.0979761
0.0978274
0.097376
0.0970361
0.0969224
0.0969803
0.0971599
0.0973514
0.0974639
0.0974198
0.0972351
0.0971026
0.0970008
0.0969233
0.0968692
0.0968386
0.0968476
0.0968806
0.0969089
0.0969196
0.0969065
0.0968762
0.0968387
0.0968005
0.0967642
0.0967274
0.0966793
0.0966122
0.09654
0.0965359
0.096739
0.0971371
0.0976982
0.098318
0.0987232
0.0985106
0.0972007
0.0943901
0.089955
0.0842172
0.0780034
0.0725651
0.0693168
0.0690882
0.0720934
0.077971
0.0859947
0.0954317
0.105643
0.115992
0.125786
0.134327
0.14096
0.145104
0.146259
0.143999
0.137975
0.127878
0.113519
0.0945796
0.0716451
0.0432238
0.0181824
0.104126
0.10596
0.109913
0.112084
0.111269
0.109661
0.108702
0.108027
0.107068
0.105876
0.104748
0.103758
0.102745
0.101423
0.100049
0.0993407
0.0992105
0.0990806
0.0985153
0.0976312
0.0970151
0.0968115
0.0969002
0.097107
0.0972765
0.0973686
0.0974058
0.0973956
0.097312
0.0971998
0.09709
0.0969981
0.0969317
0.0969053
0.096871
0.0968346
0.0968093
0.0967907
0.0967625
0.0967322
0.0967091
0.0966961
0.0966921
0.0966945
0.0967077
0.0967582
0.0969066
0.0972197
0.0976842
0.098238
0.0987546
0.0989953
0.098631
0.097331
0.0948791
0.0913031
0.0869654
0.0825597
0.0789765
0.0770794
0.0774184
0.0801332
0.0850008
0.091528
0.0991264
0.107231
0.1153
0.122783
0.129133
0.133829
0.136401
0.136424
0.133518
0.127351
0.117619
0.104126
0.0865664
0.0654723
0.039495
0.0165451
0.110936
0.11176
0.112997
0.113335
0.112548
0.111563
0.110904
0.110365
0.109698
0.108942
0.108217
0.107498
0.106638
0.10553
0.104363
0.103509
0.102995
0.102397
0.101428
0.100329
0.0995137
0.0990739
0.0988836
0.0987922
0.098705
0.0986008
0.0984785
0.0983118
0.0980913
0.0978739
0.0976932
0.0975515
0.0974407
0.0973879
0.0975492
0.0976321
0.0976418
0.0976577
0.0976918
0.0977397
0.0978042
0.0978897
0.0979981
0.0981306
0.0982934
0.0985056
0.0987986
0.0991997
0.099693
0.100211
0.100631
0.100769
0.100399
0.0993175
0.0974238
0.0947916
0.0917142
0.0886855
0.0863101
0.0851671
0.085654
0.0878872
0.0917139
0.0967825
0.102651
0.108873
0.115012
0.12063
0.125283
0.12854
0.129987
0.12924
0.125937
0.119749
0.110364
0.0975686
0.0810491
0.0612813
0.0369561
0.0155071
0.116813
0.116759
0.115844
0.114635
0.113812
0.113294
0.112818
0.112347
0.111905
0.111468
0.111016
0.110519
0.10992
0.109178
0.108372
0.107681
0.107139
0.106511
0.105644
0.104691
0.103891
0.103323
0.102923
0.10261
0.102331
0.102067
0.101804
0.101529
0.10125
0.101001
0.100803
0.100658
0.100574
0.100577
0.100679
0.100746
0.100777
0.100824
0.100905
0.10101
0.101139
0.101294
0.101475
0.101684
0.101923
0.102201
0.102533
0.102922
0.103347
0.103744
0.104013
0.104023
0.103625
0.1027
0.101204
0.0992155
0.0969592
0.094787
0.0931201
0.0923584
0.0927813
0.0944808
0.0973618
0.101187
0.105638
0.110369
0.115024
0.119238
0.122632
0.124829
0.125456
0.124154
0.120577
0.114398
0.105296
0.0930415
0.0772964
0.0584787
0.0352895
0.0148316
0.122217
0.121228
0.118264
0.115721
0.114965
0.114876
0.114542
0.114134
0.113869
0.113651
0.113382
0.113056
0.112668
0.112189
0.111652
0.111161
0.110748
0.110275
0.109641
0.108922
0.108271
0.107765
0.10738
0.107065
0.106781
0.106508
0.106237
0.105966
0.105703
0.105465
0.10527
0.105126
0.105042
0.10502
0.105028
0.105076
0.105133
0.1052
0.105289
0.105401
0.105533
0.105685
0.105858
0.10605
0.106263
0.1065
0.106764
0.107049
0.107331
0.107559
0.107658
0.107535
0.107093
0.106258
0.105016
0.103434
0.101683
0.100016
0.0987342
0.0981255
0.0983978
0.0996335
0.10178
0.104672
0.108071
0.111694
0.115244
0.118404
0.120846
0.122234
0.122232
0.120506
0.116726
0.110569
0.101708
0.0898891
0.0747421
0.0566214
0.0342258
0.0143758
0.127447
0.12526
0.120066
0.116422
0.115958
0.116285
0.116057
0.115733
0.115648
0.115616
0.115494
0.115302
0.115061
0.11475
0.114388
0.114049
0.113758
0.113425
0.112972
0.112447
0.111961
0.111579
0.11129
0.111052
0.110833
0.110618
0.110403
0.110187
0.109977
0.109786
0.109626
0.109509
0.109439
0.109415
0.109377
0.10941
0.109465
0.10952
0.109585
0.109667
0.109765
0.109876
0.11
0.110136
0.110284
0.110444
0.110613
0.110783
0.11093
0.111016
0.110982
0.110762
0.110287
0.109513
0.108435
0.107111
0.105673
0.10431
0.10325
0.102708
0.102848
0.103738
0.105348
0.107552
0.11016
0.112938
0.115631
0.117966
0.119656
0.120402
0.119901
0.117845
0.113918
0.107804
0.0991647
0.0877205
0.073057
0.0554634
0.0336085
0.0141067
0.132686
0.128837
0.121144
0.116753
0.116845
0.117536
0.117365
0.117151
0.117254
0.117391
0.117401
0.11733
0.117209
0.117024
0.116789
0.116559
0.116353
0.116112
0.115779
0.11539
0.115027
0.114744
0.114532
0.114359
0.1142
0.114043
0.113884
0.113724
0.113568
0.113424
0.113303
0.113213
0.113154
0.113116
0.113087
0.113105
0.113142
0.11318
0.113223
0.113278
0.113344
0.113418
0.1135
0.113588
0.113681
0.113776
0.11387
0.113952
0.114003
0.11399
0.113869
0.113589
0.113103
0.112379
0.11142
0.110277
0.109053
0.107897
0.106984
0.106482
0.106517
0.107147
0.108349
0.110022
0.112011
0.114119
0.116127
0.117796
0.118876
0.119103
0.118203
0.115892
0.111869
0.10582
0.0973964
0.086289
0.0720307
0.0548472
0.0333257
0.014024
0.138053
0.131884
0.121469
0.11681
0.117677
0.11864
0.11849
0.118414
0.1187
0.118982
0.119111
0.119152
0.119142
0.119068
0.11894
0.118801
0.118667
0.118496
0.118251
0.117957
0.117681
0.117465
0.117304
0.117176
0.117059
0.116943
0.116825
0.116705
0.116588
0.11648
0.116387
0.116317
0.11627
0.116237
0.116219
0.116229
0.116255
0.116284
0.116315
0.116353
0.116397
0.116446
0.116497
0.116549
0.1166
0.116648
0.116686
0.116705
0.116688
0.116608
0.116429
0.116113
0.115625
0.114944
0.114078
0.113069
0.112001
0.110993
0.110183
0.109702
0.10965
0.110072
0.110949
0.112197
0.113686
0.115247
0.116692
0.117814
0.118393
0.118197
0.11698
0.114479
0.110404
0.104442
0.0962305
0.0854325
0.0715218
0.0546672
0.0333034
0.0141423
0.143625
0.134297
0.121078
0.116715
0.118478
0.119594
0.119461
0.119548
0.120004
0.120405
0.120639
0.120783
0.120872
0.120897
0.120865
0.120808
0.120743
0.120637
0.120466
0.120251
0.120044
0.11988
0.119761
0.119667
0.119582
0.119497
0.119409
0.11932
0.119231
0.119149
0.119078
0.119022
0.118983
0.118965
0.118954
0.118959
0.118978
0.118999
0.119021
0.119046
0.119074
0.119102
0.119129
0.119153
0.119172
0.119182
0.119177
0.119148
0.11908
0.118949
0.118729
0.118389
0.117903
0.117259
0.116464
0.115557
0.114606
0.113706
0.112968
0.112496
0.112367
0.112616
0.113224
0.114121
0.115195
0.116303
0.117281
0.117951
0.118123
0.11759
0.11613
0.113496
0.109407
0.103548
0.0955414
0.0850264
0.0714163
0.054835
0.0334849
0.0144659
0.149444
0.135959
0.120064
0.116582
0.119243
0.120402
0.120307
0.120576
0.121179
0.121679
0.122005
0.122241
0.122419
0.12253
0.122581
0.122599
0.122598
0.122554
0.122449
0.122301
0.122155
0.122039
0.121957
0.121895
0.121838
0.12178
0.121719
0.121655
0.121591
0.12153
0.121476
0.121434
0.121406
0.121394
0.121386
0.12139
0.121403
0.121419
0.121433
0.121447
0.12146
0.121472
0.121479
0.121479
0.121471
0.121449
0.121409
0.121341
0.121231
0.12106
0.120808
0.120449
0.119965
0.119348
0.118608
0.117776
0.11691
0.116088
0.115397
0.114919
0.114716
0.114813
0.115191
0.115792
0.116519
0.117251
0.117847
0.118155
0.118005
0.117215
0.115579
0.112861
0.108787
0.103037
0.0952221
0.0849604
0.071609
0.0552656
0.0338214
0.0149763
0.155518
0.136762
0.118578
0.116504
0.119957
0.121076
0.121058
0.121511
0.122237
0.12282
0.123229
0.123547
0.123802
0.123988
0.124111
0.124197
0.124254
0.124265
0.124219
0.124131
0.124037
0.123965
0.123918
0.123885
0.123855
0.123822
0.123784
0.123742
0.1237
0.123658
0.12362
0.12359
0.123571
0.123563
0.123559
0.123562
0.123571
0.123581
0.123589
0.123593
0.123595
0.123591
0.123581
0.123561
0.123528
0.123479
0.123407
0.123304
0.123158
0.122953
0.122671
0.122294
0.121807
0.121207
0.120503
0.119722
0.118913
0.118139
0.11747
0.116971
0.116692
0.11665
0.11683
0.117182
0.117624
0.118053
0.118349
0.118378
0.117988
0.117013
0.115259
0.112498
0.108457
0.102815
0.0951715
0.0851306
0.0719996
0.055874
0.0342686
0.0156294
0.161826
0.136629
0.116793
0.116528
0.120595
0.121636
0.121737
0.122364
0.123188
0.123843
0.124327
0.124718
0.125042
0.125293
0.12548
0.125624
0.125733
0.125795
0.1258
0.125763
0.125716
0.125683
0.125667
0.12566
0.125655
0.125645
0.125628
0.125607
0.125584
0.125559
0.125534
0.125515
0.125503
0.125499
0.125498
0.125501
0.125507
0.125512
0.125512
0.125507
0.125497
0.125479
0.12545
0.12541
0.125353
0.125276
0.125173
0.125035
0.124853
0.124612
0.124299
0.123898
0.1234
0.122802
0.122114
0.12136
0.120581
0.119828
0.119158
0.118625
0.118268
0.118103
0.118117
0.118268
0.118488
0.118687
0.11876
0.118586
0.11803
0.116932
0.115107
0.112332
0.108335
0.102793
0.0952973
0.0854448
0.0724993
0.0565804
0.0347887
0.0163707
0.168315
0.135551
0.114889
0.116666
0.121137
0.122105
0.122359
0.123139
0.124043
0.124762
0.125314
0.12577
0.126152
0.126461
0.126704
0.1269
0.127057
0.127162
0.127213
0.127221
0.127214
0.127214
0.127226
0.127243
0.127259
0.127268
0.12727
0.127265
0.127259
0.127247
0.127233
0.127222
0.127216
0.127214
0.127213
0.127212
0.127212
0.127208
0.127198
0.12718
0.127153
0.127116
0.127065
0.126999
0.126914
0.126805
0.126666
0.126491
0.12627
0.12599
0.125641
0.125211
0.124692
0.124085
0.123397
0.122651
0.121879
0.121127
0.120441
0.119868
0.119441
0.119175
0.11906
0.119059
0.119116
0.119152
0.119071
0.118763
0.118098
0.116927
0.115066
0.112297
0.108348
0.102895
0.0955235
0.08583
0.0730396
0.057319
0.0353479
0.0171498
0.174903
0.133548
0.113028
0.116898
0.121577
0.122508
0.122932
0.123841
0.124809
0.125584
0.126195
0.126707
0.127141
0.127499
0.127789
0.12803
0.128227
0.128371
0.128459
0.128504
0.128531
0.128558
0.128592
0.128628
0.12866
0.128684
0.128698
0.128705
0.128711
0.128705
0.128695
0.128687
0.12868
0.128673
0.128665
0.128655
0.128642
0.128623
0.128595
0.128557
0.128508
0.128446
0.128368
0.128271
0.128153
0.128009
0.127834
0.12762
0.12736
0.127043
0.126658
0.126198
0.125657
0.125033
0.124337
0.123587
0.122812
0.122051
0.121345
0.120736
0.120253
0.119911
0.119702
0.119597
0.119544
0.119472
0.119293
0.118901
0.118174
0.116963
0.115091
0.112339
0.108437
0.103061
0.0957944
0.0862345
0.073574
0.0580413
0.0359175
0.0179266
0.181498
0.130718
0.11132
0.117183
0.121916
0.122859
0.123454
0.124463
0.125477
0.126298
0.126957
0.127513
0.127986
0.128382
0.12871
0.128985
0.129213
0.129385
0.129502
0.129574
0.129625
0.129671
0.129719
0.129766
0.129807
0.129838
0.129858
0.129872
0.129875
0.129866
0.129855
0.129842
0.129827
0.129809
0.129788
0.129762
0.129731
0.129692
0.129644
0.129583
0.129509
0.12942
0.129315
0.129189
0.129041
0.128865
0.128658
0.128412
0.128119
0.127771
0.127358
0.126874
0.126313
0.125675
0.12497
0.124213
0.123431
0.12266
0.121937
0.1213
0.120777
0.120383
0.120113
0.11994
0.119818
0.11968
0.119443
0.119004
0.118244
0.117018
0.115149
0.11242
0.108563
0.103254
0.0960738
0.086626
0.0740741
0.0587163
0.0364759
0.0186738
0.188006
0.127193
0.109834
0.117471
0.122162
0.123155
0.123899
0.124974
0.126018
0.126869
0.12756
0.128143
0.128642
0.129062
0.129413
0.12971
0.129957
0.130147
0.130281
0.13037
0.130435
0.13049
0.130544
0.130595
0.130639
0.130672
0.130692
0.130702
0.130696
0.130684
0.130667
0.130644
0.130618
0.130587
0.130552
0.130511
0.130463
0.130406
0.130339
0.130259
0.130164
0.130055
0.129927
0.12978
0.129609
0.129411
0.12918
0.128911
0.128597
0.128228
0.127797
0.127297
0.126723
0.126075
0.125363
0.124601
0.123814
0.123035
0.122299
0.121643
0.121094
0.120667
0.120359
0.120146
0.119983
0.119808
0.119539
0.119078
0.118305
0.117077
0.115219
0.112516
0.1087
0.103448
0.0963404
0.0869868
0.0745267
0.0593278
0.037009
0.0193766
0.194352
0.123129
0.108612
0.117725
0.122323
0.123378
0.124227
0.125336
0.126392
0.127259
0.127966
0.128563
0.129076
0.129509
0.129872
0.13018
0.130437
0.130636
0.130778
0.130876
0.130947
0.131006
0.131062
0.131113
0.131155
0.131187
0.131205
0.131207
0.131198
0.131181
0.131157
0.131127
0.131092
0.131052
0.131006
0.130954
0.130894
0.130825
0.130745
0.130652
0.130545
0.130421
0.13028
0.130119
0.129934
0.129723
0.129479
0.129197
0.12887
0.12849
0.128048
0.127539
0.126958
0.126306
0.12559
0.124825
0.124035
0.123251
0.122507
0.121839
0.121274
0.120828
0.120497
0.120261
0.120077
0.119882
0.119599
0.119129
0.118354
0.117133
0.115291
0.112613
0.108833
0.10363
0.0965837
0.0873097
0.0749278
0.0598698
0.0375084
0.0200303
0.200535
0.118796
0.10768
0.117917
0.122407
0.12351
0.12442
0.125541
0.126601
0.127475
0.128189
0.128794
0.129312
0.129751
0.130121
0.130434
0.130695
0.130898
0.131045
0.131146
0.13122
0.131281
0.131337
0.131387
0.131428
0.131458
0.131473
0.131475
0.131462
0.131441
0.131413
0.131378
0.131338
0.131292
0.13124
0.131182
0.131115
0.13104
0.130953
0.130853
0.130739
0.130608
0.13046
0.130292
0.130101
0.129882
0.129632
0.129344
0.129011
0.128625
0.128179
0.127667
0.127083
0.126429
0.125712
0.124945
0.124154
0.123366
0.122618
0.121943
0.121369
0.120911
0.120569
0.12032
0.120125
0.119923
0.119635
0.119164
0.118394
0.117183
0.115357
0.112703
0.108955
0.103795
0.0968011
0.0875946
0.0752804
0.0603446
0.037971
0.020639
0.206698
0.114708
0.107045
0.118034
0.122424
0.123559
0.124498
0.125627
0.126689
0.127566
0.128284
0.128892
0.129413
0.129855
0.130227
0.130543
0.130807
0.131011
0.13116
0.131263
0.131337
0.131399
0.131455
0.131505
0.131546
0.131574
0.131588
0.13159
0.131576
0.131554
0.131523
0.131486
0.131444
0.131395
0.131341
0.13128
0.131211
0.131132
0.131042
0.13094
0.130822
0.130689
0.130538
0.130367
0.130173
0.129952
0.129699
0.129409
0.129074
0.128687
0.12824
0.127726
0.127142
0.126488
0.125771
0.125005
0.124212
0.123424
0.122673
0.121993
0.121414
0.12095
0.120601
0.120347
0.120148
0.119943
0.119655
0.119188
0.118425
0.117226
0.115417
0.112786
0.109068
0.103945
0.0969971
0.0878494
0.0755957
0.0607653
0.0384029
0.0212217
0.212795
0.111502
0.106649
0.118083
0.122404
0.123552
0.124506
0.125641
0.126707
0.127586
0.128307
0.128916
0.129439
0.129883
0.130256
0.130574
0.130838
0.131044
0.131193
0.131296
0.131372
0.131434
0.13149
0.13154
0.13158
0.131608
0.131623
0.131624
0.13161
0.131588
0.131557
0.13152
0.131476
0.131427
0.131372
0.13131
0.13124
0.131161
0.13107
0.130967
0.130849
0.130715
0.130563
0.130392
0.130197
0.129976
0.129723
0.129432
0.129097
0.12871
0.128264
0.127751
0.127168
0.126515
0.125798
0.125033
0.12424
0.12345
0.122698
0.122016
0.121433
0.120966
0.120614
0.120357
0.120156
0.119952
0.119667
0.119206
0.118452
0.117265
0.115473
0.112864
0.109174
0.104086
0.0971808
0.0880871
0.07589
0.0611541
0.0388158
0.0218118
0.217522
0.109559
0.106424
0.11811
0.122382
0.123528
0.12449
0.125631
0.126699
0.127581
0.128303
0.128913
0.129437
0.129881
0.130255
0.130572
0.130837
0.131043
0.131193
0.131296
0.131372
0.131434
0.131491
0.131541
0.131582
0.13161
0.131625
0.131627
0.131613
0.13159
0.131559
0.131522
0.131478
0.131429
0.131375
0.131313
0.131243
0.131164
0.131073
0.13097
0.130852
0.130718
0.130567
0.130396
0.130201
0.12998
0.129728
0.129438
0.129104
0.128718
0.128272
0.12776
0.127178
0.126526
0.125811
0.125046
0.124253
0.123463
0.12271
0.122026
0.121441
0.120972
0.120618
0.12036
0.120159
0.119957
0.119675
0.11922
0.118475
0.117299
0.115523
0.112934
0.109268
0.104211
0.0973434
0.0882969
0.0761486
0.0614973
0.0391749
0.0223737
)
;

boundaryField
{
    inlet
    {
        type            zeroGradient;
    }
    outlet
    {
        type            fixedValue;
        value           uniform 0;
    }
    fixedWalls
    {
        type            zeroGradient;
    }
    frontAndBack
    {
        type            empty;
    }
}


// ************************************************************************* //
