/*--------------------------------*- C++ -*----------------------------------*\
| =========                 |                                                 |
| \\      /  F ield         | OpenFOAM: The Open Source CFD Toolbox           |
|  \\    /   O peration     | Version:  v1912                                 |
|   \\  /    A nd           | Website:  www.openfoam.com                      |
|    \\/     M anipulation  |                                                 |
\*---------------------------------------------------------------------------*/
FoamFile
{
    version     2.0;
    format      ascii;
    class       surfaceScalarField;
    location    "825";
    object      phi;
}
// * * * * * * * * * * * * * * * * * * * * * * * * * * * * * * * * * * * * * //

dimensions      [0 3 -1 0 0 0 0];
oriented        oriented;


internalField   nonuniform List<scalar> 
3895
(
0.000814746
0.00038143
0.000499361
0.000315385
0.000251565
0.000247796
6.4863e-05
0.000186702
-6.21962e-05
0.000127059
-0.000127327
6.51304e-05
-0.000137639
1.0312e-05
-0.000113632
-2.40064e-05
-9.03514e-05
-2.32809e-05
-8.49474e-05
-5.40392e-06
-6.61299e-05
-1.88176e-05
-4.47461e-05
-2.13838e-05
-4.04653e-05
-4.28084e-06
-4.86709e-05
8.20562e-06
-4.5712e-05
-2.95888e-06
-3.20522e-05
-1.36598e-05
-2.51399e-05
-6.91232e-06
-2.59216e-05
7.817e-07
-2.89424e-05
3.02079e-06
-3.04854e-05
1.54309e-06
-2.91837e-05
-1.30178e-06
-2.48979e-05
-4.28572e-06
-1.85782e-05
-6.31971e-06
-1.19754e-05
-6.60281e-06
-6.20297e-06
-5.77246e-06
-1.90269e-06
-4.30028e-06
8.38183e-07
-2.74087e-06
2.44561e-06
-1.60743e-06
3.50028e-06
-1.05467e-06
4.41044e-06
-9.10159e-07
5.30503e-06
-8.94586e-07
6.15849e-06
-8.53469e-07
6.95068e-06
-7.92185e-07
7.64426e-06
-6.93584e-07
8.16548e-06
-5.21219e-07
8.44618e-06
-2.80702e-07
8.4306e-06
1.55813e-08
8.03116e-06
3.99441e-07
7.25773e-06
7.73427e-07
6.06915e-06
1.18859e-06
4.38732e-06
1.68183e-06
2.10595e-06
2.28137e-06
-8.96596e-07
3.00254e-06
-4.7426e-06
3.84601e-06
-9.54574e-06
4.80314e-06
-1.54525e-05
5.9068e-06
-2.27898e-05
7.33725e-06
-3.22586e-05
9.46877e-06
-4.51836e-05
1.2925e-05
-6.37188e-05
1.85352e-05
-9.07704e-05
2.70517e-05
-0.000129377
3.86064e-05
-0.000181872
5.24957e-05
-0.000249197
6.7325e-05
-0.000330009
8.08119e-05
-0.000419845
8.9836e-05
-0.00051134
9.14942e-05
-0.000595574
8.42346e-05
-0.000663668
6.80938e-05
-0.00070686
4.3192e-05
-0.000714223
7.36269e-06
-0.000696302
-1.79202e-05
-0.000657383
-3.89194e-05
-0.00060106
-5.63227e-05
-0.000531258
-6.98019e-05
-0.000451041
-8.0217e-05
-0.000362412
-8.86292e-05
-0.000266928
-9.54844e-05
-0.0001662
-0.000100728
-6.19197e-05
-0.00010428
4.39531e-05
-0.000105873
0.000149468
-0.000105515
0.000253063
-0.000103595
0.000353394
-0.000100331
0.000449583
-9.61896e-05
0.000541558
-9.19748e-05
0.000629569
-8.80103e-05
0.000716743
-8.71744e-05
0.00080342
-8.6677e-05
-0.000107471
0.00108795
0.000349294
0.00104738
0.000355946
0.000933278
0.000361903
0.000775747
0.000344233
0.000598431
0.000304375
0.000410383
0.000253178
0.000221248
0.000199447
5.3877e-05
0.000143365
-6.04247e-05
9.10208e-05
-0.000110188
4.43597e-05
-0.000131882
2.87632e-06
-0.000123968
-2.92983e-05
-0.000105671
-2.25779e-05
-0.000107783
1.0318e-05
-0.000103375
-7.36721e-06
-9.07483e-05
-2.62862e-05
-7.67546e-05
-2.09061e-05
-7.8865e-05
2.89215e-06
-8.71306e-05
1.12864e-05
-9.26301e-05
7.04251e-06
-9.45844e-05
6.52535e-07
-9.09576e-05
-7.91253e-06
-8.48038e-05
-1.24735e-05
-7.80661e-05
-1.33405e-05
-7.15039e-05
-1.23346e-05
-6.58478e-05
-9.95643e-06
-6.17157e-05
-6.87293e-06
-5.95662e-05
-3.75697e-06
-5.92747e-05
-1.34615e-06
-6.03363e-05
1.51423e-07
-6.25593e-05
1.32848e-06
-6.52583e-05
1.84547e-06
-6.81258e-05
2.07537e-06
-7.10832e-05
2.26375e-06
-7.42625e-05
2.65807e-06
-7.78161e-05
3.27292e-06
-8.18618e-05
4.06129e-06
-8.64429e-05
4.98056e-06
-9.16694e-05
5.99997e-06
-9.75834e-05
7.10254e-06
-0.000104188
8.28668e-06
-0.000111471
9.56423e-06
-0.000119411
1.09427e-05
-0.000127967
1.24022e-05
-0.000137057
1.3893e-05
-0.000146554
1.54033e-05
-0.000156356
1.71397e-05
-0.000166477
1.95892e-05
-0.00017705
2.34987e-05
-0.000188233
2.97172e-05
-0.000200254
3.90736e-05
-0.000213453
5.18053e-05
-0.000227863
6.69052e-05
-0.000242624
8.20856e-05
-0.000255539
9.37273e-05
-0.000262734
9.70314e-05
-0.000259388
8.8148e-05
-0.000241365
6.62109e-05
-0.000207423
3.41525e-05
-0.000166503
2.27151e-06
-0.000119912
-3.92281e-05
-6.79171e-05
-6.99152e-05
-1.33129e-05
-9.35235e-05
4.29688e-05
-0.000112604
0.000102521
-0.000129354
0.000166532
-0.000144229
0.000234881
-0.000156978
0.000306524
-0.000167128
0.000379934
-0.000174138
0.000453343
-0.000177689
0.000525232
-0.000177762
0.000594372
-0.000174654
0.000659701
-0.000168924
0.000720652
-0.000161282
0.000777066
-0.000152604
0.000829049
-0.000143958
0.000877463
-0.000136424
0.000922334
-0.000132045
0.000966378
-0.000130721
-0.000142072
0.000975282
0.000305926
0.00102604
0.000305187
0.00106097
0.000326974
0.00105862
0.000346584
0.00101217
0.00035082
0.000925048
0.000340304
0.000805752
0.000318743
0.000661765
0.000287352
0.000504928
0.000247857
0.000345843
0.000203445
0.000190168
0.000158552
4.7057e-05
0.000113812
-4.98374e-05
7.43166e-05
-8.59846e-05
4.64652e-05
-0.00010587
1.25178e-05
-0.000113874
-1.82814e-05
-0.000101871
-3.29092e-05
-9.15506e-05
-7.42863e-06
-9.90014e-05
1.87373e-05
-0.000108457
1.64983e-05
-0.000114962
7.15714e-06
-0.000119599
-3.27587e-06
-0.000121678
-1.03941e-05
-0.000120586
-1.44323e-05
-0.000118968
-1.39526e-05
-0.00011871
-1.02142e-05
-0.000120411
-5.17243e-06
-0.000124239
7.13154e-08
-0.000128325
2.73953e-06
-0.00013284
4.66629e-06
-0.000137366
5.85436e-06
-0.000141945
6.42434e-06
-0.000146457
6.58733e-06
-0.000150813
6.61979e-06
-0.000155078
6.92356e-06
-0.000159418
7.61319e-06
-0.000163938
8.58074e-06
-0.00016862
9.66227e-06
-0.000173387
1.07678e-05
-0.000178154
1.18696e-05
-0.000182823
1.29554e-05
-0.000187286
1.40269e-05
-0.000191417
1.50737e-05
-0.000195015
1.60001e-05
-0.000197716
1.65942e-05
-0.000198864
1.65513e-05
-0.000197434
1.57096e-05
-0.000192456
1.46114e-05
-0.000182947
1.39902e-05
-0.000167849
1.46191e-05
-0.000145789
1.70134e-05
-0.000116064
2.20803e-05
-7.78341e-05
2.86752e-05
-3.04876e-05
3.47392e-05
2.56868e-05
3.75529e-05
8.81287e-05
3.45894e-05
0.000152316
2.39605e-05
0.00021203
6.49713e-06
0.000266616
-2.04333e-05
0.000318566
-4.96784e-05
0.000361001
-8.16633e-05
0.000402226
-0.00011114
0.000445668
-0.000136966
0.000492864
-0.000159801
0.000543299
-0.000179789
0.000595599
-0.000196528
0.000648057
-0.000209436
0.000698974
-0.000218045
0.000746953
-0.000222116
0.000790976
-0.000221711
0.000830423
-0.000217209
0.00086503
-0.000209262
0.000894831
-0.000198724
0.000920121
-0.000186573
0.000941374
-0.000173857
0.000959092
-0.000161676
0.000973873
-0.000151205
0.000985589
-0.000143761
0.000995306
-0.000140438
-0.000144915
0.000857109
0.000271374
0.000897355
0.000264941
0.000950164
0.000274165
0.00100471
0.000292042
0.00104637
0.000309153
0.00106531
0.000321372
0.00105664
0.000327411
0.00101794
0.000326054
0.000949552
0.000316241
0.00085508
0.000297917
0.000740895
0.000272737
0.000611932
0.000242776
0.000476494
0.000209754
0.000348327
0.000174632
0.000223535
0.00013731
0.000102247
0.000103006
-1.42386e-07
6.94804e-05
-5.16328e-05
4.40618e-05
-6.2883e-05
2.99875e-05
-6.47469e-05
1.83622e-05
-6.70961e-05
9.50639e-06
-7.30003e-05
2.62828e-06
-8.0461e-05
-2.93335e-06
-8.89834e-05
-5.90987e-06
-9.63327e-05
-6.60329e-06
-0.000101835
-4.71138e-06
-0.000106798
-2.10038e-07
-0.000112171
5.44409e-06
-0.000117764
8.3328e-06
-0.000122913
9.81547e-06
-0.000127285
1.02261e-05
-0.000130808
9.9475e-06
-0.00013355
9.32932e-06
-0.000135347
8.41727e-06
-0.000136526
8.10257e-06
-0.000137193
8.27952e-06
-0.000137423
8.81104e-06
-0.000136914
9.15343e-06
-0.000135501
9.35466e-06
-0.000133064
9.43254e-06
-0.000129458
9.34948e-06
-0.00012451
9.07864e-06
-0.000118065
8.62888e-06
-0.000109934
7.86872e-06
-9.98635e-05
6.52404e-06
-8.76322e-05
4.32002e-06
-7.22403e-05
3.1762e-07
-5.40281e-05
-3.6008e-06
-3.17312e-05
-8.30664e-06
-3.87673e-06
-1.32353e-05
3.0795e-05
-1.76583e-05
7.42887e-05
-2.14134e-05
0.000127388
-2.4424e-05
0.000189453
-2.73257e-05
0.000258398
-3.13924e-05
0.00033123
-3.82423e-05
0.00040458
-4.93898e-05
0.00047683
-6.57525e-05
0.000543748
-8.73511e-05
0.000606015
-0.000111946
0.000662127
-0.000137775
0.000713764
-0.000162777
0.000762209
-0.000185411
0.000807358
-0.00020495
0.000848455
-0.000220886
0.000884643
-0.000232715
0.000915245
-0.000240039
0.000939893
-0.000242693
0.000958579
-0.000240803
0.000971634
-0.000234766
0.000979643
-0.000225219
0.000983353
-0.000212972
0.00098357
-0.000198941
0.000981076
-0.000184079
0.000976557
-0.000169338
0.00097052
-0.000155639
0.000963258
-0.000143943
0.000954603
-0.000135107
0.000944415
-0.00013025
-0.000130362
0.000759397
0.000238011
0.000790536
0.000233802
0.000828351
0.000236349
0.000874985
0.000245408
0.000927002
0.000257137
0.000978871
0.000269503
0.00102441
0.000281869
0.00105755
0.000292918
0.00107319
0.000300602
0.00106786
0.000303245
0.00104042
0.000300179
0.000991565
0.00029163
0.000923239
0.00027808
0.00083886
0.000259011
0.000741525
0.000234645
0.000636636
0.000207896
0.000532152
0.000173965
0.000433901
0.000142312
0.000348944
0.000114944
0.000276028
9.12783e-05
0.000213744
7.17912e-05
0.000160423
5.59486e-05
0.000114125
4.33651e-05
7.45214e-05
3.36935e-05
4.17026e-05
2.62155e-05
1.65778e-05
2.04134e-05
3.21525e-07
1.60463e-05
-7.30444e-06
1.30701e-05
-9.54888e-06
1.05772e-05
-8.33616e-06
8.60276e-06
-5.02927e-06
6.91922e-06
-4.71823e-07
5.39004e-06
4.92088e-06
3.93661e-06
1.08238e-05
2.51434e-06
1.72344e-05
1.69203e-06
2.47885e-05
7.25421e-07
3.40134e-05
-4.13902e-07
4.48631e-05
-1.69624e-06
5.76136e-05
-3.39586e-06
7.25471e-05
-5.50097e-06
8.99452e-05
-8.04864e-06
0.000110104
-1.10798e-05
0.000133352
-1.46195e-05
0.000159934
-1.87137e-05
0.000189905
-2.34462e-05
0.000223143
-2.89182e-05
0.000258612
-3.51513e-05
0.000296825
-4.18136e-05
0.000337316
-4.87979e-05
0.000379932
-5.58511e-05
0.000424908
-6.2635e-05
0.000472461
-6.89658e-05
0.000522975
-7.49384e-05
0.000576619
-8.09694e-05
0.000633048
-8.78214e-05
0.000691244
-9.64389e-05
0.000749526
-0.000107672
0.000805705
-0.000121931
0.000857355
-0.000139002
0.000903289
-0.00015788
0.000942718
-0.000177204
0.000975486
-0.000195546
0.00100169
-0.00021161
0.00102126
-0.000224523
0.00103414
-0.000233769
0.00104047
-0.000239039
0.00104064
-0.000240215
0.00103535
-0.000237398
0.00102546
-0.000230917
0.00101199
-0.000221293
0.000995955
-0.000209185
0.00097832
-0.000195337
0.000959904
-0.000180525
0.000941343
-0.000165518
0.000923058
-0.000151053
0.000905239
-0.00013782
0.000887818
-0.000126521
0.00087042
-0.000117709
0.000852407
-0.000112237
-0.000110245
0.000672433
0.000206414
0.000702275
0.000203961
0.000733372
0.000205252
0.000767839
0.00021094
0.000806614
0.000218362
0.000850036
0.000226081
0.000897301
0.000234604
0.000946031
0.000244188
0.000992641
0.000253992
0.00103305
0.000262834
0.00106349
0.000269743
0.00108117
0.000273948
0.00108444
0.000274805
0.00107207
0.000271382
0.0010437
0.000263018
0.00100103
0.000250564
0.000949033
0.000225964
0.000891657
0.000199688
0.000831901
0.000174701
0.000772156
0.000151023
0.000714621
0.000129326
0.000660582
0.000109987
0.000610844
9.31036e-05
0.000565996
7.85417e-05
0.000526242
6.59688e-05
0.000491567
5.50894e-05
0.000461942
4.56712e-05
0.000437582
3.74293e-05
0.000418143
3.00165e-05
0.000403392
2.3354e-05
0.000393002
1.73091e-05
0.000386626
1.17662e-05
0.000383991
6.57144e-06
0.000385306
1.19933e-06
0.000390234
-3.2361e-06
0.000398856
-7.89611e-06
0.00041104
-1.25983e-05
0.00042667
-1.7326e-05
0.000445489
-2.22148e-05
0.000467299
-2.73116e-05
0.000491892
-3.2641e-05
0.000519039
-3.82269e-05
0.000548505
-4.40856e-05
0.000580023
-5.02315e-05
0.000613257
-5.66802e-05
0.00064777
-6.34317e-05
0.000683057
-7.04376e-05
0.000718788
-7.75452e-05
0.000754575
-8.45851e-05
0.00079011
-9.13859e-05
0.000825257
-9.77816e-05
0.000859999
-0.000103708
0.000894352
-0.000109291
0.000928247
-0.000114864
0.000961377
-0.000120951
0.000993094
-0.000128156
0.00102241
-0.000136984
0.00104812
-0.000147645
0.00106905
-0.00015993
0.00108433
-0.000173161
0.00109346
-0.000186332
0.00109629
-0.000198375
0.00109302
-0.000208343
0.00108407
-0.000215569
0.00106999
-0.000219689
0.00105151
-0.000220559
0.0010295
-0.000218211
0.00100494
-0.000212838
0.000978806
-0.000204781
0.000952013
-0.0001945
0.000925358
-0.000182531
0.00089947
-0.000169449
0.000874787
-0.000155842
0.000851553
-0.000142284
0.00082983
-0.000129329
0.000809496
-0.000117486
0.000790256
-0.000107281
0.000771594
-9.90476e-05
0.000752876
-9.35178e-05
-9.02495e-05
0.000594386
0.000177665
0.00062317
0.000175177
0.000652323
0.000176099
0.000682115
0.000181149
0.000712924
0.000187552
0.000745613
0.000193392
0.000781181
0.000199036
0.000820193
0.000205175
0.000862411
0.000211774
0.000906707
0.000218538
0.000951215
0.000225234
0.00099366
0.000231504
0.00103171
0.000236754
0.00106298
0.000240113
0.0010853
0.000240697
0.00109753
0.000238336
0.00109977
0.000223725
0.00109369
0.000205768
0.00108083
0.000187562
0.00106268
0.000169174
0.00104092
0.000151082
0.00101711
0.000133798
0.000992582
0.000117631
0.00096843
0.000102694
0.000945441
8.89581e-05
0.000924193
7.63369e-05
0.000905139
6.47255e-05
0.000888599
5.39696e-05
0.000874708
4.39077e-05
0.000863602
3.44598e-05
0.000855354
2.55572e-05
0.000850002
1.71175e-05
0.000847535
9.03869e-06
0.000847361
1.37312e-06
0.000850243
-6.11772e-06
0.000855636
-1.32892e-05
0.000863385
-2.03472e-05
0.000873346
-2.72868e-05
0.000885272
-3.41408e-05
0.000898904
-4.09435e-05
0.000913974
-4.77108e-05
0.000930195
-5.44486e-05
0.000947267
-6.1157e-05
0.000964868
-6.78326e-05
0.000982655
-7.44673e-05
0.00100026
-8.1039e-05
0.00101732
-8.74963e-05
0.00103352
-9.37418e-05
0.00104859
-9.96588e-05
0.00106235
-0.000105148
0.00107472
-0.000110145
0.00108567
-0.000114667
0.00109524
-0.000118857
0.00110337
-0.000122997
0.0011099
-0.000127475
0.00111445
-0.000132705
0.00111647
-0.000139012
0.00111533
-0.000146504
0.0011104
-0.000154998
0.00110124
-0.000163999
0.0010877
-0.000172797
0.00106996
-0.000180629
0.00104844
-0.000186826
0.00102378
-0.000190903
0.000996678
-0.00019259
0.000967913
-0.000191795
0.00093826
-0.000188558
0.000908457
-0.000183035
0.000879159
-0.000175482
0.000850893
-0.000166234
0.000824046
-0.000155683
0.000798855
-0.000144259
0.000775423
-0.000132409
0.000753725
-0.000120586
0.000733631
-0.000109236
0.000714905
-9.87601e-05
0.000697216
-8.95918e-05
0.000680061
-8.18925e-05
0.000662972
-7.64294e-05
-7.20381e-05
0.000525111
0.000151816
0.000551936
0.000148352
0.000579146
0.000148889
0.000606467
0.000153827
0.000634006
0.000160013
0.000661953
0.000165445
0.000690628
0.000170362
0.000720605
0.000175198
0.000752535
0.000179845
0.000786873
0.000184199
0.000823722
0.000188386
0.00086273
0.000192496
0.00090308
0.000196403
0.000943487
0.000199707
0.000982309
0.000201875
0.00101803
0.000202617
0.00104832
0.000193431
0.00107278
0.000181312
0.00109162
0.000168723
0.00110524
0.000155555
0.00111427
0.000142045
0.00111951
0.000128561
0.00112176
0.000115381
0.00112179
0.00010266
0.00112029
9.04601e-05
0.00111784
7.87881e-05
0.00111494
6.76261e-05
0.00111198
5.69305e-05
0.00110924
4.66452e-05
0.00110696
3.67393e-05
0.00110532
2.71992e-05
0.00110443
1.80041e-05
0.00110432
9.14491e-06
0.00110493
7.68432e-07
0.00110636
-7.54413e-06
0.00110842
-1.53551e-05
0.00111101
-2.29375e-05
0.00111403
-3.03007e-05
0.00111733
-3.74452e-05
0.00112077
-4.43843e-05
0.00112418
-5.11248e-05
0.0011274
-5.76647e-05
0.00113024
-6.39978e-05
0.00113253
-7.01164e-05
0.00113407
-7.60093e-05
0.00113469
-8.16571e-05
0.00113421
-8.70238e-05
0.00113252
-9.2053e-05
0.00112955
-9.66812e-05
0.00112526
-0.000100863
0.00111971
-0.000104593
0.00111297
-0.000107927
0.00110512
-0.000111006
0.00109618
-0.000114062
0.0010861
-0.000117388
0.00107467
-0.000121278
0.00106161
-0.000125953
0.00104658
-0.000131475
0.00102928
-0.0001377
0.00100956
-0.000144276
0.000987461
-0.000150696
0.000963234
-0.000156402
0.000937299
-0.000160892
0.000910173
-0.000163777
0.000882399
-0.000164816
0.000854504
-0.000163899
0.000826965
-0.000161019
0.000800191
-0.000156261
0.000774496
-0.000149788
0.000750099
-0.000141837
0.000727121
-0.000132706
0.000705602
-0.000122739
0.000685509
-0.000112316
0.000666753
-0.00010183
0.000649195
-9.16776e-05
0.000632638
-8.22033e-05
0.000616828
-7.37812e-05
0.00060137
-6.64345e-05
0.000585938
-6.09974e-05
-5.55566e-05
0.00046394
0.000128551
0.000488639
0.000123652
0.00051348
0.000124049
0.000538159
0.000129148
0.000563122
0.00013505
0.000588445
0.000140122
0.00061397
0.000144837
0.000639764
0.000149404
0.000666083
0.000153526
0.000693245
0.000157037
0.00072161
0.00016002
0.00075152
0.000162587
0.00078317
0.000164753
0.000816474
0.000166403
0.000850999
0.000167349
0.000886112
0.000167504
0.000919682
0.000159861
0.000950825
0.000150169
0.00097917
0.000140378
0.00100445
0.000130274
0.00102659
0.000119904
0.0010457
0.000109455
0.00106199
9.90901e-05
0.00107575
8.89036e-05
0.00108727
7.89367e-05
0.00109686
6.92018e-05
0.00110478
5.96998e-05
0.00111129
5.04213e-05
0.00111659
4.13511e-05
0.00112084
3.24879e-05
0.00112419
2.3847e-05
0.00112675
1.54453e-05
0.00112859
7.30331e-06
0.00112978
-4.2457e-07
0.00113028
-8.0433e-06
0.00113015
-1.52192e-05
0.00112935
-2.21393e-05
0.00112787
-2.88189e-05
0.00112568
-3.5254e-05
0.00112274
-4.14459e-05
0.00111901
-4.7396e-05
0.00111445
-5.31016e-05
0.001109
-5.85574e-05
0.00110265
-6.37576e-05
0.00109533
-6.8695e-05
0.00108703
-7.33572e-05
0.00107773
-7.77239e-05
0.00106744
-8.1765e-05
0.00105621
-8.54503e-05
0.00104412
-8.87656e-05
0.00103125
-9.17294e-05
0.00101773
-9.44075e-05
0.00100365
-9.69256e-05
0.000989058
-9.94681e-05
0.000973926
-0.000102256
0.000958153
-0.000105505
0.00094157
-0.00010937
0.000923988
-0.000113893
0.000905249
-0.000118962
0.000885286
-0.000124313
0.000864155
-0.000129565
0.000842036
-0.000134284
0.000819202
-0.000138058
0.000795976
-0.00014055
0.000772681
-0.000141522
0.000749615
-0.000140833
0.000727028
-0.000138433
0.000705119
-0.000134352
0.000684027
-0.000128696
0.000663839
-0.000121648
0.000644593
-0.00011346
0.000626292
-0.000104438
0.000608912
-9.49363e-05
0.000592406
-8.53242e-05
0.000576703
-7.59743e-05
0.000561697
-6.71974e-05
0.000547229
-5.93133e-05
0.000533034
-5.22395e-05
0.000518829
-4.6793e-05
-4.04959e-05
0.000410014
0.000107501
0.000432754
0.000100912
0.000455183
0.00010162
0.000477152
0.000107179
0.000499455
0.000112747
0.000522203
0.000117374
0.000545203
0.000121836
0.00056844
0.000126167
0.00059194
0.000130026
0.000615686
0.00013329
0.000639722
0.000135985
0.00066419
0.000138119
0.000689281
0.000139662
0.000715152
0.000140532
0.000741864
0.000140638
0.000769388
0.00013998
0.000796434
0.000132814
0.000822522
0.000124081
0.000847428
0.000115472
0.000870887
0.000106816
0.000892681
9.81089e-05
0.000912687
8.94491e-05
0.000930854
8.09238e-05
0.000947184
7.25732e-05
0.000961717
6.44038e-05
0.000974512
5.64071e-05
0.000985639
4.85718e-05
0.000995175
4.08854e-05
0.00100319
3.33368e-05
0.00100975
2.59274e-05
0.00101492
1.86739e-05
0.00101877
1.15999e-05
0.00102134
4.73494e-06
0.00102277
-1.85485e-06
0.001023
-8.27911e-06
0.0010222
-1.44147e-05
0.00102037
-2.03088e-05
0.00101754
-2.59882e-05
0.00101374
-3.14533e-05
0.00100899
-3.6701e-05
0.00100333
-4.17308e-05
0.000996766
-4.65411e-05
0.000989337
-5.11289e-05
0.00098107
-5.54902e-05
0.000971995
-5.96201e-05
0.000962149
-6.35106e-05
0.000951574
-6.7149e-05
0.000940327
-7.05183e-05
0.00092848
-7.36037e-05
0.000916119
-7.64042e-05
0.000903334
-7.89449e-05
0.000890215
-8.12877e-05
0.000876827
-8.35378e-05
0.0008632
-8.58416e-05
0.000849314
-8.83694e-05
0.000835093
-9.12839e-05
0.000820422
-9.47e-05
0.000805174
-9.86442e-05
0.000789239
-0.000103027
0.000772565
-0.000107639
0.000755175
-0.000112174
0.000737166
-0.000116275
0.000718695
-0.000119587
0.000699945
-0.000121801
0.000681103
-0.000122679
0.000662335
-0.000122065
0.000643782
-0.00011988
0.000625554
-0.000116123
0.000607733
-0.000110875
0.00059038
-0.000104295
0.000573538
-9.66174e-05
0.00055724
-8.81406e-05
0.000541513
-7.92093e-05
0.000526376
-7.01866e-05
0.00051183
-6.14283e-05
0.000497852
-5.32198e-05
0.000484356
-4.58176e-05
0.00047119
-3.90729e-05
0.000458036
-3.36389e-05
-2.68027e-05
0.000362528
8.82933e-05
0.000383496
7.99438e-05
0.000403597
8.15192e-05
0.000423064
8.77118e-05
0.00044288
9.29311e-05
0.000463078
9.71768e-05
0.000483524
0.00010139
0.000504297
0.000105394
0.00052542
0.000108903
0.000546805
0.000111905
0.000568367
0.000114423
0.000590058
0.000116428
0.000611865
0.000117854
0.000633785
0.000118612
0.000655814
0.000118608
0.000677971
0.000117824
0.000699347
0.000111438
0.00071975
0.000103679
0.000739189
9.60323e-05
0.000757602
8.84029e-05
0.00077491
8.08011e-05
0.000791051
7.33079e-05
0.000805983
6.59922e-05
0.000819676
5.88803e-05
0.000832112
5.1968e-05
0.00084328
4.52387e-05
0.000853179
3.86731e-05
0.000861811
3.22533e-05
0.000869184
2.59643e-05
0.000875309
1.98019e-05
0.000880207
1.37756e-05
0.000883906
7.90121e-06
0.00088645
2.19119e-06
0.000887911
-3.31598e-06
0.000888309
-8.67697e-06
0.000887732
-1.38379e-05
0.00088622
-1.87963e-05
0.000883805
-2.35734e-05
0.000880525
-2.81741e-05
0.00087642
-3.25956e-05
0.000871526
-3.68365e-05
0.00086588
-4.08956e-05
0.000859522
-4.47704e-05
0.000852489
-4.84574e-05
0.00084482
-5.19517e-05
0.000836556
-5.52467e-05
0.00082774
-5.83327e-05
0.00081842
-6.11985e-05
0.000808653
-6.38361e-05
0.000798498
-6.62499e-05
0.000788019
-6.84654e-05
0.000777269
-7.05383e-05
0.000766289
-7.25574e-05
0.00075509
-7.46423e-05
0.00074365
-7.69294e-05
0.000731913
-7.9547e-05
0.000719797
-8.25837e-05
0.000707209
-8.60567e-05
0.000694071
-8.98894e-05
0.000680338
-9.39058e-05
0.00066601
-9.78466e-05
0.000651138
-0.000101402
0.000635805
-0.000104255
0.00062012
-0.000106115
0.00060419
-0.000106749
0.000588118
-0.000105993
0.000571996
-0.000103758
0.000555908
-0.000100035
0.00053993
-9.48974e-05
0.000524139
-8.85047e-05
0.000508615
-8.10939e-05
0.000493441
-7.29664e-05
0.000478698
-6.44663e-05
0.000464462
-5.59501e-05
0.000450787
-4.77536e-05
0.000437704
-4.01373e-05
0.00042517
-3.32832e-05
0.000413116
-2.70185e-05
0.000401149
-2.16724e-05
-1.46748e-05
0.000320758
7.05686e-05
0.000340087
6.06147e-05
0.000357962
6.3644e-05
0.000375206
7.04679e-05
0.000392819
7.53176e-05
0.00041069
7.93065e-05
0.000428757
8.33231e-05
0.000447162
8.69892e-05
0.000465939
9.01264e-05
0.000485023
9.28205e-05
0.000504347
9.50998e-05
0.000523846
9.69281e-05
0.000543446
9.82545e-05
0.000563056
9.90021e-05
0.000582581
9.90828e-05
0.000601945
9.846e-05
0.000620301
9.30823e-05
0.000637492
8.64871e-05
0.000653584
7.99405e-05
0.000668602
7.3385e-05
0.000682559
6.68436e-05
0.000695474
6.03937e-05
0.000707363
5.41026e-05
0.000718245
4.79988e-05
0.00072813
4.20823e-05
0.000737029
3.63395e-05
0.000744949
3.07536e-05
0.000751895
2.53077e-05
0.000757872
1.99867e-05
0.000762889
1.47847e-05
0.000766958
9.70695e-06
0.000770094
4.76487e-06
0.000772335
-4.92705e-08
0.000773712
-4.69288e-06
0.000774248
-9.21367e-06
0.000773986
-1.35757e-05
0.00077296
-1.77705e-05
0.000771198
-2.18107e-05
0.000768727
-2.5703e-05
0.000765577
-2.94458e-05
0.000761777
-3.3037e-05
0.000757357
-3.64752e-05
0.000752344
-3.97579e-05
0.000746768
-4.28815e-05
0.000740658
-4.58413e-05
0.000734043
-4.86312e-05
0.000726953
-5.12434e-05
0.000719425
-5.367e-05
0.000711496
-5.59069e-05
0.000703207
-5.79609e-05
0.000694598
-5.98571e-05
0.000685706
-6.16454e-05
0.000676551
-6.34028e-05
0.000667139
-6.52302e-05
0.00065745
-6.72406e-05
0.000647442
-6.95387e-05
0.000637053
-7.21945e-05
0.000626213
-7.52173e-05
0.000614861
-7.85367e-05
0.000602951
-8.19962e-05
0.000590469
-8.5365e-05
0.000577431
-8.83642e-05
0.000563878
-9.07015e-05
0.000549869
-9.21056e-05
0.000535473
-9.23532e-05
0.000520766
-9.12866e-05
0.000505833
-8.88246e-05
0.000490766
-8.49684e-05
0.000475674
-7.98052e-05
0.000460676
-7.35063e-05
0.0004459
-6.63182e-05
0.000431479
-5.85449e-05
0.000417536
-5.05236e-05
0.00040418
-4.25938e-05
0.000391487
-3.50609e-05
0.000379507
-2.8157e-05
0.000368204
-2.19808e-05
0.000357568
-1.6382e-05
0.000347124
-1.12284e-05
-4.43724e-06
0.000284047
5.3995e-05
0.000301804
4.28575e-05
0.000317587
4.78611e-05
0.000332893
5.51619e-05
0.000348559
5.96515e-05
0.000364356
6.35097e-05
0.00038032
6.73584e-05
0.000396611
7.06988e-05
0.000413236
7.35008e-05
0.000430146
7.59107e-05
0.000447302
7.79438e-05
0.000464664
7.95663e-05
0.000482171
8.07472e-05
0.000499741
8.14325e-05
0.000517271
8.1552e-05
0.000534662
8.10698e-05
0.000551105
7.66393e-05
0.000566422
7.11704e-05
0.000580652
6.571e-05
0.000593821
6.0216e-05
0.000605953
5.47115e-05
0.000617081
4.9266e-05
0.000627242
4.39416e-05
0.000636473
3.8768e-05
0.000644806
3.37488e-05
0.000652271
2.88751e-05
0.00065889
2.41346e-05
0.000664683
1.95143e-05
0.000669669
1.5001e-05
0.000673863
1.05903e-05
0.000677283
6.28754e-06
0.000679948
2.09919e-06
0.000681875
-1.97538e-06
0.000683094
-5.91237e-06
0.000683615
-9.73516e-06
0.000683468
-1.34278e-05
0.000682678
-1.69807e-05
0.000681268
-2.04007e-05
0.000679259
-2.36938e-05
0.000676673
-2.68598e-05
0.000673532
-2.98963e-05
0.000669858
-3.28012e-05
0.000665672
-3.55721e-05
0.000660996
-3.82053e-05
0.000655851
-4.06961e-05
0.000650258
-4.30387e-05
0.000644241
-4.52263e-05
0.000637824
-4.72524e-05
0.000631032
-4.91149e-05
0.000623892
-5.08211e-05
0.000616429
-5.23947e-05
0.000608664
-5.38802e-05
0.000600606
-5.53451e-05
0.000592252
-5.68761e-05
0.000583581
-5.8569e-05
0.000574553
-6.05106e-05
0.000565115
-6.27566e-05
0.000555206
-6.53089e-05
0.000544768
-6.80986e-05
0.000533754
-7.09815e-05
0.000522135
-7.37464e-05
0.000509909
-7.61383e-05
0.000497097
-7.78896e-05
0.000483744
-7.87523e-05
0.000469916
-7.85254e-05
0.000455703
-7.70735e-05
0.000441217
-7.43385e-05
0.000426593
-7.03446e-05
0.000411986
-6.51985e-05
0.000397564
-5.9084e-05
0.000383496
-5.225e-05
0.000369941
-4.49905e-05
0.000357038
-3.76202e-05
0.000344891
-3.04472e-05
0.000333565
-2.37347e-05
0.000323093
-1.76847e-05
0.000313423
-1.23105e-05
0.000304578
-7.53727e-06
0.000296028
-2.67863e-06
3.62626e-06
0.000251798
3.82832e-05
0.000267991
2.66645e-05
0.000281861
3.39914e-05
0.000295501
4.15218e-05
0.000309433
4.57198e-05
0.00032339
4.95522e-05
0.000337519
5.32298e-05
0.00035196
5.62579e-05
0.000366692
5.87689e-05
0.00038167
6.09327e-05
0.000396868
6.27456e-05
0.000412256
6.41785e-05
0.000427787
6.52162e-05
0.000443398
6.5821e-05
0.000459011
6.59389e-05
0.00047454
6.55413e-05
0.000489254
6.19246e-05
0.00050298
5.74451e-05
0.000515738
5.29516e-05
0.000527542
4.84116e-05
0.000538408
4.38459e-05
0.000548359
3.93153e-05
0.000557425
3.48752e-05
0.00056564
3.05534e-05
0.000573034
2.63545e-05
0.000579637
2.2272e-05
0.000585475
1.82966e-05
0.000590571
1.44185e-05
0.000594946
1.06254e-05
0.000598621
6.91532e-06
0.000601614
3.29488e-06
0.000603944
-2.30621e-07
0.000605628
-3.65918e-06
0.000606692
-6.97633e-06
0.000607148
-1.01919e-05
0.00060702
-1.32995e-05
0.00060633
-1.62904e-05
0.000605097
-1.91675e-05
0.000603338
-2.19355e-05
0.000601073
-2.4594e-05
0.000598317
-2.71403e-05
0.000595087
-2.95714e-05
0.000591399
-3.1884e-05
0.000587267
-3.40737e-05
0.000582706
-3.6135e-05
0.000577729
-3.80615e-05
0.000572349
-3.98464e-05
0.00056658
-4.14835e-05
0.000560436
-4.2971e-05
0.000553931
-4.43161e-05
0.000547077
-4.55404e-05
0.000539881
-4.66842e-05
0.000532343
-4.78075e-05
0.000524454
-4.89865e-05
0.000516189
-5.03039e-05
0.000507511
-5.18329e-05
0.000498372
-5.36179e-05
0.000488718
-5.56546e-05
0.000478495
-5.78757e-05
0.000467661
-6.01472e-05
0.000456191
-6.22766e-05
0.000444087
-6.40346e-05
0.00043138
-6.5183e-05
0.000418134
-6.55059e-05
0.000404443
-6.48346e-05
0.000390435
-6.30652e-05
0.000376265
-6.01684e-05
0.000362111
-5.61909e-05
0.000348166
-5.1253e-05
0.000334621
-4.55393e-05
0.000321656
-3.92855e-05
0.000309426
-3.27596e-05
0.000298044
-2.6239e-05
0.000287587
-1.99893e-05
0.000278077
-1.42253e-05
0.000269516
-9.12363e-06
0.00026182
-4.61438e-06
0.000255038
-7.55479e-07
0.000248633
3.72644e-06
9.40881e-06
0.000223468
2.31975e-05
0.000238065
1.2068e-05
0.000250245
2.18105e-05
0.00026246
2.93075e-05
0.000274839
3.33406e-05
0.000287177
3.72144e-05
0.000299706
4.07001e-05
0.00031253
4.34339e-05
0.000325606
4.56933e-05
0.000338896
4.76424e-05
0.00035238
4.92613e-05
0.000366029
5.05295e-05
0.000379802
5.14436e-05
0.000393646
5.19771e-05
0.000407498
5.20872e-05
0.000421286
5.17526e-05
0.000434366
4.88447e-05
0.00044658
4.52313e-05
0.000457947
4.1585e-05
0.000468477
3.78811e-05
0.000478183
3.41405e-05
0.00048708
3.04174e-05
0.000495193
2.67622e-05
0.000502546
2.32005e-05
0.000509164
1.97367e-05
0.000515071
1.63654e-05
0.000520288
1.30797e-05
0.000524835
9.87158e-06
0.000528732
6.72811e-06
0.000531997
3.6505e-06
0.000534647
6.44681e-07
0.000536702
-2.28589e-06
0.000538179
-5.13656e-06
0.000539099
-7.89628e-06
0.000539475
-1.0568e-05
0.000539324
-1.31481e-05
0.000538662
-1.56288e-05
0.000537505
-1.80099e-05
0.000535863
-2.02939e-05
0.000533749
-2.24798e-05
0.000531172
-2.45637e-05
0.000528142
-2.65414e-05
0.000524666
-2.84082e-05
0.000520752
-3.0159e-05
0.000516404
-3.17875e-05
0.00051163
-3.32871e-05
0.000506434
-3.4651e-05
0.000500825
-3.5874e-05
0.000494809
-3.69553e-05
0.000488396
-3.79025e-05
0.000481592
-3.87367e-05
0.000474403
-3.94957e-05
0.00046683
-4.02342e-05
0.000458864
-4.10203e-05
0.000450486
-4.19265e-05
0.000441669
-4.30154e-05
0.000432373
-4.43223e-05
0.000422557
-4.58387e-05
0.000412182
-4.75005e-05
0.000401221
-4.91859e-05
0.000389668
-5.07235e-05
0.000377546
-5.19129e-05
0.000364913
-5.25502e-05
0.000351863
-5.24553e-05
0.000338523
-5.14948e-05
0.000325053
-4.95956e-05
0.000311637
-4.6752e-05
0.00029847
-4.30243e-05
0.000285751
-3.85335e-05
0.000273663
-3.34512e-05
0.000262364
-2.79866e-05
0.000251974
-2.23701e-05
0.00024257
-1.68343e-05
0.00023418
-1.15995e-05
0.000226787
-6.83238e-06
0.000220357
-2.69367e-06
0.000214775
9.67054e-07
0.000210105
3.91449e-06
0.000205884
7.94757e-06
1.29932e-05
0.00019856
8.56662e-06
0.000211521
-8.92926e-07