/*--------------------------------*- C++ -*----------------------------------*\
| =========                 |                                                 |
| \\      /  F ield         | OpenFOAM: The Open Source CFD Toolbox           |
|  \\    /   O peration     | Version:  v1912                                 |
|   \\  /    A nd           | Website:  www.openfoam.com                      |
|    \\/     M anipulation  |                                                 |
\*---------------------------------------------------------------------------*/
FoamFile
{
    version     2.0;
    format      ascii;
    class       volVectorField;
    location    "825";
    object      U;
}
// * * * * * * * * * * * * * * * * * * * * * * * * * * * * * * * * * * * * * //

dimensions      [0 1 -1 0 0 0 0];


internalField   nonuniform List<vector> 
2000
(
(0.84616 0.187394 0)
(0.515133 0.124089 0)
(0.223448 0.0684415 0)
(0.0598068 0.0174443 6.19506e-20)
(-0.00455617 -0.0232232 1.20725e-17)
(-0.0642033 -0.0384872 1.04274e-17)
(-0.0776009 -0.0372471 0)
(-0.0715949 -0.016659 0)
(-0.0590606 0.0117118 0)
(-0.0421582 0.0254666 2.36784e-17)
(-0.0415843 0.0109779 -1.45068e-17)
(-0.0273671 -0.000621341 -1.36246e-17)
(-0.0163177 -0.00266718 0)
(-0.0200718 -0.0026404 0)
(-0.0219066 -0.00227 -1.08236e-17)
(-0.0168728 0.000848211 0)
(-0.0105733 0.00349393 9.7433e-18)
(-0.00962166 0.00623757 3.09757e-21)
(-0.0106296 0.00612801 9.41884e-18)
(-0.0113955 0.00488858 -4.64882e-18)
(-0.0112569 0.00278228 9.19092e-18)
(-0.0100648 0.000804688 0)
(-0.00791344 -0.000198964 0)
(-0.00539525 -0.000629251 -6.7906e-23)
(-0.00310168 -0.000794109 0)
(-0.00127574 -0.000812796 -4.51876e-18)
(-5.40271e-05 -0.000749639 0)
(0.000642047 -0.000669133 4.528e-18)
(0.00103941 -0.000654986 0)
(0.00132869 -0.000661325 0)
(0.00160428 -0.000587297 0)
(0.00188166 -0.000476628 1.14994e-18)
(0.00214478 -0.000387256 0)
(0.00238252 -0.000348263 -5.83655e-19)
(0.00258167 -0.000347421 1.94791e-14)
(0.00271711 -0.000363238 1.94656e-14)
(0.00278147 -0.000398302 6.0193e-19)
(0.00271905 -0.000490958 -6.0943e-19)
(0.0025318 -0.000631689 0)
(0.00221892 -0.0007887 2.50692e-18)
(0.00176042 -0.000938782 0)
(0.00112232 -0.00106927 -2.5895e-18)
(0.000263069 -0.00116721 0)
(-0.000873966 -0.00121615 -5.36033e-18)
(-0.00233959 -0.00123605 2.72351e-18)
(-0.00417293 -0.00131528 0)
(-0.00646101 -0.00150034 0)
(-0.00936251 -0.00170174 -2.858e-18)
(-0.0132002 -0.00161054 0)
(-0.0185892 -0.000635428 2.93533e-18)
(-0.02651 0.00192163 0)
(-0.0382478 0.00635203 5.91583e-18)
(-0.0551894 0.0121053 -5.86417e-18)
(-0.0784734 0.01779 5.7417e-18)
(-0.108448 0.0215163 -2.74139e-18)
(-0.14421 0.0214211 0)
(-0.183651 0.0162898 2.32916e-18)
(-0.223838 0.0059778 -2.07242e-18)
(-0.261027 -0.00846963 -4.07789e-18)
(-0.29038 -0.0248225 3.30163e-18)
(-0.307024 -0.0398375 -3.2583e-18)
(-0.309432 -0.0503105 3.48645e-18)
(-0.302977 -0.0563193 -3.97986e-18)
(-0.287896 -0.0592135 4.78822e-18)
(-0.265315 -0.0600257 -1.12292e-20)
(-0.236086 -0.0594899 7.18533e-18)
(-0.200637 -0.0578093 0)
(-0.159148 -0.0549749 0)
(-0.111887 -0.0509783 7.53994e-20)
(-0.0595946 -0.0458622 0)
(-0.00353328 -0.0395634 1.99101e-17)
(0.0561058 -0.0317458 0)
(0.119598 -0.0222642 1.98815e-17)
(0.186466 -0.0112743 -4.87531e-19)
(0.255973 0.000983622 1.71616e-17)
(0.329436 0.0142096 2.98561e-17)
(0.403365 0.0280303 7.33907e-19)
(0.490959 0.0419921 -1.01451e-17)
(0.556837 0.0544456 -6.52826e-18)
(0.713397 0.0651475 0)
(1.0153 0.210384 0)
(0.944633 0.194211 0)
(0.804475 0.179983 -3.5299e-18)
(0.654422 0.152313 7.29033e-18)
(0.509224 0.111169 0)
(0.360042 0.0683704 -7.29171e-18)
(0.216493 0.0293252 0)
(0.0821323 -0.00530894 0)
(-0.0282879 -0.01804 0)
(-0.0562034 -0.0189155 -1.73162e-17)
(-0.0667324 -0.0249882 1.57531e-17)
(-0.0718834 -0.0159766 1.44497e-17)
(-0.0637615 0.00640375 0)
(-0.0508837 0.0207203 6.32552e-18)
(-0.0545099 0.00998924 0)
(-0.0483044 -0.00293948 0)
(-0.0376348 -0.00402732 0)
(-0.0329315 -0.00109729 5.27216e-18)
(-0.0367022 0.000899098 -1.03406e-17)
(-0.0388886 0.000900827 -5.09351e-18)
(-0.0395824 7.07834e-05 0)
(-0.0384902 -0.00112649 0)
(-0.0357718 -0.00235132 0)
(-0.0325269 -0.00294068 -7.41634e-18)
(-0.0293652 -0.00274023 0)
(-0.0265528 -0.00194083 4.953e-18)
(-0.0243335 -0.000878325 2.48396e-18)
(-0.0228751 1.87702e-06 0)
(-0.0222423 0.000373327 0)
(-0.0223004 0.00040423 0)
(-0.0228705 0.000227121 0)
(-0.0237238 3.57794e-05 -6.32987e-19)
(-0.0246893 -0.00012174 0)
(-0.0257075 -0.000213526 3.20396e-19)
(-0.0267982 -0.000201961 1.61416e-19)
(-0.0280309 -6.97372e-05 0)
(-0.0294481 0.000165474 0)
(-0.0310763 0.000471543 6.63072e-19)
(-0.0329771 0.000828763 0)
(-0.0351679 0.00123399 -1.35313e-18)
(-0.0376636 0.00169343 0)
(-0.0404698 0.00221905 -1.38294e-18)
(-0.0435928 0.00281948 0)
(-0.0470372 0.00348841 1.41411e-18)
(-0.050794 0.00421404 1.43148e-18)
(-0.0548361 0.00503589 0)
(-0.0591381 0.00613926 0)
(-0.063699 0.00789869 -2.97334e-18)
(-0.0685134 0.0108312 0)
(-0.0735498 0.0155369 1.45893e-20)
(-0.0788312 0.0225428 0)
(-0.0845609 0.0319717 0)
(-0.0910982 0.0431139 0)
(-0.0987532 0.0543209 0)
(-0.107253 0.0632588 6.02857e-18)
(-0.115065 0.0674657 0)
(-0.119756 0.0649604 -5.48059e-18)
(-0.119396 0.0548637 2.65154e-18)
(-0.112545 0.0381657 -2.30787e-18)
(-0.0952863 0.0176722 -4.87727e-18)
(-0.0634613 -0.00486848 5.025e-18)
(-0.0454355 -0.0308503 -5.5452e-18)
(-0.0201428 -0.051481 6.49482e-18)
(0.00777766 -0.0661485 0)
(0.0387434 -0.0764473 -1.29547e-17)
(0.0732262 -0.083834 -9.66908e-18)
(0.111995 -0.0890285 0)
(0.155229 -0.0920353 5.74416e-18)
(0.20256 -0.0925671 1.25687e-17)
(0.253403 -0.0904203 0)
(0.307104 -0.0855068 0)
(0.363088 -0.0778093 0)
(0.420887 -0.0674673 0)
(0.480244 -0.0548153 -1.36154e-17)
(0.540912 -0.0403864 5.93492e-18)
(0.603749 -0.0248403 -1.17647e-17)
(0.667178 -0.00911012 1.01565e-17)
(0.738984 0.00577205 -3.46653e-18)
(0.795918 0.0173713 0)
(0.911644 0.0228405 0)
(0.978489 0.201538 0)
(0.978854 0.193006 -2.78673e-18)
(0.969154 0.205111 3.48236e-18)
(0.939083 0.208532 -3.06135e-18)
(0.878034 0.194606 2.88594e-18)
(0.785605 0.168719 2.84401e-18)
(0.669349 0.138081 0)
(0.541012 0.106021 0)
(0.40822 0.0750633 0)
(0.285943 0.0459344 6.86881e-18)
(0.173879 0.0180211 0)
(0.0721776 -0.00640547 0)
(-0.0214749 -0.0141535 0)
(-0.0469109 -0.0038561 -7.18676e-18)
(-0.0508322 -0.0116811 0)
(-0.0586947 -0.0181542 -6.05304e-18)
(-0.0592962 -0.0112551 0)
(-0.048114 0.0090619 5.87803e-18)
(-0.0464827 0.0164822 2.8737e-18)
(-0.050906 0.0125869 0)
(-0.0532636 0.00614857 -2.79068e-18)
(-0.0550515 -0.000292638 0)
(-0.0556683 -0.00469779 0)
(-0.054768 -0.00653157 5.43767e-18)
(-0.0532179 -0.00660782 0)
(-0.05204 -0.00572661 1.35858e-18)
(-0.0518406 -0.00421967 -4.07843e-18)
(-0.0526359 -0.00222945 0)
(-0.0539961 -0.000217244 0)
(-0.0554722 0.00124512 -6.81756e-19)
(-0.0570734 0.00219113 0)
(-0.0587809 0.0027101 1.30527e-22)
(-0.0605181 0.00294714 0)
(-0.0622407 0.00306691 6.91039e-19)
(-0.0639563 0.00323247 8.69285e-20)
(-0.0657394 0.00349975 0)
(-0.0676501 0.0038559 1.76425e-19)
(-0.0697044 0.00426172 -3.55767e-19)
(-0.0718849 0.00470934 -3.58942e-19)
(-0.0741603 0.00519998 -7.24787e-19)
(-0.0764922 0.0057376 7.32291e-19)
(-0.0788411 0.00632915 7.39917e-19)
(-0.0811751 0.00697646 0)
(-0.0834533 0.00766053 1.51717e-18)
(-0.0855664 0.00835199 -3.0774e-18)
(-0.0872575 0.00907158 0)
(-0.0881154 0.009998 -1.59253e-18)
(-0.0876699 0.0115253 3.24777e-18)
(-0.0853924 0.014132 0)
(-0.0806308 0.0184005 -1.69871e-18)
(-0.0726831 0.0248177 1.78299e-18)
(-0.0610446 0.033639 -1.84932e-18)
(-0.0453563 0.043961 -1.91723e-18)
(-0.0255792 0.0542303 0)
(-0.00192159 0.0622217 -3.94242e-18)
(0.0256665 0.0654046 -1.8848e-18)
(0.0570952 0.0614912 1.63574e-18)
(0.0905467 0.0496468 1.52987e-18)
(0.124449 0.0288967 2.56586e-18)
(0.156232 0.00205292 0)
(0.186346 -0.0243577 0)
(0.214037 -0.0463771 0)
(0.242252 -0.0646946 -1.31383e-18)
(0.273924 -0.0804128 0)
(0.309977 -0.0940651 3.22568e-18)
(0.349856 -0.105611 0)
(0.392625 -0.114707 -1.99114e-18)
(0.437406 -0.120901 -4.47083e-18)
(0.483406 -0.123785 0)
(0.529959 -0.12313 -2.47774e-18)
(0.576586 -0.118945 2.58134e-18)
(0.62303 -0.111498 0)
(0.669241 -0.101304 0)
(0.715406 -0.0890518 0)
(0.761766 -0.0755715 -5.4092e-18)
(0.809195 -0.0617756 0)
(0.856987 -0.0488435 -1.88482e-18)
(0.910087 -0.0378759 3.36799e-18)
(0.95299 -0.0312478 0)
(1.03534 -0.0303441 3.93187e-19)
(0.970611 0.209117 0)
(0.963917 0.194765 1.52565e-18)
(0.96643 0.198514 0)
(0.977152 0.206407 1.69485e-18)
(0.982034 0.208884 -3.00486e-18)
(0.968293 0.204266 -1.34135e-18)
(0.930748 0.193726 0)
(0.870757 0.177878 0)
(0.79113 0.156581 0)
(0.695411 0.131331 1.35133e-18)
(0.58948 0.10541 1.38311e-18)
(0.48005 0.0807 0)
(0.369265 0.0579965 0)
(0.266647 0.0376065 0)
(0.17965 0.0185394 0)
(0.100392 0.00267243 6.4022e-18)
(0.0300556 -0.00993282 -3.38803e-18)
(-0.0310549 -0.00938027 0)
(-0.0328209 0.00100993 -3.28352e-18)
(-0.0347028 0.00245973 1.6188e-18)
(-0.0346425 0.00136308 3.21175e-18)
(-0.0358985 -0.00129699 0)
(-0.0391067 -0.0039772 0)
(-0.0434888 -0.00523446 -3.12078e-18)
(-0.0472022 -0.0043549 0)
(-0.0494987 -0.00165851 -1.54421e-18)
(-0.0511795 0.00173236 1.54375e-18)
(-0.0536875 0.00424778 0)
(-0.0558297 0.0054209 0)
(-0.0580837 0.00596644 7.67095e-19)
(-0.0600358 0.00603249 0)
(-0.0616686 0.00576085 -7.70156e-19)
(-0.0629325 0.00531766 0)
(-0.0638115 0.00487688 -1.94824e-19)
(-0.0644345 0.00467594 -9.81501e-20)
(-0.0648916 0.00479816 -2.47612e-20)
(-0.0652016 0.00519218 -3.00016e-19)
(-0.0652652 0.00578397 4.04363e-19)
(-0.0649988 0.00646685 4.09366e-19)
(-0.0643308 0.0071758 1.2453e-18)
(-0.0631759 0.00788817 -4.213e-19)
(-0.0614442 0.00859119 4.28597e-19)
(-0.0590725 0.00925813 0)
(-0.0560082 0.00981678 8.92496e-19)
(-0.0521412 0.0100959 9.13986e-19)
(-0.0471724 0.00980175 0)
(-0.0406333 0.00856717 1.93764e-18)
(-0.0326231 0.00633536 1.00119e-18)
(-0.0224238 0.00383659 0)
(-0.00981034 0.00168227 -3.26757e-18)
(0.00667476 0.000444018 -2.2355e-18)
(0.0280782 0.000706372 1.10833e-18)
(0.0543122 0.00228616 2.17049e-18)
(0.0859782 0.00429366 0)
(0.123093 0.00519032 9.81604e-19)
(0.164807 0.00317396 2.68254e-18)
(0.209833 -0.00331177 1.58549e-18)
(0.256077 -0.0147665 -1.38912e-18)
(0.303026 -0.0300418 -6.41826e-19)
(0.348945 -0.0475213 0)
(0.393319 -0.0664136 0)
(0.436133 -0.0854127 0)
(0.478247 -0.103439 1.71542e-18)
(0.520455 -0.119851 6.46989e-19)
(0.562687 -0.134165 0)
(0.604289 -0.14584 -1.56845e-18)
(0.64456 -0.154325 1.74469e-18)
(0.683011 -0.159197 -1.87827e-18)
(0.719396 -0.160251 -2.0258e-18)
(0.753706 -0.157541 1.27173e-19)
(0.786156 -0.151372 -2.42317e-18)
(0.817162 -0.142272 0)
(0.847278 -0.130927 0)
(0.877171 -0.118121 0)
(0.907447 -0.104707 0)
(0.939011 -0.0915584 0)
(0.971529 -0.0797216 3.67687e-18)
(1.00834 -0.0700371 -1.34552e-18)
(1.03858 -0.0644291 0)
(1.0958 -0.0627274 -4.23909e-19)
(0.972988 0.216082 0)
(0.965831 0.201808 1.87148e-18)
(0.959206 0.1956 2.49317e-19)
(0.961489 0.195546 1.90786e-18)
(0.972668 0.197536 0)
(0.985519 0.199235 -1.60802e-18)
(0.992497 0.199295 0)
(0.988452 0.196253 -3.62659e-19)
(0.970218 0.189033 0)
(0.935631 0.177562 -1.60636e-18)
(0.884731 0.162749 -1.24342e-18)
(0.819618 0.145667 -3.15549e-19)
(0.743324 0.126729 3.13237e-19)
(0.658087 0.106111 0)
(0.569157 0.0852834 3.13294e-19)
(0.47934 0.0662429 0)
(0.393492 0.0502678 2.65529e-18)
(0.3141 0.0363411 -3.51448e-19)
(0.247074 0.0242754 0)
(0.192397 0.0147263 -1.90017e-18)
(0.147776 0.0079248 0)
(0.110713 0.00341098 0)
(0.0798805 0.000824086 0)
(0.0539897 -0.000615407 0)
(0.0324752 -0.00158291 -2.21764e-19)
(0.0157015 -0.0020266 0)
(0.00281407 -0.00138693 0)
(-0.00264115 0.000684682 1.15633e-19)
(-0.00512724 0.0021036 0)
(-0.00517626 0.00309043 0)
(-0.00384768 0.00364924 0)
(-0.00159157 0.0039016 -5.87676e-20)
(0.000999167 0.00396858 0)
(0.0044639 0.00377135 -2.68024e-19)
(0.00749851 0.00426224 0)
(0.0111611 0.00512576 3.01259e-20)
(0.015571 0.00568238 1.51405e-19)
(0.0208933 0.00566114 3.03989e-20)
(0.0273066 0.00532209 -6.10004e-20)
(0.0348865 0.00479373 -4.89303e-19)
(0.0438032 0.00405863 -4.89868e-19)
(0.0542763 0.00308401 4.89718e-19)
(0.0665035 0.00184981 -1.22148e-19)
(0.0806749 0.000330081 -9.73339e-19)
(0.0969973 -0.00152558 9.67205e-19)
(0.115452 -0.00377276 -1.19953e-19)
(0.136251 -0.00650068 0)
(0.158869 -0.00977591 -9.4075e-19)
(0.183452 -0.0135516 0)
(0.210077 -0.0176781 9.20425e-19)
(0.23876 -0.0218208 0)
(0.269722 -0.0258619 8.98003e-19)
(0.303288 -0.0297798 0)
(0.339818 -0.0337928 -2.12165e-19)
(0.379533 -0.0384206 -8.05552e-19)
(0.422308 -0.0444029 -7.46968e-19)
(0.467547 -0.0524935 1.73473e-19)
(0.514177 -0.0632244 0)
(0.560781 -0.0768834 5.42862e-19)
(0.605932 -0.0929269 -1.37122e-19)
(0.648765 -0.110352 0)
(0.688874 -0.127792 1.37047e-19)
(0.726136 -0.143986 -5.34555e-19)
(0.760485 -0.158081 -5.90639e-19)
(0.791748 -0.169508 0)
(0.819717 -0.177827 1.48104e-18)
(0.844328 -0.182718 0)
(0.865762 -0.184045 1.83656e-18)
(0.884442 -0.181893 2.01437e-18)
(0.900981 -0.176555 2.17869e-18)
(0.916127 -0.168494 2.71115e-19)
(0.930695 -0.158308 0)
(0.945503 -0.146673 0)
(0.961336 -0.134305 0)
(0.978804 -0.121937 -2.69752e-19)
(0.99865 -0.110292 0)
(1.0205 -0.100171 -1.67487e-18)
(1.04685 -0.0922205 1.64932e-18)
(1.06885 -0.0876625 1.03972e-19)
(1.11246 -0.0864319 4.50827e-20)
(0.974194 0.218514 -1.23279e-18)
(0.970935 0.206364 1.19319e-18)
(0.965119 0.198172 -2.82123e-19)
(0.961139 0.194112 0)
(0.962197 0.191942 0)
(0.96826 0.190544 0)
(0.977772 0.189885 0)
(0.988502 0.189481 1.25283e-18)
(0.997432 0.188308 0)
(1.00093 0.185358 -1.12008e-18)
(0.995773 0.179955 -1.39627e-18)
(0.979839 0.171905 3.2014e-19)
(0.952675 0.161434 9.6718e-19)
(0.914336 0.148646 0)
(0.865647 0.133742 -1.47611e-18)
(0.80825 0.117845 0)
(0.746069 0.102471 -1.18005e-18)
(0.683644 0.0879748 2.95149e-19)
(0.622836 0.0743863 -1.23461e-18)
(0.565748 0.062113 -9.50723e-19)
(0.513196 0.051354 0)
(0.465534 0.0420958 0)
(0.422937 0.0342197 -6.834e-19)
(0.38536 0.0276183 0)
(0.352666 0.0221571 -5.42614e-19)
(0.324647 0.0176579 0)
(0.300898 0.0138537 0)
(0.281195 0.0104783 -9.56279e-20)
(0.265392 0.00756601 0)
(0.253151 0.00512003 0)
(0.244118 0.00307145 0)
(0.238012 0.00134143 5.0548e-20)
(0.234517 -0.000143156 2.04905e-19)
(0.233676 -0.00137181 1.2911e-19)
(0.23526 -0.00280085 0)
(0.239363 -0.00439726 0)
(0.24594 -0.00603811 -2.59747e-20)
(0.254862 -0.00775792 -1.30106e-19)
(0.26608 -0.00965102 5.16913e-20)
(0.27951 -0.0117865 0)
(0.295063 -0.0142093 0)
(0.312658 -0.0169528 -2.04006e-19)
(0.332217 -0.0200444 1.00443e-19)
(0.353655 -0.0235156 -4.00788e-19)
(0.376868 -0.0274069 3.96713e-19)
(0.401705 -0.0317617 9.70995e-20)
(0.427969 -0.036594 0)
(0.455429 -0.0417859 3.85084e-19)
(0.483919 -0.0472093 0)
(0.513302 -0.0527185 0)
(0.543482 -0.0581544 0)
(0.574459 -0.0634236 0)
(0.606315 -0.0685647 0)
(0.639139 -0.0738105 1.78243e-19)
(0.672924 -0.079598 0)
(0.707458 -0.0864912 6.69677e-19)
(0.742245 -0.0950303 -1.52485e-19)
(0.776515 -0.10554 0)
(0.809325 -0.117951 5.79685e-19)
(0.83975 -0.131662 1.2763e-19)
(0.867065 -0.14576 5.66703e-19)
(0.890812 -0.159247 -1.32321e-19)
(0.9108 -0.171244 0)
(0.927063 -0.181106 -6.62767e-19)
(0.93979 -0.188412 0)
(0.949298 -0.192895 0)
(0.95606 -0.194437 -8.54665e-19)
(0.960712 -0.193082 0)
(0.96402 -0.189033 0)
(0.966819 -0.182636 -1.06493e-18)
(0.969945 -0.17434 -2.95932e-19)
(0.974184 -0.164666 0)
(0.980223 -0.154169 0)
(0.988651 -0.143419 0)
(0.999851 -0.132981 3.01398e-19)
(1.0143 -0.123404 -1.03035e-18)
(1.03145 -0.115266 -2.40091e-19)
(1.05338 -0.109039 -1.88497e-19)
(1.07193 -0.105441 -1.17756e-19)
(1.11033 -0.104586 -2.40623e-19)
(0.974501 0.21901 4.35616e-18)
(0.973757 0.208036 -4.18281e-18)
(0.971714 0.200425 0)
(0.969159 0.196211 -2.53775e-18)
(0.967053 0.192937 0)
(0.966166 0.189312 -2.23768e-18)
(0.967419 0.185818 0)
(0.971669 0.183008 2.97988e-18)
(0.978978 0.18073 -3.69994e-18)
(0.988283 0.178484 1.68942e-18)
(0.99769 0.175773 1.57944e-18)
(1.00497 0.172151 0)
(1.00811 0.167266 -4.27237e-18)
(1.00544 0.1607 -2.72122e-18)
(0.995587 0.15211 3.82488e-18)
(0.977795 0.141797 0)
(0.953045 0.130626 1.17158e-18)
(0.923753 0.119347 0)
(0.891693 0.108147 1.16807e-18)
(0.858157 0.0970053 1.16778e-18)
(0.824182 0.086132 0)
(0.790759 0.075805 0)
(0.758769 0.0662289 -6.39537e-19)
(0.728884 0.0575094 0)
(0.701549 0.0496294 6.21107e-19)
(0.676999 0.0425035 0)
(0.655354 0.0360362 0)
(0.636646 0.0301398 0)
(0.620905 0.0247243 0)
(0.608068 0.019706 0)
(0.598055 0.0150074 0)
(0.590797 0.0105605 0)
(0.586215 0.00629589 1.77075e-19)
(0.584186 0.0021511 -8.59294e-20)
(0.584483 -0.00201807 4.40004e-20)
(0.587213 -0.00624497 0)
(0.592283 -0.0105123 0)
(0.599498 -0.0148329 8.62308e-20)
(0.60871 -0.0192537 -3.51976e-19)
(0.619782 -0.0238147 3.5147e-19)
(0.632566 -0.0285411 0)
(0.646902 -0.03345 8.71262e-19)
(0.66262 -0.0385543 -6.98947e-19)
(0.679544 -0.0438643 -3.57745e-19)
(0.697484 -0.049387 -3.38977e-19)
(0.716232 -0.0551177 0)
(0.735564 -0.0610222 0)
(0.755256 -0.0670192 -1.0351e-18)
(0.775119 -0.0730151 0)
(0.795006 -0.078916 0)
(0.814828 -0.0846411 0)
(0.834558 -0.0901663 7.04724e-19)
(0.854221 -0.0955721 1.40706e-18)
(0.873834 -0.101066 0)
(0.893347 -0.106965 0)
(0.912565 -0.11363 -6.48457e-19)
(0.931117 -0.121365 0)
(0.948462 -0.130287 1.29215e-18)
(0.963959 -0.140252 6.85931e-19)
(0.976995 -0.150831 0)
(0.987115 -0.161401 6.99487e-19)
(0.994115 -0.171283 1.33462e-18)
(0.998066 -0.179847 1.40646e-18)
(0.999275 -0.186607 7.14588e-19)
(0.998212 -0.191252 -1.61736e-18)
(0.995455 -0.193627 1.74831e-18)
(0.991655 -0.19371 2.83585e-18)
(0.98752 -0.191595 0)
(0.98377 -0.18749 0)
(0.981097 -0.181687 1.19665e-18)
(0.980117 -0.174546 0)
(0.981355 -0.166468 2.5011e-18)
(0.985226 -0.157881 2.53346e-18)
(0.992061 -0.149223 0)
(1.00202 -0.140936 2.40282e-18)
(1.0154 -0.133447 -1.04117e-18)
(1.03155 -0.127193 0)
(1.05238 -0.122517 0)
(1.07003 -0.119863 0)
(1.10691 -0.119425 -1.93029e-19)
(0.974733 0.218938 -3.35568e-18)
(0.975458 0.208201 3.21235e-18)
(0.976056 0.201058 -6.2388e-18)
(0.975936 0.197366 2.8702e-18)
(0.974875 0.19446 0)
(0.9732 0.190786 2.53074e-18)
(0.971487 0.186584 -4.84453e-18)
(0.970473 0.182339 -4.49159e-18)
(0.970994 0.17813 -7.92479e-20)
(0.973704 0.17395 0)
(0.978806 0.169868 0)
(0.985964 0.165856 3.59768e-18)
(0.994363 0.161685 3.29283e-18)
(1.00284 0.15694 -3.27859e-18)
(1.00995 0.151228 -8.90085e-18)
(1.01427 0.144451 0)
(1.01489 0.136908 0)
(1.01186 0.128902 0)
(1.00564 0.120422 0)
(0.996716 0.11145 0)
(0.985583 0.102194 0)
(0.972869 0.0929297 0)
(0.959259 0.0838689 1.24053e-18)
(0.945384 0.0751261 -2.58741e-18)
(0.931767 0.0667353 0)
(0.918816 0.0586964 0)
(0.906849 0.0510014 0)
(0.896108 0.0436209 0)
(0.886758 0.0364957 0)
(0.878898 0.0295834 -6.62456e-19)
(0.872592 0.0228572 0)
(0.867877 0.0162889 0)
(0.864757 0.00984366 1.26026e-20)
(0.863177 0.00345816 0)
(0.863044 -0.00273659 -4.10464e-20)
(0.864309 -0.00880179 0)
(0.866886 -0.0148241 1.70763e-19)
(0.870646 -0.0208352 0)
(0.875474 -0.0268508 6.72463e-19)
(0.881256 -0.0328854 -3.3054e-19)
(0.887871 -0.0389482 -6.88708e-19)
(0.895188 -0.0450422 -6.64861e-19)
(0.903067 -0.0511655 6.67419e-19)
(0.911369 -0.0573131 6.70499e-19)
(0.919948 -0.063476 1.4023e-18)
(0.928655 -0.0696361 1.41159e-18)
(0.937344 -0.0757593 0)
(0.94588 -0.0817904 -7.44572e-19)
(0.954164 -0.0876645 0)
(0.96214 -0.0933239 0)
(0.969797 -0.0987347 -1.48109e-18)
(0.977166 -0.103912 -7.23525e-19)
(0.984304 -0.108948 4.7874e-20)
(0.991249 -0.114015 0)
(0.997975 -0.119348 0)
(1.00435 -0.125199 0)
(1.01013 -0.131764 1.49172e-18)
(1.01495 -0.139112 -1.39775e-18)
(1.0184 -0.147129 -1.38758e-18)
(1.02014 -0.155513 0)
(1.01996 -0.163817 -1.42739e-18)
(1.01786 -0.171537 9.48806e-20)
(1.01406 -0.178207 -1.57658e-18)
(1.00894 -0.183469 1.75817e-18)
(1.00299 -0.187095 -4.72126e-20)
(0.996747 -0.18898 -1.981e-18)
(0.990756 -0.189111 -2.14508e-18)
(0.985553 -0.187557 0)
(0.981631 -0.184462 0)
(0.979426 -0.180034 0)
(0.979301 -0.174534 0)
(0.981547 -0.16827 -2.83836e-18)
(0.986389 -0.161584 -2.87327e-18)
(0.994014 -0.154837 0)
(1.0045 -0.148407 -2.72292e-18)
(1.01808 -0.142656 4.90777e-18)
(1.03416 -0.137939 0)
(1.0546 -0.134498 0)
(1.07188 -0.13265 0)
(1.10774 -0.132423 9.13224e-19)
(0.975035 0.218502 8.34272e-18)
(0.977127 0.207476 0)
(0.979623 0.200809 1.42796e-17)
(0.980942 0.19772 0)
(0.980747 0.195178 6.21562e-18)
(0.979838 0.19182 0)
(0.978655 0.187904 5.4746e-18)
(0.977181 0.183662 0)
(0.975604 0.178993 -5.03811e-18)
(0.974439 0.173897 0)
(0.97427 0.168549 8.88358e-18)
(0.975577 0.163112 -4.11236e-18)
(0.978659 0.157621 0)
(0.983537 0.151978 7.30982e-18)
(0.989866 0.146033 -1.87029e-19)
(0.996991 0.139703 -6.68392e-18)
(1.00405 0.133126 6.47802e-18)
(1.01036 0.12639 0)
(1.01554 0.119354 0)
(1.01936 0.111922 6.08823e-18)
(1.02166 0.104163 0)
(1.02251 0.0962155 -2.96185e-18)
(1.02211 0.0881974 0)
(1.02073 0.080184 2.80536e-18)
(1.01865 0.0722193 0)
(1.01612 0.0643312 2.89726e-18)
(1.01338 0.0565359 0)
(1.01063 0.0488325 0)
(1.008 0.0412108 1.44767e-18)
(1.00562 0.0336717 6.95814e-19)
(1.00357 0.0262231 0)
(1.00193 0.0188686 0)
(1.00072 0.0116096 -1.08769e-18)
(0.999972 0.0044465 0)
(0.999642 -0.00252932 0)
(0.999703 -0.00937477 0)
(1.00014 -0.0161533 -1.78044e-19)
(1.00091 -0.022877 0)
(1.00196 -0.0295394 -1.10541e-18)
(1.00323 -0.0361378 -7.50453e-19)
(1.00466 -0.0426703 7.24498e-19)
(1.0062 -0.0491318 0)
(1.00777 -0.0555149 0)
(1.00932 -0.0618103 1.54369e-18)
(1.01079 -0.0680068 -1.49843e-18)
(1.01211 -0.0740887 -1.51526e-18)
(1.01325 -0.0800312 0)
(1.01416 -0.0858004 -5.79797e-20)
(1.01484 -0.0913593 1.63533e-18)
(1.01532 -0.0966823 0)
(1.01566 -0.101769 1.62772e-18)
(1.01592 -0.106658 1.70259e-18)
(1.0162 -0.111441 -1.66856e-18)
(1.01654 -0.116263 0)
(1.01696 -0.121306 0)
(1.01736 -0.126755 0)
(1.01758 -0.132746 -1.67911e-18)
(1.01739 -0.139319 0)
(1.01652 -0.146384 0)
(1.01478 -0.153714 0)
(1.01205 -0.16098 3.65977e-18)
(1.0084 -0.167808 -1.80346e-18)
(1.00399 -0.173846 0)
(0.999153 -0.17881 -2.00527e-18)
(0.994234 -0.1825 -2.22766e-18)
(0.98962 -0.184798 4.62372e-18)
(0.985678 -0.185657 -4.89942e-18)
(0.982748 -0.185095 -5.18097e-18)
(0.98113 -0.183193 0)
(0.981082 -0.180097 -5.70283e-18)
(0.982825 -0.176012 0)
(0.986545 -0.171198 0)
(0.992406 -0.16596 0)
(1.00058 -0.160633 5.99065e-18)
(1.01116 -0.155568 -5.73629e-18)
(1.02446 -0.151098 -7.99749e-18)
(1.03995 -0.147524 0)
(1.05951 -0.145013 3.60637e-18)
(1.07605 -0.143774 0)
(1.11036 -0.143618 -1.50349e-18)
(0.975434 0.21769 -9.4632e-18)
(0.979143 0.20609 -9.21159e-18)
(0.983423 0.200245 -1.64462e-17)
(0.98558 0.197996 0)
(0.985486 0.195678 -1.41328e-17)
(0.984786 0.192413 -6.7327e-18)
(0.9842 0.188726 0)
(0.983452 0.184719 1.19994e-17)
(0.982353 0.180193 1.12015e-17)
(0.981033 0.175095 0)
(0.979702 0.169516 -1.00468e-17)
(0.978603 0.163553 0)
(0.97805 0.15727 0)
(0.978376 0.150691 8.71139e-18)
(0.979804 0.14382 8.07411e-18)
(0.982396 0.13669 -1.82318e-19)
(0.986006 0.129512 1.84344e-19)
(0.990362 0.12244 0)
(0.995174 0.115376 0)
(1.0001 0.108199 -6.97623e-18)
(1.00479 0.100887 -7.06703e-18)
(1.00904 0.0934788 1.03576e-17)
(1.01274 0.0860184 3.4522e-18)
(1.01588 0.0785365 3.42395e-18)
(1.01848 0.0710505 0)
(1.02058 0.0635701 -3.27278e-18)
(1.02225 0.0560999 0)
(1.02353 0.0486406 0)
(1.02448 0.041193 -3.30657e-18)
(1.02514 0.0337646 0)
(1.02555 0.0263687 0)
(1.02573 0.0190198 0)
(1.02572 0.0117339 8.20469e-19)
(1.02555 0.00454264 -4.27799e-19)
(1.02528 -0.00253739 2.13757e-19)
(1.02489 -0.00950882 0)
(1.02443 -0.0163875 0)
(1.02389 -0.023177 0)
(1.02328 -0.0298717 8.34015e-19)
(1.02259 -0.0364674 8.38866e-19)
(1.02179 -0.0429611 -1.75027e-18)
(1.0209 -0.0493486 0)
(1.0199 -0.0556241 0)
(1.01879 -0.0617813 -3.53192e-18)
(1.01756 -0.0678127 -1.81509e-18)
(1.01623 -0.0737083 0)
(1.0148 -0.0794537 0)
(1.01329 -0.0850305 1.82623e-18)
(1.01173 -0.0904212 5.63305e-20)
(1.01019 -0.0956193 0)
(1.00873 -0.100639 0)
(1.00744 -0.105523 -1.93658e-18)
(1.00638 -0.110354 0)
(1.0056 -0.115249 0)
(1.0051 -0.120347 0)
(1.00481 -0.125785 0)
(1.0046 -0.131663 0)
(1.0043 -0.138006 -4.16145e-18)
(1.00373 -0.144744 0)
(1.00272 -0.151704 0)
(1.00119 -0.158634 1.67068e-19)
(0.99917 -0.165237 0)
(0.996776 -0.171219 0)
(0.994204 -0.176323 0)
(0.99169 -0.180348 9.99427e-18)
(0.989483 -0.183158 -5.23802e-18)
(0.987818 -0.184675 5.54259e-18)
(0.986911 -0.184883 1.4633e-20)
(0.986959 -0.183831 0)
(0.988141 -0.181634 6.43339e-18)
(0.99063 -0.178473 -6.55139e-18)
(0.994604 -0.174592 0)
(1.00025 -0.170289 0)
(1.00779 -0.165895 -1.45731e-19)
(1.0174 -0.161756 6.48529e-18)
(1.02946 -0.158194 5.97602e-18)
(1.0436 -0.155462 0)
(1.06173 -0.153685 -4.09363e-18)
(1.07713 -0.15289 0)
(1.10961 -0.152812 1.13321e-18)
(0.975986 0.216474 0)
(0.981692 0.204215 2.12198e-17)
(0.987769 0.199647 1.88265e-17)
(0.990441 0.198411 0)
(0.990122 0.196236 8.03164e-18)
(0.989271 0.192974 -7.77215e-18)
(0.988772 0.189389 0)
(0.988281 0.185463 -1.35682e-17)
(0.987611 0.180999 0)
(0.986852 0.175995 0)
(0.98604 0.170512 0)
(0.985145 0.164577 0)
(0.984206 0.1582 0)
(0.983343 0.151386 1.82805e-19)
(0.982702 0.144142 -9.53099e-18)
(0.982426 0.13652 -1.82177e-19)
(0.98266 0.128776 1.83589e-19)
(0.9835 0.121146 0)
(0.984945 0.113609 0)
(0.986875 0.106092 0)
(0.989103 0.0985723 -2.02549e-19)
(0.991463 0.0910736 2.06468e-19)
(0.993842 0.0836207 -3.95325e-18)
(0.996166 0.0762238 -3.92207e-18)
(0.998381 0.0688797 0)
(1.00044 0.0615793 -3.98652e-18)
(1.00231 0.0543132 3.97398e-18)
(1.00397 0.0470732 0)
(1.00538 0.0398541 1.92566e-18)
(1.00654 0.0326569 1.98382e-18)
(1.00744 0.0254902 0)
(1.00807 0.0183681 0)
(1.00845 0.0113045 1.00247e-18)
(1.00859 0.00433664 -1.48557e-20)
(1.00855 -0.00256923 -4.94913e-19)
(1.00835 -0.00938504 0)
(1.008 -0.0161046 0)
(1.00754 -0.0227348 -1.01145e-18)
(1.00698 -0.0292769 0)
(1.00631 -0.0357284 -1.02145e-18)
(1.00555 -0.0420863 -5.90189e-20)
(1.00471 -0.0483475 0)
(1.0038 -0.0545078 2.08887e-18)
(1.00285 -0.0605625 4.15814e-18)
(1.00186 -0.0665061 2.07162e-18)
(1.00085 -0.0723317 0)
(0.999838 -0.0780297 -4.35685e-18)
(0.998858 -0.0835892 0)
(0.997943 -0.0890014 -2.17851e-18)
(0.99714 -0.0942667 0)
(0.996507 -0.0994023 0)
(0.996098 -0.104449 0)
(0.995963 -0.109476 0)
(0.996126 -0.114577 0)
(0.996574 -0.119863 -4.77576e-18)
(0.997247 -0.125441 4.80769e-18)
(0.998038 -0.131386 0)
(0.998807 -0.137717 4.72242e-18)
(0.999401 -0.144374 -4.91479e-18)
(0.99969 -0.151217 0)
(0.999594 -0.158035 -4.91237e-18)
(0.999103 -0.164574 0)
(0.998273 -0.17057 0)
(0.997216 -0.175782 0)
(0.996074 -0.180007 -5.68818e-18)
(0.994997 -0.183097 6.03018e-18)
(0.994136 -0.184957 -6.29982e-18)
(0.993639 -0.185552 1.31578e-17)
(0.993658 -0.184915 -6.84881e-18)
(0.994362 -0.183152 0)
(0.995943 -0.180444 7.39786e-18)
(0.998632 -0.177042 -7.44921e-18)
(1.00269 -0.173252 0)
(1.00844 -0.16942 -1.16921e-19)
(1.01615 -0.165893 -7.10624e-18)
(1.02631 -0.162994 0)
(1.03866 -0.160926 0)
(1.05517 -0.159815 -4.56852e-18)
(1.06938 -0.159373 0)
(1.10047 -0.15956 -1.28542e-18)
(0.976761 0.214804 0)
(0.984936 0.20201 -1.22253e-17)
(0.992771 0.199204 -1.07063e-17)
(0.995649 0.198991 0)
(0.994983 0.196871 1.84311e-17)
(0.993957 0.193635 1.74048e-17)
(0.993389 0.19014 0)
(0.992829 0.186205 1.56691e-17)
(0.992161 0.181685 -1.48795e-17)
(0.99156 0.176662 0)
(0.991075 0.171202 0)
(0.990636 0.165313 0)
(0.990183 0.158988 0)
(0.989696 0.15221 -1.1325e-17)
(0.989165 0.144966 -1.11292e-17)
(0.988598 0.137281 1.02298e-17)
(0.988069 0.12939 -3.02821e-17)
(0.9877 0.12154 0)
(0.987572 0.113753 0)
(0.98769 0.10599 9.70416e-18)
(0.988003 0.0982519 1.89793e-17)
(0.988459 0.0905695 -9.29282e-18)
(0.989025 0.0829722 0)
(0.989683 0.0754708 0)
(0.990409 0.0680613 -4.66002e-18)
(0.991176 0.0607332 9.18056e-18)
(0.991955 0.0534748 -9.15781e-18)
(0.992715 0.0462752 0)
(0.993429 0.0391255 0)
(0.99407 0.032022 -2.26079e-18)
(0.994618 0.0249685 0)
(0.99506 0.0179724 2.33114e-18)
(0.995387 0.0110471 -1.14237e-18)
(0.995623 0.00419011 -1.44934e-20)
(0.995776 -0.00260964 -7.26823e-21)
(0.995849 -0.0093284 0)
(0.995857 -0.0159592 0)
(0.995815 -0.0225095 -2.90124e-20)
(0.995728 -0.0289823 1.1836e-18)
(0.995602 -0.0353751 3.54011e-18)
(0.995444 -0.0416847 4.7299e-18)
(0.995264 -0.0479085 2.41069e-18)
(0.99507 -0.0540433 -2.37186e-18)
(0.994874 -0.0600854 -2.39311e-18)
(0.994685 -0.0660302 2.4739e-18)
(0.994517 -0.071872 0)
(0.994384 -0.077604 4.93957e-18)
(0.994306 -0.0832187 -5.11077e-18)
(0.994311 -0.0887113 0)
(0.99443 -0.0940852 0)
(0.994704 -0.0993579 0)
(0.995168 -0.104566 0)
(0.995853 -0.109769 0)
(0.996767 -0.115046 0)
(0.997891 -0.120487 5.39282e-18)
(0.999167 -0.126177 -1.09808e-17)
(1.0005 -0.132176 -5.59425e-18)
(1.00177 -0.138494 5.63834e-18)
(1.00283 -0.145078 5.54181e-18)
(1.00356 -0.151801 -5.76816e-18)
(1.00387 -0.158477 5.86895e-18)
(1.0037 -0.164874 0)
(1.00305 -0.170747 6.16873e-18)
(1.00196 -0.17586 -6.37063e-18)
(1.00049 -0.180011 0)
(0.998724 -0.183041 -1.36672e-17)
(0.996774 -0.184851 7.11203e-18)
(0.994775 -0.185405 -1.4874e-17)
(0.992905 -0.184742 7.75434e-18)
(0.99139 -0.182985 0)
(0.990515 -0.180333 8.23564e-18)
(0.99062 -0.177062 8.48788e-18)
(0.992085 -0.1735 -8.46084e-18)
(0.995339 -0.170007 -8.46083e-18)
(1.00075 -0.166934 8.1488e-18)
(1.00891 -0.164605 0)
(1.01958 -0.163163 0)
(1.03489 -0.162786 5.25846e-18)
(1.04829 -0.16271 0)
(1.07928 -0.163526 1.48322e-18)
(0.977833 0.212617 1.62104e-17)
(0.988995 0.19965 0)
(0.998472 0.199058 -2.41023e-17)
(1.00125 0.199733 2.18361e-17)
(1.00018 0.19759 -2.08232e-17)
(0.99903 0.194434 1.9972e-17)
(0.998399 0.191033 0)
(0.997724 0.187058 1.60212e-19)
(0.996946 0.182455 1.67989e-17)
(0.996278 0.177367 0)
(0.995792 0.171857 0)
(0.995442 0.165931 0)
(0.995188 0.159586 2.7716e-17)
(0.995003 0.152813 0)
(0.994848 0.145595 2.46983e-17)
(0.994672 0.13794 0)
(0.994464 0.130056 4.61953e-17)
(0.994268 0.122182 0)
(0.994123 0.114345 0)
(0.994032 0.10652 -2.20883e-17)
(0.993975 0.0987124 -1.0818e-17)
(0.993935 0.0909552 0)
(0.993916 0.0832784 0)
(0.993935 0.0756966 0)
(0.994002 0.0682105 5.26183e-18)
(0.994119 0.0608141 -5.2447e-18)
(0.994284 0.0534992 -1.07977e-19)
(0.994486 0.0462569 0)
(0.994715 0.0390786 5.34056e-18)
(0.994956 0.0319604 0)
(0.995199 0.0249038 0)
(0.995434 0.0179126 -2.63493e-18)