/*--------------------------------*- C++ -*----------------------------------*\
| =========                 |                                                 |
| \\      /  F ield         | OpenFOAM: The Open Source CFD Toolbox           |
|  \\    /   O peration     | Version:  v1912                                 |
|   \\  /    A nd           | Website:  www.openfoam.com                      |
|    \\/     M anipulation  |                                                 |
\*---------------------------------------------------------------------------*/
FoamFile
{
    version     2.0;
    format      ascii;
    class       volScalarField;
    location    "200";
    object      nut;
}
// * * * * * * * * * * * * * * * * * * * * * * * * * * * * * * * * * * * * * //

dimensions      [0 2 -1 0 0 0 0];


internalField   nonuniform List<scalar> 
12441
(
5.82204e-24
1.79052e-20
8.10489e-20
3.32539e-19
1.06828e-18
3.88823e-18
1.01053e-17
2.50037e-17
6.1381e-17
1.27523e-16
3.05642e-16
7.72104e-16
2.17689e-15
7.4127e-15
1.03734e-13
1.89525e-11
0.000198116
0.00100067
0.003206
0.00269273
0.00364577
0.00775321
6.34214e-24
3.03351e-20
1.11732e-19
4.23949e-19
1.30209e-18
4.80724e-18
1.21982e-17
3.00088e-17
7.36075e-17
1.54447e-16
3.79793e-16
1.0302e-15
2.82253e-15
9.3873e-15
1.13157e-13
3.90071e-11
5.85544e-05
0.00121465
0.00366877
0.0029313
0.00400791
0.00781733
6.3649e-24
3.58957e-20
1.20779e-19
4.48133e-19
1.37773e-18
4.90669e-18
1.29287e-17
3.204e-17
8.05124e-17
1.71767e-16
4.17881e-16
1.1186e-15
2.77888e-15
7.67761e-15
5.35783e-14
6.57582e-12
1.11804e-05
0.00088957
0.00145829
0.00276444
0.00416065
0.0078909
6.31937e-24
3.7692e-20
1.18535e-19
4.29313e-19
1.32535e-18
4.71354e-18
1.25132e-17
3.1326e-17
7.84931e-17
1.7367e-16
4.23755e-16
1.15516e-15
2.60527e-15
8.48516e-15
3.85347e-14
1.54334e-12
1.63013e-06
0.000618569
0.00108556
0.00268465
0.00432311
0.0079647
6.28532e-24
4.38835e-20
1.2978e-19
4.58319e-19
1.40269e-18
4.77933e-18
1.30907e-17
3.27941e-17
8.42972e-17
1.87523e-16
4.54165e-16
1.28599e-15
3.01245e-15
4.07865e-14
2.47469e-13
2.29842e-12
1.39845e-07
0.000435211
0.00106268
0.00267029
0.00446383
0.00803394
6.23515e-24
4.12885e-20
1.2054e-19
4.29194e-19
1.34272e-18
4.62207e-18
1.27502e-17
3.23925e-17
8.28939e-17
1.92686e-16
4.7695e-16
1.44703e-15
4.52402e-15
1.33061e-12
1.19065e-11
5.10425e-11
4.59133e-07
0.000397224
0.00112484
0.00272719
0.00459169
0.00809948
6.20024e-24
5.02644e-20
1.37797e-19
4.75775e-19
1.46016e-18
4.79248e-18
1.35931e-17
3.44533e-17
9.07032e-17
2.11126e-16
5.20851e-16
2.00215e-15
2.49692e-14
4.15269e-11
6.5855e-10
9.37889e-09
1.87569e-05
0.000410113
0.00130751
0.00291601
0.00474046
0.00816218
6.15048e-24
4.34527e-20
1.23173e-19
4.40165e-19
1.40817e-18
4.72281e-18
1.35122e-17
3.48446e-17
9.13203e-17
2.2385e-16
5.72523e-16
5.44162e-15
6.08662e-13
2.25627e-09
8.42128e-08
4.97464e-06
0.000194125
0.00046391
0.0017644
0.00330593
0.00493751
0.00822577
6.11768e-24
5.57049e-20
1.46132e-19
4.99685e-19
1.55413e-18
4.9587e-18
1.46118e-17
3.75706e-17
1.02076e-16
2.50951e-16
6.45365e-16
6.14125e-14
2.58473e-11
7.43883e-08
1.04328e-05
0.000153136
0.000785285
0.000817281
0.002717
0.00397631
0.00521686
0.00829204
6.07084e-24
4.43502e-20
1.25437e-19
4.5664e-19
1.50755e-18
4.95366e-18
1.47475e-17
3.87252e-17
1.0488e-16
2.75127e-16
7.48644e-16
1.68371e-12
1.08122e-09
4.43914e-06
0.000189883
0.000601375
0.0016273
0.00152261
0.00445136
0.00500635
0.00559302
0.00836448
6.04165e-24
6.0261e-20
1.53437e-19
5.25917e-19
1.67274e-18
5.20602e-18
1.60252e-17
4.20349e-17
1.19298e-16
3.17379e-16
8.92106e-16
5.23602e-11
5.49038e-08
8.18413e-05
0.000703151
0.001618
0.00344542
0.00297059
0.00737214
0.00649215
0.00607921
0.00844366
5.99626e-24
4.46297e-20
1.27738e-19
4.76953e-19
1.63371e-18
5.28101e-18
1.64023e-17
4.40651e-17
1.25503e-16
3.6464e-16
1.15865e-15
1.45819e-09
3.2398e-06
0.000341696
0.00149702
0.00349058
0.00696001
0.00581681
0.0118857
0.0084707
0.006663
0.00853143
5.97063e-24
6.41505e-20
1.60453e-19
5.53822e-19
1.81499e-18
5.54201e-18
1.79087e-17
4.82225e-17
1.46709e-16
4.44743e-16
1.69462e-15
3.52543e-08
7.21338e-05
0.00103955
0.0035454
0.00744852
0.013507
0.0109565
0.0181178
0.0109158
0.0073332
0.00862633
5.92668e-24
4.43261e-20
1.29672e-19
4.99326e-19
1.78323e-18
5.692e-18
1.85326e-17
5.13842e-17
1.59857e-16
5.59174e-16
3.60151e-15
7.97189e-07
0.000339944
0.00258998
0.00758949
0.0144909
0.0242195
0.0191321
0.0257534
0.0136932
0.00805531
0.00872852
5.90428e-24
6.75169e-20
1.66658e-19
5.82635e-19
1.97803e-18
5.94025e-18
2.02694e-17
5.67834e-17
1.96063e-16
7.7874e-16
1.65177e-14
1.51758e-05
0.0010804
0.00589296
0.0146833
0.0254481
0.0395449
0.0303908
0.034035
0.0166392
0.00880743
0.00883515
5.86062e-24
4.39598e-20
1.32e-19
5.24821e-19
1.95784e-18
6.18567e-18
2.12025e-17
6.168e-17
2.28177e-16
1.21632e-15
3.02173e-13
0.000136353
0.0026043
0.0117727
0.0255771
0.0405183
0.0588346
0.0437203
0.0420527
0.0195507
0.00955122
0.00894576
5.8415e-24
7.05417e-20
1.73508e-19
6.15139e-19
2.17065e-18
6.4397e-18
2.33112e-17
6.93797e-17
3.08246e-16
2.30504e-15
1.26029e-11
0.000511537
0.00575832
0.0209048
0.0401749
0.0591285
0.0801646
0.0572484
0.0490193
0.0222894
0.0102711
0.00905718
5.79757e-24
4.35032e-20
1.34497e-19
5.53157e-19
2.16073e-18
6.77179e-18
2.4619e-17
7.72318e-17
4.08487e-16
5.44588e-15
5.48008e-10
0.0012788
0.0112328
0.0335331
0.0580159
0.079784
0.100655
0.0689112
0.0545496
0.024735
0.010939
0.00916919
5.78119e-24
7.32656e-20
1.80293e-19
6.49156e-19
2.38808e-18
7.01189e-18
2.71834e-17
8.90737e-17
6.61763e-16
1.69239e-14
4.40819e-08
0.00301765
0.0196733
0.049006
0.0776104
0.100353
0.117273
0.0773286
0.0586239
0.0268594
0.0115547
0.00927899
5.73668e-24
4.30545e-20
1.36876e-19
5.8243e-19
2.38697e-18
7.43846e-18
2.90084e-17
1.0232e-16
1.08049e-15
7.52756e-14
8.53396e-06
0.00622359
0.0310921
0.0664827
0.0974278
0.118413
0.127783
0.0822308
0.061531
0.0286371
0.0121041
0.00938714
5.72359e-24
7.57317e-20
1.86808e-19
6.83207e-19
2.62936e-18
7.67337e-18
3.23054e-17
1.22251e-16
2.19389e-15
7.80233e-13
0.000165195
0.0116183
0.0449211
0.0845159
0.115347
0.131985
0.131489
0.0843769
0.0636243
0.0301093
0.0126011
0.00949146
5.67826e-24
4.24357e-20
1.38577e-19
6.10959e-19
2.63525e-18
8.1937e-18
3.49415e-17
1.46471e-16
4.34045e-15
1.34066e-11
0.000632448
0.0195478
0.0601887
0.101969
0.129926
0.139942
0.129346
0.084948
0.0652494
0.0312925
0.0130433
0.00959327
5.66786e-24
7.80252e-20
1.92477e-19
7.15516e-19
2.89e-18
8.41871e-18
3.9435e-17
1.83591e-16
1.02764e-14
1.66108e-10
0.00161789
0.0298533
0.0757991
0.117453
0.13989
0.142363
0.123446
0.0849921
0.0666228
0.032251
0.0134563
0.00969106
5.62199e-24
4.19659e-20
1.39798e-19
6.3804e-19
2.90277e-18
9.03813e-18
4.35035e-17
2.31504e-16
2.24219e-14
1.55806e-09
0.0036023
0.0419988
0.0907606
0.130189
0.14517
0.140273
0.116096
0.0850932
0.0678865
0.0330177
0.0138478
0.00978684
5.61511e-24
8.02781e-20
1.97586e-19
7.45852e-19
3.17134e-18
9.26785e-18
5.02669e-17
3.06442e-16
5.64441e-14
1.37792e-08
0.00702892
0.0550741
0.104295
0.139491
0.146137
0.135295
0.109064
0.085433
0.0690872
0.0336702
0.0142517
0.00987966
5.56745e-24
4.17939e-20
1.40771e-19
6.63913e-19
3.19223e-18
9.99314e-18
5.71559e-17
4.08485e-16
1.30491e-13
3.1884e-07
0.0122247
0.0682664
0.11586
0.145417
0.143974
0.129024
0.103255
0.085949
0.0702484
0.0342545
0.0146821
0.00997203
5.56307e-24
8.2487e-20
2.02106e-19
7.74056e-19
3.47307e-18
1.02329e-17
6.84641e-17
5.73388e-16
3.92567e-13
1.8669e-05
0.019087
0.0807843
0.125153
0.148174
0.139762
0.12271
0.0988675
0.0865177
0.0713535
0.0348533
0.0151763
0.0100634
5.51428e-24
4.18616e-20
1.4123e-19
6.87573e-19
3.50178e-18
1.10697e-17
8.13346e-17
8.10447e-16
1.83009e-12
0.000209101
0.0273025
0.092145
0.132084
0.148465
0.134678
0.117064
0.0957041
0.0870248
0.072392
0.0355085
0.0157471
0.0101564
5.51327e-24
8.46789e-20
2.05807e-19
7.9926e-19
3.79645e-18
1.13449e-17
1.02519e-16
1.20446e-15
1.28023e-11
0.000688145
0.0362892
0.10198
0.136756
0.146887
0.12942
0.112373
0.093452
0.0874057
0.073335
0.036283
0.0164249
0.0102507
5.46223e-24
4.20367e-20
1.40975e-19
7.08471e-19
3.83392e-18
1.23057e-17
1.28838e-16
1.79588e-15
7.40976e-11
0.00135988
0.0455753
0.110147
0.139411
0.144175
0.12453
0.108626
0.0918226
0.0876296
0.0741661
0.0371887
0.0172092
0.0103488
5.46324e-24
8.68101e-20
2.08988e-19
8.21847e-19
4.14343e-18
1.2654e-17
1.72488e-16
2.80976e-15
3.5642e-10
0.00231274
0.0546682
0.116573
0.140379
0.140794
0.120167
0.105688
0.0906007
0.0876978
0.0748575
0.0382478
0.0181133
0.01045
5.41114e-24
4.22489e-20
1.39909e-19
7.2667e-19
4.19121e-18
1.37428e-17
2.30154e-16
4.39e-15
1.38694e-09
0.00362875
0.063262
0.121334
0.140018
0.137192
0.116428
0.103385
0.0896418
0.0876221
0.0753946
0.0394322
0.0191156
0.0105565
5.41526e-24
8.89219e-20
2.11424e-19
8.42429e-19
4.5229e-18
1.41942e-17
3.2642e-16
7.08402e-15
4.74628e-09
0.00541749
0.0710702
0.124542
0.138671
0.133569
0.113232
0.10156
0.0888567
0.0874254
0.0757532
0.0407299
0.0202081
0.010667
5.35969e-24
4.22816e-20
1.3782e-19
7.42945e-19
4.58537e-18
1.54552e-17
4.58302e-16
1.12969e-14
1.44507e-08
0.0077586
0.0779821
0.126399
0.13664
0.13012
0.110535
0.100081
0.0881931
0.0871285
0.0759215
0.0420916
0.0213497
0.0107831
5.36574e-24
8.84613e-20
2.10349e-19
8.57283e-19
4.93687e-18
1.6049e-17
6.78027e-16
1.85085e-14
4.27932e-08
0.0107177
0.0839249
0.127101
0.134173
0.126876
0.108217
0.0988535
0.0876233
0.0867559
0.0758798
0.0434993
0.0225193
0.0109032
5.30614e-24
4.14889e-20
1.32587e-19
7.51696e-19
5.01065e-18
1.74647e-17
9.80586e-16
2.99219e-14
2.19429e-07
0.014401
0.0889745
0.126885
0.131465
0.123905
0.106229
0.0978059
0.0871342
0.0863275
0.075621
0.0449154
0.0236692
0.0110282
5.31257e-24
8.52672e-20
2.03836e-19
8.62116e-19
5.3814e-18
1.81879e-17
1.47482e-15
5.74633e-14
1.11023e-05
0.0189664
0.0932239
0.125955
0.128657
0.121174
0.104478
0.0968928
0.0867225
0.0858661
0.075132
0.0463492
0.0247807
0.0111563
5.2462e-24
4.16181e-20
1.27337e-19
7.57779e-19
5.48329e-18
1.98596e-17
2.14263e-15
4.65091e-13
0.000185516
0.0247032
0.09685
0.124519
0.125853
0.118713
0.102941
0.0960816
0.0863907
0.0853904
0.0744142
0.0478001
0.0258171
0.0112883
5.24952e-24
5.37926e-20
1.54731e-19
7.99538e-19
5.76925e-18
2.06408e-17
3.20182e-15
2.31305e-11
0.00119788
0.031979
0.0999875
0.122741
0.123122
0.11648
0.101556
0.0953573
0.0861458
0.0849214
0.0734672
0.0493161
0.0267822
0.011422
5.1728e-24
4.32841e-20
1.14484e-19
7.24364e-19
5.94114e-18
2.35483e-17
4.66336e-15
1.03287e-09
0.00445005
0.0410283
0.102776
0.120779
0.120504
0.114504
0.100326
0.0947111
0.0859967
0.0844753
0.0723089
0.0509239
0.0276689
0.0115584
5.16611e-24
1.93962e-21
1.12099e-20
4.00683e-19
5.44959e-18
2.44406e-17
7.20802e-15
1.82661e-07
0.0115984
0.0517882
0.10526
0.118744
0.118021
0.112755
0.0992133
0.0941463
0.0859536
0.0840685
0.0709597
0.0526648
0.0285164
0.0116955
5.07802e-24
1.71181e-20
4.47785e-20
4.17442e-19
5.46313e-18
3.62139e-17
1.80093e-14
4.49696e-05
0.0239643
0.064012
0.107459
0.116748
0.115671
0.111276
0.0982439
0.0936683
0.0860254
0.0837078
0.0694642
0.0544875
0.0293398
0.0118345
5.03916e-24
6.72064e-22
8.45996e-23
2.35269e-19
5.06692e-18
8.28295e-17
3.70837e-13
0.000885651
0.0423956
0.0773246
0.109303
0.114862
0.113439
0.11004
0.0973927
0.0932956
0.0862199
0.0833953
0.0678724
0.0562289
0.0301408
0.011976
4.83853e-24
2.10351e-19
4.58212e-19
1.0297e-18
7.2617e-18
9.13715e-16
7.18242e-12
0.00516869
0.0671836
0.0915352
0.110889
0.113214
0.11131
0.109087
0.0966851
0.0930349
0.0865307
0.0830772
0.0662476
0.0574658
0.0306156
0.0121338
0.00987657
0.017538
0.0189972
0.00732492
0.00648594
0.006668
0.00686231
0.00702818
0.00688519
0.0070213
0.00945605
0.00888006
0.0086071
0.00885183
0.00954587
0.0108509
0.0130961
0.0150792
0.0153796
0.0136073
0.0123031
0.0121401
0.0120843
0.0122816
0.0142037
0.0248617
0.0695214
0.106663
0.115286
0.112053
0.105685
0.102135
0.102714
0.112943
0.130898
0.00986353
0.0177617
0.0182521
0.00696047
0.00628162
0.00647969
0.00682002
0.00702603
0.00684009
0.00696174
0.00915395
0.00847323
0.00817104
0.00847184
0.00928843
0.0105748
0.0128706
0.0150583
0.0154974
0.0136139
0.0121751
0.0119977
0.0119579
0.0121291
0.0139378
0.0242501
0.0689536
0.106491
0.115203
0.11195
0.105613
0.102076
0.102687
0.112917
0.130887
0.00983842
0.0179026
0.0169815
0.00636197
0.0060281
0.00623005
0.00681484
0.00705859
0.0067858
0.00687337
0.00829053
0.00741267
0.0071632
0.00753824
0.0082683
0.00920762
0.0110901
0.0131795
0.0140293
0.0127305
0.0116589
0.0116437
0.0117211
0.0119474
0.013672
0.0235799
0.0680609
0.106088
0.114975
0.111688
0.10542
0.101909
0.10259
0.112822
0.130822
0.00979929
0.0179656
0.0153787
0.00574133
0.00579433
0.00600183
0.00683161
0.00704696
0.00671463
0.00677079
0.00732113
0.00620638
0.00595966
0.0064608
0.00718409
0.00776132
0.00900457
0.0106813
0.0117872
0.0112742
0.010791
0.0110427
0.0113169
0.0116637
0.0133249
0.0227608
0.0667963
0.105455
0.114607
0.111268
0.105105
0.101636
0.102422
0.112657
0.130701
0.00974597
0.0178904
0.0135884
0.00514302
0.0055475
0.00576132
0.00679457
0.00693413
0.00657507
0.00660087
0.0064373
0.00510444
0.00481516
0.00544059
0.00625596
0.00658926
0.00721924
0.00833004
0.00941154
0.00953586
0.0096266
0.0101757
0.0107008
0.0112225
0.0128382
0.0217382
0.0651287
0.104606
0.114115
0.110705
0.104682
0.101266
0.102194
0.112433
0.130537
0.00967615
0.0176287
0.0117385
0.00458149
0.00527193
0.00548075
0.00665242
0.00669802
0.00633342
0.00631877
0.00565343
0.00417283
0.00380728
0.00445645
0.00540926
0.00565921
0.0058488
0.00642587
0.00727821
0.00775183
0.00824979
0.00905253
0.00984751
0.0105857
0.0121744
0.0204889
0.0630404
0.103567
0.113525
0.110026
0.10417
0.100821
0.101922
0.112169
0.130348
0.00959042
0.0171555
0.00994777
0.00408463
0.00498776
0.00516941
0.0064008
0.00635112
0.00599073
0.00592067
0.00494311
0.00341178
0.00297071
0.00349605
0.00453157
0.00482447
0.00477887
0.00496583
0.00552401
0.00608573
0.00677201
0.0077242
0.00876014
0.00973562
0.0113159
0.0190163
0.0605259
0.102371
0.112872
0.109259
0.103595
0.100323
0.101628
0.111887
0.130157
0.00948687
0.0164576
0.00831365
0.00368339
0.00473262
0.00485987
0.00607085
0.00592822
0.00557404
0.0054364
0.00429376
0.00281818
0.00234968
0.0026567
0.00363223
0.00400455
0.00387665
0.00383408
0.00413831
0.00463263
0.00532181
0.00628937
0.00748218
0.00868144
0.0102656
0.0173449
0.0575916
0.101052
0.112191
0.108441
0.102985
0.0998001
0.101336
0.111614
0.12999
0.00936733
0.0155468
0.00689711
0.00339512
0.00454183
0.00459029
0.0057093
0.00547216
0.00512072
0.00490966
0.00371192
0.00239008
0.00196235
0.00206388
0.002836
0.00323378
0.00309429
0.00294023
0.00306925
0.00344308
0.00402533
0.00488545
0.00610582
0.00746641
0.00905054
0.0155147
0.0542575
0.0996438
0.11152
0.107605
0.102369
0.0992809
0.101072
0.111378
0.129875
0.0092307
0.0144435
0.00572104
0.00321873
0.00443902
0.00439367
0.00536478
0.00502582
0.00467021
0.00438535
0.00320957
0.00211506
0.00178112
0.00175812
0.00226872
0.00260109
0.0024586
0.00225983
0.0022852
0.00254518
0.00298392
0.00365953
0.00476649
0.00617415
0.00772622
0.013578
0.0505605
0.098178
0.110893
0.106787
0.101776
0.0987946
0.100861
0.111208
0.12984
0.00908003
0.0131882
0.00477906
0.00314093
0.00443526
0.00429379
0.00508019
0.00462733
0.00425813
0.00390225
0.00279876
0.00196485
0.00174842
0.00168805
0.0019673
0.00216934
0.00200697
0.00179613
0.00176927
0.0019452
0.00225322
0.002727
0.00361463
0.00492492
0.00637918
0.0115993
0.0465615
0.0966832
0.110342
0.10602
0.101234
0.0983699
0.10073
0.111132
0.129915
0.00891508
0.0118248
0.00404679
0.00314584
0.00453294
0.00430466
0.00488997
0.00431008
0.00391513
0.00349205
0.00249087
0.00190153
0.00179942
0.00176303
0.00187822
0.00193172
0.00173392
0.00152503
0.00147961
0.00160713
0.0018251
0.00213305
0.00276694
0.00385281
0.00512175
0.00965864
0.0423529
0.0951855
0.109897
0.105333
0.10077
0.098034
0.100704
0.111178
0.130126
0.00874002
0.0104121
0.00349731
0.00322225
0.00473118
0.00443219
0.00481895
0.00409895
0.00366479
0.00317697
0.00228841
0.00188974
0.00187859
0.00189419
0.0019116
0.0018301
0.00159121
0.00138876
0.00134462
0.00145566
0.00163222
0.0018406
0.00226073
0.00306258
0.00407102
0.00785386
0.0380685
0.0937111
0.109582
0.104751
0.100408
0.0978123
0.100806
0.111374
0.130502
0.00855535
0.0090079
0.00311162
0.0033666
0.00503082
0.00467681
0.00488281
0.00401134
0.00352354
0.00297053
0.00218471
0.00190521
0.00194881
0.00201513
0.0019829
0.00179451
0.00151931
0.00132575
0.0012943
0.0014121
0.00158773
0.00176324
0.00204914
0.00258801
0.00331252
0.00629389
0.0338884
0.0922899
0.109415
0.104299
0.100169
0.0977277
0.101058
0.111745
0.131065
0.00836592
0.00767582
0.00288145
0.00358308
0.00543839
0.00503755
0.00508938
0.00405689
0.00349915
0.00287707
0.00216464
0.0019361
0.00199294
0.00209156
0.00203622
0.00177217
0.00147352
0.00129339
0.00128217
0.0014217
0.00162257
0.00181411
0.0020443
0.00238849
0.00286821
0.00507489
0.0300316
0.0909611
0.109412
0.103992
0.10007
0.0978011
0.10148
0.112315
0.13184
0.00817267
0.00646948
0.00280766
0.00388285
0.00596715
0.00551902
0.00544159
0.00424072
0.0035938
0.00289384
0.00221411
0.00197934
0.00200942
0.00211345
0.00204626
0.00173584
0.00143116
0.00127138
0.00128628
0.00145711
0.00169728
0.0019313
0.00216146
0.00238605
0.00269733
0.00424831
0.0267237
0.0897764
0.109584
0.103845
0.100127
0.0980506
0.102089
0.113105
0.132846
0.00798033
0.00543414
0.00289701
0.00428395
0.00663866
0.00613781
0.00594388
0.00456481
0.00380648
0.00301223
0.00232133
0.00203755
0.00200692
0.00208824
0.00201134
0.00167962
0.00138652
0.00125446
0.00130058
0.00150991
0.0017965
0.00208129
0.00233884
0.00250345
0.00272864
0.00380588
0.0241409
0.0888
0.109941
0.10387
0.100352
0.0984923
0.102902
0.114136
0.134104
0.00778933
0.004601
0.00316186
0.00481314
0.00748505
0.0069232
0.00660744
0.00503332
0.00413677
0.0032251
0.00248275
0.00211623
0.00199882
0.00203062
0.0019413
0.00160877
0.00134214
0.00124394
0.00132585
0.00158038
0.00191782
0.00225088
0.00254048
0.00268335
0.0028933
0.0036943
0.0223566
0.0881011
0.110489
0.104074
0.100756
0.0991405
0.103934
0.115426
0.135629
0.00760307
0.00398395
0.00362296
0.00550642
0.00854939
0.00791936
0.00745379
0.00565707
0.00458753
0.00352921
0.00270039
0.00222364
0.00199982
0.00195915
0.00185095
0.00153248
0.00130273
0.00124267
0.00136445
0.00167112
0.00206298
0.00243689
0.0027502
0.00289225
0.00314195
0.00384482
0.0213395
0.0877412
0.111231
0.104463
0.101347
0.100008
0.105196
0.116994
0.137438
0.00742066
0.00357564
0.00431812
0.00640851
0.00988516
0.00918392
0.00851593
0.006457
0.00516867
0.00393039
0.00298671
0.00237106
0.00202402
0.00189006
0.00175404
0.00145915
0.00127252
0.00125322
0.00141841
0.00178399
0.0022331
0.00263881
0.00296325
0.00311596
0.00344756
0.00419619
0.0209999
0.0877648
0.112172
0.105042
0.102132
0.101106
0.106702
0.118856
0.139545
0.00724378
0.00334811
0.00531624
0.00757148
0.0115541
0.0107832
0.00983553
0.00746308
0.00589699
0.00444155
0.00335989
0.00257451
0.00208604
0.00183822
0.00166275
0.00139566
0.00125493
0.00127794
0.0014891
0.00191937
0.00242706
0.00285548
0.00318015
0.00335254
0.00380049
0.00470447
0.0212408
0.0881953
0.113312
0.105813
0.103117
0.102445
0.108462
0.121028
0.141963
0.00707145
0.00325932
0.00672261
0.00905919
0.0136263
0.012788
0.0114593
0.00871264
0.00679561
0.00508284
0.00384553
0.00285454
0.0022024
0.00181575
0.00158618
0.00134714
0.00125312
0.00131939
0.00157755
0.00207563
0.00264133
0.00308429
0.00340323
0.00360642
0.00420154
0.00534315
0.0219828
0.0890376
0.114654
0.106779
0.104306
0.104036
0.110488
0.123525
0.144703
0.00690537
0.00328859
0.00865892
0.0109585
0.0161858
0.0152745
0.0134375
0.010243
0.00788864
0.00587325
0.00446507
0.0032339
0.00239303
0.0018371
0.00153307
0.00131844
0.00127068
0.00138096
0.00168486
0.0022495
0.00287057
0.00332193
0.00363545
0.00388458
0.00465645
0.00609941
0.0231697
0.0902831
0.116196
0.107941
0.105705
0.105888
0.112789
0.126363
0.147777
0.00674534
0.00341766
0.0112608
0.0133944
0.0193411
0.018332
0.0158258
0.0120887
0.00919706
0.00682583
0.00523008
0.00372913
0.0026771
0.00191922
0.00151236
0.00131459
0.00131231
0.00146738
0.00181281
0.00243622
0.00310833
0.00356519
0.00388006
0.00419446
0.00517236
0.0069697
0.0247642
0.0919154
0.11794
0.1093
0.107316
0.10801
0.115375
0.129557
0.151194
0.00659312
0.00363757
0.0146514
0.0165435
0.0232309
0.022064
0.0186838
0.014276
0.0107298
0.00793516
0.00612497
0.00433847
0.00306342
0.00208307
0.00153699
0.00134269
0.00138446
0.00158511
0.00196464
0.00263105
0.0033482
0.00381187
0.0041407
0.00454298
0.00575601
0.00795651
0.0267433
0.0939151
0.119885
0.110858
0.109144
0.110412
0.118256
0.133121
0.154963
0.00644962
0.0039566
0.0189169
0.0206339
0.0280144
0.0265704
0.022059
0.0168101
0.0124734
0.00917036
0.0071028
0.00502894
0.0035356
0.0023411
0.00162326
0.00141262
0.00149607
0.00174274
0.00214589
0.00283052
0.00358489
0.00406126
0.00442148
0.00493611
0.00641305
0.00906655
0.0290944
0.0962627
0.12203
0.112615
0.111192
0.113104
0.121441
0.137069
0.159093
0.00631698
0.0044066
0.0240898
0.0259237
0.0338374
0.0319003
0.0259509
0.01965
0.0143735
0.0104617
0.0080763
0.00573194
0.00404555
0.0026847
0.00178922
0.00153888
0.00165943
0.00195112
0.00236489
0.00303491
0.0038154
0.00431446
0.00472692
0.00537866
0.00714796
0.0103099
0.0318125
0.0989405
0.124376
0.114572
0.113463
0.116093
0.124937
0.141417
0.16359
0.00619775
0.00505166
0.0301682
0.0326635
0.040782
0.0379906
0.0302655
0.0226822
0.0163214
0.0116991
0.00892871
0.00634975
0.00451928
0.00307223
0.00204267
0.00173916
0.00189054
0.00222335
0.00263266
0.00324938
0.00403991
0.00457443
0.0050618
0.00587422
0.00796447
0.0117
0.034898
0.101934
0.126922
0.116728
0.115959
0.119389
0.128755
0.146176
0.168459
0.00609509
0.00598215
0.0371621
0.0410553
0.048812
0.0446155
0.0347798
0.0257032
0.0181469
0.0127352
0.00952658
0.00677692
0.00487814
0.00344493
0.00237209
0.00203008
0.00220781
0.00257368
0.00296183
0.00348518
0.00426266
0.00484602
0.005431
0.00642515
0.00886616
0.0132536
0.0383553
0.10523
0.129667
0.119084
0.118682
0.123
0.132902
0.151361
0.173705
0.00601408
0.0073003
0.0451451
0.0512039
0.0577222
0.0513668
0.039139
0.0284286
0.0196359
0.013412
0.00975646
0.00693181
0.00506357
0.00374608
0.00274428
0.00241715
0.00262693
0.00301441
0.00336421
0.00375824
0.00449226
0.0051358
0.00583923
0.00703262
0.00985716
0.0149915
0.0421917
0.108821
0.13261
0.121638
0.121634
0.126935
0.137385
0.156985
0.179331
0.00596079
0.00909139
0.0542478
0.0630201
0.0670808
0.0576679
0.0428865
0.0305269
0.020564
0.0135952
0.00956029
0.00679258
0.00506231
0.00394639
0.00312057
0.0028885
0.00315247
0.00355026
0.00384685
0.00408767
0.00474185
0.00545204
0.00629075
0.00769665
0.0109429
0.0169383
0.0464158
0.112699
0.13575
0.124388
0.124816
0.131201
0.142213
0.163062
0.185339
0.00594609
0.0114149
0.0645927
0.0760634
0.076183
0.0628252
0.0455303
0.0316781
0.0207485
0.0132199
0.00897194
0.00641666
0.00491526
0.00404895
0.00346979
0.00341452
0.00376985
0.0041714
0.00440648
0.00449086
0.00502852
0.0058043
0.00678905
0.0084162
0.0121305
0.0191229
0.0510365
0.116857
0.139083
0.127332
0.12823
0.135806
0.147394
0.169606
0.191733
0.00598322
0.0143057
0.0761373
0.0893912
0.0840679
0.0661293
0.0466343
0.0316423
0.0200965
0.0123165
0.00811325
0.00592454
0.00470426
0.00408957
0.00377962
0.00395849
0.00444451
0.00484994
0.0050252
0.00497898
0.00537231
0.00620319
0.00733649
0.00918918
0.0134295
0.021578
0.0560617
0.12129
0.142607
0.130465
0.131878
0.140759
0.152939
0.176635
0.198515
0.00609167
0.0178029
0.0885114
0.101576
0.0896628
0.0670097
0.045925
0.0303268
0.0186409
0.011012
0.00715553
0.00544678
0.00451499
0.00411423
0.00405182
0.00448504
0.00512866
0.00554228
0.00566938
0.00554943
0.00579358
0.00665938
0.00793368
0.0100123
0.0148515
0.0243398
0.0614974
0.125993
0.146318
0.133784
0.135764
0.146072
0.158858
0.184167
0.205692
0.00628805
0.0219473
0.100917
0.110994
0.0920463
0.0651934
0.0433732
0.0278231
0.0165392
0.00949265
0.00625152
0.00507004
0.00440206
0.00416117
0.00429671
0.00496832
0.00577377
0.00619929
0.00629607
0.00618333
0.00630916
0.00718247
0.00857895
0.0108809
0.0164104
0.0274475
0.0673471
0.13096
0.150212
0.137285
0.139892
0.151758
0.165168
0.192228
0.213272
0.00658505
0.0267915
0.112268
0.116311
0.0907281
0.0608033
0.0392205
0.0243973
0.0140391
0.00795363
0.00549254
0.00481626
0.0043735
0.00424123
0.00451962
0.00539041
0.00633956
0.0067765
0.00686221
0.0068449
0.00692634
0.00777854
0.00926747
0.0117884
0.0181222
0.0309422
0.0736112
0.136186
0.154287
0.140968
0.144272
0.157839
0.17189
0.200852
0.221272
0.00697682
0.0323309
0.121447
0.116878
0.0857951
0.0543323
0.0339237
0.0204273
0.0114175
0.00655142
0.0048994
0.00465874
0.00440134
0.00434281
0.00471955
0.00574221
0.00680097
0.00724413
0.00733606
0.00749178
0.00763708
0.00844742
0.0099905
0.0127265
0.0200039
0.0348661
0.0802881
0.141668
0.15854
0.144833
0.14892
0.164343
0.179053
0.21008
0.229713
0.00744499
0.0384494
0.127564
0.112822
0.0778509
0.0465074
0.028042
0.0163149
0.00892595
0.00538153
0.00445066
0.00455222
0.00444286
0.00443917
0.00488753
0.00601876
0.00714666
0.00758829
0.00770143
0.00808349
0.00841443
0.00917896
0.0107348
0.0136845
0.0220742
0.039262
0.0873764
0.147406
0.162974
0.148888
0.153854
0.171305
0.186692
0.219968
0.238627
0.00795396
0.0446984
0.129972
0.104823
0.0677967
0.0381028
0.0221108
0.012407
0.00675544
0.00447346
0.00411021
0.00445727
0.0044624
0.00450837
0.0050166
0.00622148
0.00737872
0.00781168
0.00796011
0.00859431
0.00921568
0.00995127
0.0114828
0.0146507
0.0243529
0.044173
0.0948772
0.153408
0.167596
0.153147
0.159106
0.178776
0.194854
0.230581
0.248056
0.00846726
0.0502225
0.128224
0.0938025
0.0565853
0.0297892
0.0165558
0.00896098
0.00502569
0.00380661
0.0038472
0.00434965
0.00443967
0.00453646
0.00510238
0.00635427
0.00750596
0.00792635
0.0081259
0.00901337
0.00999034
0.0107308
0.0122141
0.0156129
0.0268616
0.0496438
0.1028
0.159689
0.172418
0.157633
0.164713
0.186817
0.203596
0.242003
0.258052
0.00894498
0.0537065
0.121996
0.0806859
0.0450495
0.0220585
0.011669
0.00614967
0.0037717
0.00333249
0.00363494
0.00421683
0.00436829
0.00452262
0.00514883
0.00642585
0.00754243
0.00795114
0.00822149
0.00934775
0.0106923
0.0114778
0.0129078
0.0165614
0.0296255
0.0557218
0.111165
0.166277
0.177462
0.162378
0.170722
0.195502
0.212985
0.254329
0.26868
0.0093615
0.0538232
0.111158
0.0663446
0.0338581
0.0152414
0.00764444
0.00407566
0.0029377
0.00299637
0.00344788
0.00404891
0.0042456
0.00446833
0.00516242
0.006445
0.00750096
0.00790428
0.00827051
0.00961336
0.0112885
0.0121537
0.0135468
0.0174916
0.0326751
0.06246
0.120013
0.173214
0.182758
0.167425
0.177188
0.204916
0.223097
0.267667
0.280012
0.0096768
0.0494677
0.0958099
0.0516215
0.023581
0.00959073
0.0046296
0.00273316
0.00240794
0.00274299
0.00325586
0.00383337
0.00406649
0.00437703
0.00515548
0.00642344
0.00739424
0.00780364
0.00829697
0.00983465
0.011766
0.0127307
0.0141217
0.0184064
0.0360491
0.0699197
0.129404
0.180556
0.188345
0.172824
0.184173
0.215152
0.234013
0.28213
0.292128
0.00988074
0.0406124
0.0765769
0.037319
0.0147363
0.00532647
0.00267335
0.00194859
0.00205012
0.00250663
0.00301703
0.00354561
0.00381146
0.00423689
0.00513091
0.00636152
0.00722303
0.0076562
0.00831839
0.0100358
0.0121299
0.0131956
0.0146327
0.0193181
0.0397976
0.0781723
0.139423
0.188371
0.194267
0.178632
0.19174
0.226306
0.24582
0.29784
0.30511
4.88279e-24
3.15746e-19
1.1454e-18
4.33009e-18
2.51222e-17
3.17077e-14
9.0768e-11
0.01876
0.0903722
0.102478
0.111825
0.112173
0.109793
0.108605
0.0962827
0.0929793
0.0869052
0.0827246
0.065033
0.0577805
0.0302294
0.0121484
4.9966e-24
7.3989e-20
8.36764e-20
6.26583e-18
6.27464e-17
2.47511e-13
9.29969e-10
0.0351899
0.106108
0.109078
0.112096
0.111538
0.108915
0.108476
0.096208
0.0930918
0.0873319
0.0825022
0.0644386
0.0576436
0.0297952
0.0122008
5.10259e-24
2.76634e-19
8.78051e-19
8.90692e-18
1.22467e-16
9.31692e-13
9.35899e-09
0.0547319
0.120193
0.114518
0.112171
0.111019
0.10824
0.108517
0.0963162
0.0933403
0.0878993
0.0823325
0.0641569
0.0571314
0.0292604
0.0123619
5.06243e-24
5.72588e-20
2.14746e-20
6.84905e-18
1.92278e-16
2.28007e-12
1.69607e-07
0.0753529
0.132413
0.118989
0.11228
0.110677
0.107806
0.108757
0.0966306
0.0937108
0.0885801
0.0822207
0.0641757
0.0562733
0.0286593
0.0126217
5.16615e-24
2.2128e-19
6.31952e-19
7.22526e-18
2.87883e-16
3.6056e-12
6.53116e-06
0.0939327
0.142779
0.122678
0.112584
0.110558
0.107648
0.109184
0.0971356
0.0941951
0.0893441
0.0821672
0.0644631
0.0551378
0.0280373
0.0129713
5.11443e-24
4.59216e-20
1.20639e-20
4.61262e-18
4.09305e-16
4.86369e-12
1.85506e-05
0.107052
0.151385
0.125787
0.113214
0.110713
0.107798
0.109832
0.0978575
0.0947847
0.0901602
0.0821683
0.0649844
0.0537808
0.0274046
0.0134278
5.2296e-24
1.78665e-19
4.73156e-19
4.63304e-18
5.79579e-16
5.05136e-12
3.42704e-05
0.113052
0.158382
0.128479
0.114243
0.111174
0.108279
0.110693
0.0987816
0.0954818
0.0910003
0.0822211
0.0656877
0.0522834
0.0267868
0.0140049
5.17056e-24
3.80387e-20
7.87851e-21
2.77837e-18
7.7136e-16
4.36861e-12
2.56339e-05
0.112395
0.163886
0.130901
0.115732
0.111983
0.109114
0.111804
0.0999398
0.0962892
0.0918418
0.0823173
0.0665268
0.0507005
0.0261815
0.0147203
5.29823e-24
1.46638e-19
3.69396e-19
2.85916e-18
9.84638e-16
2.87493e-12
2.72455e-05
0.106795
0.167988
0.133151
0.117697
0.113161
0.110316
0.113159
0.10132
0.0972222
0.0926715
0.0824512
0.0674452
0.0491052
0.025608
0.0155778
5.22383e-24
3.244e-20
5.88618e-21
1.68599e-18
1.14673e-15
1.68629e-12
3.50976e-05
0.0978525
0.170677
0.135295
0.12015
0.114738
0.111896
0.114794
0.102957
0.0982954
0.0934875
0.0826134
0.0684012
0.0475382
0.0250571
0.0165807
5.35797e-24
1.21915e-19
2.97271e-19
1.84089e-18
1.25076e-15
8.50987e-13
3.99324e-05
0.0865759
0.171881
0.137341
0.12307
0.116726
0.113864
0.116698
0.104839
0.0995341
0.0943011
0.0827997
0.069347
0.0460569
0.0245443
0.0177144
5.27142e-24
2.84265e-20
4.69094e-21
1.08006e-18
1.23772e-15
4.15901e-13
4.09222e-05
0.0738905
0.171409
0.139261
0.126435
0.119147
0.116223
0.118904
0.107003
0.10096
0.0951348
0.0830048
0.070256
0.0446851
0.0240562
0.0189635
5.41237e-24
1.02851e-19
2.48053e-19
1.26199e-18
1.14694e-15
1.89044e-13
3.47833e-05
0.0605648
0.169015
0.140958
0.130183