/*--------------------------------*- C++ -*----------------------------------*\
| =========                 |                                                 |
| \\      /  F ield         | OpenFOAM: The Open Source CFD Toolbox           |
|  \\    /   O peration     | Version:  v1912                                 |
|   \\  /    A nd           | Website:  www.openfoam.com                      |
|    \\/     M anipulation  |                                                 |
\*---------------------------------------------------------------------------*/
FoamFile
{
    version     2.0;
    format      ascii;
    class       volScalarField;
    location    "200";
    object      p;
}
// * * * * * * * * * * * * * * * * * * * * * * * * * * * * * * * * * * * * * //

dimensions      [0 2 -2 0 0 0 0];


internalField   nonuniform List<scalar> 
12441
(
8.37606
8.66444
9.49183
10.7856
12.4464
14.5387
17.1805
20.4698
24.5706
29.638
35.9425
43.6622
53.2397
65.5297
81.0298
100.562
128.354
162.734
218.343
280.301
372
437.209
8.37605
8.66443
9.49182
10.7856
12.4464
14.5386
17.1805
20.4697
24.5705
29.6378
35.9422
43.6616
53.2387
65.528
81.0267
100.556
128.338
162.71
218.261
280.225
371.949
437.006
8.37603
8.66441
9.4918
10.7856
12.4464
14.5386
17.1803
20.4695
24.5702
29.6373
35.9414
43.6604
53.2367
65.5246
81.0207
100.542
128.314
162.655
218.089
280.042
371.811
436.64
8.37601
8.66439
9.49176
10.7855
12.4463
14.5384
17.1802
20.4692
24.5697
29.6366
35.9403
43.6586
53.2338
65.5194
81.0118
100.522
128.282
162.57
217.909
279.761
371.562
436.071
8.37598
8.66435
9.49172
10.7854
12.4462
14.5383
17.1799
20.4688
24.5691
29.6357
35.9389
43.6562
53.2298
65.5125
80.9999
100.496
128.241
162.465
217.743
279.409
371.212
435.295
8.37594
8.66431
9.49166
10.7854
12.4461
14.5381
17.1796
20.4683
24.5684
29.6345
35.937
43.6532
53.2249
65.5039
80.985
100.463
128.19
162.341
217.555
278.984
370.767
434.314
8.3759
8.66426
9.4916
10.7852
12.4459
14.5379
17.1793
20.4677
24.5675
29.6331
35.9348
43.6496
53.2189
65.4935
80.9672
100.424
128.13
162.196
217.336
278.489
370.231
433.126
8.37585
8.6642
9.49152
10.7851
12.4457
14.5376
17.1788
20.467
24.5664
29.6314
35.9322
43.6454
53.212
65.4814
80.9465
100.38
128.064
162.031
217.097
277.936
369.61
431.729
8.37579
8.66413
9.49143
10.785
12.4455
14.5373
17.1784
20.4662
24.5652
29.6295
35.9293
43.6406
53.2041
65.4677
80.9233
100.331
127.996
161.853
216.859
277.339
368.907
430.119
8.37572
8.66406
9.49133
10.7848
12.4453
14.537
17.1778
20.4653
24.5639
29.6274
35.926
43.6352
53.1953
65.4524
80.8989
100.282
127.93
161.671
216.643
276.709
368.124
428.291
8.37564
8.66397
9.49122
10.7846
12.445
14.5366
17.1772
20.4643
24.5624
29.6251
35.9223
43.6292
53.1854
65.4357
80.8743
100.237
127.879
161.501
216.478
276.055
367.259
426.237
8.37556
8.66388
9.49109
10.7844
12.4448
14.5362
17.1766
20.4632
24.5607
29.6225
35.9183
43.6226
53.1747
65.4186
80.8523
100.203
127.865
161.372
216.39
275.382
366.306
423.949
8.37547
8.66378
9.49096
10.7842
12.4444
14.5357
17.1758
20.462
24.5589
29.6197
35.9138
43.6154
53.1632
65.4028
80.8402
100.196
127.922
161.321
216.384
274.681
365.257
421.416
8.37537
8.66367
9.49081
10.784
12.4441
14.5352
17.1751
20.4607
24.557
29.6166
35.909
43.6077
53.1518
65.3919
80.849
100.237
128.082
161.378
216.432
273.933
364.103
418.627
8.37527
8.66355
9.49066
10.7837
12.4438
14.5347
17.1742
20.4593
24.5549
29.6133
35.9039
43.5993
53.1417
65.3924
80.8906
100.34
128.357
161.546
216.478
273.111
362.834
415.568
8.37516
8.66342
9.49049
10.7834
12.4434
14.5341
17.1733
20.4578
24.5526
29.6098
35.8983
43.5907
53.1352
65.411
80.9734
100.509
128.731
161.779
216.453
272.189
361.44
412.227
8.37504
8.66329
9.49031
10.7831
12.443
14.5335
17.1724
20.4561
24.5502
29.606
35.8924
43.5822
53.1362
65.4536
81.0983
100.734
129.15
161.997
216.305
271.149
359.916
408.59
8.37491
8.66315
9.49012
10.7828
12.4425
14.5329
17.1713
20.4544
24.5477
29.602
35.886
43.5749
53.1495
65.5212
81.2575
100.99
129.536
162.115
216.008
269.98
358.254
404.643
8.37477
8.66299
9.48991
10.7825
12.4421
14.5322
17.1703
20.4526
24.545
29.5977
35.8792
43.5703
53.1779
65.6104
81.4356
101.239
129.807
162.074
215.564
268.68
356.452
400.372
8.37463
8.66283
9.4897
10.7822
12.4416
14.5315
17.1691
20.4508
24.5421
29.5932
35.8721
43.5709
53.2224
65.7125
81.6123
101.442
129.903
161.867
214.998
267.253
354.507
395.761
8.37448
8.66267
9.48948
10.7818
12.4411
14.5307
17.1679
20.4488
24.5391
29.5884
35.8649
43.5794
53.2791
65.8185
81.7649
101.564
129.804
161.525
214.336
265.706
352.42
390.796
8.37433
8.66249
9.48924
10.7814
12.4406
14.5299
17.1667
20.4467
24.5359
29.5834
35.8581
43.5973
53.3437
65.9165
81.8742
101.584
129.537
161.098
213.606
264.047
350.19
385.46
8.37416
8.6623
9.48899
10.781
12.44
14.5291
17.1653
20.4445
24.5326
29.5781
35.8523
43.6242
53.409
65.9987
81.9276
101.506
129.158
160.631
212.822
262.285
347.819
379.736
8.37399
8.66211
9.48873
10.7806
12.4394
14.5282
17.164
20.4422
24.5292
29.5725
35.8487
43.6575
53.4709
66.056
81.9222
101.344
128.727
160.151
211.996
260.43
345.311
373.607
8.37381
8.66191
9.48846
10.7802
12.4388
14.5273
17.1625
20.4398
24.5255
29.5666
35.8486
43.694
53.5232
66.086
81.8639
101.127
128.295
159.665
211.131
258.491
342.667
367.053
8.37362
8.6617
9.48818
10.7797
12.4382
14.5263
17.161
20.4373
24.5217
29.5605
35.8528
43.7303
53.565
66.0864
81.7649
100.882
127.885
159.172
210.229
256.477
339.89
360.054
8.37343
8.66148
9.48789
10.7792
12.4375
14.5253
17.1595
20.4347
24.5178
29.5542
35.8615
43.7633
53.5923
66.0615
81.6391
100.63
127.504
158.667
209.289
254.399
336.984
352.589
8.37322
8.66125
9.48758
10.7787
12.4368
14.5243
17.1578
20.432
24.5137
29.5479
35.8738
43.7913
53.607
66.0141
81.4992
100.384
127.147
158.146
208.31
252.263
333.95
344.632
8.37301
8.66102
9.48727
10.7782
12.4361
14.5232
17.1561
20.4292
24.5094
29.5418
35.8882
43.8127
53.607
65.9517
81.3545
100.149
126.806
157.606
207.292
250.077
330.788
336.16
8.3728
8.66077
9.48694
10.7777
12.4354
14.5221
17.1544
20.4263
24.5049
29.536
35.903
43.8271
53.5962
65.8774
81.2108
99.9257
126.473
157.046
206.235
247.845
327.495
327.143
8.37257
8.66052
9.4866
10.7772
12.4346
14.521
17.1526
20.4233
24.5003
29.5304
35.9169
43.8341
53.5739
65.7974
81.0704
99.7112
126.142
156.467
205.139
245.57
324.068
317.552
8.37234
8.66026
9.48625
10.7766
12.4338
14.5198
17.1507
20.4202
24.4955
29.5253
35.9289
43.8342
53.5444
65.7129
80.9343
99.5025
125.809
155.868
204.003
243.251
320.5
307.354
8.3721
8.65999
9.48589
10.776
12.433
14.5186
17.1488
20.417
24.4905
29.5209
35.9384
43.8276
53.5072
65.6278
80.8019
99.2972
125.471
155.253
202.829
240.889
316.781
296.515
8.37186
8.65971
9.48552
10.7754
12.4322
14.5174
17.1468
20.4136
24.4854
29.5173
35.945
43.8152
53.4665
65.5415
80.6723
99.0929
125.127
154.62
201.616
238.482
312.901
284.997
8.3716
8.65942
9.48513
10.7748
12.4313
14.5161
17.1448
20.4102
24.4801
29.5148
35.9486
43.7978
53.421
65.4563
80.5445
98.8882
124.777
153.972
200.364
236.031
308.848
272.763
8.37134
8.65913
9.48473
10.7742
12.4304
14.5147
17.1427
20.4067
24.4746
29.5134
35.9493
43.7762
53.3744
65.3707
80.4175
98.6816
124.42
153.309
199.075
233.537
304.61
259.771
8.37107
8.65883
9.48433
10.7735
12.4295
14.5134
17.1405
20.4031
24.469
29.5136
35.9473
43.7513
53.325
65.2865
80.2907
98.4728
124.055
152.632
197.748
231.002
300.176
245.978
8.37079
8.65852
9.48391
10.7728
12.4286
14.5119
17.1383
20.3993
24.4636
29.5162
35.9432
43.7238
53.2756
65.2019
80.1635
98.2608
123.684
151.942
196.386
228.432
295.536
231.336
8.37051
8.6582
9.48347
10.7722
12.4276
14.5105
17.136
20.3955
24.459
29.5217
35.9374
43.6943
53.2246
65.1186
80.0354
98.046
123.306
151.24
194.99
225.831
290.681
215.799
8.37022
8.65787
9.48303
10.7715
12.4266
14.509
17.1337
20.3915
24.457
29.5301
35.9301
43.6635
53.1742
65.0348
79.9063
97.8277
122.922
150.525
193.563
223.205
285.608
199.313
8.36992
8.65753
9.48258
10.7707
12.4256
14.5075
17.1313
20.3874
24.46
29.5415
35.9216
43.6318
53.1224
64.9523
79.776
97.6066
122.532
149.799
192.107
220.558
280.313
181.826
8.36961
8.65719
9.48211
10.77
12.4246
14.5059
17.1288
20.3834
24.47
29.5553
35.9118
43.5997
53.0715
64.8693
79.6443
97.3823
122.136
149.062
190.627
217.892
274.796
163.29
8.3693
8.65683
9.48163
10.7692
12.4235
14.5043
17.1263
20.3801
24.4885
29.5709
35.9007
43.5673
53.0189
64.7878
79.5114
97.1555
121.736
148.313
189.127
215.203
269.032
143.617
8.36898
8.65647
9.48115
10.7685
12.4224
14.5027
17.1236
20.3797
24.5149
29.5875
35.8884
43.5352
52.9675
64.706
79.3776
96.9265
121.33
147.549
187.614
212.481
262.939
122.073
-16.536
-33.1934
-37.4621
-25.2008
-18.0639
-14.4798
-13.2477
-12.8482
-11.9194
-7.68097
-0.926877
6.42112
11.3559
9.97086
8.33028
11.2229
16.2973
19.075
18.4703
16.0508
13.511
10.9464
8.74086
6.99593
5.16881
0.0895199
0.0604875
6.69262
9.04983
6.56923
4.68317
3.42297
2.40285
1.3257
0.646174
-16.5741
-33.2135
-37.4936
-25.1977
-18.0559
-14.4749
-13.2456
-12.846
-11.9167
-7.67918
-0.923727
6.42241
11.3604
9.98117
8.34455
11.2381
16.3105
19.0847
18.4759
16.0544
13.514
10.9493
8.74367
6.99833
5.16981
0.0887712
0.0423784
6.67997
9.04752
6.56939
4.68336
3.42301
2.40285
1.32571
0.646176
-16.6369
-33.2667
-37.5496
-25.192
-18.0444
-14.4674
-13.2425
-12.8443
-11.9156
-7.67818
-0.919285
6.42984
11.3712
9.99654
8.36562
11.2663
16.3439
19.1156
18.4966
16.0649
13.5196
10.9535
8.74721
7.0012
5.17211
0.0909116
0.0270923
6.66758
9.04535
6.56963
4.68359
3.42307
2.40286
1.32574
0.646184
-16.7251
-33.3601
-37.63
-25.1884
-18.0309
-14.4581
-13.2385
-12.8429
-11.9155
-7.67765
-0.914251
6.44066
11.3852
10.0137
8.3882
11.2996
16.3893
19.163
18.532
16.0834
13.5289
10.9598
8.75207
7.00527
5.17687
0.0987414
0.0203008
6.65685
9.04345
6.56994
4.68385
3.42316
2.40289
1.32579
0.646197
-16.8377
-33.4966
-37.7315
-25.1898
-18.015
-14.447
-13.2333
-12.8421
-11.9164
-7.67775
-0.9097
6.45177
11.3998
10.0296
8.40621
11.3265
16.4304
19.2105
18.5715
16.1062
13.5414
10.9686
8.75875
7.01098
5.18453
0.112781
0.0230427
6.64811
9.04187
6.57033
4.68414
3.42327
2.40293
1.32585
0.646216
-16.9725
-33.6787
-37.8503
-25.1964
-17.9961
-14.4341
-13.2267
-12.8421
-11.9183
-7.67839
-0.906517
6.46187
11.4139
10.0442
8.42013
11.3457
16.4616
19.2494
18.6076
16.13
13.5565
10.9799
8.76758
7.01873
5.1954
0.133068
0.0354192
6.64123
9.04058
6.57079
4.68444
3.4234
2.40298
1.32591
0.646238
-17.1268
-33.907
-37.9818
-25.2086
-17.9752
-14.4197
-13.2191
-12.8429
-11.9212
-7.67979
-0.904802
6.46997
11.4269
10.0581
8.43261
11.3603
16.4841
19.2784
18.637
16.1525
13.5732
10.9933
8.77859
7.02868
5.20959
0.159343
0.0575126
6.63601
9.03953
6.57132
4.68476
3.42353
2.40303
1.32599
0.646261
-17.2983
-34.1792
-38.1213
-25.2269
-17.9538
-14.4047
-13.211
-12.8448
-11.925
-7.68213
-0.904709
6.47534
11.4374
10.0709
8.44483
11.3727
16.5004
19.2986
18.659
16.1721
13.5898
11.0081
8.7914
7.04071
5.2269
0.190971
0.0894164
6.63228
9.03867
6.57189
4.68507
3.42367
2.40309
1.32606
0.646284
-17.4841
-34.4899
-38.2645
-25.2511
-17.9338
-14.3903
-13.203
-12.8477
-11.9299
-7.68581
-0.906231
6.47735
11.4444
10.0813
8.45589
11.3831
16.5115
19.3111
18.6734
16.187
13.6047
11.0227
8.80522
7.05439
5.24682
0.226953
0.131036
6.6299
9.03796
6.5725
4.68538
3.4238
2.40313
1.32613
0.646305
-17.6814
-34.8305
-38.408
-25.2807
-17.9167
-14.3773
-13.1958
-12.8515
-11.9358
-7.69093
-0.909199
6.47589
11.4472
10.0881
8.46426
11.3905
16.5174
19.3165
18.6804
16.1963
13.6161
11.0356
8.81886
7.06894
5.26854
0.266015
0.18209
6.62878
9.03734
6.57313
4.68568
3.42392
2.40316
1.32619
0.646322
-17.887
-35.19
-38.549
-25.3144
-17.9036
-14.3667
-13.1901
-12.8563
-11.9427
-7.6976
-0.913563
6.4717
11.4463
10.0912
8.469
11.3939
16.5179
19.3152
18.6804
16.1995
13.6227
11.0453
8.83097
7.0833
5.29093
0.306661
0.241907
6.6289
9.03678
6.57377
4.68595
3.424
2.40318
1.32624
0.646332
-18.0977
-35.5556
-38.6852
-25.3504
-17.895
-14.3592
-13.1862
-12.8618
-11.9506
-7.70557
-0.919081
6.46576
11.4426
10.0913
8.4703
11.3936
16.5135
19.3082
18.6746
16.197
13.6242
11.0509
8.84039
7.09633
5.31271
0.347192
0.309389
6.63037
9.03623
6.57441
4.68618
3.42406
2.40316
1.32627
0.646334
-18.31
-35.914
-38.8146
-25.3873
-17.8912
-14.355
-13.1847
-12.8682
-11.9595
-7.71476
-0.925771
6.45932
11.4375
10.0894
8.46905
11.3906
16.5055
19.2968
18.6642
16.1901
13.6214
11.0526
8.84655
7.10704
5.33261
0.385731
0.382729
6.63343
9.03567
6.57505
4.68638
3.42408
2.40313
1.32628
0.646327
-18.5204
-36.2519
-38.9348
-25.4233
-17.892
-14.3545
-13.1858
-12.8755
-11.9694
-7.72496
-0.93335
6.45299
11.4318
10.0863
8.46637
11.3862
16.4951
19.2823
18.6506
16.1802
13.6154
11.051
8.84963
7.11497
5.34982
0.420375
0.459328
6.63849
9.03508
6.57566
4.68653
3.42405
2.40305
1.32626
0.646309
-18.7251
-36.5568
-39.0436
-25.4566
-17.8972
-14.3579
-13.1896
-12.8839
-11.9802
-7.73628
-0.941856
6.44732
11.426
10.0826
8.46313
11.3815
16.4832
19.2653
18.6346
16.1681
13.6075
11.0474
8.85035
7.12034
5.36416
0.449588
0.535552
6.64603
9.03445
6.57625
4.68663
3.42396
2.40294
1.32622
0.646278
-18.9202
-36.8182
-39.1388
-25.4858
-17.9066
-14.3654
-13.1961
-12.8936
-11.992
-7.7487
-0.95102
6.44202
11.4201
10.0785
8.45988
11.3771
16.4702
19.246
18.6162
16.1545
13.5985
11.0427
8.84963
7.12385
5.3761
0.472778
0.606969
6.6566
9.0338
6.5768
4.68668
3.42382
2.4028
1.32614
0.646234
-19.1015
-37.0289
-39.219
-25.509
-17.9203
-14.377
-13.2053
-12.905
-12.0052
-7.76254
-0.961052
6.43708
11.4136
10.0738
8.45687
11.3732
16.4562
19.2243
18.5956
16.1393
13.5886
11.0374
8.84822
7.12636
5.38641
0.490647
0.669008
6.67052
9.03314
6.57733
4.68666
3.42362
2.40261
1.32603
0.646177
-19.2648
-37.1863
-39.284
-25.5241
-17.9398
-14.3929
-13.2175
-12.9185
-12.0202
-7.77798
-0.971931
6.43175
11.406
10.0682
8.45422
11.3699
16.441
19.2003
18.5726
16.1226
13.5779
11.0319
8.84656
7.12852
5.3958
0.504864
0.718394
6.68781
9.03249
6.57781
4.68659
3.42336
2.40237
1.32588
0.646105
-19.4064
-37.2924
-39.3349
-25.5306
-17.9655
-14.413
-13.2329
-12.9347
-12.0378
-7.79568
-0.984302
6.42585
11.3967
10.0613
8.45188
11.3669
16.4245
19.1736
18.5472
16.1043
13.5664
11.026
8.84481
7.13072
5.40477
0.517264
0.754188
6.708
9.0319
6.57825
4.68645
3.42303
2.4021
1.32569
0.646019
-19.5226
-37.3518
-39.3739
-25.5299
-17.9965
-14.4376
-13.252
-12.9544
-12.0588
-7.81622
-0.998626
6.41842
11.385
10.0527
8.44987
11.3642
16.4063
19.1441
18.5193
16.0845
13.554
11.0197
8.84301
7.13311
5.41365
0.529228
0.777891
6.73031
9.03138
6.57865
4.68624
3.42263
2.40177
1.32547
0.645919
-19.6107
-37.37
-39.4034
-25.5236
-18.0315
-14.4668
-13.2755
-12.9788
-12.0845
-7.84081
-1.01613
6.40914
11.3708
10.0423
8.44812
11.3615
16.3862
19.1117
18.489
16.0632
13.5409
11.0131
8.84116
7.13571
5.42262
0.541516
0.792332
6.75379
9.03099
6.579
4.68597
3.42216
2.4014
1.3252
0.645804
-19.6695
-37.3546
-39.4224
-25.513
-18.0692
-14.5005
-13.304
-13.009
-12.1163
-7.87049
-1.03772
6.39683
11.3533
10.0298
8.44668
11.3588
16.3641
19.0762
18.4563
16.0405
13.527
11.0062
8.83923
7.1385
5.43174
0.55443
0.800581
6.77763
9.03073
6.57929
4.68562
3.42162
2.40099
1.3249
0.645675
-19.7039
-37.3071
-39.4268
-25.4985
-18.108
-14.539
-13.3384
-13.0467
-12.156
-7.90696
-1.0649
6.38122
11.3323
10.015
8.44538
11.3557
16.3396
19.0377
18.4213
16.0167
13.5124
10.9989
8.83723
7.14143
5.44105
0.568024
0.805103
6.80113
9.03064
6.57954
4.68521
3.421
2.40052
1.32456
0.645533
-19.7206
-37.223
-39.4119
-25.4799
-18.1465
-14.5824
-13.3797
-13.0933
-12.2053
-7.95137
-1.09824
6.36126
11.3072
9.99717
8.44395
11.3521
16.3126
18.9959
18.3839
15.9917
13.4973
10.9914
8.83516
7.14444
5.45051
0.582269
0.807691
6.82398
9.03073
6.57974
4.68471
3.42031
2.40001
1.32417
0.645377
-19.7209
-37.101
-39.369
-25.4558
-18.1834
-14.6311
-13.4291
-13.1508
-12.2664
-8.00533
-1.13847
6.33757
11.278
9.97542
8.44142
11.3474
16.2827
18.9508
18.3443
15.9657
13.4818
10.9836
8.83304
7.14749
5.46007
0.597112
0.809454
6.84599
9.03104
6.57988
4.68415
3.41954
2.39946
1.32375
0.645208
-19.7032
-36.9441
-39.2838
-25.423
-18.2172
-14.6852
-13.4877
-13.2205
-12.3404
-8.06913
-1.18451
6.31029
11.2447
9.94853
8.43641
11.3405
16.2495
18.9024
18.3025
15.9387
13.4658
10.9756
8.83086
7.15052
5.46968
0.61251
0.81117
6.86724
9.03156
6.57997
4.6835
3.4187
2.39886
1.32328
0.645027
-19.6668
-36.7574
-39.1372
-25.3765
-18.2465
-14.7451
-13.5565
-13.3039
-12.4289
-8.14296
-1.23499
6.28187
11.2085
9.91599
8.42702
11.3302
16.2125
18.8506
18.2586
15.9107
13.4494
10.9675
8.82863
7.15349
5.47928
0.628425
0.813288
6.88783
9.03233
6.58002
4.68277
3.41778
2.39821
1.32277
0.644835
-19.6121
-36.5472
-38.9112
-25.3094
-18.2702
-14.8099
-13.6349
-13.4001
-12.5308
-8.22452
-1.28627
6.25392
11.1706
9.87816
8.4119
11.3153
16.1711
18.7955
18.2126
15.8818
13.4326
10.9593
8.82635
7.15634
5.48883
0.644835
0.816211
6.90801
9.03336
6.58001
4.68196
3.41678
2.39752
1.32223
0.644632
-19.5398
-36.3224
-38.596
-25.214
-18.2872
-14.878
-13.7208
-13.5074
-12.6441
-8.31082
-1.33467
6.23004
11.1332
9.83678
8.39056
11.2944
16.125
18.7371
18.1648
15.852
13.4156
10.9511
8.824
7.15901
5.49828
0.661718
0.820159
6.92799
9.0347
6.57995
4.68106
3.41571
2.39679
1.32164
0.644419
-19.4518
-36.0944
-38.1953
-25.0833
-18.2973
-14.9464
-13.8094
-13.6207
-12.7633
-8.3959
-1.37494
6.21163
11.0971
9.79391
8.36412
11.2678
16.0742
18.6759
18.1153
15.8213
13.3982
10.9428
8.82157
7.16145
5.50756
0.679068
0.825406
6.94808
9.03635
6.57985
4.68007
3.41455
2.39601
1.32101
0.644198
-19.3518
-35.8752
-37.7238
-24.9132
-18.3012
-15.011
-13.8945
-13.7336
-12.8823
-8.47385
-1.40343
6.2007
11.0629
9.75178
8.33443
11.2361
16.019
18.6123
18.0645
15.7899
13.3805
10.9345
8.81902
7.16362
5.51665
0.69687
0.832073
6.96846
9.03836
6.57972
4.679
3.41331
2.3952
1.32035
0.643968
-19.2463
-35.6763
-37.2015
-24.7065
-18.3011
-15.0661
-13.9676
-13.8372
-12.992
-8.53744
-1.41744
6.19555
11.0295
9.71159
8.30408
11.2011
15.9606
18.5469
18.0129
15.7579
13.3626
10.9262
8.81632
7.16543
5.52546
0.715129
0.840392
6.98946
9.04076
6.57955
4.67783
3.412
2.39434
1.31965
0.643731
-19.1429
-35.5079
-36.6483
-24.4752
-18.3001
-15.1061
-14.0206
-13.9236
-13.0852
-8.58217
-1.41813
6.19429
10.9955
9.67379
8.27487
11.1645
15.9001
18.4804
17.9609
15.7255
13.3444
10.9178
8.81344
7.16686
5.53398
0.733829
0.85043
7.01124
9.04358
6.57935
4.67657
3.4106
2.39344
1.3189
0.643487
-19.0501
-35.3802
-36.0851
-24.2429
-18.3023
-15.1259
-14.0463
-13.9856
-13.1544
-8.60533
-1.4091
6.19207
10.958
9.6376
8.24819
11.128
15.8388
18.4138
17.9091
15.693
13.326
10.9094
8.81032
7.16782
5.54212
0.752978
0.862409
7.03411
9.04687
6.57913
4.67522
3.40912
2.39251
1.31812
0.643237
-18.9746
-35.3057
-35.5353
-24.0398
-18.3118
-15.1225
-14.0418
-14.0201
-13.1964
-8.60901
-1.39651
6.18568
10.9152
9.60189
8.22399
11.0923
15.7774
18.3476
17.8578
15.6607
13.3075
10.901
8.80691
7.1683
5.54987
0.772552
0.876374
7.05821
9.05066
6.5789
4.67376
3.40756
2.39153
1.3173
0.642982
-18.9213
-35.3021
-35.0248
-23.8955
-18.3318
-15.096
-14.008
-14.0273
-13.2099
-8.59786
-1.38558
6.17188
10.8651
9.56511
8.20195
11.0579
15.7167
18.2822
17.8076
15.6291
13.2891
10.8925
8.80316
7.16822
5.55712
0.792554
0.892562
7.08383
9.05499
6.57865
4.6722
3.40591
2.39052
1.31644
0.642721
-18.8909
-35.3923
-34.5761
-23.8301
-18.3638
-15.0501
-13.9509
-14.0109
-13.198
-8.57931
-1.3797
6.15066
10.8076
9.52617
8.18085
11.0246
15.6567
18.2176
17.7583
15.5985
13.271
10.884
8.79904
7.16757
5.56388
0.812952
0.911001
7.11107
9.0599
6.5784
4.67053
3.40417
2.38946
1.31553
0.642455
-18.8805
-35.6013
-34.2035
-23.8511
-18.4079
-14.9907
-13.8789
-13.9752
-13.1664
-8.55944
-1.37885
6.1223
10.7425
9.48416
8.16022
10.9923
15.5976
18.1538
17.7101
15.5691
13.2534
10.8754
8.79448
7.1663
5.57005
0.833754
0.931956
7.14023
9.06542
6.57815
4.66874
3.40233
2.38836
1.31458
0.642183
-18.8834
-35.9448
-33.911
-23.9533
-18.462
-14.9253
-13.8013
-13.9245
-13.1246
-8.54197
-1.38175
6.08846
10.6708
9.43915
8.1397
10.9609
15.539
18.0905
17.6626
15.5409
13.2365
10.8668
8.78949
7.16443
5.57566
0.854931
0.955464
7.17143
9.07161
6.5779
4.66683
3.40039
2.38721
1.31357
0.641905
-18.8913
-36.411
-33.6959
-24.1248
-18.5238
-14.8609
-13.7238
-13.8631
-13.0826
-8.52648
-1.38702
6.04886
10.5927
9.39191
8.12034
10.9308
15.4808
18.0272
17.6153
15.5138
13.2206
10.8582
8.78409
7.16201
5.58064
0.876486
0.981839
7.205
9.07851
6.57764
4.66477
3.39832
2.38601
1.3125
0.64162
-18.8973
-36.9384
-33.5506
-24.3493
-18.59
-14.802
-13.6482
-13.8002
-13.0467
-8.51181
-1.39548
6.00331
10.5101
9.34489
8.10322
10.9013
15.4218
17.9631
17.5679
15.4874
13.2056
10.8498
8.77849
7.15916
5.58504
0.898289
1.01089
7.24075
9.08606
6.57735
4.66255
3.39612
2.38474
1.31137
0.641326
-18.8978
-37.3965
-33.4646
-24.6082
-18.656
-14.7488
-13.5754
-13.7469
-13.0167
-8.49759
-1.40877
5.95159
10.4264
9.30135
8.08892
10.8706
15.3604
17.8975
17.5199
15.4616
13.1918
10.8421
8.77296
7.15595
5.58865
0.920002
1.04188
7.27762
9.09385
6.57703
4.66019
3.39378
2.3834
1.31016
0.64102
-18.8797
-37.593
-33.4214
-24.8812
-18.7152
-14.6984
-13.5121
-13.7094
-12.9907
-8.4865
-1.42764
5.89826
10.3491
9.26393
8.07352
10.8332
15.294
17.8304
17.4723
15.4369
13.1799
10.8355
8.7676
7.1521
5.59102
0.940905
1.07359
7.3144
9.10169
6.57667
4.65769
3.39127
2.38198
1.30885
0.640696
-18.8051
-37.3646
-33.4001
-25.1529
-18.7633
-14.6514
-13.4684
-13.6866
-12.9692
-8.48044
-1.44919
5.84887
10.2812
9.22857
8.04812
10.7836
15.2232
17.765
17.4281
15.4158
13.1709
10.8298
8.76107
7.14575
5.59044
0.962052
1.11456
7.36232
9.11343
6.57651
4.65477
3.38853
2.38049
1.30748
0.64038
8.36872
8.65618
9.48075
10.7679
12.4215
14.5014
17.1216
20.3874
24.5402
29.6
35.8775
43.5111
52.9282
64.6438
79.2742
96.7483
121.013
146.941
186.433
210.324
257.907
100.426
8.36853
8.65597
9.48047
10.7674
12.4209
14.5004
17.12
20.4007
24.5587
29.6072
35.8685
43.4942
52.9033
64.5981
79.2002
96.6194
120.781
146.492
185.574
208.754
254.063
97.5326
8.36834
8.65574
9.48016
10.7669
12.4202
14.4994
17.1184
20.4174
24.5742
29.6114
35.8583
43.4771
52.877
64.5529
79.1248
96.487
120.54
146.024
184.692
207.124
250.061
99.2369
8.36813
8.65551
9.47984
10.7664
12.4195
14.4983
17.1167
20.4343
24.5866
29.6133
35.8476
43.4597
52.8519
64.5056
79.0473
96.3491
120.29
145.537
183.785
205.426
245.946
99.15
8.36791
8.65526
9.47951
10.7659
12.4187
14.4972
17.1149
20.449
24.5962
29.6133
35.8369
43.442
52.825
64.4585
78.9678
96.2058
120.027
145.029
182.848
203.66
241.708
97.3796
8.36768
8.655
9.47915
10.7654
12.418
14.4959
17.113
20.4587
24.6032
29.6119
35.8264
43.4245
52.7994
64.4093
78.8857
96.0558
119.75
144.498
181.876
201.828
237.342
95.3527
8.36743
8.65472
9.47877
10.7648
12.4171
14.4947
17.111
20.4617
24.6078
29.6092
35.8164
43.407
52.7724
64.36
78.8011
95.8994
119.459
143.944
180.862
199.931
232.854
93.465
8.36717
8.65443
9.47838
10.7641
12.4162
14.4933
17.1089
20.4583
24.6101
29.6056
35.807
43.3897
52.7467
64.3085
78.7136
95.7355
119.151
143.366
179.801
197.971
228.247
91.5544
8.3669
8.65412
9.47796
10.7635
12.4153
14.4919
17.1066
20.4499
24.6103
29.6012
35.7981
43.3727
52.7196
64.2569
78.6231
95.5645
118.826
142.761
178.687
195.947
223.528
89.5233
8.36661
8.6538
9.47752
10.7628
12.4143
14.4904
17.1042
20.438
24.6082
29.5961
35.7898
43.3559
52.6937
64.2029
78.5293
95.3852
118.482
142.129
177.515
193.86
218.699
87.3958
8.36631
8.65345
9.47705
10.7621
12.4133
14.4888
17.1018
20.4237
24.6038
29.5903
35.7819
43.3392
52.6664
64.1485
78.4321
95.1982
118.119
141.468
176.28
191.708
213.767
85.2069
8.36599
8.65309
9.47656
10.7613
12.4122
14.4871
17.0991
20.4076
24.5968
29.5838
35.7743
43.3228
52.6401
64.0915
78.331
95.0024
117.735
140.776
174.976
189.492
208.735
82.9676
8.36565
8.65271
9.47604
10.7605
12.4111
14.4854
17.0963
20.3906
24.5868
29.5762
35.7668
43.3066
52.6121
64.0338
78.2259
94.7982
117.332
140.053
173.601
187.209
203.609
80.6821
8.36529
8.6523
9.47548
10.7596
12.4098
14.4835
17.0933
20.3735
24.5734
29.5674
35.7592
43.2905
52.5849
63.9731
78.1164
94.5845
116.907
139.296
172.15
184.859
198.394
78.3592
8.36491
8.65188
9.4749
10.7587
12.4085
14.4815
17.0902
20.357
24.5562
29.5568
35.7511
43.2743
52.5558
63.9112
78.0022
94.3614
116.461
138.503
170.623
182.44
193.095
76.0115
8.36451
8.65142
9.47428
10.7577
12.4072
14.4794
17.0868
20.3418
24.5347
29.5439
35.742
43.2581
52.5273
63.8459
77.8828
94.1279
115.993
137.675
169.015
179.95
187.717
73.652
8.36409
8.65094
9.47363
10.7567
12.4057
14.4771
17.0833
20.3282
24.5088
29.528
35.7313
43.2416
52.4968
63.7788
77.7579
93.8839
115.502
136.808
167.327
177.389
182.264
71.2949
8.36364
8.65043
9.47293
10.7556
12.4042
14.4747
17.0795
20.3165
24.4788
29.5083
35.7183
43.2246
52.4666
63.7078
77.6269
93.6282
114.988
135.902
165.557
174.754
176.741
68.9543
8.36316
8.64989
9.4722
10.7544
12.4026
14.4722
17.0755
20.3065
24.4454
29.4839
35.7018
43.2066
52.4341
63.6344
77.4894
93.3605
114.449
134.955
163.705
172.045
171.152
66.6431
8.36265
8.64932
9.47142
10.7532
12.4008
14.4695
17.0713
20.2977
24.41
29.4541
35.6805
43.187
52.4017
63.5564
77.3447
93.0796
113.883
133.965
161.77
169.259
165.5
64.3717
8.36212
8.64872
9.4706
10.7519
12.399
14.4667
17.0668
20.2896
24.3741
29.4184
35.6528
43.1647
52.3667
63.4755
77.1924
92.7852
113.291
132.932
159.751
166.396
159.791
62.1473
8.36155
8.64807
9.46972
10.7506
12.3971
14.4637
17.062
20.2818
24.3394
29.3768
35.6167
43.1382
52.3309
63.3894
77.0316
92.4757
112.669
131.852
157.649
163.454
154.03
59.9726
8.36095
8.64739
9.46879
10.7491
12.395
14.4605
17.0569
20.2739
24.3075
29.3302
35.5704
43.1051
52.2913
63.2997
76.862
92.1508
112.017
130.725
155.462
160.431
148.223
57.8456
8.3603
8.64667
9.4678
10.7476
12.3928
14.4571
17.0515
20.2657
24.279
29.2802
35.5126
43.0625
52.2486
63.2041
76.6827
91.8091
111.332
129.547
153.189
157.327
142.377
55.7591
8.35962
8.6459
9.46675
10.7459
12.3905
14.4535
17.0458
20.2571
24.254
29.2286
35.443
43.0063
52.1982
63.1038
76.4932
91.45
110.614
128.318
150.83
154.138
136.501
53.7009
8.3589
8.64508
9.46564
10.7442
12.388
14.4497
17.0397
20.2479
24.2318
29.1778
35.3628
42.932
52.1383
62.9959
76.2924
91.0721
109.861
127.035
148.385
150.865
130.604
51.654
8.35813
8.64421
9.46445
10.7424
12.3854
14.4456
17.0332
20.238
24.2115
29.1293
35.275
42.836
52.0605
62.88
76.0798
90.6749
109.071
125.696
145.852
147.504
124.697
49.5982
8.35732
8.64329
9.46319
10.7404
12.3826
14.4413
17.0263
20.2275
24.192
29.084
35.1836
42.7169
51.9588
62.7506
75.8535
90.2568
108.242
124.3
143.232
144.055
118.791
47.5104
8.35645
8.6423
9.46185
10.7383
12.3797
14.4367
17.0189
20.2163
24.1727
29.0418
35.0927
42.5771
51.8219
62.6029
75.6115
89.8172
107.375
122.844
140.523
140.516
112.901
45.3667
8.35552
8.64126
9.46042
10.7361
12.3765
14.4319
17.0111
20.2043
24.1529
29.0022
35.0055
42.4227
51.6442
62.4253
75.3489
89.3538
106.467
121.326
137.726
136.885
107.04
43.143
8.35454
8.64014
9.45891
10.7338
12.3731
14.4267
17.0028
20.1916
24.1322
28.9641
34.9235
42.2624
51.4227
62.2058
75.0584
88.8643
105.518
119.744
134.841
133.162
101.221
40.8173
8.35349
8.63896
9.45729
10.7313
12.3696
14.4212
16.994
20.178
24.1105
28.9264
34.8468
42.1041
51.1654
61.93
74.7273
88.3436
104.526
118.098
131.868
129.346
95.4599
38.3702
8.35237
8.63769
9.45557
10.7287
12.3658
14.4153
16.9847
20.1636
24.0874
28.8879
34.7741
41.9536
50.8859
61.5912
74.3388
87.7842
103.488
116.386
128.809
125.437
89.7705
35.7866
8.35118
8.63634
9.45373
10.7259
12.3617
14.4091
16.9747
20.1482
24.0629
28.8479
34.7032
41.8125
50.6021
61.1922
73.8742
87.173
102.401
114.606
125.664
121.437
84.1669
33.0562
8.34991
8.63491
9.45178
10.7229
12.3574
14.4024
16.9641
20.1318
24.0368
28.8061
34.6322
41.6796
50.3274
60.7504
73.321
86.4936
101.257
112.757
122.436
117.348
78.6626
30.1746
8.34856
8.63338
9.44969
10.7197
12.3527
14.3954
16.9528
20.1143
24.009
28.7618
34.5591
41.5514
50.0691
60.2903
72.6804
85.727
100.047
110.836
119.126
113.172
73.2703
27.1434
8.34712
8.63174
9.44747
10.7163
12.3478
14.3878
16.9408
20.0957
23.9794
28.7148
34.4829
41.424
49.8267
59.8356
71.9723
84.8597
98.7573
108.844
115.74
108.915
68.0019
23.971
8.34557
8.63
9.4451
10.7127
12.3426
14.3798
16.928
20.0759
23.9479
28.6649
34.4026
41.2936
49.5945
59.4001
71.2291
83.8908
97.374
106.777
112.283
104.584
62.8686
20.6715
8.34393
8.62813
9.44256
10.7088
12.337
14.3712
16.9144
20.0548
23.9144
28.6118
34.3177
41.1579
49.3649
58.9861
70.4844
82.837
95.8886
104.635
108.766
100.187
57.8815
17.2648
8.34217
8.62615
9.43986
10.7047
12.331
14.362
16.8999
20.0323
23.8787
28.5554
34.2276
41.015
49.1312
58.5858
69.7593
81.7289
94.3019
102.42
105.205
95.7378
53.0523
13.7761
8.3403
8.62402
9.43697
10.7003
12.3246
14.3523
16.8845
20.0083
23.8408
28.4954
34.132
40.864
48.888
58.1875
69.0579
80.5996
92.6283
100.139
101.622
91.2551
48.3937
10.2344
8.33829
8.62175
9.43389
10.6957
12.3178
14.3418
16.868
19.9828
23.8003
28.4316
34.0304
40.7041
48.6324
57.7801
68.3691
79.4712
90.891
97.7998
98.0451
86.7638
43.921
6.67272
8.33615
8.61932
9.43059
10.6907
12.3105
14.3307
16.8504
19.9555
23.7572
28.3637
33.9225
40.5345
48.3626
57.3553
67.6756
78.3491
89.1146
95.4144
94.5059
82.2965
39.6521
3.12704
8.33385
8.61673
9.42707
10.6854
12.3027
14.3188
16.8317
19.9265
23.7114
28.2914
33.8079
40.3547
48.0774
56.9085
66.9609
77.223
87.3157
92.9878
91.0323
77.8924
35.6075
-0.36393
8.3314
8.61395
9.4233
10.6797
12.2944
14.3061
16.8117
19.8954
23.6625
28.2145
33.6862
40.1639
47.7759
56.4375
66.2136
76.0746
85.4993
90.5178
87.6378
73.593
31.8091
-3.75944
8.32878
8.61099
9.41927
10.6737
12.2855
14.2926
16.7904
19.8624
23.6104
28.1326
33.5569
39.9614
47.457
55.9409
65.4281
74.8858
83.6579
87.9959
84.3114
69.4344
28.2771
-7.01773
8.32597
8.60781
9.41496
10.6672
12.276
14.2781
16.7677
19.8271
23.5549
28.0455
33.4195
39.7467
47.1196
55.4174
64.6028
73.6446
81.7759
85.4149
81.0167
65.4348
25.026
-10.0978
8.32297
8.60441
9.41035
10.6603
12.2658
14.2626
16.7434
19.7894
23.4958
27.9528
33.2735
39.519
46.7628
54.8656
63.7373
72.3458
79.8362
82.7718
77.7056
61.584
22.0572
-12.962
8.31975
8.60077
9.40542
10.6529
12.255
14.246
16.7175
19.7492
23.4328
27.8541
33.1185
39.2776
46.3856
54.2841
62.8312
70.9897
77.8278
80.0644
74.3418
57.8415
19.3522
-15.5801
8.31631
8.59687
9.40014
10.6451
12.2433
14.2283
16.6899
19.7063
23.3656
27.7491
32.9539
39.0218
45.9871
53.6717
61.8832
69.5779
75.7487
77.2893
70.9135
54.1511
16.8673
-17.933
8.31262
8.5927
9.39448
10.6366
12.2309