/*--------------------------------*- C++ -*----------------------------------*\
| =========                 |                                                 |
| \\      /  F ield         | OpenFOAM: The Open Source CFD Toolbox           |
|  \\    /   O peration     | Version:  v1912                                 |
|   \\  /    A nd           | Website:  www.openfoam.com                      |
|    \\/     M anipulation  |                                                 |
\*---------------------------------------------------------------------------*/
FoamFile
{
    version     2.0;
    format      ascii;
    class       surfaceScalarField;
    location    "200";
    object      phi;
}
// * * * * * * * * * * * * * * * * * * * * * * * * * * * * * * * * * * * * * //

dimensions      [0 3 -1 0 0 0 0];
oriented        oriented;


internalField   nonuniform List<scalar> 
24588
(
6.8169e-05
1.88897e-08
6.81175e-05
5.19478e-08
6.80356e-05
8.0994e-08
6.79246e-05
1.11181e-07
6.77793e-05
1.44784e-07
6.75951e-05
1.84332e-07
6.73652e-05
2.2958e-07
6.7076e-05
2.88598e-07
6.67162e-05
3.6062e-07
6.62632e-05
4.52785e-07
6.56989e-05
5.65119e-07
6.50395e-05
6.8859e-07
6.40774e-05
8.70289e-07
6.29837e-05
1.18345e-06
6.15063e-05
1.45542e-06
5.92227e-05
2.2856e-06
5.63848e-05
2.83633e-06
5.17466e-05
4.63823e-06
4.52026e-05
6.54407e-06
3.40966e-05
1.11057e-05
2.03327e-05
1.37638e-05
2.03328e-05
6.81693e-05
3.82692e-08
6.81175e-05
1.04288e-07
6.80359e-05
1.6128e-07
6.79248e-05
2.22498e-07
6.77792e-05
2.89835e-07
6.75953e-05
3.68341e-07
6.73656e-05
4.58927e-07
6.70765e-05
5.76916e-07
6.67165e-05
7.21644e-07
6.62627e-05
9.06343e-07
6.56998e-05
1.12907e-06
6.50421e-05
1.37947e-06
6.40626e-05
1.74967e-06
6.29956e-05
2.33961e-06
6.15126e-05
2.91536e-06
5.92872e-05
4.51257e-06
5.6396e-05
5.7247e-06
5.17145e-05
9.31965e-06
4.52442e-05
1.30144e-05
3.39977e-05
2.23517e-05
2.0287e-05
2.74745e-05
4.06198e-05
6.81693e-05
5.76499e-08
6.81174e-05
1.56682e-07
6.80359e-05
2.41649e-07
6.79248e-05
3.33764e-07
6.77792e-05
4.34895e-07
6.75952e-05
5.52413e-07
6.73655e-05
6.88278e-07
6.70765e-05
8.65225e-07
6.67165e-05
1.0826e-06
6.62628e-05
1.35977e-06
6.56989e-05
1.69396e-06
6.50447e-05
2.06793e-06
6.40626e-05
2.62456e-06
6.29863e-05
3.52122e-06
6.15011e-05
4.37517e-06
5.93133e-05
6.70309e-06
5.63903e-05
8.64402e-06
5.17335e-05
1.39769e-05
4.52164e-05
1.95314e-05
3.40137e-05
3.35538e-05
2.03045e-05
4.11836e-05
6.09243e-05
6.81693e-05
7.70308e-08
6.81175e-05
2.08974e-07
6.80359e-05
3.21897e-07
6.79249e-05
4.45076e-07
6.77792e-05
5.79927e-07
6.75953e-05
7.36404e-07
6.73656e-05
9.17654e-07
6.70765e-05
1.15362e-06
6.67165e-05
1.4437e-06
6.62626e-05
1.81333e-06
6.56993e-05
2.25843e-06
6.50405e-05
2.75988e-06
6.4064e-05
3.50246e-06
6.29937e-05
4.67722e-06
6.15056e-05
5.84116e-06
5.93375e-05
8.8729e-06
5.64155e-05
1.15628e-05
5.17491e-05
1.86433e-05
4.52026e-05
2.60778e-05
3.40387e-05
4.47171e-05
2.0336e-05
5.48862e-05
8.12603e-05
6.81693e-05
9.64087e-08
6.81174e-05
2.61333e-07
6.80359e-05
4.0226e-07
6.79248e-05
5.56322e-07
6.77792e-05
7.24962e-07
6.75953e-05
9.2047e-07
6.73655e-05
1.14701e-06
6.70764e-05
1.44199e-06
6.67164e-05
1.80473e-06
6.62627e-05
2.26674e-06
6.56987e-05
2.82344e-06
6.50449e-05
3.4474e-06
6.40655e-05
4.37336e-06
6.29859e-05
5.86232e-06
6.1497e-05
7.30433e-06
5.93421e-05
1.10304e-05
5.64394e-05
1.44619e-05
5.17497e-05
2.33335e-05
4.52193e-05
3.26083e-05
3.40814e-05
5.58544e-05
2.03825e-05
6.85851e-05
0.000101643
6.81693e-05
1.1579e-07
6.81175e-05
3.13567e-07
6.8036e-05
4.8245e-07
6.79249e-05
6.67634e-07
6.77793e-05
8.69964e-07
6.75954e-05
1.10443e-06
6.73656e-05
1.3764e-06
6.70765e-05
1.73045e-06
6.67164e-05
2.16591e-06
6.62626e-05
2.72027e-06
6.56992e-05
3.38793e-06
6.50389e-05
4.14063e-06
6.40654e-05
5.25166e-06
6.29937e-05
7.01465e-06
6.15021e-05
8.77491e-06
5.93472e-05
1.31868e-05
5.64584e-05
1.73474e-05
5.17595e-05
2.80324e-05
4.52494e-05
3.91182e-05
3.41438e-05
6.69593e-05
2.04456e-05
8.22834e-05
0.000122088
6.81692e-05
1.35169e-07
6.81174e-05
3.65894e-07
6.80359e-05
5.6278e-07
6.79249e-05
7.78856e-07
6.77792e-05
1.01497e-06
6.75953e-05
1.2885e-06
6.73656e-05
1.60575e-06
6.70765e-05
2.01887e-06
6.67164e-05
2.52699e-06
6.62627e-05
3.17363e-06
6.56991e-05
3.95259e-06
6.50452e-05
4.82717e-06
6.40665e-05
6.12237e-06
6.29837e-05
8.20496e-06
6.14927e-05
1.02393e-05
5.93375e-05
1.53447e-05
5.64738e-05
2.0208e-05
5.17759e-05
3.2731e-05
4.52924e-05
4.56018e-05
3.42311e-05
7.80201e-05
2.05275e-05
9.59868e-05
0.000142616
6.81692e-05
1.54551e-07
6.81175e-05
4.1807e-07
6.8036e-05
6.4291e-07
6.7925e-05
8.90166e-07
6.77793e-05
1.15994e-06
6.75955e-05
1.47243e-06
6.73657e-05
1.83514e-06
6.70766e-05
2.30736e-06
6.67164e-05
2.8882e-06
6.62627e-05
3.62709e-06
6.56995e-05
4.51695e-06
6.50369e-05
5.52227e-06
6.40656e-05
7.0038e-06
6.29927e-05
9.35262e-06
6.14917e-05
1.17193e-05
5.9329e-05
1.75081e-05
5.64923e-05
2.30422e-05
5.18118e-05
3.74113e-05
4.53581e-05
5.20553e-05
3.43507e-05
8.9027e-05
2.06314e-05
0.000109706
0.000163247
6.81692e-05
1.73928e-07
6.81174e-05
4.70361e-07
6.80359e-05
7.23218e-07
6.79249e-05
1.00137e-06
6.77793e-05
1.3049e-06
6.75954e-05
1.65649e-06
6.73656e-05
2.06447e-06
6.70765e-05
2.59581e-06
6.67165e-05
3.24931e-06
6.62628e-05
4.08042e-06
6.56997e-05
5.08105e-06
6.50468e-05
6.20646e-06
6.40681e-05
7.87298e-06
6.29748e-05
1.05517e-05
6.14626e-05
1.32088e-05
5.93216e-05
1.96511e-05
5.6487e-05
2.58753e-05
5.18811e-05
4.20178e-05
4.54556e-05
5.8481e-05
3.45098e-05
9.99725e-05
2.07605e-05
0.000123455
0.000184008
6.81692e-05
1.93308e-07
6.81175e-05
5.22479e-07
6.80361e-05
8.03301e-07
6.7925e-05
1.11268e-06
6.77794e-05
1.44984e-06
6.75955e-05
1.84039e-06
6.73658e-05
2.29385e-06
6.70766e-05
2.88433e-06
6.67165e-05
3.61051e-06
6.62629e-05
4.53377e-06
6.57003e-05
5.64483e-06
6.50337e-05
6.9049e-06
6.40589e-05
8.76707e-06
6.29648e-05
1.17124e-05
6.14406e-05
1.47169e-05
5.9331e-05
2.17602e-05
5.64645e-05
2.87404e-05
5.19785e-05
4.65035e-05
4.55866e-05
6.48727e-05
3.47105e-05
0.000110848
2.09174e-05
0.000137248
0.000204925
6.81692e-05
2.12683e-07
6.81175e-05
5.74738e-07
6.80359e-05
8.83595e-07
6.7925e-05
1.22386e-06
6.77793e-05
1.59477e-06
6.75954e-05
2.02443e-06
6.73657e-05
2.52317e-06
6.70766e-05
3.17277e-06
6.67166e-05
3.97159e-06
6.62629e-05
4.98707e-06
6.57009e-05
6.20781e-06
6.50449e-05
7.59023e-06
6.40701e-05
9.63678e-06
6.29496e-05
1.2921e-05
6.14164e-05
1.62384e-05
5.93347e-05
2.38435e-05
5.64445e-05
3.16302e-05
5.20898e-05
5.08588e-05
4.57401e-05
7.12225e-05
3.49474e-05
0.000121641
2.1103e-05
0.000151093
0.000226028
6.81692e-05
2.32059e-07
6.81176e-05
6.26798e-07
6.80361e-05
9.63646e-07
6.79251e-05
1.33517e-06
6.77795e-05
1.73967e-06
6.75956e-05
2.2083e-06
6.73659e-05
2.75255e-06
6.70768e-05
3.46128e-06
6.67167e-05
4.33275e-06
6.62632e-05
5.44036e-06
6.57024e-05
6.76976e-06
6.5025e-05
8.29677e-06
6.40589e-05
1.05389e-05
6.29442e-05
1.40758e-05
6.13956e-05
1.77792e-05
5.93331e-05
2.59051e-05
5.64374e-05
3.45253e-05
5.21968e-05
5.5099e-05
4.58996e-05
7.75196e-05
3.52092e-05
0.000132331
2.13162e-05
0.000164986
0.000247345
6.81692e-05
2.51428e-07
6.81175e-05
6.79024e-07
6.8036e-05
1.04395e-06
6.7925e-05
1.44634e-06
6.77794e-05
1.88457e-06
6.75955e-05
2.39232e-06
6.73658e-05
2.98186e-06
6.70768e-05
3.74968e-06
6.67168e-05
4.69377e-06
6.62634e-05
5.89335e-06
6.57022e-05
7.33186e-06
6.50216e-05
9.00287e-06
6.40637e-05
1.14126e-05
6.29337e-05
1.52485e-05
6.13753e-05
1.93343e-05
5.933e-05
2.79515e-05
5.64406e-05
3.74148e-05
5.22863e-05
5.92537e-05
4.60519e-05
8.37543e-05
3.54839e-05
0.000142899
2.15544e-05
0.000178915
0.000268899
6.81692e-05
2.70796e-07
6.81176e-05
7.31027e-07
6.80361e-05
1.12399e-06
6.79251e-05
1.55764e-06
6.77795e-05
2.02944e-06
6.75957e-05
2.57614e-06
6.7366e-05
3.21123e-06
6.70769e-05
4.03814e-06
6.67169e-05
5.05488e-06
6.62638e-05
6.34625e-06
6.57017e-05
7.89507e-06
6.49935e-05
9.734e-06
6.40549e-05
1.23222e-05
6.29205e-05
1.63923e-05
6.13596e-05
2.08922e-05
5.9327e-05
2.99833e-05
5.64476e-05
4.02938e-05
5.23564e-05
6.33445e-05
4.6191e-05
8.99196e-05
3.57625e-05
0.000153327
2.18139e-05
0.000192864
0.000290713
6.81692e-05
2.90159e-07
6.81175e-05
7.83223e-07
6.8036e-05
1.20431e-06
6.7925e-05
1.66879e-06
6.77794e-05
2.17431e-06
6.75956e-05
2.76015e-06
6.73659e-05
3.44053e-06
6.70769e-05
4.32649e-06
6.6717e-05
5.41579e-06
6.62642e-05
6.79876e-06
6.57003e-05
8.45979e-06
6.49804e-05
1.04719e-05
6.406e-05
1.32021e-05
6.2908e-05
1.75628e-05
6.13483e-05
2.24514e-05
5.93242e-05
3.20082e-05
5.64544e-05
4.31637e-05
5.24105e-05
6.73888e-05
4.63156e-05
9.60146e-05
3.60391e-05
0.000163604
2.20912e-05
0.000206812
0.000312804
6.81692e-05
3.09519e-07
6.81176e-05
8.35171e-07
6.80362e-05
1.28434e-06
6.79251e-05
1.78009e-06
6.77796e-05
2.31915e-06
6.75958e-05
2.94393e-06
6.73661e-05
3.66989e-06
6.7077e-05
4.61496e-06
6.67171e-05
5.77681e-06
6.62641e-05
7.25154e-06
6.56967e-05
9.02816e-06
6.49724e-05
1.12101e-05
6.40588e-05
1.41131e-05
6.28986e-05
1.8722e-05
6.13403e-05
2.40083e-05
5.93216e-05
3.40263e-05
5.64596e-05
4.60254e-05
5.2453e-05
7.13951e-05
4.64272e-05
0.00010204
3.63107e-05
0.00017372
2.23829e-05
0.000220739
0.000335187
6.81692e-05
3.28871e-07
6.81175e-05
8.87335e-07
6.8036e-05
1.3647e-06
6.7925e-05
1.89122e-06
6.77795e-05
2.46399e-06
6.75957e-05
3.1279e-06
6.7366e-05
3.89916e-06
6.7077e-05
4.90334e-06
6.67172e-05
6.13762e-06
6.62646e-05
7.70376e-06
6.56897e-05
9.60384e-06
6.49734e-05
1.19341e-05
6.40565e-05
1.50094e-05
6.28912e-05
1.9897e-05
6.13346e-05
2.5565e-05
5.93189e-05
3.60427e-05
5.64631e-05
4.88814e-05
5.24878e-05
7.53707e-05
4.65279e-05
0.000108
3.65762e-05
0.000183672
2.26867e-05
0.000234629
0.000357874
6.81692e-05
3.4822e-07
6.81176e-05
9.39227e-07
6.80362e-05
1.44474e-06
6.79252e-05
2.00252e-06
6.77796e-05
2.6088e-06
6.75959e-05
3.31164e-06
6.73662e-05
4.12852e-06
6.70772e-05
5.19181e-06
6.67172e-05
6.49865e-06
6.6265e-05
8.15576e-06
6.5681e-05
1.01887e-05
6.49736e-05
1.26463e-05
6.40523e-05
1.59356e-05
6.28858e-05
2.10599e-05
6.13304e-05
2.71195e-05
5.93163e-05
3.80562e-05
5.64652e-05
5.17324e-05
5.25178e-05
7.93178e-05
4.66203e-05
0.000113898
3.68357e-05
0.000193456
2.30006e-05
0.000248464
0.000380874
6.81692e-05
3.67564e-07
6.81175e-05
9.91364e-07
6.8036e-05
1.52513e-06
6.7925e-05
2.11362e-06
6.77795e-05
2.75361e-06
6.75957e-05
3.49557e-06
6.73661e-05
4.35777e-06
6.70772e-05
5.48012e-06
6.67173e-05
6.8595e-06
6.62653e-05
8.60745e-06
6.56752e-05
1.07793e-05
6.49725e-05
1.33509e-05
6.40486e-05
1.68472e-05
6.28815e-05
2.2234e-05
6.13273e-05
2.86739e-05
5.9314e-05
4.00702e-05
5.64666e-05
5.45798e-05
5.25454e-05
8.32393e-05
4.6707e-05
0.000119736
3.70904e-05
0.000203073
2.33235e-05
0.000262231
0.000404198
6.81692e-05
3.86901e-07
6.81176e-05
1.0432e-06
6.80362e-05
1.60518e-06
6.79252e-05
2.22492e-06
6.77797e-05
2.89839e-06
6.7596e-05
3.67926e-06
6.73663e-05
4.58711e-06
6.70774e-05
5.76848e-06
6.67174e-05
7.22057e-06
6.62619e-05
9.06279e-06
6.56736e-05
1.13682e-05
6.49698e-05
1.40563e-05
6.40452e-05
1.77782e-05
6.28782e-05
2.33971e-05
6.13251e-05
3.02264e-05
5.9312e-05
4.20827e-05
5.6468e-05
5.74236e-05
5.25722e-05
8.71348e-05
4.67904e-05
0.000125518
3.73417e-05
0.000212521
2.36551e-05
0.000275917
0.000427853
6.81692e-05
4.06232e-07
6.81175e-05
1.09531e-06
6.8036e-05
1.68563e-06
6.79251e-05
2.336e-06
6.77796e-05
3.04316e-06
6.75958e-05
3.86315e-06
6.73662e-05
4.81632e-06
6.70775e-05
6.05667e-06
6.67177e-05
7.58128e-06
6.62545e-05
9.52565e-06
6.56764e-05
1.19465e-05
6.49672e-05
1.47658e-05
6.40425e-05
1.86935e-05
6.28756e-05
2.45696e-05
6.13235e-05
3.17789e-05
5.93105e-05
4.40963e-05
5.64699e-05
6.02644e-05
5.25998e-05
9.10052e-05
4.68724e-05
0.000131246
3.75914e-05
0.000221802
2.39953e-05
0.000289513
0.000451848
6.81692e-05
4.25556e-07
6.81177e-05
1.14708e-06
6.80363e-05
1.76569e-06
6.79252e-05
2.44728e-06
6.77798e-05
3.18791e-06
6.75961e-05
4.04678e-06
6.73665e-05
5.04561e-06
6.70777e-05
6.34495e-06
6.67181e-05
7.94193e-06
6.62458e-05
9.99778e-06
6.56797e-05
1.25129e-05
6.49646e-05
1.54817e-05
6.40403e-05
1.9624e-05
6.28737e-05
2.57324e-05
6.13226e-05
3.33294e-05
5.93099e-05
4.61084e-05
5.6473e-05
6.31011e-05
5.26293e-05
9.48487e-05
4.69547e-05
0.00013692
3.78417e-05
0.000230915
2.43447e-05
0.00030301
0.000476193
6.81692e-05
4.44876e-07
6.81175e-05
1.19916e-06
6.8036e-05
1.84618e-06
6.79251e-05
2.55834e-06
6.77796e-05
3.33265e-06
6.75959e-05
4.23063e-06
6.73664e-05
5.27473e-06
6.70777e-05
6.63309e-06
6.67186e-05
8.302e-06
6.62395e-05
1.04764e-05
6.56816e-05
1.30708e-05
6.49625e-05
1.62008e-05
6.40385e-05
2.05402e-05
6.28722e-05
2.69036e-05
6.13223e-05
3.48796e-05
5.93104e-05
4.81209e-05
5.64777e-05
6.59339e-05
5.26612e-05
9.86655e-05
4.70386e-05
0.000142543
3.80946e-05
0.000239859
2.47038e-05
0.000316401
0.000500897
6.81692e-05
4.64186e-07
6.81177e-05
1.25089e-06
6.80363e-05
1.92626e-06
6.79253e-05
2.66962e-06
6.77798e-05
3.47736e-06
6.75962e-05
4.4142e-06
6.73667e-05
5.50395e-06
6.7078e-05
6.92132e-06
6.67189e-05
8.66206e-06
6.62356e-05
1.09596e-05
6.56821e-05
1.36245e-05
6.49607e-05
1.69227e-05
6.40371e-05
2.14699e-05
6.28712e-05
2.80658e-05
6.13227e-05
3.64275e-05
5.93122e-05
5.01309e-05
5.64845e-05
6.87614e-05
5.26959e-05
0.000102454
4.7125e-05
0.000148114
3.83522e-05
0.000248632
2.5074e-05
0.000329679
0.000525971
6.81692e-05
4.83493e-07
6.81175e-05
1.30294e-06
6.8036e-05
2.00681e-06
6.79251e-05
2.78065e-06
6.77797e-05
3.62207e-06
6.75961e-05
4.598e-06
6.73666e-05
5.733e-06
6.7078e-05
7.20934e-06
6.67193e-05
9.02178e-06
6.62336e-05
1.14448e-05
6.56818e-05
1.41763e-05
6.49592e-05
1.76452e-05
6.4036e-05
2.23862e-05
6.28706e-05
2.92357e-05
6.13239e-05
3.79746e-05
5.93156e-05
5.21397e-05
5.64936e-05
7.15835e-05
5.27336e-05
0.000106214
4.72146e-05
0.000153633
3.86168e-05
0.00025723
2.54563e-05
0.00034284
0.000551427
6.81692e-05
5.02787e-07
6.81177e-05
1.3546e-06
6.80363e-05
2.08691e-06
6.79253e-05
2.89191e-06
6.77799e-05
3.76675e-06
6.75964e-05
4.7815e-06
6.73669e-05
5.96217e-06
6.70784e-05
7.49737e-06
6.6718e-05
9.38309e-06
6.62333e-05
1.19294e-05
6.56812e-05
1.47286e-05
6.4958e-05
1.83688e-05
6.40351e-05
2.33148e-05
6.28705e-05
3.03966e-05
6.13258e-05
3.95188e-05
5.93207e-05
5.41443e-05
5.65052e-05
7.43988e-05
5.27742e-05
0.000109945
4.73078e-05
0.000159099
3.88904e-05
0.000265647
2.58524e-05
0.000355878
0.00057728
6.81692e-05
5.22083e-07
6.81175e-05
1.40662e-06
6.8036e-05
2.1675e-06
6.79251e-05
3.00291e-06
6.77798e-05
3.91142e-06
6.75962e-05
4.96524e-06
6.73668e-05
6.19118e-06
6.70785e-05
7.78507e-06
6.67132e-05
9.74932e-06
6.62368e-05
1.24054e-05
6.56805e-05
1.52848e-05
6.4957e-05
1.90923e-05
6.40345e-05
2.42309e-05
6.28708e-05
3.15647e-05
6.13286e-05
4.10614e-05
5.93275e-05
5.61459e-05
5.65193e-05
7.72072e-05
5.28175e-05
0.000113647
4.74048e-05
0.000164512
3.9175e-05
0.000273877
2.62638e-05
0.000368789
0.000603543
6.81692e-05
5.41362e-07
6.81177e-05
1.45824e-06
6.80363e-05
2.24762e-06
6.79253e-05
3.11416e-06
6.778e-05
4.05606e-06
6.75965e-05
5.14867e-06
6.73671e-05
6.42032e-06
6.7079e-05
8.07266e-06
6.67062e-05
1.01231e-05
6.62421e-05
1.28695e-05
6.568e-05
1.5847e-05
6.49561e-05
1.98165e-05
6.40341e-05
2.51584e-05
6.28715e-05
3.27237e-05
6.13321e-05
4.26002e-05
5.9336e-05
5.81415e-05
5.6536e-05
8.0007e-05
5.28636e-05
0.000117319
4.75058e-05
0.00016987
3.94722e-05
0.00028191
2.6692e-05
0.000381569
0.000630235
6.81692e-05
5.60644e-07
6.81175e-05
1.51023e-06
6.8036e-05
2.32826e-06
6.79252e-05
3.22514e-06
6.77798e-05
4.2007e-06
6.75963e-05
5.33233e-06
6.7367e-05
6.64929e-06
6.70792e-05
8.3599e-06
6.67008e-05
1.05024e-05
6.62462e-05
1.33237e-05
6.56795e-05
1.64137e-05
6.49555e-05
2.05404e-05
6.4034e-05
2.60739e-05
6.28726e-05
3.38894e-05
6.13365e-05
4.41368e-05
5.9346e-05
6.01325e-05
5.65551e-05
8.2798e-05
5.29122e-05
0.000120962
4.76106e-05
0.000175172
3.97833e-05
0.000289738
2.71384e-05
0.000394214
0.000657374
6.81693e-05
5.79908e-07
6.81177e-05
1.56178e-06
6.80364e-05
2.4084e-06
6.79254e-05
3.33637e-06
6.77801e-05
4.3453e-06
6.75967e-05
5.51567e-06
6.73673e-05
6.8784e-06
6.70797e-05
8.64704e-06
6.66974e-05
1.08855e-05
6.62488e-05
1.37724e-05
6.56791e-05
1.69835e-05
6.4955e-05
2.12648e-05
6.4034e-05
2.70002e-05
6.28742e-05
3.50456e-05
6.13416e-05
4.56687e-05
5.93575e-05
6.21161e-05
5.65767e-05
8.55786e-05
5.29635e-05
0.000124575
4.7719e-05
0.000180416
4.0109e-05
0.000297347
2.76043e-05
0.000406718
0.000684978
6.81692e-05
5.99179e-07
6.81175e-05
1.61374e-06
6.80361e-05
2.48908e-06
6.79252e-05
3.44731e-06
6.77799e-05
4.48989e-06
6.75965e-05
5.69925e-06
6.73672e-05
7.10729e-06
6.70798e-05
8.93392e-06
6.66953e-05
1.12707e-05
6.62506e-05
1.42169e-05
6.56788e-05
1.75553e-05
6.49546e-05
2.19889e-05
6.40343e-05
2.79147e-05
6.28761e-05
3.62081e-05
6.13474e-05
4.71979e-05
5.93703e-05
6.40938e-05
5.66007e-05
8.83484e-05
5.30173e-05
0.000128159
4.78307e-05
0.000185603
4.04498e-05
0.000304728
2.80905e-05
0.000419078
0.000713069
6.81693e-05
6.18428e-07
6.81178e-05
1.66525e-06
6.80364e-05
2.56923e-06
6.79255e-05
3.55852e-06
6.77802e-05
4.63445e-06
6.75968e-05
5.88251e-06
6.73676e-05
7.33631e-06
6.70802e-05
9.22081e-06
6.66942e-05
1.16575e-05
6.62518e-05
1.46594e-05
6.56786e-05
1.81286e-05
6.49544e-05
2.27134e-05
6.40347e-05
2.88394e-05
6.28784e-05
3.73608e-05
6.13539e-05
4.87218e-05
5.93844e-05
6.60626e-05
5.66271e-05
9.11056e-05
5.30737e-05
0.000131712
4.79456e-05
0.000190731
4.08054e-05
0.000311869
2.85976e-05
0.000431285
0.000741666
6.81692e-05
6.37687e-07
6.81175e-05
1.71718e-06
6.80361e-05
2.64995e-06
6.79252e-05
3.66943e-06
6.778e-05
4.779e-06
6.75967e-05
6.06603e-06
6.73675e-05
7.56507e-06
6.70803e-05
9.50756e-06
6.66936e-05
1.2045e-05
6.62528e-05
1.50999e-05
6.56784e-05
1.87029e-05
6.49543e-05
2.34374e-05
6.40354e-05
2.97526e-05
6.28811e-05
3.85195e-05
6.13609e-05
5.02426e-05
5.93997e-05
6.80245e-05
5.66558e-05
9.38496e-05
5.31327e-05
0.000135235
4.80635e-05
0.0001958
4.11754e-05
0.000318757
2.9126e-05
0.000443335
0.000770792
6.81693e-05
6.56921e-07
6.81178e-05
1.76862e-06
6.80365e-05
2.73011e-06
6.79255e-05
3.78062e-06
6.77803e-05
4.92351e-06
6.7597e-05
6.24923e-06
6.73679e-05
7.79392e-06
6.70806e-05
9.7944e-06
6.66934e-05
1.24329e-05
6.62536e-05
1.55398e-05
6.56784e-05
1.92782e-05
6.49543e-05
2.41618e-05
6.40362e-05
3.06757e-05
6.28841e-05
3.96679e-05
6.13685e-05
5.17574e-05
5.94161e-05
6.99763e-05
5.66869e-05
9.65787e-05
5.31945e-05
0.000138728
4.81843e-05
0.00020081
4.15594e-05
0.000325382
2.96758e-05
0.000455218
0.000800468
6.81692e-05
6.76167e-07
6.81175e-05
1.82053e-06
6.80361e-05
2.81087e-06
6.79253e-05
3.8915e-06
6.77801e-05
5.06801e-06
6.75968e-05
6.43269e-06
6.73679e-05
8.02247e-06
6.70806e-05
1.00812e-05
6.66933e-05
1.28209e-05
6.62544e-05
1.59785e-05
6.56784e-05
1.98541e-05
6.49544e-05
2.48857e-05
6.40373e-05
3.15875e-05
6.28873e-05
4.08225e-05
6.13767e-05
5.32687e-05
5.94337e-05
7.192e-05
5.67203e-05
9.92922e-05
5.32591e-05
0.000142189
4.83083e-05
0.000205761
4.19569e-05
0.000331733
3.0247e-05
0.000466928
0.000830715
6.81693e-05
6.95388e-07
6.81178e-05
1.87192e-06
6.80365e-05
2.89103e-06
6.79256e-05
4.00267e-06
6.77804e-05
5.21246e-06
6.75972e-05
6.61584e-06
6.73684e-05
8.25109e-06
6.70806e-05
1.03685e-05
6.66937e-05
1.32085e-05
6.62551e-05
1.64172e-05
6.56785e-05
2.04307e-05
6.49547e-05
2.56099e-05
6.40385e-05
3.25086e-05
6.2891e-05
4.19662e-05
6.13854e-05
5.47735e-05
5.94523e-05
7.38525e-05
5.67559e-05
0.000101988
5.33266e-05
0.000145618
4.84356e-05
0.000210652
4.23678e-05
0.000337801
3.08398e-05
0.000478456
0.000861555
6.81692e-05
7.14626e-07
6.81175e-05
1.9238e-06
6.80361e-05
2.9718e-06
6.79254e-05
4.1135e-06
6.77802e-05
5.3569e-06
6.7597e-05
6.79926e-06
6.73684e-05
8.47937e-06
6.70783e-05
1.0658e-05
6.66961e-05
1.35911e-05
6.62557e-05
1.68574e-05
6.56787e-05
2.10076e-05
6.49551e-05
2.63335e-05
6.40399e-05
3.34185e-05
6.28949e-05
4.31159e-05
6.13945e-05
5.62745e-05
5.94719e-05
7.57759e-05
5.67937e-05
0.000104667
5.33972e-05
0.000149015
4.85667e-05
0.000215482
4.2792e-05
0.000343575
3.14546e-05
0.000489794
0.00089301
6.81693e-05
7.33835e-07
6.81178e-05
1.97513e-06
6.80366e-05
3.05194e-06
6.79257e-05
4.22464e-06
6.77806e-05
5.50128e-06
6.75974e-05
6.98233e-06
6.73688e-05
8.70779e-06
6.70705e-05
1.09559e-05
6.67038e-05
1.3958e-05
6.62564e-05
1.73049e-05
6.5679e-05
2.1585e-05
6.49555e-05
2.70572e-05
6.40414e-05
3.43375e-05
6.28991e-05
4.42544e-05
6.14042e-05
5.77685e-05
5.94925e-05
7.7687e-05
5.68337e-05
0.000107325
5.3471e-05
0.000152377
4.87017e-05
0.000220251
4.323e-05
0.000349047
3.20918e-05
0.000500932
0.000925101
6.81692e-05
7.53067e-07
6.81176e-05
2.02699e-06
6.80362e-05
3.13272e-06
6.79254e-05
4.33543e-06
6.77804e-05
5.64567e-06
6.75972e-05
7.16565e-06
6.73687e-05
8.93595e-06
6.70637e-05
1.12605e-05
6.67105e-05
1.43113e-05
6.62569e-05
1.77583e-05
6.56793e-05
2.21626e-05
6.49561e-05
2.77802e-05
6.40432e-05
3.5245e-05
6.29035e-05
4.53986e-05
6.14144e-05
5.92584e-05
5.95141e-05
7.9588e-05
5.68757e-05
0.000109964
5.35482e-05
0.000155705
4.88409e-05
0.000224959
4.3682e-05
0.000354206
3.27521e-05
0.000511862
0.000957854
6.81693e-05
7.72265e-07
6.81179e-05
2.07827e-06
6.80366e-05
3.21284e-06
6.79257e-05
4.44654e-06
6.77807e-05
5.79e-06
6.75977e-05
7.3486e-06
6.73691e-05
9.16436e-06
6.70612e-05
1.15679e-05
6.67131e-05
1.46595e-05
6.62574e-05
1.8214e-05
6.56796e-05
2.27405e-05
6.49568e-05
2.85034e-05
6.4045e-05
3.6162e-05
6.29083e-05
4.65311e-05
6.14251e-05
6.07407e-05
5.95367e-05
8.14757e-05
5.69197e-05
0.000112581
5.3629e-05
0.000158996
4.89842e-05
0.000229604
4.41478e-05
0.000359042
3.3436e-05
0.000522573
0.000991289
6.81692e-05
7.91487e-07
6.81176e-05
2.13007e-06
6.80362e-05
3.29359e-06
6.79255e-05
4.5573e-06
6.77805e-05
5.93433e-06
6.75976e-05
7.53171e-06
6.73678e-05
9.39376e-06
6.7061e-05
1.18745e-05
6.6714e-05
1.50065e-05
6.62579e-05
1.867e-05
6.568e-05
2.33183e-05
6.49576e-05
2.92257e-05
6.40471e-05
3.70659e-05
6.29134e-05
4.76702e-05
6.14363e-05
6.22189e-05
5.95602e-05
8.33527e-05
5.69655e-05
0.000115176
5.37137e-05
0.000162248
4.91311e-05
0.000234186
4.46259e-05
0.000363547
3.41427e-05
0.000533057
0.00102543
6.81693e-05
8.10675e-07
6.81179e-05
2.18135e-06
6.80366e-05
3.37377e-06
6.79258e-05
4.66832e-06
6.77807e-05
6.07868e-06
6.75981e-05
7.7143e-06
6.73603e-05
9.63132e-06
6.70661e-05
1.21685e-05
6.67143e-05
1.53584e-05
6.62582e-05
1.91262e-05
6.56804e-05
2.38962e-05
6.49584e-05
2.9948e-05
6.40493e-05
3.79807e-05
6.29187e-05
4.87961e-05
6.1448e-05
6.36885e-05
5.95846e-05
8.52153e-05
5.70129e-05
0.000117747
5.38027e-05
0.000165458
4.92812e-05
0.000238708
4.51116e-05
0.000367717
3.48691e-05
0.000543299
0.0010603
6.81692e-05
8.2989e-07
6.81176e-05
2.23314e-06
6.80362e-05
3.45456e-06
6.79256e-05
4.779e-06
6.77805e-05
6.22306e-06
6.75981e-05
7.89693e-06
6.73526e-05
9.87644e-06
6.70716e-05
1.24495e-05
6.67144e-05
1.57155e-05
6.62585e-05
1.9582e-05
6.56808e-05
2.44738e-05
6.49594e-05
3.06693e-05
6.40517e-05
3.88817e-05
6.29243e-05
4.99289e-05
6.14603e-05
6.51537e-05
5.961e-05
8.70664e-05
5.70619e-05
0.000120295
5.38961e-05
0.000168624
4.94337e-05
0.00024317
4.55952e-05
0.000371555
3.56074e-05
0.000553287
0.00109591
6.81692e-05
8.48999e-07
6.8118e-05
2.28422e-06
6.80368e-05
3.53454e-06
6.7926e-05
4.89001e-06
6.7781e-05
6.3673e-06
6.75987e-05
8.07921e-06
6.73502e-05
1.01246e-05
6.70733e-05
1.27265e-05
6.67144e-05
1.60743e-05
6.62587e-05
2.00378e-05
6.56813e-05
2.50513e-05
6.49604e-05
3.13905e-05
6.40542e-05
3.97936e-05
6.29302e-05
5.10483e-05
6.14729e-05
6.66099e-05
5.96363e-05
8.89022e-05
5.71119e-05
0.000122819
5.39953e-05
0.00017174
4.95877e-05
0.000247578
4.60733e-05
0.00037507
3.64364e-05
0.000562924
0.00113235
-7.71349e-06
7.7133e-06
-1.31844e-05
5.47078e-06
-1.34694e-05
2.84758e-07
-1.03199e-05
-3.14954e-06
-7.68819e-06
-2.63294e-06
-6.41253e-06
-1.27544e-06
-5.87722e-06
-5.35238e-07
-5.59464e-06
-2.81402e-07
-4.99574e-06
-5.96496e-07
-4.11106e-06
-8.75427e-07
-3.08656e-06
-9.27912e-07
-1.78232e-06
-1.3736e-06
1.33371e-08
-1.79296e-06
2.66877e-06
-2.67566e-06
6.50456e-06
-3.84323e-06
1.11638e-05
-4.66087e-06
1.59723e-05
-4.80624e-06
2.05179e-05
-4.54474e-06
2.4689e-05
-4.16801e-06
2.84885e-05
-3.80156e-06
3.20872e-05
-3.5988e-06
3.57107e-05
-3.62324e-06
3.96493e-05
-3.93873e-06
4.41572e-05
-4.50794e-06
5.02509e-05
-6.09408e-06
5.7939e-05
-7.68834e-06
6.37335e-05
-5.79417e-06
6.59376e-05
-2.20375e-06
6.64915e-05
-5.54002e-07
6.67152e-05
-2.23668e-07
6.69351e-05
-2.19874e-07
6.71435e-05
-2.08357e-07
6.73104e-05
-1.66891e-07
6.74472e-05
-1.36816e-07
-6.48259e-08
-7.57355e-06
1.52865e-05
-1.29983e-05
1.08952e-05
-1.32805e-05
5.6663e-07
-1.01177e-05
-6.31243e-06
-7.49904e-06
-5.25392e-06
-6.2298e-06
-2.54433e-06
-5.715e-06
-1.0499e-06
-5.48739e-06
-5.06726e-07
-4.99254e-06
-1.08675e-06
-4.19447e-06
-1.65516e-06
-3.14924e-06
-1.81547e-06
-1.72957e-06
-2.90166e-06
2.12458e-07
-3.73024e-06
2.80469e-06
-5.30827e-06
6.41329e-06
-7.46653e-06
1.09007e-05
-9.15154e-06
1.57087e-05
-9.6096e-06
2.03146e-05
-9.14878e-06
2.45223e-05
-8.36987e-06
2.83279e-05
-7.61098e-06
3.19137e-05
-7.18503e-06
3.54922e-05
-7.2012e-06
3.93461e-05
-7.79285e-06
4.37541e-05
-8.9161e-06
4.97879e-05
-1.21285e-05
5.75915e-05
-1.54926e-05
6.36072e-05
-1.18092e-05
6.59184e-05
-4.51437e-06
6.64962e-05
-1.1318e-06
6.67191e-05
-4.46496e-07
6.69366e-05
-4.37436e-07
6.71446e-05
-4.16242e-07
6.73116e-05
-3.33835e-07
6.74483e-05
-2.73522e-07
-1.29645e-07
-7.42673e-06
2.27129e-05
-1.27786e-05
1.62468e-05
-1.30299e-05
8.1754e-07
-9.85074e-06
-9.49163e-06
-7.25549e-06
-7.8515e-06
-6.01322e-06
-3.78617e-06
-5.54209e-06
-1.52088e-06
-5.39368e-06
-6.53019e-07
-4.98917e-06
-1.48695e-06
-4.2277e-06
-2.39992e-06
-3.12346e-06
-2.75227e-06
-1.56426e-06
-4.58248e-06
4.79819e-07
-5.76853e-06
2.96022e-06
-7.83057e-06
6.32364e-06
-1.08449e-05
1.06641e-05
-1.34956e-05
1.54807e-05
-1.44214e-05
2.01457e-05
-1.38118e-05
2.43919e-05
-1.26097e-05
2.82112e-05
-1.14342e-05
3.17887e-05
-1.07629e-05
3.5327e-05
-1.07389e-05
3.91007e-05
-1.15667e-05
4.34104e-05
-1.32259e-05
4.93693e-05
-1.8088e-05
5.72652e-05
-2.33891e-05
6.3487e-05
-1.80303e-05
6.59008e-05
-6.92763e-06
6.65012e-05
-1.73223e-06
6.67233e-05
-6.68548e-07
6.69386e-05
-6.5272e-07
6.71461e-05
-6.23661e-07
6.7313e-05
-5.00734e-07
6.74495e-05
-4.10042e-07
-1.94377e-07
-7.259e-06
2.99715e-05
-1.25248e-05
2.15123e-05
-1.27186e-05
1.01098e-06
-9.50968e-06
-1.27007e-05
-6.95568e-06
-1.04079e-05
-5.75613e-06
-4.98535e-06
-5.33775e-06
-1.93909e-06
-5.26394e-06
-7.24466e-07
-4.93503e-06
-1.81113e-06
-4.20576e-06
-3.10997e-06
-3.04244e-06
-3.76391e-06
-1.33586e-06
-6.39572e-06
8.14861e-07
-7.91334e-06
3.18212e-06
-1.02487e-05
6.29144e-06
-1.39722e-05
1.04614e-05
-1.76699e-05
1.52693e-05
-1.92229e-05
1.99948e-05
-1.85346e-05
2.42906e-05
-1.6898e-05
2.81358e-05
-1.52841e-05
3.17132e-05
-1.43408e-05
3.52161e-05
-1.42411e-05
3.89134e-05
-1.52642e-05
4.31241e-05
-1.74369e-05
4.89942e-05
-2.39588e-05
5.6959e-05
-3.13546e-05
6.33718e-05
-2.44423e-05
6.58842e-05
-9.43948e-06
6.65066e-05
-2.35463e-06
6.67279e-05
-8.89811e-07
6.69409e-05
-8.65765e-07
6.71479e-05
-8.30545e-07
6.73147e-05
-6.67487e-07
6.74509e-05
-5.4626e-07
-2.5894e-07
-7.07041e-06
3.70416e-05
-1.22323e-05
2.66739e-05
-1.23362e-05
1.11447e-06
-9.08675e-06
-1.59502e-05
-6.59601e-06
-1.2901e-05
-5.45476e-06
-6.12609e-06
-5.09689e-06
-2.29679e-06
-5.09231e-06
-7.26888e-07
-4.82755e-06
-2.0715e-06
-4.12488e-06
-3.79549e-06
-2.89281e-06
-4.84387e-06
-1.02282e-06
-8.38148e-06
1.24303e-06
-1.01713e-05
3.49537e-06
-1.25559e-05
6.342e-06
-1.68372e-05
1.03151e-05
-2.16479e-05
1.50873e-05
-2.39882e-05
1.98689e-05
-2.33134e-05
2.42251e-05
-2.12449e-05
2.81082e-05
-1.91725e-05
3.16927e-05
-1.79258e-05
3.51632e-05
-1.7711e-05
3.87862e-05
-1.88873e-05
4.2896e-05
-2.15468e-05
4.86618e-05
-2.97252e-05
5.66713e-05
-3.93648e-05
6.3261e-05
-3.10314e-05
6.58687e-05
-1.20466e-05
6.65123e-05
-2.99833e-06
6.67329e-05
-1.11029e-06
6.69437e-05
-1.07661e-06
6.71501e-05
-1.03685e-06
6.73166e-05
-8.33996e-07
6.74525e-05
-6.82073e-07
-3.23263e-07
-6.86049e-06
4.39017e-05
-1.18955e-05
3.17087e-05
-1.18721e-05
1.09049e-06
-8.5737e-06
-1.92488e-05
-6.17076e-06
-1.53064e-05
-5.10285e-06
-7.19358e-06
-4.81251e-06
-2.5869e-06
-4.87182e-06
-6.64958e-07
-4.66264e-06
-2.27552e-06
-3.97881e-06
-4.45794e-06
-2.65661e-06
-6.02131e-06
-5.97151e-07
-1.05484e-05
1.79495e-06
-1.25553e-05
3.92861e-06
-1.47598e-05
6.50686e-06
-1.94381e-05
1.02629e-05
-2.54096e-05
1.49687e-05
-2.86849e-05
1.97934e-05
-2.8134e-05
2.42154e-05
-2.56552e-05
2.8145e-05
-2.31089e-05
3.17395e-05
-2.15209e-05
3.51769e-05
-2.11476e-05
3.8724e-05
-2.24347e-05
4.27282e-05
-2.55512e-05
4.83724e-05
-3.53702e-05
5.64015e-05
-4.73947e-05
6.31544e-05
-3.77836e-05
6.58541e-05
-1.47457e-05
6.65185e-05
-3.66276e-06
6.67383e-05
-1.33e-06
6.69469e-05
-1.28528e-06
6.71527e-05
-1.2425e-06
6.73189e-05
-1.00015e-06
6.74542e-05
-8.17358e-07
-3.87264e-07
-6.62839e-06
5.05298e-05
-1.15082e-05
3.65882e-05
-1.13169e-05
8.98584e-07
-7.96396e-06
-2.26019e-05
-5.67297e-06
-1.75998e-05
-4.692e-06
-8.17395e-06
-4.47571e-06
-2.803e-06
-4.59383e-06
-5.44376e-07
-4.43351e-06
-2.43112e-06
-3.75812e-06
-5.11383e-06
-2.31118e-06
-7.32616e-06
-2.16454e-08
-1.29521e-05
2.51517e-06
-1.50807e-05
4.52336e-06
-1.685e-05
6.8231e-06
-2.17617e-05
1.03498e-05
-2.89429e-05
1.49657e-05
-3.32913e-05
1.98153e-05
-3.29791e-05
2.43005e-05
-3.01255e-05
2.82771e-05
-2.70939e-05
3.18766e-05
-2.51209e-05
3.52728e-05
-2.4543e-05
3.87364e-05
-2.58984e-05
4.26263e-05
-2.94412e-05
4.81289e-05
-4.08735e-05
5.61502e-05
-5.54167e-05
6.3052e-05
-4.46847e-05
6.58406e-05
-1.75337e-05
6.6525e-05
-4.34726e-06
6.67441e-05
-1.54898e-06
6.69506e-05
-1.49184e-06
6.71557e-05
-1.44745e-06
6.73214e-05
-1.16585e-06
6.74561e-05
-9.52015e-07
-4.5087e-07
-6.37299e-06
5.69024e-05
-1.10636e-05
4.12785e-05
-1.06661e-05
5.00233e-07
-7.25776e-06
-2.60103e-05
-5.09741e-06
-1.97627e-05
-4.21331e-06
-9.05758e-06
-4.07628e-06
-2.93971e-06
-4.24784e-06
-3.69716e-07
-4.13006e-06
-2.5429e-06
-3.44934e-06
-5.76915e-06
-1.83038e-06
-8.80229e-06
7.47049e-07
-1.56377e-05
3.46209e-06
-1.77848e-05
5.34099e-06
-1.88367e-05
7.33944e-06
-2.37917e-05
1.06281e-05
-3.22395e-05
1.51452e-05
-3.77954e-05
2.00064e-05
-3.78338e-05
2.45451e-05
-3.46452e-05
2.8558e-05
-3.11176e-05
3.21449e-05
-2.87087e-05
3.54794e-05
-2.78763e-05
3.88411e-05