/*--------------------------------*- C++ -*----------------------------------*\
| =========                 |                                                 |
| \\      /  F ield         | OpenFOAM: The Open Source CFD Toolbox           |
|  \\    /   O peration     | Version:  v1912                                 |
|   \\  /    A nd           | Website:  www.openfoam.com                      |
|    \\/     M anipulation  |                                                 |
\*---------------------------------------------------------------------------*/
FoamFile
{
    version     2.0;
    format      ascii;
    class       volScalarField;
    location    "200";
    object      yPlus;
}
// * * * * * * * * * * * * * * * * * * * * * * * * * * * * * * * * * * * * * //

dimensions      [0 0 0 0 0 0 0];


internalField   uniform 0;

boundaryField
{
    inlet
    {
        type            calculated;
        value           uniform 0;
    }
    outlet
    {
        type            calculated;
        value           uniform 0;
    }
    lowerSymmetry
    {
        type            symmetryPlane;
    }
    obstical
    {
        type            calculated;
        value           nonuniform List<scalar> 
88
(
490.174
492.313
496.649
503.202
511.902
522.658
535.372
549.95
566.297
584.32
603.93
625.037
647.55
671.373
696.41
722.567
749.757
777.901
806.933
836.795
867.442
898.838
930.959
963.787
997.314
1031.54
1066.47
1102.11
1138.48
1175.6
1213.49
1252.17
1291.67
1332
1373.19
1415.26
1458.24
1502.14
1546.99
1592.81
1639.63
1687.51
1736.85
1791.58
163.788
162.412
161.221
160.525
160.327
160.601
161.312
162.412
163.849
165.568
167.514
169.634
171.878
174.201
176.565
178.939
181.306
183.664
186.032
188.443
190.939
193.549
196.153
198.738
201.241
203.596
205.752
207.691
209.444
211.098
212.776
214.563
216.391
217.902
218.36
216.686
211.633
202.036
186.958
165.685
137.585
101.943
57.725
21.0328
)
;
    }
    obsticalTop
    {
        type            calculated;
        value           nonuniform List<scalar> 
20
(
53.2058
38.3835
46.8743
53.0565
55.9602
57.6471
58.2979
58.0515
57.1629
55.7678
53.8475
51.3001
48.0391
43.8923
38.8273
32.2202
25.9587
16.6678
14.9076
10.2528
)
;
    }
    top
    {
        type            calculated;
        value           uniform 0;
    }
    defaultFaces
    {
        type            empty;
    }
}


// ************************************************************************* //
