/*--------------------------------*- C++ -*----------------------------------*\
| =========                 |                                                 |
| \\      /  F ield         | OpenFOAM: The Open Source CFD Toolbox           |
|  \\    /   O peration     | Version:  v1912                                 |
|   \\  /    A nd           | Website:  www.openfoam.com                      |
|    \\/     M anipulation  |                                                 |
\*---------------------------------------------------------------------------*/
FoamFile
{
    version     2.0;
    format      ascii;
    class       volScalarField;
    location    "800";
    object      mag(U);
}
// * * * * * * * * * * * * * * * * * * * * * * * * * * * * * * * * * * * * * //

dimensions      [0 1 -1 0 0 0 0];


internalField   nonuniform List<scalar> 
1640
(
24.9999
24.9988
24.9973
24.9961
24.9958
24.9957
24.9958
24.9959
24.9961
24.9962
24.9962
24.9963
24.9963
24.9963
24.9963
24.9994
24.9947
24.9868
24.9783
24.971
24.9656
24.9618
24.9594
24.9579
24.9571
24.9567
24.9565
24.9564
24.9563
24.9564
24.9992
24.992
24.9795
24.9656
24.9537
24.9453
24.9402
24.9378
24.9372
24.9374
24.9381
24.9387
24.9393
24.9397
24.9401
24.9991
24.9906
24.9744
24.9536
24.9325
24.9141
24.9004
24.8917
24.8873
24.8861
24.887
24.8891
24.8914
24.8937
24.8956
24.9991
24.9906
24.973
24.948
24.9185
24.889
24.8646
24.8492
24.8438
24.8466
24.8547
24.8654
24.8762
24.8857
24.8935
24.9992
24.9911
24.9738
24.9475
24.9127
24.8715
24.8286
24.7914
24.7665
24.756
24.7584
24.7701
24.7871
24.8064
24.8255
24.9993
24.9917
24.9753
24.9494
24.913
24.8647
24.8063
24.744
24.6892
24.6546
24.6475
24.6666
24.7037
24.7482
24.7921
24.9993
24.9922
24.9768
24.9521
24.9157
24.865
24.7977
24.7151
24.6236
24.5371
24.4724
24.4421
24.4502
24.4914
24.5554
24.9993
24.9926
24.978
24.9543
24.9188
24.8681
24.7979
24.7055
24.5917
24.4659
24.3485
24.2673
24.2446
24.2817
24.3681
24.9994
24.9929
24.9788
24.9558
24.9212
24.8705
24.7983
24.6987
24.5667
24.401
24.2097
24.0179
23.8698
23.8002
23.8153
24.9964
24.9964
24.9965
24.9965
24.9965
24.9965
24.9966
24.9967
24.9969
24.9972
24.9976
24.9983
24.9564
24.9564
24.9565
24.9565
24.9565
24.9566
24.9567
24.9567
24.9568
24.9569
24.957
24.9572
24.9404
24.9406
24.9408
24.9412
24.9416
24.942
24.9425
24.9429
24.9429
24.9424
24.9411
24.9388
24.8972
24.8988
24.9007
24.9031
24.9058
24.909
24.9121
24.9145
24.9149
24.9111
24.9015
24.8861
24.8995
24.9053
24.9124
24.9213
24.9319
24.9437
24.9552
24.963
24.962
24.946
24.9109
24.8597
24.8423
24.8598
24.8824
24.9104
24.9443
24.9816
25.0161
25.037
25.0316
24.9883
24.9011
24.7781
24.8298
24.8686
24.9201
24.9866
25.0664
25.1482
25.2127
25.2388
25.2095
25.1124
24.9411
24.702
24.6271
24.7151
24.8373
24.9945
25.1703
25.3263
25.4235
25.4418
25.3768
25.2248
24.9718
24.5907
24.4808
24.6351
24.8638
25.1522
25.4358
25.6334
25.7074
25.6671
25.5355
25.3197
24.9866
24.4467
23.936
24.2225
24.694
25.2311
25.6551
25.8759
25.9109
25.8146
25.6341
25.3835
25.0034
24.3269
24.9991
25.0001
25.0013
25.003
25.0049
25.007
25.0094
25.0118
25.0143
25.0168
25.019
25.0212
25.023
25.0245
25.0257
25.0265
25.0269
25.0264
25.0259
25.0218
24.9575
24.9586
24.961
24.9646
24.9695
24.9749
24.9807
24.9868
24.993
24.999
25.0046
25.0098
25.0146
25.0187
25.0223
25.0253
25.0278
25.0303
25.0318
25.037
24.9371
24.938
24.9434
24.9528
24.9637
24.9743
24.9843
24.9939
25.0031
25.0112
25.0179
25.0235
25.0281
25.0319
25.0347
25.0369
25.0384
25.0395
25.0403
25.039
24.8719
24.8695
24.8834
24.9068
24.9283
24.9449
24.9602
24.9755
24.9888
24.9995
25.008
25.0151
25.021
25.0256
25.0292
25.032
25.0341
25.0358
25.0367
25.0394
24.8174
24.8157
24.8564
24.9046
24.934
24.9512
24.9688
24.9862
24.9993
25.008
25.0146
25.0201
25.0243
25.0275
25.0298
25.0315
25.0327
25.0335
25.0341
25.034
24.6866
24.7068
24.8078
24.8888
24.921
24.9397
24.9631
24.9842
24.9978
25.0066
25.0133
25.0189
25.0232
25.0263
25.0286
25.0303
25.0316
25.0328
25.0335
25.0358
24.5462
24.6263
24.8073
24.9048
24.927
24.9438
24.9691
24.9891
25.0003
25.0072
25.0129
25.0178
25.0217
25.0252
25.0284
25.0319
25.0357
25.0401
25.0445
25.0515
24.3704
24.5556
24.8189
24.9188
24.9316
24.9489
24.9748
24.9932
25.003
25.0099
25.0169
25.0243
25.0314
25.0379
25.0435
25.0468
25.0468
25.04
25.0329
24.993
24.1754
24.487
24.8059
24.8946
24.8988
24.9165
24.9442
24.9657
24.9801
24.9902
24.996
24.9942
24.9816
24.9556
24.9153
24.8605
24.7925
24.7098
24.6326
24.4889
24.0102
24.4343
24.7809
24.8606
24.868
24.8919
24.9159
24.9147
24.8814
24.8171
24.7253
24.612
24.4855
24.3552
24.23
24.118
24.0241
23.9532
23.9036
23.8809
24.9994
24.9933
24.98
24.9582
24.9254
24.8775
24.8088
24.713
24.5832
24.4127
24.1964
23.9416
23.6748
23.4497
23.3262
24.9994
24.9937
24.9811
24.9608
24.9305
24.8867
24.8249
24.74
24.6268
24.4814
24.2987
24.0732
23.7836
23.4251
22.9855
23.0859
22.6301
22.0979
21.5265
20.9099
20.2708
19.6402
19.1364
18.4775
18.0414
22.4807
21.8833
21.1808
20.3469
19.3562
18.1844
16.7551
15.0979
12.8814
11.94
23.5469
23.9875
24.7085
25.4405
25.8926
26.0462
26.0007
25.8399
25.6178
25.3467
24.9406
24.1491
23.3095
23.9877
24.9169
25.7026
26.105
26.199
26.1087
25.919
25.6787
25.3941
24.9611
24.0569
23.0895
24.1254
25.2557
26.0225
26.3439
26.3768
26.2445
26.0282
25.7731
25.4825
25.0366
24.0345
22.9451
24.4225
25.6862
26.3635
26.591
26.5654
26.3953
26.1587
25.8933
25.6036
25.1394
24.1384
22.9017
24.8554
26.1539
26.6954
26.8342
26.7652
26.5782
26.3426
26.0793
25.7939
25.2673
24.3144
22.9997
25.4012
26.634
27.025
27.1052
27.033
26.8554
26.5918
26.2304
25.7041
24.7968
23.4617
23.2353
25.9997
27.1138
27.4193
27.4906
27.3544
26.9518
26.2721
25.3638
24.3716
23.1534
21.6803
23.6137
26.6102
27.6874
27.9539
27.6964
26.9125
25.776
24.5502
23.389
22.371
21.2042
19.6722
23.6746
27.0862
28.0438
27.4079
26.0227
24.5326
23.2095
22.0397
20.9912
20.1203
19.1311
17.5772
23.6866
25.3262
23.5432
21.8259
21.1057
20.6262
19.9671
19.1899
18.4345
17.7777
16.9664
15.4466
23.8234
24.3544
24.7401
24.8354
24.8245
24.7689
24.6493
24.4643
24.2444
24.0286
23.845
23.7077
23.6198
23.5765
23.5699
23.5916
23.6329
23.6905
23.745
23.8598
23.7389
24.373
24.7372
24.6714
24.3954
24.064
23.7511
23.5034
23.3424
23.2656
23.254
23.2857
23.3441
23.4183
23.5019
23.5907
23.6812
23.7751
23.8546
23.9953
23.7566
24.2846
24.2713
23.7828
23.2757
22.9601
22.8355
22.8342
22.9048
23.0141
23.1413
23.2724
23.4001
23.5209
23.634
23.7401
23.8395
23.9366
24.0167
24.1533
23.5822
23.5135
23.0321
22.5167
22.2893
22.3284
22.503
22.7162
22.9263
23.12
23.2939
23.448
23.584
23.705
23.8139
23.9135
24.0054
24.0944
24.1677
24.2925
22.6741
22.081
21.7757
21.7362
21.9481
22.2838
22.6234
22.9146
23.1534
23.3508
23.5165
23.6571
23.7781
23.8841
23.9793
24.0663
24.1472
24.2263
24.2919
24.4045
21.0002
20.7623
21.1278
21.6139
22.1069
22.5516
22.9149
23.1954
23.4114
23.583
23.7238
23.842
23.9434
24.0327
24.1137
24.1888
24.2598
24.3302
24.3891
24.4913
19.3913
20.0647
21.1092
21.8922
22.4567
22.8876
23.2143
23.456
23.6367
23.7777
23.8927
23.9896
24.0734
24.1484
24.2177
24.2833
24.3463
24.4099
24.4636
24.5575
18.2753
19.9752
21.4354
22.2863
22.8136
23.1904
23.4679
23.6684
23.8156
23.9295
24.0228
24.1022
24.1721
24.2361
24.2965
24.355
24.412
24.4705
24.5202
24.6076
17.7473
20.2539
21.8497
22.6549
23.1154
23.4352
23.6675
23.8324
23.9518
24.044
24.1203
24.1865
24.246
24.3019
24.3557
24.409
24.4617
24.5164
24.5631
24.6455
17.7266
20.6553
22.2267
22.9566
23.3533
23.6241
23.8193
23.9559
24.0537
24.1293
24.1928
24.2491
24.301
24.3511
24.4002
24.4498
24.4994
24.5512
24.5957
24.6741
24.9995
24.9942
24.9826
24.9639
24.936
24.8956
24.8383
24.7591
24.6519
24.5124
24.3335
24.1115
23.8173
23.4473
22.9584
24.9995
24.9948
24.9843
24.9674
24.9419
24.9047
24.8508
24.7744
24.6677
24.5218
24.3257
24.0845
23.8164
23.6002
23.4742
22.3896
21.7169
20.89
19.8587
18.5784
17.0127
15.1185
12.9908
10.5398
8.74431
23.1564
22.5465
21.852
21.1364
20.4089
19.7015
19.0493
18.5224
17.9873
17.0977
24.8214
26.6797
25.4261
24.1498
23.1248
22.0639
20.8781
19.5844
18.0987
15.2316
25.0992
28.8863
29.1683
28.0061
26.534
25.0806
23.6469
22.1972
20.6857
17.6037
25.0923
28.8613
29.8757
29.6824
28.8657
27.6888
26.3091
24.7757
23.0625
19.9639
24.892
28.4403
29.5197
29.7311
29.5809
29.0736
28.208
26.9275
25.2362
22.1553
24.7092
28.052
29.165
29.4058
29.3576
29.0814
28.6014
27.8346
26.8094
24.1226
24.5241
27.614
28.8118
29.102
29.0659
28.8027
28.342
27.6566
26.9278
25.083
24.3797
27.1645
28.4529
28.8173
28.8137
28.574
28.1294
27.4652
26.6807
25.1651
24.3054
26.732
28.0949
28.5478
28.5854
28.378
27.9602
27.3205
26.5297
25.0634
24.3329
26.3592
27.7585
28.3149
28.4117
28.2452
27.8595
27.2464
26.4786
25.0615
24.4366
26.0517
27.4037
28.0441
28.2001
28.0837
27.7514
27.1879
26.4539
25.1137
18.0648
21.0798
22.5696
23.2211
23.5584
23.785
23.9474
24.0595
24.1387
24.2004
24.2533
24.3016
24.3473
24.3926
24.438
24.4845
24.5315
24.581
24.6236
24.6986
18.9687
21.6131
22.96
23.5162
23.7843
23.9607
24.0862
24.1712
24.2303
24.277
24.3187
24.3586
24.398
24.4384
24.4799
24.5232
24.5674
24.6143
24.6549
24.7259
20.2917
22.3484
23.4461
23.8688
24.0498
24.1648
24.2464
24.2997
24.3359
24.3659
24.3955
24.4264
24.4589
24.4941
24.5314
24.5712
24.6122
24.656
24.6939
24.7597
21.773
23.2112
23.9897
24.243
24.3232
24.3724
24.4092
24.4315
24.446
24.4609
24.4796
24.5027
24.5294
24.5598
24.5932
24.6295
24.667
24.7071
24.7417
24.8006
23.0949
23.9542
24.4276
24.5222
24.5173
24.5187
24.5276
24.5334
24.538
24.5467
24.5615
24.5817
24.6059
24.634
24.6647
24.6977
24.7316
24.767
24.7975
24.8468
23.7677
24.2572
24.5499
24.5678
24.5372
24.5363
24.5528
24.5697
24.5858
24.6045
24.6272
24.653
24.6806
24.7097
24.7397
24.7699
24.7997
24.8291
24.8537
24.8907
23.8128
24.2008
24.4841
24.5163
24.5071
24.5281
24.5644
24.5978
24.6274
24.6566
24.6871
24.7179
24.7481
24.7774
24.8053
24.8315
24.8558
24.8782
24.8961
24.9211
23.7896
24.161
24.4781
24.5384
24.5491
24.5849
24.6317
24.6718
24.7047
24.7347
24.7638
24.7912
24.8167
24.8402
24.8616
24.8808
24.8979
24.9133
24.9252
24.9417
23.8734
24.2106
24.5479
24.6248
24.6435
24.683
24.7301
24.7679
24.7966
24.8207
24.843
24.8629
24.8806
24.8961
24.9098
24.9217
24.9322
24.9415
24.9487
24.9592
24.0599
24.3457
24.6802
24.7567
24.7672
24.7969
24.834
24.8618
24.8804
24.8949
24.9079
24.9193
24.929
24.9375
24.9448
24.9513
24.957
24.9624
24.9666
24.9734
24.9996
24.9951
24.9853
24.9694
24.9455
24.9105
24.86
24.7886
24.6907
24.562
24.4074
24.2551
24.1591
24.1896
24.3502
24.9996
24.9955
24.9864
24.9718
24.95
24.9188
24.8751
24.8163
24.7425
24.6601
24.5889
24.5621
24.6128
24.7538
24.9642
24.9996
24.996
24.9881
24.9757
24.9578
24.9332
24.9011
24.8634
24.8266
24.8048
24.8176
24.8812
24.999
25.1608
25.3453
24.9997
24.9969
24.991
24.982
24.9703
24.9563
24.9429
24.9362
24.9466
24.9853
25.0585
25.1627
25.2869
25.4174
25.5418
24.9998
24.9983
24.9955
24.9921
24.99
24.9921
25.004
25.032
25.0811
25.1504
25.2337
25.3227
25.4096
25.4892
25.5583
25
25.0004
25.0023
25.0072
25.0181
25.0387
25.0722
25.1188
25.175
25.2354
25.295
25.3502
25.3987
25.4394
25.4726
25.0003
25.0035
25.0114
25.0257
25.0479
25.0783
25.1149
25.1545
25.1937
25.23
25.2619
25.2887
25.3106
25.3277
25.3412
25.0006
25.0067
25.0195
25.0386
25.0621
25.0876
25.1129
25.1365
25.1571
25.1743
25.1883
25.1991
25.2074
25.2137
25.2185
25.0008
25.0074
25.0192
25.0337
25.0486
25.0626
25.0749
25.0853
25.0937
25.1002
25.1051
25.1087
25.1114
25.1134
25.1149
25.0007
25.0051
25.0116
25.0183
25.0243
25.0293
25.0334
25.0365
25.039
25.0407
25.042
25.0429
25.0436
25.0441
25.0444
24.8985
25.9949
27.1172
27.7995
28.0592
28.0377
27.7834
27.2859
26.6083
25.4274
25.3629
26.0601
26.8396
27.4079
27.6674
27.6744
27.4725
27.0525
26.4598
25.5256
25.6054
25.9914
26.4374
26.8261
27.0634
27.131
27.0351
26.7565
26.3096
25.6204
25.6911
25.8927
26.1274
26.3603
26.5394
26.6243
26.5932
26.4246
26.1174
25.655
25.6346
25.7311
25.8398
25.9514
26.0472
26.1035
26.0999
26.0192
25.8536
25.5974
25.507
25.5483
25.5936
25.6406
25.684
25.7152
25.7233
25.6967
25.6261
25.5062
25.3544
25.3698
25.3861
25.403
25.419
25.4314
25.4364
25.4294
25.4054
25.3606
25.2231
25.2282
25.2336
25.2392
25.2445
25.2491
25.2516
25.2508
25.2447
25.2317
25.1163
25.1179
25.1195
25.1211
25.1227
25.1241
25.125
25.125
25.1237
25.1203
25.0448
25.0452
25.0456
25.046
25.0464
25.0469
25.0471
25.0473
25.0471
25.0467
24.434
24.5687
24.8438
24.8951
24.8818
24.8926
24.9155
24.9317
24.9406
24.947
24.953
24.9586
24.9635
24.9676
24.9715
24.975
24.9784
24.9817
24.9844
24.989
24.692
24.6862
24.9016
24.949
24.9282
24.9314
24.9502
24.9642
24.9714
24.9762
24.9809
24.9854
24.9891
24.9924
24.9951
24.9977
25
25.0022
25.0038
25.0063
24.9622
24.8381
24.9726
25.0151
24.99
24.9827
24.9945
25.0044
25.008
25.0096
25.0114
25.0133
25.0146
25.0156
25.0162
25.0167
25.017
25.0171
25.017
25.0168
25.1786
24.986
25.0211
25.0445
25.0169
24.9984
25.001
25.0069
25.0084
25.0085
25.0091
25.0102
25.0112
25.012
25.0126
25.0131
25.0135
25.0139
25.014
25.0143
25.3031
25.1181
25.0788
25.076
25.0513
25.0277
25.0217
25.0231
25.0232
25.0219
25.0213
25.0215
25.0217
25.0219
25.0218
25.0218
25.0216
25.0213
25.021
25.0202
25.3518
25.2198
25.1506
25.1196
25.0909
25.0627
25.0452
25.0368
25.031
25.0256
25.0217
25.019
25.0173
25.0158
25.0147
25.0138
25.013
25.0123
25.0117
25.0103
25.2939
25.2221
25.1655
25.1278
25.0989
25.0732
25.053
25.0398
25.031
25.0242
25.0191
25.0157
25.0134
25.0119
25.0106
25.0098
25.0091
25.0085
25.0077
25.0074
25.2098
25.1812
25.1522
25.1272
25.1058
25.0865
25.0693
25.0552
25.0438
25.0347
25.0269
25.0207
25.0158
25.0118
25.0085
25.0058
25.0036
25.0015
25
24.9956
25.1139
25.1043
25.0927
25.0807
25.0687
25.0573
25.0462
25.036
25.0271
25.0194
25.0127
25.0071
25.0025
24.9988
24.9959
24.9935
24.9916
24.99
24.9889
24.9888
25.0456
25.0436
25.0411
25.038
25.0348
25.0313
25.0279
25.0244
25.021
25.0177
25.0149
25.0121
25.0095
25.0072
25.0049
25.0026
25.0004
24.9973
24.9949
24.9867
)
;

boundaryField
{
    inlet
    {
        type            calculated;
        value           uniform 25;
    }
    outlet
    {
        type            calculated;
        value           nonuniform List<scalar> 
40
(
25.0218
25.037
25.039
25.0394
25.034
25.0358
25.0515
24.993
24.4889
23.8809
23.8598
23.9953
24.1533
24.2925
24.4045
24.4913
24.5575
24.6076
24.6455
24.6741
24.6986
24.7259
24.7597
24.8006
24.8468
24.8907
24.9211
24.9417
24.9592
24.9734
24.989
25.0063
25.0168
25.0143
25.0202
25.0103
25.0074
24.9956
24.9888
24.9867
)
;
    }
    topBottom
    {
        type            calculated;
        value           nonuniform List<scalar> 
92
(
24.9999
24.9988
24.9973
24.9961
24.9958
24.9957
24.9958
24.9959
24.9961
24.9962
24.9962
24.9963
24.9963
24.9963
24.9963
24.9964
24.9964
24.9965
24.9965
24.9965
24.9965
24.9966
24.9967
24.9969
24.9972
24.9976
24.9983
24.9991
25.0001
25.0013
25.003
25.0049
25.007
25.0094
25.0118
25.0143
25.0168
25.019
25.0212
25.023
25.0245
25.0257
25.0265
25.0269
25.0264
25.0259
25.0218
25
25
25
25
25
25
25
25
25
25
25
25
25
25
25
25
25
25
25
25
25
25
25
25
25
25
25
25
25
25
25
25
25
25
25
25
25
25
25
25
25
25
25
25
25
)
;
    }
    wing
    {
        type            calculated;
        value           uniform 0;
    }
    defaultFaces
    {
        type            empty;
    }
}


// ************************************************************************* //
