/*--------------------------------*- C++ -*----------------------------------*\
| =========                 |                                                 |
| \\      /  F ield         | OpenFOAM: The Open Source CFD Toolbox           |
|  \\    /   O peration     | Version:  v1912                                 |
|   \\  /    A nd           | Website:  www.openfoam.com                      |
|    \\/     M anipulation  |                                                 |
\*---------------------------------------------------------------------------*/
FoamFile
{
    version     2.0;
    format      ascii;
    class       volScalarField;
    location    "800";
    object      nut;
}
// * * * * * * * * * * * * * * * * * * * * * * * * * * * * * * * * * * * * * //

dimensions      [0 2 -1 0 0 0 0];


internalField   nonuniform List<scalar> 
1640
(
7.36478e-05
7.36556e-05
7.3663e-05
7.36678e-05
7.36723e-05
7.36753e-05
7.3678e-05
7.36798e-05
7.36814e-05
7.36824e-05
7.36833e-05
7.3684e-05
7.36845e-05
7.36849e-05
7.36852e-05
7.36463e-05
7.36504e-05
7.36553e-05
7.36574e-05
7.36602e-05
7.36614e-05
7.36631e-05
7.36639e-05
7.3665e-05
7.36654e-05
7.36661e-05
7.36664e-05
7.36667e-05
7.36669e-05
7.36671e-05
7.36431e-05
7.3644e-05
7.36445e-05
7.36446e-05
7.36445e-05
7.36443e-05
7.3644e-05
7.3644e-05
7.36441e-05
7.36441e-05
7.36442e-05
7.36443e-05
7.36444e-05
7.36444e-05
7.36444e-05
7.36442e-05
7.36472e-05
7.36496e-05
7.36517e-05
7.36536e-05
7.36554e-05
7.36567e-05
7.36578e-05
7.36584e-05
7.36588e-05
7.36591e-05
7.36592e-05
7.36593e-05
7.36594e-05
7.36595e-05
7.36449e-05
7.36524e-05
7.36554e-05
7.366e-05
7.36622e-05
7.36657e-05
7.36678e-05
7.36705e-05
7.36719e-05
7.36732e-05
7.36738e-05
7.36743e-05
7.36745e-05
7.36747e-05
7.36747e-05
7.36457e-05
7.36554e-05
7.36594e-05
7.3665e-05
7.36676e-05
7.36717e-05
7.36743e-05
7.36783e-05
7.36809e-05
7.36837e-05
7.36849e-05
7.36859e-05
7.36859e-05
7.36855e-05
7.36855e-05
7.36463e-05
7.36573e-05
7.3662e-05
7.3668e-05
7.36707e-05
7.36747e-05
7.36775e-05
7.3682e-05
7.36852e-05
7.36904e-05
7.36934e-05
7.36967e-05
7.3698e-05
7.36991e-05
7.36984e-05
7.36489e-05
7.36567e-05
7.36649e-05
7.36689e-05
7.36734e-05
7.36759e-05
7.36792e-05
7.36821e-05
7.36872e-05
7.36913e-05
7.3698e-05
7.37015e-05
7.37049e-05
7.37034e-05
7.3704e-05
7.3649e-05
7.36576e-05
7.36657e-05
7.36703e-05
7.36747e-05
7.36772e-05
7.36802e-05
7.36828e-05
7.36869e-05
7.36921e-05
7.37004e-05
7.37104e-05
7.37228e-05
7.37333e-05
7.37407e-05
7.36483e-05
7.36589e-05
7.36656e-05
7.36706e-05
7.36733e-05
7.36753e-05
7.3676e-05
7.36773e-05
7.36783e-05
7.36838e-05
7.36897e-05
7.36998e-05
7.37127e-05
7.37073e-05
7.37186e-05
7.36854e-05
7.36857e-05
7.36859e-05
7.36863e-05
7.36866e-05
7.36872e-05
7.36877e-05
7.36885e-05
7.36894e-05
7.36906e-05
7.36919e-05
7.36937e-05
7.36672e-05
7.36674e-05
7.36675e-05
7.36677e-05
7.36679e-05
7.36682e-05
7.36685e-05
7.3669e-05
7.36694e-05
7.36702e-05
7.36708e-05
7.3672e-05
7.36445e-05
7.36445e-05
7.36445e-05
7.36445e-05
7.36446e-05
7.36446e-05
7.36446e-05
7.36447e-05
7.36448e-05
7.36449e-05
7.36451e-05
7.36455e-05
7.36595e-05
7.36596e-05
7.36597e-05
7.36599e-05
7.366e-05
7.36603e-05
7.36605e-05
7.3661e-05
7.36612e-05
7.36618e-05
7.36614e-05
7.36615e-05
7.36748e-05
7.36749e-05
7.36752e-05
7.36755e-05
7.3676e-05
7.36764e-05
7.36772e-05
7.36777e-05
7.36785e-05
7.36778e-05
7.36783e-05
7.36794e-05
7.36855e-05
7.36858e-05
7.36863e-05
7.36868e-05
7.3688e-05
7.36891e-05
7.36911e-05
7.36924e-05
7.36944e-05
7.36948e-05
7.36957e-05
7.36966e-05
7.36984e-05
7.36988e-05
7.36996e-05
7.37014e-05
7.37027e-05
7.37057e-05
7.3706e-05
7.37069e-05
7.37088e-05
7.37147e-05
7.3721e-05
7.37411e-05
7.37052e-05
7.37056e-05
7.37074e-05
7.37111e-05
7.37179e-05
7.37262e-05
7.3735e-05
7.37434e-05
7.37529e-05
7.37615e-05
7.37739e-05
7.37774e-05
7.3748e-05
7.37583e-05
7.37771e-05
7.38051e-05
7.38393e-05
7.38725e-05
7.39047e-05
7.3933e-05
7.39602e-05
7.39844e-05
7.40124e-05
7.40171e-05
7.37484e-05
7.37867e-05
7.38451e-05
7.39308e-05
7.4022e-05
7.4115e-05
7.42111e-05
7.43218e-05
7.44523e-05
7.46053e-05
7.47477e-05
7.48655e-05
7.36954e-05
7.36974e-05
7.36992e-05
7.37014e-05
7.37032e-05
7.37055e-05
7.37073e-05
7.37095e-05
7.37112e-05
7.37134e-05
7.37149e-05
7.37171e-05
7.37184e-05
7.37204e-05
7.37216e-05
7.37237e-05
7.37248e-05
7.3727e-05
7.37293e-05
7.37335e-05
7.36728e-05
7.36742e-05
7.3675e-05
7.36766e-05
7.36776e-05
7.36793e-05
7.36804e-05
7.36824e-05
7.36836e-05
7.36859e-05
7.36873e-05
7.36899e-05
7.36915e-05
7.36944e-05
7.36962e-05
7.36996e-05
7.37016e-05
7.37055e-05
7.37074e-05
7.37136e-05
7.36457e-05
7.3646e-05
7.36461e-05
7.36463e-05
7.36464e-05
7.36467e-05
7.36469e-05
7.36472e-05
7.36475e-05
7.36479e-05
7.36482e-05
7.36488e-05
7.36491e-05
7.36499e-05
7.36502e-05
7.36511e-05
7.36515e-05
7.36525e-05
7.36531e-05
7.36542e-05
7.36618e-05
7.36625e-05
7.36631e-05
7.36646e-05
7.36654e-05
7.36668e-05
7.36676e-05
7.36694e-05
7.36703e-05
7.36723e-05
7.36734e-05
7.36758e-05
7.3677e-05
7.36798e-05
7.36814e-05
7.36847e-05
7.36865e-05
7.36904e-05
7.36932e-05
7.36986e-05
7.36799e-05
7.36807e-05
7.36828e-05
7.36854e-05
7.36872e-05
7.36894e-05
7.36912e-05
7.36937e-05
7.36958e-05
7.36985e-05
7.37008e-05
7.37039e-05
7.37066e-05
7.37102e-05
7.37135e-05
7.37179e-05
7.37225e-05
7.3727e-05
7.37372e-05
7.37509e-05
7.36976e-05
7.37012e-05
7.37059e-05
7.37114e-05
7.37142e-05
7.37188e-05
7.37219e-05
7.37272e-05
7.37306e-05
7.37364e-05
7.37407e-05
7.37474e-05
7.37542e-05
7.37614e-05
7.37808e-05
7.37915e-05
7.38558e-05
7.38967e-05
7.41127e-05
7.45475e-05
7.37461e-05
7.37488e-05
7.37548e-05
7.37594e-05
7.37627e-05
7.37702e-05
7.37771e-05
7.37907e-05
7.38044e-05
7.3826e-05
7.38679e-05
7.39147e-05
7.40715e-05
7.42693e-05
7.47472e-05
7.54932e-05
7.64724e-05
7.96071e-05
8.04498e-05
9.80756e-05
7.37972e-05
7.38373e-05
7.3881e-05
7.39408e-05
7.39962e-05
7.40896e-05
7.41878e-05
7.43594e-05
7.4658e-05
7.51868e-05
7.63493e-05
7.84941e-05
8.23644e-05
8.97621e-05
9.9582e-05
0.000119468
0.000137514
0.000188179
0.000210157
0.000379928
7.40671e-05
7.42199e-05
7.44262e-05
7.46795e-05
7.51103e-05
7.59694e-05
7.75258e-05
8.14798e-05
8.81556e-05
0.000105596
0.00012678
0.000178627
0.000225899
0.00033978
0.000429079
0.000627478
0.000778584
0.0011376
0.00132393
0.0019373
7.50089e-05
7.60207e-05
7.64533e-05
8.11898e-05
8.66751e-05
0.000105612
0.000137858
0.000204021
0.000327804
0.000512838
0.00077278
0.00111743
0.00150137
0.00191121
0.00229108
0.00266157
0.00295218
0.00316625
0.00327918
0.00337168
7.3649e-05
7.36578e-05
7.36659e-05
7.36703e-05
7.36746e-05
7.36766e-05
7.3679e-05
7.36806e-05
7.3683e-05
7.36852e-05
7.36897e-05
7.36915e-05
7.37055e-05
7.37213e-05
7.39063e-05
7.36502e-05
7.36575e-05
7.36674e-05
7.36711e-05
7.3676e-05
7.36768e-05
7.36772e-05
7.36802e-05
7.36828e-05
7.36893e-05
7.36932e-05
7.37081e-05
7.37074e-05
7.37126e-05
7.37517e-05
7.38887e-05
7.39077e-05
7.39608e-05
7.40251e-05
7.4086e-05
7.40352e-05
7.40947e-05
7.40045e-05
7.71441e-05
0.000135051
7.37758e-05
7.38176e-05
7.37924e-05
7.38073e-05
7.38177e-05
7.39418e-05
7.40218e-05
7.47258e-05
7.36013e-05
9.94679e-05
7.39805e-05
7.40401e-05
7.41582e-05
7.4257e-05
7.4318e-05
7.43652e-05
7.44212e-05
7.44927e-05
7.45791e-05
7.46969e-05
7.49061e-05
7.53299e-05
7.39477e-05
7.401e-05
7.40825e-05
7.40797e-05
7.41182e-05
7.42297e-05
7.44199e-05
7.45934e-05
7.48771e-05
7.50405e-05
7.52397e-05
7.52745e-05
7.39697e-05
7.403e-05
7.40319e-05
7.41485e-05
7.42812e-05
7.47382e-05
7.49857e-05
7.57202e-05
7.60821e-05
7.69813e-05
7.69276e-05
7.81943e-05
7.4062e-05
7.40778e-05
7.41082e-05
7.44277e-05
7.46427e-05
7.55325e-05
7.59891e-05
7.80359e-05
7.89892e-05
8.16117e-05
8.61064e-05
0.000117869
7.41922e-05
7.40689e-05
7.41914e-05
7.47156e-05
7.51506e-05
7.81498e-05
7.81472e-05
9.26634e-05
8.505e-05
0.000140681
0.000166656
0.00052226
7.43546e-05
7.42799e-05
7.44761e-05
7.55163e-05
7.57483e-05
9.35236e-05
9.38564e-05
0.000188753
0.000235363
0.000555868
0.000726634
0.00136383
7.45895e-05
7.45745e-05
7.61099e-05
7.5079e-05
0.000107607
0.00018431
0.000338924
0.000567957
0.000797819
0.00107819
0.00130792
0.00168877
7.85269e-05
7.29991e-05
8.35793e-05
0.000175232
0.000397778
0.000638024
0.000803876
0.000916571
0.00103587
0.00120381
0.00139009
0.00160851
5.70403e-05
0.000152417
0.000444251
0.000787826
0.00093656
0.00093529
0.000912655
0.000905238
0.000937001
0.00102036
0.00116213
0.00127452
0.000444231
0.00102758
0.00116317
0.00111193
0.00103552
0.000962148
0.00090302
0.00086241
0.00084545
0.000857965
0.000903728
0.000925348
7.60212e-05
8.19366e-05
8.82229e-05
0.000142911
0.000221874
0.000415343
0.000752445
0.00128293
0.00187338
0.00241343
0.00284029
0.00309006
0.00324067
0.00330697
0.00334476
0.00337435
0.00340944
0.00342668
0.00342826
0.00345067
7.65012e-05
0.000127552
0.000209746
0.000517579
0.00108151
0.00180842
0.00250314
0.00289723
0.00312443
0.00324235
0.00332253
0.00337391
0.00341573
0.00341794
0.00343095
0.0034453
0.00347023
0.00346966
0.00346308
0.00342645
0.000135449
0.000366601
0.000942888
0.00194919
0.00262551
0.00295123
0.00313566
0.00322919
0.00330459
0.0033368
0.00336662
0.00340409
0.0034448
0.00345254
0.00344964
0.00342942
0.00341115
0.003363
0.00332917
0.0032281
0.000429664
0.00137559
0.00237002
0.00282946
0.00302189
0.00313031
0.00320059
0.00324996
0.00332787
0.00337151
0.00339258
0.0033913
0.00338424
0.00335565
0.00332352
0.0032613
0.0032199
0.00313596
0.00308684
0.00294893
0.00135785
0.00238555
0.00278783
0.0029625
0.00303173
0.00313976
0.00323405
0.00327563
0.0033071
0.00330543
0.00329105
0.00325257
0.00321386
0.00315352
0.00310506
0.00302183
0.00296841
0.00286737
0.00281068
0.00265498
0.00212096
0.00262773
0.00281125
0.00294154
0.00306302
0.00314467
0.00318783
0.00318733
0.00317561
0.00314155
0.00310119
0.00304144
0.00298863
0.00291385
0.00285835
0.00276723
0.00270975
0.00260263
0.00254327
0.00238097
0.00232464
0.00260667
0.00279352
0.00294652
0.00302303
0.00305004
0.00304685
0.00301986
0.00298238
0.0029309
0.00287999
0.00281229
0.00275535
0.00267667
0.00262024
0.00252842
0.00247122
0.00236381
0.0023044
0.00214138
0.0022892
0.00257684
0.00278477
0.00287707
0.00290084
0.00289097
0.00286292
0.00281954
0.00277317
0.00271599
0.00266292
0.00259485
0.00253918
0.00246209
0.00240787
0.00231883
0.00226388
0.00215891
0.00210064
0.00193971
0.00222169
0.00258058
0.00271862
0.00275077
0.00274046
0.00271005
0.00267048
0.00262215
0.00257474
0.00251822
0.00246735
0.00240265
0.00235068
0.00227762
0.00222686
0.002142
0.00208994
0.00198846
0.00193176
0.001774
0.00222252
0.00255006
0.00261277
0.0026037
0.0025737
0.00253383
0.00249135
0.00244384
0.00239929
0.00234641
0.0022996
0.00223973
0.00219222
0.00212397
0.00207689
0.00199649
0.0019473
0.00184949
0.00179441
0.00164003
7.36491e-05
7.3659e-05
7.36662e-05
7.36707e-05
7.36738e-05
7.36759e-05
7.36774e-05
7.36786e-05
7.36808e-05
7.36832e-05
7.36899e-05
7.36995e-05
7.37026e-05
7.37087e-05
7.37723e-05
7.36496e-05
7.36584e-05
7.36671e-05
7.36712e-05
7.36756e-05
7.36772e-05
7.36791e-05
7.36792e-05
7.36793e-05
7.36808e-05
7.36845e-05
7.36875e-05
7.37103e-05
7.37353e-05
7.40599e-05
7.38023e-05
7.38382e-05
7.38579e-05
7.38203e-05
7.38233e-05
7.38264e-05
7.39853e-05
7.39025e-05
7.54894e-05
0.000108999
7.40225e-05
7.39705e-05
7.3981e-05
7.39364e-05
7.3935e-05
7.39517e-05
7.43357e-05
7.61333e-05
5.08409e-05
0.000385817
0.00117834
0.00134973
0.00127757
0.00118421
0.00112379
0.00109631
0.00108872
0.00108952
0.00106917
0.00092919
0.000198009
0.000668014
0.000953002
0.00102641
0.0010278
0.00104006
0.00107301
0.00114426
0.00117618
0.00114257
8.25958e-05
7.6966e-05
0.000292306
0.000576688
0.000792896
0.000960325
0.00108985
0.0012944
0.00142774
0.00163979
7.54535e-05
7.68251e-05
6.91876e-05
0.000145533
0.000246842
0.000469478
0.000650719
0.00101247
0.00123636
0.0018232
7.53e-05
7.53405e-05
7.62641e-05
8.35029e-05
6.5983e-05
0.000137244
4.81125e-05
0.000397209
0.00029859
0.00152131
7.44779e-05
7.47198e-05
7.50291e-05
7.66376e-05
7.81593e-05
8.00615e-05
8.24549e-05
0.000104101
5.65131e-05
0.000673445
7.43822e-05
7.43415e-05
7.46387e-05
7.54768e-05
7.5764e-05
7.73241e-05
7.71624e-05
7.95668e-05
7.91819e-05
0.00021229
7.43196e-05
7.43989e-05
7.4506e-05
7.47906e-05
7.49473e-05
7.54181e-05
7.53338e-05
7.61622e-05
7.51259e-05
0.000100935
7.41965e-05
7.44967e-05
7.45405e-05
7.45557e-05
7.46084e-05
7.46827e-05
7.46704e-05
7.48296e-05
7.47899e-05
7.79806e-05
7.42827e-05
7.46018e-05
7.48607e-05
7.50378e-05
7.52189e-05
7.54754e-05
7.5752e-05
7.61841e-05
7.65885e-05
7.74526e-05
0.00226225
0.0024824
0.00247936
0.00244042
0.00239854
0.00235581
0.0023147
0.00227115
0.00223158
0.00218397
0.00214229
0.00208814
0.00204557
0.00198264
0.00193944
0.00186377
0.00181747
0.00172353
0.0016701
0.00151932
0.0022725
0.00234894
0.00227991
0.00221128
0.0021646
0.00212434
0.00208928
0.00205402
0.00202297
0.00198375
0.00194969
0.00190382
0.00186808
0.00181255
0.00177447
0.0017052
0.00166259
0.00157389
0.00152261
0.00137671
0.00214906
0.00208119
0.00193469
0.00184927
0.00180835
0.00178056
0.0017607
0.00174233
0.00172671
0.00170203
0.0016806
0.0016483
0.00162319
0.0015794
0.00154894
0.00148968
0.00145233
0.00137181
0.00132371
0.00118538
0.00176737
0.00155665
0.00135848
0.00127667
0.00126237
0.00126469
0.00127612
0.00128961
0.00130024
0.00129986
0.00129903
0.00128932
0.00128059
0.00125584
0.00123656
0.00119345
0.00116348
0.00109599
0.00105268
0.000926286
0.00102273
0.000731138
0.000588307
0.000538688
0.000541893
0.000557913
0.000589162
0.000621816
0.000667262
0.000706827
0.000745111
0.000769306
0.000791783
0.000795657
0.000794782
0.00077919
0.000759822
0.000713179
0.000677666
0.000571097
0.000383427
0.000256337
0.000194272
0.000168065
0.000162195
0.000164928
0.000174292
0.000189031
0.00021136
0.000234796
0.000261813
0.00028396
0.000306521
0.00032032
0.000330147
0.000330941
0.000323387
0.000310891
0.000288079
0.000250221
0.000141528
0.000112126
9.74334e-05
9.13505e-05
8.80281e-05
8.82032e-05
8.90326e-05
9.12923e-05
9.50225e-05
9.92619e-05
0.000104906
0.000110379
0.000116512
0.000121451
0.000125641
0.000127311
0.00012774
0.000123491
0.000122263
0.000108082
8.76152e-05
8.29518e-05
8.14139e-05
8.16068e-05
8.2257e-05
8.34678e-05
8.49072e-05
8.64045e-05
8.79536e-05
8.93622e-05
9.07047e-05
9.16492e-05
9.23686e-05
9.26573e-05
9.24872e-05
9.21822e-05
9.10462e-05
9.00297e-05
8.7787e-05
8.66268e-05
7.81417e-05
7.86522e-05
7.97202e-05
8.07676e-05
8.19669e-05
8.32194e-05
8.44378e-05
8.55573e-05
8.65178e-05
8.72717e-05
8.77018e-05
8.76501e-05
8.7432e-05
8.68559e-05
8.61324e-05
8.50611e-05
8.41241e-05
8.30652e-05
8.25856e-05
8.11219e-05
7.79825e-05
7.88428e-05
7.97624e-05
8.04531e-05
8.10458e-05
8.14462e-05
8.17361e-05
8.1814e-05
8.17664e-05
8.1621e-05
8.14296e-05
8.12088e-05
8.09705e-05
8.0703e-05
8.04317e-05
8.01308e-05
7.98464e-05
7.95494e-05
7.92591e-05
7.89515e-05
7.3648e-05
7.366e-05
7.3667e-05
7.3674e-05
7.36776e-05
7.36814e-05
7.36828e-05
7.36846e-05
7.36846e-05
7.36862e-05
7.36838e-05
7.36885e-05
7.36862e-05
7.3711e-05
7.37561e-05
7.3647e-05
7.36612e-05
7.36667e-05
7.36746e-05
7.3677e-05
7.36808e-05
7.368e-05
7.36806e-05
7.36848e-05
7.36892e-05
7.36999e-05
7.37109e-05
7.37277e-05
7.37378e-05
7.37538e-05
7.36476e-05
7.36612e-05
7.36675e-05
7.36748e-05
7.36776e-05
7.36808e-05
7.36807e-05
7.36815e-05
7.36845e-05
7.36878e-05
7.36952e-05
7.36989e-05
7.37048e-05
7.37075e-05
7.37152e-05
7.36478e-05
7.36616e-05
7.36682e-05
7.36756e-05
7.36785e-05
7.36816e-05
7.36813e-05
7.3682e-05
7.36839e-05
7.36857e-05
7.36886e-05
7.36895e-05
7.36885e-05
7.36897e-05
7.36937e-05
7.36494e-05
7.3661e-05
7.36697e-05
7.36758e-05
7.368e-05
7.36824e-05
7.36835e-05
7.3683e-05
7.36818e-05
7.3682e-05
7.36824e-05
7.3684e-05
7.36846e-05
7.36867e-05
7.36878e-05
7.36481e-05
7.36621e-05
7.36692e-05
7.36767e-05
7.368e-05
7.36838e-05
7.36853e-05
7.36875e-05
7.36887e-05
7.36909e-05
7.3692e-05
7.3694e-05
7.36946e-05
7.36966e-05
7.36965e-05
7.36472e-05
7.36615e-05
7.36673e-05
7.36753e-05
7.36785e-05
7.36832e-05
7.36854e-05
7.36889e-05
7.36904e-05
7.3693e-05
7.36941e-05
7.36958e-05
7.36964e-05
7.36976e-05
7.36977e-05
7.36464e-05
7.36571e-05
7.36623e-05
7.36686e-05
7.36719e-05
7.3676e-05
7.36783e-05
7.3681e-05
7.36826e-05
7.36843e-05
7.36852e-05
7.36863e-05
7.36868e-05
7.36874e-05
7.36877e-05
7.36447e-05
7.36486e-05
7.36516e-05
7.36541e-05
7.36562e-05
7.36579e-05
7.36593e-05
7.36604e-05
7.36612e-05
7.36618e-05
7.36623e-05
7.36626e-05
7.36629e-05
7.36631e-05
7.36633e-05
7.36439e-05
7.3646e-05
7.36461e-05
7.36471e-05
7.36481e-05
7.36495e-05
7.36509e-05
7.36521e-05
7.36532e-05
7.3654e-05
7.36547e-05
7.36552e-05
7.36557e-05
7.3656e-05
7.36563e-05
7.38542e-05
7.40965e-05
7.42604e-05
7.45666e-05
7.46978e-05
7.50424e-05
7.51411e-05
7.55407e-05
7.57553e-05
7.66984e-05
7.37657e-05
7.37959e-05
7.38473e-05
7.38959e-05
7.39302e-05
7.39567e-05
7.39722e-05
7.39825e-05
7.39506e-05
7.42776e-05
7.3717e-05
7.37215e-05
7.37326e-05
7.37485e-05
7.37589e-05
7.37731e-05
7.37798e-05
7.38044e-05
7.38107e-05
7.3886e-05
7.36927e-05
7.36934e-05
7.36957e-05
7.36989e-05
7.37016e-05
7.37016e-05
7.37018e-05
7.37133e-05
7.37103e-05
7.37551e-05
7.36891e-05
7.36891e-05
7.36897e-05
7.36909e-05
7.36919e-05
7.36936e-05
7.36922e-05
7.36942e-05
7.36948e-05
7.37182e-05
7.36971e-05
7.36978e-05
7.36982e-05
7.36986e-05
7.36988e-05
7.36994e-05
7.36998e-05
7.37022e-05
7.37024e-05
7.37124e-05
7.36982e-05
7.36989e-05
7.36993e-05
7.37001e-05
7.37006e-05
7.37016e-05
7.37024e-05
7.3704e-05
7.37062e-05
7.37112e-05
7.36879e-05
7.36884e-05
7.36887e-05
7.36894e-05
7.36897e-05
7.36907e-05
7.36913e-05
7.36928e-05
7.36942e-05
7.36975e-05
7.36633e-05
7.36635e-05
7.36636e-05
7.36639e-05
7.36641e-05
7.36645e-05
7.36647e-05
7.36654e-05
7.36659e-05
7.36672e-05
7.36566e-05
7.3657e-05
7.36575e-05
7.3658e-05
7.36586e-05
7.36594e-05
7.36602e-05
7.36613e-05
7.36624e-05
7.36639e-05
7.66884e-05
7.68334e-05
7.68427e-05
7.68631e-05
7.69214e-05
7.69834e-05
7.70374e-05
7.70792e-05
7.71146e-05
7.71367e-05
7.71534e-05
7.7155e-05
7.71517e-05
7.71416e-05
7.71244e-05
7.70975e-05
7.7069e-05
7.70215e-05
7.69969e-05
7.68546e-05
7.4292e-05
7.4379e-05
7.44596e-05
7.45287e-05
7.46009e-05
7.46747e-05
7.4747e-05
7.48177e-05
7.48867e-05
7.49539e-05
7.50182e-05
7.50788e-05
7.51345e-05
7.51844e-05
7.52266e-05
7.52608e-05
7.52838e-05
7.52982e-05
7.52883e-05
7.52615e-05
7.38917e-05
7.39232e-05
7.39614e-05
7.39913e-05
7.40201e-05
7.40499e-05
7.40783e-05
7.4105e-05
7.41298e-05
7.41529e-05
7.41736e-05
7.41918e-05
7.42068e-05
7.42186e-05
7.42267e-05
7.42308e-05
7.42294e-05
7.42261e-05
7.42153e-05
7.41962e-05
7.37534e-05
7.3755e-05
7.37609e-05
7.37645e-05
7.37659e-05
7.37679e-05
7.37696e-05
7.37713e-05
7.37725e-05
7.3774e-05
7.37751e-05
7.37766e-05
7.37777e-05
7.37792e-05
7.37804e-05
7.37821e-05
7.37834e-05
7.37853e-05
7.37867e-05
7.37893e-05
7.37232e-05
7.37232e-05
7.37245e-05
7.37273e-05
7.37286e-05
7.37307e-05
7.37327e-05
7.37353e-05
7.37372e-05
7.37398e-05
7.37418e-05
7.37444e-05
7.37464e-05
7.37488e-05
7.37508e-05
7.3753e-05
7.37548e-05
7.37569e-05
7.37576e-05
7.37658e-05
7.37151e-05
7.37204e-05
7.37227e-05
7.37268e-05
7.37294e-05
7.37349e-05
7.37379e-05
7.37442e-05
7.37478e-05
7.37552e-05
7.37595e-05
7.37681e-05
7.37732e-05
7.37832e-05
7.37889e-05
7.38005e-05
7.3807e-05
7.382e-05
7.38286e-05
7.38453e-05
7.37136e-05
7.37172e-05
7.37194e-05
7.37227e-05
7.37248e-05
7.37286e-05
7.37309e-05
7.37351e-05
7.37376e-05
7.37424e-05
7.37453e-05
7.37507e-05
7.37539e-05
7.37601e-05
7.37638e-05
7.37708e-05
7.3775e-05
7.3783e-05
7.37888e-05
7.37998e-05
7.36991e-05
7.37019e-05
7.37036e-05
7.37067e-05
7.37085e-05
7.37119e-05
7.37139e-05
7.37178e-05
7.372e-05
7.37244e-05
7.3727e-05
7.3732e-05
7.37349e-05
7.37407e-05
7.37441e-05
7.37507e-05
7.37545e-05
7.37622e-05
7.37656e-05
7.37787e-05
7.36679e-05
7.36689e-05
7.36696e-05
7.36708e-05
7.36715e-05
7.36729e-05
7.36737e-05
7.36752e-05
7.36761e-05
7.36777e-05
7.36787e-05
7.36805e-05
7.36816e-05
7.36836e-05
7.36848e-05
7.36871e-05
7.36884e-05
7.3691e-05
7.3692e-05
7.36965e-05
7.36654e-05
7.3667e-05
7.36687e-05
7.36703e-05
7.36719e-05
7.36734e-05
7.36748e-05
7.3676e-05
7.36771e-05
7.3678e-05
7.36786e-05
7.36791e-05
7.36792e-05
7.36792e-05
7.36794e-05
7.36797e-05
7.36804e-05
7.36817e-05
7.36838e-05
7.36876e-05
)
;

boundaryField
{
    inlet
    {
        type            freestream;
        freestreamValue uniform 0.0001;
        value           uniform 0.0001;
    }
    outlet
    {
        type            freestream;
        freestreamValue uniform 0.0001;
        value           nonuniform List<scalar> 
40
(
7.37335e-05
7.37136e-05
7.36542e-05
7.36986e-05
7.37509e-05
7.45475e-05
9.80756e-05
0.000379928
0.0019373
0.00337168
0.00345067
0.00342645
0.0032281
0.00294893
0.00265498
0.00238097
0.00214138
0.00193971
0.001774
0.00164003
0.00151932
0.00137671
0.00118538
0.000926286
0.000571097
0.000250221
0.000108082
8.66268e-05
8.11219e-05
7.89515e-05
7.68546e-05
7.52615e-05
7.41962e-05
7.37893e-05
7.37658e-05
7.38453e-05
7.37998e-05
7.37787e-05
7.36965e-05
7.36876e-05
)
;
    }
    topBottom
    {
        type            freestream;
        freestreamValue uniform 0.0001;
        value           nonuniform List<scalar> 
92
(
7.36478e-05
7.36556e-05
7.3663e-05
7.36678e-05
7.36723e-05
7.36753e-05
7.3678e-05
7.36798e-05
7.36814e-05
7.36824e-05
7.36833e-05
7.3684e-05
7.36845e-05
7.36849e-05
7.36852e-05
7.36854e-05
7.36857e-05
7.36859e-05
7.36863e-05
7.36866e-05
7.36872e-05
7.36877e-05
7.36885e-05
7.36894e-05
7.36906e-05
7.36919e-05
7.36937e-05
7.36954e-05
7.36974e-05
7.36992e-05
7.37014e-05
7.37032e-05
7.37055e-05
7.37073e-05
7.37095e-05
7.37112e-05
7.37134e-05
7.37149e-05
7.37171e-05
7.37184e-05
7.37204e-05
7.37216e-05
7.37237e-05
7.37248e-05
7.3727e-05
7.37293e-05
7.37335e-05
0.0001
0.0001
0.0001
0.0001
0.0001
0.0001
0.0001
0.0001
0.0001
0.0001
0.0001
0.0001
0.0001
0.0001
0.0001
0.0001
0.0001
0.0001
0.0001
0.0001
0.0001
0.0001
0.0001
0.0001
0.0001
0.0001
0.0001
0.0001
0.0001
0.0001
0.0001
0.0001
0.0001
0.0001
0.0001
0.0001
0.0001
0.0001
0.0001
0.0001
0.0001
0.0001
0.0001
0.0001
0.0001
)
;
    }
    wing
    {
        type            nutUSpaldingWallFunction;
        Cmu             0.09;
        kappa           0.41;
        E               9.8;
        value           nonuniform List<scalar> 
26
(
6.31149e-05
4.4591e-05
7.75695e-05
7.48056e-05
6.5191e-05
5.74591e-05
5.31747e-05
5.03098e-05
4.78889e-05
4.60218e-05
4.50038e-05
4.51058e-05
4.64813e-05
4.71954e-05
7.91162e-05
7.51178e-05
6.70225e-05
6.16923e-05
5.90019e-05
5.77766e-05
5.72293e-05
5.66798e-05
5.50567e-05
4.84046e-05
3.2422e-05
5.93066e-05
)
;
    }
    defaultFaces
    {
        type            empty;
    }
}


// ************************************************************************* //
