/*--------------------------------*- C++ -*----------------------------------*\
| =========                 |                                                 |
| \\      /  F ield         | OpenFOAM: The Open Source CFD Toolbox           |
|  \\    /   O peration     | Version:  v1912                                 |
|   \\  /    A nd           | Website:  www.openfoam.com                      |
|    \\/     M anipulation  |                                                 |
\*---------------------------------------------------------------------------*/
FoamFile
{
    version     2.0;
    format      ascii;
    class       volScalarField;
    location    "800";
    object      nuTilda;
}
// * * * * * * * * * * * * * * * * * * * * * * * * * * * * * * * * * * * * * //

dimensions      [0 2 -1 0 0 0 0];


internalField   nonuniform List<scalar> 
1640
(
0.000100004
0.00010001
0.000100015
0.000100019
0.000100023
0.000100025
0.000100027
0.000100028
0.000100029
0.00010003
0.000100031
0.000100031
0.000100032
0.000100032
0.000100032
0.000100003
0.000100006
0.00010001
0.000100011
0.000100013
0.000100014
0.000100016
0.000100016
0.000100017
0.000100017
0.000100018
0.000100018
0.000100018
0.000100018
0.000100019
0.0001
0.000100001
0.000100002
0.000100002
0.000100001
0.000100001
0.000100001
0.000100001
0.000100001
0.000100001
0.000100001
0.000100001
0.000100001
0.000100001
0.000100001
0.000100001
0.000100004
0.000100005
0.000100007
0.000100008
0.00010001
0.000100011
0.000100012
0.000100012
0.000100012
0.000100013
0.000100013
0.000100013
0.000100013
0.000100013
0.000100002
0.000100007
0.00010001
0.000100013
0.000100015
0.000100018
0.000100019
0.000100021
0.000100022
0.000100023
0.000100024
0.000100024
0.000100024
0.000100024
0.000100024
0.000100002
0.00010001
0.000100013
0.000100017
0.000100019
0.000100022
0.000100024
0.000100027
0.000100029
0.000100031
0.000100032
0.000100033
0.000100033
0.000100033
0.000100033
0.000100003
0.000100011
0.000100015
0.000100019
0.000100021
0.000100024
0.000100026
0.00010003
0.000100032
0.000100036
0.000100039
0.000100041
0.000100042
0.000100043
0.000100042
0.000100005
0.000100011
0.000100017
0.00010002
0.000100023
0.000100025
0.000100028
0.00010003
0.000100034
0.000100037
0.000100042
0.000100045
0.000100047
0.000100046
0.000100047
0.000100005
0.000100011
0.000100018
0.000100021
0.000100024
0.000100026
0.000100029
0.000100031
0.000100034
0.000100038
0.000100044
0.000100051
0.000100061
0.000100069
0.000100074
0.000100004
0.000100012
0.000100017
0.000100021
0.000100023
0.000100025
0.000100025
0.000100026
0.000100027
0.000100031
0.000100036
0.000100043
0.000100053
0.000100049
0.000100058
0.000100033
0.000100033
0.000100033
0.000100033
0.000100033
0.000100034
0.000100034
0.000100035
0.000100036
0.000100036
0.000100037
0.000100039
0.000100019
0.000100019
0.000100019
0.000100019
0.000100019
0.000100019
0.00010002
0.00010002
0.00010002
0.000100021
0.000100021
0.000100022
0.000100001
0.000100001
0.000100001
0.000100002
0.000100002
0.000100002
0.000100002
0.000100002
0.000100002
0.000100002
0.000100002
0.000100002
0.000100013
0.000100013
0.000100013
0.000100013
0.000100013
0.000100013
0.000100014
0.000100014
0.000100014
0.000100015
0.000100014
0.000100014
0.000100024
0.000100025
0.000100025
0.000100025
0.000100025
0.000100026
0.000100026
0.000100027
0.000100027
0.000100027
0.000100027
0.000100028
0.000100033
0.000100033
0.000100033
0.000100034
0.000100034
0.000100035
0.000100037
0.000100038
0.000100039
0.00010004
0.00010004
0.000100041
0.000100042
0.000100043
0.000100043
0.000100045
0.000100046
0.000100048
0.000100048
0.000100049
0.00010005
0.000100055
0.000100059
0.000100075
0.000100048
0.000100048
0.000100049
0.000100052
0.000100057
0.000100063
0.00010007
0.000100076
0.000100084
0.00010009
0.0001001
0.000100102
0.00010008
0.000100088
0.000100102
0.000100123
0.000100149
0.000100174
0.000100199
0.00010022
0.000100241
0.000100259
0.000100281
0.000100284
0.00010008
0.000100109
0.000100154
0.000100219
0.000100288
0.000100358
0.000100431
0.000100515
0.000100614
0.000100731
0.000100839
0.000100928
0.00010004
0.000100042
0.000100043
0.000100045
0.000100046
0.000100048
0.000100049
0.000100051
0.000100052
0.000100054
0.000100055
0.000100057
0.000100058
0.000100059
0.00010006
0.000100062
0.000100062
0.000100064
0.000100066
0.000100069
0.000100023
0.000100024
0.000100025
0.000100026
0.000100027
0.000100028
0.000100029
0.00010003
0.000100031
0.000100033
0.000100034
0.000100036
0.000100037
0.000100039
0.000100041
0.000100043
0.000100045
0.000100048
0.000100049
0.000100054
0.000100002
0.000100003
0.000100003
0.000100003
0.000100003
0.000100003
0.000100003
0.000100004
0.000100004
0.000100004
0.000100004
0.000100005
0.000100005
0.000100006
0.000100006
0.000100006
0.000100007
0.000100008
0.000100008
0.000100009
0.000100015
0.000100015
0.000100016
0.000100017
0.000100017
0.000100018
0.000100019
0.00010002
0.000100021
0.000100023
0.000100023
0.000100025
0.000100026
0.000100028
0.000100029
0.000100032
0.000100033
0.000100036
0.000100038
0.000100043
0.000100028
0.000100029
0.000100031
0.000100033
0.000100034
0.000100036
0.000100037
0.000100039
0.00010004
0.000100042
0.000100044
0.000100047
0.000100049
0.000100051
0.000100054
0.000100057
0.000100061
0.000100064
0.000100072
0.000100082
0.000100042
0.000100044
0.000100048
0.000100052
0.000100054
0.000100058
0.00010006
0.000100064
0.000100067
0.000100071
0.000100074
0.000100079
0.000100085
0.00010009
0.000100105
0.000100113
0.000100162
0.000100193
0.000100357
0.000100687
0.000100079
0.000100081
0.000100085
0.000100089
0.000100091
0.000100097
0.000100102
0.000100112
0.000100123
0.000100139
0.000100171
0.000100206
0.000100325
0.000100476
0.000100838
0.000101405
0.00010215
0.000104544
0.000105189
0.000118938
0.000100117
0.000100148
0.000100181
0.000100226
0.000100268
0.000100339
0.000100414
0.000100544
0.000100771
0.000101172
0.000102057
0.000103692
0.000106659
0.000112391
0.000120137
0.000136339
0.000151631
0.00019699
0.000217471
0.00038236
0.000100322
0.000100438
0.000100595
0.000100787
0.000101114
0.000101767
0.000102953
0.000105979
0.000111139
0.000124964
0.000142471
0.000188215
0.000232345
0.000342799
0.000430998
0.000628383
0.000779173
0.00113788
0.00132413
0.0019374
0.000101037
0.000101806
0.000102136
0.000105757
0.000109989
0.000124976
0.000151928
0.000211715
0.000331038
0.000514188
0.000773378
0.00111772
0.00150153
0.00191131
0.00229115
0.00266162
0.00295222
0.00316629
0.00327922
0.00337171
0.000100005
0.000100012
0.000100018
0.000100021
0.000100024
0.000100026
0.000100028
0.000100029
0.000100031
0.000100032
0.000100036
0.000100037
0.000100048
0.00010006
0.0001002
0.000100006
0.000100011
0.000100019
0.000100022
0.000100025
0.000100026
0.000100026
0.000100029
0.000100031
0.000100035
0.000100038
0.00010005
0.000100049
0.000100053
0.000100083
0.000100187
0.000100201
0.000100241
0.00010029
0.000100336
0.000100298
0.000100343
0.000100275
0.000102662
0.000149513
0.000100101
0.000100133
0.000100114
0.000100125
0.000100133
0.000100227
0.000100288
0.000100822
9.99687e-05
0.000120046
0.000100256
0.000100302
0.000100391
0.000100466
0.000100512
0.000100548
0.000100591
0.000100645
0.000100711
0.0001008
0.000100959
0.000101281
0.000100231
0.000100279
0.000100334
0.000100332
0.000100361
0.000100445
0.00010059
0.000100721
0.000100937
0.000101061
0.000101213
0.000101239
0.000100248
0.000100294
0.000100295
0.000100384
0.000100485
0.000100832
0.00010102
0.000101578
0.000101853
0.000102538
0.000102497
0.000103463
0.000100318
0.00010033
0.000100353
0.000100596
0.000100759
0.000101435
0.000101782
0.000103342
0.000104071
0.000106081
0.000109548
0.000135011
0.000100417
0.000100323
0.000100416
0.000100814
0.000101145
0.000103429
0.000103427
0.000114663
0.000108731
0.000154368
0.000177349
0.000523562
0.00010054
0.000100484
0.000100632
0.000101423
0.000101599
0.000115339
0.000115601
0.000197519
0.000241355
0.000557019
0.00072731
0.00136402
0.000100719
0.000100707
0.000101874
0.00010109
0.000126591
0.000193425
0.000341957
0.00056906
0.00079838
0.0010785
0.00130813
0.0016889
0.000103717
9.95123e-05
0.000107595
0.000185119
0.000400002
0.0006389
0.000804428
0.000916996
0.0010362
0.00120405
0.00139028
0.00160865
8.75071e-05
0.000164641
0.000446043
0.000788402
0.000936967
0.000935698
0.000913084
0.000905675
0.000937408
0.0010207
0.0011624
0.00127474
0.000446023
0.00102792
0.00116343
0.00111222
0.00103586
0.000962535
0.000903458
0.000862891
0.000845949
0.00085845
0.000904166
0.000925766
0.000101807
0.00010633
0.000111192
0.000156305
0.000228528
0.000417388
0.000753075
0.00128315
0.00187348
0.00241349
0.00284034
0.00309009
0.0032407
0.003307
0.00334479
0.00337438
0.00340947
0.00342671
0.00342829
0.0034507
0.000102172
0.000143124
0.000217084
0.000518905
0.00108181
0.00180853
0.0025032
0.00289727
0.00312447
0.00324238
0.00332256
0.00337394
0.00341576
0.00341797
0.00343098
0.00344533
0.00347026
0.00346969
0.00346311
0.00342648
0.000149855
0.000369208
0.00094329
0.00194929
0.00262557
0.00295127
0.0031357
0.00322923
0.00330462
0.00333683
0.00336665
0.00340412
0.00344483
0.00345257
0.00344967
0.00342945
0.00341118
0.00336303
0.0033292
0.00322814
0.000431577
0.00137578
0.00237009
0.0028295
0.00302193
0.00313035
0.00320063
0.00324999
0.0033279
0.00337154
0.00339262
0.00339134
0.00338428
0.00335569
0.00332356
0.00326133
0.00321994
0.003136
0.00308688
0.00294897
0.00135805
0.00238562
0.00278787
0.00296254
0.00303177
0.0031398
0.00323409
0.00327566
0.00330713
0.00330546
0.00329108
0.0032526
0.0032139
0.00315355
0.0031051
0.00302187
0.00296845
0.00286742
0.00281073
0.00265503
0.00212104
0.00262778
0.00281129
0.00294158
0.00306306
0.00314471
0.00318787
0.00318737
0.00317564
0.00314159
0.00310123
0.00304148
0.00298867
0.0029139
0.00285839
0.00276728
0.0027098
0.00260268
0.00254333
0.00238103
0.00232471
0.00260672
0.00279356
0.00294656
0.00302307
0.00305008
0.00304689
0.0030199
0.00298242
0.00293094
0.00288004
0.00281233
0.0027554
0.00267672
0.00262029
0.00252847
0.00247128
0.00236388
0.00230447
0.00214146
0.00228927
0.0025769
0.00278482
0.00287711
0.00290088
0.00289102
0.00286296
0.00281959
0.00277322
0.00271604
0.00266297
0.00259491
0.00253924
0.00246215
0.00240793
0.00231889
0.00226395
0.00215899
0.00210072
0.0019398
0.00222176
0.00258063
0.00271867
0.00275081
0.00274051
0.0027101
0.00267053
0.0026222
0.00257479
0.00251828
0.00246741
0.00240272
0.00235074
0.00227769
0.00222693
0.00214208
0.00209002
0.00198855
0.00193186
0.00177411
0.00222259
0.00255011
0.00261282
0.00260375
0.00257375
0.00253388
0.00249141
0.0024439
0.00239935
0.00234648
0.00229967
0.0022398
0.0021923
0.00212404
0.00207698
0.00199658
0.0019474
0.0018496
0.00179452
0.00164017
0.000100005
0.000100013
0.000100018
0.000100021
0.000100024
0.000100025
0.000100026
0.000100027
0.000100029
0.000100031
0.000100036
0.000100043
0.000100046
0.00010005
0.000100098
0.000100005
0.000100012
0.000100019
0.000100022
0.000100025
0.000100026
0.000100028
0.000100028
0.000100028
0.000100029
0.000100032
0.000100034
0.000100051
0.00010007
0.000100317
0.000100121
0.000100148
0.000100163
0.000100135
0.000100137
0.000100139
0.00010026
0.000100197
0.000101402
0.000127723
0.000100288
0.000100249
0.000100257
0.000100223
0.000100222
0.000100234
0.000100526
0.000101892
8.28444e-05
0.000388177
0.00117859
0.00134993
0.00127779
0.00118447
0.00112407
0.00109661
0.00108902
0.00108982
0.00106949
0.000929604
0.000206103
0.000668813
0.000953395
0.00102675
0.00102813
0.00104039
0.00107332
0.00114454
0.00117644
0.00114284
0.000106837
0.000102526
0.000296327
0.000577758
0.000793464
0.000960713
0.00109015
0.00129462
0.00142792
0.00163993
0.000101375
0.000102419
9.66316e-05
0.000158592
0.00025234
0.000471085
0.000651561
0.00101282
0.0012366
0.00182331
0.000101258
0.000101289
0.000101992
0.000107536
9.42186e-05
0.000151399
8.07802e-05
0.00039944
0.000302452
0.00152147
0.000100634
0.000100818
0.000101052
0.000102276
0.000103437
0.000104892
0.000106729
0.000123758
8.71115e-05
0.000674231
0.000100561
0.00010053
0.000100756
0.000101393
0.000101611
0.000102799
0.000102676
0.000104513
0.000104218
0.000219477
0.000100514
0.000100574
0.000100655
0.000100871
0.00010099
0.000101348
0.000101284
0.000101914
0.000101126
0.000121218
0.00010042
0.000100648
0.000100681
0.000100693
0.000100733
0.000100789
0.00010078
0.000100901
0.000100871
0.0001033
0.000100486
0.000100728
0.000100925
0.000101059
0.000101197
0.000101392
0.000101602
0.000101931
0.000102239
0.000102897
0.00226232
0.00248246
0.00247942
0.00244048
0.0023986
0.00235588
0.00231476
0.00227122
0.00223165
0.00218405
0.00214237
0.00208822
0.00204566
0.00198274
0.00193953
0.00186387
0.00181758
0.00172365
0.00167023
0.00151948
0.00227257
0.002349
0.00227998
0.00221135
0.00216468
0.00212442
0.00208937
0.00205411
0.00202306
0.00198384
0.00194979
0.00190392
0.00186818
0.00181266
0.00177458
0.00170533
0.00166272
0.00157403
0.00152276
0.0013769
0.00214913
0.00208127
0.00193479
0.00184937
0.00180846
0.00178067
0.00176081
0.00174245
0.00172683
0.00170215
0.00168073
0.00164843
0.00162332
0.00157955
0.00154909
0.00148984
0.0014525
0.001372
0.00132391
0.00118563
0.00176748
0.0015568
0.00135867
0.00127689
0.0012626
0.00126491
0.00127633
0.00128983
0.00130045
0.00130007
0.00129924
0.00128954
0.00128081
0.00125607
0.00123679
0.0011937
0.00116374
0.00109629
0.001053
0.000926702
0.00102307
0.000731805
0.000589336
0.000539913
0.000543104
0.000559055
0.000590187
0.000622738
0.000668063
0.000707541
0.000745754
0.000769909
0.000792352
0.000796222
0.000795347
0.000779778
0.00076044
0.000713881
0.000678443
0.000572188
0.000385817
0.00026147
0.00020263
0.00017862
0.000173341
0.000175794
0.000184263
0.000197776
0.000218602
0.000240813
0.00026675
0.000288206
0.000310197
0.0003237
0.000333337
0.000334117
0.000326706
0.000314469
0.000292211
0.000255585
0.000155103
0.000130276
0.000118428
0.000113633
0.00011104
0.000111176
0.000111822
0.000113588
0.00011652
0.000119882
0.000124406
0.000128848
0.000133887
0.000137993
0.00014151
0.00014292
0.000143282
0.000139702
0.000138673
0.000126978
0.000110719
0.000107112
0.000105929
0.000106077
0.000106577
0.000107509
0.00010862
0.000109779
0.000110982
0.000112079
0.000113128
0.000113867
0.000114431
0.000114658
0.000114525
0.000114285
0.000113395
0.0001126
0.000110853
0.000109952
0.000103423
0.000103813
0.00010463
0.000105433
0.000106354
0.000107318
0.000108258
0.000109123
0.000109867
0.000110452
0.000110786
0.000110746
0.000110577
0.000110129
0.000109568
0.000108739
0.000108015
0.000107199
0.00010683
0.000105705
0.000103302
0.000103959
0.000104662
0.000105192
0.000105646
0.000105954
0.000106176
0.000106236
0.0001062
0.000106088
0.000105941
0.000105771
0.000105588
0.000105383
0.000105175
0.000104945
0.000104727
0.000104499
0.000104277
0.000104042
0.000100004
0.000100013
0.000100019
0.000100024
0.000100027
0.000100029
0.000100031
0.000100032
0.000100032
0.000100033
0.000100031
0.000100035
0.000100033
0.000100052
0.000100086
0.000100003
0.000100014
0.000100018
0.000100024
0.000100026
0.000100029
0.000100028
0.000100029
0.000100032
0.000100035
0.000100044
0.000100052
0.000100065
0.000100072
0.000100084
0.000100004
0.000100014
0.000100019
0.000100024
0.000100027
0.000100029
0.000100029
0.00010003
0.000100032
0.000100034
0.00010004
0.000100043
0.000100047
0.000100049
0.000100055
0.000100004
0.000100014
0.000100019
0.000100025
0.000100027
0.00010003
0.000100029
0.00010003
0.000100031
0.000100033
0.000100035
0.000100036
0.000100035
0.000100036
0.000100039
0.000100005
0.000100014
0.000100021
0.000100025
0.000100028
0.00010003
0.000100031
0.000100031
0.00010003
0.00010003
0.00010003
0.000100031
0.000100032
0.000100033
0.000100034
0.000100004
0.000100015
0.00010002
0.000100026
0.000100028
0.000100031
0.000100032
0.000100034
0.000100035
0.000100037
0.000100038
0.000100039
0.00010004
0.000100041
0.000100041
0.000100004
0.000100014
0.000100019
0.000100025
0.000100027
0.000100031
0.000100033
0.000100035
0.000100036
0.000100038
0.000100039
0.00010004
0.000100041
0.000100042
0.000100042
0.000100003
0.000100011
0.000100015
0.00010002
0.000100022
0.000100025
0.000100027
0.000100029
0.00010003
0.000100032
0.000100032
0.000100033
0.000100034
0.000100034
0.000100034
0.000100002
0.000100005
0.000100007
0.000100009
0.00010001
0.000100012
0.000100013
0.000100014
0.000100014
0.000100015
0.000100015
0.000100015
0.000100015
0.000100016
0.000100016
0.000100001
0.000100003
0.000100003
0.000100003
0.000100004
0.000100005
0.000100006
0.000100007
0.000100008
0.000100009
0.000100009
0.00010001
0.00010001
0.00010001
0.00010001
0.000100161
0.000100344
0.000100469
0.000100701
0.000100801
0.000101063
0.000101138
0.000101441
0.000101605
0.000102322
0.000100093
0.000100116
0.000100155
0.000100192
0.000100218
0.000100238
0.00010025
0.000100258
0.000100234
0.000100482
0.000100056
0.00010006
0.000100068
0.00010008
0.000100088
0.000100099
0.000100104
0.000100123
0.000100128
0.000100185
0.000100038
0.000100039
0.00010004
0.000100043
0.000100045
0.000100045
0.000100045
0.000100054
0.000100051
0.000100085
0.000100035
0.000100035
0.000100036
0.000100037
0.000100037
0.000100039
0.000100038
0.000100039
0.00010004
0.000100057
0.000100041
0.000100042
0.000100042
0.000100043
0.000100043
0.000100043
0.000100043
0.000100045
0.000100045
0.000100053
0.000100042
0.000100043
0.000100043
0.000100044
0.000100044
0.000100045
0.000100045
0.000100047
0.000100048
0.000100052
0.000100034
0.000100035
0.000100035
0.000100036
0.000100036
0.000100037
0.000100037
0.000100038
0.000100039
0.000100042
0.000100016
0.000100016
0.000100016
0.000100016
0.000100016
0.000100017
0.000100017
0.000100017
0.000100018
0.000100019
0.000100011
0.000100011
0.000100011
0.000100012
0.000100012
0.000100013
0.000100013
0.000100014
0.000100015
0.000100016
0.000102315
0.000102425
0.000102432
0.000102448
0.000102492
0.00010254
0.000102581
0.000102613
0.00010264
0.000102656
0.000102669
0.00010267
0.000102668
0.00010266
0.000102647
0.000102627
0.000102605
0.000102569
0.00010255
0.000102442
0.000100493
0.000100559
0.00010062
0.000100672
0.000100727
0.000100783
0.000100838
0.000100892
0.000100944
0.000100995
0.000101044
0.00010109
0.000101133
0.00010117
0.000101203
0.000101229
0.000101246
0.000101257
0.000101249
0.000101229
0.000100189
0.000100213
0.000100242
0.000100265
0.000100286
0.000100309
0.000100331
0.000100351
0.00010037
0.000100387
0.000100403
0.000100417
0.000100428
0.000100437
0.000100443
0.000100446
0.000100445
0.000100443
0.000100435
0.00010042
0.000100084
0.000100085
0.00010009
0.000100092
0.000100094
0.000100095
0.000100096
0.000100098
0.000100099
0.0001001
0.000100101
0.000100102
0.000100102
0.000100104
0.000100105
0.000100106
0.000100107
0.000100108
0.000100109
0.000100111
0.000100061
0.000100061
0.000100062
0.000100064
0.000100065
0.000100067
0.000100068
0.00010007
0.000100072
0.000100074
0.000100075
0.000100077
0.000100079
0.000100081
0.000100082
0.000100084
0.000100085
0.000100087
0.000100087
0.000100094
0.000100055
0.000100059
0.000100061
0.000100064
0.000100066
0.00010007
0.000100072
0.000100077
0.00010008
0.000100085
0.000100089
0.000100095
0.000100099
0.000100107
0.000100111
0.00010012
0.000100125
0.000100135
0.000100141
0.000100154
0.000100054
0.000100057
0.000100058
0.000100061
0.000100062
0.000100065
0.000100067
0.00010007
0.000100072
0.000100076
0.000100078
0.000100082
0.000100084
0.000100089
0.000100092
0.000100097
0.0001001
0.000100107
0.000100111
0.000100119
0.000100043
0.000100045
0.000100046
0.000100049
0.00010005
0.000100053
0.000100054
0.000100057
0.000100059
0.000100062
0.000100064
0.000100068
0.00010007
0.000100074
0.000100077
0.000100082
0.000100085
0.000100091
0.000100093
0.000100103
0.000100019
0.00010002
0.000100021
0.000100021
0.000100022
0.000100023
0.000100024
0.000100025
0.000100025
0.000100027
0.000100027
0.000100029
0.00010003
0.000100031
0.000100032
0.000100034
0.000100035
0.000100037
0.000100038
0.000100041
0.000100017
0.000100019
0.00010002
0.000100021
0.000100022
0.000100023
0.000100024
0.000100025
0.000100026
0.000100027
0.000100027
0.000100028
0.000100028
0.000100028
0.000100028
0.000100028
0.000100029
0.00010003
0.000100031
0.000100034
)
;

boundaryField
{
    inlet
    {
        type            freestream;
        freestreamValue uniform 0.0001;
        value           uniform 0.0001;
    }
    outlet
    {
        type            freestream;
        freestreamValue uniform 0.0001;
        value           nonuniform List<scalar> 
40
(
0.000100069
0.000100054
0.000100009
0.000100043
0.000100082
0.000100687
0.000118938
0.00038236
0.0019374
0.00337171
0.0034507
0.00342648
0.00322814
0.00294897
0.00265503
0.00238103
0.00214146
0.0019398
0.00177411
0.00164017
0.00151948
0.0013769
0.00118563
0.000926702
0.000572188
0.000255585
0.000126978
0.000109952
0.000105705
0.000104042
0.000102442
0.000101229
0.00010042
0.000100111
0.000100094
0.000100154
0.000100119
0.000100103
0.000100041
0.000100034
)
;
    }
    topBottom
    {
        type            freestream;
        freestreamValue uniform 0.0001;
        value           nonuniform List<scalar> 
92
(
0.000100004
0.00010001
0.000100015
0.000100019
0.000100023
0.000100025
0.000100027
0.000100028
0.000100029
0.00010003
0.000100031
0.000100031
0.000100032
0.000100032
0.000100032
0.000100033
0.000100033
0.000100033
0.000100033
0.000100033
0.000100034
0.000100034
0.000100035
0.000100036
0.000100036
0.000100037
0.000100039
0.00010004
0.000100042
0.000100043
0.000100045
0.000100046
0.000100048
0.000100049
0.000100051
0.000100052
0.000100054
0.000100055
0.000100057
0.000100058
0.000100059
0.00010006
0.000100062
0.000100062
0.000100064
0.000100066
0.000100069
0.0001
0.0001
0.0001
0.0001
0.0001
0.0001
0.0001
0.0001
0.0001
0.0001
0.0001
0.0001
0.0001
0.0001
0.0001
0.0001
0.0001
0.0001
0.0001
0.0001
0.0001
0.0001
0.0001
0.0001
0.0001
0.0001
0.0001
0.0001
0.0001
0.0001
0.0001
0.0001
0.0001
0.0001
0.0001
0.0001
0.0001
0.0001
0.0001
0.0001
0.0001
0.0001
0.0001
0.0001
0.0001
)
;
    }
    wing
    {
        type            fixedValue;
        value           uniform 0;
    }
    defaultFaces
    {
        type            empty;
    }
}


// ************************************************************************* //
