/*--------------------------------*- C++ -*----------------------------------*\
| =========                 |                                                 |
| \\      /  F ield         | OpenFOAM: The Open Source CFD Toolbox           |
|  \\    /   O peration     | Version:  v1912                                 |
|   \\  /    A nd           | Website:  www.openfoam.com                      |
|    \\/     M anipulation  |                                                 |
\*---------------------------------------------------------------------------*/
FoamFile
{
    version     2.0;
    format      ascii;
    class       volScalarField;
    location    "800";
    object      p;
}
// * * * * * * * * * * * * * * * * * * * * * * * * * * * * * * * * * * * * * //

dimensions      [0 2 -2 0 0 0 0];


internalField   nonuniform List<scalar> 
1640
(
0.536567
0.559731
0.602276
0.634956
0.64786
0.647993
0.643893
0.639689
0.636364
0.633893
0.632129
0.630926
0.630133
0.629612
0.629265
0.89688
0.994174
1.19982
1.42725
1.6183
1.75936
1.85563
1.91654
1.95214
1.9715
1.98137
1.98606
1.98805
1.98867
1.98864
0.997368
1.14219
1.46592
1.83872
2.15324
2.37203
2.50071
2.55997
2.57361
2.56342
2.54513
2.52709
2.51226
2.50094
2.49255
0.970625
1.1363
1.54179
2.07935
2.63052
3.10823
3.4638
3.68863
3.80019
3.82678
3.79944
3.74574
3.68496
3.62757
3.5779
0.905673
1.07064
1.49811
2.12496
2.8727
3.63972
4.28832
4.70276
4.85083
4.7783
4.56404
4.28635
4.00649
3.76074
3.5617
0.841775
0.996951
1.41081
2.05562
2.91219
3.94742
5.05096
6.03168
6.70238
6.98522
6.92756
6.63235
6.19919
5.70933
5.2258
0.790735
0.934875
1.32401
1.95036
2.83467
4.01281
5.46659
7.05875
8.50785
9.46724
9.70681
9.2414
8.28973
7.13264
5.9978
0.753327
0.888215
1.25347
1.85085
2.72136
3.94291
5.57888
7.62002
9.91962
12.1528
13.8778
14.7306
14.5994
13.6081
12.0303
0.727009
0.855063
1.20152
1.77201
2.6154
3.828
5.51657
7.7591
10.5486
13.7001
16.7403
18.9439
19.6818
18.7917
16.6788
0.708817
0.831828
1.16503
1.7169
2.54157
3.74785
5.47337
7.86332
11.0426
15.058
19.755
24.5602
28.4328
30.2507
29.8994
0.629032
0.628846
0.628551
0.62805
0.627258
0.626045
0.624195
0.62137
0.617065
0.61052
0.600529
0.58522
1.98836
1.98796
1.98747
1.98681
1.98584
1.98447
1.98265
1.98039
1.97787
1.9755
1.97376
1.97211
2.48651
2.48113
2.47436
2.46578
2.45533
2.44329
2.43056
2.41954
2.41516
2.42553
2.4599
2.52
3.53777
3.49851
3.45053
3.3924
3.32305
3.24412
3.16306
3.09774
3.0819
3.16611
3.40387
3.80824
3.40984
3.26683
3.08814
2.86541
2.59643
2.29187
1.98883
1.76854
1.76435
2.14074
3.02693
4.3818
4.7988
4.35851
3.80257
3.10545
2.25287
1.29336
0.385085
-0.194541
-0.103685
0.969062
3.20114
6.41259
5.02622
4.05332
2.77063
1.08597
-0.977196
-3.15021
-4.90319
-5.64208
-4.92286
-2.46881
1.90817
8.02859
10.2132
8.02372
5.01334
1.05465
-3.55141
-7.73153
-10.2888
-10.6798
-8.90056
-4.98689
1.4024
10.8091
13.7672
9.89099
4.10457
-3.53206
-11.4042
-16.8436
-18.6712
-17.3656
-13.7775
-8.25169
-0.0947038
12.8505
27.3806
20.2555
7.99472
-6.8618
-18.6623
-24.2523
-24.6749
-21.6588
-16.6581
-10.1383
-1.02692
14.9196
0.564015
0.538819
0.507416
0.467986
0.420199
0.365688
0.306874
0.245564
0.183122
0.121503
0.0631894
0.0102235
-0.0360725
-0.0746024
-0.104151
-0.123615
-0.13118
-0.125498
-0.0968658
-0.052659
1.96624
1.94164
1.88624
1.79421
1.67148
1.53268
1.38771
1.23731
1.08292
0.931853
0.791115
0.662836
0.547058
0.444725
0.356799
0.282962
0.221021
0.168917
0.114659
0.05974
2.57214
2.56186
2.43419
2.18517
1.88855
1.61802
1.37426
1.13022
0.893852
0.690008
0.52348
0.384572
0.268242
0.174942
0.103422
0.0497627
0.010294
-0.0176975
-0.033071
-0.0300592
4.22045
4.33782
3.98218
3.31288
2.72178
2.33029
1.97649
1.58802
1.24055
0.978599
0.774385
0.600318
0.45483
0.340433
0.25226
0.183642
0.130432
0.0905403
0.0596092
0.0326701
5.60821
5.81132
4.63333
3.13601
2.37865
2.07238
1.66154
1.18535
0.84743
0.643545
0.487414
0.350986
0.24349
0.166086
0.109922
0.0678861
0.0370823
0.0156077
0.00126254
-0.00683184
9.22228
8.99842
5.75026
3.20755
2.63037
2.41046
1.80062
1.20756
0.8748
0.68488
0.52285
0.379655
0.27077
0.192996
0.135274
0.0910384
0.0581261
0.0347016
0.0192814
0.00592982
13.339
11.4306
5.12379
2.26439
2.3533
2.20216
1.47164
0.911647
0.664797
0.527487
0.39604
0.27963
0.194669
0.135751
0.0923979
0.059367
0.0353337
0.0190145
0.0101326
-0.00191208
19.5008
13.7679
4.23412
1.8349
2.46547
2.18932
1.35799
0.829725
0.618644
0.492442
0.366341
0.256518
0.177451
0.122685
0.0823242
0.0516435
0.0296485
0.0146534
0.0100611
-0.00553458
25.5523
14.435
2.86647
1.43464
2.38977
2.02423
1.19945
0.72682
0.549398
0.440314
0.32756
0.229194
0.158901
0.110521
0.0747818
0.0474772
0.0278328
0.0143511
0.0105771
-0.0014829
31.3705
14.2346
1.91077
1.30619
2.32955
1.90744
1.10919
0.668228
0.505798
0.405557
0.300448
0.208349
0.142743
0.0978818
0.0648002
0.0395431
0.021372
0.00947992
0.00325253
0.000637674
0.693196
0.810208
1.12688
1.65027
2.43056
3.57101
5.20643
7.49068
10.587
14.6552
19.8053
25.9571
32.4798
38.2402
41.6676
0.676938
0.787143
1.08414
1.57196
2.29283
3.33513
4.8117
6.84617
9.55917
13.0542
17.3961
22.7489
29.3721
37.8679
47.734
44.5735
55.7427
69.5901
84.1104
99.3665
115.056
129.536
139.897
138.594
118.648
59.524
73.7662
90.1567
108.873
129.913
153.305
178.864
206.883
234.751
262.66
33.6016
24.1583
5.29765
-16.2313
-28.5284
-31.5591
-29.5318
-24.741
-18.7371
-11.6857
-2.04991
16.3468
38.086
23.0166
-2.35632
-25.2246
-34.7811
-35.548
-32.0818
-26.4018
-19.9564
-12.7363
-3.04532
16.9484
44.0776
19.5568
-12.623
-33.5641
-39.6912
-38.7174
-34.101
-27.6921
-20.889
-13.5366
-3.83748
17.5303
49.4101
11.6419
-25.0367
-41.0007
-43.8953
-41.4756
-35.7981
-28.7444
-21.635
-14.1732
-4.49035
18.0245
52.5306
-1.21395
-37.5799
-46.8629
-47.2608
-43.6716
-37.1303
-29.5684
-22.217
-14.6715
-5.02672
18.409
51.2155
-18.1598
-48.8239
-51.4418
-49.9516
-45.3336
-38.1416
-30.2092
-22.6748
-15.063
-5.45793
18.6784
42.8345
-36.9052
-58.2252
-55.5836
-52.4541
-46.7192
-38.9453
-30.7057
-23.023
-15.3566
-5.78476
18.8484
26.0004
-54.2256
-64.586
-58.7249
-54.5338
-47.8434
-39.5754
-31.0793
-23.2799
-15.5709
-6.02207
18.9528
1.32059
-69.0097
-67.8167
-60.0965
-55.6939
-48.5759
-40.0285
-31.3544
-23.4716
-15.735
-6.20865
19.0282
-30.2217
-91.1007
-77.4357
-63.8899
-57.1225
-49.1389
-40.3326
-31.5505
-23.6153
-15.8579
-6.35086
19.105
35.5537
13.494
1.35116
1.25741
2.26437
1.83545
1.06586
0.642563
0.487653
0.391876
0.290102
0.200312
0.136299
0.0927649
0.0609232
0.0368411
0.0197007
0.00882202
0.00122317
0.00392753
38.3009
12.7989
1.04211
1.21817
2.20552
1.78321
1.03141
0.617921
0.468609
0.37751
0.279807
0.193206
0.131451
0.0894632
0.058662
0.0352993
0.0186446
0.00817928
-4.71854e-05
0.00507808
40.6704
12.1309
0.846548
1.18755
2.15947
1.74798
1.00936
0.603191
0.458167
0.370016
0.274351
0.189164
0.128412
0.0871775
0.0569687
0.0340857
0.0177918
0.00764753
-0.000846153
0.0056913
42.6259
11.5228
0.709505
1.15013
2.12004
1.7226
0.99386
0.592396
0.450088
0.363929
0.269792
0.185774
0.125898
0.0853208
0.0556144
0.033128
0.0171284
0.00723698
-0.00134341
0.00601761
44.2076
11.0273
0.624158
1.12133
2.09358
1.70552
0.982378
0.583883
0.443639
0.359078
0.266173
0.183087
0.12391
0.0838632
0.0545574
0.032383
0.0166167
0.00691963
-0.00166343
0.00618644
45.401
10.6452
0.570378
1.09723
2.07368
1.69244
0.973216
0.577037
0.438502
0.355248
0.263329
0.180977
0.122351
0.0827225
0.0537335
0.0318027
0.0162202
0.00667269
-0.0018775
0.0062703
46.2339
10.3619
0.53372
1.07648
2.05813
1.68213
0.96589
0.571572
0.434429
0.352231
0.261094
0.17932
0.121128
0.0818288
0.0530901
0.0313501
0.0159122
0.00648035
-0.00202537
0.00630927
46.8032
10.1526
0.505323
1.05875
2.04586
1.67402
0.960067
0.567228
0.431207
0.349855
0.259338
0.178019
0.120169
0.0811296
0.052588
0.0309975
0.0156728
0.00633078
-0.00213011
0.00632502
47.2194
9.99404
0.480337
1.04396
2.0362
1.66764
0.955453
0.563784
0.428664
0.347987
0.25796
0.177
0.119419
0.0805837
0.0521968
0.0307231
0.0154871
0.00621461
-0.00220589
0.00632912
47.4982
9.88329
0.457745
1.03187
2.02861
1.66262
0.951805
0.561062
0.426662
0.346522
0.256882
0.176204
0.118834
0.0801582
0.0518922
0.0305098
0.0153429
0.00612441
-0.00226172
0.00632769
0.658587
0.758809
1.03172
1.48053
2.14384
3.10471
4.47248
6.37295
8.93878
12.3007
16.5503
21.8764
28.5158
37.3594
47.9411
0.638702
0.728714
0.977147
1.387
1.9949
2.88308
4.16667
5.99105
8.53576
12.0244
16.6866
22.619
29.1838
35.2317
38.3892
61.5657
77.8528
97.0889
119.781
146.223
176.501
209.774
244.072
274.251
296.427
42.5577
58.4591
77.8216
97.5857
116.879
134.04
146.55
152.435
150.344
144.125
-64.8061
-140.879
-135.274
-127.19
-120.738
-110.251
-95.0448
-75.5372
-50.7104
-16.8281
-50.1328
-132.204
-131.727
-125.651
-119.912
-109.717
-94.6679
-75.2704
-50.5328
-16.8967
-35.3262
-125.612
-129.441
-124.064
-118.776
-108.948
-94.1312
-74.8916
-50.2817
-16.9266
-20.8018
-117.661
-126.403
-121.883
-117.203
-107.872
-93.3654
-74.3466
-49.922
-16.919
-7.11784
-106.905
-122.069
-119.074
-115.165
-106.445
-92.3231
-73.5848
-49.3978
-16.8708
4.05581
-93.6302
-116.714
-115.892
-112.695
-104.649
-90.9891
-72.5896
-48.6891
-16.7908
11.5808
-78.2982
-109.857
-112.051
-109.572
-102.332
-89.2879
-71.3304
-47.8015
-16.7131
15.1036
-62.0209
-101.029
-107.272
-105.664
-99.3595
-87.1126
-69.7288
-46.6981
-16.6263
15.0721
-46.6089
-90.3038
-101.526
-101.154
-95.8026
-84.449
-67.7433
-45.3639
-16.5576
13.2681
-32.9467
-76.989
-93.4963
-95.3163
-91.2271
-81.0218
-65.201
-43.6683
-16.4247
47.4502
9.85147
0.438437
1.02068
2.02183
1.65817
0.94856
0.558641
0.424888
0.345229
0.255932
0.175503
0.11832
0.0797847
0.0516252
0.0303229
0.0152166
0.00604531
-0.00230881
0.0063232
47.0885
9.89294
0.415532
1.00708
2.01391
1.653
0.944772
0.555816
0.422827
0.34373
0.254833
0.174693
0.117726
0.0793544
0.0513179
0.030108
0.0150715
0.00595437
-0.00236074
0.00631455
46.5272
9.97854
0.380797
0.988353
2.00347
1.64618
0.939769
0.552095
0.420125
0.341775
0.253403
0.173641
0.116957
0.0787973
0.0509208
0.0298307
0.0148845
0.00583719
-0.00242402
0.0062983
45.6302
10.1182
0.3325
0.961755
1.98961
1.63718
0.933155
0.547189
0.416587
0.33923
0.251549
0.17228
0.115964
0.07808
0.0504105
0.0294749
0.0146447
0.00568703
-0.00249968
0.00626908
44.2475
10.3259
0.270647
0.923632
1.97122
1.62539
0.924439
0.540733
0.41196
0.335922
0.249144
0.170517
0.114678
0.0771523
0.0497507
0.0290143
0.014333
0.00549073
-0.0025929
0.00621615
42.2902
10.6046
0.197426
0.869779
1.947
1.61011
0.913011
0.532238
0.405876
0.331576
0.245981
0.168193
0.112979
0.075922
0.0488717
0.028397
0.0139115
0.00522198
-0.00271727
0.0061239
39.758
10.9462
0.117685
0.794047
1.91487
1.59041
0.898041
0.521059
0.397863
0.325843
0.241794
0.1651
0.110707
0.0742683
0.0476829
0.0275566
0.0133329
0.00484939
-0.00288772
0.00597799
36.6698
11.317
0.0399189
0.687047
1.87134
1.5652
0.87859
0.506441
0.3874
0.318369
0.236336
0.161065
0.107737
0.072105
0.046126
0.0264546
0.0125729
0.00435924
-0.00310272
0.0057718
32.9547
11.6423
-0.0149125
0.54101
1.81291
1.53466
0.854354
0.48784
0.374072
0.308868
0.229401
0.155935
0.103961
0.0693533
0.0441451
0.0250516
0.0116046
0.00373304
-0.00336333
0.00549005
28.6117
11.8363
-0.0137108
0.343397
1.72571
1.49377
0.822006
0.462401
0.35583
0.295929
0.219963
0.148937
0.0987899
0.0655689
0.0414047
0.0230961
0.0102423
0.00283786
-0.00375273
0.00506997
0.6212
0.705465
0.937979
1.32199
1.89193
2.7254
3.93005
5.63613
7.98566
11.0907
14.8861
18.7949
21.4596
21.0798
16.7758
0.601075
0.679329
0.894595
1.24828
1.76779
2.51479
3.56546
4.98773
6.79941
8.87465
10.7831
11.6878
10.658
7.23588
1.86957
0.570224
0.639293
0.826607
1.12924
1.56186
2.15859
2.94382
3.89134
4.86127
5.52655
5.38007
3.94203
1.06278
-3.00242
-7.77071
0.522605
0.576981
0.719442
0.939734
1.23133
1.58341
1.94282
2.16877
2.00675
1.14365
-0.625029
-3.2459
-6.4321
-9.8119
-13.0548
0.448797
0.479734
0.551263
0.64096
0.70982
0.687254
0.445965
-0.190827
-1.37139
-3.10419
-5.23177
-7.52196
-9.76731
-11.8249
-13.6099
0.335052
0.329425
0.292977
0.188874
-0.0517607
-0.527962
-1.33364
-2.49181
-3.91904
-5.46862
-7.00251
-8.42364
-9.67238
-10.7218
-11.5703
0.165375
0.107171
-0.0735722
-0.409216
-0.943165
-1.69589
-2.62469
-3.63747
-4.64138
-5.57157
-6.38975
-7.07751
-7.63389
-8.07201
-8.41029
-0.0630548
-0.179184
-0.488506
-0.964017
-1.55702
-2.2082
-2.85736
-3.45938
-3.98744
-4.4289
-4.78294
-5.05816
-5.26805
-5.42675
-5.54584
-0.290317
-0.42566
-0.725855
-1.10318
-1.48629
-1.84261
-2.15777
-2.42319
-2.63589
-2.79966
-2.9227
-3.01412
-3.08178
-3.13187
-3.16889
-0.324369
-0.424064
-0.596841
-0.775538
-0.929683
-1.05663
-1.15904
-1.23882
-1.29866
-1.34251
-1.37439
-1.39759
-1.41452
-1.42695
-1.43608
5.17871
-24.8832
-60.1358
-79.496
-84.6154
-82.8915
-75.0544
-61.1752
-41.2757
-16.3497
-7.45956
-25.9161
-48.9964
-65.8799
-72.4972
-72.1565
-66.3957
-55.1265
-38.1662
-16.782
-14.3577
-24.4442
-36.8051
-47.9555
-54.4346
-55.9549
-53.1246
-45.6568
-33.0739
-16.5435
-16.9205
-22.1677
-28.4254
-34.851
-39.86
-42.2085
-41.3777
-36.9925
-28.6163
-16.9403
-15.5972
-18.097
-20.9355
-23.9093
-26.5125
-28.0759
-28.027
-25.962
-21.5465
-14.9468
-12.4648
-13.5275
-14.6912
-15.9156
-17.0665
-17.914
-18.169
-17.5343
-15.7318
-12.6603
-8.75515
-9.14545
-9.55969
-9.99258
-10.4073
-10.7357
-10.8812
-10.7238
-10.1276
-8.98253
-5.66461
-5.79469
-5.93012
-6.07184
-6.21043
-6.32759
-6.39724
-6.38406
-6.24215
-5.91997
-3.20509
-3.24312
-3.28157
-3.32186
-3.36186
-3.39678
-3.42013
-3.42291
-3.39233
-3.31102
-1.44508
-1.45519
-1.46542
-1.476
-1.48671
-1.49669
-1.50465
-1.50903
-1.50771
-1.49766
22.0929
11.6512
0.0394439
-0.0143585
1.53453
1.4097
0.760849
0.413906
0.320993
0.271503
0.202328
0.135946
0.0892529
0.058645
0.0364398
0.0195945
0.0078407
0.00128881
-0.00438966
0.00438159
13.4853
10.3949
0.319045
-0.431539
1.22501
1.2989
0.696557
0.357754
0.278977
0.243056
0.182525
0.121582
0.0788579
0.0512758
0.0313189
0.0161193
0.00558738
-2.86312e-05
-0.00450746
0.00376543
5.12107
7.72108
0.635594
-0.851156
0.670553
1.03591
0.55705
0.23935
0.182486
0.172847
0.131468
0.0829925
0.0494011
0.0289863
0.0145845
0.00363216
-0.00360876
-0.00662136
-0.00838237
0.000310028
-2.54722
3.04033
0.0668665
-1.41288
-0.214825
0.508261
0.312083
0.0717864
0.0492277
0.0797912
0.0704252
0.041667
0.0208698
0.00985633
0.00242165
-0.00355149
-0.00722929
-0.00766406
-0.00666646
0.00152456
-6.60051
-1.17045
-0.851451
-1.54839
-0.845141
-0.0274549
0.0843628
-0.047503
-0.0604906
-0.0103082
0.00719362
-0.00394798
-0.014738
-0.0183305
-0.0195299
-0.0205401
-0.0202797
-0.0175514
-0.012733
-0.00424527
-8.47592
-4.75569
-3.04115
-2.61116
-2.00807
-1.20625
-0.747396
-0.597978
-0.48589
-0.350317
-0.247631
-0.189977
-0.152778
-0.121494
-0.095527
-0.0753791
-0.0588329
-0.0435282
-0.0282137
-0.0123676
-7.24434
-5.28872
-3.78462
-2.89998
-2.25159
-1.60085
-1.07268
-0.754493
-0.556099
-0.394088
-0.266158
-0.182567
-0.130688
-0.0943124
-0.0669814
-0.0468934
-0.0313476
-0.0174185
-0.00247976
0.00585247
-5.372
-4.61817
-3.85199
-3.21541
-2.69671
-2.22227
-1.78767
-1.43262
-1.15867
-0.935742
-0.747762
-0.595399
-0.476247
-0.381718
-0.304584
-0.241104
-0.187903
-0.142202
-0.0951328
-0.0491023
-3.15915
-2.91131
-2.60872
-2.2978
-1.99906
-1.71082
-1.43274
-1.17581
-0.95038
-0.756718
-0.590798
-0.451105
-0.337055
-0.245776
-0.17283
-0.11417
-0.0664652
-0.0274621
0.00241115
0.0125461
-1.47388
-1.42589
-1.35957
-1.28313
-1.20131
-1.11585
-1.02807
-0.94049
-0.856157
-0.776952
-0.703261
-0.634971
-0.571928
-0.51346
-0.4579
-0.402958
-0.344348
-0.278911
-0.188692
-0.0931688
)
;

boundaryField
{
    inlet
    {
        type            freestreamPressure;
        freestreamValue uniform 0;
        value           nonuniform List<scalar> 
24
(
0.536567
0.89688
0.997368
0.970625
0.905673
0.841775
0.790735
0.753327
0.727009
0.708817
0.693196
0.676938
0.658587
0.638702
0.6212
0.601075
0.570224
0.522605
0.448797
0.335052
0.165375
-0.0630548
-0.290317
-0.324369
)
;
    }
    outlet
    {
        type            freestreamPressure;
        freestreamValue uniform 0;
        value           nonuniform List<scalar> 
40
(
-8.72825e-07
8.15204e-07
-5.5771e-07
4.35944e-07
-1.26894e-07
8.27727e-08
-3.36885e-08
-8.49059e-08
-2.45629e-08
9.97569e-09
6.40735e-08
8.32291e-08
9.33184e-08
9.84901e-08
1.01004e-07
1.02127e-07
1.02547e-07
1.02628e-07
1.02555e-07
1.02423e-07
1.02255e-07
1.02007e-07
1.01607e-07
1.00967e-07
9.99286e-08
9.82957e-08
9.58899e-08
9.25558e-08
8.80251e-08
8.13417e-08
7.02606e-08
6.00309e-08
5.08746e-09
2.32082e-08
-7.42624e-08
-1.74519e-07
1.07809e-07
-6.61199e-07
2.24619e-07
-1.23676e-06
)
;
    }
    topBottom
    {
        type            freestreamPressure;
        freestreamValue uniform 0;
        value           nonuniform List<scalar> 
92
(
0.268212
0.279651
0.30077
0.316956
0.323275
0.323236
0.321105
0.318939
0.317227
0.315953
0.315041
0.314416
0.314001
0.313727
0.313543
0.313418
0.313317
0.31316
0.312898
0.312488
0.311866
0.310921
0.309485
0.307307
0.304005
0.298979
0.291297
0.280677
0.268075
0.252388
0.232715
0.208897
0.181751
0.152481
0.121987
0.0909474
0.0603312
0.0313697
0.00507445
-0.0179016
-0.0370174
-0.0516726
-0.0613226
-0.0650692
-0.0622452
-0.0480414
-0.0261151
-0.162185
-0.212032
-0.29842
-0.387769
-0.464841
-0.528313
-0.57952
-0.619408
-0.649332
-0.671257
-0.687197
-0.698795
-0.707262
-0.713475
-0.718041
-0.722539
-0.727596
-0.73271
-0.738002
-0.743356
-0.748347
-0.752326
-0.754513
-0.753856
-0.748832
-0.736942
-0.712947
-0.679783
-0.641565
-0.600656
-0.557923
-0.514033
-0.470245
-0.428079
-0.388476
-0.35163
-0.317486
-0.285964
-0.25673
-0.22895
-0.201479
-0.172174
-0.139455
-0.0943458
-0.0465844
)
;
    }
    wing
    {
        type            zeroGradient;
    }
    defaultFaces
    {
        type            empty;
    }
}


// ************************************************************************* //
