/*--------------------------------*- C++ -*----------------------------------*\
| =========                 |                                                 |
| \\      /  F ield         | OpenFOAM: The Open Source CFD Toolbox           |
|  \\    /   O peration     | Version:  v1912                                 |
|   \\  /    A nd           | Website:  www.openfoam.com                      |
|    \\/     M anipulation  |                                                 |
\*---------------------------------------------------------------------------*/
FoamFile
{
    version     2.0;
    format      ascii;
    class       surfaceScalarField;
    location    "800";
    object      phi;
}
// * * * * * * * * * * * * * * * * * * * * * * * * * * * * * * * * * * * * * //

dimensions      [0 3 -1 0 0 0 0];
oriented        oriented;


internalField   nonuniform List<scalar> 
3189
(
0.419503
-7.62052e-05
0.419476
-0.000148661
0.419456
-0.000184915
0.419445
-0.000197972
0.419442
-0.000193447
0.419442
-0.000176963
0.419444
-0.000154197
0.419446
-0.000129687
0.419448
-0.000106338
0.419449
-8.56329e-05
0.41945
-6.80827e-05
0.41945
-5.36408e-05
0.419451
-4.19893e-05
0.419451
-3.2715e-05
-2.54018e-05
0.419451
0.278417
-3.1622e-05
0.278333
-6.50852e-05
0.278241
-9.25933e-05
0.278156
-0.000113343
0.278087
-0.000124787
0.278037
-0.000126737
0.278004
-0.000120604
0.277983
-0.000108838
0.277971
-9.41989e-05
0.277964
-7.89719e-05
0.27796
-6.46502e-05
0.277959
-5.20091e-05
0.277958
-4.13141e-05
0.277958
-3.25224e-05
-2.54363e-05
0.277958
0.184786
1.16027e-05
0.184698
2.23124e-05
0.184598
8.12692e-06
0.184505
-2.10829e-05
0.184434
-5.33662e-05
0.184387
-7.94561e-05
0.184361
-9.47588e-05
0.184351
-9.86229e-05
0.18435
-9.32576e-05
0.184353
-8.23087e-05
0.184358
-6.92217e-05
0.184362
-5.63419e-05
0.184366
-4.48831e-05
0.184368
-3.52687e-05
-2.74787e-05
0.18437
0.122647
4.31125e-05
0.122576
9.33025e-05
0.122481
0.000103102
0.122377
8.28135e-05
0.122281
4.26624e-05
0.122205
-3.06208e-06
0.122152
-4.19936e-05
0.122122
-6.82262e-05
0.12211
-8.10938e-05
0.12211
-8.27664e-05
0.122118
-7.68283e-05
0.122128
-6.69569e-05
0.122139
-5.59245e-05
0.12215
-4.53842e-05
-3.61152e-05
0.122158
0.0814058
6.33116e-05
0.0813574
0.000141791
0.0812853
0.000175152
0.0811939
0.000174235
0.0810949
0.000141624
0.0810066
8.5273e-05
0.0809445
2.00741e-05
0.0809145
-3.82002e-05
0.0809133
-7.98856e-05
0.080933
-0.000102507
0.0809644
-0.00010819
0.0809991
-0.000101623
0.0810315
-8.83214e-05
0.081059
-7.29121e-05
-5.82459e-05
0.0810811
0.0540325
7.57062e-05
0.0540019
0.000172382
0.0539537
0.000223275
0.0538863
0.000241668
0.0538012
0.000226739
0.0537069
0.000179529
0.0536192
0.000107829
0.0535541
2.69197e-05
0.0535194
-4.52622e-05
0.0535136
-9.66764e-05
0.0535302
-0.000124814
0.0535619
-0.000133319
0.0536015
-0.000127904
0.0536429
-0.000114267
-9.70142e-05
0.0536816
0.0358635
8.32876e-05
0.0358446
0.000191258
0.0358141
0.000253844
0.0357689
0.000286845
0.0357066
0.000289039
0.0356273
0.000258812
0.0355372
0.000197978
0.0354507
0.000113374
0.0353875
1.79769e-05
0.0353616
-7.08336e-05
0.0353748
-0.000137978
0.0354177
-0.000176213
0.0354765
-0.000186747
0.0355387
-0.000176471
-0.000154338
0.0355961
0.023804
8.79859e-05
0.0237923
0.000202944
0.0237731
0.000273038
0.023744
0.000315969
0.023702
0.000331035
0.0236445
0.0003163
0.0235709
0.000271598
0.0234851
0.00019917
0.0233979
0.000105167
0.0233255
1.52485e-06
0.0232823
-9.47633e-05
0.0232743
-0.000168205
0.0232998
-0.000212207
0.0233508
-0.000227506
-0.000220004
0.0234165
0.0157996
9.09478e-05
0.0157922
0.000210281
0.0157801
0.00028516
0.0157615
0.000334579
0.0157341
0.000358416
0.0156954
0.000355061
0.0156429
0.00032408
0.0155758
0.000266215
0.0154972
0.000183828
0.0154172
8.15347e-05
0.0153534
-3.10033e-05
0.0153221
-0.000136906
0.015329
-0.000219101
0.0153664
-0.00026487
-0.000282913
0.0154293
0.0104867
9.28365e-05
0.0104821
0.000214954
0.0104743
0.000292926
0.0104623
0.000346607
0.0104443
0.000376366
0.0104183
0.000381057
0.0103818
0.000360568
0.0103325
0.000315599
0.0102685
0.000247777
0.0101908
0.000159204
0.0101071
5.2762e-05
0.010034
-6.37924e-05
0.00999114
-0.000176284
0.009978
-0.000251727
0.00999941
-0.000304328
0.419462
-2.92438e-05
0.419475
-3.6249e-05
0.419491
-4.49873e-05
0.419511
-5.59142e-05
0.419536
-6.96186e-05
0.419566
-8.68668e-05
0.419605
-0.000108664
0.419652
-0.000136345
0.419711
-0.000171696
0.419785
-0.000217145
0.419879
-0.000276059
-0.00035326
0.419996
0.277965
-3.62846e-05
0.277974
-4.49618e-05
0.277985
-5.57727e-05
0.277998
-6.92655e-05
0.278014
-8.61419e-05
0.278035
-0.000107297
0.27806
-0.000133878
0.278091
-0.000167363
0.278129
-0.000209687
0.278175
-0.000263508
0.278232
-0.000332753
-0.000423979
0.278303
0.184376
-4.22752e-05
0.184384
-5.23835e-05
0.184393
-6.49442e-05
0.184404
-8.05482e-05
0.184418
-9.99031e-05
0.184435
-0.000123828
0.184454
-0.000153236
0.184476
-0.000189115
0.184499
-0.000232686
0.184521
-0.00028617
0.184543
-0.000354891
-0.000452809
0.184572
0.122168
-5.20881e-05
0.12218
-6.45669e-05
0.122195
-7.99565e-05
0.122213
-9.87836e-05
0.122235
-0.000121475
0.122259
-0.00014811
0.122284
-0.000178045
0.122305
-0.000209681
0.122313
-0.000241117
0.1223
-0.000273032
0.12226
-0.000315209
-0.000400564
0.122208
0.0810996
-7.05619e-05
0.0811229
-8.78323e-05
0.0811519
-0.00010897
0.0811873
-0.000134237
0.0812288
-0.000162978
0.0812733
-0.000192618
0.0813131
-0.000217764
0.0813341
-0.000230728
0.0813178
-0.000224834
0.0812464
-0.000201626
0.0811161
-0.000184915
-0.000251512
0.0809671
0.0537154
-0.000104291
0.0537592
-0.000131693
0.0538155
-0.000165259
0.0538855
-0.000204186
0.0539667
-0.000244244
0.0540496
-0.000275532
0.0541154
-0.000283549
0.0541389
-0.000254253
0.0540941
-0.000180027
0.0539605
-6.79426e-05
0.0537364
3.9093e-05
4.02413e-06
0.0534809
0.0356434
-0.000151593
0.035708
-0.000196351
0.0357942
-0.000251456
0.0359024
-0.00031234
0.0360223
-0.000364211
0.0361309
-0.000384124
0.0361997
-0.000352368
0.0362036
-0.000258122
0.0361218
-9.81685e-05
0.0359364
0.000117407
0.0356374
0.000338125
0.000345006
0.0352964
0.0234833
-0.000218435
0.0235806
-0.000293644
0.0237156
-0.000386422
0.0238792
-0.000475972
0.0240392
-0.000524185
0.0241595
-0.000504444
0.0242181
-0.000410947
0.0242037
-0.000243687
0.02411
-4.52801e-06
0.023925
0.000302397
0.0236102
0.000652984
0.000725031
0.0232301
0.0155011
-0.000290215
0.0156185
-0.000411123
0.015786
-0.000553915
0.0159716
-0.000661522
0.0161216
-0.000674234
0.0162101
-0.000592893
0.0162303
-0.00043121
0.0161871
-0.000200417
0.0160876
9.49315e-05
0.0159245
0.000465553
0.0156288
0.000948656
0.00109471
0.0152591
0.0100882
-0.000378956
0.010245
-0.000567928
0.010459
-0.000767907
0.0106536
-0.000856182
0.010786
-0.000806598
0.01085
-0.00065693
0.0108468
-0.000427963
0.0107966
-0.000150249
0.0107128
0.000178712
0.01059
0.000588373
0.0103467
0.00119193
0.0100335
0.00140795
0.420011
-0.000262437
0.42003
-0.00029742
0.420053
-0.000337336
0.420082
-0.000381802
0.420116
-0.000429928
0.420153
-0.000481221
0.420192
-0.000535909
0.420233
-0.000594136
0.420274
-0.000655523
0.420313
-0.000719793
0.42035
-0.000787193
0.420382
-0.000858115
0.420411
-0.000932784
0.420433
-0.00101141
0.420449
-0.00109433
0.420458
-0.00118191
0.420459
-0.00127414
0.420448
-0.00137087
0.420418
-0.00146821
-0.00156697
0.278311
-0.000270725
0.27833
-0.000316675
0.278364
-0.000371261
0.278412
-0.000429233
0.278468
-0.000486023
0.278529
-0.000542603
0.278595
-0.000601663
0.278663
-0.000662471
0.278731
-0.000723156
0.278795
-0.000784229
0.278856
-0.000847356
0.278911
-0.000913248
0.27896
-0.000982074
0.279003
-0.00105443
0.27904
-0.00113119
0.279071
-0.00121303
0.279097
-0.00130067
0.279121
-0.00139468
0.279152
-0.0014989
-0.0016159
0.184569
-0.000267439
0.184595
-0.00034234
0.184653
-0.000429305
0.184727
-0.000503279
0.184801
-0.000560159
0.184875
-0.00061623
0.184949
-0.000676486
0.18502
-0.000733364
0.185082
-0.000785402
0.185136
-0.000837789
0.185182
-0.00089329
0.18522
-0.000951613
0.185251
-0.00101303
0.185276
-0.00107883
0.185295
-0.00115003
0.185309
-0.00122722
0.185319
-0.00131093
0.185326
-0.00140201
0.185327
-0.0014994
-0.00160087
0.122172
-0.000231874
0.122214
-0.000384177
0.122313
-0.000527992
0.12241
-0.00059993
0.122491
-0.000641825
0.122574
-0.000699197
0.122656
-0.000757845
0.122725
-0.000802261
0.122781
-0.000841628
0.122828
-0.000885247
0.122868
-0.000933023
0.1229
-0.000983722
0.122926
-0.00103858
0.122946
-0.00109911
0.122962
-0.00116597
0.122974
-0.00123947
0.122983
-0.00132025
0.12299
-0.00140843
0.122997
-0.00150634
-0.0016127
0.0809098
-0.000174613
0.0810108
-0.000485147
0.0811498
-0.000666989
0.0812361
-0.000686281
0.0813067
-0.000712393
0.0813818
-0.000774357
0.0814433
-0.000819293
0.0814869
-0.000845891
0.0815208
-0.000875459
0.0815482
-0.000912674
0.0815693
-0.000954129
0.0815851
-0.000999525
0.0815971
-0.00105058
0.0816062
-0.00110823
0.081613
-0.00117272
0.0816178
-0.00124434
0.0816213
-0.00132367
0.0816236
-0.0014108
0.081625
-0.0015077
-0.00161097
0.0534541
-0.000147817
0.0536497
-0.000680692
0.0537922
-0.00080953
0.0538618
-0.000755872
0.0539372
-0.000787847
0.0540053
-0.000842454
0.0540497
-0.00086364
0.0540806
-0.000876796
0.0541055
-0.00090033
0.0541247
-0.000931863
0.0541387
-0.000968143
0.0541491
-0.00100993
0.054157
-0.00105851
0.054163
-0.00111421
0.0541674
-0.00117714
0.0541707
-0.00124764
0.0541734
-0.00132635
0.0541753
-0.00141274
0.0541786
-0.00151099
-0.00161349
0.0353586
-0.000209978
0.0355965
-0.000918635
0.0356861
-0.000899097
0.0357437
-0.000813475
0.0358115
-0.000855664
0.0358552
-0.000886158
0.0358797
-0.000888121
0.0358983
-0.000895403
0.0359132
-0.000915214
0.0359239
-0.000942637
0.0359317
-0.00097595
0.0359379
-0.0010161
0.0359433
-0.00106385
0.0359482
-0.00111918
0.0359532
-0.00118211
0.0359585
-0.00125296
0.0359645
-0.00133233
0.0359707
-0.00141895
0.0359792
-0.00151947
-0.00161806
0.0234204
-0.000400241
0.0236197
-0.00111798
0.0236671
-0.000946464
0.0237287
-0.000875092
0.0237808
-0.000907757
0.0238049
-0.000910214
0.0238188
-0.000902016
0.0238305
-0.000907182
0.02384
-0.000924702
0.0238476
-0.000950205
0.0238545
-0.0009828
0.0238612
-0.00102283
0.0238677
-0.00107035
0.0238735
-0.00112503
0.0238778
-0.00118641
0.0238795
-0.00125459
0.0238764
-0.00132924
0.0238696
-0.00141215
0.0238482
-0.00149807
-0.00159761
0.01553
-0.000671117
0.0156434
-0.0012314
0.0156757
-0.000978744
0.0157328
-0.000932173
0.0157656
-0.00094056
0.0157792
-0.00092381
0.0157901
-0.000912931
0.0158008
-0.000917941
0.0158097
-0.000933539
0.0158154
-0.000955884
0.0158167
-0.000984183
0.0158123
-0.00101834
0.0158002
-0.00105831
0.0157795
-0.00110429
0.0157496
-0.00115651
0.0157109
-0.00121586
0.0156634
-0.00128177
0.0156126
-0.00136142
0.0155437
-0.00142915
-0.00155029
0.010312
-0.000949649
0.010352
-0.00127136
0.0103852
-0.00101197
0.010432
-0.000978935
0.0104534
-0.000962007
0.0104619
-0.000932352
0.010464
-0.000915014
0.0104567
-0.000910597
0.010437
-0.000913887
0.0104048
-0.000923638
0.0103619
-0.000941263
0.0103115
-0.000968027
0.0102577
-0.00100443
0.010204
-0.00105065
0.0101541
-0.00110661
0.0101108
-0.0011725
0.010076
-0.00124702
0.0100505
-0.00133596
0.0100352
-0.00141377
-0.00154536
0.0112219
0.000440812
0.010954
0.000482885
0.010747
0.000499932
0.0105853
0.000508246
0.0104559
0.000505804
0.010347
0.000489964
0.0102477
0.000459846
0.0101474
0.000415951
0.0100349
0.000360282
0.00989808
0.000295993
0.00972627
0.000224571
0.00951859
0.000143887
0.00929764
4.46703e-05
0.00909692
-5.10129e-05
-0.000162062
0.00895466
0.0119163
9.44358e-05
0.0121804
0.000218776
0.0123805
0.000299755
0.01253
0.000358742
0.0126382
0.00039766
0.0127111
0.000417026
0.0127525
0.000418444
0.0127643
0.000404222
0.0127473
0.000377281
0.0127025
0.000340752
0.012628
0.000299045
0.0125169
0.000255002
0.0123489
0.000212696
0.012129
0.000168883
0.0118357
0.000131267
0.00665997
-0.00285083
0.00514552
0.00489232
-0.0021984
0.00396605
0.00353258
-0.00170245
0.00306219
0.0024886
-0.00132538
0.00236936
0.00168782
-0.00103775
0.00183853
0.0010743
-0.000819199
0.00143272
0.000609261
-0.000654462
0.0011195
0.000270806
-0.000533086
0.000871541
6.39548e-05
-0.000445682
0.000652533
-0.000402691
0.000466645
0.00888262
0.00010221
0.00662009
6.41316e-05
0.00488722
3.04183e-05
0.00356068
1.15719e-06
0.0025464
-2.3466e-05
0.00177016
-4.29648e-05
0.00117228
-5.65784e-05
0.000702989
-6.37969e-05
0.000323168
-6.58606e-05
-7.95226e-05
0.00488655
-0.00011998
0.0047255
-0.000406877
0.00457463
-0.000617038
0.0043996
-0.000681154
0.00423962
-0.000646616
0.00411146
-0.000528778
0.00403184
-0.000348343
0.00401707
-0.000135476
0.00408233
0.000113447
0.00424945
0.000421256
0.00458955
0.000851838
0.000981338
0.00501616
0.00379412
5.19548e-05
0.003697
-0.000309764
0.00357428
-0.000494317
0.00343197
-0.00053884
0.00330619
-0.000520838
0.00320199
-0.000424574
0.00313681
-0.000283163
0.00312394
-0.000122604
0.00317365
6.37355e-05
0.00330248
0.00029242
0.00355342
0.000600898
0.000669163
0.0038656
0.00296944
0.000144704
0.00290977
-0.000250093
0.00280118
-0.000385728
0.00268634
-0.000424005
0.00258248
-0.000416975
0.00249429
-0.000336384
0.00243968
-0.000228558
0.00242742
-0.000110343
0.00246494
2.6219e-05
0.00256612
0.000191236
0.00275517
0.000411861
0.000431965
0.00299236
0.00233962
0.000174439
0.0022915
-0.00020197
0.00219546
-0.000289688
0.00210503
-0.000333579
0.00201759
-0.000329531
0.00194431
-0.000263103
0.00190007
-0.000184323
0.00188974
-0.000100012
0.00191859
-2.63271e-06
0.00199737
0.000112456
0.00214251
0.000266727
0.000259218
0.00231526
0.00185199
0.000160977
0.00180103
-0.000151004
0.00172207
-0.000210735
0.00165028
-0.000261784
0.00157606
-0.000255309
0.00151652
-0.000203568
0.00148155
-0.000149346
0.00147349
-9.1953e-05
0.00149612
-2.52663e-05
0.00155658
5.19981e-05
0.00166899
0.000154317
0.000160842
0.00176736
0.00146635
0.00012735
0.00141263
-9.72891e-05
0.00135318
-0.000151275
0.00129409
-0.000202695
0.00123278
-0.000194001
0.0011865
-0.000157293
0.00115899
-0.000121831
0.00115011
-8.30775e-05
0.00116056
-3.57177e-05
0.00119305
1.95097e-05
0.00125993
8.7441e-05
0.000124354
0.00129642
0.00115347
9.33821e-05
0.00110862
-5.24388e-05
0.00106793
-0.000110588
0.00101832
-0.000153087
0.000967299
-0.000142979
0.000926327
-0.00011632
0.000894465
-8.997e-05
0.000871667
-6.02787e-05
0.000861709
-2.57604e-05
0.000870118
1.11005e-05
0.000907761
4.98005e-05
0.000103544
0.000928568
0.000896401
6.85222e-05
0.000872135
-2.81728e-05
0.000846355
-8.48071e-05
0.000800212
-0.000106944
0.000746778
-8.95455e-05
0.000697214
-6.67564e-05
0.000656047
-4.88031e-05
0.000627419
-3.16506e-05
0.00061431
-1.2651e-05
0.000617864
7.54588e-06
0.000641675
2.59926e-05
7.96847e-05
0.000665529
0.000678546
4.25087e-05
0.000678113
-2.77397e-05
0.000651189
-5.78827e-05
0.000594697
-5.04517e-05
0.000536002
-3.08513e-05
0.000489684
-2.04378e-05
0.000456925
-1.60446e-05
0.000436128
-1.0853e-05
0.000427294
-3.81752e-06
0.000430798
4.04208e-06
0.000446617
1.01759e-05
4.53864e-05
0.000480911
0.000509154
0.000481414
0.000423532
0.00037308
0.000342229
0.000321791
0.000305746
0.000294893
0.000291076
0.000295118
0.000305294
0.00035068
0.00518683
-0.00112032
0.0052005
-0.00128504
0.00523234
-0.0010438
0.00525692
-0.00100352
0.00525612
-0.00096121
0.00523701
-0.00091324
0.00520377
-0.000881771
0.00516089
-0.000867722
0.005115
-0.000867993
0.00507271
-0.000881344
0.00503855
-0.000907107
0.00501449
-0.000943969
0.00500044
-0.000990366
0.00499504
-0.00104526
0.00499654
-0.00110811
0.00500314
-0.0011791
0.00501356
-0.00125744
0.00502546
-0.00134785
0.00504313
-0.00143144
-0.00155799
0.00401605
-0.00127076
0.00402311
-0.0012921
0.00403887
-0.00105957
0.00402306
-0.000987704
0.00397726
-0.000915416
0.00392379
-0.000859769
0.00387682
-0.000834802
0.00384297
-0.000833865
0.0038234
-0.000848427
0.00381607
-0.000874009
0.0038176
-0.00090864
0.00382489
-0.000951267
0.00383573
-0.0010012
0.00384866
-0.00105818
0.00386279
-0.00112224
0.0038775
-0.0011938
0.00389261
-0.00127256
0.00390689
-0.00136212
0.00392475
-0.00144931
-0.00156999
0.00310597
-0.00138438
0.00307735
-0.00126348
0.00304345
-0.00102566
0.0029883
-0.000932555
0.00293802
-0.000865131
0.00290927
-0.000831021
0.00290049
-0.000826023
0.00290469
-0.000838062
0.00291615
-0.000859885
0.00293119
-0.000889052
0.00294759
-0.000925044
0.00296404
-0.000967711
0.00297983
-0.001017
0.00299472
-0.00107307
0.00300866
-0.00113619
0.00302173
-0.00120687
0.00303422
-0.00128505
0.00304551
-0.00137342
0.00305913
-0.00146292
-0.001579
0.0023564
-0.00142551
0.00228341
-0.00119049
0.00223483
-0.00097708
0.00220278
-0.00090051
0.00219449
-0.000856836
0.00220455
-0.000841078
0.00222324
-0.000844717
0.00224403
-0.000858854
0.00226399
-0.000879842
0.00228214
-0.000907205
0.00229831
-0.000941215
0.00231261
-0.000982006
0.00232527
-0.00102967
0.00233661
-0.0010844
0.00234688
-0.00114646
0.00235631
-0.0012163
0.00236522
-0.00129395
0.00237323
-0.00138143
0.00238287
-0.00147256
-0.00158537
0.00173107
-0.00138922
0.00166544
-0.00112487
0.00165327
-0.000964903
0.00166241
-0.000909649
0.00168392
-0.000878351
0.0017095
-0.000866657
0.00173341
-0.000868625
0.00175365
-0.000879094
0.00177036
-0.000896552
0.00178425
-0.000921095
0.00179595
-0.000952915
0.00180594
-0.000991995
0.00181461
-0.00103833
0.00182228
-0.00109208
0.00182923
-0.00115341
0.00183564
-0.00122271
0.00184174
-0.00130005
0.00184727
-0.00138696
0.00185398
-0.00147927
-0.00158982
0.00124722
-0.00134003
0.00123128
-0.00110892
0.00125753
-0.000991149
0.00128803
-0.00094015
0.00131619
-0.000906516
0.00134003
-0.000890498
0.001359
-0.000887595
0.0013737
-0.000893794
0.00138521
-0.000908053
0.00139447
-0.000930357
0.00140213
-0.00096058
0.00140862
-0.000998485
0.00141426
-0.00104397
0.00141929
-0.0010971
0.0014239
-0.00115803
0.00142821
-0.00122703
0.00143238
-0.00130421
0.0014362
-0.00139078
0.00144091
-0.00148397
-0.00159294
0.000909173
-0.00132063
0.000936901
-0.00113665
0.000979781
-0.00103403
0.00101161
-0.00097198
0.0010347
-0.000929607
0.00105205
-0.000907842
0.00106504
-0.000900588
0.00107473
-0.000903484
0.00108213
-0.000915447
0.001088
-0.000936234
0.00109286
-0.000965432
0.00109699
-0.00100262
0.00110063
-0.0010476
0.00110393
-0.0011004
0.00110701
-0.00116111
0.00110995
-0.00122997
0.00111284
-0.00130711
0.00111553
-0.00139346
0.00111886
-0.00148731
-0.00159517
0.000679963
-0.00133507
0.000729704
-0.00118639
0.000771545
-0.00107587
0.000796581
-0.000997016
0.0008128
-0.000945826
0.000824415
-0.000919458
0.000832888
-0.000909061
0.000839067
-0.000909663
0.000843713
-0.000920093
0.000847395
-0.000939917
0.000850457
-0.000968496
0.000853104
-0.00100527
0.000855477
-0.00104998
0.000857678
-0.0011026
0.000859781
-0.00116321
0.000861826
-0.00123201
0.000863867
-0.00130915
0.000865785
-0.00139538
0.000868183
-0.00148971
-0.00159677
0.000521407
-0.00137557
0.00057465
-0.00123964
0.000608247
-0.00110946
0.000625985
-0.00101475
0.000636814
-0.000956654
0.000644408
-0.000927051
0.000649867
-0.00091452
0.000653784
-0.000913579
0.0006567
-0.00092301
0.000659018
-0.000942235
0.000660973
-0.00097045
0.000662697
-0.00100699
0.000664279
-0.00105156
0.000665782
-0.00110411
0.00066725
-0.00116468
0.000668702
-0.00123346
0.000670171
-0.00131061
0.000671563
-0.00139677
0.000673311
-0.00149146
-0.00159793
0.000406912
-0.0014318
0.000453313
-0.00128604
0.000478223
-0.00113437
0.000490427
-0.00102696
0.000497596
-0.000963823
0.000502562
-0.000932018
0.000506096
-0.000918055
0.000508597
-0.00091608
0.000510447
-0.000924859
0.000511929
-0.000943717
0.000513202
-0.000971724
0.000514353
-0.00100814
0.000515434
-0.00105264
0.000516486
-0.00110516
0.000517533
-0.00116573
0.000518584
-0.00123452
0.000519657
-0.00131169
0.000520681
-0.0013978
0.000521971
-0.00149275
-0.00159879
0.0135292
-0.000428618
0.0139338
-0.000185786
0.014244
-1.04427e-05
0.0144777
0.000124985
0.0146478
0.000227621
0.0147629
0.000301936
0.0148288
0.000352491
0.0148493
0.00038372
0.014827
0.00039961
0.0147646
0.000403127
0.014663
0.000400633
0.014518
0.00040005
0.0143013
0.000429391
0.0140119
0.000458231
0.000548369
0.0135948
0.0124848
9.26514e-05
0.0120808
0.000218176
0.011765
0.000305356
0.011514
0.000375992
0.0113085
0.000433086
0.0111323
0.000478178
0.0109708
0.000514012
0.0108101
0.000544404
0.0106356
0.000574141
0.0104291
0.000609648
0.0101698
0.000659916
0.00984302
0.000726793
0.00946655
0.000805862
0.00908012
0.000844663
0.00874356
0.000884928
0.0101384
0.00355869
0.00757298
0.0026295
0.00564524
0.00195816
0.00417829
0.00146811
0.0030471
0.00110772
0.00216104
0.000843094
0.00145456
0.000649905
0.000880767
0.000509994
0.000405617
0.000409289
0.000326094
0.00688656
0.00541569
0.00532316
0.00419291
0.00402196
0.00325935
0.002949
0.00254107
0.00207313
0.00198359
0.00137121
0.00154502
0.000827498
0.00119361
0.000427632
0.00090986
0.00016201
0.000674912
0.000488104
0.00051515
-2.70463e-05
0.000488228
2.6922e-05
0.000441788
4.64399e-05
0.000409242
3.25467e-05
0.000393513
1.57282e-05
0.000387403
6.11066e-06
0.000384595
2.80823e-06
0.000378251
6.34313e-06
0.000349705
2.85466e-05
3.9029e-06
0.000345802
0.000689439
-4.15739e-05
0.000690541
2.582e-05
0.000652724
8.42565e-05
0.000608541
7.67302e-05
0.000580408
4.38613e-05
0.000567817
1.87014e-05
0.000562791
7.83389e-06
0.000555648
1.34858e-05
0.000517949
6.62455e-05
2.95598e-05
0.000492292
0.000899665
-3.13791e-05
0.000897476
2.80091e-05
0.000876806
0.000104927
0.000843023
0.000110514
0.000820796
6.60881e-05
0.000812317
2.71804e-05
0.000809805
1.03453e-05
0.000800613
2.26787e-05
0.000751188
0.000115671
8.10365e-05
0.000699711
0.00117086
-8.62438e-06
0.00114318
5.56848e-05
0.00112518
0.000122931
0.00110246
0.000133237
0.00109837
7.01715e-05
0.00111176
1.37886e-05
0.00112801
-5.90314e-06
0.00112716
2.35335e-05
0.00106819
0.000174642
0.000164599
0.000984625
0.00151905
1.73497e-05
0.00145843
0.000116299
0.00143269
0.000148669
0.00140984
0.000156092
0.00141271
6.72963e-05
0.00144485
-1.83528e-05
0.00148986
-5.09123e-05
0.00152306
-9.65985e-06
0.00148177
0.00021593
0.000282637
0.00136373
0.00196088
4.0055e-05
0.00186523
0.000211948
0.00182608
0.000187819
0.00180202
0.000180158
0.00180701
6.23008e-05
0.00184859
-5.99235e-05
0.00190912
-0.00011145
0.00196392
-6.44543e-05
0.00195266
0.000227189
0.00041775
0.00181755
0.0025148
6.63291e-05
0.00238935
0.000337392
0.00232804
0.000249135
0.00230415
0.00020404
0.00231449
5.19631e-05
0.00236902
-0.000114452
0.00244792
-0.000190348
0.00251626
-0.000132798
0.00251341
0.000230045
0.00058109
0.00235007
0.00320727
0.00011841
0.00306299
0.000481679
0.00297122
0.000340906
0.00294736
0.000227891
0.00296758
3.17428e-05
0.00304007
-0.000186942
0.00314348
-0.000293756
0.00323181
-0.000221127
0.00322998
0.000231872
0.000782676
0.0030284
0.00407814
0.00023318
0.0039227
0.00063712
0.0037966
0.000466999
0.00377165
0.000252839
0.0038104
-7.00771e-06
0.00391015
-0.000286685
0.00404719
-0.000430796
0.00416399
-0.000337931
0.00416558
0.000230285
0.00102555
0.00392271
0.00519915
0.000449724
0.00503099
0.000805277
0.00486929
0.000628697
0.00483146
0.000290671
0.00488973
-6.52746e-05
0.00502576
-0.000422714
0.00520984
-0.000614875
0.00536781
-0.000495906
0.00538098
0.00021711
0.00510466
0.00130187
0.000415594
-0.00150159
0.000461472
-0.00133192
0.00048468
-0.00115758
0.000495422
-0.0010377
0.00050149
-0.000969891
0.000505637
-0.000936165
0.00050856
-0.000920978
0.000510602
-0.000918123
0.000512106
-0.000926364
0.000513327
-0.000944937
0.000514402
-0.000972799
0.000515401
-0.00100914
0.000516367
-0.00105361
0.000517328
-0.00110612
0.000518302
-0.0011667
0.000519293
-0.00123551
0.000520314
-0.00131271
0.000521293
-0.00139878
0.000522527
-0.00149398
-0.00159962
0.000557802
-0.0015671
0.000608537
-0.00138265
0.000635309
-0.00118435
0.000647008
-0.0010494
0.000653231
-0.000976115
0.000657382
-0.000940317
0.00066027
-0.000923865
0.000662256
-0.00092011
0.000663718
-0.000927826
0.000664936
-0.000946155
0.000666056
-0.000973918
0.000667143
-0.00101023
0.000668235
-0.0010547
0.000669355
-0.00110724
0.000670517
-0.00116786
0.000671716
-0.00123671
0.000672961
-0.00131395
0.000674161
-0.00139998
0.000675672
-0.00149549
-0.00160062
0.000759599
-0.00162699
0.000807345
-0.0014304
0.00083519
-0.0012122
0.000846578
-0.00106079
0.000852043
-0.00098158
0.000855523
-0.000943797
0.000857892
-0.000926234
0.000859486
-0.000921704
0.000860674
-0.000929014
0.000861735
-0.000947216
0.000862804
-0.000974986
0.000863927
-0.00101135
0.000865123
-0.00105589
0.000866403
-0.00110852
0.000867765
-0.00116923
0.000869195
-0.00123814
0.000870693
-0.00131545
0.000872141
-0.00140142
0.000873956
-0.00149731
-0.00160183
0.00103947
-0.00168184
0.00107452
-0.00146545
0.00109926
-0.00123693
0.00110818
-0.0010697
0.00111155
-0.000984952
0.00111348
-0.000945725
0.00111475
-0.000927512
0.0011156
-0.000922548
0.00111629
-0.000929712
0.00111707
-0.000947996
0.00111802
-0.000975938
0.00111916
-0.00101248
0.00112046
-0.0010572
0.00112192
-0.00110997
0.00112351
-0.00117081
0.00112519
-0.00123982
0.00112696
-0.00131722
0.00112867
-0.00140314
0.00113078
-0.00149942
-0.00160323
0.00141091
-0.00172902
0.00142227
-0.00147681
0.00144014
-0.00125481
0.00144515
-0.00107471
0.00144581
-0.000985607
0.001446
-0.000945919
0.00144626
-0.000927771
0.00144655
-0.000922841
0.00144699
-0.000930149
0.0014477
-0.000948709
0.00144873
-0.000976963
0.00145004
-0.00101379
0.00145158
-0.00105874
0.00145331
-0.0011117
0.00145519
-0.0011727
0.00145716
-0.0012418
0.0014592
-0.00131926
0.00146115
-0.00140509
0.00146348
-0.00150175
-0.00160474
0.00186733
-0.0017788
0.00185322
-0.0014627
0.00186538
-0.00126697
0.00186883
-0.00107816
0.00186889
-0.000985664
0.00186927
-0.000946308
0.00187023
-0.000928732
0.00187146
-0.000924065
0.00187286
-0.000931552
0.00187448
-0.000950328
0.00187632
-0.000978805
0.00187835
-0.00101582
0.00188051
-0.0010609
0.00188276
-0.00111396
0.00188506
-0.00117499
0.00188734
-0.00124409
0.0018896
-0.00132151
0.00189167
-0.00140716
0.00189398
-0.00150406
-0.00160623
0.00241582
-0.00184455
0.00238864
-0.00143552
0.00240233
-0.00128065
0.00240946
-0.00108529
0.00241195
-0.000988148
0.00241446
-0.000948817
0.00241742
-0.000931695
0.00242047
-0.000927114
0.00242347
-0.000934558
0.00242647
-0.000953327
0.00242949
-0.000981818
0.00243248
-0.00101881
0.00243541
-0.00106383
0.00243823
-0.00111678
0.00244091
-0.00117767
0.0024434
-0.00124658
0.00244569
-0.00132381
0.00244769
-0.00140916
0.00244976
-0.00150613
-0.00160754
0.00311606
-0.00193222
0.00308488
-0.00140434
0.00310254
-0.00129832
0.00311571
-0.00109846
0.0031215
-0.000993933
0.0031263
-0.000953623
0.00313117
-0.000936557
0.00313574
-0.00093169
0.0031399
-0.00093872
0.00314374
-0.000957166
0.00314734
-0.000985414
0.0031507
-0.00102218
0.00315382
-0.00106695
0.00315668
-0.00111963
0.00315927
-0.00118026
0.00316159
-0.0012489
0.00316365
-0.00132587
0.00316541
-0.00141091
0.00316717
-0.00150789
-0.00160868
0.00402979
-0.0020393
0.00399909
-0.00137364
0.0040188
-0.00131803
0.0040385
-0.00111816
0.00404748
-0.00100291
0.00405396
-0.000960105
0.00406002
-0.000942614
0.00406538
-0.000937056
0.00406994
-0.000943283
0.00407387
-0.000961096
0.00407734
-0.000988882
0.00408043
-0.00102526
0.00408316
-0.00106968
0.00408557
-0.00112204
0.00408769
-0.00118238
0.00408954
-0.00125075
0.00409116
-0.00132749
0.00409254
-0.00141229
0.00409392
-0.00150927
-0.00160965
0.00522598
-0.00216061
0.00520112
-0.00134878
0.00521796
-0.00133487
0.00524223
-0.00114243
0.00525286
-0.00101354
0.00525912
-0.000966365
0.0052647
-0.000948195
0.00526948
-0.000941837
0.0052733
-0.000947102
0.00527638
-0.000964178
0.00527897
-0.000991476
0.00528121
-0.0010275
0.00528315
-0.00107162
0.00528484
-0.00112373
0.00528632
-0.00118386
0.00528762
-0.00125205
0.0052888
-0.00132867
0.00528984
-0.00141334
0.00529093
-0.00151036
-0.00161051
0.0104625
9.39341e-05
0.0104593
0.000221436
0.0104539
0.000310744
0.0104456
0.00038428
0.0104333
0.000445445
0.0104152
0.000496237
0.0103893
0.000539898
0.010353
0.000580704
0.0103035
0.000623599
0.0102397
0.000673462
0.0101677
0.000731922
0.0101058
0.000788706
0.0100839
0.000827774
0.0101074
0.000821185
0.00079434
0.010198
0.0157633
9.57297e-05
0.0157587
0.000225991
0.0157512
0.000318243
0.0157398
0.000395724
0.0157229
0.000462295
0.0156988
0.00052035
0.0156654
0.000573291
0.0156213
0.000624811
0.0155676
0.000677331
0.0155121
0.00072894
0.0154735
0.000770573
0.0154741
0.000788072
0.0155286
0.000773273
0.0156259
0.000723824
0.000651948
0.0157683
0.0237496
9.8134e-05
0.0237436
0.000231995
0.0237338
0.000327987
0.0237193
0.000410269
0.0236986
0.000483015
0.0236705
0.000548466
0.0236349
0.000608808
0.0235955
0.000664268
0.0235623
0.000710561
0.023553
0.000738242
0.0235859
0.00073762
0.023669
0.000705031
0.0237973
0.000644956
0.0239562
0.00056487
0.000478808
0.0241294
0.0357823
0.000101037
0.0357753
0.000238964
0.0357644
0.000338905
0.035749
0.000425595
0.0357294
0.000502693
0.0357074
0.000570463
0.0356894
0.000626744
0.0356885
0.000665228
0.0357218
0.00067723
0.0358021
0.000657894
0.0359294
0.000610345
0.0360915
0.000542942
0.0362709
0.000465586
0.0364494
0.000386319
0.000313727
0.0366145
0.0539116
0.000103679
0.053906
0.000244529
0.0538986
0.00034633
0.0538914
0.00043279
0.0538893
0.000504821
0.0539019
0.000557783
0.0539441
0.000584629
0.054029
0.000580261
0.0541596
0.000546607
0.0543258
0.000491768
0.0545109
0.000425223
0.0546987
0.000355113
0.0548763
0.000288061
0.0550344
0.000228153
0.0001784
0.0551697
0.0812271
0.000103537
0.0812302
0.000241477
0.0812397
0.000336793
0.0812638
0.000408693
0.0813146
0.000453971
0.0814049
0.000467508
0.0815393
0.00045023
0.0817098
0.000409825
0.0819003
0.000356066
0.0820948
0.000297231
0.0822803
0.000239711
0.0824474
0.000188021
0.0825909
0.000144581
0.0827094
0.000109684
8.28749e-05
0.0828049
0.122385
9.39816e-05
0.122413
0.000212894
0.122468
0.000282541
0.122559
0.000317615
0.122692
0.000320744
0.122861
0.000298705
0.12305
0.000261285
0.123242
0.000217006
0.123426
0.000172214
0.123592
0.000131468
0.123734
9.73773e-05
0.123852
7.06093e-05
0.123946
5.05429e-05
0.12402
3.5927e-05
2.55952e-05
0.124077
0.1844
6.23364e-05
0.184478
0.000134632
0.1846
0.000160051
0.184761
0.000157053