/*--------------------------------*- C++ -*----------------------------------*\
| =========                 |                                                 |
| \\      /  F ield         | OpenFOAM: The Open Source CFD Toolbox           |
|  \\    /   O peration     | Version:  v1912                                 |
|   \\  /    A nd           | Website:  www.openfoam.com                      |
|    \\/     M anipulation  |                                                 |
\*---------------------------------------------------------------------------*/
FoamFile
{
    version     2.0;
    format      ascii;
    class       volVectorField;
    location    "800";
    object      U;
}
// * * * * * * * * * * * * * * * * * * * * * * * * * * * * * * * * * * * * * //

dimensions      [0 1 -1 0 0 0 0];


internalField   nonuniform List<vector> 
1640
(
(24.9999 -0.00665477 0)
(24.9988 -0.019188 0)
(24.9973 -0.0305551 0)
(24.9961 -0.0410946 0)
(24.9957 -0.0505394 0)
(24.9956 -0.0586433 0)
(24.9957 -0.0653498 0)
(24.9958 -0.0707531 0)
(24.996 -0.0750255 0)
(24.9961 -0.0783624 0)
(24.9961 -0.0809494 0)
(24.9962 -0.0829463 0)
(24.9962 -0.0844841 0)
(24.9962 -0.0856667 0)
(24.9962 -0.0865757 0)
(24.9994 -0.00412895 0)
(24.9947 -0.0125646 0)
(24.9868 -0.0219337 0)
(24.9783 -0.0323988 0)
(24.971 -0.0429982 0)
(24.9655 -0.0527318 0)
(24.9617 -0.0610299 0)
(24.9593 -0.0677465 0)
(24.9578 -0.0730018 0)
(24.957 -0.0770338 0)
(24.9566 -0.0800999 0)
(24.9564 -0.0824267 0)
(24.9563 -0.0841944 0)
(24.9562 -0.0855404 0)
(24.9562 -0.0865674 0)
(24.9992 -0.000647356 0)
(24.992 -0.00259035 0)
(24.9795 -0.00686502 0)
(24.9656 -0.0142994 0)
(24.9537 -0.0243993 0)
(24.9453 -0.0358172 0)
(24.9402 -0.0470941 0)
(24.9377 -0.0571993 0)
(24.9371 -0.0656455 0)
(24.9373 -0.0723606 0)
(24.938 -0.0775174 0)
(24.9386 -0.0813933 0)
(24.9392 -0.0842757 0)
(24.9396 -0.0864129 0)
(24.9399 -0.0879995 0)
(24.9991 0.00239056 0)
(24.9906 0.00647752 0)
(24.9744 0.00802744 0)
(24.9536 0.00522284 0)
(24.9325 -0.0032593 0)
(24.9141 -0.0169937 0)
(24.9004 -0.0336818 0)
(24.8916 -0.0503631 0)
(24.8872 -0.0648055 0)
(24.886 -0.0760343 0)
(24.8869 -0.0840772 0)
(24.8889 -0.0894882 0)
(24.8912 -0.0929675 0)
(24.8935 -0.0951458 0)
(24.8954 -0.0964883 0)
(24.9991 0.00454175 0)
(24.9906 0.0131376 0)
(24.973 0.0202737 0)
(24.948 0.0242293 0)
(24.9185 0.021966 0)
(24.889 0.0109896 0)
(24.8646 -0.00881227 0)
(24.8492 -0.0345878 0)
(24.8437 -0.0618626 0)
(24.8464 -0.0867239 0)
(24.8545 -0.107057 0)
(24.8651 -0.122405 0)
(24.8758 -0.133276 0)
(24.8853 -0.140582 0)
(24.8931 -0.145253 0)
(24.9992 0.0059246 0)
(24.9911 0.0175065 0)
(24.9738 0.0289405 0)
(24.9475 0.0393377 0)
(24.9127 0.0452413 0)
(24.8715 0.0417191 0)
(24.8286 0.0242131 0)
(24.7914 -0.00872121 0)
(24.7664 -0.0534291 0)
(24.7558 -0.102154 0)
(24.758 -0.146753 0)
(24.7694 -0.182096 0)
(24.7862 -0.206921 0)
(24.8054 -0.222671 0)
(24.8244 -0.231702 0)
(24.9993 0.00678308 0)
(24.9917 0.0202307 0)
(24.9753 0.0345804 0)
(24.9494 0.0499112 0)
(24.9129 0.0634426 0)
(24.8646 0.0700725 0)
(24.8062 0.0629371 0)
(24.744 0.0351808 0)
(24.6892 -0.016648 0)
(24.6544 -0.0893066 0)
(24.6469 -0.172963 0)
(24.6653 -0.255414 0)
(24.7015 -0.327063 0)
(24.7452 -0.38315 0)
(24.7885 -0.423072 0)
(24.9993 0.00732179 0)
(24.9922 0.0219164 0)
(24.9768 0.0380876 0)
(24.952 0.056737 0)
(24.9156 0.0761017 0)
(24.8648 0.0921859 0)
(24.7975 0.0985342 0)
(24.7149 0.0862133 0)
(24.6236 0.0452407 0)
(24.5371 -0.0311894 0)
(24.472 -0.140791 0)
(24.4406 -0.269091 0)
(24.447 -0.395565 0)
(24.4862 -0.503397 0)
(24.5484 -0.585037 0)
(24.9993 0.00767575 0)
(24.9926 0.023087 0)
(24.978 0.0404149 0)
(24.9542 0.060859 0)
(24.9187 0.0831301 0)
(24.8679 0.103926 0)
(24.7976 0.117447 0)
(24.7052 0.114579 0)
(24.5916 0.082605 0)
(24.4659 0.00646447 0)
(24.3482 -0.125945 0)
(24.2653 -0.313211 0)
(24.2387 -0.535922 0)
(24.2698 -0.760785 0)
(24.3491 -0.962497 0)
(24.9994 0.00787804 0)
(24.9929 0.0242802 0)
(24.9788 0.0439608 0)
(24.9557 0.0690259 0)
(24.921 0.0995083 0)
(24.8701 0.134061 0)
(24.7977 0.169502 0)
(24.6979 0.199766 0)
(24.5658 0.214838 0)
(24.4002 0.199113 0)
(24.2093 0.131092 0)
(24.0179 -0.0159053 0)
(23.8684 -0.255946 0)
(23.7935 -0.565463 0)
(23.7975 -0.92069 0)
(24.9962 -0.0872608 0)
(24.9962 -0.0879085 0)
(24.9963 -0.0887067 0)
(24.9963 -0.0896904 3.28088e-22)
(24.9963 -0.0909028 0)
(24.9963 -0.0923966 -6.55095e-22)
(24.9964 -0.0942367 0)
(24.9965 -0.0965031 0)
(24.9967 -0.0992943 0)
(24.997 -0.102732 0)
(24.9974 -0.106969 5.17533e-21)
(24.998 -0.112192 -1.0295e-20)
(24.9562 -0.0873378 3.91997e-22)
(24.9562 -0.0880629 0)
(24.9563 -0.088953 -7.81323e-22)
(24.9563 -0.0900447 -4.95042e-22)
(24.9563 -0.0913821 0)
(24.9564 -0.0930189 9.88389e-22)
(24.9565 -0.0950211 -6.17077e-21)
(24.9565 -0.0974722 0)
(24.9566 -0.100485 -1.22749e-20)
(24.9567 -0.104222 0)
(24.9568 -0.10893 1.70028e-20)
(24.9569 -0.115003 6.58925e-20)
(24.9402 -0.0891612 -5.90919e-22)
(24.9404 -0.0902262 0)
(24.9406 -0.0914971 1.17773e-21)
(24.941 -0.0930029 0)
(24.9414 -0.0947697 0)
(24.9418 -0.0968192 0)
(24.9423 -0.0991749 9.29918e-21)
(24.9427 -0.101886 0)
(24.9427 -0.105098 -4.7477e-21)
(24.9422 -0.109205 -4.73694e-20)
(24.9408 -0.115078 -3.73729e-20)
(24.9385 -0.124415 3.27306e-20)
(24.897 -0.0973201 0)
(24.8986 -0.097936 0)
(24.9005 -0.098479 0)
(24.9029 -0.0988248 -4.79231e-21)
(24.9056 -0.0987634 8.99184e-21)
(24.9088 -0.0979846 -1.66408e-20)
(24.9119 -0.0961043 0)
(24.9143 -0.0928143 2.8611e-20)
(24.9147 -0.0882673 3.50321e-20)
(24.911 -0.0838112 1.34827e-19)
(24.9014 -0.0828058 0)
(24.8859 -0.0918084 -1.63785e-19)
(24.8991 -0.148141 4.98293e-21)
(24.9048 -0.150172 0)
(24.9119 -0.151725 -8.2511e-21)
(24.9208 -0.152197 -6.90079e-21)
(24.9314 -0.150566 -1.35219e-20)
(24.9433 -0.14535 4.08501e-20)
(24.9548 -0.134866 0)
(24.9627 -0.118075 -4.29789e-20)
(24.9618 -0.0960438 0)
(24.9459 -0.0738886 -9.53729e-20)
(24.9108 -0.0626839 -2.34527e-19)
(24.8596 -0.0815629 4.19891e-19)
(24.8412 -0.236561 -7.51818e-21)
(24.8587 -0.239086 0)
(24.8812 -0.239301 2.36743e-20)
(24.9093 -0.234857 2.12331e-20)
(24.9433 -0.221937 2.19294e-21)
(24.9808 -0.195691 -2.37733e-20)
(25.0156 -0.152081 -3.91896e-20)
(25.0368 -0.0906402 9.72645e-20)
(25.0316 -0.0168584 0)
(24.9882 0.0557346 0)
(24.9009 0.101882 3.53917e-19)
(24.778 0.0773695 1.04013e-18)
(24.8257 -0.449228 0)
(24.8642 -0.468003 0)
(24.9154 -0.48145 -1.68626e-20)
(24.982 -0.481867 0)
(25.0622 -0.457777 -2.98006e-20)
(25.145 -0.398849 0)
(25.2109 -0.303119 -2.81783e-19)
(25.2382 -0.178931 -1.45048e-19)
(25.2095 -0.0424615 -6.14279e-19)
(25.1123 0.0838259 3.36144e-19)
(24.9406 0.163621 0)
(24.7017 0.117715 7.92485e-19)
(24.6188 -0.640969 0)
(24.7057 -0.681935 0)
(24.8272 -0.708459 0)
(24.9848 -0.697591 2.68145e-20)
(25.1626 -0.623272 -8.97484e-20)
(25.3218 -0.478237 0)
(25.422 -0.27982 -4.45901e-19)
(25.4417 -0.0569045 -9.1599e-19)
(25.3763 0.164108 9.2111e-19)
(25.2223 0.358206 -5.01144e-19)
(24.967 0.492111 0)
(24.5868 0.440218 -1.10652e-17)
(24.4551 -1.12157 -1.33017e-19)
(24.6034 -1.24854 0)
(24.8282 -1.32913 0)
(25.1188 -1.29508 8.87665e-20)
(25.4111 -1.12061 1.89362e-19)
(25.6195 -0.845147 0)
(25.702 -0.525605 1.40396e-18)
(25.6662 -0.211161 1.36359e-18)
(25.5354 0.0688614 0)
(25.3179 0.305943 1.74567e-18)
(24.9817 0.494723 0)
(24.4425 0.451814 1.94814e-17)
(23.906 -1.1981 2.01463e-19)
(24.1798 -1.43795 0)
(24.6432 -1.58334 0)
(25.1882 -1.46998 2.68636e-19)
(25.63 -1.13511 0)
(25.866 -0.714586 0)
(25.9092 -0.29805 3.81247e-18)
(25.8145 0.0671382 0)
(25.6313 0.375678 5.08418e-18)
(25.3756 0.632605 -2.55868e-18)
(24.9886 0.861346 -9.22444e-19)
(24.3142 0.786309 1.90916e-18)
(24.9988 -0.117959 0)
(24.9998 -0.123893 0)
(25.001 -0.130131 0)
(25.0026 -0.136563 0)
(25.0045 -0.143057 0)
(25.0066 -0.1495 0)
(25.0089 -0.155812 0)
(25.0113 -0.161912 0)
(25.0137 -0.167708 0)
(25.0162 -0.173125 0)
(25.0184 -0.178121 0)
(25.0205 -0.182677 0)
(25.0223 -0.186779 0)
(25.0238 -0.190425 0)
(25.025 -0.193625 0)
(25.0257 -0.196411 0)
(25.0261 -0.198795 0)
(25.0256 -0.200841 0)
(25.0251 -0.202318 0)
(25.021 -0.203738 0)
(24.9572 -0.122024 0)
(24.9583 -0.129506 0)
(24.9606 -0.137325 0)
(24.9642 -0.144885 0)
(24.969 -0.151744 0)
(24.9744 -0.157844 0)
(24.9802 -0.163264 0)
(24.9862 -0.167941 0)
(24.9924 -0.171785 0)
(24.9984 -0.174855 0)
(25.004 -0.177302 0)
(25.0092 -0.17925 0)
(25.0139 -0.180777 0)
(25.018 -0.181968 0)
(25.0216 -0.182915 0)
(25.0246 -0.183682 0)
(25.0271 -0.184294 0)
(25.0296 -0.18474 0)
(25.0311 -0.184947 0)
(25.0363 -0.184974 0)
(24.9367 -0.137538 0)
(24.9375 -0.153068 0)
(24.9428 -0.168906 0)
(24.9521 -0.182194 0)
(24.963 -0.192387 0)
(24.9735 -0.200707 0)
(24.9834 -0.207663 0)
(24.993 -0.212825 0)
(25.0022 -0.216143 0)
(25.0102 -0.218159 0)
(25.0169 -0.219342 0)
(25.0225 -0.219867 0)
(25.0271 -0.219855 0)
(25.0309 -0.219485 0)
(25.0337 -0.218911 0)
(25.0359 -0.218224 0)
(25.0375 -0.217494 0)
(25.0386 -0.21676 0)
(25.0394 -0.216233 0)
(25.0381 -0.215705 0)
(24.8716 -0.113556 0)
(24.8691 -0.142772 0)
(24.8828 -0.167611 0)
(24.9061 -0.180403 0)
(24.9276 -0.186005 0)
(24.9442 -0.19043 0)
(24.9595 -0.193453 0)
(24.9747 -0.193585 0)
(24.9881 -0.191781 0)
(24.9988 -0.189609 0)
(25.0073 -0.187587 0)
(25.0144 -0.18568 0)
(25.0203 -0.18398 0)
(25.0249 -0.182659 0)
(25.0285 -0.181781 0)
(25.0313 -0.181319 0)
(25.0334 -0.181235 0)
(25.0351 -0.181517 0)
(25.036 -0.181998 0)
(25.0387 -0.182933 0)
(24.817 -0.141015 0)
(24.8148 -0.214754 0)
(24.8551 -0.258683 0)
(24.9032 -0.268064 0)
(24.9325 -0.269503 0)
(24.9497 -0.272946 0)
(24.9673 -0.272735 0)
(24.9848 -0.267379 0)
(24.9979 -0.260437 0)
(25.0067 -0.254042 0)
(25.0134 -0.248152 0)
(25.0189 -0.242544 0)
(25.0232 -0.237396 0)
(25.0264 -0.232872 0)
(25.0288 -0.228954 0)
(25.0305 -0.225562 0)
(25.0317 -0.22267 0)
(25.0325 -0.220139 0)
(25.0331 -0.218292 0)
(25.0331 -0.215778 0)
(24.6865 -0.0533421 0)
(24.706 -0.193024 0)
(24.8067 -0.237109 0)
(24.8878 -0.225564 0)
(24.92 -0.220675 0)
(24.9387 -0.222876 0)
(24.9621 -0.218746 0)
(24.9833 -0.210249 0)
(24.997 -0.202907 0)
(25.0058 -0.197648 0)
(25.0126 -0.193486 0)
(25.0182 -0.190093 0)
(25.0225 -0.187581 0)
(25.0256 -0.185913 0)
(25.0279 -0.184928 0)
(25.0296 -0.184502 0)
(25.0309 -0.184546 0)
(25.0321 -0.184942 0)
(25.0328 -0.185754 0)
(25.0351 -0.187071 0)
(24.5456 -0.166611 0)
(24.6233 -0.383915 0)
(24.8042 -0.393412 0)
(24.9023 -0.350671 0)
(24.9247 -0.336458 0)
(24.9417 -0.327379 0)
(24.9672 -0.309717 0)
(24.9874 -0.290964 0)
(24.9988 -0.275965 0)
(25.0058 -0.263867 0)
(25.0116 -0.253426 0)
(25.0166 -0.244441 0)
(25.0206 -0.236915 0)
(25.0241 -0.230653 0)
(25.0274 -0.225441 0)
(25.0309 -0.221129 0)
(25.0348 -0.217668 0)
(25.0392 -0.214678 0)
(25.0436 -0.213133 0)
(25.0506 -0.2103 0)
(24.3703 -0.0740968 0)
(24.5531 -0.347929 0)
(24.8169 -0.314429 0)
(24.9174 -0.267089 0)
(24.9302 -0.261135 0)
(24.9476 -0.253539 0)
(24.9737 -0.238567 0)
(24.9922 -0.22566 0)
(25.0021 -0.21681 0)
(25.009 -0.210204 0)
(25.0161 -0.204938 0)
(25.0235 -0.200954 0)
(25.0306 -0.198168 0)
(25.0371 -0.19632 0)
(25.0427 -0.195167 0)
(25.046 -0.19458 0)
(25.046 -0.194436 0)
(25.0392 -0.194499 0)
(25.0321 -0.19483 0)
(24.9922 -0.195781 0)
(24.1732 -0.328291 0)
(24.4806 -0.559254 0)
(24.8018 -0.453678 0)
(24.8916 -0.389422 0)
(24.8961 -0.364561 0)
(24.9142 -0.33608 0)
(24.9423 -0.307659 0)
(24.9641 -0.285787 0)
(24.9786 -0.269234 0)
(24.9889 -0.255858 0)
(24.9948 -0.244832 0)
(24.9931 -0.235783 0)
(24.9806 -0.228336 0)
(24.9546 -0.222121 0)
(24.9144 -0.21681 0)
(24.8596 -0.21223 0)
(24.7916 -0.208137 0)
(24.7089 -0.205024 0)
(24.6318 -0.200731 0)
(24.4881 -0.19934 0)
(24.0084 -0.295797 0)
(24.4296 -0.476989 0)
(24.7782 -0.36322 0)
(24.8585 -0.323946 0)
(24.8661 -0.306172 0)
(24.8903 -0.282696 0)
(24.9145 -0.262658 0)
(24.9135 -0.248441 0)
(24.8803 -0.237351 0)
(24.8161 -0.22775 0)
(24.7243 -0.219321 0)
(24.6111 -0.211965 0)
(24.4846 -0.205579 0)
(24.3544 -0.200162 0)
(24.2292 -0.195709 0)
(24.1172 -0.192292 0)
(24.0234 -0.189625 0)
(23.9525 -0.1887 0)
(23.9029 -0.185411 0)
(23.8802 -0.188912 0)
(24.9994 0.00775911 0)
(24.9933 0.0230285 0)
(24.98 0.0395115 3.0806e-18)
(24.9581 0.058593 -1.40816e-17)
(24.9253 0.0795502 9.29952e-18)
(24.8773 0.100147 0)
(24.8085 0.116543 -2.95876e-17)
(24.7127 0.122743 2.99968e-17)
(24.583 0.10994 6.04563e-17)
(24.4126 0.0660164 -6.21754e-17)
(24.1964 -0.026184 0)
(23.9409 -0.180783 0)
(23.671 -0.421819 3.1139e-19)
(23.4394 -0.693302 0)
(23.2988 -1.13078 0)
(24.9994 0.00785547 0)
(24.9937 0.0244575 9.36763e-19)
(24.9811 0.0449509 -9.16569e-19)
(24.9607 0.071522 -2.21496e-18)
(24.9303 0.104543 3.6994e-18)
(24.8863 0.143702 0)
(24.8242 0.188147 -1.10344e-17)
(24.7389 0.236293 1.10379e-17)
(24.6251 0.285923 -2.1431e-17)
(24.4791 0.334455 -7.02243e-18)
(24.2957 0.379191 -9.26963e-18)
(24.0697 0.413052 3.8996e-17)
(23.78 0.410966 -6.65862e-17)
(23.4225 0.345975 -1.83082e-17)
(22.9851 0.133784 8.73515e-17)
(23.054 -1.21311 1.05553e-16)
(22.5802 -1.50189 -3.60913e-16)
(22.011 -1.95743 2.48208e-16)
(21.3736 -2.5615 0)
(20.6387 -3.35706 1.87492e-16)
(19.7852 -4.41036 -4.13598e-16)
(18.7641 -5.80039 1.96646e-16)
(17.6226 -7.45969 -2.13771e-16)
(15.9832 -9.27112 2.70999e-16)
(13.3953 -12.0854 -4.78373e-17)
(22.4806 -0.066435 0)
(21.8807 -0.338744 4.44233e-17)
(21.1703 -0.666103 -3.67515e-17)
(20.3186 -1.07235 0)
(19.2911 -1.5863 -1.22022e-16)
(18.0467 -2.23381 2.67737e-16)
(16.4753 -3.0493 -1.40111e-16)
(14.5461 -4.04458 9.51623e-17)
(11.6972 -5.39488 -6.42562e-17)
(9.53047 -7.19263 0)
(23.4667 -1.94214 0)
(23.875 -2.32006 2.13884e-17)
(24.5832 -2.48514 -1.7839e-17)
(25.3442 -2.21155 -4.07127e-18)
(25.8399 -1.6509 -9.35226e-18)
(26.0258 -1.03091 4.77303e-18)
(25.9962 -0.486209 -9.6296e-18)
(25.8398 -0.0728262 0)
(25.6167 0.236921 -1.31718e-17)
(25.3419 0.491172 -2.08351e-17)
(24.9287 0.771273 1.77837e-17)
(24.1377 0.742083 -3.22193e-17)
(23.187 -2.38688 0)
(23.8241 -2.79714 -4.36304e-18)
(24.7672 -2.727 9.18546e-18)
(25.6076 -2.2083 -5.40871e-18)
(26.0589 -1.55151 6.17548e-18)
(26.1831 -0.911367 7.61352e-18)
(26.1061 -0.370265 -4.52859e-19)
(25.919 0.0424011 0)
(25.6761 0.361915 0)
(25.3865 0.62126 2.78852e-17)
(24.9436 0.93485 -1.93888e-17)
(24.0399 0.905189 -1.88699e-18)
(22.884 -3.07403 7.52526e-17)
(23.8735 -3.47746 9.5329e-18)
(25.0624 -3.1187 -2.34789e-18)
(25.9107 -2.40977 1.78228e-17)
(26.2905 -1.67685 0)
(26.3583 -0.988962 -9.71877e-18)
(26.2411 -0.420819 -8.13254e-18)
(26.0282 0.00190662 9.28557e-18)
(25.771 0.326183 5.17383e-17)
(25.4755 0.598043 0)
(25.0179 0.96752 3.33833e-17)
(24.0153 0.960006 -1.19154e-18)
(22.6131 -3.88937 -5.95137e-17)
(24.0741 -4.11079 -9.04396e-19)
(25.4623 -3.38444 -2.84583e-18)
(26.2438 -2.50895 -8.23346e-17)
(26.5366 -1.69986 9.93294e-18)
(26.5477 -0.968521 -3.55784e-18)
(26.3925 -0.383266 0)
(26.1587 0.0440293 0)
(25.8907 0.37009 9.23864e-18)
(25.5957 0.636104 7.54964e-17)
(25.1186 1.02224 -4.16289e-17)
(24.1171 1.01477 0)
(22.3874 -4.82636 3.86835e-17)
(24.4117 -4.67526 -1.32818e-17)
(25.9068 -3.58661 -5.97485e-17)
(26.5702 -2.58248 7.67951e-17)
(26.7795 -1.71282 -8.46373e-17)
(26.7477 -0.967021 -3.50256e-18)
(26.5754 -0.385618 1.15051e-18)
(26.3426 0.0380514 0)
(26.0768 0.363757 -8.14462e-17)
(25.7861 0.634173 -1.0569e-16)
(25.2457 1.04563 0)
(24.2911 1.06491 7.59468e-16)
(22.2518 -5.81765 9.8326e-17)
(24.8749 -5.14391 -9.83359e-18)
(26.3684 -3.75182 -7.6592e-18)
(26.8979 -2.61753 -1.21564e-17)
(27.0536 -1.67203 1.00319e-16)
(27.0174 -0.918645 -1.92606e-19)
(26.8531 -0.351035 -1.47262e-18)
(26.5917 0.0614226 -3.41311e-17)
(26.2276 0.381656 0)
(25.696 0.645881 2.57644e-18)
(24.7744 1.05322 -2.13816e-18)
(23.4369 1.07779 -7.21977e-16)
(22.2141 -6.81265 -8.22653e-17)
(25.3962 -5.56948 -1.19587e-16)
(26.8103 -4.04551 1.3417e-16)
(27.2724 -2.83418 -1.45098e-16)
(27.4323 -1.78953 2.3064e-18)
(27.337 -0.976055 2.01303e-18)
(26.9492 -0.37341 -5.01245e-17)
(26.272 0.0569265 3.45231e-17)
(25.361 0.380065 1.8609e-18)
(24.3633 0.635736 2.21955e-16)
(23.1308 1.02228 4.30879e-19)
(21.6551 1.04457 -3.30298e-19)
(22.3167 -7.71822 -3.78753e-17)
(25.9699 -5.80218 1.51942e-16)
(27.3752 -4.14625 0)
(27.8048 -2.88289 1.72245e-16)
(27.6387 -1.78734 1.57503e-16)
(26.8962 -0.935565 -1.36942e-16)
(25.774 -0.317558 5.47889e-17)
(24.55 0.0968933 -3.46816e-18)
(23.3858 0.387277 -9.6617e-17)
(22.3626 0.612224 -2.10908e-16)
(21.1821 0.967169 -1.32125e-16)
(19.6478 0.98015 0)
(22.1886 -8.25537 2.8296e-17)
(26.6235 -4.98535 -3.19272e-16)
(27.876 -3.06338 -2.64095e-16)
(27.3294 -2.07349 -2.10032e-16)
(25.9882 -1.33972 -1.76249e-16)
(24.5215 -0.73746 -1.9313e-18)
(23.2082 -0.249841 5.59158e-17)
(22.0395 0.101886 0)
(20.9882 0.356218 9.85168e-17)
(20.1126 0.556211 0)
(19.1109 0.879312 1.33601e-16)
(17.5545 0.89363 0)
(19.7008 -13.1505 0)
(23.0033 -10.5954 4.22632e-16)
(22.5272 -6.84147 3.80114e-16)
(21.5005 -3.75488 6.41093e-16)
(21.0255 -1.83779 2.82962e-16)
(20.6097 -0.824999 2.28928e-16)
(19.9651 -0.285669 -1.73026e-16)
(19.1899 0.0367593 -6.1494e-17)
(18.4326 0.265516 1.78826e-18)
(17.7721 0.447689 3.52594e-16)
(16.9507 0.729204 -2.32653e-16)
(15.4232 0.849802 0)
(23.8177 -0.521277 0)
(24.3474 -0.581844 0)
(24.7362 -0.437671 0)
(24.8323 -0.389213 0)
(24.822 -0.353567 0)
(24.7669 -0.316698 0)
(24.6476 -0.286765 0)
(24.4629 -0.263396 0)
(24.2432 -0.244234 0)
(24.0275 -0.228582 0)
(23.844 -0.216388 0)
(23.7068 -0.207376 0)
(23.6189 -0.20099 0)
(23.5757 -0.196643 0)
(23.5691 -0.193809 0)
(23.5908 -0.192117 0)
(23.6321 -0.191078 0)
(23.6897 -0.191238 0)
(23.7442 -0.189243 0)
(23.859 -0.192739 0)
(23.7328 -0.537972 0)
(24.3669 -0.54731 0)
(24.7337 -0.418535 0)
(24.6686 -0.37341 0)
(24.3932 -0.331068 0)
(24.0622 -0.291012 0)
(23.7497 -0.261081 0)
(23.5022 -0.239996 0)
(23.3413 -0.225241 0)
(23.2646 -0.215088 0)
(23.2531 -0.208209 0)
(23.2848 -0.203483 0)
(23.3432 -0.200104 0)
(23.4175 -0.197607 0)
(23.5011 -0.195752 0)
(23.5899 -0.19445 0)
(23.6804 -0.193495 0)
(23.7743 -0.193389 0)
(23.8538 -0.191776 0)
(23.9945 -0.194285 0)
(23.7484 -0.623662 0)
(24.2779 -0.571148 0)
(24.2674 -0.433659 0)
(23.7799 -0.369621 0)
(23.2736 -0.315452 0)
(22.9584 -0.275932 0)
(22.8341 -0.251801 0)
(22.833 -0.236831 0)
(22.9037 -0.226472 0)
(23.0131 -0.218656 0)
(23.1403 -0.212541 0)
(23.2715 -0.207707 0)
(23.3992 -0.203884 0)
(23.52 -0.200898 0)
(23.6332 -0.198612 0)
(23.7393 -0.196951 0)
(23.8387 -0.195734 0)
(23.9358 -0.195282 0)
(24.0159 -0.193922 0)
(24.1525 -0.195605 0)
(23.5731 -0.656615 0)
(23.5072 -0.542938 0)
(23.0285 -0.404683 0)
(22.5141 -0.342372 0)
(22.2873 -0.299139 0)
(22.3267 -0.271739 0)
(22.5016 -0.254537 0)
(22.7149 -0.242032 0)
(22.9251 -0.231924 0)
(23.1189 -0.223586 0)
(23.2929 -0.216787 0)
(23.447 -0.211303 0)
(23.5831 -0.206917 0)
(23.7041 -0.203461 0)
(23.8131 -0.200795 0)
(23.9127 -0.198824 0)
(24.0046 -0.197383 0)
(24.0936 -0.196665 0)
(24.1669 -0.195474 0)
(24.2917 -0.196554 0)
(22.6649 -0.646984 0)
(22.0753 -0.503006 0)
(21.7722 -0.388202 0)
(21.7336 -0.338389 0)
(21.946 -0.303739 0)
(22.282 -0.279922 0)
(22.6219 -0.262597 0)
(22.9133 -0.248725 0)
(23.1522 -0.237228 0)
(23.3497 -0.227773 0)
(23.5155 -0.220115 0)
(23.6561 -0.213971 0)
(23.7772 -0.209084 0)
(23.8832 -0.205251 0)
(23.9784 -0.202302 0)
(24.0655 -0.200114 0)
(24.1464 -0.198521 0)
(24.2255 -0.197623 0)
(24.2911 -0.196555 0)
(24.4037 -0.197217 0)
(20.9908 -0.629787 0)
(20.7567 -0.48073 0)
(21.1242 -0.391945 0)
(21.6111 -0.348001 0)
(22.1047 -0.314231 0)
(22.5497 -0.289011 0)
(22.9133 -0.269584 0)
(23.194 -0.253876 0)
(23.4102 -0.24104 0)
(23.5819 -0.230661 0)
(23.7228 -0.222352 0)
(23.841 -0.215738 0)
(23.9425 -0.21051 0)
(24.0318 -0.206431 0)
(24.1128 -0.203304 0)
(24.188 -0.200981 0)
(24.259 -0.199295 0)
(24.3294 -0.198281 0)
(24.3883 -0.197308 0)
(24.4905 -0.19768 0)
(19.3814 -0.619769 0)
(20.0589 -0.482598 0)
(21.1053 -0.408208 0)
(21.8892 -0.361213 0)
(22.4544 -0.323883 0)
(22.8857 -0.295971 0)
(23.2127 -0.274515 0)
(23.4546 -0.257347 0)
(23.6354 -0.243533 0)
(23.7766 -0.232515 0)
(23.8917 -0.223778 0)
(23.9886 -0.216866 0)
(24.0725 -0.211427 0)
(24.1475 -0.2072 0)
(24.2168 -0.203968 0)
(24.2825 -0.201566 0)
(24.3455 -0.199828 0)
(24.4091 -0.19874 0)
(24.4628 -0.197838 0)
(24.5567 -0.198008 0)
(18.2648 -0.620424 0)
(19.9689 -0.501417 0)
(21.4311 -0.426852 0)
(22.2832 -0.372397 0)
(22.8112 -0.330894 0)
(23.1885 -0.300709 0)
(23.4663 -0.277765 0)
(23.667 -0.259577 0)
(23.8143 -0.245105 0)
(23.9284 -0.233677 0)
(24.0217 -0.224675 0)
(24.1012 -0.217583 0)
(24.1712 -0.212021 0)
(24.2352 -0.207708 0)
(24.2956 -0.204416 0)
(24.3542 -0.201969 0)
(24.4112 -0.2002 0)
(24.4697 -0.199065 0)
(24.5194 -0.198216 0)
(24.6068 -0.198243 0)
(17.7365 -0.618534 0)
(20.247 -0.528079 0)
(21.8452 -0.443055 0)
(22.6517 -0.380499 0)
(23.113 -0.335608 0)
(23.4332 -0.303816 0)
(23.6658 -0.279859 0)
(23.831 -0.260988 0)
(23.9505 -0.246088 0)
(24.0429 -0.234404 0)
(24.1192 -0.225243 0)
(24.1855 -0.218045 0)
(24.2451 -0.212412 0)
(24.301 -0.208051 0)
(24.3548 -0.204725 0)
(24.4082 -0.202253 0)
(24.4609 -0.200466 0)
(24.5156 -0.199299 0)
(24.5623 -0.19849 0)
(24.6447 -0.198413 0)
(17.7158 -0.618136 0)
(20.6478 -0.554756 0)
(22.222 -0.455318 0)
(22.9534 -0.386063 0)
(23.3508 -0.338723 0)
(23.6221 -0.305841 0)
(23.8176 -0.281208 0)
(23.9545 -0.261883 0)
(24.0524 -0.246707 0)
(24.1282 -0.234865 0)
(24.1917 -0.225609 0)
(24.2481 -0.21835 0)
(24.3001 -0.212676 0)
(24.3502 -0.208288 0)
(24.3993 -0.204944 0)
(24.449 -0.202456 0)
(24.4986 -0.200659 0)
(24.5504 -0.19947 0)
(24.5949 -0.198692 0)
(24.6733 -0.198538 0)
(24.9995 0.00795879 0)
(24.9942 0.0240913 0)
(24.9826 0.0427562 0)
(24.9638 0.0663227 0)
(24.9358 0.0956544 -1.68807e-18)
(24.8953 0.130957 1.13394e-17)
(24.8377 0.172015 -3.54549e-18)
(24.7581 0.218053 -1.01069e-17)
(24.6504 0.267514 0)
(24.5103 0.317239 0)
(24.3308 0.363759 3.16623e-17)
(24.1081 0.404078 -3.19718e-17)
(23.8127 0.465583 0)
(23.4406 0.56162 0)
(22.9434 0.829556 0)
(24.9995 0.00799771 1.2897e-18)
(24.9948 0.0245726 -1.34429e-18)
(24.9843 0.0443122 0)
(24.9673 0.0703924 1.77216e-18)
(24.9417 0.105019 3.42676e-19)
(24.9042 0.150642 -3.29344e-19)
(24.8499 0.210663 -9.11246e-18)
(24.7727 0.289978 1.28062e-17)
(24.6645 0.395943 -4.56826e-17)
(24.5159 0.539417 4.63938e-17)
(24.3144 0.740153 0)
(24.0631 1.01574 0)
(23.7744 1.41332 1.54718e-16)
(23.5287 1.83615 -1.60126e-16)
(23.3322 2.57816 0)
(22.3681 0.980856 4.65564e-17)
(21.6869 1.14142 0)
(20.8507 1.28024 0)
(19.8083 1.41425 0)
(18.5115 1.57523 0)
(16.9164 1.80783 0)
(14.9608 2.17769 2.90647e-16)
(12.7041 2.71409 -4.52077e-16)
(9.94333 3.49545 -4.91551e-17)
(8.08541 3.33003 -5.599e-17)
(22.9994 2.69212 -2.65468e-17)
(22.3303 3.11497 0)
(21.5299 3.73796 3.17989e-16)
(20.6517 4.50066 -8.78559e-16)
(19.6799 5.40587 6.27263e-16)
(18.623 6.42893 0)
(17.5037 7.51633 3.47129e-17)
(16.4456 8.52178 -2.96273e-17)
(15.1393 9.7131 -9.73071e-16)
(13.1308 10.9505 3.47754e-15)
(21.427 12.5293 -2.15777e-15)
(25.0981 9.04941 -4.39513e-15)
(24.9026 5.13288 1.15589e-17)
(24.0122 2.57425 1.76232e-15)
(23.101 1.04976 0)
(22.0639 0.0284674 -4.92902e-21)
(20.8652 -0.734078 -2.19165e-15)
(19.54 -1.31834 -4.88266e-18)
(18.015 -1.73898 -3.89537e-15)
(15.087 -2.09382 0)
(23.5383 8.71318 1.65986e-15)
(28.2884 5.84687 8.20716e-17)
(28.9109 3.86679 -1.34265e-15)
(27.9126 2.28639 -2.38935e-15)
(26.5171 0.946695 5.36133e-16)
(25.0803 -0.129064 0)
(23.6274 -0.960861 0)
(22.1401 -1.59119 -2.00972e-15)
(20.5844 -2.04474 9.47654e-18)
(17.4486 -2.33191 -1.48656e-15)
(23.6781 8.30483 1.53158e-17)
(28.227 6.01762 1.5453e-15)
(29.5858 4.15202 1.40147e-15)
(29.5765 2.50487 1.20648e-15)
(28.8464 1.05666 -5.54659e-16)
(27.6885 -0.123292 1.90424e-18)
(26.2881 -1.05016 6.06338e-21)
(24.7132 -1.75846 1.65815e-18)
(22.9522 -2.25325 1.22278e-17)
(19.7908 -2.6234 1.33045e-15)
(23.5442 8.07963 2.97517e-16)
(27.7768 6.1072 -1.13116e-15)
(29.2082 4.27714 -1.83422e-17)
(29.614 2.63622 -1.08317e-15)
(29.5576 1.17398 0)
(29.0736 -0.0479088 2.66705e-20)
(28.1886 -1.04489 -2.47747e-20)
(26.8647 -1.83829 -2.00894e-15)
(25.1219 -2.39955 2.02379e-17)
(21.9676 -2.8775 0)
(23.5167 7.58335 -2.19377e-16)
(27.4424 5.81631 1.62963e-15)
(28.8861 4.02394 0)
(29.3002 2.49043 1.81987e-15)
(29.3368 1.10382 4.56007e-16)
(29.0813 -0.0800466 0)
(28.5815 -1.06547 2.48148e-18)
(27.7713 -1.87618 2.00559e-15)
(26.694 -2.48503 2.39925e-15)
(23.9263 -3.07141 1.25672e-18)
(23.4975 7.02134 5.12863e-17)
(27.0446 5.57868 -6.28526e-16)
(28.5464 3.90171 3.92164e-17)
(28.9959 2.4823 -7.17098e-16)
(29.0432 1.14845 3.44601e-16)
(28.8027 -0.0256103 5.46847e-18)
(28.324 -1.00964 -3.96219e-18)
(27.5963 -1.82507 3.83737e-18)
(26.817 -2.44053 0)
(24.8881 -3.12117 0)
(23.5322 6.37206 -1.80819e-17)
(26.6371 5.32686 1.71045e-17)
(28.2004 3.78229 -3.26435e-17)
(28.713 2.44908 -4.81366e-16)
(28.7906 1.15324 -1.14758e-15)
(28.574 -0.0160748 8.73531e-18)
(28.1119 -0.992833 5.54226e-18)
(27.4063 -1.79796 -5.92539e-18)
(26.5734 -2.39018 1.66601e-15)
(24.9779 -3.06343 0)
(23.6428 5.63671 -9.73712e-17)
(26.2537 5.03394 3.44296e-17)
(27.8539 3.67219 -3.9068e-16)
(28.4442 2.42949 4.20881e-16)
(28.5597 1.21185 8.56427e-16)
(28.3779 0.0748244 0)
(27.9459 -0.892802 3.21774e-16)
(27.268 -1.69227 -2.24694e-18)
(26.4325 -2.26846 -1.3314e-15)
(24.8956 -2.89528 -8.40263e-16)
(23.8516 4.81562 4.26417e-17)
(25.9547 4.60037 0)
(27.5461 3.42744 6.7914e-17)
(28.2275 2.22248 -3.60973e-17)
(28.3922 1.05138 -1.62338e-17)
(28.2452 -0.0278751 0)
(27.8436 -0.941583 -2.34001e-16)
(27.1933 -1.69969 3.72678e-16)
(26.3829 -2.24902 -1.54969e-17)
(24.9021 -2.82216 6.56513e-16)
(24.0706 4.21363 -5.50491e-17)
(25.6668 4.4619 0)
(27.1588 3.65575 1.40417e-16)
(27.9306 2.52034 -1.90291e-16)
(28.167 1.36606 -2.15934e-16)
(28.0825 0.256083 0)
(27.7426 -0.699555 9.54295e-17)
(27.1481 -1.47128 -2.94189e-16)
(26.379 -1.9894 -8.46732e-18)
(24.9869 -2.52089 7.39853e-18)
(18.0504 -0.720208 0)
(21.0723 -0.563392 0)
(22.5648 -0.464025 0)
(23.2178 -0.390428 0)
(23.5559 -0.341067 0)
(23.783 -0.307339 0)
(23.9457 -0.282197 0)
(24.0581 -0.262531 0)
(24.1374 -0.247153 0)
(24.1993 -0.235201 0)
(24.2522 -0.225881 0)
(24.3006 -0.218582 0)
(24.3464 -0.212883 0)
(24.3917 -0.208478 0)
(24.4371 -0.205121 0)
(24.4837 -0.202623 0)
(24.5307 -0.200819 0)
(24.5802 -0.199613 0)
(24.6228 -0.19886 0)
(24.6978 -0.198642 0)
(18.9553 -0.712814 0)
(21.605 -0.590029 0)
(22.9551 -0.475094 0)
(23.5129 -0.394686 0)
(23.7818 -0.343278 0)
(23.9587 -0.308742 0)
(24.0845 -0.283114 0)
(24.1698 -0.263124 0)
(24.229 -0.247561 0)
(24.2759 -0.235512 0)
(24.3176 -0.226141 0)
(24.3576 -0.218812 0)
(24.3971 -0.213094 0)
(24.4375 -0.208676 0)
(24.479 -0.205311 0)
(24.5224 -0.202805 0)
(24.5666 -0.200994 0)
(24.6135 -0.19977 0)
(24.6541 -0.199044 0)
(24.7251 -0.198756 0)
(20.2782 -0.740834 0)
(22.34 -0.613638 0)
(23.441 -0.486753 0)
(23.8655 -0.399108 0)
(24.0473 -0.345417 0)
(24.1628 -0.310055 0)
(24.2447 -0.283956 0)
(24.2983 -0.263659 0)
(24.3346 -0.247929 0)
(24.3648 -0.235805 0)
(24.3944 -0.226402 0)
(24.4254 -0.219056 0)
(24.458 -0.213328 0)
(24.4932 -0.208905 0)
(24.5305 -0.205535 0)
(24.5704 -0.203022 0)
(24.6114 -0.201205 0)
(24.6552 -0.19996 0)
(24.6931 -0.199268 0)
(24.7589 -0.198895 0)
(21.7592 -0.774268 0)
(23.2026 -0.630734 0)
(23.9845 -0.498207 0)
(24.2396 -0.403166 0)
(24.3207 -0.34708 0)
(24.3704 -0.311004 0)
(24.4075 -0.284539 0)
(24.4301 -0.264014 0)
(24.4447 -0.248179 0)
(24.4598 -0.236031 0)
(24.4786 -0.226632 0)
(24.5017 -0.219296 0)
(24.5285 -0.213577 0)
(24.5589 -0.20916 0)
(24.5923 -0.205792 0)
(24.6287 -0.203277 0)
(24.6662 -0.201455 0)
(24.7063 -0.200186 0)
(24.7409 -0.199531 0)
(24.7998 -0.199057 0)
(23.0805 -0.814851 0)
(23.9457 -0.63933 0)
(24.4223 -0.507123 0)
(24.5188 -0.40586 0)
(24.5148 -0.347721 0)
(24.5167 -0.311278 0)
(24.5259 -0.284694 0)
(24.532 -0.264102 0)
(24.5367 -0.248266 0)
(24.5456 -0.236164 0)
(24.5605 -0.226821 0)
(24.5807 -0.21953 0)
(24.605 -0.213843 0)
(24.6331 -0.209445 0)
(24.6638 -0.206088 0)
(24.6969 -0.203572 0)
(24.7308 -0.201745 0)
(24.7662 -0.200448 0)
(24.7967 -0.199831 0)
(24.846 -0.199243 0)
(23.7529 -0.839726 0)
(24.2488 -0.636612 0)
(24.5446 -0.512246 0)
(24.5644 -0.406794 0)
(24.5347 -0.347293 0)
(24.5343 -0.311045 0)
(24.5511 -0.284674 0)
(24.5683 -0.264188 0)
(24.5845 -0.24843 0)
(24.6034 -0.236404 0)
(24.6262 -0.227125 0)
(24.652 -0.219877 0)
(24.6797 -0.214213 0)
(24.7088 -0.209824 0)
(24.7388 -0.206464 0)
(24.7691 -0.203934 0)
(24.7989 -0.202087 0)
(24.8283 -0.200749 0)
(24.8529 -0.200155 0)
(24.8899 -0.199441 0)
(23.7976 -0.851194 0)
(24.1928 -0.623974 0)
(24.4787 -0.516065 0)
(24.5129 -0.408614 0)
(24.5046 -0.347735 0)
(24.5261 -0.311689 0)
(24.5627 -0.285443 0)
(24.5964 -0.264935 0)
(24.6261 -0.249134 0)
(24.6555 -0.237079 0)
(24.686 -0.227774 0)
(24.7169 -0.220495 0)
(24.7472 -0.214792 0)
(24.7765 -0.210357 0)
(24.8044 -0.206947 0)
(24.8307 -0.204362 0)
(24.855 -0.202463 0)
(24.8774 -0.20106 0)
(24.8953 -0.200458 0)
(24.9203 -0.199619 0)
(23.7737 -0.869334 0)
(24.1532 -0.613835 0)
(24.4725 -0.524442 0)
(24.5349 -0.414037 0)
(24.5466 -0.349681 0)
(24.5829 -0.313139 0)
(24.63 -0.286797 0)
(24.6704 -0.266107 0)
(24.7034 -0.250147 0)
(24.7336 -0.237975 0)
(24.7627 -0.228575 0)
(24.7902 -0.221206 0)
(24.8158 -0.215414 0)
(24.8393 -0.210893 0)
(24.8607 -0.207404 0)
(24.88 -0.204744 0)
(24.8971 -0.20278 0)
(24.9125 -0.201309 0)
(24.9244 -0.200692 0)
(24.9409 -0.199756 0)
(23.8547 -0.944205 0)
(24.203 -0.607178 0)
(24.5422 -0.52862 0)
(24.6213 -0.417567 0)
(24.641 -0.349778 0)
(24.681 -0.313329 0)
(24.7284 -0.287512 0)
(24.7665 -0.266905 0)
(24.7953 -0.250872 0)
(24.8196 -0.238626 0)
(24.8419 -0.229159 0)
(24.8619 -0.221722 0)
(24.8797 -0.215862 0)
(24.8952 -0.211278 0)
(24.9089 -0.207732 0)
(24.9209 -0.205022 0)
(24.9314 -0.203015 0)
(24.9407 -0.201502 0)
(24.9479 -0.200881 0)
(24.9584 -0.199881 0)
(24.0414 -0.943929 0)
(24.3388 -0.578246 0)
(24.6745 -0.530328 0)
(24.753 -0.428531 0)
(24.7646 -0.355965 0)
(24.7949 -0.317244 0)
(24.8323 -0.290743 0)
(24.8603 -0.269425 0)
(24.8791 -0.252743 0)
(24.8937 -0.240061 0)
(24.9068 -0.230308 0)
(24.9183 -0.222661 0)
(24.9281 -0.216635 0)
(24.9366 -0.211917 0)
(24.9439 -0.208261 0)
(24.9505 -0.205458 0)
(24.9562 -0.203376 0)
(24.9616 -0.201793 0)
(24.9658 -0.201141 0)
(24.9726 -0.200059 0)
(24.9996 0.00822738 0)
(24.9951 0.0252954 0)