/*--------------------------------*- C++ -*----------------------------------*\
| =========                 |                                                 |
| \\      /  F ield         | OpenFOAM: The Open Source CFD Toolbox           |
|  \\    /   O peration     | Version:  v1912                                 |
|   \\  /    A nd           | Website:  www.openfoam.com                      |
|    \\/     M anipulation  |                                                 |
\*---------------------------------------------------------------------------*/
FoamFile
{
    version     2.0;
    format      ascii;
    class       volScalarField;
    location    "150";
    object      epsilon;
}
// * * * * * * * * * * * * * * * * * * * * * * * * * * * * * * * * * * * * * //

dimensions      [0 2 -3 0 0 0 0];


internalField   nonuniform List<scalar> 
2000
(
0.0135126
0.0111846
0.00819023
0.00480142
0.00122208
0.000122241
9.72839e-05
0.000113488
0.000115624
8.84367e-05
5.28841e-05
3.50377e-05
3.91907e-05
4.41713e-05
5.0213e-05
5.94585e-05
7.24568e-05
8.8887e-05
0.000109056
0.000133855
0.000164461
0.000202265
0.000248806
0.00030567
0.000374336
0.000455984
0.000551339
0.000660582
0.000783332
0.000918716
0.00106549
0.00122218
0.00138721
0.0015591
0.0017366
0.00191895
0.00210609
0.00229896
0.00250004
0.00271421
0.00293815
0.00316578
0.00339765
0.0036347
0.00387734
0.00412548
0.0043787
0.00463634
0.00489756
0.00516142
0.00542694
0.00569311
0.00595892
0.00622332
0.00648314
0.00673788
0.00698739
0.00723205
0.00747433
0.00772424
0.00801225
0.0083253
0.00865209
0.0089876
0.00933106
0.00968353
0.0100471
0.0104248
0.0108204
0.0112385
0.011685
0.0121671
0.0126939
0.0132768
0.0139315
0.0146793
0.0155532
0.0166041
0.0179133
0.0198784
0.122256
0.0401411
0.018526
0.0102232
0.00590917
0.00348151
0.00206508
0.00118976
0.00146867
0.000695153
0.000307316
0.000208648
0.000167146
0.000133491
0.000110825
0.000108771
0.000118617
0.000134139
0.000154759
0.000181084
0.0002139
0.000254266
0.0003035
0.000363048
0.000434355
0.000518731
0.000617213
0.000730474
0.000858758
0.00100183
0.00115895
0.00132894
0.0015102
0.00170089
0.00189915
0.00210335
0.0023122
0.00252466
0.0027396
0.00295245
0.0031628
0.00337246
0.00358199
0.00379216
0.00400318
0.00421484
0.00442657
0.00463762
0.0048471
0.00505408
0.00525769
0.00545732
0.00565325
0.0058487
0.00602943
0.00619941
0.00635949
0.00650989
0.00665121
0.00678497
0.00691292
0.00703462
0.0071503
0.00726021
0.00736499
0.00746572
0.0075639
0.00766139
0.00776038
0.00786341
0.00797335
0.00809342
0.00822722
0.00837848
0.00855134
0.00874715
0.00897205
0.00919177
0.00949064
0.00949509
0.111974
0.0306053
0.0126532
0.00692942
0.0043306
0.00288086
0.00200538
0.0014756
0.00139261
0.00132982
0.00132646
0.00152908
0.00158043
0.000979142
0.000619989
0.000470115
0.000419614
0.000401576
0.000405207
0.000426126
0.000460898
0.000508253
0.000568279
0.000641389
0.000728274
0.000829866
0.000947084
0.00108056
0.00123049
0.00139653
0.00157783
0.00177302
0.00198047
0.00219848
0.00242573
0.00266163
0.00290663
0.00316342
0.00342183
0.00367877
0.00393512
0.00418949
0.00443951
0.00468651
0.00493023
0.0051698
0.00540405
0.00563164
0.0058512
0.00606136
0.00626081
0.00644842
0.00662326
0.00678456
0.0069305
0.00706069
0.00717497
0.0072734
0.00735628
0.00742417
0.00747802
0.00751909
0.00754894
0.00756905
0.00758105
0.00758676
0.00758827
0.00758789
0.00758813
0.0075917
0.00760148
0.00762047
0.00765165
0.00769779
0.00776091
0.00784056
0.00793458
0.00801872
0.00813088
0.00802073
0.109259
0.0268001
0.00926411
0.00444698
0.00268933
0.00184507
0.00135666
0.00105162
0.000920261
0.000889861
0.000955723
0.00120358
0.00165666
0.00209213
0.00244646
0.00246374
0.00213054
0.00175696
0.0015114
0.00138477
0.00133289
0.0013284
0.00135795
0.00141343
0.00148994
0.0015853
0.00169893
0.00183087
0.00198132
0.00215041
0.00233805
0.00254389
0.00276715
0.00300701
0.00326395
0.00353917
0.00383506
0.00413332
0.00443076
0.00472584
0.00501611
0.00529913
0.00557316
0.00583712
0.00608997
0.00633049
0.00655736
0.00676919
0.00696463
0.00714238
0.0073013
0.00744047
0.00755921
0.00765708
0.00773385
0.00778964
0.00782492
0.00784047
0.00783732
0.0078168
0.0077805
0.00773037
0.00766855
0.00759729
0.00751888
0.00743572
0.00735027
0.00726509
0.00718274
0.00710587
0.0070371
0.00697904
0.00693413
0.00690445
0.00689126
0.00689375
0.00690961
0.006921
0.0069575
0.00684451
0.108843
0.0260421
0.00822882
0.00339502
0.00179879
0.00115718
0.000843095
0.00066243
0.000563344
0.00051987
0.000527227
0.000611934
0.000822615
0.00118463
0.00175221
0.00252746
0.00331219
0.00388343
0.00414165
0.00412602
0.00396049
0.00376554
0.00360784
0.00350634
0.00345726
0.00345168
0.00348233
0.00354463
0.003636
0.00375512
0.00390122
0.00407353
0.00427102
0.00449316
0.0047495
0.00502596
0.0053059
0.00558666
0.00586462
0.00613659
0.00639925
0.00664949
0.00688473
0.00710298
0.00730259
0.00748214
0.0076404
0.00777629
0.00788891
0.0079776
0.00804194
0.00808184
0.00809752
0.00808956
0.00805886
0.00800664
0.00793446
0.0078441
0.0077376
0.00761716
0.00748515
0.00734405
0.00719642
0.00704477
0.00689159
0.00673927
0.00659013
0.00644641
0.00631025
0.00618373
0.00606886
0.00596756
0.00588162
0.00581256
0.00576137
0.00572767
0.00571045
0.00569734
0.00571457
0.0056353
0.108786
0.0259478
0.00802269
0.00308858
0.00145465
0.000827173
0.000552332
0.000415627
0.000342701
0.000304622
0.000291386
0.0003068
0.000366819
0.000492718
0.000723191
0.00111515
0.00169108
0.00244516
0.00333604
0.0042708
0.00512652
0.00579945
0.00624504
0.00648239
0.00656851
0.00656714
0.00652947
0.00648893
0.00646435
0.00646512
0.00649539
0.00655626
0.00665042
0.00677741
0.00691695
0.00706608
0.00722152
0.00737952
0.00753586
0.00768638
0.0078271
0.0079544
0.0080652
0.00815705
0.00822804
0.00827674
0.00830212
0.00830358
0.00828087
0.00823416
0.008164
0.00807133
0.00795747
0.00782408
0.00767312
0.00750683
0.00732762
0.00713803
0.00694069
0.00673819
0.0065331
0.00632791
0.00612493
0.00592634
0.00573407
0.0055499
0.00537538
0.0052119
0.00506072
0.004923
0.0047998
0.00469219
0.00460115
0.00452762
0.00447238
0.00443545
0.00441711
0.00440905
0.00443446
0.00440278
0.108778
0.0259455
0.00799965
0.00302535
0.00135562
0.000706609
0.000424243
0.000289804
0.000221537
0.000185952
0.000168795
0.000165531
0.000178073
0.000212399
0.000280622
0.000403921
0.000600587
0.000890559
0.00129533
0.00183115
0.00250222
0.00329408
0.00416959
0.00507153
0.00593343
0.00669558
0.00731909
0.00779209
0.00812646
0.00834887
0.00849088
0.00858107
0.00862788
0.00864372
0.00864486
0.00863933
0.00863021
0.00861772
0.0086006
0.00857682
0.00854405
0.0084999
0.00844213
0.00836886
0.00827858
0.00817031
0.00804353
0.00789826
0.00773503
0.00755483
0.00735909
0.0071496
0.00692848
0.00669805
0.00646081
0.00621933
0.00597617
0.0057338
0.00549458
0.00526066
0.00503397
0.0048162
0.00460877
0.00441284
0.00422935
0.00405899
0.00390229
0.00375963
0.00363129
0.0035175
0.00341851
0.00333459
0.0032661
0.0032135
0.00317739
0.0031581
0.00315679
0.00316829
0.00321232
0.00322788
0.108777
0.0259494
0.00800227
0.00301736
0.00133375
0.000671702
0.000379173
0.000238015
0.000165448
0.00012672
0.000106126
9.6553e-05
9.546e-05
0.00010298
0.000121587
0.000156591
0.000212648
0.000295557
0.000412988
0.000573829
0.000787691
0.00106403
0.00141085
0.00183301
0.0023303
0.00289557
0.00351366
0.00416195
0.00481295
0.00543825
0.0060129
0.00651873
0.00695336
0.0072776
0.00749147
0.00761274
0.00766123
0.00765473
0.00760725
0.00752871
0.00742557
0.0073017
0.00715935
0.00699993
0.0068245
0.00663417
0.00643027
0.00621436
0.00598831
0.00575418
0.00551421
0.00527075
0.00502616
0.00478276
0.00454276
0.00430822
0.00408098
0.00386264
0.00365454
0.00345776
0.00327308
0.00310108
0.00294209
0.00279626
0.00266358
0.00254391
0.00243706
0.00234278
0.0022608
0.00219091
0.00213295
0.00208688
0.00205281
0.00203102
0.00202206
0.00202653
0.00204611
0.00207808
0.00213843
0.00218994
0.108777
0.0259519
0.00800543
0.00301804
0.00133027
0.000663336
0.000365853
0.000220156
0.000143602
0.000101339
7.73802e-05
6.39732e-05
5.73643e-05
5.59388e-05
5.94478e-05
6.87757e-05
8.46522e-05
0.00010804
0.000140327
0.000183146
0.000238364
0.00030804
0.000394368
0.000499587
0.000625816
0.000774809
0.000947613
0.00114421
0.00136322
0.0016017
0.00185514
0.0021177
0.00238368
0.00267813
0.00297418
0.0032529
0.00349951
0.00370357
0.00385926
0.00396506
0.00402273
0.00403628
0.00401094
0.0039524
0.00386629
0.00375787
0.00363194
0.00349274
0.00334403
0.00318911
0.00303087
0.00287186
0.00271426
0.00255995
0.00241051
0.00226721
0.00213108
0.00200286
0.00188309
0.00177208
0.00167002
0.0015769
0.00149266
0.00141714
0.00135012
0.00129138
0.00124069
0.00119782
0.0011626
0.0011349
0.00111469
0.00110201
0.00109707
0.00110023
0.00111214
0.00113356
0.00116636
0.00120965
0.00127559
0.00134494
0.108777
0.0259528
0.00800695
0.0030191
0.00133017
0.000661685
0.000362382
0.000214713
0.000136121
9.18019e-05
6.57557e-05
5.00995e-05
4.07674e-05
3.56367e-05
3.36746e-05
3.4553e-05
3.8119e-05
4.43181e-05
5.32529e-05
6.50742e-05
7.99314e-05
9.7946e-05
0.000119195
0.0001437
0.00017141
0.00020217
0.000235672
0.000271406
0.00030861
0.000346231
0.000382915
0.000417015
0.000446721
0.000471036
0.000506003
0.000551544
0.000606213
0.000667629
0.000732713
0.000798026
0.000860156
0.000916047
0.000963254
0.00100008
0.00102562
0.00103967
0.00104268
0.00103554
0.00101949
0.000995929
0.000966346
0.000932196
0.000894842
0.000855518
0.000815301
0.000775105
0.000735687
0.000697661
0.000661509
0.000627604
0.000596225
0.000567578
0.00054181
0.000519028
0.000499309
0.000482717
0.000469315
0.000459174
0.000452389
0.000449091
0.000449461
0.000453748
0.000462299
0.000475586
0.00049429
0.000519259
0.00055217
0.000593334
0.000651167
0.000718617
0.108777
0.0259522
0.00800692
0.00301942
0.00133035
0.000661443
0.00036156
0.00021318
0.000133764
8.85265e-05
6.14756e-05
4.47103e-05
3.4094e-05
2.73669e-05
2.32709e-05
2.11252e-05
2.05554e-05
2.12569e-05
2.30594e-05
2.58687e-05
2.96184e-05
3.4241e-05
3.96513e-05
4.57363e-05
5.23492e-05
5.93034e-05
6.6366e-05
7.3253e-05
7.96277e-05
8.51057e-05
8.92672e-05
9.16799e-05
9.1936e-05
8.97194e-05
8.69796e-05
8.49285e-05
8.3742e-05
8.35815e-05
8.45698e-05
8.67666e-05
9.0149e-05
9.46039e-05
9.99318e-05
0.000105864
0.000112086
0.000118271
0.000124104
0.00012931
0.00013367
0.000137033
0.000139318
0.000140508
0.000140646
0.000139822
0.000138162
0.000135814
0.000132942
0.000129711
0.000126284
0.000122817
0.000119453
0.000116324
0.00011355
0.000111244
0.000109511
0.000108454
0.00010818
0.000108803
0.000110458
0.000113302
0.000117533
0.000123399
0.000131226
0.00014144
0.000154628
0.000171542
0.000193477
0.000221327
0.00026022
0.000309688
0.108777
0.0259502
0.00800555
0.00301892
0.0013302
0.000661332
0.000361338
0.000212751
0.000133051
8.74622e-05
5.99962e-05
4.27504e-05
3.15737e-05
2.41735e-05
1.92335e-05
1.59793e-05
1.39934e-05
1.29093e-05
1.24849e-05
1.25686e-05
1.30577e-05
1.38743e-05
1.49508e-05
1.62218e-05
1.7619e-05
1.90686e-05
2.04898e-05
2.17949e-05
2.28915e-05
2.36869e-05
2.40956e-05
2.40483e-05
2.35037e-05
2.24617e-05
2.13036e-05
2.01626e-05
1.90428e-05
1.79502e-05
1.68922e-05
1.58775e-05
1.49153e-05
1.40153e-05
1.31863e-05
1.24361e-05
1.17703e-05
1.11917e-05
1.07e-05
1.02916e-05
9.95997e-06
9.69636e-06
9.49059e-06
9.33223e-06
9.21176e-06
9.12154e-06
9.05667e-06
9.01566e-06
9.00075e-06
9.01803e-06
9.07732e-06
9.1919e-06
9.37803e-06
9.65446e-06
1.00418e-05
1.05621e-05
1.12383e-05
1.20944e-05
1.31561e-05
1.44513e-05
1.60133e-05
1.78836e-05
2.01177e-05
2.27937e-05
2.60242e-05
2.99751e-05
3.48978e-05
4.116e-05
4.93983e-05
6.03069e-05
7.63473e-05
9.87099e-05
0.108777
0.0259468
0.00800301
0.0030177
0.00132965
0.000661064
0.000361164
0.000212576
0.000132813
8.71147e-05
5.95001e-05
4.20686e-05
3.06667e-05
2.29947e-05
1.77221e-05
1.40516e-05
1.15645e-05
9.88549e-06
8.75852e-06
8.02177e-06
7.56784e-06
7.32151e-06
7.2268e-06
7.23923e-06
7.32127e-06
7.43951e-06
7.56322e-06
7.66374e-06
7.71483e-06
7.69361e-06
7.58214e-06
7.36922e-06
7.05211e-06
6.63672e-06
6.22235e-06
5.82365e-06
5.43997e-06
5.07106e-06
4.71693e-06
4.37777e-06
4.0539e-06
3.74568e-06
3.45346e-06
3.17757e-06
2.9183e-06
2.67588e-06
2.45061e-06
2.24289e-06
2.05343e-06
1.88347e-06
1.73514e-06
1.61178e-06
1.51846e-06
1.46239e-06
1.45335e-06
1.50408e-06
1.63033e-06
1.85095e-06
2.18752e-06
2.66393e-06
3.30556e-06
4.13835e-06
5.18753e-06
6.47633e-06
8.02491e-06
9.84949e-06
1.19621e-05
1.43709e-05
1.70812e-05
2.00973e-05
2.34246e-05
2.70724e-05
3.10564e-05
3.54002e-05
4.01359e-05
4.52886e-05
5.08927e-05
5.67422e-05
6.31733e-05
6.82259e-05
0.108777
0.0259419
0.00799946
0.0030159
0.00132876
0.000660599
0.000360904
0.00021241
0.000132678
8.69714e-05
5.93204e-05
4.18297e-05
3.03477e-05
2.25742e-05
1.71759e-05
1.33502e-05
1.06821e-05
8.79694e-06
7.43781e-06
6.44296e-06
5.70649e-06
5.15641e-06
4.74203e-06
4.4263e-06
4.18129e-06
3.9852e-06
3.82065e-06
3.67356e-06
3.5326e-06
3.38898e-06
3.23638e-06
3.07107e-06
2.89187e-06
2.69921e-06
2.51938e-06
2.35103e-06
2.19311e-06
2.0448e-06
1.90543e-06
1.7745e-06
1.65157e-06
1.53633e-06
1.42859e-06
1.32833e-06
1.2358e-06
1.1518e-06
1.07788e-06
1.01685e-06
9.73313e-07
9.54384e-07
9.70462e-07
1.0361e-06
1.17083e-06
1.39988e-06
1.75477e-06
2.27359e-06
3.00093e-06
3.98714e-06
5.28695e-06
6.95757e-06
9.05638e-06
1.16385e-05
1.47548e-05
1.84499e-05
2.27615e-05
2.77207e-05
3.33529e-05
3.96798e-05
4.67224e-05
5.45043e-05
6.30538e-05
7.24066e-05
8.26053e-05
9.36945e-05
0.000105706
0.000118616
0.000132299
0.000146065
0.000159487
0.000167335
0.108777
0.0259355
0.00799502
0.00301363
0.00132758
0.000659961
0.000360542
0.000212193
0.000132537
8.68656e-05
5.92256e-05
4.17285e-05
3.02267e-05
2.24217e-05
1.69808e-05
1.31008e-05
1.03692e-05
8.41282e-06
6.97555e-06
5.89656e-06
5.07128e-06
4.42945e-06
3.9225e-06
3.51595e-06
3.18472e-06
2.91022e-06
2.67838e-06
2.47845e-06
2.30219e-06
2.14331e-06
1.99714e-06
1.86039e-06
1.73087e-06
1.60804e-06
1.49651e-06
1.3948e-06
1.3017e-06
1.21623e-06
1.1376e-06
1.06521e-06
9.98746e-07
9.38254e-07
8.84444e-07
8.39074e-07
8.05565e-07
7.89843e-07
8.01419e-07
8.54692e-07
9.7044e-07
1.17741e-06
1.51399e-06
2.02976e-06
2.78684e-06
3.86054e-06
5.33914e-06
7.32271e-06
9.92088e-06
1.32499e-05
1.74291e-05
2.25772e-05
2.8809e-05
3.62324e-05
4.4946e-05
5.50378e-05
6.6583e-05
7.96424e-05
9.42591e-05
0.000110456
0.00012823
0.000147552
0.000168357
0.000190551
0.000214
0.000238531
0.000263917
0.000289828
0.000315819
0.000340559
0.000363481
0.000376114
0.108777
0.0259274
0.00798979
0.00301096
0.00132618
0.000659183
0.000360091
0.00021192
0.000132363
8.6749e-05
5.91408e-05
4.16598e-05
3.01631e-05
2.2355e-05
1.69045e-05
1.30089e-05
1.02576e-05
8.27836e-06
6.81588e-06
5.71001e-06
4.85687e-06
4.18693e-06
3.65244e-06
3.21974e-06
2.86464e-06
2.56942e-06
2.32085e-06
2.10897e-06
1.92614e-06
1.76653e-06
1.62565e-06
1.50004e-06
1.38709e-06
1.2853e-06
1.1943e-06
1.11259e-06
1.03898e-06
9.7266e-07
9.13368e-07
8.61742e-07
8.19943e-07
7.92599e-07
7.8813e-07
8.20487e-07
9.11268e-07
1.09218e-06
1.40778e-06
1.91843e-06
2.70338e-06
3.86335e-06
5.5223e-06
7.82803e-06
1.09514e-05
1.5084e-05
2.04352e-05
2.72271e-05
3.569e-05
4.60557e-05
5.85516e-05
7.33915e-05
9.07646e-05
0.000110821
0.000133652
0.000159271
0.000187592
0.000218416
0.000251422
0.00028618
0.000322164
0.000358796
0.000395485
0.00043167
0.000466866
0.000500683
0.00053284
0.000563061
0.00059126
0.000615909
0.000638049
0.000646647
0.108777
0.0259178
0.00798391
0.00300799
0.0013246
0.000658293
0.000359568
0.000211598
0.000132157
8.66117e-05
5.90457e-05
4.15906e-05
3.01096e-05
2.23101e-05
1.6863e-05
1.29669e-05
1.02122e-05
8.22766e-06
6.7585e-06
5.64512e-06
4.78401e-06
4.10601e-06
3.56369e-06
3.1237e-06
2.76214e-06
2.46152e-06
2.20887e-06
1.99438e-06
1.81059e-06
1.65172e-06
1.51328e-06
1.39174e-06
1.28431e-06
1.18906e-06
1.10462e-06
1.03015e-06
9.66347e-07
9.16533e-07
8.88453e-07
8.96694e-07
9.65772e-07
1.13377e-06
1.45637e-06
2.01138e-06
2.90354e-06
4.26918e-06
6.27995e-06
9.14507e-06
1.3112e-05
1.8465e-05
2.55222e-05
3.46308e-05
4.61595e-05
6.049e-05
7.80029e-05
9.90597e-05
0.000123976
0.000152988
0.000186209
0.000223589
0.000264875
0.000309589
0.000357037
0.000406339
0.000456492
0.000506457
0.000555241
0.000601981
0.000645997
0.000686827
0.000724226
0.000758149
0.000788719
0.000816174
0.000840865
0.000862993
0.00088319
0.000899571
0.000915445
0.000913547
0.108777
0.0259065
0.0079775
0.00300476
0.00132287
0.000657316
0.000358989
0.000211238
0.000131924
8.64549e-05
5.89369e-05
4.1513e-05
3.00524e-05
2.22664e-05
1.68281e-05
1.29374e-05
1.01856e-05
8.20215e-06
6.73297e-06
5.61878e-06
4.75639e-06
4.07685e-06
3.5329e-06
3.09134e-06
2.72839e-06
2.42666e-06
2.17324e-06
1.95842e-06
1.77473e-06
1.61645e-06
1.47906e-06
1.35903e-06
1.25383e-06
1.16495e-06
1.09999e-06
1.07732e-06
1.13158e-06
1.31978e-06
1.72767e-06
2.47618e-06
3.72807e-06
5.69389e-06
8.63604e-06
1.28703e-05
1.87648e-05
2.67361e-05
3.72428e-05
5.07761e-05
6.78469e-05
8.89669e-05
0.000114623
0.00014524
0.000181137
0.000222469
0.000269175
0.000320926
0.000377104
0.00043681
0.000498914
0.000562139
0.000625173
0.000686773
0.000745864
0.000801589
0.000853334
0.000900718
0.000943561
0.000981848
0.00101569
0.0010453
0.00107097
0.00109307
0.00111203
0.00112831
0.00114247
0.00115481
0.00116641
0.00117467
0.00118544
0.00117313
0.108777
0.0258938
0.00797071
0.00300135
0.00132103
0.000656274
0.000358366
0.000210848
0.000131669
8.62822e-05
5.88164e-05
4.14266e-05
2.9989e-05
2.22189e-05
1.67917e-05
1.29088e-05
1.01623e-05
8.18256e-06
6.71589e-06
5.60345e-06
4.74231e-06
4.06376e-06
3.52072e-06
3.08018e-06
2.71856e-06
2.41877e-06
2.16829e-06
1.95798e-06
1.78136e-06
1.63423e-06
1.51481e-06
1.42499e-06
1.46464e-06
1.78785e-06
2.58404e-06
4.11144e-06
6.70122e-06
1.07574e-05
1.67509e-05
2.52089e-05
3.67004e-05
5.18177e-05
7.11568e-05
9.52921e-05
0.000124746
0.000159954
0.000201218
0.000248658
0.000302166
0.000361366
0.0004256
0.000493936
0.000565224
0.000638179
0.000711486
0.000783906
0.000854366
0.000922007
0.000986196
0.0010465
0.00110262
0.0011544
0.00120169
0.00124443
0.00128255
0.00131605
0.00134501
0.00136955
0.00138993
0.00140648
0.00141963
0.00142992
0.00143793
0.00144429
0.00144978
0.00145471
0.00146068
0.00146413
0.00147384
0.00145363
0.108777
0.0258798
0.00796368
0.00299783
0.00131913
0.000655193
0.000357715
0.000210435
0.000131396
8.60965e-05
5.86866e-05
4.13344e-05
2.99236e-05
2.21738e-05
1.6764e-05
1.28987e-05
1.01724e-05
8.2188e-06
6.789e-06
5.73111e-06
4.95271e-06
4.40095e-06
4.05222e-06
3.90754e-06
3.99139e-06
4.35312e-06
5.07041e-06
6.25474e-06
8.05923e-06
1.0689e-05
1.44141e-05
1.99831e-05
2.92622e-05
4.28766e-05
6.15266e-05
8.58443e-05
0.000116362
0.000153472
0.000197388
0.000248115
0.000305427
0.000368851
0.000437673
0.000510955
0.000587581
0.000666327
0.000745943
0.000825254
0.000903242
0.00097912
0.00105235
0.00112265
0.00118992
0.00125419
0.00131552
0.00137397
0.00142948
0.00148192
0.00153108
0.00157666
0.00161835
0.00165586
0.00168894
0.00171746
0.00174138
0.00176079
0.00177592
0.00178712
0.00179485
0.0017997
0.00180233
0.00180348
0.00180396
0.00180459
0.00180636
0.00180964
0.00181656
0.00182232
0.00183925
0.00181622
0.108777
0.0258649
0.00795666
0.0029943
0.00131725
0.00065415
0.00035712
0.000210106
0.000131255
8.61274e-05
5.89243e-05
4.1873e-05
3.09448e-05
2.39996e-05
1.99368e-05
1.82943e-05
1.89218e-05
2.17394e-05
2.68372e-05
3.44219e-05
4.47787e-05
5.82477e-05
7.52082e-05
9.60659e-05
0.000121242
0.000151165
0.000186259
0.000226944
0.00027362
0.000326662
0.000386389
0.000453087
0.000528406
0.000610439
0.000697222
0.000786669
0.000876755
0.000965652
0.00105183
0.00113415
0.00121191
0.00128483
0.00135306
0.00141704
0.00147744
0.00153504
0.0015906
0.00164478
0.00169808
0.00175078
0.00180299
0.00185461
0.00190536
0.00195488
0.0020027
0.00204831
0.00209119
0.00213083
0.00216678
0.00219864
0.00222611
0.00224901
0.0022673
0.00228109
0.00229062
0.00229633
0.00229876
0.00229864
0.00229675
0.00229402
0.00229143
0.00229002
0.00229092
0.00229522
0.00230427
0.0023186
0.00234121
0.0023653
0.00240895
0.00239677
0.10878
0.0258526
0.00795326
0.00299432
0.00131939
0.000658383
0.000364352
0.000222419
0.000152412
0.000122132
0.000118345
0.000135709
0.000172113
0.000226725
0.000299156
0.000389015
0.000490366
0.000599401
0.000713952
0.000832153
0.000952346
0.001073
0.00119268
0.00131
0.00142367
0.00153249
0.00163547
0.0017318
0.00182093
0.00190259
0.00197677
0.00204299
0.00210048
0.00215006
0.00219243
0.00222888
0.00226109
0.00229083
0.00231967
0.00234887
0.00237933
0.00241159
0.00244593
0.00248237
0.0025208
0.002561
0.00260264
0.00264537
0.00268876
0.00273235
0.00277561
0.00281798
0.00285885
0.00289759
0.00293357
0.00296619
0.00299493
0.00301934
0.00303914
0.00305419
0.00306455
0.00307046
0.00307237
0.00307093
0.00306695
0.00306141
0.00305544
0.00305028
0.00304729
0.00304792
0.00305372
0.00306633
0.00308756
0.00311921
0.00316368
0.00322212
0.00329988
0.00338685
0.00351303
0.00356406
0.108955
0.0260553
0.00818238
0.00325903
0.00165107
0.0011054
0.000996627
0.00112606
0.00141236
0.0018016
0.00224505
0.00269932
0.00313058
0.00351605
0.00384242
0.00410317
0.00428684
0.00440337
0.00446735
0.00449161
0.00448694
0.00446222
0.00442462
0.0043798
0.00433209
0.00428471
0.00423994
0.00419929
0.00416364
0.00413343
0.00410883
0.0040898
0.00407408
0.00406119
0.0040509
0.00404408
0.00404173
0.00404454
0.00405281
0.00406652
0.00408547
0.00410927
0.00413738
0.00416918
0.00420392
0.0042408
0.00427893
0.00431738
0.0043552
0.00439144
0.00442517
0.00445552
0.00448173
0.00450313
0.00451924
0.00452975
0.0045346
0.00453395
0.00452825
0.00451821
0.0045048
0.00448928
0.0044731
0.00445797
0.00444576
0.0044385
0.00443843
0.00444796
0.0044697
0.00450649
0.00456148
0.00463822
0.00474086
0.004874
0.00504387
0.00525514
0.00552148
0.00582966
0.00623833
0.006613
0.117482
0.0358348
0.0174727
0.0123548
0.0112235
0.0116231
0.0127033
0.0139643
0.0150216
0.0156379
0.0157562
0.015458
0.0148852
0.014176
0.013433
0.0127184
0.0120659
0.0114932
0.0109982
0.0105695
0.010195
0.00986491
0.00957176
0.00931019
0.00907636
0.00886746
0.00868127
0.00851596
0.00836989
0.00824148
0.00812951
0.00803159
0.0079519
0.00789641
0.00786482
0.00785422
0.00786087
0.00788109
0.00791156
0.00794941
0.00799241
0.00803847
0.00808565
0.00813212
0.00817619
0.0082163
0.00825097
0.00827887
0.00829883
0.00830987
0.00831126
0.00830256
0.00828368
0.00825493
0.00821702
0.00817113
0.0081189
0.00806242
0.00800424
0.0079473
0.00789494
0.00785085
0.00781906
0.00780391
0.0078101
0.00784256
0.00790698
0.00800979
0.00815827
0.00836078
0.00862731
0.00896989
0.00940349
0.00994605
0.010622
0.0114543
0.0124962
0.0137482
0.015401
0.0176391
0.223501
0.161833
0.121109
0.0944869
0.0764552
0.0640458
0.0554288
0.0494355
0.0452113
0.0420858
0.0395696
0.0373619
0.0353189
0.0333964
0.0315963
0.0299307
0.0284448
0.0271528
0.0260329
0.0250589
0.0242083
0.0234625
0.0228062
0.0222276
0.0217168
0.0212659
0.020868
0.020517
0.0202074
0.0199339
0.0196914
0.0194758
0.0192769
0.0190852
0.0188976
0.0187144
0.0185361
0.0183628
0.0181942
0.0180295
0.017868
0.017709
0.0175521
0.017397
0.0172436
0.0170923
0.0169433
0.0167973
0.0166555
0.016519
0.0163896
0.0162695
0.0161611
0.0160676
0.0159926
0.0159402
0.0159152
0.0159231
0.0159704
0.016064
0.0162125
0.0164251
0.016713
0.017089
0.0175685
0.0181694
0.0189138
0.0198283
0.0209457
0.022307
0.0239635
0.0259806
0.028441
0.0314571
0.0351591
0.03979
0.0454523
0.0531121
0.0614108
0.0763101
)
;

boundaryField
{
    inlet
    {
        type            fixedValue;
        value           uniform 0.63;
    }
    outlet
    {
        type            zeroGradient;
    }
    fixedWalls
    {
        lowReCorrection 0;
        type            epsilonWallFunction;
        value           nonuniform List<scalar> 
160
(
0.223501
0.161833
0.121109
0.0944869
0.0764552
0.0640458
0.0554288
0.0494355
0.0452113
0.0420858
0.0395696
0.0373619
0.0353189
0.0333964
0.0315963
0.0299307
0.0284448
0.0271528
0.0260329
0.0250589
0.0242083
0.0234625
0.0228062
0.0222276
0.0217168
0.0212659
0.020868
0.020517
0.0202074
0.0199339
0.0196914
0.0194758
0.0192769
0.0190852
0.0188976
0.0187144
0.0185361
0.0183628
0.0181942
0.0180295
0.017868
0.017709
0.0175521
0.017397
0.0172436
0.0170923
0.0169433
0.0167973
0.0166555
0.016519
0.0163896
0.0162695
0.0161611
0.0160676
0.0159926
0.0159402
0.0159152
0.0159231
0.0159704
0.016064
0.0162125
0.0164251
0.016713
0.017089
0.0175685
0.0181694
0.0189138
0.0198283
0.0209457
0.022307
0.0239635
0.0259806
0.028441
0.0314571
0.0351591
0.03979
0.0454523
0.0531121
0.0614108
0.0763101
0.0135126
0.0111846
0.00819023
0.00480142
0.00122208
0.000122241
9.72839e-05
0.000113488
0.000115624
8.84367e-05
5.28841e-05
3.50377e-05
3.91907e-05
4.41713e-05
5.0213e-05
5.94585e-05
7.24568e-05
8.8887e-05
0.000109056
0.000133855
0.000164461
0.000202265
0.000248806
0.00030567
0.000374336
0.000455984
0.000551339
0.000660582
0.000783332
0.000918716
0.00106549
0.00122218
0.00138721
0.0015591
0.0017366
0.00191895
0.00210609
0.00229896
0.00250004
0.00271421
0.00293815
0.00316578
0.00339765
0.0036347
0.00387734
0.00412548
0.0043787
0.00463634
0.00489756
0.00516142
0.00542694
0.00569311
0.00595892
0.00622332
0.00648314
0.00673788
0.00698739
0.00723205
0.00747433
0.00772424
0.00801225
0.0083253
0.00865209
0.0089876
0.00933106
0.00968353
0.0100471
0.0104248
0.0108204
0.0112385
0.011685
0.0121671
0.0126939
0.0132768
0.0139315
0.0146793
0.0155532
0.0166041
0.0179133
0.0198784
)
;
    }
    frontAndBack
    {
        type            empty;
    }
}


// ************************************************************************* //
