/*--------------------------------*- C++ -*----------------------------------*\
| =========                 |                                                 |
| \\      /  F ield         | OpenFOAM: The Open Source CFD Toolbox           |
|  \\    /   O peration     | Version:  v1912                                 |
|   \\  /    A nd           | Website:  www.openfoam.com                      |
|    \\/     M anipulation  |                                                 |
\*---------------------------------------------------------------------------*/
FoamFile
{
    version     2.0;
    format      ascii;
    class       volScalarField;
    location    "150";
    object      k;
}
// * * * * * * * * * * * * * * * * * * * * * * * * * * * * * * * * * * * * * //

dimensions      [0 2 -2 0 0 0 0];


internalField   nonuniform List<scalar> 
2000
(
0.0162095
0.0147776
0.0124076
0.00897595
0.0037207
0.000826905
0.000731954
0.000835506
0.000870766
0.000749014
0.000546463
0.00042659
0.000471783
0.000523987
0.000584805
0.00067008
0.000781518
0.000913767
0.00106645
0.00124281
0.00144701
0.0016834
0.00195599
0.00226794
0.00262097
0.00301483
0.0034472
0.00391384
0.00440902
0.00492616
0.0054584
0.00599907
0.00654211
0.00708238
0.00761604
0.00814091
0.00865688
0.00916641
0.00967544
0.0101953
0.0107159
0.0112215
0.0117136
0.012194
0.0126633
0.0131207
0.013565
0.0139945
0.0144071
0.0148009
0.0151739
0.0155244
0.0158507
0.0161512
0.0164208
0.0166595
0.0168677
0.0170466
0.0172006
0.0173449
0.0175232
0.0177125
0.0178945
0.0180608
0.0182095
0.0183412
0.0184574
0.0185604
0.018653
0.0187384
0.0188204
0.0189033
0.018992
0.0190927
0.0192132
0.0193642
0.0195626
0.0198342
0.0202195
0.0209675
0.00683769
0.00499943
0.00452686
0.00410483
0.00326495
0.00245427
0.00191242
0.00163551
0.00456166
0.00327912
0.00182426
0.00138361
0.00141301
0.00141944
0.00139791
0.00150104
0.00170425
0.00195959
0.00225579
0.00259511
0.00298197
0.00342221
0.00392302
0.00449245
0.00513909
0.00587135
0.00669651
0.00761975
0.00864341
0.00976552
0.0109792
0.0122725
0.0136291
0.015029
0.0164509
0.0178736
0.019278
0.0206459
0.0219587
0.0231578
0.0242491
0.0252819
0.0262724
0.0272294
0.0281566
0.0290545
0.0299219
0.0307564
0.0315552
0.0323152
0.0330336
0.0337083
0.0343394
0.0349327
0.0354527
0.0359102
0.0363084
0.0366484
0.0369324
0.0371642
0.0373469
0.03748
0.0375659
0.0376069
0.0376061
0.0375675
0.0374962
0.0373981
0.0372796
0.0371477
0.03701
0.0368743
0.0367489
0.0366416
0.0365601
0.0365035
0.0364823
0.0364055
0.0364993
0.0361253
0.00514621
0.00248522
0.00187972
0.00175543
0.00163528
0.00147426
0.00132822
0.00124413
0.00173347
0.00204808
0.0024581
0.00382024
0.00573088
0.00488357
0.0036635
0.00315914
0.00322095
0.00346944
0.00380858
0.00422946
0.00473212
0.00531795
0.0059893
0.00674836
0.00759887
0.00854632
0.0095962
0.0107519
0.0120133
0.0133753
0.0148274
0.0163538
0.0179342
0.0195453
0.0211637
0.0227688
0.0243451
0.025888
0.0273516
0.0287294
0.0300364
0.0312784
0.0324546
0.0335758
0.0346447
0.0356607
0.0366215
0.037524
0.0383648
0.0391408
0.0398488
0.0404866
0.0410524
0.0415449
0.0419602
0.0422989
0.0425622
0.0427519
0.0428704
0.0429209
0.0429075
0.0428356
0.0427116
0.0425415
0.0423314
0.0420882
0.0418195
0.0415331
0.0412375
0.0409415
0.0406542
0.0403845
0.0401408
0.03993
0.0397559
0.0396134
0.0394913
0.0393137
0.0392031
0.0385008
0.00490121
0.00193923
0.0010863
0.000851081
0.000792543
0.000769825
0.00075165
0.00074327
0.000859258
0.00104337
0.00133973
0.00199908
0.00326285
0.00466973
0.00620876
0.00741553
0.0077477
0.00756603
0.00741917
0.0075146
0.00784983
0.00837655
0.00905204
0.00984455
0.0107366
0.0117227
0.012803
0.0139789
0.01525
0.0166139
0.018065
0.0195934
0.0211842
0.0228175
0.0244722
0.0261301
0.0277756
0.02936
0.0308764
0.0323225
0.0336934
0.0349847
0.0361947
0.0373241
0.0383729
0.0393399
0.0402235
0.0410214
0.0417315
0.0423519
0.042881
0.0433181
0.0436631
0.0439169
0.0440808
0.0441574
0.0441503
0.044064
0.0439035
0.0436748
0.0433847
0.0430407
0.0426512
0.0422246
0.0417694
0.0412943
0.0408081
0.0403197
0.039838
0.039372
0.0389305
0.0385218
0.0381534
0.0378308
0.0375564
0.0373241
0.037122
0.0368877
0.0367186
0.0360662
0.00486817
0.00184217
0.000889177
0.000554034
0.000439135
0.000407008
0.000404711
0.000413657
0.000453234
0.000526902
0.000651948
0.000901893
0.00141038
0.00224744
0.00356056
0.00545069
0.00762562
0.00967887
0.011323
0.0124638
0.0132142
0.0137795
0.0143262
0.0149411
0.0156542
0.0164699
0.0173851
0.0183956
0.0194981
0.0206898
0.0219674
0.0233246
0.0247482
0.0262186
0.0277233
0.0292266
0.0306949
0.0321179
0.033483
0.0347801
0.0359993
0.0371318
0.0381713
0.0391136
0.0399559
0.0406962
0.0413329
0.041865
0.042292
0.0426139
0.0428317
0.0429473
0.0429636
0.0428845
0.0427149
0.0424607
0.0421286
0.0417261
0.0412614
0.0407431
0.0401802
0.0395822
0.0389585
0.0383186
0.0376717
0.0370265
0.0363918
0.0357756
0.0351859
0.0346303
0.0341159
0.0336496
0.0332375
0.0328841
0.0325917
0.0323569
0.0321726
0.031992
0.0319043
0.0314669
0.00486377
0.00182805
0.000849453
0.000474231
0.000317513
0.000253169
0.000231609
0.000230705
0.000245619
0.000275908
0.000326225
0.000416732
0.000591598
0.000903548
0.00144183
0.00234152
0.00367192
0.00545471
0.00764863
0.0101101
0.012618
0.0149502
0.0169622
0.0186203
0.0199779
0.0211267
0.0221557
0.0231332
0.0241046
0.0250982
0.0261303
0.0272067
0.0283176
0.0294446
0.0305616
0.0316627
0.0327383
0.0337774
0.0347676
0.0356964
0.0365524
0.0373251
0.038006
0.0385886
0.0390684
0.0394425
0.0397094
0.0398689
0.0399219
0.0398709
0.0397192
0.0394715
0.0391338
0.0387129
0.0382167
0.0376541
0.0370343
0.0363671
0.0356626
0.0349308
0.0341817
0.033425
0.03267
0.0319253
0.0311991
0.0304985
0.0298305
0.0292009
0.0286154
0.0280791
0.0275967
0.0271728
0.0268116
0.0265167
0.0262905
0.0261324
0.0260414
0.0259841
0.0260448
0.0258816
0.00486318
0.00182655
0.000843156
0.000456552
0.000283052
0.00019966
0.000159923
0.000143593
0.00014191
0.000151226
0.00017105
0.000205771
0.00026766
0.000375488
0.000560532
0.000875013
0.00136391
0.0020779
0.00307378
0.00440023
0.00608323
0.00811034
0.0104197
0.0129025
0.0154219
0.0178433
0.0200645
0.0220326
0.0237427
0.0252248
0.0265254
0.0276894
0.0287154
0.0296267
0.030454
0.0312133
0.031911
0.0325484
0.033123
0.0336303
0.0340646
0.0344196
0.0346895
0.0348692
0.0349553
0.0349455
0.0348396
0.0346387
0.0343457
0.0339653
0.0335031
0.0329663
0.0323631
0.0317027
0.0309946
0.0302491
0.0294763
0.0286866
0.0278898
0.0270954
0.0263121
0.0255481
0.0248106
0.0241058
0.0234394
0.0228159
0.0222393
0.0217129
0.0212396
0.0208218
0.0204619
0.0201623
0.0199255
0.0197542
0.019651
0.0196175
0.0196575
0.0197495
0.0199712
0.0200767
0.00486311
0.00182658
0.000842591
0.00045336
0.000274736
0.000183902
0.000135043
0.000108741
9.60509e-05
9.26855e-05
9.67929e-05
0.000108593
0.000131016
0.000169768
0.000234488
0.000341059
0.000502549
0.000735235
0.00106051
0.00150338
0.00209155
0.00285344
0.00381505
0.00499557
0.00640208
0.00802404
0.00982974
0.0117669
0.0137682
0.015761
0.0176781
0.0194665
0.0211242
0.0225402
0.0236986
0.0246303
0.0253719
0.0259567
0.0264102
0.0267502
0.0269873
0.0271274
0.0271737
0.0271281
0.026993
0.026771
0.0264663
0.0260839
0.0256303
0.0251126
0.024539
0.0239185
0.0232603
0.0225739
0.0218688
0.0211544
0.0204395
0.0197325
0.019041
0.0183718
0.0177308
0.0171232
0.016553
0.0160239
0.0155384
0.0150987
0.0147065
0.0143628
0.0140689
0.0138256
0.0136339
0.0134951
0.0134109
0.0133836
0.0134163
0.0135121
0.0136785
0.0139036
0.0142568
0.0145789
0.00486309
0.00182671
0.000842733
0.000452986
0.000273016
0.000179807
0.000127475
9.66745e-05
7.84361e-05
6.83142e-05
6.40732e-05
6.48234e-05
7.08658e-05
8.36999e-05
0.000106264
0.00014345
0.000198658
0.000275808
0.00037989
0.000516577
0.000692327
0.000914405
0.00119081
0.00153008
0.00194092
0.00243144
0.00300814
0.00367459
0.00443025
0.00526943
0.00618084
0.00714789
0.0081543
0.00926855
0.010403
0.0114988
0.0125095
0.0134016
0.014155
0.0147618
0.0152232
0.0155469
0.015744
0.0158269
0.0158083
0.0157004
0.0155148
0.0152622
0.0149528
0.0145963
0.0142018
0.0137783
0.0133341
0.0128772
0.012415
0.0119542
0.011501
0.0110607
0.010638
0.0102368
0.00986029
0.00951129
0.00919189
0.00890381
0.00864842
0.00842681
0.0082399
0.00808851
0.00797347
0.00789569
0.00785627
0.00785668
0.00789886
0.00798543
0.00812019
0.00830748
0.00855666
0.00886386
0.00928791
0.00974265
0.00486309
0.00182676
0.000842846
0.00045303
0.000272742
0.000178858
0.000125383
9.28973e-05
7.23572e-05
5.92204e-05
5.10896e-05
4.67163e-05
4.56024e-05
4.78573e-05
5.42027e-05
6.60818e-05
8.44288e-05
0.000110243
0.000144707
0.000188957
0.000244043
0.000310915
0.00039041
0.000483234
0.000589919
0.000710731
0.000845512
0.0009935
0.00115312
0.00132181
0.00149589
0.00167055
0.00184023
0.00200247
0.00221032
0.00246366
0.00275756
0.00308285
0.00342717
0.00377641
0.00411622
0.00443349
0.00471731
0.00495961
0.00515533
0.00530227
0.00540071
0.00545292
0.00546267
0.00543469
0.00537427
0.00528692
0.00517808
0.00505297
0.00491643
0.00477288
0.00462625
0.00448007
0.00433738
0.00420087
0.00407284
0.00395532
0.00385007
0.00375866
0.00368252
0.00362299
0.00358138
0.00355904
0.0035574
0.00357806
0.00362285
0.00369394
0.00379396
0.00392621
0.00409506
0.00430573
0.00456797
0.00488412
0.00530015
0.00578606
0.00486309
0.00182672
0.000842848
0.000453059
0.000272721
0.000178664
0.000124849
9.17995e-05
7.04129e-05
5.60846e-05
4.6338e-05
3.97922e-05
3.56915e-05
3.36902e-05
3.37646e-05
3.61987e-05
4.11788e-05
4.88796e-05
5.95421e-05
7.33836e-05
9.05591e-05
0.000111132
0.000135052
0.000162138
0.00019206
0.000224318
0.000258206
0.000292778
0.000326824
0.000358847
0.000387081
0.000409523
0.000424042
0.000428613
0.000430734
0.000435746
0.000444838
0.000459151
0.000479633
0.000506877
0.000540994
0.000581546
0.000627552
0.000677564
0.00072981
0.000782356
0.00083328
0.000880824
0.000923517
0.000960247
0.000990303
0.00101337
0.0010295
0.00103907
0.00104272
0.00104127
0.0010357
0.00102705
0.0010164
0.00100485
0.000993446
0.000983234
0.000975212
0.000970363
0.000969663
0.000974119
0.000984794
0.00100286
0.00102965
0.00106672
0.00111595
0.00117961
0.00126054
0.00136228
0.00148945
0.00164778
0.00184646
0.00209234
0.00241801
0.0028294
0.00486309
0.00182661
0.000842739
0.000453005
0.000272694
0.000178614
0.000124714
9.14949e-05
6.98249e-05
5.50659e-05
4.47018e-05
3.72978e-05
3.20113e-05
2.83502e-05
2.60535e-05
2.50337e-05
2.52632e-05
2.66709e-05
2.92217e-05
3.28944e-05
3.76583e-05
4.34581e-05
5.02031e-05
5.77597e-05
6.59466e-05
7.45298e-05
8.32185e-05
9.16638e-05
9.9464e-05
0.000106177
0.000111345
0.000114535
0.000115385
0.000113678
0.000111049
0.000108142
0.000105002
0.000101688
9.82715e-05
9.48344e-05
9.14667e-05
8.82628e-05
8.53163e-05
8.27135e-05
8.05266e-05
7.88073e-05
7.75821e-05
7.68499e-05
7.65829e-05
7.67306e-05
7.72264e-05
7.79958e-05
7.89653e-05
8.00709e-05
8.12659e-05
8.25259e-05
8.38532e-05
8.5278e-05
8.68593e-05
8.86833e-05
9.08619e-05
9.35304e-05
9.68458e-05
0.000100987
0.000106153
0.000112574
0.000120513
0.000130286
0.000142285
0.000157017
0.000175159
0.00019764
0.000225767
0.000261403
0.000307276
0.000367325
0.000447896
0.000556967
0.000714854
0.000942758
0.00486309
0.00182642
0.000842535
0.000452871
0.000272614
0.000178559
0.000124656
9.13985e-05
6.96462e-05
5.47459e-05
4.41637e-05
3.64424e-05
3.07071e-05
2.64178e-05
2.32388e-05
2.09691e-05
1.95298e-05
1.87864e-05
1.86322e-05
1.89906e-05
1.97981e-05
2.09941e-05
2.25141e-05
2.42861e-05
2.62284e-05
2.82487e-05
3.02444e-05
3.21039e-05
3.37108e-05
3.49495e-05
3.57147e-05
3.59218e-05
3.55196e-05
3.4496e-05
3.3328e-05
3.21e-05
3.08196e-05
2.94956e-05
2.81377e-05
2.67567e-05
2.53639e-05
2.39704e-05
2.25874e-05
2.12256e-05
1.98954e-05
1.86062e-05
1.73674e-05
1.61879e-05
1.50771e-05
1.40459e-05
1.31078e-05
1.22808e-05
1.15892e-05
1.10657e-05
1.0754e-05
1.07103e-05
1.10044e-05
1.17202e-05
1.29547e-05
1.48153e-05
1.74167e-05
2.08756e-05
2.53061e-05
3.08137e-05
3.74916e-05
4.54171e-05
5.46507e-05
6.5238e-05
7.72146e-05
9.06137e-05
0.000105478
0.000121875
0.000139917
0.000159786
0.000181767
0.000206277
0.000234059
0.00026567
0.000304989
0.000352349
0.00486309
0.00182615
0.000842246
0.000452669
0.000272481
0.00017847
0.00012459
9.13391e-05
6.95737e-05
5.46361e-05
4.39859e-05
3.61568e-05
3.0262e-05
2.57448e-05
2.22458e-05
1.95292e-05
1.75061e-05
1.60286e-05
1.49737e-05
1.42548e-05
1.38069e-05
1.35776e-05
1.35214e-05
1.35966e-05
1.37631e-05
1.39816e-05
1.42133e-05
1.44202e-05
1.45664e-05
1.46193e-05
1.45526e-05
1.43479e-05
1.39971e-05
1.34991e-05
1.29978e-05
1.24937e-05
1.1988e-05
1.14823e-05
1.09786e-05
1.04789e-05
9.98556e-06
9.50093e-06
9.02761e-06
8.56863e-06
8.12784e-06
7.71073e-06
7.32559e-06
6.98523e-06
6.70926e-06
6.52706e-06
6.48122e-06
6.6313e-06
7.0576e-06
7.8644e-06
9.18219e-06
1.11683e-05
1.40056e-05
1.78985e-05
2.30674e-05
2.97405e-05
3.81449e-05
4.84969e-05
6.09935e-05
7.5806e-05
9.3076e-05
0.000112916
0.000135411
0.000160629
0.000188626
0.000219458
0.000253185
0.000289884
0.000329637
0.000372517
0.000418537
0.000467522
0.000518966
0.000570747
0.000621464
0.000655968
0.00486309
0.00182578
0.00084188
0.00045241
0.000272303
0.000178345
0.000124501
9.12717e-05
6.95166e-05
5.45778e-05
4.39133e-05
3.60538e-05
3.01084e-05
2.55145e-05
2.19049e-05
1.90333e-05
1.68096e-05
1.50838e-05
1.373e-05
1.26608e-05
1.18131e-05
1.11394e-05
1.06027e-05
1.01727e-05
9.82395e-06
9.53454e-06
9.28515e-06
9.05876e-06
8.84059e-06
8.61824e-06
8.38204e-06
8.12538e-06
7.84485e-06
7.54392e-06
7.25518e-06
6.97732e-06
6.70943e-06
6.45092e-06
6.2015e-06
5.96127e-06
5.73097e-06
5.51251e-06
5.30989e-06
5.13071e-06
4.98848e-06
4.90581e-06
4.91866e-06
5.08162e-06
5.4739e-06
6.20589e-06
7.42543e-06
9.32319e-06
1.21362e-05
1.61488e-05
2.169e-05
2.91278e-05
3.88591e-05
5.12978e-05
6.686e-05
8.59496e-05
0.000108945
0.000136189
0.000167978
0.000204558
0.000246121
0.000292794
0.000344632
0.000401611
0.00046361
0.0005304
0.000601631
0.000676828
0.000755383
0.000836549
0.000919414
0.0010028
0.00108522
0.00116314
0.00123487
0.00127939
0.00486309
0.00182532
0.000841447
0.000452103
0.000272087
0.00017819
0.000124388
9.11873e-05
6.94511e-05
5.45236e-05
4.38634e-05
3.60009e-05
3.0044e-05
2.54285e-05
2.17847e-05
1.8863e-05
1.65736e-05
1.47665e-05
1.33156e-05
1.21341e-05
1.11601e-05
1.03486e-05
9.66539e-06
9.0843e-06
8.58463e-06
8.14973e-06
7.766e-06
7.42224e-06
7.1092e-06
6.81939e-06
6.54685e-06
6.2871e-06
6.03702e-06
5.79739e-06
5.57395e-06
5.36493e-06
5.16904e-06
4.9858e-06
4.81615e-06
4.66376e-06
4.53715e-06
4.45309e-06
4.44132e-06
4.55089e-06
4.8582e-06
5.47626e-06
6.56491e-06
8.34098e-06
1.10875e-05
1.51602e-05
2.09912e-05
2.90873e-05
4.00233e-05
5.44301e-05
7.29781e-05
9.63571e-05
0.000125253
0.000160328
0.000202189
0.00025137
0.00030829
0.000373222
0.00044624
0.000527173
0.000615559
0.000710615
0.000811238
0.000916036
0.0010234
0.0011316
0.00123892
0.00134375
0.0014447
0.00154068
0.00163088
0.00171455
0.00179143
0.00185831
0.00191759
0.00194572
0.00486309
0.00182477
0.000840956
0.000451757
0.00027184
0.000178011
0.000124255
9.10867e-05
6.93731e-05
5.44614e-05
4.3812e-05
3.5956e-05
3.00013e-05
2.53836e-05
2.17324e-05
1.87975e-05
1.64891e-05
1.46575e-05
1.31769e-05
1.1961e-05
1.09486e-05
1.00954e-05
9.36853e-06
8.743e-06
8.19965e-06
7.72342e-06
7.30235e-06
6.92683e-06
6.58911e-06
6.28286e-06
6.00301e-06
5.74547e-06
5.50699e-06
5.28648e-06
5.0838e-06
4.89923e-06
4.73722e-06
4.61016e-06
4.54412e-06
4.58703e-06
4.81923e-06
5.3662e-06
6.41302e-06
8.21946e-06
1.11342e-05
1.56069e-05
2.21956e-05
3.15689e-05
4.45006e-05
6.18571e-05
8.4577e-05
0.000113644
0.000150054
0.000194777
0.00024871
0.00031262
0.000387082
0.000472387
0.000568465
0.000674795
0.000790352
0.000913595
0.00104252
0.00117477
0.00130782
0.00143915
0.00156646
0.00168781
0.00180173
0.00190722
0.00200377
0.00209122
0.00216979
0.00223985
0.00230199
0.00235652
0.00240464
0.00244285
0.00247816
0.00247783
0.0048631
0.00182412
0.000840418
0.000451378
0.000271568
0.000177811
0.000124106
9.09723e-05
6.92835e-05
5.43898e-05
4.37537e-05
3.59074e-05
2.99596e-05
2.53461e-05
2.16969e-05
1.87612e-05
1.64496e-05
1.46126e-05
1.31247e-05
1.18998e-05
1.08769e-05
1.00122e-05
9.27321e-06
8.63541e-06
8.08009e-06
7.59267e-06
7.16169e-06
6.77798e-06
6.43416e-06
6.12426e-06
5.84339e-06
5.58758e-06
5.35451e-06
5.15348e-06
5.01051e-06
4.9829e-06
5.17597e-06
5.76266e-06
7.00476e-06
9.27384e-06
1.30695e-05
1.90317e-05
2.79466e-05
4.07414e-05
5.84698e-05
8.2286e-05
0.000113408
0.000153071
0.000202476
0.000262719
0.000334721
0.000419135
0.000516249
0.000625883
0.000747308
0.000879195
0.00101963
0.00116619
0.00131614
0.0014666
0.00161482
0.00175834
0.00189517
0.00202382
0.00214329
0.00225299
0.00235269
0.00244236
0.00252217
0.00259241
0.00265346
0.00270581
0.00275005
0.00278681
0.00281693
0.00284075
0.00286026
0.00287115
0.00288482
0.0028592
0.0048631
0.00182339
0.000839843
0.000450974
0.000271276
0.000177596
0.000123943
9.08469e-05
6.91843e-05
5.431e-05
4.36884e-05
3.58531e-05
2.99138e-05
2.53069e-05
2.16625e-05
1.87303e-05
1.64209e-05
1.45849e-05
1.30971e-05
1.18715e-05
1.08476e-05
9.98174e-06
9.24174e-06
8.60363e-06
8.04929e-06
7.56508e-06
7.14086e-06
6.76958e-06
6.44733e-06
6.17394e-06
5.95448e-06
5.80441e-06
6.01011e-06
7.0006e-06
9.3013e-06
1.36286e-05
2.08955e-05
3.22e-05
4.87952e-05
7.20439e-05
0.000103359
0.000144134
0.000195667
0.000259082
0.000335247
0.000424687
0.000527505
0.000643306
0.00077115
0.000909536
0.00105644
0.00120945
0.00136586
0.00152296
0.00167821
0.0018294
0.0019748
0.00211318
0.00224372
0.00236599
0.00247975
0.00258487
0.00268128
0.00276887
0.00284757
0.00291731
0.0029781
0.00303003
0.00307332
0.00310831
0.00313545
0.00315533
0.00316862
0.00317602
0.00317851
0.0031764
0.00317222
0.00316098
0.00315764
0.0031131
0.0048631
0.00182257
0.000839242
0.000450551
0.000270969
0.000177369
0.000123771
9.07124e-05
6.90773e-05
5.42235e-05
4.3618e-05
3.57961e-05
2.98688e-05
2.52741e-05
2.16443e-05
1.87327e-05
1.64537e-05
1.46645e-05
1.32502e-05
1.2142e-05
1.1306e-05
1.07403e-05
1.04758e-05
1.05814e-05
1.11719e-05
1.24191e-05
1.45666e-05
1.79474e-05
2.30058e-05
3.03238e-05
4.0652e-05
5.57075e-05
7.92881e-05
0.000112819
0.000157786
0.000215408
0.00028656
0.000371691
0.000470755
0.000583185
0.000707884
0.000843256
0.000987273
0.00113758
0.00129164
0.0014469
0.00160096
0.00175176
0.00189769
0.00203763
0.00217099
0.00229762
0.00241764
0.00253135
0.00263908
0.00274104
0.00283732
0.00292785
0.00301238
0.00309061
0.00316214
0.00322662
0.00328371
0.00333316
0.00337483
0.00340869
0.00343482
0.00345345
0.00346492
0.00346969
0.00346831
0.00346142
0.00344976
0.00343403
0.00341524
0.00339361
0.00337197
0.00334499
0.00332958
0.00327268
0.0048631
0.00182169
0.000838627
0.000450117
0.00027066
0.000177151
0.000123622
9.06265e-05
6.90644e-05
5.43172e-05
4.38896e-05
3.63837e-05
3.10306e-05
2.748e-05
2.57214e-05
2.60777e-05
2.89706e-05
3.48467e-05
4.43007e-05
5.8033e-05
7.68236e-05
0.000101508
0.000132958
0.000172056
0.000219674
0.000276654
0.000343786
0.000421787
0.000511281
0.000612768
0.000726577
0.000852506
0.000990705
0.00113797
0.00129095
0.00144621
0.00160052
0.00175107
0.00189563
0.00203263
0.00216122
0.0022812
0.00239294
0.00249722
0.00259504
0.00268751
0.00277565
0.00286029
0.00294205
0.00302129
0.00309813
0.00317249
0.00324416
0.0033128
0.00337802
0.00343939
0.00349646
0.00354876
0.00359584
0.00363728
0.0036727
0.00370181
0.00372438
0.00374033
0.00374968
0.00375256
0.00374926
0.00374016
0.00372574
0.00370656
0.00368325
0.00365647
0.00362695
0.00359534
0.00356261
0.00352886
0.00349698
0.00346173
0.00343966
0.00337772
0.00486329
0.00182113
0.000838551
0.00045046
0.000271562
0.000178979
0.000127171
9.75091e-05
8.22868e-05
7.89612e-05
8.76825e-05
0.000109977
0.000147966
0.000203913
0.000279947
0.00037783
0.000492707
0.000621107
0.000760837
0.000909694
0.00106548
0.00122602
0.00138914
0.00155274
0.00171482
0.00187356
0.00202738
0.002175
0.00231546
0.0024482
0.00257298
0.00268902
0.00279333
0.00288671
0.00296998
0.0030445
0.00311192
0.00317392
0.00323199
0.00328728
0.00334064
0.00339258
0.00344342
0.00349331
0.00354229
0.00359036
0.00363744
0.00368346
0.00372826
0.00377165
0.00381338
0.00385311
0.00389045
0.00392496
0.00395617
0.00398358
0.00400673
0.0040252
0.00403864
0.00404678
0.00404946
0.00404662
0.00403834
0.00402479
0.00400628
0.0039832
0.00395603
0.00392533
0.00389169
0.00385574
0.00381813
0.00377949
0.00374052
0.00370177
0.00366418
0.00362775
0.00359524
0.00356231
0.00354121
0.00348715
0.00487718
0.00184534
0.000876192
0.000508248
0.000362758
0.000325584
0.00036247
0.000465206
0.000630653
0.000851773
0.00111584
0.00140688
0.00170897
0.00200853
0.002295
0.00256063
0.00278963
0.0029815
0.00314109
0.00327347
0.00338355
0.00347581
0.0035542
0.00362209
0.00368228
0.00373696
0.00378781
0.00383603
0.00388244
0.00392752
0.0039716
0.0040148
0.00405377
0.00408728
0.00411565
0.00414011
0.00416207
0.00418268
0.00420279
0.00422296
0.00424354
0.00426466
0.00428631
0.00430833
0.00433046
0.00435235
0.00437357
0.00439367
0.00441216
0.00442852
0.00444226
0.00445287
0.0044599
0.00446291
0.00446155
0.00445554
0.00444468
0.00442889
0.00440821
0.0043828
0.00435293
0.00431898
0.00428145
0.0042409
0.00419796
0.00415332
0.00410767
0.00406174
0.00401624
0.00397187
0.00392932
0.00388926
0.0038524
0.00381935
0.00379113
0.00376795
0.00375244
0.00374235
0.00373846
0.00373132
0.00556865
0.00287827
0.00213723
0.00201031
0.00218343
0.0025444
0.00303188
0.00357482
0.00409186
0.00451757
0.00482258
0.00501261
0.005114
0.00515821
0.00517192
0.00517348
0.00516718
0.00515949
0.00515337
0.00514861
0.00514418
0.00513926
0.00513346
0.0051268
0.00511958
0.0051122
0.00510511
0.00509868
0.00509319
0.00508878
0.00508563
0.00508325
0.00508178
0.00508364
0.0050905
0.00510233
0.00511825
0.00513706
0.00515759
0.00517876
0.00519975
0.0052198
0.00523815
0.00525408
0.00526689
0.00527594
0.00528062
0.00528034
0.0052746
0.00526295
0.00524507
0.0052207
0.00518974
0.00515224
0.00510836
0.00505845
0.00500299
0.00494264
0.00487815
0.00481042
0.00474045
0.00466926
0.00459797
0.00452769
0.00445952
0.00439449
0.00433369
0.00427822
0.00422911
0.00418738
0.00415405
0.00413018
0.00411697
0.00411551
0.00412768
0.0041534
0.00419846
0.00425416
0.00433474
0.00450468
0.0142815
0.0119092
0.010145
0.00887963
0.00795816
0.00729419
0.00682805
0.00651675
0.00632033
0.00619821
0.00611465
0.00604481
0.00597582
0.00590387
0.00583
0.00575669
0.00568847
0.00562673
0.00557126
0.00552142
0.00547643
0.00543553
0.00539813
0.00536373
0.00533197
0.00530253
0.00527512
0.00524944
0.00522514
0.00520184
0.00517907
0.0051565
0.00513264
0.00510603
0.00507637
0.00504387
0.00500883
0.00497145
0.00493181
0.00488994
0.00484585
0.00479956
0.00475112
0.0047006
0.00464813
0.00459383
0.0045379
0.00448056
0.00442207
0.00436275
0.00430298
0.00424319
0.00418387
0.00412556
0.00406888
0.0040145
0.00396316
0.00391564
0.00387279
0.00383551
0.00380476
0.00378155
0.00376696
0.00376214
0.00376832
0.00378686
0.00381921
0.00386701
0.00393211
0.00401665
0.00412305
0.00425422
0.00441347
0.0046053
0.00483357
0.00510919
0.00542697
0.00584398
0.00623913
0.00697678
)
;

boundaryField
{
    inlet
    {
        type            fixedValue;
        value           uniform 0.017;
    }
    outlet
    {
        type            zeroGradient;
    }
    fixedWalls
    {
        type            kqRWallFunction;
        value           nonuniform List<scalar> 
160
(
0.0142815
0.0119092
0.010145
0.00887963
0.00795816
0.00729419
0.00682805
0.00651675
0.00632033
0.00619821
0.00611465
0.00604481
0.00597582
0.00590387
0.00583
0.00575669
0.00568847
0.00562673
0.00557126
0.00552142
0.00547643
0.00543553
0.00539813
0.00536373
0.00533197
0.00530253
0.00527512
0.00524944
0.00522514
0.00520184
0.00517907
0.0051565
0.00513264
0.00510603
0.00507637
0.00504387
0.00500883
0.00497145
0.00493181
0.00488994
0.00484585
0.00479956
0.00475112
0.0047006
0.00464813
0.00459383
0.0045379
0.00448056
0.00442207
0.00436275
0.00430298
0.00424319
0.00418387
0.00412556
0.00406888
0.0040145
0.00396316
0.00391564
0.00387279
0.00383551
0.00380476
0.00378155
0.00376696
0.00376214
0.00376832
0.00378686
0.00381921
0.00386701
0.00393211
0.00401665
0.00412305
0.00425422
0.00441347
0.0046053
0.00483357
0.00510919
0.00542697
0.00584398
0.00623913
0.00697678
0.0162095
0.0147776
0.0124076
0.00897595
0.0037207
0.000826905
0.000731954
0.000835506
0.000870766
0.000749014
0.000546463
0.00042659
0.000471783
0.000523987
0.000584805
0.00067008
0.000781518
0.000913767
0.00106645
0.00124281
0.00144701
0.0016834
0.00195599
0.00226794
0.00262097
0.00301483
0.0034472
0.00391384
0.00440902
0.00492616
0.0054584
0.00599907
0.00654211
0.00708238
0.00761604
0.00814091
0.00865688
0.00916641
0.00967544
0.0101953
0.0107159
0.0112215
0.0117136
0.012194
0.0126633
0.0131207
0.013565
0.0139945
0.0144071
0.0148009
0.0151739
0.0155244
0.0158507
0.0161512
0.0164208
0.0166595
0.0168677
0.0170466
0.0172006
0.0173449
0.0175232
0.0177125
0.0178945
0.0180608
0.0182095
0.0183412
0.0184574
0.0185604
0.018653
0.0187384
0.0188204
0.0189033
0.018992
0.0190927
0.0192132
0.0193642
0.0195626
0.0198342
0.0202195
0.0209675
)
;
    }
    frontAndBack
    {
        type            empty;
    }
}


// ************************************************************************* //
