/*--------------------------------*- C++ -*----------------------------------*\
| =========                 |                                                 |
| \\      /  F ield         | OpenFOAM: The Open Source CFD Toolbox           |
|  \\    /   O peration     | Version:  v1912                                 |
|   \\  /    A nd           | Website:  www.openfoam.com                      |
|    \\/     M anipulation  |                                                 |
\*---------------------------------------------------------------------------*/
FoamFile
{
    version     2.0;
    format      ascii;
    class       volScalarField;
    location    "150";
    object      nut;
}
// * * * * * * * * * * * * * * * * * * * * * * * * * * * * * * * * * * * * * //

dimensions      [0 2 -1 0 0 0 0];


internalField   nonuniform List<scalar> 
2000
(
0.00175001
0.00175725
0.00169169
0.0015102
0.00101951
0.000503429
0.000495643
0.000553597
0.000590197
0.000570939
0.000508204
0.000467442
0.000511145
0.000559428
0.000612982
0.000679646
0.00075865
0.000845425
0.000938582
0.00103852
0.00114584
0.00126095
0.00138394
0.00151445
0.0016516
0.00179399
0.0019398
0.00208699
0.00223347
0.00237727
0.00251665
0.00265018
0.00277674
0.00289553
0.00300608
0.00310832
0.0032025
0.00328934
0.00337006
0.00344666
0.00351741
0.00357987
0.00363452
0.00368187
0.00372221
0.00375564
0.00378215
0.00380173
0.00381431
0.00381987
0.00381842
0.00380999
0.00379465
0.0037725
0.00374323
0.00370718
0.0036647
0.00361622
0.0035625
0.00350533
0.00344916
0.00339159
0.00333089
0.00326643
0.00319823
0.00312654
0.00305169
0.00297404
0.00289398
0.0028119
0.00272817
0.00264319
0.00255735
0.00247105
0.00238475
0.00229897
0.00221449
0.00213234
0.00205403
0.00199046
3.44185e-05
5.60395e-05
9.95529e-05
0.000148336
0.000162356
0.000155711
0.000159394
0.000202342
0.00127516
0.00139212
0.000974606
0.000825767
0.00107507
0.0013584
0.00158694
0.00186429
0.00220373
0.00257642
0.00295926
0.00334714
0.00374144
0.00414542
0.00456378
0.00500317
0.00547231
0.00598104
0.00653888
0.00715352
0.00782965
0.00856722
0.00936086
0.0102001
0.0110698
0.0119516
0.0128251
0.0136696
0.0144657
0.0151952
0.0158405
0.0163477
0.0167326
0.0170575
0.0173427
0.0175967
0.0178237
0.0180256
0.0182034
0.0183577
0.0184885
0.0185958
0.0186792
0.0187386
0.0187728
0.0187779
0.0187614
0.018721
0.0186567
0.0185686
0.0184569
0.0183208
0.0181589
0.0179722
0.0177626
0.0175319
0.0172817
0.0170136
0.0167291
0.0164299
0.0161177
0.0157941
0.015461
0.0151202
0.0147733
0.014422
0.0140677
0.0137103
0.0133511
0.0129771
0.0126332
0.0123699
2.12863e-05
1.81626e-05
2.5132e-05
4.00232e-05
5.55751e-05
6.79001e-05
7.91741e-05
9.44069e-05
0.000194199
0.000283887
0.000409966
0.000859002
0.0018703
0.00219216
0.00194828
0.00191063
0.00222515
0.0026977
0.00322175
0.00377811
0.00437269
0.00500785
0.0056811
0.00639024
0.00713586
0.00792124
0.00875089
0.00962865
0.0105558
0.0115292
0.0125405
0.0135758
0.0146163
0.0156388
0.0166181
0.0175297
0.0183517
0.019067
0.0196766
0.0201926
0.0206338
0.021017
0.021353
0.0216493
0.0219103
0.0221385
0.0223355
0.0225022
0.0226393
0.0227473
0.0228267
0.0228777
0.0229006
0.0228958
0.0228641
0.0228063
0.0227232
0.022616
0.0224853
0.0223322
0.0221576
0.0219628
0.0217495
0.0215192
0.0212735
0.021014
0.0207423
0.0204602
0.0201694
0.0198716
0.0195684
0.0192615
0.0189522
0.0186413
0.0183287
0.0180127
0.0176897
0.017347
0.0170116
0.0166329
1.97876e-05
1.26288e-05
1.14641e-05
1.46595e-05
2.10206e-05
2.89078e-05
3.74802e-05
4.728e-05
7.2207e-05
0.000110101
0.000169022
0.000298831
0.000578365
0.000938073
0.00141813
0.00200878
0.0025357
0.00293235
0.00327774
0.00367008
0.00416073
0.00475385
0.00543063
0.00617108
0.00696318
0.0078016
0.00868347
0.00960573
0.010564
0.0115523
0.0125621
0.013582
0.014596
0.0155828
0.0165138
0.0173629
0.0181049
0.0187696
0.019365
0.0198963
0.0203687
0.0207871
0.0211559
0.0214795
0.0217609
0.0220025
0.0222061
0.0223731
0.0225047
0.0226019
0.0226658
0.0226976
0.0226984
0.0226695
0.0226124
0.0225285
0.0224197
0.0222878
0.0221347
0.0219622
0.0217724
0.0215675
0.0213497
0.021121
0.0208837
0.0206396
0.0203907
0.0201389
0.019886
0.0196336
0.0193833
0.0191364
0.0188937
0.0186554
0.0184209
0.0181872
0.0179495
0.0176945
0.0174406
0.0171042
1.95963e-05
1.17281e-05
8.64732e-06
8.13717e-06
9.64846e-06
1.28839e-05
1.74846e-05
2.32478e-05
3.28181e-05
4.80626e-05
7.25555e-05
0.000119632
0.000217628
0.000383738
0.000651167
0.00105794
0.00158008
0.00217108
0.00278606
0.00338854
0.00396803
0.00453817
0.00511986
0.00573
0.00637925
0.00707281
0.00781135
0.00859215
0.00941028
0.0102596
0.0111326
0.0120199
0.0129062
0.0137692
0.0145641
0.015296
0.0159815
0.0166183
0.0172049
0.017741
0.0182264
0.0186615
0.0190471
0.0193846
0.0196756
0.0199216
0.0201242
0.0202849
0.0204052
0.0204867
0.0205311
0.0205402
0.0205159
0.0204606
0.0203764
0.0202659
0.0201316
0.0199763
0.0198027
0.0196136
0.0194118
0.0192002
0.0189815
0.0187584
0.0185333
0.0183086
0.0180865
0.0178689
0.0176577
0.0174543
0.0172603
0.0170768
0.0169045
0.0167435
0.0165933
0.0164512
0.0163134
0.0161679
0.0160309
0.0158136
1.95711e-05
1.15909e-05
8.09471e-06
6.55336e-06
6.23744e-06
6.97375e-06
8.74086e-06
1.15254e-05
1.58434e-05
2.24911e-05
3.28707e-05
5.0945e-05
8.58704e-05
0.000149124
0.000258713
0.000442491
0.000717573
0.00109516
0.00157826
0.002154
0.00279514
0.00346855
0.00414639
0.00481371
0.0054686
0.00611685
0.00676606
0.00742234
0.00808943
0.00876899
0.00946075
0.0101611
0.0108519
0.011513
0.0121529
0.0127691
0.0133575
0.0139145
0.0144364
0.01492
0.0153629
0.0157629
0.0161187
0.0164296
0.0166954
0.0169166
0.0170938
0.0172284
0.0173217
0.0173754
0.0173916
0.0173726
0.0173209
0.0172393
0.0171308
0.0169985
0.0168456
0.0166756
0.0164917
0.0162973
0.0160957
0.0158901
0.0156834
0.0154784
0.0152778
0.015084
0.0148989
0.0147244
0.0145623
0.0144138
0.0142802
0.0141624
0.0140612
0.0139769
0.0139092
0.0138568
0.0138176
0.013782
0.0137671
0.013693
1.95678e-05
1.1573e-05
7.99812e-06
6.20079e-06
5.3191e-06
5.07745e-06
5.42565e-06
6.40333e-06
8.18125e-06
1.10687e-05
1.56001e-05
2.30213e-05
3.62088e-05
5.97425e-05
0.000100768
0.000170598
0.000278765
0.000436342
0.000656457
0.000951631
0.00133102
0.00179716
0.00234348
0.00295429
0.00360753
0.0042796
0.00495045
0.00560687
0.00624312
0.00685917
0.00745784
0.00804133
0.00860136
0.00913921
0.0096555
0.0101494
0.0106195
0.011064
0.0114809
0.011868
0.0122232
0.0125441
0.0128288
0.0130756
0.0132835
0.013452
0.0135813
0.013672
0.0137254
0.0137432
0.0137274
0.0136805
0.0136052
0.0135047
0.0133822
0.013241
0.0130848
0.0129169
0.0127409
0.0125601
0.0123778
0.0121971
0.0120207
0.0118514
0.0116913
0.0115425
0.0114068
0.0112858
0.0111808
0.0110928
0.0110229
0.0109719
0.0109404
0.010929
0.0109381
0.0109674
0.0110168
0.0110797
0.0111746
0.0112386
1.95674e-05
1.15716e-05
7.98479e-06
6.13059e-06
5.0933e-06
4.53147e-06
4.32862e-06
4.47123e-06
5.01861e-06
6.10128e-06
7.94523e-06
1.09921e-05
1.61834e-05
2.51885e-05
4.07003e-05
6.6855e-05
0.00010689
0.000164609
0.000245094
0.000354483
0.000499829
0.000688695
0.00092846
0.00122532
0.00158297
0.00200122
0.00247496
0.00299411
0.00354475
0.00411106
0.00467768
0.00523187
0.00577574
0.00628303
0.00674718
0.00717202
0.00756224
0.00792154
0.008252
0.00855414
0.00882738
0.00907058
0.0092825
0.00946213
0.00960889
0.00972268
0.00980393
0.00985354
0.00987289
0.00986373
0.0098282
0.00976875
0.00968807
0.0095891
0.00947489
0.00934859
0.00921339
0.00907241
0.00892871
0.00878519
0.00864456
0.00850936
0.00838188
0.00826419
0.00815813
0.00806532
0.00798716
0.00792489
0.00787955
0.0078521
0.00784335
0.00785412
0.00788517
0.00793733
0.00801152
0.00810843
0.00822985
0.00837206
0.00855443
0.00873496
1.95673e-05
1.15721e-05
7.98431e-06
6.11909e-06
5.04289e-06
4.38656e-06
3.99748e-06
3.82063e-06
3.8558e-06
4.14465e-06
4.77492e-06
5.91164e-06
7.87904e-06
1.12714e-05
1.70955e-05
2.69284e-05
4.19583e-05
6.3368e-05
9.25589e-05
0.000131134
0.000180977
0.000244294
0.000323612
0.000421756
0.000541766
0.000686715
0.000859422
0.00106207
0.00129578
0.00156023
0.00185336
0.00217138
0.00251054
0.00288693
0.00327487
0.00365825
0.00402452
0.00436452
0.00467261
0.00494618
0.00518482
0.00538952
0.00556192
0.00570389
0.00581723
0.00590367
0.00596481
0.00600222
0.00601755
0.00601255
0.00598913
0.00594936
0.00589547
0.0058298
0.00575474
0.00567273
0.00558618
0.00549741
0.00540867
0.00532209
0.00523964
0.00516317
0.00509437
0.0050348
0.00498589
0.00494896
0.0049252
0.00491574
0.00492162
0.00494384
0.00498337
0.00504122
0.00511843
0.0052162
0.00533601
0.00547943
0.0056496
0.00584558
0.00608649
0.00635176
1.95673e-05
1.15723e-05
7.98495e-06
6.11812e-06
5.03316e-06
4.35116e-06
3.90439e-06
3.61735e-06
3.46165e-06
3.43822e-06
3.57251e-06
3.92055e-06
4.59097e-06
5.78417e-06
7.85203e-06
1.13742e-05
1.68299e-05
2.46809e-05
3.53901e-05
4.93809e-05
6.70588e-05
8.88258e-05
0.000115087
0.000146252
0.000182722
0.000224872
0.000273008
0.000327309
0.000387776
0.000454163
0.000525944
0.000602293
0.000682264
0.000766164
0.000868959
0.000990433
0.00112893
0.00128118
0.00144272
0.00160836
0.00177281
0.00193115
0.00207917
0.00221361
0.00233223
0.00243372
0.00251764
0.00258424
0.00263433
0.00266909
0.00268998
0.00269861
0.00269671
0.00268601
0.00266824
0.0026451
0.00261823
0.00258921
0.00255954
0.00253067
0.00250396
0.00248074
0.00246226
0.00244973
0.00244435
0.00244728
0.00245969
0.00248274
0.00251766
0.00256568
0.00262816
0.00270649
0.00280224
0.00291716
0.00305338
0.00321331
0.00340108
0.00361839
0.00388264
0.00419287
1.95673e-05
1.15722e-05
7.985e-06
6.11826e-06
5.0317e-06
4.34336e-06
3.88004e-06
3.55776e-06
3.33586e-06
3.19784e-06
3.14351e-06
3.18735e-06
3.36275e-06
3.7327e-06
4.40914e-06
5.58246e-06
7.42446e-06
1.01157e-05
1.3837e-05
1.87355e-05
2.49198e-05
3.24619e-05
4.13987e-05
5.17309e-05
6.34173e-05
7.63646e-05
9.04125e-05
0.000105316
0.000120727
0.000136177
0.000151061
0.000164636
0.000176025
0.000184284
0.000191974
0.000201213
0.000212668
0.000227009
0.000244819
0.000266499
0.000292191
0.000321738
0.000354681
0.000390297
0.000427671
0.000465771
0.000503545
0.000539995
0.000574246
0.000605595
0.000633536
0.000657775
0.000678218
0.000694959
0.000708257
0.000718501
0.000726188
0.000731894
0.000736248
0.000739918
0.000743592
0.000747977
0.000753794
0.000761785
0.000772727
0.000787445
0.000806841
0.00083192
0.000863823
0.000903874
0.000953616
0.00101486
0.00108977
0.00118086
0.00129124
0.00142453
0.00158597
0.00178021
0.00202217
0.00232652
1.95673e-05
1.15716e-05
7.98432e-06
6.11784e-06
5.03126e-06
4.34165e-06
3.87403e-06
3.54132e-06
3.29795e-06
3.12023e-06
2.99756e-06
2.92866e-06
2.92095e-06
2.99238e-06
3.17626e-06
3.52966e-06
4.10487e-06
4.95925e-06
6.15559e-06
7.74815e-06
9.77452e-06
1.2251e-05
1.51718e-05
1.85094e-05
2.2215e-05
2.6217e-05
3.0419e-05
3.46964e-05
3.88956e-05
4.28346e-05
4.63073e-05
4.90946e-05
5.09805e-05
5.1779e-05
5.20979e-05
5.22013e-05
5.21077e-05
5.18454e-05
5.1453e-05
5.09793e-05
5.0482e-05
5.00262e-05
4.96802e-05
4.95119e-05
4.9583e-05
4.99435e-05
5.0627e-05
5.16472e-05
5.29966e-05
5.46476e-05
5.65564e-05
5.86678e-05
6.09217e-05
6.32593e-05
6.56282e-05
6.7987e-05
7.03077e-05
7.2578e-05
7.48028e-05
7.70054e-05
7.92308e-05
8.15492e-05
8.40607e-05
8.69002e-05
9.02424e-05
9.43048e-05
9.93537e-05
0.000105713
0.000113784
0.000124075
0.000137255
0.000154233
0.000176273
0.000205166
0.000243502
0.00029503
0.000365499
0.000462949
0.000602398
0.000810368
1.95673e-05
1.15707e-05
7.98298e-06
6.11668e-06
5.03038e-06
4.34074e-06
3.87224e-06
3.53677e-06
3.28698e-06
3.09638e-06
2.95023e-06
2.84118e-06
2.76728e-06
2.73155e-06
2.74255e-06
2.81629e-06
2.96831e-06
3.21315e-06
3.56731e-06
4.04621e-06
4.6614e-06
5.41796e-06
6.31258e-06
7.33275e-06
8.45669e-06
9.65374e-06
1.08849e-05
1.21037e-05
1.32573e-05
1.42888e-05
1.51406e-05
1.57593e-05
1.61012e-05
1.61371e-05
1.60659e-05
1.59242e-05
1.57145e-05
1.54403e-05
1.51064e-05
1.47182e-05
1.42824e-05
1.38058e-05
1.32959e-05
1.27605e-05
1.22072e-05
1.16438e-05
1.10774e-05
1.05151e-05
9.96318e-06
9.42718e-06
8.9119e-06
8.42154e-06
7.96055e-06
7.53595e-06
7.16164e-06
6.86394e-06
6.68492e-06
6.67909e-06
6.90466e-06
7.41554e-06
8.25903e-06
9.47751e-06
1.11104e-05
1.31947e-05
1.57641e-05
1.88481e-05
2.24712e-05
2.66539e-05
3.1414e-05
3.67699e-05
4.27458e-05
4.93794e-05
5.67328e-05
6.491e-05
7.40868e-05
8.45581e-05
9.6881e-05
0.00011195
0.000132519
0.000163772
1.95673e-05
1.15694e-05
7.98104e-06
6.11487e-06
5.02885e-06
4.33943e-06
3.87094e-06
3.53494e-06
3.28347e-06
3.08906e-06
2.93539e-06
2.81279e-06
2.71589e-06
2.64248e-06
2.59309e-06
2.57111e-06
2.58204e-06
2.62845e-06
2.71303e-06
2.83843e-06
3.00654e-06
3.21767e-06
3.46995e-06
3.75891e-06
4.07722e-06
4.41475e-06
4.75878e-06
5.09449e-06
5.40568e-06
5.67581e-06
5.88929e-06
6.03291e-06
6.09736e-06
6.07599e-06
6.03515e-06
5.97539e-06
5.89761e-06
5.803e-06
5.69302e-06
5.56929e-06
5.43364e-06
5.28797e-06
5.13428e-06
4.97463e-06
4.81109e-06
4.64577e-06
4.48084e-06
4.31865e-06
4.16235e-06
4.01749e-06
3.89562e-06
3.81977e-06
3.82879e-06
3.97632e-06
4.3243e-06
4.93749e-06
5.88285e-06
7.23124e-06
9.05801e-06
1.14415e-05
1.44597e-05
1.81874e-05
2.26922e-05
2.80321e-05
3.42544e-05
4.13949e-05
4.94787e-05
5.85226e-05
6.85365e-05
7.95267e-05
9.14973e-05
0.000104451
0.000118387
0.000133297
0.000149145
0.000165846
0.000183217
0.000200717
0.000217946
0.00023143
1.95673e-05
1.15677e-05
7.97855e-06
6.11248e-06
5.02672e-06
4.33756e-06
3.86927e-06
3.53333e-06
3.28158e-06
3.08622e-06
2.93039e-06
2.80358e-06
2.69914e-06
2.61304e-06
2.54311e-06
2.48869e-06
2.45253e-06
2.43402e-06
2.43225e-06
2.44663e-06
2.47659e-06
2.52127e-06
2.57937e-06
2.64893e-06
2.72736e-06
2.81136e-06
2.897e-06
2.97989e-06
3.05537e-06
3.11885e-06
3.16616e-06
3.19394e-06
3.19997e-06
3.18523e-06
3.16562e-06
3.14129e-06
3.11245e-06
3.07943e-06
3.04262e-06
3.0025e-06
2.95967e-06
2.91488e-06
2.86908e-06
2.82356e-06
2.78021e-06
2.74235e-06
2.71692e-06
2.71918e-06
2.77887e-06
2.94389e-06
3.27765e-06
3.85414e-06
4.75661e-06
6.07959e-06
7.93031e-06
1.04276e-05
1.36987e-05
1.78743e-05
2.30835e-05
2.94483e-05
3.70792e-05
4.60711e-05
5.65007e-05
6.84252e-05
8.18798e-05
9.68772e-05
0.000113405
0.000131421
0.000150855
0.000171595
0.000193495
0.000216365
0.000239974
0.000264047
0.000288268
0.000312267
0.000335611
0.00035753
0.000377573
0.000391675
1.95673e-05
1.15654e-05
7.97556e-06
6.10959e-06
5.02407e-06
4.33515e-06
3.8671e-06
3.53135e-06
3.2797e-06
3.08423e-06
2.92792e-06
2.79996e-06
2.69329e-06
2.60321e-06
2.52664e-06
2.46163e-06
2.41008e-06
2.37056e-06
2.34121e-06
2.3207e-06
2.30795e-06
2.30202e-06
2.30196e-06
2.30677e-06
2.31534e-06
2.32645e-06
2.33878e-06
2.35094e-06
2.36154e-06
2.36925e-06
2.37291e-06
2.37159e-06
2.36474e-06
2.35345e-06
2.34129e-06
2.32828e-06
2.31449e-06
2.30012e-06
2.28558e-06
2.27163e-06
2.25957e-06
2.25171e-06
2.25252e-06
2.27177e-06
2.33103e-06
2.47125e-06
2.75528e-06
3.26385e-06
4.09259e-06
5.35412e-06
7.18121e-06
9.7274e-06
1.31644e-05
1.76768e-05
2.34558e-05
3.06908e-05
3.95618e-05
5.02315e-05
6.28377e-05
7.7486e-05
9.42423e-05
0.000113124
0.000134093
0.000157041
0.000181789
0.000208078
0.000235578
0.000263894
0.000292588
0.000321204
0.000349299
0.000376465
0.000402353
0.000426683
0.000449249
0.000469879
0.000488499
0.000504619
0.000518681
0.000526907
1.95673e-05
1.15627e-05
7.97212e-06
6.10627e-06
5.02095e-06
4.33227e-06
3.86446e-06
3.52891e-06
3.27743e-06
3.08208e-06
2.92577e-06
2.79762e-06
2.69041e-06
2.59924e-06
2.52072e-06
2.45248e-06
2.39616e-06
2.35009e-06
2.31218e-06
2.2809e-06
2.25513e-06
2.23395e-06
2.21659e-06
2.20239e-06
2.19072e-06
2.18101e-06
2.17269e-06
2.16523e-06
2.15812e-06
2.1509e-06
2.1432e-06
2.1347e-06
2.12521e-06
2.11529e-06
2.10575e-06
2.09699e-06
2.09005e-06
2.08702e-06
2.09174e-06
2.11184e-06
2.16433e-06
2.28588e-06
2.54154e-06
3.02298e-06
3.84269e-06
5.1349e-06
7.06026e-06
9.80785e-06
1.35927e-05
1.86497e-05
2.52248e-05
3.3564e-05
4.39013e-05
5.64462e-05
7.13702e-05
8.87933e-05
0.00010877
0.000131275
0.000156188
0.000183288
0.000212248
0.000242641
0.000273967
0.000305675
0.000337212
0.000368052
0.000397739
0.0004259
0.000452264
0.000476649
0.000498956
0.000519145
0.000537223
0.000553217
0.000567184
0.000579132
0.000589234
0.000597037
0.000603766
0.000604861
1.95673e-05
1.15595e-05
7.96831e-06
6.10258e-06
5.01746e-06
4.329e-06
3.8614e-06
3.52606e-06
3.27476e-06
3.07956e-06
2.92337e-06
2.79528e-06
2.68804e-06
2.59667e-06
2.51769e-06
2.44859e-06
2.39095e-06
2.343e-06
2.30259e-06
2.26818e-06
2.23861e-06
2.21299e-06
2.19064e-06
2.17101e-06
2.15362e-06
2.13808e-06
2.12405e-06
2.11124e-06
2.09939e-06
2.08827e-06
2.07771e-06
2.06757e-06
2.058e-06
2.05181e-06
2.05408e-06
2.07425e-06
2.1308e-06
2.26458e-06
2.55604e-06
3.12594e-06
4.12357e-06
5.72519e-06
8.13926e-06
1.16071e-05
1.63969e-05
2.27927e-05
3.10803e-05
4.15308e-05
5.43824e-05
6.98228e-05
8.79707e-05
0.000108859
0.00013242
0.000158474
0.000186727
0.000216774
0.000248121
0.000280214
0.000312479
0.000344368
0.000375396
0.000405168
0.000433391
0.00045987
0.00048449
0.000507194
0.00052796
0.000546787
0.000563678
0.00057864
0.000591683
0.000602821
0.000612078
0.000619483
0.000625098
0.000628927
0.000631251
0.000631596
0.000631829
0.000627169
1.95673e-05
1.15559e-05
7.9642e-06
6.09859e-06
5.01363e-06
4.32539e-06
3.858e-06
3.52285e-06
3.27172e-06
3.07667e-06
2.92062e-06
2.79265e-06
2.68549e-06
2.59417e-06
2.51517e-06
2.44595e-06
2.38804e-06
2.33969e-06
2.29872e-06
2.26359e-06
2.23317e-06
2.20662e-06
2.18333e-06
2.16287e-06
2.14496e-06
2.12948e-06
2.11653e-06
2.10648e-06
2.10016e-06
2.09919e-06
2.10656e-06
2.12787e-06
2.21961e-06
2.46708e-06
3.01322e-06
4.06584e-06
5.86399e-06
8.67453e-06
1.27926e-05
1.85303e-05
2.61981e-05
3.60826e-05
4.8424e-05
6.33959e-05
8.10857e-05
0.000101481
0.00012446
0.000149788
0.000177123
0.000206032
0.000236012
0.000266529
0.000297053
0.000327099
0.000356262
0.000384235
0.000410815
0.000435892
0.000459428
0.000481427
0.000501914
0.000520913
0.000538434
0.000554472
0.000569008
0.000582016
0.000593467
0.000603334
0.000611597
0.000618241
0.000623256
0.000626643
0.000628411
0.000628569
0.000627176
0.000624217
0.000620031
0.000614192
0.000608861
0.000600033
1.95673e-05
1.15518e-05
7.95982e-06
6.0943e-06
5.0095e-06
4.32146e-06
3.85427e-06
3.51931e-06
3.26836e-06
3.07349e-06
2.91766e-06
2.78998e-06
2.68327e-06
2.59271e-06
2.5151e-06
2.44849e-06
2.39523e-06
2.35487e-06
2.32747e-06
2.31517e-06
2.32283e-06
2.359e-06
2.43739e-06
2.57886e-06
2.8143e-06
3.18877e-06
3.76633e-06
4.63487e-06
5.91048e-06
7.74236e-06
1.03186e-05
1.39767e-05
1.93353e-05
2.67171e-05
3.64181e-05
4.86468e-05
6.35131e-05
8.10172e-05
0.000101044
0.000123368
0.000147659
0.000173504
0.000200432
0.000227942
0.00025554
0.00028277
0.000309243
0.000334662
0.000358829
0.000381642
0.000403087
0.000423207
0.000442086
0.000459816
0.000476483
0.000492149
0.000506853
0.00052061
0.000533414
0.000545244
0.000556073
0.000565867
0.000574587
0.000582194
0.000588644
0.000593893
0.000597897
0.000600615
0.000602007
0.000602039
0.000600683
0.000597918
0.000593736
0.000588127
0.000581142
0.00057276
0.000563328
0.000552596
0.000542478
0.000530742
1.95673e-05
1.15474e-05
7.95516e-06
6.08971e-06
5.00519e-06
4.31769e-06
3.85141e-06
3.51815e-06
3.27065e-06
3.08301e-06
2.94219e-06
2.84527e-06
2.8005e-06
2.83187e-06
2.98658e-06
3.34552e-06
3.99203e-06
5.0271e-06
6.58152e-06
8.80558e-06
1.18621e-05
1.59209e-05
2.11547e-05
2.77339e-05
3.58216e-05
4.55687e-05
5.71086e-05
7.05523e-05
8.59832e-05
0.000103451
0.000122965
0.000144363
0.000167172
0.000190923
0.000215123
0.000239284
0.000262959
0.000285779
0.00030747
0.000327859
0.000346872
0.000364521
0.000380881
0.000396071
0.000410224
0.00042347
0.000435923
0.000447667
0.000458761
0.00046924
0.000479124
0.000488418
0.000497129
0.000505257
0.000512804
0.00051977
0.000526146
0.00053192
0.000537067
0.000541554
0.00054534
0.000548376
0.000550608
0.000551978
0.00055243
0.000551906
0.000550351
0.000547712
0.000543943
0.000538998
0.000532842
0.000525445
0.000516792
0.000506872
0.000495731
0.000483375
0.000470098
0.000455977
0.000442025
0.000428413
1.95684e-05
1.15457e-05
7.95714e-06
6.09897e-06
5.03046e-06
4.37891e-06
3.99484e-06
3.84734e-06
3.99838e-06
4.59454e-06
5.8468e-06
8.02118e-06
1.14486e-05
1.65057e-05
2.35774e-05
3.30269e-05
4.45553e-05
5.79239e-05
7.2972e-05
8.95014e-05
0.000107285
0.000126076
0.000145615
0.00016564
0.000185897
0.000206149
0.00022619
0.000245846
0.000264988
0.000283526
0.000301411
0.00031854
0.000334326
0.000348818
0.000362097
0.000374272
0.000385461
0.000395769
0.00040528
0.000414054
0.00042213
0.000429535
0.000436295
0.000442436
0.000447995
0.000453011
0.00045753
0.000461601
0.000465266
0.000468565
0.000471524
0.000474163
0.000476488
0.000478495
0.00048017
0.000481492
0.000482432
0.000482954
0.000483018
0.000482577
0.000481582
0.000479981
0.00047772
0.000474743
0.000470997
0.000466428
0.000460988
0.000454628
0.000447308
0.000438991
0.00042965
0.000419267
0.000407841
0.000395382
0.000381947
0.0003676
0.000352534
0.000337217
0.000321265
0.000307072
1.96487e-05
1.17624e-05
8.44425e-06
7.13356e-06
7.17319e-06
8.63079e-06
1.18646e-05
1.7297e-05
2.53441e-05
3.62436e-05
4.99142e-05
6.59936e-05
8.39627e-05
0.000103263
0.000123369
0.000143819
0.00016338
0.000181688
0.00019877
0.000214713
0.000229635
0.000243671
0.000256951
0.000269592
0.000281694
0.00029333
0.000304549
0.000315378
0.00032582
0.000335868
0.000345506
0.000354707
0.000363021
0.000370218
0.000376329
0.000381459
0.000385739
0.000389298
0.000392248
0.000394688
0.000396695
0.000398334
0.000399655
0.000400692
0.000401473
0.000402015
0.000402328
0.000402418
0.000402288
0.000401933
0.000401347
0.00040052
0.000399435
0.000398074
0.000396414
0.000394428
0.000392089
0.000389364
0.000386222
0.000382631
0.000378556
0.000373963
0.000368821
0.000363096
0.000356758
0.000349781
0.00034214
0.000333814
0.00032479
0.000315061
0.000304629
0.000293512
0.00028174
0.000269362
0.000256458
0.000243147
0.000229517
0.000216216
0.000201632
0.000189482
2.37559e-05
2.08066e-05
2.35279e-05
2.94395e-05
3.82291e-05
5.01293e-05
6.51256e-05
8.23628e-05
0.000100315
0.000117455
0.000132846
0.000146291
0.000158128
0.000168922
0.000179214
0.000189398
0.000199155
0.000208456
0.000217322
0.00022572
0.000233608
0.000240963
0.000247783
0.000254084
0.000259895
0.000265252
0.00027019
0.000274741
0.000278935
0.000282791
0.000286331
0.00028955
0.000292283
0.000294553
0.000296534
0.000298316
0.000299926
0.00030136
0.000302603
0.00030364
0.00030446
0.000305055
0.000305411
0.000305514
0.000305352
0.000304906
0.000304163
0.000303106
0.00030172
0.00029999
0.000297905
0.000295452
0.000292625
0.000289415
0.000285819
0.000281835
0.000277463
0.000272706
0.000267567
0.000262053
0.000256172
0.000249932
0.000243344
0.000236419
0.000229172
0.000221617
0.00021377
0.000205659
0.000197307
0.000188747
0.000180016
0.000171156
0.000162222
0.000153264
0.00014436
0.000135545
0.000126953
0.000118474
0.000109804
0.000103536
8.2132e-05
7.88757e-05
7.64845e-05
7.51036e-05
7.45522e-05
7.47664e-05
7.57008e-05
7.73154e-05
7.95199e-05
8.2156e-05
8.50404e-05
8.80195e-05
9.09977e-05
9.39327e-05
9.68153e-05
9.96486e-05
0.000102384
0.00010494
0.000107307
0.000109492
0.000111499
0.000113332
0.000114994
0.000116489
0.000117821
0.000118994
0.000120012
0.00012088
0.000121598
0.00012217
0.000122594
0.000122873
0.000122995
0.000122946
0.000122728
0.000122348
0.000121814
0.000121135
0.000120315
0.000119362
0.000118279
0.000117071
0.000115746
0.000114308
0.000112764
0.00011112
0.000109385
0.000107564
0.000105666
0.0001037
0.000101675
9.95988e-05
9.74824e-05
9.53357e-05
9.31694e-05
9.0994e-05
8.88206e-05
8.666e-05
8.4523e-05
8.24201e-05
8.03614e-05
7.83563e-05
7.64135e-05
7.45409e-05
7.27453e-05
7.10328e-05
6.9408e-05
6.78746e-05
6.64355e-05
6.50923e-05
6.38455e-05
6.26951e-05
6.16393e-05
6.06792e-05
5.98053e-05
5.90436e-05
5.83178e-05
5.78717e-05
5.70487e-05
5.74078e-05
)
;

boundaryField
{
    inlet
    {
        type            fixedValue;
        value           uniform 0;
    }
    outlet
    {
        type            zeroGradient;
    }
    fixedWalls
    {
        type            nutkWallFunction;
        Cmu             0.09;
        kappa           0.41;
        E               9.8;
        value           nonuniform List<scalar> 
160
(
9.29711e-06
8.85654e-06
8.5315e-06
8.34319e-06
8.26786e-06
8.29714e-06
8.42468e-06
8.6446e-06
8.94387e-06
9.30035e-06
9.68869e-06
1.0088e-05
1.04855e-05
1.08755e-05
1.12571e-05
1.16307e-05
1.19901e-05
1.23249e-05
1.2634e-05
1.29186e-05
1.31794e-05
1.3417e-05
1.36321e-05
1.38252e-05
1.39969e-05
1.4148e-05
1.42791e-05
1.43906e-05
1.44828e-05
1.45562e-05
1.46106e-05
1.46464e-05
1.4662e-05
1.46557e-05
1.46277e-05
1.45789e-05
1.45104e-05
1.44232e-05
1.43179e-05
1.41952e-05
1.40557e-05
1.39001e-05
1.3729e-05
1.35431e-05
1.33432e-05
1.313e-05
1.29044e-05
1.26673e-05
1.24196e-05
1.21624e-05
1.18968e-05
1.16239e-05
1.13449e-05
1.10611e-05
1.0774e-05
1.04847e-05
1.01948e-05
9.90577e-06
9.61895e-06
9.33579e-06
9.05767e-06
8.78589e-06
8.5217e-06
8.26621e-06
8.02044e-06
7.7853e-06
7.5615e-06
7.34967e-06
7.15027e-06
6.96363e-06
6.78993e-06
6.62927e-06
6.48146e-06
6.34676e-06
6.22389e-06
6.11661e-06
6.01421e-06
5.95119e-06
5.83474e-06
5.88559e-06
0.000184713
0.000185409
0.000179095
0.000161492
0.000112773
5.87736e-05
5.79262e-05
6.42177e-05
6.81582e-05
6.61046e-05
5.93159e-05
5.48537e-05
5.96333e-05
6.48651e-05
7.06122e-05
7.76927e-05
8.59911e-05
9.5004e-05
0.000104576
0.000114739
0.000125544
0.000137023
0.000149175
0.000161955
0.000175272
0.000188987
0.000202924
0.000216893
0.000230703
0.000244178
0.000257167
0.000269549
0.000281232
0.000292153
0.00030228
0.000311616
0.000320191
0.000328079
0.000335394
0.000342321
0.000348706
0.000354334
0.000359249
0.000363504
0.000367124
0.000370121
0.000372497
0.000374249
0.000375374
0.000375871
0.00037574
0.000374983
0.000373608
0.000371621
0.000368996
0.000365759
0.000361942
0.000357583
0.000352745
0.000347591
0.000342519
0.000337313
0.000331815
0.000325968
0.000319769
0.000313241
0.000306411
0.000299309
0.00029197
0.000284425
0.00027671
0.000268857
0.000260901
0.000252877
0.000244828
0.000236801
0.000228868
0.000221127
0.000213722
0.000207692
)
;
    }
    frontAndBack
    {
        type            empty;
    }
}


// ************************************************************************* //
