/*--------------------------------*- C++ -*----------------------------------*\
| =========                 |                                                 |
| \\      /  F ield         | OpenFOAM: The Open Source CFD Toolbox           |
|  \\    /   O peration     | Version:  v1912                                 |
|   \\  /    A nd           | Website:  www.openfoam.com                      |
|    \\/     M anipulation  |                                                 |
\*---------------------------------------------------------------------------*/
FoamFile
{
    version     2.0;
    format      ascii;
    class       volScalarField;
    location    "150";
    object      p;
}
// * * * * * * * * * * * * * * * * * * * * * * * * * * * * * * * * * * * * * //

dimensions      [0 2 -2 0 0 0 0];


internalField   nonuniform List<scalar> 
2000
(
-0.0167257
0.099975
0.156299
0.152426
0.139277
0.134258
0.133712
0.134296
0.134251
0.134606
0.13484
0.134765
0.134663
0.134673
0.134742
0.13477
0.134753
0.134716
0.134668
0.134606
0.134521
0.134407
0.134255
0.134057
0.133804
0.133487
0.133105
0.132664
0.132187
0.131712
0.131289
0.130982
0.130859
0.130984
0.131413
0.132188
0.133329
0.13485
0.136767
0.139061
0.141738
0.144811
0.148262
0.152078
0.15625
0.160769
0.165626
0.170804
0.176285
0.18204
0.188036
0.194229
0.20057
0.207003
0.213465
0.219882
0.226175
0.232259
0.238037
0.243415
0.24832
0.252633
0.256267
0.259108
0.261035
0.261928
0.261665
0.260114
0.257134
0.252567
0.246234
0.237928
0.227394
0.214318
0.198267
0.178701
0.154521
0.125084
0.0846661
0.0429957
0.0413937
0.125783
0.16384
0.151144
0.134942
0.132921
0.137807
0.138761
0.134639
0.132538
0.133634
0.134541
0.134577
0.134686
0.134881
0.134882
0.134811
0.134745
0.134711
0.134686
0.134649
0.134589
0.134492
0.134339
0.134103
0.13376
0.13329
0.132693
0.13199
0.131229
0.130483
0.129841
0.129395
0.129233
0.129427
0.130027
0.131054
0.13252
0.134496
0.136956
0.139794
0.142926
0.146371
0.150148
0.154261
0.158711
0.16349
0.168583
0.17397
0.179622
0.185501
0.191562
0.197752
0.204009
0.21026
0.216436
0.222455
0.228229
0.233663
0.238653
0.243081
0.246845
0.24986
0.252014
0.253186
0.253255
0.252094
0.249569
0.245534
0.239825
0.232257
0.222613
0.210632
0.195992
0.178285
0.156999
0.131368
0.100898
0.0631029
0.0287418
0.0891684
0.122606
0.145387
0.144895
0.137587
0.135609
0.136928
0.136296
0.134505
0.134393
0.136631
0.136406
0.134291
0.133609
0.134474
0.13494
0.134975
0.134889
0.134833
0.134816
0.134797
0.134753
0.134674
0.134537
0.134308
0.133955
0.133459
0.132827
0.132092
0.131314
0.130576
0.129967
0.129577
0.129485
0.129749
0.130411
0.131495
0.132966
0.134795
0.137022
0.139635
0.142606
0.145927
0.149596
0.153612
0.157966
0.16265
0.167644
0.172924
0.17846
0.18421
0.190128
0.196157
0.202234
0.208289
0.214242
0.220008
0.225496
0.230611
0.235251
0.239313
0.242698
0.245303
0.247018
0.247727
0.247309
0.24564
0.242589
0.238009
0.231742
0.223603
0.213383
0.200832
0.185657
0.167503
0.145976
0.120555
0.0911989
0.0562089
0.0266336
0.111038
0.121249
0.134757
0.140639
0.140131
0.139071
0.138596
0.137533
0.136304
0.13568
0.136005
0.136027
0.13579
0.135271
0.135219
0.135131
0.134804
0.134691
0.134811
0.13495
0.135016
0.135023
0.134978
0.134868
0.134658
0.134317
0.13383
0.133208
0.132487
0.131729
0.131013
0.130425
0.13005
0.129958
0.130201
0.130809
0.131795
0.133206
0.135005
0.137193
0.139761
0.142694
0.145985
0.149631
0.153627
0.157963
0.162626
0.167597
0.172847
0.178343
0.184042
0.189895
0.195841
0.201817
0.207747
0.213553
0.219146
0.224436
0.229326
0.233716
0.237507
0.240597
0.242882
0.244254
0.244602
0.24381
0.241757
0.238316
0.233344
0.226687
0.218169
0.207588
0.194712
0.179276
0.160974
0.139502
0.11448
0.0860907
0.0527953
0.0255576
0.121139
0.125457
0.134615
0.140857
0.141987
0.141479
0.141379
0.141185
0.140315
0.139143
0.138253
0.137746
0.137283
0.136426
0.136057
0.136118
0.136007
0.135728
0.135463
0.135291
0.135245
0.13528
0.135322
0.135303
0.135174
0.134902
0.134478
0.133916
0.133257
0.132562
0.131908
0.131377
0.131046
0.130979
0.131223
0.131817
0.132798
0.134182
0.135964
0.138137
0.140692
0.143617
0.146904
0.150548
0.15454
0.158869
0.163518
0.168465
0.17368
0.179126
0.184759
0.190526
0.196367
0.202214
0.207992
0.213622
0.219016
0.224084
0.228731
0.232862
0.236377
0.239178
0.241165
0.242234
0.242278
0.241189
0.238848
0.235133
0.229907
0.22302
0.214302
0.203561
0.190576
0.175102
0.156862
0.135604
0.110993
0.0833401
0.0509707
0.0247567
0.127291
0.130168
0.136478
0.141597
0.143307
0.143503
0.143867
0.144188
0.14388
0.143134
0.142405
0.141724
0.140747
0.139517
0.138688
0.138306
0.137926
0.137477
0.137113
0.136883
0.136727
0.136576
0.136406
0.13622
0.136005
0.13573
0.135364
0.134899
0.134358
0.133791
0.133263
0.132846
0.132603
0.132592
0.132883
0.133522
0.13454
0.135949
0.137748
0.139933
0.142497
0.145429
0.148722
0.152366
0.156353
0.160668
0.165291
0.170198
0.175356
0.180727
0.186263
0.191911
0.197609
0.20329
0.208878
0.214295
0.219457
0.224274
0.228656
0.232511
0.235745
0.238263
0.23997
0.240768
0.240556
0.239228
0.236672
0.23277
0.227388
0.220382
0.211584
0.200809
0.187841
0.172446
0.154359
0.133347
0.109069
0.0819094
0.0499654
0.0240741
0.13153
0.133734
0.13826
0.142447
0.144522
0.145315
0.145989
0.146567
0.146696
0.146449
0.146092
0.145622
0.144854
0.143849
0.14293
0.142163
0.141403
0.140682
0.140112
0.139709
0.139401
0.139123
0.138844
0.138547
0.138206
0.137792
0.137299
0.136742
0.136162
0.135608
0.135135
0.134791
0.134639
0.134744
0.135143
0.135881
0.136983
0.138456
0.140304
0.142525
0.145113
0.148062
0.151362
0.155004
0.158975
0.16326
0.167837
0.172678
0.177749
0.183011
0.188414
0.193904
0.199421
0.204896
0.210258
0.215429
0.220327
0.22487
0.228971
0.232543
0.235497
0.237745
0.239195
0.239755
0.239329
0.237815
0.235106
0.231085
0.225623
0.218576
0.209781
0.199052
0.186178
0.170926
0.153029
0.132256
0.108227
0.0813649
0.0495307
0.0235359
0.13454
0.136382
0.140022
0.143703
0.145963
0.147095
0.147945
0.14868
0.149084
0.149157
0.149061
0.148837
0.148408
0.147774
0.147083
0.146395
0.145673
0.144944
0.144273
0.143695
0.143198
0.14276
0.142358
0.141968
0.141556
0.141093
0.140567
0.139989
0.13939
0.138818
0.138328
0.137976
0.137808
0.137889
0.13828
0.139026
0.140151
0.14166
0.143546
0.145802
0.148416
0.151379
0.15468
0.158306
0.162244
0.166475
0.170977
0.175721
0.180671
0.185786
0.191019
0.196315
0.201615
0.206852
0.211958
0.21686
0.221479
0.225738
0.229556
0.232851
0.235541
0.23754
0.238764
0.239123
0.238526
0.236875
0.234064
0.229978
0.22449
0.217458
0.208718
0.198085
0.185348
0.17027
0.152573
0.13202
0.108174
0.0814642
0.0495407
0.0231608
0.13675
0.138447
0.141713
0.145136
0.147469
0.148807
0.149806
0.150666
0.151239
0.151498
0.151572
0.151526
0.151324
0.150954
0.150504
0.150036
0.149532
0.148988
0.148442
0.147924
0.147437
0.146968
0.146507
0.14604
0.145557
0.145046
0.144504
0.143943
0.143388
0.142876
0.142454
0.142175
0.142099
0.142247
0.142681
0.143421
0.144503
0.145949
0.147764
0.149947
0.152491
0.155384
0.158614
0.162163
0.166014
0.170144
0.174527
0.179132
0.183922
0.188855
0.193884
0.198955
0.204012
0.208991
0.213828
0.218453
0.222793
0.226776
0.230326
0.233365
0.235816
0.237599
0.238632
0.238829
0.238101
0.236351
0.233477
0.229364
0.223887
0.216902
0.208247
0.197737
0.185155
0.170261
0.152764
0.13241
0.108703
0.0820473
0.0499182
0.0229559
0.138414
0.140095
0.143246
0.146546
0.148905
0.150389
0.151536
0.152518
0.153219
0.153615
0.153814
0.153886
0.153818
0.153608
0.153322
0.153017
0.152684
0.152313
0.151929
0.151554
0.15119
0.150822
0.150438
0.150032
0.149596
0.149127
0.148627
0.148114
0.147613
0.147163
0.14681
0.146603
0.146593
0.146822
0.147324
0.148131
0.149257
0.150717
0.152519
0.154661
0.157138
0.159943
0.163063
0.166484
0.17019
0.174159
0.178365
0.182776
0.187357
0.192066
0.196858
0.201681
0.20648
0.211195
0.215764
0.220122
0.224201
0.227931
0.23124
0.234055
0.236301
0.237901
0.238776
0.238843
0.238013
0.236193
0.23328
0.229161
0.223711
0.216788
0.208228
0.197846
0.185423
0.170713
0.15341
0.133241
0.109652
0.0829994
0.0506189
0.0229388
0.139675
0.14142
0.144618
0.147884
0.150247
0.151838
0.153119
0.154212
0.155022
0.155535
0.155844
0.156012
0.156043
0.155942
0.155764
0.155558
0.155327
0.155065
0.154791
0.154521
0.154256
0.153982
0.153689
0.15337
0.153022
0.152642
0.152237
0.151824
0.15143
0.151089
0.150844
0.150739
0.150818
0.151116
0.15165
0.152475
0.153608
0.155058
0.156832
0.15893
0.16135
0.164082
0.167114
0.170432
0.174018
0.177849
0.1819
0.18614
0.190535
0.195044
0.199624
0.204226
0.208798
0.213283
0.217623
0.221754
0.225612
0.22913
0.23224
0.23487
0.236948
0.238399
0.239146
0.239107
0.238196
0.236319
0.233377
0.229258
0.223836
0.216971
0.208501
0.198238
0.185963
0.171426
0.154309
0.134318
0.110847
0.0841934
0.0515812
0.02316
0.140619
0.1425
0.145858
0.149138
0.151491
0.153164
0.15456
0.155747
0.156646
0.157258
0.157665
0.157922
0.158041
0.158032
0.15794
0.15781
0.15765
0.157461
0.157257
0.157052
0.156845
0.156628
0.156392
0.156131
0.155842
0.155527
0.155193
0.154857
0.154546
0.154291
0.154132
0.154108
0.154259
0.154614
0.155194
0.156051
0.157205
0.158661
0.160425
0.162497
0.164874
0.167548
0.170508
0.173739
0.177224
0.180941
0.184867
0.188971
0.193219
0.197573
0.201991
0.206425
0.210825
0.215137
0.219302
0.223261
0.226951
0.230306
0.233261
0.235746
0.23769
0.239022
0.239664
0.239538
0.238557
0.236632
0.233663
0.229538
0.224136
0.217314
0.208913
0.198745
0.18659
0.172194
0.15523
0.13539
0.112018
0.0853643
0.0525262
0.0235158
0.141309
0.143397
0.146991
0.150299
0.152628
0.154368
0.155865
0.15713
0.158101
0.158796
0.159286
0.159623
0.15982
0.159893
0.159879
0.159818
0.159723
0.159596
0.159449
0.159292
0.159129
0.158951
0.158753
0.158529
0.158279
0.158005
0.157717
0.157432
0.157175
0.156978
0.156876
0.156907
0.157107
0.157503
0.158126
0.15901
0.160177
0.161635
0.163388
0.165439
0.167785
0.170417
0.173326
0.176497
0.179913
0.183553
0.187391
0.191399
0.195542
0.199784
0.204082
0.20839
0.212658
0.216835
0.220864
0.224685
0.228239
0.231463
0.23429
0.236656
0.23849
0.239721
0.240276
0.240075
0.239036
0.237068
0.234072
0.229941
0.224549
0.217759
0.209409
0.199313
0.187247
0.172957
0.156106
0.136373
0.113054
0.0863767
0.0532441
0.023817
0.141792
0.14416
0.148036
0.151361
0.153658
0.155458
0.157042
0.158372
0.159403
0.160167
0.160728
0.161132
0.161397
0.16154
0.161594
0.161597
0.161562
0.161493
0.161397
0.161287
0.161163
0.161021
0.160856
0.160663
0.160445
0.160204
0.159952
0.159706
0.15949
0.159336
0.159277
0.159349
0.159586
0.160016
0.160671
0.161574
0.16275
0.164208
0.165954
0.16799
0.170311
0.172912
0.17578
0.178904
0.182264
0.185839
0.189606
0.193534
0.19759
0.201738
0.205937
0.21014
0.214301
0.218367
0.222283
0.225992
0.229435
0.232551
0.235276
0.237544
0.239289
0.240441
0.240926
0.240666
0.239581
0.237581
0.234567
0.230433
0.225054
0.218294
0.209989
0.199955
0.187966
0.173764
0.157004
0.137359
0.114073
0.0873683
0.0538834
0.0241661
0.142102
0.144829
0.149004
0.152322
0.154584
0.156442
0.1581
0.159483
0.160565
0.161387
0.162008
0.162469
0.162792
0.162994
0.163109
0.163167
0.163186
0.163168
0.16312
0.163051
0.162965
0.162857
0.162723
0.16256
0.162371
0.16216
0.161939
0.161726
0.161544
0.161425
0.1614
0.161505
0.161772
0.162228
0.162903
0.16382
0.165001
0.166459
0.168197
0.170217
0.172516
0.175088
0.177921
0.181002
0.184313
0.187834
0.191539
0.1954
0.199384
0.203454
0.20757
0.211688
0.215759
0.219734
0.223559
0.227178
0.230532
0.233562
0.236204
0.238396
0.24007
0.241157
0.241587
0.241282
0.240161
0.238137
0.235111
0.230978
0.225615
0.218884
0.210623
0.200646
0.188727
0.174607
0.157934
0.138374
0.115129
0.0884336
0.0545862
0.0247239
0.142269
0.145435
0.149903
0.153184
0.155414
0.157329
0.159049
0.160476
0.161599
0.162471
0.163143
0.163654
0.164026
0.16428
0.164445
0.164552
0.164617
0.164644
0.164638
0.164607
0.164554
0.164477
0.164371
0.164236
0.164073
0.163889
0.163695
0.16351
0.163357
0.163266
0.16327
0.1634
0.163691
0.164166
0.164856
0.165782
0.166967
0.168421
0.170151
0.172157
0.174436
0.176982
0.179784
0.182829
0.186098
0.189572
0.193225
0.19703
0.200953
0.204958
0.209006
0.213054
0.217053
0.220955
0.224706
0.228252
0.231534
0.234493
0.237069
0.239197
0.240812
0.241847
0.24223
0.241887
0.240737
0.238693
0.235659
0.231529
0.226181
0.219478
0.211258
0.201336
0.189484
0.175443
0.158854
0.139387
0.116196
0.0895579
0.0553737
0.0254934
0.14232
0.146001
0.150734
0.153951
0.156158
0.158127
0.159897
0.161359
0.16252
0.163433
0.164149
0.164702
0.165117
0.165414
0.165623
0.165773
0.165879
0.165945
0.165975
0.165977
0.165954
0.165904
0.165824
0.165713
0.165573
0.165412
0.165241
0.165079
0.16495
0.164883
0.164909
0.165061
0.16537
0.16586
0.166561
0.167494
0.16868
0.170131
0.171852
0.173844
0.176105
0.178628
0.181403
0.184416
0.18765
0.191084
0.194694
0.198452
0.202326
0.206279
0.210272
0.214263
0.218204
0.222045
0.225735
0.229219
0.232439
0.235337
0.237853
0.239924
0.241487
0.242474
0.242817
0.24244
0.241266
0.239209
0.236172
0.23205
0.226722
0.220049
0.211873
0.202005
0.19022
0.176258
0.159754
0.140384
0.11726
0.0907131
0.056235
0.0264007
0.142275
0.146544
0.151496
0.15463
0.156824
0.158842
0.160654
0.162145
0.163337
0.164287
0.16504
0.16563
0.166081
0.166416
0.166663
0.16685
0.166991
0.167092
0.167154
0.167185
0.167188
0.167162
0.167104
0.167014
0.166894
0.166753
0.166601
0.166459
0.166349
0.166301
0.166345
0.166513
0.166838
0.167338
0.168046
0.168985
0.170171
0.171618
0.173331
0.175312
0.177557
0.180061
0.182813
0.185801
0.189005
0.192408
0.195983
0.199702
0.203535
0.207443
0.211389
0.215329
0.219215
0.223
0.226632
0.230056
0.233217
0.236058
0.238519
0.240541
0.242059
0.243009
0.243321
0.242923
0.241736
0.239674
0.236642
0.232535
0.227231
0.220593
0.212461
0.202648
0.190928
0.17704
0.16062
0.141347
0.118296
0.091864
0.0571476
0.0273763
0.142156
0.147076
0.15219
0.155228
0.157419
0.159483
0.161327
0.162842
0.164061
0.165041
0.165827
0.166448
0.166932
0.1673
0.16758
0.167799
0.167972
0.168102
0.168192
0.168248
0.168274
0.16827
0.168232
0.16816
0.168059
0.167934
0.1678
0.167674
0.167581
0.167549
0.167607
0.167788
0.168126
0.168634
0.169347
0.170287
0.171473
0.172916
0.174622
0.176593
0.178826
0.181315
0.184049
0.187014
0.190193
0.193565
0.197105
0.200786
0.204575
0.208436
0.212331
0.216218
0.22005
0.223781
0.227359
0.230731
0.233844
0.23664
0.23906
0.241046
0.242534
0.243459
0.243753
0.243344
0.242152
0.240092
0.237071
0.232981
0.227704
0.221101
0.213013
0.203253
0.191595
0.17778
0.161439
0.142261
0.119289
0.0929821
0.0580912
0.0283714
0.141978
0.147602
0.152815
0.155754
0.15795
0.160054
0.161927
0.163464
0.164707
0.165713
0.166525
0.167173
0.167684
0.168079
0.168388
0.168635
0.168836
0.168993
0.169108
0.169186
0.169233
0.169246
0.169225
0.169169
0.169082
0.168972
0.168852
0.16874
0.16866
0.16864
0.168711
0.168902
0.169251
0.16977
0.17049
0.171433
0.172618
0.174057
0.175755
0.177713
0.179929
0.182396
0.185103
0.188038
0.191183
0.194518
0.198019
0.201658
0.205404
0.209222
0.213073
0.216916
0.220705
0.224394
0.227932
0.231267
0.234344
0.237107
0.239499
0.241459
0.242926
0.243835
0.244119
0.243705
0.242514
0.240462
0.237455
0.233386
0.228137
0.22157
0.213524
0.203815
0.192217
0.17847
0.162205
0.143118
0.120226
0.0940488
0.0590491
0.0293565
0.141757
0.148123
0.153371
0.156223
0.158428
0.160558
0.16245
0.164006
0.165272
0.166304
0.16714
0.167813
0.168348
0.168767
0.1691
0.169371
0.169595
0.169776
0.169912
0.170011
0.170076
0.170108
0.170103
0.170063
0.16999
0.169893
0.169785
0.169684
0.169614
0.169604
0.169683
0.169882
0.170224
0.170743
0.17146
0.172395
0.173569
0.174993
0.176674
0.178613
0.180806
0.183248
0.18593
0.188837
0.191953
0.195258
0.198728
0.202335
0.206048
0.209833
0.21365
0.21746
0.221217
0.224873
0.228381
0.231686
0.234737
0.237476
0.239847
0.241791
0.243245
0.244146
0.244426
0.244012
0.242828
0.240787
0.237797
0.233751
0.228531
0.221998
0.213995
0.204334
0.192791
0.17911
0.162917
0.143915
0.121104
0.0950523
0.060005
0.0303147
0.141509
0.148639
0.153845
0.156639
0.158872
0.161027
0.16293
0.164496
0.165775
0.166824
0.167681
0.168375
0.168932
0.169375
0.16973
0.170023
0.170269
0.170468
0.170621
0.170734
0.170811
0.170852
0.170855
0.170821
0.170753
0.170659
0.170554
0.170455
0.170386
0.170375
0.170453
0.170647
0.170984
0.171499
0.172209
0.173136
0.1743
0.175713
0.177381
0.179305
0.181483
0.183907
0.186569
0.189455
0.192549
0.19583
0.199275
0.202856
0.206543
0.210301
0.214092
0.217876
0.221607
0.225239
0.228724
0.232008
0.23504
0.237763
0.240121
0.242054
0.243502
0.2444
0.24468
0.244272
0.243097
0.24107
0.238099
0.234076
0.228884
0.222386
0.214422
0.204807
0.193316
0.179694
0.163568
0.144646
0.121915
0.0959801
0.0609361
0.0312308
0.141244
0.14918
0.154235
0.156956
0.159227
0.16142
0.163348
0.164935
0.166231
0.167295
0.168164
0.168868
0.169434
0.169887
0.170251
0.170553
0.170808
0.171015
0.171175
0.171293
0.171374
0.171419
0.171424
0.171392
0.171325
0.171233
0.171129
0.171031
0.170963
0.170954
0.171033
0.17123
0.171564
0.172077
0.172783
0.173703
0.17486
0.176264
0.177922
0.179834
0.181998
0.184408
0.187054
0.189923
0.192998
0.19626
0.199685
0.203246
0.206913
0.21065
0.214421
0.218185
0.221897
0.225512
0.22898
0.23225
0.235269
0.237982
0.240332
0.24226
0.243705
0.244604
0.244889
0.244488
0.243324
0.241312
0.238359
0.23436
0.229195
0.222728
0.2148
0.205227
0.193784
0.180215
0.164149
0.145298
0.122641
0.0968144
0.061805
0.0320843
0.140917
0.149813
0.15471
0.157309
0.159561
0.161746
0.163672
0.16526
0.166561
0.167631
0.168506
0.169215
0.169787
0.170244
0.170614
0.170922
0.171182
0.171395
0.17156
0.171682
0.171767
0.171816
0.171825
0.171796
0.171732
0.171642
0.171539
0.171443
0.171376
0.171365
0.171442
0.171639
0.171974
0.172488
0.173192
0.174109
0.17526
0.176659
0.178309
0.180212
0.182368
0.184768
0.187402
0.190259
0.193321
0.19657
0.19998
0.203527
0.207178
0.210901
0.214658
0.218407
0.222107
0.22571
0.229167
0.232428
0.23544
0.238148
0.240495
0.242422
0.24387
0.244773
0.245065
0.244673
0.243522
0.241525
0.238591
0.234614
0.229475
0.223038
0.215143
0.205608
0.194206
0.180684
0.16467
0.145879
0.123287
0.0975588
0.0626002
0.0329001
0.14021
0.149983
0.154987
0.157598
0.159855
0.162031
0.163938
0.165518
0.166816
0.167889
0.16877
0.169488
0.170068
0.170535
0.170914
0.171232
0.171503
0.171727
0.171901
0.172032
0.172124
0.172179
0.172195
0.172171
0.172113
0.172028
0.17193
0.171837
0.171773
0.171766
0.171846
0.172045
0.172382
0.172895
0.173594
0.174504
0.175649
0.177038
0.178679
0.18057
0.18271
0.185096
0.187716
0.190558
0.193604
0.196836
0.200231
0.203761
0.207396
0.211104
0.214846
0.218582
0.222269
0.225862
0.229311
0.232565
0.235573
0.238278
0.240626
0.242557
0.24401
0.244922
0.245227
0.244851
0.243719
0.241744
0.238834
0.234884
0.229777
0.223375
0.21552
0.206028
0.194675
0.181208
0.165256
0.146538
0.12402
0.0984144
0.0635211
0.0339597
)
;

boundaryField
{
    inlet
    {
        type            zeroGradient;
    }
    outlet
    {
        type            fixedValue;
        value           uniform 0;
    }
    fixedWalls
    {
        type            zeroGradient;
    }
    frontAndBack
    {
        type            empty;
    }
}


// ************************************************************************* //
