/*--------------------------------*- C++ -*----------------------------------*\
| =========                 |                                                 |
| \\      /  F ield         | OpenFOAM: The Open Source CFD Toolbox           |
|  \\    /   O peration     | Version:  v1912                                 |
|   \\  /    A nd           | Website:  www.openfoam.com                      |
|    \\/     M anipulation  |                                                 |
\*---------------------------------------------------------------------------*/
FoamFile
{
    version     2.0;
    format      ascii;
    class       surfaceScalarField;
    location    "150";
    object      phi;
}
// * * * * * * * * * * * * * * * * * * * * * * * * * * * * * * * * * * * * * //

dimensions      [0 3 -1 0 0 0 0];
oriented        oriented;


internalField   nonuniform List<scalar> 
3895
(
0.000812961
0.000383216
0.000495762
0.000317199
0.000248404
0.000247358
6.45001e-05
0.000183904
-5.65423e-05
0.000121042
-0.000113284
5.67419e-05
-0.000118881
5.59729e-06
-9.84888e-05
-2.03927e-05
-9.70137e-05
-1.47513e-06
-8.96657e-05
-7.34804e-06
-7.78471e-05
-1.18185e-05
-8.24005e-05
4.55335e-06
-9.84679e-05
1.60675e-05
-0.000108968
1.04999e-05
-0.000113974
5.00656e-06
-0.000120834
6.85938e-06
-0.000131178
1.03439e-05
-0.000143272
1.20947e-05
-0.000156327
1.30548e-05
-0.000170593
1.42659e-05
-0.000186688
1.60952e-05
-0.000205228
1.85399e-05
-0.000226772
2.15444e-05
-0.000251798
2.50257e-05
-0.000280601
2.88032e-05
-0.000313184
3.2583e-05
-0.000349187
3.60031e-05
-0.000387892
3.87047e-05
-0.000428221
4.03288e-05
-0.000468877
4.06559e-05
-0.000508503
3.96262e-05
-0.000545815
3.7312e-05
-0.000579704
3.3889e-05
-0.000609299
2.95951e-05
-0.000633985
2.46861e-05
-0.000653389
1.94041e-05
-0.000667356
1.39666e-05
-0.00067586
8.50404e-06
-0.000678703
2.84343e-06
-0.000676779
-1.92477e-06
-0.000671259
-5.5197e-06
-0.00066223
-9.02915e-06
-0.000649815
-1.24152e-05
-0.000634078
-1.57365e-05
-0.000615048
-1.90296e-05
-0.000592743
-2.2305e-05
-0.000567187
-2.55564e-05
-0.00053842
-2.8767e-05
-0.000506506
-3.19138e-05
-0.000471536
-3.49705e-05
-0.000433626
-3.79094e-05
-0.000392925
-4.07017e-05
-0.000349609
-4.33155e-05
-0.000303856
-4.57528e-05
-0.000255871
-4.7985e-05
-0.000205899
-4.99718e-05
-0.000154207
-5.16922e-05
-0.000101082
-5.31249e-05
-4.68351e-05
-5.42471e-05
8.20661e-06
-5.50417e-05
6.38369e-05
-5.56303e-05
0.000119893
-5.60563e-05
0.000176025
-5.61322e-05
0.000231919
-5.58932e-05
0.000287286
-5.53672e-05
0.000341865
-5.45789e-05
0.000395417
-5.35527e-05
0.000447733
-5.23154e-05
0.000498629
-5.08968e-05
0.00054796
-4.93303e-05
0.000595615
-4.76549e-05
0.000641532
-4.59177e-05
0.000685715
-4.41827e-05
0.000728254
-4.25393e-05
0.000769403
-4.11487e-05
0.000809655
-4.02517e-05
0.000850111
-4.04565e-05
0.000892903
-4.27916e-05
0.000941544
-4.86415e-05
-7.35815e-05
0.00108704
0.000351983
0.00104376
0.000360478
0.000925074
0.000366047
0.000762339
0.000346638
0.000579127
0.000304255
0.00038438
0.000251489
0.000193982
0.000195995
3.77124e-05
0.000135877
-4.63982e-05
8.26354e-05
-8.25372e-05
2.8791e-05
-9.21193e-05
-2.2364e-06
-8.175e-05
-5.81597e-06
-8.54979e-05
1.98153e-05
-9.30049e-05
1.80069e-05
-9.85435e-05
1.05452e-05
-0.000109519
1.78349e-05
-0.00012203
2.28551e-05
-0.000134587
2.46511e-05
-0.000146838
2.53063e-05
-0.000159449
2.68762e-05
-0.0001728
2.94463e-05
-0.000186953
3.26937e-05
-0.000201843
3.64338e-05
-0.000217357
4.05397e-05
-0.000233321
4.47676e-05
-0.000249435
4.86964e-05
-0.000265237
5.18057e-05
-0.000280133
5.36006e-05
-0.000293518
5.37139e-05
-0.000304846
5.19838e-05
-0.000313696
4.84764e-05
-0.000319817
4.34328e-05
-0.000323135
3.72072e-05
-0.000323745
3.02044e-05
-0.000321885
2.28269e-05
-0.000317904
1.54231e-05
-0.000312231
8.29327e-06
-0.000305675
1.9479e-06
-0.000298274
-4.55731e-06
-0.000289849
-1.03498e-05
-0.000279713
-1.56553e-05
-0.000267828
-2.09145e-05
-0.000254014
-2.6229e-05
-0.000238138
-3.16129e-05
-0.000220115
-3.70525e-05
-0.000199902
-4.25178e-05
-0.00017749
-4.79683e-05
-0.000152899
-5.33583e-05
-0.000126174
-5.86388e-05
-9.73846e-05
-6.37597e-05
-6.66227e-05
-6.86713e-05
-3.39987e-05
-7.33257e-05
3.64171e-07
-7.76784e-05
3.62894e-05
-8.1678e-05
7.3594e-05
-8.52897e-05
0.000112095
-8.84733e-05
0.000151598
-9.11949e-05
0.0001919
-9.34273e-05
0.000232806
-9.51522e-05
0.000274132
-9.63686e-05
0.0003156
-9.70976e-05
0.000356882
-9.73387e-05
0.000397822
-9.70724e-05
0.000438242
-9.63127e-05
0.000477964
-9.50895e-05
0.000516824
-9.34384e-05
0.000554671
-9.14004e-05
0.000591378
-8.9022e-05
0.000626837
-8.63555e-05
0.000660966
-8.34596e-05
0.000693712
-8.04012e-05
0.000725054
-7.72597e-05
0.000755008
-7.41368e-05
0.00078364
-7.11711e-05
0.000811068
-6.85768e-05
0.000837495
-6.66784e-05
0.000863137
-6.60982e-05
0.000888036
-6.76908e-05
0.000912085
-7.26911e-05
-8.9142e-05
0.00097612
0.000307778
0.00102675
0.000309846
0.00105929
0.000333513
0.0010521
0.000353825
0.000998532
0.000357822
0.000903274
0.000346748
0.000775391
0.000323877
0.000621713
0.000289555
0.000458981
0.000245368
0.000292333
0.000195439
0.000143951
0.000146146
3.99447e-05
9.81901e-05
-3.45787e-06
6.32179e-05
-1.98325e-05
3.43815e-05
-2.9762e-05
2.04747e-05
-3.67957e-05
2.48686e-05
-4.57696e-05
3.18291e-05
-5.53944e-05
3.42759e-05
-6.41205e-05
3.40324e-05
-7.15193e-05
3.4275e-05
-7.77573e-05
3.56842e-05
-8.28722e-05
3.78086e-05
-8.66294e-05
4.0191e-05
-8.89096e-05
4.28199e-05
-8.97221e-05
4.558e-05
-8.91532e-05
4.81275e-05
-8.73273e-05
4.99799e-05
-8.43965e-05
5.06698e-05
-8.05449e-05
4.98622e-05
-7.59754e-05
4.74143e-05
-7.0878e-05
4.33789e-05
-6.54064e-05
3.79613e-05
-5.96609e-05
3.14616e-05
-5.3674e-05
2.42175e-05
-4.74184e-05
1.65713e-05
-4.08173e-05
8.822e-06
-3.35155e-05
9.91484e-07
-2.53521e-05
-6.21544e-06
-1.65275e-05
-1.33819e-05
-6.56172e-06
-2.03156e-05
4.86931e-06
-2.70864e-05
1.77825e-05
-3.38277e-05
3.21626e-05
-4.06091e-05
4.79938e-05
-4.74442e-05
6.5256e-05
-5.43147e-05
8.39216e-05
-6.11833e-05
0.000103954
-6.80003e-05
0.000125304
-7.4709e-05
0.000147914
-8.12486e-05
0.000171711
-8.75564e-05
0.000196609
-9.35697e-05
0.000222511
-9.92273e-05
0.000249302
-0.00010447
0.000276865
-0.000109241
0.000305065
-0.000113489
0.000333759
-0.000117168
0.000362806
-0.000120241
0.000392057
-0.000122679
0.000421367
-0.000124462
0.000450586
-0.000125587
0.000479548
-0.000126059
0.000508097
-0.000125889
0.000536113
-0.000125088
0.000563482
-0.000123682
0.000590104
-0.000121712
0.00061589
-0.000119224
0.000640764
-0.000116275
0.000664669
-0.000112927
0.000687561
-0.000109247
0.000709413
-0.000105311
0.000730212
-0.000101201
0.000749961
-9.70085e-05
0.000768672
-9.28476e-05
0.000786364
-8.88628e-05
0.00080304
-8.52528e-05
0.000818675
-8.23135e-05
0.000833044
-8.04672e-05
0.00084577
-8.04172e-05
0.000855672
-8.25933e-05
-9.13392e-05
0.000857367
0.000272968
0.000897591
0.000269622
0.000949744
0.00028136
0.00100252
0.000301046
0.00104093
0.000319417
0.00105505
0.000332624
0.00103973
0.000339196
0.000991877
0.000337411
0.000912109
0.000325135
0.000804828
0.000302721
0.000678032
0.000272941
0.000538932
0.00023729
0.000404097
0.000198053
0.000282056
0.000156423
0.000184575
0.000117955
0.000122651
8.67923e-05
9.23514e-05
6.2129e-05
7.8569e-05
4.80582e-05
7.03282e-05
4.22732e-05
6.40641e-05
4.05391e-05
5.95913e-05
4.01571e-05
5.74785e-05
3.99213e-05
5.79472e-05
3.97224e-05
6.09799e-05
3.97872e-05
6.64144e-05
4.01456e-05
7.39793e-05
4.05625e-05
8.32986e-05
4.06606e-05
9.39144e-05
4.0054e-05
0.000105338
3.84386e-05
0.000117113
3.56392e-05
0.000128869
3.16232e-05
0.000140353
2.64772e-05
0.000151438
2.03767e-05
0.000162121
1.35343e-05
0.000172509
6.18307e-06
0.000182818
-1.48633e-06
0.000193077
-9.26784e-06
0.000203903
-1.70413e-05
0.000215312
-2.47917e-05
0.00022748
-3.24835e-05
0.000240516
-4.01223e-05
0.000254434
-4.77457e-05
0.000269202
-5.53767e-05
0.00028477
-6.30121e-05
0.000301082
-7.06271e-05
0.00031808
-7.81814e-05
0.000335703
-8.56228e-05
0.000353885
-9.28914e-05
0.000372559
-9.99225e-05
0.000391651
-0.000106649
0.000411083
-0.000113002
0.000430771
-0.000118915
0.000450625
-0.000124324
0.000470554
-0.00012917
0.000490463
-0.000133397
0.000510254
-0.00013696
0.000529834
-0.000139821
0.00054911
-0.000141954
0.000567991
-0.000143344
0.000586393
-0.000143989
0.000604235
-0.000143901
0.000621445
-0.000143099
0.000637969
-0.000141612
0.000653766
-0.000139479
0.000668806
-0.000136752
0.000683072
-0.000133489
0.000696556
-0.000129759
0.000709262
-0.000125633
0.000721201
-0.000121187
0.000732394
-0.000116504
0.000742861
-0.000111668
0.000752627
-0.000106775
0.000761707
-0.000101928
0.000770099
-9.72548e-05
0.000777759
-9.29124e-05
0.00078457
-8.91245e-05
0.000790241
-8.61385e-05
0.000794289
-8.44648e-05
0.000795773
-8.40777e-05
-8.70753e-05
0.00075912
0.000239882
0.000789427
0.000239314
0.000826159
0.000244629
0.000871843
0.000255362
0.000923023
0.000268237
0.00097374
0.000281907
0.00101719
0.000295742
0.00104667
0.000307932
0.00105607
0.00031574
0.00104154
0.000317247
0.00100233
0.000312153
0.000938962
0.000300658
0.000854807
0.000282208
0.000754483
0.000256747
0.000645779
0.000226659
0.000538119
0.000194452
0.000444732
0.000155516
0.00037199
0.0001208
0.000320652
9.36119e-05
0.000287601
7.35894e-05
0.000268041
5.97179e-05
0.000257412
5.05498e-05
0.000252575
4.4559e-05
0.000251876
4.04863e-05
0.000254564
3.74574e-05
0.000260218
3.49089e-05
0.000268419
3.24594e-05
0.000278662
2.98118e-05
0.000290383
2.67175e-05
0.000303033
2.29886e-05
0.000316136
1.85208e-05
0.000329324
1.3289e-05
0.000342341
7.35921e-06
0.000355069
8.07087e-07
0.000367513
-6.26132e-06
0.000379762
-1.37351e-05
0.000391958
-2.14636e-05
0.000404253
-2.93368e-05
0.000416742
-3.72804e-05
0.000429505
-4.5247e-05
0.000442591
-5.3208e-05
0.000455998
-6.11528e-05
0.000469691
-6.90701e-05
0.000483617
-7.69379e-05
0.000497712
-8.47223e-05
0.00051191
-9.2379e-05
0.000526141
-9.98543e-05
0.000540338
-0.000107088
0.000554431
-0.000114016
0.000568352
-0.000120569
0.000582032
-0.000126681
0.000595402
-0.000132285
0.000608396
-0.000137318
0.000620948
-0.000141722
0.000632998
-0.000145447
0.000644488
-0.00014845
0.000655369
-0.000150702
0.000665597
-0.000152182
0.000675137
-0.000152884
0.000683964
-0.000152816
0.00069206
-0.000151997
0.000699421
-0.00015046
0.000706054
-0.000148245
0.000711978
-0.000145404
0.000717224
-0.000141997
0.000721828
-0.000138094
0.000725836
-0.000133767
0.000729296
-0.000129093
0.000732259
-0.000124151
0.000734777
-0.000119021
0.000736895
-0.000113787
0.000738652
-0.000108531
0.000740068
-0.000103344
0.000741137
-9.83243e-05
0.000741804
-9.35796e-05
0.000741939
-8.92588e-05
0.000741267
-8.54671e-05
0.000739333
-8.25308e-05
0.000735515
-8.02597e-05
-7.90122e-05
0.000671951
0.000208767
0.000700419
0.000210846
0.000729694
0.000215354
0.0007626
0.000222456
0.000800447
0.00023039
0.000843566
0.000238789
0.000890928
0.00024838
0.000939717
0.000259143
0.000985494
0.000269963
0.00102328
0.000279461
0.00104885
0.000286581
0.00105907
0.000290438
0.00105147
0.000289809
0.00102463
0.000283591
0.00097942
0.000271866
0.000918509
0.000255363
0.000849025
0.000225
0.000777558
0.000192268
0.000709365
0.000161804
0.00064852
0.000134435
0.000597654
0.000110583
0.000557842
9.03625e-05
0.000528746
7.36548e-05
0.000509077
6.01552e-05
0.000497142
4.93924e-05
0.000491279
4.07715e-05
0.000490085
3.36534e-05
0.000492454
2.74431e-05
0.000497521
2.16508e-05
0.00050459
1.5919e-05
0.000513089
1.00221e-05
0.000522571
3.80683e-06
0.000532654
-2.72325e-06
0.000543038
-9.57711e-06
0.000553603
-1.6827e-05
0.000564229
-2.4361e-05
0.000574869
-3.21032e-05
0.000585511
-3.99787e-05
0.000596156
-4.79256e-05
0.000606804
-5.58949e-05
0.000617443
-6.38472e-05
0.000628042
-7.17519e-05
0.000638552
-7.95801e-05
0.000648913
-8.72984e-05
0.000659057
-9.48665e-05
0.000668915
-0.000102237
0.000678417
-0.000109357
0.000687495
-0.000116166
0.000696083
-0.000122603
0.000704118
-0.000128604
0.000711541
-0.000134105
0.000718301
-0.000139045
0.000724349
-0.000143366
0.000729647
-0.00014702
0.000734164
-0.000149964
0.000737878
-0.000152165
0.00074078
-0.000153604
0.000742871
-0.000154272
0.000744162
-0.000154175
0.000744678
-0.000153332
0.000744455
-0.000151774
0.000743536
-0.000149542
0.00074198
-0.000146688
0.000739849
-0.000143273
0.000737214
-0.000139363
0.00073415
-0.000135029
0.000730731
-0.000130348
0.000727031
-0.000125393
0.000723122
-0.000120241
0.000719068
-0.000114967
0.000714922
-0.000109641
0.000710728
-0.000104337
0.000706506
-9.91219e-05
0.000702249
-9.40676e-05
0.000697904
-8.9235e-05
0.000693352
-8.47062e-05
0.000688361
-8.04764e-05
0.000682527
-7.66966e-05
0.000675452
-7.31849e-05
-6.8801e-05
0.00059375
0.000180655
0.000620765
0.000183831
0.000647711
0.000188407
0.000675584
0.000194583
0.000704951
0.000201023
0.0007367
0.000207041
0.000771992
0.000213088
0.000811462
0.000219673
0.000854614
0.00022681
0.000899803
0.000234272
0.000944608
0.000241777
0.000986207
0.000248839
0.00102145
0.000254564
0.00104722
0.000257823
0.00106117
0.000257914
0.001062
0.00025454
0.00104992
0.000237072
0.00102706
0.000215133
0.000996052
0.000192811
0.000959733
0.000170754
0.00092086
0.000149457
0.000881943
0.000129279
0.000845125
0.000110473
0.000812072
9.32079e-05
0.000783908
7.75564e-05
0.000761183
6.34962e-05
0.00074392
5.09171e-05
0.000731723
3.96402e-05
0.000723934
2.94399e-05
0.000719783
2.00692e-05
0.000718519
1.12862e-05
0.000719462
2.86399e-06
0.000722059
-5.32017e-06
0.000725866
-1.33841e-05
0.000730483
-2.14435e-05
0.000735653
-2.95314e-05
0.000741188
-3.76386e-05
0.000746946
-4.57361e-05
0.000752811
-5.37909e-05
0.000758688
-6.17714e-05
0.00076449
-6.96492e-05
0.000770135
-7.73973e-05
0.000775543
-8.49878e-05
0.000780632
-9.23875e-05
0.000785323
-9.95571e-05
0.000789537
-0.000106451
0.0007932
-0.00011302
0.000796242
-0.000119208
0.000798598
-0.00012496
0.000800214
-0.00013022
0.000801042
-0.000134933
0.000801045
-0.000139047
0.000800196
-0.000142518
0.000798484
-0.000145308
0.000795907
-0.000147387
0.000792478
-0.000148736
0.000788225
-0.000149351
0.000783187
-0.000149235
0.000777418
-0.000148406
0.000770982
-0.000146896
0.000763952
-0.000144743
0.000756409
-0.000141999
0.00074844
-0.00013872
0.000740136
-0.000134969
0.000731587
-0.000130813
0.00072288
-0.000126323
0.0007141
-0.000121568
0.000705324
-0.000116617
0.000696621
-0.000111538
0.00068805
-0.000106396
0.00067966
-0.000101251
0.000671483
-9.61597e-05
0.000663533
-9.11723e-05
0.0006558
-8.63343e-05
0.000648234
-8.16688e-05
0.00064073
-7.72024e-05
0.000633106
-7.28525e-05
0.000625004
-6.85941e-05
0.000616181
-6.43624e-05
-5.76647e-05
0.000524267
0.000155649
0.000548877
0.000159221
0.000573654
0.00016363
0.0005991
0.000169137
0.000625165
0.000174957
0.000651834
0.000180372
0.000679577
0.000185346
0.000709166
0.000190083
0.00074132
0.000194657
0.000776469
0.000199123
0.000814601
0.000203644
0.00085513
0.000208309
0.000896801
0.000212894
0.000937759
0.000216865
0.000975928
0.000219744
0.00100934
0.00022113
0.00103518
0.000211229
0.00105277
0.00019754
0.00106242
0.000183159
0.00106484
0.000168343
0.00106094
0.00015335
0.00105182
0.000138403
0.00103861
0.000123682
0.00102249
0.000109329
0.00100461
9.54395e-05
0.000986038
8.20634e-05
0.000967744
6.92115e-05
0.000950513
5.68715e-05
0.000934933
4.50198e-05
0.000921374
3.36284e-05
0.000909998
2.26619e-05
0.000900774
1.2088e-05
0.000893593
1.86062e-06
0.000888333
-8.12408e-06
0.000884668
-1.77784e-05
0.000882213
-2.70763e-05
0.00088062
-3.6046e-05
0.000879603
-4.47191e-05
0.000878933
-5.3121e-05
0.000878429
-6.12671e-05
0.000877941
-6.91614e-05
0.000877341
-7.67972e-05
0.000876512
-8.41587e-05
0.000875346
-9.12219e-05
0.000873745
-9.79554e-05
0.000871616
-0.000104323
0.000868881
-0.000110284
0.000865469
-0.000115796
0.000861323
-0.000120815
0.000856402
-0.000125298
0.000850675
-0.000129206
0.00084413
-0.000132501
0.000836766
-0.000135155
0.000828603
-0.000137144
0.000819671
-0.000138455
0.00081002
-0.000139085
0.00079971
-0.000139041
0.000788815
-0.00013834
0.000777419
-0.00013701
0.000765611
-0.000135089
0.000753489
-0.000132621
0.000741148
-0.000129658
0.000728685
-0.000126256
0.000716191
-0.000122475
0.000703754
-0.000118376
0.000691452
-0.000114021
0.000679355
-0.000109471
0.000667524
-0.000104786
0.000656009
-0.000100023
0.000644849
-9.52365e-05
0.000634073
-9.04751e-05
0.000623697
-8.57832e-05
0.00061372
-8.11961e-05
0.000604126
-7.67398e-05
0.000594868
-7.24106e-05
0.000585856
-6.81905e-05
0.000576955
-6.39519e-05
0.000567849
-5.94883e-05
0.000558416
-5.4929e-05
-4.65249e-05
0.000462815
0.000133509
0.000484787
0.000137249
0.000507026
0.000141391
0.000529983
0.00014618
0.000553645
0.000151295
0.000577782
0.000156234
0.000602316
0.000160812
0.000627367
0.000165032
0.000653194
0.00016883
0.000680186
0.000172131
0.000708827
0.000175004
0.000739542
0.000177594
0.0007725
0.000179936
0.000807461
0.000181903
0.000843822
0.000183383
0.000880691
0.000184262
0.000915428
0.000176492
0.000946756
0.000166212
0.000974127
0.000155788
0.000997248
0.000145221
0.00101605
0.000134554
0.00103061
0.000123836
0.00104117
0.000113124
0.00104803
0.000102468
0.00105156
9.19061e-05
0.00105218
8.14519e-05
0.00105029
7.10986e-05
0.00104633
6.08286e-05
0.00104073
5.06242e-05
0.00103388
4.04749e-05
0.00102616
3.03812e-05
0.0010179
2.0354e-05
0.00100932
1.04407e-05
0.00100056
6.32242e-07
0.000991937
-9.15638e-06
0.00098362
-1.87592e-05
0.000975708
-2.81335e-05
0.000968203
-3.72148e-05
0.000961038
-4.59561e-05
0.000954097
-5.43259e-05
0.00094724
-6.23041e-05
0.000940321
-6.98785e-05
0.000933203
-7.70402e-05
0.000925761
-8.37797e-05
0.00091789
-9.00843e-05
0.000909503
-9.59369e-05
0.000900536
-0.000101316
0.000890937
-0.000106198
0.000880678
-0.000110556
0.000869743
-0.000114364
0.000858137
-0.000117599
0.000845878
-0.000120243
0.000833002
-0.000122279
0.00081956
-0.000123702
0.000805617
-0.000124512
0.000791248
-0.000124716
0.000776539
-0.000124332
0.000761583
-0.000123383
0.000746473
-0.0001219
0.000731304
-0.00011992
0.000716168
-0.000117485
0.000701152
-0.000114642
0.000686334
-0.000111438
0.000671785
-0.000107925
0.000657563
-0.000104154
0.00064372
-0.000100177
0.000630295
-9.60458e-05
0.000617319
-9.181e-05
0.000604814
-8.75182e-05
0.000592793
-8.32156e-05
0.000581261
-7.89434e-05
0.000570215
-7.47375e-05
0.000559643
-7.06236e-05
0.000549519
-6.66156e-05
0.000539803
-6.26942e-05
0.000530419
-5.88074e-05
0.00052128
-5.48122e-05
0.000512112
-5.03206e-05
0.000502891
-4.57079e-05
-3.60568e-05
0.000408523
0.000113949
0.000428003
0.00011777
0.000447764
0.00012163
0.000468176
0.000125768
0.000489295
0.000130175
0.000511007
0.000134522
0.000533211
0.000138608
0.000555824
0.00014242
0.000578762
0.000145892
0.000602005
0.000148888
0.000625662
0.000151348
0.000649969
0.000153287
0.000675209
0.000154696
0.000701608
0.000155504
0.000729299
0.000155692
0.000758273
0.000155288
0.00078703
0.000147736
0.000814845
0.000138397
0.000841346
0.000129287
0.000866199
0.000120368
0.000889136
0.000111616
0.000909965
0.000103007
0.000928569
9.45195e-05
0.000944901
8.61363e-05
0.000958968
7.7839e-05
0.000970819
6.96008e-05
0.000980531
6.13865e-05
0.0009882
5.31592e-05
0.000993938
4.48871e-05
0.000997863
3.65493e-05
0.0010001
2.81396e-05
0.00100079
1.96676e-05
0.00100006
1.11682e-05
0.000997977
2.71855e-06
0.000994508
-5.68686e-06
0.000989713
-1.39639e-05
0.000983684
-2.21052e-05
0.000976542
-3.00722e-05
0.000968406
-3.78202e-05
0.000959389
-4.53095e-05
0.00094959
-5.25049e-05
0.000939086
-5.93744e-05
0.000927935
-6.58888e-05
0.000916175
-7.20205e-05
0.000903834
-7.77433e-05
0.000890929
-8.3032e-05
0.000877476
-8.78626e-05
0.000863491
-9.22132e-05
0.000849
-9.60644e-05
0.000834036
-9.93997e-05
0.000818643
-0.000102206
0.000802877
-0.000104476
0.000786803
-0.000106205
0.000770496
-0.000107396
0.000754038
-0.000108053
0.000737512
-0.00010819
0.000721004
-0.000107824
0.000704595
-0.000106975
0.000688365
-0.00010567
0.000672383
-0.000103938
0.000656713
-0.000101815
0.000641407
-9.9336e-05
0.00062651
-9.65407e-05
0.000612055
-9.34707e-05
0.00059807
-9.01688e-05
0.000584572
-8.6679e-05
0.000571571
-8.30456e-05
0.000559074
-7.93123e-05
0.000547077
-7.55219e-05
0.000535576
-7.17146e-05
0.00052456
-6.79271e-05
0.000514014
-6.41908e-05
0.000503917
-6.05269e-05
0.000494244
-5.69425e-05
0.000484962
-5.34124e-05
0.000476015
-4.98605e-05
0.000467352
-4.61496e-05
0.00045876
-4.17283e-05
0.000450278
-3.72256e-05
-2.67345e-05
0.000360569
9.67006e-05
0.000377775
0.000100563
0.000395283
0.000104123
0.00041336
0.000107691
0.000432046
0.000111489
0.000451303
0.000115266
0.000471103
0.000118807
0.000491402
0.000122121
0.000512106
0.000125188
0.000533093
0.000127901
0.000554266
0.000130174
0.000575585
0.000131969
0.000597058
0.000133222
0.00061873
0.000133832
0.000640688
0.000133734
0.000663039
0.000132936
0.000684879
0.000125896
0.000705957
0.000117319
0.000726252
0.000108992
0.000745696
0.000100924
0.000764196
9.31163e-05
0.000781653
8.55508e-05
0.00079797
7.82017e-05
0.000813068
7.10389e-05
0.000826879
6.40279e-05
0.000839352
5.71274e-05
0.000850448
5.02909e-05
0.000860134
4.34728e-05
0.000868388
3.66335e-05
0.000875193
2.97443e-05
0.000880542
2.27904e-05
0.000884436
1.57737e-05
0.00088689
8.71362e-06
0.000887954
1.65476e-06
0.000887641
-5.37386e-06
0.000886006
-1.2329e-05
0.000883076
-1.91745e-05
0.00087888
-2.58769e-05
0.000873459
-3.23989e-05
0.000866857
-3.8707e-05
0.000859124
-4.47718e-05
0.000850317
-5.05678e-05
0.0008405
-5.60717e-05
0.000829741
-6.12621e-05
0.000818117
-6.61185e-05
0.000805706
-7.06213e-05
0.000792595
-7.47515e-05
0.000778873
-7.84912e-05
0.000764632
-8.18239e-05
0.000749968
-8.47349e-05
0.000734973
-8.7212e-05
0.000719743
-8.92458e-05
0.000704367
-9.08298e-05
0.000688933
-9.19612e-05
0.000673521
-9.2641e-05
0.000658205
-9.28743e-05
0.000643051
-9.26701e-05
0.000628119
-9.20421e-05
0.000613457
-9.10081e-05
0.000599109
-8.95903e-05
0.000585109
-8.7815e-05
0.000571485
-8.57124e-05
0.00055826
-8.33156e-05
0.00054545
-8.06606e-05
0.000533067
-7.77854e-05
0.000521117
-7.47292e-05
0.000509603
-7.15317e-05
0.000498523
-6.82325e-05
0.000487872
-6.48704e-05
0.000477639
-6.14821e-05
0.000467813
-5.81008e-05
0.000458377
-5.47551e-05
0.000449314
-5.14638e-05
0.000440603
-4.82307e-05
0.00043222
-4.50299e-05
0.000424131
-4.17717e-05
0.000416312
-3.83307e-05
0.00040863
-3.40462e-05
0.000401101
-2.96961e-05
-1.8883e-05
0.000318219
8.15149e-05
0.000333377
8.54048e-05
0.000348865
8.86346e-05
0.000364862
9.16941e-05
0.000381372
9.49792e-05
0.000398382
9.82555e-05
0.000415889
0.0001013
0.000433878
0.000104132
0.000452303
0.000106763
0.000471093
0.000109112
0.000490157
0.00011111
0.000509402
0.000112724
0.000528729
0.000113895
0.000548039
0.000114522
0.000567254
0.00011452
0.000586334
0.000113856
0.000604463
0.000107767
0.000621487
0.000100295
0.000637493
9.29867e-05
0.000652543
8.58741e-05
0.00066668
7.89795e-05
0.000679924
7.23065e-05
0.00069228
6.58451e-05
0.000703742
5.9577e-05
0.000714294
5.34759e-05
0.000723914
4.75076e-05
0.000732573
4.16322e-05
0.000740237
3.5809e-05
0.000746868
3.0002e-05
0.000752428
2.4184e-05
0.00075688
1.8339e-05
0.000760189
1.24642e-05
0.000762332
6.57122e-06
0.000763319
6.67359e-07
0.000763162
-5.21709e-06
0.0007619
-1.10663e-05
0.000759554
-1.6829e-05
0.000756155
-2.24777e-05
0.00075174
-2.7984e-05
0.000746354
-3.33212e-05
0.000740048
-3.84655e-05
0.000732876
-4.33958e-05
0.000724897
-4.80928e-05
0.000716173
-5.25383e-05
0.000706769
-5.67144e-05
0.000696751
-6.06034e-05
0.000686188
-6.41878e-05
0.000675147
-6.74505e-05
0.000663698
-7.0375e-05
0.000651909
-7.29459e-05
0.000639846
-7.51494e-05
0.000627574
-7.69735e-05
0.000615153
-7.8409e-05
0.000602642
-7.94497e-05
0.000590094
-8.00929e-05
0.000577559
-8.034e-05
0.000565086
-8.01967e-05
0.000552717
-7.96733e-05
0.000540494
-7.87847e-05
0.000528453
-7.755e-05
0.000516631
-7.59924e-05
0.000505057
-7.41383e-05
0.000493758
-7.2017e-05
0.000482757
-6.966e-05
0.000472072
-6.71001e-05
0.000461714
-6.43713e-05
0.000451691
-6.15083e-05
0.000442004
-5.85459e-05
0.000432652
-5.55185e-05
0.00042363
-5.24595e-05
0.000414929
-4.93999e-05
0.00040654
-4.63661e-05
0.000398452
-4.33765e-05
0.000390656
-4.04344e-05
0.000383141
-3.75153e-05
0.000375899
-3.45293e-05
0.000368919
-3.13511e-05
0.000362183
-2.73099e-05
0.000355555
-2.30683e-05
-1.26149e-05
0.00028082
6.81675e-05
0.000294152
7.20737e-05
0.000307841
7.49454e-05
0.000321985
7.75497e-05
0.000336568
8.03967e-05
0.000351592
8.32313e-05
0.000367054
8.58383e-05
0.000382935
8.82508e-05
0.00039921
9.0488e-05
0.000415839
9.24833e-05
0.00043277
9.4179e-05
0.000449941
9.55522e-05
0.000467274
9.65625e-05
0.000484664
9.71315e-05
0.000501997
9.7186e-05
0.000519168
9.66852e-05
0.000535367
9.15686e-05
0.000550407
8.52547e-05
0.000564341
7.9053e-05
0.000577225
7.29896e-05
0.000589117
6.70878e-05
0.000600067
6.13568e-05
0.000610118
5.57942e-05
0.000619304
5.03902e-05
0.000627653
4.51275e-05
0.000635179
3.99813e-05
0.00064189
3.4921e-05
0.000647785
2.99148e-05
0.000652853
2.49339e-05
0.000657081
1.99558e-05
0.000660453
1.49671e-05
0.000662953
9.96353e-06
0.000664574
4.9505e-06
0.000665312
-7.02503e-08
0.00066517
-5.07557e-06
0.000664157
-1.00535e-05
0.00066229
-1.4962e-05
0.000659589
-1.97766e-05
0.00065608
-2.44749e-05
0.000651794
-2.90351e-05
0.000646766
-3.34371e-05
0.000641033
-3.7663e-05
0.000634636
-4.16958e-05
0.000627617
-4.55192e-05
0.00062002
-4.91171e-05
0.000611889
-5.2473e-05
0.000603272
-5.55705e-05
0.000594214
-5.83931e-05
0.000584764
-6.0925e-05
0.000574969
-6.3151e-05
0.000564878
-6.50575e-05
0.000554537
-6.66329e-05
0.000543996
-6.78682e-05
0.000533304
-6.87574e-05
0.000522509
-6.92983e-05
0.000511662
-6.94924e-05
0.00050081
-6.93449e-05
0.000490002
-6.88651e-05
0.000479282
-6.80654e-05
0.000468694
-6.69615e-05
0.000458273
-6.55716e-05
0.000448051
-6.39163e-05
0.000438052
-6.2018e-05
0.000428294
-5.99015e-05
0.000418787
-5.75932e-05
0.000409537
-5.51217e-05
0.000400546
-5.25176e-05
0.000391814
-4.98131e-05
0.000383336
-4.70413e-05
0.000375113
-4.42356e-05
0.00036714
-4.14276e-05
0.000359419
-3.86453e-05
0.000351951
-3.59083e-05
0.00034474
-3.32233e-05
0.000337792
-3.05673e-05
0.000331129
-2.7866e-05
0.000324752
-2.49741e-05
0.000318771
-2.13286e-05
0.00031289
-1.7188e-05
-7.64377e-06
0.000247797
5.6457e-05
0.00025951
6.03606e-05
0.000271604
6.2851e-05
0.000284099
6.50545e-05
0.000296973
6.75235e-05
0.000310242
6.9962e-05
0.0003239
7.21806e-05
0.000337922
7.42283e-05
0.000352285
7.61247e-05
0.000366959
7.781e-05
0.000381904
7.92336e-05
0.000397079
8.03772e-05
0.00041243
8.12111e-05
0.000427886
8.16762e-05
0.000443357
8.17148e-05
0.000458749
8.12931e-05
0.000473321
7.69967e-05
0.000486879
7.1696e-05
0.000499445
6.64875e-05
0.000511045
6.13896e-05
0.000521713
5.64198e-05
0.000531485
5.15848e-05
0.000540397
4.68824e-05
0.000548482
4.23047e-05
0.000555771
3.78381e-05
0.00056229
3.3463e-05
0.000568056
2.91551e-05
0.000573081
2.48892e-05
0.000577373
2.06422e-05
0.000580932
1.63965e-05
0.000583758
1.21411e-05
0.000585849
7.8728e-06
0.000587206
3.59329e-06
0.000587825
-6.89017e-07
0.000587706
-4.95609e-06
0.000586849
-9.19665e-06
0.000585267
-1.33807e-05
0.000582976
-1.74855e-05
0.000579994
-2.14924e-05
0.000576342
-2.53833e-05
0.000572046
-2.91408e-05
0.000567132
-3.27492e-05
0.00056163
-3.61936e-05
0.00055557
-3.94595e-05
0.000548985
-4.25326e-05
0.000541911
-4.53982e-05
0.000534382
-4.80418e-05
0.000526438
-5.04489e-05
0.000518118
-5.26058e-05
0.000509467
-5.44998e-05
0.000500529
-5.61197e-05
0.000491353
-5.74562e-05
0.000481987
-5.85022e-05
0.000472482
-5.92531e-05
0.000462891
-5.97066e-05
0.000453261
-5.98626e-05
0.000443639
-5.97234e-05
0.000434067
-5.92929e-05
0.000424579
-5.85774e-05
0.000415203
-5.75849e-05
0.000405957
-5.63262e-05
0.000396856
-5.48149e-05
0.000387906
-5.3068e-05
0.000379111
-5.11066e-05
0.000370474
-4.89557e-05
0.000361996
-4.66444e-05
0.000353684
-4.42055e-05
0.000345545
-4.16743e-05
0.000337591
-3.90872e-05
0.000329836
-3.64806e-05
0.000322297
-3.38884e-05
0.000314992
-3.134e-05
0.000307939
-2.88554e-05
0.000301159
-2.64438e-05
0.000294672
-2.40797e-05
0.000288518
-2.17119e-05
0.000282701
-1.91569e-05
0.00027741
-1.60383e-05
0.000272259
-1.20362e-05
-3.60226e-06
0.000218637
4.62026e-05
0.000228927
5.00709e-05
0.00023961
5.2167e-05
0.000250639
5.40255e-05
0.000261998
5.61647e-05
0.000273714
5.8246e-05
0.000285775
6.01197e-05
0.000298156
6.18472e-05
0.000310836
6.34446e-05
0.000323788
6.48586e-05
0.000336976
6.60455e-05
0.000350363
6.69903e-05
0.000363905
6.76695e-05
0.000377545
6.8036e-05
0.000391216
6.80434e-05
0.000404845
6.76642e-05
0.000417782
6.406e-05
0.000429856
5.96222e-05
0.000441081
5.52627e-05
0.000451473
5.09967e-05
0.000461055
4.6838e-05
0.000469849
4.2791e-05
0.000477879
3.88529e-05
0.000485167
3.50161e-05
0.000491737
3.12686e-05
0.000497606
2.75934e-05
0.000502791
2.39704e-05
0.000507302
2.03784e-05
0.000511146
1.67985e-05
0.000514326
1.32161e-05
0.000516844
9.62257e-06
0.000518702
6.01549e-06
0.000519901
2.3943e-06
0.00052044
-1.22831e-06
0.000520322
-4.83782e-06
0.000519549
-8.42362e-06
0.000518131
-1.19632e-05
0.000516082
-1.54366e-05
0.000513418
-1.88279e-05
0.000510156
-2.21218e-05
0.000506319
-2.53035e-05
0.000501929
-2.83594e-05
0.000497012
-3.12767e-05
0.000491596
-3.40431e-05
0.00048571
-3.66465e-05
0.000479387
-3.90749e-05
0.000472661
-4.13165e-05
0.000465572
-4.33599e-05
0.000458161
-4.51942e-05
0.00045047
-4.68092e-05
0.000442546
-4.81953e-05
0.000434433
-4.93435e-05
0.000426176
-5.02455e-05
0.000417816
-5.08933e-05
0.00040939
-5.12798e-05
0.000400926
-5.13986e-05
0.000392447
-5.12445e-05
0.000383969
-5.08148e-05
0.000375501
-5.01095e-05
0.000367049
-4.91328e-05
0.000358616
-4.78941e-05
0.00035021
-4.64083e-05
0.000341838
-4.46963e-05
0.000333516
-4.27846e-05
0.000325265
-4.07049e-05
0.000317113
-3.84925e-05
0.000309093
-3.61856e-05
0.000301242
-3.38226e-05
0.000293596
-3.14416e-05
0.000286193
-2.90778e-05
0.000279067
-2.67621e-05
0.000272247
-2.45198e-05
0.000265757
-2.23655e-05
0.000259619
-2.03058e-05
0.000253848
-1.83085e-05
0.00024848
-1.63437e-05
0.000243511
-1.41882e-05
0.000239129
-1.1656e-05
0.000235001
-7.90858e-06
-5.09704e-07