/*--------------------------------*- C++ -*----------------------------------*\
| =========                 |                                                 |
| \\      /  F ield         | OpenFOAM: The Open Source CFD Toolbox           |
|  \\    /   O peration     | Version:  v1912                                 |
|   \\  /    A nd           | Website:  www.openfoam.com                      |
|    \\/     M anipulation  |                                                 |
\*---------------------------------------------------------------------------*/
FoamFile
{
    version     2.0;
    format      ascii;
    class       volScalarField;
    location    "125";
    object      p;
}
// * * * * * * * * * * * * * * * * * * * * * * * * * * * * * * * * * * * * * //

dimensions      [0 2 -2 0 0 0 0];


internalField   nonuniform List<scalar> 
2000
(
-0.0467372
0.0706744
0.125254
0.118364
0.102536
0.0962273
0.0956189
0.0969708
0.0971895
0.0969531
0.097075
0.0967461
0.0964838
0.096441
0.0965177
0.096459
0.0962273
0.0960209
0.0958201
0.095604
0.0952807
0.0947796
0.0941377
0.093459
0.0929195
0.0926536
0.0927082
0.0930228
0.0934512
0.0935463
0.0931173
0.0920914
0.0904939
0.0884058
0.0860403
0.083694
0.0817604
0.0807066
0.0808408
0.0824349
0.0856195
0.0899103
0.0952723
0.100636
0.105867
0.110592
0.114604
0.116871
0.117654
0.117078
0.113709
0.106781
0.0951869
0.0785077
0.0578614
0.0363708
0.0184386
0.00768355
0.00517958
0.0120105
0.0268789
0.0480779
0.0737943
0.102218
0.131183
0.15892
0.183801
0.204509
0.220323
0.230899
0.235992
0.235631
0.230018
0.219321
0.203581
0.182753
0.156183
0.123912
0.0812148
0.0385586
0.00650445
0.0916827
0.130502
0.117306
0.0995674
0.095364
0.0988852
0.10131
0.0985703
0.0953618
0.0949147
0.0961827
0.0966342
0.0965234
0.0966709
0.0964573
0.096192
0.0959196
0.0957123
0.0955004
0.0951435
0.094546
0.093766
0.0929796
0.0923757
0.0921086
0.0922507
0.0927086
0.0933739
0.0939426
0.0939654
0.0932358
0.0916016
0.0890023
0.0858551
0.082442
0.0793208
0.0771851
0.0767069
0.078092
0.0816037
0.0868477
0.0933928
0.100485
0.107405
0.113399
0.117705
0.12132
0.122772
0.121289
0.115253
0.102315
0.0806364
0.0510955
0.0191848
-0.00696089
-0.0214437
-0.0229085
-0.0146969
-0.000852159
0.0181429
0.0416617
0.0686378
0.0984836
0.127775
0.155647
0.180336
0.200554
0.215568
0.224972
0.228645
0.226746
0.219541
0.207259
0.189981
0.167697
0.139873
0.106801
0.0651159
0.02764
0.0575663
0.0913656
0.114058
0.112501
0.103303
0.0991233
0.0991532
0.0985163
0.0966294
0.0959914
0.0975874
0.0990835
0.097975
0.0954397
0.0945506
0.0954882
0.0964229
0.0965137
0.0960173
0.0953265
0.0945723
0.0937459
0.0928994
0.0921404
0.0916484
0.0916709
0.0924222
0.0938175
0.0954616
0.0967799
0.0973336
0.096838
0.0947578
0.0909756
0.0856978
0.0793832
0.0729107
0.0676087
0.0650611
0.0665974
0.0702827
0.0780667
0.0887941
0.100868
0.112739
0.123126
0.13109
0.135309
0.136523
0.132478
0.121431
0.101802
0.0737732
0.0404204
0.0083517
-0.014942
-0.0263703
-0.0269892
-0.019564
-0.00639179
0.0118909
0.0349508
0.0617467
0.0906274
0.119371
0.146298
0.169815
0.188743
0.20243
0.21063
0.213388
0.210927
0.203518
0.191384
0.174609
0.153221
0.126843
0.0960192
0.0581606
0.0250209
0.0825492
0.0925634
0.105113
0.109191
0.106496
0.103474
0.101812
0.100086
0.0984776
0.0976788
0.0974722
0.0973038
0.0968896
0.0961488
0.0956994
0.0966921
0.0978671
0.0970059
0.0954508
0.0944059
0.093525
0.092816
0.0920279
0.0911836
0.0904485
0.0903709
0.0918362
0.0950042
0.0989575
0.102336
0.103848
0.104089
0.101298
0.0952371
0.0860178
0.0742808
0.0615818
0.0504418
0.0437519
0.0434177
0.0499817
0.0631799
0.0808144
0.100149
0.118596
0.134212
0.145847
0.152547
0.152607
0.146219
0.131958
0.109469
0.0802224
0.0479056
0.0178504
-0.00486075
-0.0174843
-0.0203551
-0.0152229
-0.00394003
0.0126641
0.0340309
0.058979
0.0857295
0.112277
0.136844
0.158037
0.174904
0.186947
0.194023
0.196206
0.193679
0.186642
0.175246
0.159538
0.13954
0.114973
0.0864432
0.0519345
0.0217785
0.094887
0.0984871
0.106006
0.109973
0.108841
0.106508
0.105123
0.104083
0.102781
0.101328
0.0999532
0.0988205
0.0980488
0.0971817
0.0962291
0.0962744
0.0969128
0.0972238
0.0967165
0.0953454
0.0938113
0.0924349
0.0910011
0.0892037
0.0876362
0.087562
0.0900194
0.09544
0.102241
0.108616
0.113024
0.113188
0.109277
0.10056
0.0869542
0.0695395
0.0508699
0.0347143
0.0251008
0.0242355
0.0341844
0.0520206
0.0750326
0.0998139
0.123108
0.142405
0.156078
0.163144
0.163052
0.155476
0.14032
0.118042
0.0904271
0.0606785
0.0330045
0.0114369
-0.00210575
-0.00679196
-0.00402675
0.00488506
0.0191473
0.0379063
0.0598359
0.0832276
0.106324
0.127615
0.14597
0.160642
0.171223
0.177559
0.179649
0.177564
0.171386
0.161167
0.146887
0.128544
0.105898
0.0795649
0.0478402
0.0199314
0.103326
0.105159
0.10911
0.111278
0.110457
0.108843
0.107877
0.107194
0.106226
0.105023
0.10387
0.102841
0.101781
0.100421
0.0990362
0.0983496
0.0982838
0.0981258
0.097141
0.095427
0.0937125
0.0921495
0.0904558
0.0884582
0.0867366
0.0868235
0.090186
0.0968408
0.10531
0.113188
0.118146
0.118643
0.114039
0.103634
0.0876069
0.0675289
0.046543
0.029078
0.0195974
0.0202817
0.0316248
0.0511471
0.0756258
0.1015
0.125572
0.145409
0.159296
0.166107
0.165348
0.157001
0.141652
0.120562
0.0956558
0.0695595
0.0454106
0.0262186
0.0137891
0.00858588
0.00993848
0.0169761
0.0288189
0.0444436
0.0626191
0.0819858
0.101219
0.119171
0.134936
0.147854
0.157483
0.163565
0.165958
0.164595
0.159432
0.150428
0.137501
0.120616
0.0995431
0.0748805
0.0450897
0.0186941
0.110135
0.110957
0.112191
0.112525
0.111732
0.110739
0.11007
0.109519
0.108838
0.108063
0.107309
0.106548
0.105638
0.104484
0.103288
0.10242
0.10187
0.101103
0.0996769
0.0977911
0.0958933
0.0940867
0.0922533
0.0904523
0.089319
0.0900335
0.0934376
0.0992665
0.106394
0.11347
0.118731
0.119732
0.115155
0.104311
0.0878873
0.068101
0.0482966
0.0326585
0.0250192
0.0274212
0.0393959
0.0584138
0.0812351
0.104606
0.125762
0.142731
0.154291
0.159807
0.159068
0.152165
0.139398
0.121566
0.100411
0.0783889
0.0581254
0.0418187
0.0309469
0.0259328
0.0263431
0.0313612
0.0401288
0.0518375
0.065694
0.0808613
0.0964504
0.111565
0.125371
0.13715
0.146339
0.152523
0.155422
0.154843
0.150646
0.142718
0.130932
0.115221
0.0953453
0.07188
0.0433638
0.0179663
0.116011
0.115954
0.115036
0.113822
0.112991
0.112465
0.111977
0.111492
0.11103
0.110569
0.110083
0.109541
0.108888
0.10809
0.10723
0.106475
0.105822
0.104963
0.103643
0.101961
0.100178
0.0984333
0.0967679
0.0953547
0.0947144
0.095622
0.0986116
0.103537
0.109532
0.115183
0.118654
0.118134
0.112754
0.102351
0.0876725
0.0705955
0.0541324
0.0420304
0.0371086
0.0405658
0.0515692
0.0679577
0.0871219
0.106554
0.124161
0.138426
0.14835
0.153336
0.153097
0.147617
0.13725
0.123011
0.106328
0.0889708
0.0728469
0.0595983
0.0502897
0.0451987
0.0439832
0.0460657
0.0509534
0.0583183
0.0678902
0.0792824
0.0918844
0.104886
0.117392
0.128555
0.137655
0.144139
0.147607
0.147775
0.144433
0.137419
0.126564
0.111774
0.0927865
0.0701425
0.0424112
0.0175829
0.121414
0.120422
0.117454
0.114905
0.114141
0.114042
0.113695
0.11327
0.112983
0.112737
0.11243
0.112056
0.111609
0.111065
0.110453
0.109865
0.109299
0.108565
0.107492
0.106119
0.104632
0.103185
0.101879
0.100898
0.10063
0.101588
0.104101
0.107987
0.112481
0.116413
0.118439
0.117327
0.112387
0.103549
0.0915195
0.0779758
0.0654499
0.0563899
0.0529334
0.0557966
0.0644234
0.077315
0.0925529
0.108227
0.122675
0.134617
0.143174
0.147818
0.148315
0.144687
0.137282
0.126615
0.113804
0.100267
0.0873488
0.0762274
0.0676879
0.0619619
0.0588437
0.0580114
0.0593175
0.0628591
0.0688123
0.0771534
0.0874691
0.0989717
0.110671
0.121571
0.130809
0.137709
0.141773
0.142649
0.140076
0.133851
0.123778
0.109727
0.0914053
0.0693149
0.0420156
0.0174488
0.126643
0.124453
0.119254
0.115604
0.115132
0.115447
0.115204
0.114861
0.114752
0.114689
0.114526
0.114283
0.113979
0.113594
0.113144
0.112688
0.112221
0.111611
0.110736
0.109622
0.10842
0.107273
0.106299
0.105666
0.105665
0.106636
0.108757
0.111827
0.115224
0.118052
0.11931
0.118091
0.113867
0.106634
0.0970119
0.0862913
0.0762914
0.0689401
0.0658338
0.0676221
0.0740541
0.0841311
0.0964379
0.109464
0.12181
0.13233
0.140191
0.144866
0.14609
0.143848
0.138388
0.130176
0.120074
0.109161
0.0984743
0.0888918
0.0809803
0.0748737
0.0703796
0.0672882
0.065678
0.0660044
0.0688778
0.0746557
0.0831356
0.0935463
0.104782
0.115687
0.125246
0.132666
0.137366
0.138936
0.137077
0.131558
0.122158
0.108719
0.0909069
0.0691835
0.0420456
0.0175463
0.13188
0.128028
0.120331
0.115934
0.116016
0.116695
0.116507
0.116273
0.11635
0.116453
0.116421
0.116295
0.116107
0.115842
0.115509
0.115146
0.114751
0.114226
0.113487
0.11256
0.111568
0.110642
0.109901
0.109497
0.109655
0.110611
0.112459
0.115002
0.117726
0.119907
0.120745
0.119539
0.115891
0.109834
0.101871
0.09299
0.084608
0.0782768
0.0752531
0.0761673
0.0809813
0.0890554
0.0993362
0.110584
0.12156
0.13119
0.138652
0.143411
0.145191
0.143961
0.139922
0.133491
0.125348
0.116339
0.1073
0.0989131
0.0915721
0.0852922
0.0798128
0.0749142
0.0707918
0.0682177
0.0682746
0.0717648
0.0787236
0.0883731
0.0994487
0.110601
0.120649
0.128684
0.134053
0.136304
0.135108
0.130222
0.121408
0.108483
0.0910667
0.0695845
0.0423881
0.0178816
0.137246
0.131075
0.120655
0.115989
0.116846
0.117796
0.117629
0.117531
0.11779
0.118036
0.11812
0.118104
0.118024
0.117864
0.11763
0.117349
0.117015
0.11656
0.115923
0.115132
0.114291
0.113519
0.112933
0.112672
0.112918
0.113843
0.115496
0.117687
0.119978
0.121755
0.122356
0.121214
0.118012
0.112787
0.105954
0.0983202
0.0910232
0.0853078
0.082231
0.0824221
0.0860034
0.0926014
0.10143
0.111446
0.121523
0.130623
0.137924
0.142868
0.145162
0.144746
0.141788
0.136652
0.129911
0.122278
0.114465
0.107031
0.100239
0.0939732
0.0878249
0.0814449
0.0750518
0.0697322
0.0671207
0.068539
0.0742639
0.0834583
0.09464
0.106235
0.116892
0.125593
0.13163
0.134523
0.133931
0.1296
0.121289
0.108798
0.0916972
0.0703885
0.0429559
0.0184441
0.142818
0.133487
0.120263
0.115892
0.117645
0.118748
0.118597
0.118661
0.119088
0.119452
0.119638
0.119723
0.11974
0.119675
0.11953
0.119324
0.119053
0.118665
0.118117
0.117436
0.116714
0.11606
0.115586
0.115419
0.115712
0.116599
0.118098
0.120037
0.122029
0.123547
0.124023
0.12298
0.120146
0.115551
0.109544
0.102798
0.0962389
0.0908947
0.0876876
0.0872444
0.0898169
0.0952467
0.102969
0.112097
0.121582
0.130395
0.137689
0.142876
0.145635
0.145887
0.143777
0.139627
0.13395
0.127378
0.120542
0.113919
0.107675
0.101557
0.0949463
0.0872721
0.0787297
0.0707614
0.0656351
0.0652232
0.0699998
0.0789988
0.0904741
0.102619
0.113922
0.123277
0.129934
0.133402
0.133336
0.129485
0.121592
0.109466
0.0926202
0.0714509
0.0436802
0.0192019
0.148636
0.135148
0.119249
0.115759
0.11841
0.119554
0.119441
0.119686
0.120258
0.12072
0.120997
0.121172
0.121274
0.121292
0.121226
0.12109
0.12088
0.120556
0.120087
0.119501
0.118879
0.118321
0.117933
0.117832
0.118151
0.118997
0.120375
0.122125
0.123909
0.125263
0.12569
0.124769
0.122257
0.118173
0.112805
0.106718
0.100675
0.0955442
0.0921405
0.0910941
0.0927754
0.0972186
0.104054
0.112529
0.121639
0.13034
0.137742
0.143218
0.146417
0.147243
0.145824
0.142453
0.137603
0.131861
0.125809
0.119877
0.114167
0.108278
0.101333
0.0924978
0.0819541
0.0715446
0.0641835
0.0622446
0.0663254
0.0752871
0.0871165
0.0998022
0.111695
0.121623
0.128809
0.132755
0.133124
0.12967
0.122132
0.110319
0.093691
0.0726602
0.0445043
0.0201083
0.154709
0.135951
0.117761
0.115679
0.119122
0.120226
0.120189
0.120618
0.121312
0.121856
0.122214
0.12247
0.122648
0.122737
0.12274
0.122667
0.122513
0.122249
0.121851
0.121347
0.120808
0.120329
0.120009
0.119957
0.120289
0.121095
0.122375
0.123986
0.125626
0.126882
0.127309
0.126524
0.1243
0.120644
0.115785
0.110198
0.104524
0.0994987
0.0958513
0.0942198
0.0950866
0.098668
0.104776
0.112769
0.121667
0.130387
0.137979
0.143773
0.14739
0.148717
0.147849
0.145097
0.140895
0.135803
0.130382
0.125038
0.119817
0.114164
0.106944
0.0970968
0.0848311
0.0723721
0.0631841
0.0600318
0.0635794
0.0725296
0.0846435
0.0977576
0.110111
0.120484
0.128086
0.132415
0.133137
0.130007
0.122767
0.111223
0.094788
0.0739122
0.0453749
0.0211106
0.161016
0.135817
0.115975
0.115703
0.119759
0.120785
0.120866
0.121468
0.122261
0.122875
0.123307
0.123635
0.123879
0.124031
0.124094
0.124078
0.123976
0.123765
0.12343
0.122995
0.122528
0.122115
0.121848
0.12183
0.122166
0.122936
0.124138
0.125643
0.127183
0.128387
0.128845
0.128203
0.126236
0.122944
0.118498
0.113303
0.107897
0.102906
0.0989829
0.0967787
0.0968868
0.0997014
0.105205
0.11285
0.121657
0.130486
0.138324
0.144443
0.148438
0.150183
0.149777
0.147511
0.143811
0.139217
0.13428
0.129393
0.124546
0.119056
0.111595
0.100956
0.0873952
0.0734148
0.0628604
0.0587688
0.0618543
0.0707256
0.0829789
0.0963641
0.109028
0.119717
0.127627
0.13225
0.133251
0.130385
0.123393
0.112084
0.0958266
0.0751285
0.0462503
0.0221593
0.167505
0.134738
0.114071
0.11584
0.1203
0.121253
0.121486
0.122242
0.123113
0.12379
0.12429
0.12468
0.124982
0.12519
0.125307
0.125341
0.125286
0.125123
0.124842
0.124469
0.124062
0.123702
0.123477
0.123483
0.123818
0.124553
0.12569
0.127114
0.128586
0.129766
0.130273
0.129771
0.128032
0.125049
0.120944
0.116057
0.110838
0.105819
0.101598
0.0988419
0.0982584
0.100408
0.105423
0.112827
0.121627
0.130618
0.138712
0.145135
0.149459
0.151552
0.151508
0.149609
0.146279
0.14204
0.137435
0.132842
0.128214
0.12279
0.115138
0.103984
0.0896094
0.0746503
0.0631596
0.0583501
0.0609999
0.0696975
0.0819513
0.0954607
0.108299
0.119193
0.127321
0.132164
0.133383
0.130734
0.123952
0.112853
0.0967599
0.0762594
0.0471001
0.0232124
0.174093
0.132735
0.112209
0.116071
0.120739
0.121655
0.122058
0.122942
0.123876
0.124609
0.125167
0.125612
0.125964
0.12622
0.126383
0.12646
0.126446
0.126325
0.126091
0.125767
0.12541
0.125092
0.124898
0.124919
0.125247
0.125949
0.12703
0.128391
0.129816
0.130989
0.131552
0.131177
0.129652
0.126896
0.123055
0.118388
0.113275
0.108181
0.103664
0.100424
0.0992649
0.100884
0.10553
0.112775
0.121606
0.130757
0.139079
0.14576
0.150352
0.152714
0.152937
0.151298
0.14822
0.14421
0.139794
0.135344
0.130796
0.125363
0.117588
0.10618
0.091411
0.075931
0.0638594
0.0585135
0.0607548
0.0691795
0.0813697
0.0948833
0.107797
0.118812
0.127089
0.132098
0.133492
0.131023
0.124422
0.113509
0.0975699
0.0772787
0.0479048
0.0242378
0.180687
0.129905
0.1105
0.116355
0.121078
0.122005
0.122579
0.123561
0.124543
0.125321
0.125926
0.126415
0.126805
0.127098
0.127297
0.127407
0.127424
0.127335
0.127137
0.126852
0.12653
0.126242
0.126067
0.126094
0.12641
0.127081
0.128116
0.129429
0.13082
0.131995
0.132606
0.132331
0.130953
0.128369
0.124703
0.120167
0.115094
0.109907
0.10515
0.101547
0.0999755
0.101222
0.105611
0.112747
0.121607
0.130883
0.13938
0.146254
0.151042
0.153597
0.154007
0.152543
0.149622
0.145739
0.141408
0.136994
0.132434
0.126952
0.119111
0.107637
0.0927721
0.0771027
0.0647196
0.0589875
0.0608652
0.0690089
0.0810535
0.0945018
0.107429
0.118511
0.126891
0.132027
0.133563
0.131245
0.1248
0.114053
0.0982573
0.0781773
0.048654
0.0252147
0.187195
0.126379
0.109015
0.116643
0.121322
0.1223
0.123023
0.124072
0.125082
0.12589
0.126526
0.127042
0.127457
0.127774
0.127995
0.128127
0.128165
0.128096
0.127921
0.12766
0.12736
0.127089
0.126924
0.12695
0.127254
0.1279
0.128901
0.130179
0.131548
0.132724
0.133369
0.133158
0.131869
0.12939
0.125819
0.121344
0.116277
0.111017
0.106105
0.102282
0.100461
0.101478
0.105702
0.11276
0.12163
0.130981
0.139589
0.14659
0.15151
0.154194
0.154728
0.153378
0.150548
0.146729
0.142422
0.137986
0.13337
0.127822
0.119951
0.108512
0.0937226
0.0780693
0.0655611
0.0595655
0.0611368
0.0690151
0.0808772
0.0942305
0.107137
0.118253
0.126707
0.131942
0.133595
0.131407
0.125097
0.114498
0.098833
0.0789578
0.0493451
0.0261331
0.19354
0.122315
0.107792
0.116896
0.121483
0.122522
0.12335
0.124433
0.125455
0.126278
0.126931
0.127461
0.127889
0.128218
0.128451
0.128595
0.128643
0.128586
0.128422
0.128174
0.127886
0.127623
0.127462
0.127486
0.127782
0.128413
0.129393
0.130651
0.132008
0.133183
0.133845
0.133667
0.132421
0.129992
0.126463
0.122013
0.11694
0.111641
0.106653
0.102724
0.10078
0.101675
0.1058
0.112799
0.121659
0.13104
0.139706
0.146781
0.151782
0.154549
0.155163
0.153884
0.151108
0.147319
0.143009
0.138534
0.133852
0.12824
0.12035
0.108984
0.0943372
0.0788016
0.0662813
0.0601169
0.0614411
0.0690815
0.0807665
0.0940184
0.106889
0.118023
0.12653
0.131846
0.133597
0.131518
0.125326
0.114858
0.0993126
0.0796292
0.0499792
0.0269916
0.199723
0.117981
0.10686
0.117088
0.121566
0.122654
0.123543
0.124638
0.125663
0.126494
0.127154
0.127691
0.128125
0.128459
0.128699
0.128847
0.128901
0.128848
0.128691
0.128448
0.128166
0.127907
0.127748
0.127772
0.128065
0.12869
0.129661
0.13091
0.132259
0.133433
0.134099
0.133933
0.132703
0.130293
0.126776
0.122333
0.117256
0.111942
0.106928
0.102964
0.100974
0.101815
0.105886
0.112841
0.121678
0.13106
0.139749
0.146863
0.151911
0.154729
0.155393
0.154159
0.151416
0.147642
0.143323
0.138814
0.134077
0.128409
0.120507
0.109209
0.0947102
0.0793197
0.0668412
0.0605735
0.0617052
0.0691456
0.0806797
0.0938379
0.106672
0.117814
0.126364
0.131746
0.133579
0.131596
0.125506
0.115153
0.0997145
0.0802049
0.0505607
0.0277968
0.205886
0.113893
0.106225
0.117205
0.121584
0.122703
0.123621
0.124723
0.125751
0.126585
0.127249
0.127788
0.128225
0.128563
0.128804
0.128956
0.129011
0.128961
0.128806
0.128566
0.128286
0.128029
0.127871
0.127896
0.128189
0.128814
0.129785
0.13103
0.132376
0.133548
0.134212
0.134048
0.132815
0.130413
0.126897
0.122453
0.117374
0.112057
0.107041
0.103073
0.101075
0.101899
0.105942
0.112867
0.121679
0.13105
0.139744
0.146875
0.15195
0.154799
0.155496
0.154289
0.151568
0.147804
0.143482
0.138949
0.134172
0.128464
0.120552
0.109313
0.0949359
0.0796739
0.0672481
0.0609143
0.0619004
0.0691783
0.080595
0.0936747
0.106476
0.117626
0.126212
0.131651
0.133555
0.131654
0.125654
0.115402
0.100061
0.0807068
0.0511015
0.0285733
0.211983
0.110687
0.105828
0.117254
0.121564
0.122696
0.123629
0.124737
0.125769
0.126605
0.127271
0.127812
0.12825
0.128589
0.128833
0.128985
0.129042
0.128992
0.128837
0.128598
0.128319
0.128062
0.127905
0.127933
0.128228
0.128855
0.129828
0.131075
0.132421
0.13359
0.134252
0.134085
0.132847
0.130444
0.126925
0.122478
0.117397
0.11208
0.107067
0.103105
0.10111
0.101931
0.105963
0.112869
0.121663
0.131022
0.139715
0.146856
0.151947
0.154816
0.155534
0.154346
0.15164
0.147886
0.143563
0.139018
0.134217
0.128485
0.120573
0.109383
0.0950975
0.0799233
0.0675274
0.0611366
0.062008
0.0691588
0.0804932
0.0935158
0.106296
0.117457
0.126079
0.131571
0.133542
0.131715
0.125797
0.115637
0.100387
0.0811732
0.0516223
0.0293644
0.21671
0.108744
0.105603
0.117281
0.121541
0.122671
0.123613
0.124727
0.125761
0.126599
0.127266
0.127809
0.128247
0.128587
0.12883
0.128983
0.12904
0.12899
0.128835
0.128596
0.128316
0.128061
0.127905
0.127935
0.128233
0.128862
0.129838
0.131087
0.132433
0.133602
0.134262
0.134091
0.13285
0.130441
0.126919
0.122471
0.11739
0.112074
0.107063
0.103104
0.101111
0.101929
0.105951
0.112846
0.121633
0.130987
0.13968
0.146827
0.15193
0.154813
0.155547
0.154375
0.151682
0.147934
0.143612
0.139063
0.134256
0.128522
0.120622
0.109461
0.0952371
0.080118
0.0677228
0.0612701
0.0620508
0.0691085
0.0803704
0.0933594
0.106136
0.117313
0.125967
0.131507
0.133536
0.131776
0.125931
0.115851
0.100679
0.0815903
0.0520789
0.0301195
)
;

boundaryField
{
    inlet
    {
        type            zeroGradient;
    }
    outlet
    {
        type            fixedValue;
        value           uniform 0;
    }
    fixedWalls
    {
        type            zeroGradient;
    }
    frontAndBack
    {
        type            empty;
    }
}


// ************************************************************************* //
