/*--------------------------------*- C++ -*----------------------------------*\
| =========                 |                                                 |
| \\      /  F ield         | OpenFOAM: The Open Source CFD Toolbox           |
|  \\    /   O peration     | Version:  v1912                                 |
|   \\  /    A nd           | Website:  www.openfoam.com                      |
|    \\/     M anipulation  |                                                 |
\*---------------------------------------------------------------------------*/
FoamFile
{
    version     2.0;
    format      ascii;
    class       surfaceScalarField;
    location    "125";
    object      phi;
}
// * * * * * * * * * * * * * * * * * * * * * * * * * * * * * * * * * * * * * //

dimensions      [0 3 -1 0 0 0 0];
oriented        oriented;


internalField   nonuniform List<scalar> 
3895
(
0.000814743
0.000381433
0.000499352
0.000315391
0.00025155
0.000247802
6.48477e-05
0.000186702
-6.22124e-05
0.00012706
-0.000127379
6.51662e-05
-0.000137729
1.03503e-05
-0.000113708
-2.40212e-05
-9.009e-05
-2.36177e-05
-8.43699e-05
-5.72009e-06
-6.58282e-05
-1.85417e-05
-4.49024e-05
-2.09258e-05
-4.02185e-05
-4.68388e-06
-4.62118e-05
5.99321e-06
-3.74973e-05
-8.71442e-06
-1.54385e-05
-2.20588e-05
1.61838e-06
-1.70569e-05
1.16474e-05
-1.0029e-05
1.90269e-05
-7.37942e-06
2.97255e-05
-1.06986e-05
4.87749e-05
-1.90494e-05
7.54709e-05
-2.6696e-05
0.000106205
-3.07344e-05
0.000136374
-3.01683e-05
0.000162802
-2.64287e-05
0.00018266
-1.98581e-05
0.000194031
-1.13705e-05
0.000196717
-2.68563e-06
0.000188878
7.83834e-06
0.000172743
1.61352e-05
0.000150392
2.23508e-05
0.000123809
2.65831e-05
9.43907e-05
2.94184e-05
6.30887e-05
3.1302e-05
3.11487e-05
3.194e-05
5.46788e-07
3.06019e-05
-2.62195e-05
2.67663e-05
-4.63785e-05
2.0159e-05
-5.75366e-05
1.11581e-05
-5.62397e-05
-1.29684e-06
-4.35781e-05
-1.26616e-05
-2.25939e-05
-2.09842e-05
3.91771e-06
-2.65116e-05
3.19242e-05
-2.80065e-05
5.63991e-05
-2.44748e-05
7.28589e-05
-1.64599e-05
7.70378e-05
-4.17892e-06
5.6912e-05
2.01258e-05
7.27718e-06
4.96348e-05
-8.08882e-05
8.81654e-05
-0.000209374
0.000128486
-0.000370705
0.000161331
-0.00055033
0.000179626
-0.000729631
0.0001793
-0.000887997
0.000158367
-0.00100659
0.000118588
-0.00107276
6.61776e-05
-0.00108151
8.74259e-06
-0.0010547
-2.68014e-05
-0.000998561
-5.61428e-05
-0.000918807
-7.97542e-05
-0.000820576
-9.82312e-05
-0.000707951
-0.000112625
-0.000583882
-0.000124069
-0.00045339
-0.000130493
-0.000319833
-0.000133556
-0.000186496
-0.000133337
-5.63588e-05
-0.000130138
6.76279e-05
-0.000123987
0.000183583
-0.000115955
0.000290646
-0.000107063
0.000388559
-9.79132e-05
0.000477472
-8.89131e-05
0.000557923
-8.04504e-05
0.000630742
-7.2819e-05
0.000697214
-6.64722e-05
0.000758645
-6.14311e-05
0.00081833
-5.96848e-05
0.000877137
-5.88073e-05
-7.49915e-05
0.00108795
0.000349297
0.00104738
0.000355959
0.000933257
0.000361923
0.000775702
0.000344257
0.000598358
0.000304404
0.000410314
0.00025321
0.000221208
0.000199456
5.38379e-05
0.000143349
-6.06641e-05
9.08843e-05
-0.000110531
4.41467e-05
-0.000132223
3.15062e-06
-0.000124804
-2.83451e-05
-0.00010841
-2.1078e-05
-0.00011205
9.63395e-06
-0.000111135
-9.6297e-06
-0.000103919
-2.92745e-05
-9.59548e-05
-2.50215e-05
-0.000101882
-4.10187e-06
-0.000111705
2.44355e-06
-0.000116399
-6.00477e-06
-0.0001152
-2.02479e-05
-0.000110082
-3.18139e-05
-0.000100444
-4.03724e-05
-8.59632e-05
-4.46496e-05
-6.72835e-05
-4.51083e-05
-4.49508e-05
-4.21908e-05
-2.03836e-05
-3.59376e-05
3.14324e-06
-2.62125e-05
2.33068e-05
-1.23253e-05
3.5615e-05
3.82705e-06
3.76524e-05
2.03133e-05
2.82465e-05
3.59891e-05
6.71166e-06
5.09533e-05
-2.66467e-05
6.46603e-05
-6.99011e-05
7.51945e-05
-0.00011908
7.97808e-05
-0.000168447
7.61333e-05
-0.000211488
6.31997e-05
-0.000242533
4.22033e-05
-0.000260064
1.62343e-05
-0.000259858
-1.28679e-05
-0.000243425
-3.74172e-05
-0.000214076
-5.58605e-05
-0.00017761
-6.44722e-05
-0.000141442
-6.06428e-05
-0.000113893
-4.40094e-05
-0.000103963
-1.4109e-05
-0.000108827
2.49906e-05
-0.000137281
7.80886e-05
-0.00018874
0.000139624
-0.000258321
0.000198066
-0.000336174
0.000239184
-0.00040865
0.000252101
-0.000459221
0.000229872
-0.000473338
0.000172484
-0.000449109
9.43591e-05
-0.000403755
2.08237e-05
-0.000351669
-4.33434e-05
-0.000294677
-8.37938e-05
-0.000234253
-0.000116567
-0.000167806
-0.000146201
-9.29943e-05
-0.000173043
-9.69342e-06
-0.000195926
7.87349e-05
-0.000212497
0.000171722
-0.00022348
0.000265413
-0.000227248
0.000356607
-0.00022453
0.000442889
-0.00021642
0.000523084
-0.000204182
0.000596365
-0.000189235
0.000662219
-0.000172917
0.000720629
-0.000156324
0.000772009
-0.000140293
0.000817028
-0.000125469
0.000856555
-0.000112346
0.000891508
-0.000101425
0.000923105
-9.30289e-05
0.000951933
-8.85119e-05
0.000979823
-8.66979e-05
-9.57902e-05
0.000975283
0.000305929
0.00102604
0.000305202
0.00106096
0.000327001
0.0010586
0.000346624
0.00101213
0.000350872
0.000924972
0.000340365
0.000805629
0.000318799
0.000661583
0.000287396
0.000504587
0.00024788
0.00034523
0.000203504
0.000189689
0.000158692
4.73776e-05
0.000113966
-4.84648e-05
7.47643e-05
-8.52005e-05
4.63697e-05
-0.000107007
1.21772e-05
-0.000117782
-1.85e-05
-0.000111768
-3.10353e-05
-0.000112657
-3.2136e-06
-0.00013184
2.1627e-05
-0.000153929
1.6084e-05
-0.000175471
1.29466e-06
-0.00019678
-1.05052e-05
-0.000214746
-2.24062e-05
-0.000228696
-3.06994e-05
-0.000236347
-3.74574e-05
-0.000234407
-4.41312e-05
-0.000220916
-4.94285e-05
-0.000197856
-4.9272e-05
-0.000170932
-3.92499e-05
-0.000148321
-1.87832e-05
-0.000135778
7.76968e-06
-0.000138035
3.82458e-05
-0.000158308
7.12268e-05
-0.000195702
0.000102055
-0.000246169
0.000125661
-0.00030324
0.000136852
-0.000358696
0.000131589
-0.000403938
0.000108442
-0.000431206
6.94716e-05
-0.000435111
2.01393e-05
-0.000423414
-2.45656e-05
-0.000391311
-6.95198e-05
-0.000344473
-0.000102698
-0.000289173
-0.000119772
-0.000231571
-0.000118245
-0.000176994
-9.85866e-05
-0.000128234
-6.28687e-05
-9.04216e-05
-1.28217e-05
-5.61434e-05
4.38104e-05
-2.50128e-05
0.000108494
7.03179e-06
0.000166022
4.26336e-05
0.000203582
8.43725e-05
0.000210362
0.000131008
0.000183236
0.000176668
0.000126825
0.000216019
5.5008e-05
0.000251715
-1.48727e-05
0.000279978
-7.16061e-05
0.000312902
-0.000116718
0.000352718
-0.000156383
0.000399626
-0.000193109
0.000452545
-0.000225962
0.000509474
-0.000252854
0.000568691
-0.000271714
0.000626787
-0.000281576
0.000681955
-0.000282416
0.0007326
-0.000275176
0.000777723
-0.000261543
0.00081696
-0.000243419
0.000850373
-0.000222648
0.000878311
-0.000200855
0.000901318
-0.000179331
0.000920052
-0.000159027
0.000935196
-0.000140613
0.00094741
-0.000124559
0.000957239
-0.000111254
0.000965216
-0.000101006
0.000971228
-9.45239e-05
0.000976105
-9.15754e-05
-9.62854e-05
0.00085711
0.000271377
0.000897356
0.000264956
0.000950165
0.000274192
0.0010047
0.000292085
0.00104636
0.000309214
0.00106527
0.000321454
0.00105656
0.000327512
0.00101778
0.000326174
0.000949276
0.000316386
0.000854661
0.000298119
0.000740352
0.000273001
0.000611272
0.000243045
0.000476038
0.000209998
0.000347627
0.000174782
0.000222411
0.000137393
0.000101188
0.000102723
1.50133e-06
6.86516e-05
-4.6532e-05
4.48197e-05
-5.82422e-05
3.33372e-05
-6.68014e-05
2.46433e-05
-8.35572e-05
1.80505e-05
-0.000106834
1.27716e-05
-0.000138918
9.67738e-06
-0.00017433
4.71342e-06
-0.000208579
-3.20918e-06
-0.000234777
-1.79331e-05
-0.000246961
-3.72442e-05
-0.00024156
-5.46729e-05
-0.000224286
-5.65242e-05
-0.000203399
-3.96697e-05
-0.000189041
-6.58835e-06
-0.000181087
3.02911e-05
-0.000186624
7.67638e-05
-0.000204666
0.000120097
-0.000231595
0.00015259
-0.000262072
0.000167329
-0.000289584
0.0001591
-0.000307447
0.000126306
-0.000309017
7.10413e-05
-0.000296239
7.36176e-06
-0.000267441
-5.33641e-05
-0.000226566
-0.000110395
-0.000177801
-0.000151463
-0.000124827
-0.000172746
-7.00672e-05
-0.000173005
-1.42453e-05
-0.000154409
4.06973e-05
-0.000117811
9.66677e-05
-6.87921e-05
0.000154365
-1.38865e-05
0.000220112
4.27459e-05
0.000293966
9.21686e-05
0.000373193
0.000124355
0.000451616
0.000131939
0.000522632
0.000112221
0.000580707
6.87495e-05
0.000622527
1.31879e-05
0.000652884
-4.52304e-05
0.000679193
-9.79153e-05
0.000708037
-0.000145561
0.000741082
-0.000189429
0.000777407
-0.000229433
0.000814994
-0.00026355
0.000851348
-0.000289208
0.000884229
-0.000304594
0.000911924
-0.000309272
0.000933615
-0.000304107
0.000949285
-0.000290846
0.000959445
-0.000271702
0.000964927
-0.000248901
0.000966684
-0.000224405
0.000965623
-0.000199794
0.000962535
-0.000176243
0.000958061
-0.000154553
0.000952685
-0.000135238
0.000946739
-0.000118614
0.000940383
-0.000104898
0.000933639
-9.42619e-05
0.000926132
-8.70168e-05
0.000917728
-8.31707e-05
-8.43488e-05
0.000759397
0.000238013
0.000790536
0.000233817
0.000828353
0.000236375
0.000874989
0.000245448
0.000927008
0.000257195
0.000978875
0.000269587
0.0010244
0.000281984
0.0010575
0.000293073
0.00107308
0.00030081
0.00106767
0.000303529
0.00104012
0.000300555
0.000991083
0.00029208
0.000922527
0.000278554
0.000837844
0.000259465
0.000740152
0.000235084
0.000634565
0.00020831
0.000528719
0.000174498
0.000429926
0.000143612
0.000345877
0.000117386
0.000275356
9.51642e-05
0.000215917
7.74897e-05
0.000164738
6.39506e-05
0.000120615
5.38002e-05
8.11702e-05
4.41579e-05
4.68043e-05
3.11568e-05
1.83745e-05
1.04967e-05
-4.65043e-06
-1.42193e-05
-2.26358e-05
-3.66876e-05
-2.9589e-05
-4.95709e-05
-2.37846e-05
-4.54742e-05
-8.51871e-06
-2.18542e-05
6.22704e-06
1.55454e-05
2.15109e-05
6.14799e-05
3.62827e-05
0.000105325
5.14283e-05
0.000137445
6.85614e-05
0.000150196
8.9115e-05
0.000138547
0.000114462
0.000100958
0.00014342
4.20835e-05
0.000177699
-2.69172e-05
0.000215676
-9.1341e-05
0.000248965
-0.000143684
0.000275619
-0.000178117
0.000295697
-0.000192824
0.000311973
-0.000189281
0.000328164
-0.000170599
0.000350302
-0.000139949
0.000382139
-0.000100629
0.000424707
-5.64548e-05
0.000479194
-1.17403e-05
0.000544365
2.69971e-05
0.00061636
5.23593e-05
0.000689354
5.89447e-05
0.000756511
4.50645e-05
0.000811862
1.33981e-05
0.000854854
-2.98035e-05
0.000887873
-7.82502e-05
0.00091706
-0.000127102
0.000945813
-0.000174313
0.000974608
-0.000218225
0.00100162
-0.000256446
0.00102421
-0.000286142
0.00104012
-0.000305117
0.00104814
-0.000312611
0.00104823
-0.000309368
0.00104134
-0.00029721
0.00102896
-0.000278465
0.00101276
-0.000255507
0.000994308
-0.000230448
0.000974883
-0.00020498
0.000955445
-0.000180356
0.000936639
-0.000157436
0.000918842
-0.000136755
0.000902217
-0.000118613
0.000886755
-0.000103153
0.00087229
-9.04333e-05
0.00085852
-8.0492e-05
0.000844887
-7.33832e-05
0.00083088
-6.91644e-05
-6.82817e-05
0.000672434
0.000206416
0.000702275
0.000203975
0.000733373
0.000205277
0.000767843
0.000210978
0.000806621
0.000218417
0.000850049
0.000226159
0.000897319
0.000234714
0.000946051
0.000244341
0.000992654
0.000254207
0.00103305
0.000263135
0.00106345
0.000270153
0.00108105
0.000274476
0.00108417
0.000275439
0.00107152
0.00027211
0.00104272
0.000263888
0.000999314
0.000251716
0.000946178
0.000227634
0.000887562
0.000202228
0.000826727
0.000178221
0.000766501
0.000155391
0.000709677
0.000134313
0.000658304
0.000115324
0.000614062
9.80418e-05
0.000577329
8.08915e-05
0.000546407
6.20782e-05
0.000515338
4.15662e-05
0.000479014
2.21048e-05
0.000435831
6.49519e-06
0.000390118
-3.85798e-06
0.000350451
-5.8078e-06
0.00032655
2.0474e-06
0.000323607
1.8488e-05
0.000341085
4.4002e-05
0.000373689
7.27212e-05
0.00041639
9.47442e-05
0.000465926
0.00010066
0.000519899
8.45737e-05
0.00057553
4.53274e-05
0.000629493
-1.18792e-05
0.00067773
-7.51549e-05
0.000718611
-0.000132221
0.00074937
-0.000174444
0.000768494
-0.000197241
0.000775644
-0.000199974
0.000771735
-0.000185372
0.000759366
-0.000158229
0.000743475
-0.000124059
0.000730802
-8.79555e-05
0.000728269
-5.3922e-05
0.000741219
-2.46905e-05
0.000770458
-2.24178e-06
0.000812084
1.07327e-05
0.000859879
1.11501e-05
0.000907726
-2.78263e-06
0.000951117
-2.99932e-05
0.000988694
-6.73799e-05
0.00102111
-0.000110667
0.00104991
-0.000155899
0.00107518
-0.000199581
0.00109536
-0.000238405
0.00110813
-0.000269224
0.00111168
-0.000289685
0.0011054
-0.000298835
0.00109004
-0.000297255
0.00106735
-0.000286678
0.00103954
-0.000269397
0.00100882
-0.000247752
0.000977131
-0.000223814
0.000945925
-0.000199242
0.000916213
-0.000175267
0.000888591
-0.000152734
0.000863332
-0.000132177
0.000840473
-0.000113897
0.000819884
-9.80234e-05
0.000801313
-8.4582e-05
0.000784405
-7.35252e-05
0.000768712
-6.47992e-05
0.000753612
-5.82826e-05
0.000738509
-5.40614e-05
-5.18048e-05
0.000594386
0.000177667
0.00062317
0.00017519
0.000652325
0.000176123
0.000682118
0.000181185
0.00071293
0.000187604
0.000745624
0.000193465
0.0007812
0.000199138
0.000820224
0.000205317
0.000862458
0.000211973
0.000906777
0.000218817
0.000951311
0.000225619
0.000993771
0.000232015
0.0010318
0.00023741
0.00106297
0.000240944
0.00108507
0.000241789
0.00109691
0.000239871
0.00109863
0.000225915
0.00109199
0.000208866
0.0010786
0.000191614
0.00106012
0.000173865
0.00103863
0.000155809
0.00101622
0.000137728
0.000994727
0.000119539
0.000974921
0.000100697
0.000956127
8.08723e-05
0.000936745
6.09483e-05
0.000915645
4.32055e-05
0.000891924
3.02161e-05
0.00086408
2.39853e-05
0.000832462
2.58105e-05
0.00079993
3.45792e-05
0.000771456
4.6962e-05
0.000755394
6.00643e-05
0.000757838
7.0277e-05
0.000779506
7.30762e-05
0.000816732
6.34336e-05
0.000864528
3.67775e-05
0.00091699
-7.13456e-06
0.000966375
-6.12638e-05
0.00100648
-0.000115257
0.0010342
-0.000159948
0.0010491
-0.000189341
0.00105296
-0.000201105
0.00104902
-0.000196029
0.00104079
-0.000177142
0.00103113
-0.000148566
0.00102171
-0.000114639
0.00101327
-7.95187e-05
0.00100636
-4.70164e-05
0.00100229
-2.06205e-05
0.00100339
-3.33525e-06
0.00101153
2.58739e-06
0.00102641
-3.73226e-06
0.00104563
-2.20018e-05
0.00106639
-5.07467e-05
0.00108634
-8.73306e-05
0.00110383
-0.000128163
0.00111732
-0.000169382
0.00112498
-0.000207242
0.00112499
-0.00023842
0.00111617
-0.000260401
0.00109842
-0.000271929
0.00107276
-0.000273182
0.00104104
-0.000265533
0.00100541
-0.000251049
0.000967971
-0.000231957
0.00093049
-0.000210271
0.000894296
-0.00018762
0.000860273
-0.000165219
0.000828922
-0.000143917
0.000800449
-0.00012426
0.000774843
-0.000106572
0.000751952
-9.10057e-05
0.000731525
-7.7596e-05
0.000713241
-6.62988e-05
0.000696717
-5.70007e-05
0.000681504
-4.9586e-05
0.000667012
-4.37912e-05
0.00065269
-3.97393e-05
-3.64538e-05
0.000525111
0.000151818
0.000551937
0.000148364
0.000579148
0.000148912
0.000606472
0.000153862
0.000634013
0.000160063
0.000661964
0.000165515
0.000690645
0.000170457
0.000720632
0.00017533
0.000752577
0.000180027
0.000786943
0.000184451
0.000823833
0.000188729
0.000862892
0.000192956
0.000903293
0.000197009
0.000943732
0.000200505
0.000982557
0.000202964
0.00101825
0.000204178
0.00104853
0.000195633
0.00107307
0.000184328
0.00109214
0.000172544
0.00110617
0.000159838
0.00111585
0.000146123
0.00112209
0.00013149
0.00112571
0.000115924
0.00112708
9.9319e-05
0.00112604
8.19206e-05
0.00112211
6.48729e-05
0.00111507
5.02451e-05
0.00110504
4.02438e-05
0.00109268
3.63537e-05
0.00107954
3.89443e-05
0.00106745
4.66711e-05
0.00105798
5.64314e-05
0.00105359
6.44515e-05
0.00105711
6.67631e-05
0.00107052
5.96647e-05
0.00109366
4.02956e-05
0.00112277
7.66099e-06
0.00115124
-3.56017e-05
0.00117268
-8.27019e-05
0.00118344
-0.000126015
0.00118247
-0.000158984
0.00117107
-0.000177938
0.00115211
-0.000182148
0.00112919
-0.00017311
0.0011058
-0.000153751
0.00108485
-0.000127611
0.00106846
-9.82556e-05
0.00105786
-6.89198e-05
0.00105325
-4.24035e-05
0.00105393
-2.12994e-05
0.00105857
-7.96983e-06
0.00106589
-4.73494e-06
0.0010747
-1.25446e-05
0.00108335
-3.06514e-05
0.00109035
-5.77483e-05
0.00109428
-9.12614e-05
0.00109396
-0.000127841
0.00108841
-0.000163834
0.00107693
-0.000195764
0.00105928
-0.000220769
0.00103581
-0.000236925
0.00100736
-0.000243488
0.000975126
-0.000240944
0.000940385
-0.000230792
0.000904428
-0.000215091
0.000868426
-0.000195955
0.00083336
-0.000175205
0.000799974
-0.000154233
0.000768769
-0.000134014
0.00074003
-0.000115179
0.000713868
-9.80977e-05
0.000690252
-8.29568e-05
0.000669056
-6.98096e-05
0.000650077
-5.86162e-05
0.000633053
-4.92752e-05
0.000617666
-4.16138e-05
0.000603536
-3.54562e-05
0.000590158
-3.04127e-05
0.000577025
-2.66068e-05
-2.25379e-05
0.00046394
0.000128553
0.00048864
0.000123664
0.000513482
0.00012407
0.000538164
0.00012918
0.00056313
0.000135096
0.000588458
0.000140187
0.000613988
0.000144927
0.00063979
0.000149528
0.000666122
0.000153696
0.000693304
0.000157268
0.000721701
0.000160333
0.000751655
0.000163002
0.000783364
0.0001653
0.000816738
0.000167131
0.000851354
0.000168348
0.000886604
0.000168927
0.000920405
0.000161833
0.000951941
0.000152792
0.000980875
0.000143609
0.00100691
0.000133799
0.00102991
0.000123131
0.00104985
0.00011155
0.00106675
9.90244e-05
0.00108048
8.5582e-05
0.0010908
7.16035e-05
0.00109753
5.81383e-05
0.00110094
4.68399e-05
0.0011018
3.93799e-05
0.00110138
3.67811e-05
0.00110127
3.90559e-05
0.00110304
4.49001e-05
0.00110779
5.1681e-05
0.00111618
5.60598e-05
0.00112838
5.45573e-05
0.00114387
4.41752e-05
0.00116071
2.34556e-05
0.00117547
-7.09956e-06
0.00118399
-4.41177e-05
0.00118345
-8.21606e-05
0.00117277
-0.000115336
0.00115289
-0.000139099
0.0011262
-0.000151255
0.00109589
-0.000151841
0.00106523
-0.000142448
0.00103704
-0.000125555
0.00101337
-0.000103939
0.000995416
-8.03068e-05
0.000983616
-5.71194e-05
0.000977795
-3.65825e-05
0.000977224
-2.0729e-05
0.000980672
-1.14177e-05
0.000986244
-1.03068e-05
0.000991892
-1.81928e-05
0.000995946
-3.4705e-05
0.000996859
-5.86611e-05
0.000993544
-8.79464e-05
0.000985472
-0.00011977
0.00097269
-0.000151053
0.00095576
-0.000178833
0.000935531
-0.00020054
0.000912797
-0.000214191
0.000888026
-0.000218718
0.000861419
-0.000214336
0.000833169
-0.000202542
0.000803679
-0.000185602
0.000773581
-0.000165858
0.000743612
-0.000145236
0.000714474
-0.000125095
0.000686739
-0.000106279
0.000660812
-8.9251e-05
0.000636926
-7.42123e-05
0.000615172
-6.12027e-05
0.000595521
-5.01586e-05
0.000577855
-4.09497e-05
0.000561985
-3.34058e-05
0.000547663
-2.72916e-05
0.00053457
-2.23635e-05
0.000522291
-1.81334e-05
0.000510306
-1.46217e-05
-1.00521e-05
0.000410014
0.000107503
0.000432755
0.000100923
0.000455185
0.000101639
0.000477157
0.000107208
0.000499463
0.00011279
0.000522216
0.000117435
0.000545222
0.00012192
0.000568468
0.000126283
0.00059198
0.000130184
0.000615743
0.000133505
0.000639803
0.000136273
0.000664303
0.000138502
0.000689437
0.000140166
0.000715367
0.000141201
0.000742165
0.00014155
0.000769833
0.00014126
0.000797127
0.000134539
0.000823621
0.000126298
0.000849118
0.000118111
0.000873317
0.0001096
0.000895902
0.000100546
0.000916583
9.08696e-05
0.000935058
8.05489e-05
0.000950984
6.96563e-05
0.000964035
5.85528e-05
0.000974104
4.80688e-05
0.000981523
3.94214e-05
0.000987106
3.37965e-05
0.000992025
3.18626e-05
0.000997609
3.3471e-05
0.00100504
3.74718e-05
0.00101497
4.17476e-05
0.00102739
4.36412e-05
0.0010415
4.04438e-05
0.00105569
2.99874e-05
0.00106767
1.14785e-05
0.00107477
-1.41968e-05
0.00107475
-4.41017e-05
0.00106643
-7.38445e-05
0.00105006
-9.89656e-05
0.00102716
-0.000116199
0.001
-0.000124094
0.000971084
-0.000122923
0.000942781
-0.000114145
0.000917072
-9.98452e-05
0.000895407
-8.22749e-05
0.000878666
-6.35651e-05
0.000867177
-4.5631e-05
0.000860785
-3.01908e-05
0.000858852
-1.87952e-05
0.000860258
-1.28242e-05
0.000863388
-1.34363e-05
0.000866466
-2.12713e-05
0.000867942
-3.61806e-05
0.000866573
-5.72923e-05
0.000861669
-8.30427e-05
0.000853205
-0.000111306
0.0008418
-0.000139648
0.000828488
-0.000165521
0.000814178
-0.00018623
0.000799077
-0.00019909
0.000782593
-0.000202234
0.000763851
-0.000195595
0.000742356
-0.000181047
0.00071829
-0.000161536
0.000692395
-0.000139963
0.000665662
-0.000118503
0.000639062
-9.84944e-05
0.000613387
-8.06043e-05
0.000589199
-6.50634e-05
0.000566839
-5.18519e-05
0.000546461
-4.08248e-05
0.000528078
-3.17756e-05
0.000511599
-2.44706e-05
0.000496861
-1.86685e-05
0.000483649
-1.40787e-05
0.000471675
-1.03896e-05
0.000460606
-7.06479e-06
0.00044986
-3.8762e-06
8.73115e-07
0.000362528
8.82953e-05
0.000383497
7.99538e-05
0.000403599
8.15369e-05
0.000423069
8.77388e-05
0.000442888
9.29702e-05
0.000463091
9.72322e-05
0.000483544
0.000101467
0.000504325
0.000105501
0.00052546
0.000109049
0.000546862
0.000112103
0.000568446
0.00011469
0.000590166
0.000116782
0.000612008
0.000118323
0.000633973
0.000119236
0.00065607
0.000119453
0.000678338
0.000118991
0.000699905
0.000112972
0.000720617
0.000105586
0.000740506
9.82217e-05
0.000759485
9.06207e-05
0.000777397
8.26342e-05
0.000794039
7.42274e-05
0.000809162
6.54262e-05
0.000822472
5.63459e-05
0.000833707
4.73178e-05
0.000842785
3.89913e-05
0.000849953
3.22534e-05
0.000855829
2.79205e-05
0.000861307
2.63849e-05
0.000867388
2.73893e-05
0.000874927
2.99325e-05
0.000884347
3.23285e-05
0.000895469
3.25185e-05
0.000907433
2.84801e-05
0.000918725
1.86953e-05
0.000927535
2.66888e-06
0.000932053
-1.87149e-05
0.000930904
-4.29527e-05
0.000923534
-6.64746e-05
0.000910319
-8.57507e-05
0.000892368
-9.82474e-05
0.000871203
-0.000102929
0.000848504
-0.000100224
0.000825921
-9.15623e-05
0.000804925
-7.8849e-05
0.00078668
-6.40295e-05
0.000771966
-4.8852e-05
0.000761157
-3.4821e-05
0.000754217
-2.32509e-05
0.000750724
-1.5303e-05
0.000749887
-1.19865e-05
0.000750568
-1.41171e-05
0.000751476
-2.21798e-05
0.000751431
-3.61358e-05
0.00074953
-5.53914e-05
0.000745321
-7.88333e-05
0.000738959
-0.000104943
0.00073124
-0.000131929
0.000723207
-0.000157488
0.000715309
-0.000178333
0.000706815
-0.000190596
0.000696149
-0.000191567
0.000681878
-0.000181324
0.000663497
-0.000162665
0.000641528
-0.000139568
0.000617143
-0.000115578
0.000591684
-9.30437e-05
0.00056634
-7.31502e-05
0.000542004
-5.62681e-05
0.000519259
-4.23188e-05
0.000498424
-3.10169e-05
0.000479618
-2.20181e-05
0.000462812
-1.49702e-05
0.000447887
-9.54568e-06
0.000434666
-5.44757e-06
0.000422938
-2.34994e-06
0.000412431
1.17364e-07
0.000402897
2.46927e-06
0.000393687
5.3335e-06
1.00015e-05
0.000320758
7.05705e-05
0.000340088
6.06239e-05
0.000357964
6.36601e-05
0.000375211
7.04925e-05
0.000392827
7.53534e-05
0.000410702
7.93573e-05
0.000428776
8.33939e-05
0.000447189
8.7087e-05
0.000465978
9.02604e-05
0.000485079
9.30027e-05
0.000504424
9.53449e-05
0.000523951
9.7255e-05
0.000543585
9.86887e-05
0.000563239
9.95822e-05
0.000582824
9.98681e-05
0.000602281
9.95337e-05
0.000620788
9.44658e-05
0.000638212
8.81616e-05
0.000654633
8.18008e-05
0.000670059
7.51949e-05
0.000684446
6.82475e-05
0.000697707
6.09659e-05
0.000709711
5.34226e-05
0.000720285
4.57718e-05
0.000729273
3.83295e-05
0.000736637
3.16274e-05
0.000742559
2.63311e-05
0.000747479
2.30009e-05
0.000752036
2.18281e-05
0.000756953
2.24725e-05
0.000762858
2.40271e-05
0.000770089
2.50971e-05
0.000778549
2.40586e-05
0.000787639
1.93903e-05
0.000796324
1.00107e-05
0.000803331
-4.33901e-06
0.000807368
-2.27515e-05
0.000807424
-4.30083e-05
0.000803016
-6.20673e-05
0.000794226
-7.69605e-05
0.000781603
-8.56239e-05
0.000766038
-8.73648e-05
0.000748655
-8.28406e-05
0.000730696
-7.3603e-05
0.000713379
-6.15322e-05
0.000697751
-4.84013e-05
0.000684577
-3.56784e-05
0.000674291
-2.45348e-05
0.000666977
-1.59375e-05
0.000662387
-1.07126e-05
0.00065997
-9.5693e-06
0.000658924
-1.30715e-05
0.000658325
-2.15808e-05
0.000657294
-3.51046e-05
0.000655139
-5.32365e-05
0.000651546
-7.52405e-05
0.000646829
-0.000100226
0.000641877
-0.000126977
0.000637429
-0.00015304
0.00063312
-0.000174023
0.000627325
-0.000184801
0.000618065
-0.000182307
0.000604125
-0.000167384
0.000585559
-0.000144099
0.000563452
-0.00011746
0.000539343
-9.14689e-05
0.00051472
-6.84211e-05
0.000490757
-4.91869e-05
0.000468238
-3.37491e-05
0.000447608
-2.1689e-05
0.00042905
-1.24588e-05
0.000412573
-5.54124e-06
0.000398068
-4.65119e-07
0.000385359
3.16326e-06
0.000374243
5.66852e-06
0.000364512
7.38133e-06
0.000355912
8.71742e-06
0.000348281
1.01001e-05
0.000340966
1.2648e-05
1.71058e-05
0.000284047
5.3997e-05
0.000301805
4.28659e-05
0.000317589
4.78758e-05
0.000332897
5.51845e-05
0.000348566
5.96843e-05
0.000364367
6.35562e-05
0.000380338
6.74233e-05
0.000396637
7.07885e-05
0.000413273
7.36238e-05
0.000430198
7.60778e-05
0.000447374
7.81688e-05
0.000464762
7.98671e-05
0.000482303
8.11482e-05
0.000499915
8.19697e-05
0.000517505
8.22785e-05
0.000534983
8.20553e-05
0.000551559
7.78902e-05
0.000567069
7.26515e-05
0.00058156
6.73098e-05
0.00059504
6.17146e-05
0.000607488
5.57993e-05
0.000618858
4.9596e-05
0.000629075
4.32062e-05
0.000638039
3.68072e-05
0.000645667
3.07017e-05
0.000651956
2.53384e-05
0.000657057
2.12305e-05
0.000661299
1.87591e-05
0.000665155
1.79718e-05
0.000669161
1.8466e-05
0.000673794
1.93942e-05
0.000679336
1.95559e-05
0.000685764
1.76296e-05
0.000692725
1.24295e-05
0.000699534
3.20174e-06
0.00070528
-1.00849e-05
0.000708994
-2.6465e-05
0.000709876
-4.38907e-05
0.000707443
-5.96342e-05
0.000701549
-7.10669e-05
0.000692373
-7.64476e-05
0.000680404
-7.53955e-05
0.000666425
-6.88622e-05
0.000651445
-5.86225e-05
0.000636542
-4.66296e-05
0.000622697
-3.45561e-05
0.000610657
-2.36378e-05
0.00060087
-1.47482e-05
0.000593474
-8.54147e-06
0.000588308
-5.54699e-06
0.00058497
-6.23064e-06
0.000582855
-1.09563e-05
0.000581261
-1.9987e-05
0.000579487
-3.33305e-05
0.000576975
-5.07254e-05
0.000573569
-7.18338e-05
0.000569684
-9.63411e-05
0.000565944
-0.000123237
0.000562304
-0.0001494
0.000557575
-0.000169294
0.000549956
-0.000177182
0.000538063
-0.000170414
0.0005216
-0.000150921
0.000501359
-0.000123859
0.000478787
-9.48876e-05
0.000455442
-6.81241e-05
0.000432619
-4.55983e-05
0.000411212
-2.77803e-05
0.00039172
-1.42572e-05
0.000374346
-4.31473e-06
0.000359081
2.80633e-06
0.000345805
7.73429e-06
0.000334341
1.09989e-05
0.000324484
1.30206e-05
0.000316009
1.41438e-05
0.000308721
1.46694e-05
0.000302392
1.5046e-05
0.000296935
1.55576e-05
0.000291778
1.7805e-05
2.20227e-05
0.000251798
3.82851e-05
0.000267992
2.66721e-05
0.000281863
3.40047e-05
0.000295505
4.15423e-05
0.00030944
4.57497e-05
0.000323401
4.95947e-05
0.000337535
5.32892e-05
0.000351984
5.63401e-05
0.000366726
5.88816e-05
0.000381718
6.1086e-05
0.000396934
6.29523e-05
0.000412346
6.44554e-05
0.000427908
6.55863e-05
0.00044356
6.63178e-05
0.000459228
6.66098e-05
0.000474839
6.6445e-05
0.000489673
6.30563e-05
0.000503565
5.87589e-05
0.000516542
5.43336e-05
0.000528599
4.96576e-05
0.000539712
4.46857e-05
0.000549842
3.94662e-05
0.00055893
3.41178e-05
0.000566909
2.88289e-05
0.000573725
2.38853e-05
0.000579393
1.96707e-05
0.000584039
1.65841e-05
0.000587925
1.48734e-05
0.000591418
1.44786e-05
0.000594933
1.4951e-05
0.000598841
1.54863e-05
0.00060337
1.50267e-05
0.000608528
1.24713e-05
0.000614084
6.87355e-06
0.000619549
-2.26267e-06
0.000624267
-1.48036e-05
0.000627533
-2.97308e-05
0.000628721
-4.5079e-05
0.000627365
-5.82777e-05
0.000623172
-6.68736e-05
0.000616072
-6.93475e-05
0.000606301
-6.56252e-05
0.00059445
-5.70108e-05
0.000581399
-4.55713e-05
0.00056815
-3.3381e-05
0.00055563
-2.2036e-05
0.000544547
-1.25552e-05
0.000535333
-5.53396e-06
0.000528127
-1.33591e-06
0.000522803
-2.2273e-07
0.000519037
-2.46473e-06
0.000516339
-8.25834e-06
0.000514121
-1.77685e-05
0.000511777
-3.09864e-05
0.000508852
-4.78008e-05
0.000505238
-6.82197e-05
0.000501079
-9.21819e-05
0.000496234
-0.000118392
0.000489844
-0.00014301
0.000480651
-0.000160101
0.000467781
-0.000164312
0.000451196
-0.000153829
0.000431634
-0.000131359
0.000410304
-0.000102528
0.000388544
-7.3128e-05
0.000367529
-4.7109e-05
0.000348079
-2.61482e-05
0.00033065
-1.03519e-05
0.000315374
1.01945e-06
0.000302196
8.8634e-06
0.000290987
1.4015e-05
0.000281543
1.71778e-05
0.000273629
1.89138e-05
0.000267008
1.96409e-05
0.000261461
1.96906e-05
0.000256818
1.93124e-05
0.000252893
1.89718e-05
0.000249676
1.87748e-05
0.00024672
2.07608e-05
2.47648e-05
0.000223468
2.31994e-05
0.000238065
1.20749e-05
0.000250248
2.18225e-05
0.000262464
2.93262e-05
0.000274845
3.33679e-05
0.000287187
3.72533e-05
0.000299722
4.07545e-05
0.000312552
4.35093e-05
0.000325637
4.57968e-05
0.00033894
4.77832e-05
0.000352441
4.94515e-05
0.000366111
5.07848e-05
0.000379912
5.17858e-05
0.000393792
5.24372e-05
0.000407695
5.27077e-05
0.000421557
5.2583e-05
0.000434741
4.98717e-05
0.000447099
4.64013e-05
0.000458649
4.27833e-05
0.000469388
3.89181e-05
0.000479295
3.47789e-05
0.000488333
3.04281e-05
0.000496454
2.59968e-05
0.000503605
2.16786e-05
0.000509747
1.77429e-05
0.000514898
1.45199e-05
0.000519163
1.23196e-05
0.00052275
1.12863e-05
0.000525953
1.12752e-05
0.000529103
1.18012e-05
0.000532495
1.20938e-05
0.000536314
1.12077e-05
0.00054057
8.21518e-06
0.000545106
2.33827e-06
0.000549566
-6.72313e-06
0.000553478
-1.87158e-05
0.0005563
-3.25525e-05
0.00055749
-4.62694e-05
0.00055655
-5.73369e-05
0.000553079
-6.3403e-05
0.000546902
-6.31705e-05
0.000538192
-5.69152e-05
0.00052751
-4.63284e-05
0.000515704
-3.37652e-05
0.000503717
-2.13943e-05
0.000492396
-1.07147e-05
0.000482363
-2.52274e-06
0.000473969
2.85971e-06
0.000467299
5.33463e-06
0.000462219
4.85693e-06
0.000458417
1.33728e-06
0.000455469
-5.30975e-06
0.00045283
-1.51295e-05
0.000449945
-2.8102e-05
0.000446365
-4.42203e-05
0.000441755
-6.36097e-05
0.000435634
-8.6061e-05
0.000427109
-0.000109868
0.000415173
-0.000131074
0.00039946
-0.000144388
0.00038062
-0.000145472
0.000359936
-0.000133146
0.000338739
-0.000110162
0.000318132
-8.19216e-05
0.000298965
-5.39607e-05
0.000281809
-2.99533e-05
0.000266911
-1.12502e-05
0.000254277
2.28231e-06
0.000243784
1.1513e-05
0.00023523
1.74176e-05
0.000228345
2.08997e-05
0.000222849
2.26734e-05
0.000218488
2.32753e-05
0.000215041
2.30872e-05
0.000212321
2.24114e-05
0.000210196
2.14367e-05
0.000208528
2.06402e-05
0.000207378
1.99251e-05
0.000206448
2.16906e-05
2.55314e-05
0.00019856
8.56841e-06
0.000211522
-8.86762e-07
0.00022227
1.10748e-05
0.000233254
1.83421e-05
0.000244242
2.23797e-05
0.000255166