/*--------------------------------*- C++ -*----------------------------------*\
| =========                 |                                                 |
| \\      /  F ield         | OpenFOAM: The Open Source CFD Toolbox           |
|  \\    /   O peration     | Version:  v1912                                 |
|   \\  /    A nd           | Website:  www.openfoam.com                      |
|    \\/     M anipulation  |                                                 |
\*---------------------------------------------------------------------------*/
FoamFile
{
    version     2.0;
    format      ascii;
    class       volVectorField;
    location    "125";
    object      U;
}
// * * * * * * * * * * * * * * * * * * * * * * * * * * * * * * * * * * * * * //

dimensions      [0 1 -1 0 0 0 0];


internalField   nonuniform List<vector> 
2000
(
(0.84616 0.187395 0)
(0.515129 0.124092 0)
(0.223437 0.0684453 0)
(0.0597928 0.0174448 6.20038e-20)
(-0.00455526 -0.0232094 1.19813e-17)
(-0.0642337 -0.0384195 1.03421e-17)
(-0.0776505 -0.0372183 0)
(-0.0716332 -0.0168056 0)
(-0.0590517 0.0112847 0)
(-0.0419323 0.0250188 2.34901e-17)
(-0.0412654 0.0107982 -1.43929e-17)
(-0.0273331 -0.000925358 -1.35127e-17)
(-0.0165809 -0.00322576 0)
(-0.019443 -0.00287942 0)
(-0.0197693 -0.0027654 -1.07491e-17)
(-0.0120432 -0.00274074 0)
(-0.00184227 -0.00290996 9.70417e-18)
(0.00322933 -0.00085254 5.34105e-21)
(0.00622412 -8.71584e-05 9.31927e-18)
(0.00916402 -0.00141658 -4.57075e-18)
(0.0140552 -0.00402564 8.93039e-18)
(0.0218916 -0.00670314 0)
(0.0317376 -0.00893448 0)
(0.0422577 -0.010314 -1.12642e-20)
(0.0519221 -0.0104512 0)
(0.0596626 -0.00919473 -3.99005e-18)
(0.0649073 -0.00645568 0)
(0.0670199 -0.0025546 4.00183e-18)
(0.0653095 0.000927938 0)
(0.0605567 0.00381502 0)
(0.0534975 0.00647147 0)
(0.0449285 0.00873688 1.03622e-18)
(0.0354273 0.0103093 0)
(0.0252831 0.0110088 -5.16614e-19)
(0.0148436 0.0107825 1.69636e-14)
(0.0044205 0.00956219 1.66703e-14)
(-0.00494197 0.0074004 5.03184e-19)
(-0.0123942 0.00423955 -4.87976e-19)
(-0.0173734 0.000399965 0)
(-0.0189828 -0.00360595 2.06434e-18)
(-0.016845 -0.00762653 0)
(-0.0112386 -0.0109941 -2.38408e-18)
(-0.00285176 -0.0131428 0)
(0.00668699 -0.013743 -5.4303e-18)
(0.0158086 -0.012943 2.8783e-18)
(0.023212 -0.0114108 0)
(0.0274828 -0.00911997 0)
(0.0257532 -0.00494014 -3.35646e-18)
(0.0146559 0.00440593 0)
(-0.00823735 0.0198407 3.5578e-18)
(-0.0473219 0.0361389 0)
(-0.10255 0.0466094 5.67553e-18)
(-0.169605 0.0473848 -4.72994e-18)
(-0.24248 0.0377234 3.66878e-18)
(-0.313496 0.0190821 -8.31098e-19)
(-0.37396 -0.00484527 0)
(-0.416587 -0.029148 -5.8957e-20)
(-0.438063 -0.0495889 1.86781e-19)
(-0.439751 -0.0635917 -2.29696e-19)
(-0.430576 -0.072179 2.36714e-19)
(-0.409936 -0.0770657 -1.06254e-18)
(-0.379618 -0.0792317 2.2596e-18)
(-0.340776 -0.0793471 -3.85276e-18)
(-0.294348 -0.0777641 6.01607e-18)
(-0.241587 -0.0741071 -1.1714e-19)
(-0.18389 -0.0688838 1.13394e-17)
(-0.122611 -0.0621621 0)
(-0.0595396 -0.0540445 0)
(0.00357606 -0.0443558 2.55207e-19)
(0.0674779 -0.0331659 0)
(0.131445 -0.0211415 2.17522e-17)
(0.194728 -0.00861039 0)
(0.256988 0.00426321 1.94301e-17)
(0.318497 0.0173363 -5.24123e-19)
(0.379424 0.0304905 1.62274e-17)
(0.441361 0.0436231 2.78933e-17)
(0.502597 0.0566023 6.63879e-19)
(0.573196 0.0692748 -9.33448e-18)
(0.627956 0.0805203 -6.01676e-18)
(0.752226 0.0905819 0)
(1.0153 0.210386 0)
(0.944631 0.194221 0)
(0.804463 0.179997 -3.5073e-18)
(0.654395 0.152327 7.2424e-18)
(0.509186 0.111184 0)
(0.359978 0.0683926 -7.23265e-18)
(0.216437 0.0293547 0)
(0.0820848 -0.00524292 0)
(-0.0282655 -0.0180954 0)
(-0.0564014 -0.0189749 -1.71738e-17)
(-0.0670341 -0.0244488 1.56192e-17)
(-0.0721096 -0.0150941 1.43292e-17)
(-0.0643309 0.00667222 0)
(-0.052796 0.0189907 6.25805e-18)
(-0.0573261 0.0066157 0)
(-0.0530416 -0.00679641 0)
(-0.0453905 -0.00865592 0)
(-0.0430638 -0.00589147 5.12833e-18)
(-0.0469287 -0.00383209 -1.00777e-17)
(-0.0487876 -0.00476725 -4.938e-18)
(-0.0488859 -0.00923043 0)
(-0.0470191 -0.0145917 0)
(-0.0434986 -0.0184964 0)
(-0.0380305 -0.0197028 -6.96726e-18)
(-0.0309254 -0.018148 0)
(-0.0223609 -0.0145102 4.6911e-18)
(-0.0128638 -0.00947736 2.38062e-18)
(-0.00285847 -0.00392003 0)
(0.00630538 0.00142069 0)
(0.0124439 0.00640263 0)
(0.0148736 0.0110895 0)
(0.0132925 0.0155461 -5.90332e-19)
(0.0072167 0.0197911 0)
(-0.00331349 0.0235947 2.88609e-19)
(-0.0177527 0.0264645 1.40287e-19)
(-0.0350808 0.0275493 0)
(-0.0535556 0.0259821 0)
(-0.0709017 0.0211654 5.04504e-19)
(-0.0848554 0.0132608 0)
(-0.0941609 0.00331416 -1.04303e-18)
(-0.0976849 -0.0069427 0)
(-0.0947491 -0.0167504 -1.09124e-18)
(-0.0863822 -0.024082 0)
(-0.0740971 -0.0271432 1.41097e-18)
(-0.0602847 -0.0245343 1.60972e-18)
(-0.0481009 -0.0160525 0)
(-0.0407628 -0.00190953 0)
(-0.0394654 0.0186878 -4.04761e-18)
(-0.0454143 0.0467419 0)
(-0.0613516 0.0807167 2.35598e-19)
(-0.0878305 0.113249 0)
(-0.12248 0.136048 0)
(-0.160529 0.143633 0)
(-0.1942 0.133627 0)
(-0.213018 0.107297 1.38944e-18)
(-0.210963 0.0687062 0)
(-0.192252 0.0245054 8.36918e-19)
(-0.166362 -0.0184262 -2.83104e-19)
(-0.150505 -0.0551748 5.92207e-19)
(-0.125099 -0.082018 -3.7021e-19)
(-0.0968996 -0.102583 1.67336e-18)
(-0.0637352 -0.118604 -3.57918e-18)
(-0.0258229 -0.130613 6.14985e-18)
(0.0181753 -0.138282 0)
(0.0675579 -0.141111 -1.59952e-17)
(0.1196 -0.139099 -1.25711e-17)
(0.17404 -0.132589 0)
(0.229686 -0.122236 7.23208e-18)
(0.285435 -0.108718 1.58084e-17)
(0.340727 -0.0927683 0)
(0.395229 -0.0751879 0)
(0.448723 -0.0566972 0)
(0.50122 -0.0378712 0)
(0.553079 -0.0191637 -1.46993e-17)
(0.604665 -0.000941776 6.27917e-18)
(0.657229 0.0164769 -1.20965e-17)
(0.709858 0.0327043 1.02422e-17)
(0.769406 0.0471785 -3.5168e-18)
(0.816636 0.0585156 0)
(0.913272 0.0649118 0)
(0.978489 0.201541 0)
(0.978854 0.193019 -2.76292e-18)
(0.969151 0.205133 3.46002e-18)
(0.93907 0.20856 -3.03959e-18)
(0.878005 0.194641 2.86429e-18)
(0.785553 0.168756 2.82185e-18)
(0.669273 0.138111 0)
(0.540893 0.106044 0)
(0.408064 0.0750636 0)
(0.285691 0.0459184 6.81772e-18)
(0.173414 0.0180006 0)
(0.0718433 -0.0062871 0)
(-0.0209154 -0.013413 0)
(-0.0457648 -0.00324412 -7.12612e-18)
(-0.0506929 -0.0113875 0)
(-0.0598985 -0.0171658 -5.98264e-18)
(-0.0620137 -0.00953386 0)
(-0.0553229 0.00923333 5.76516e-18)
(-0.0607165 0.0135692 2.7949e-18)
(-0.0695479 0.00718888 0)
(-0.0784449 -0.00191446 -2.62607e-18)
(-0.0870809 -0.0102988 0)
(-0.0946618 -0.0156421 0)
(-0.100841 -0.0186233 4.83927e-18)
(-0.104667 -0.0199827 0)
(-0.104727 -0.0204934 1.18087e-18)
(-0.0999173 -0.0200617 -3.61115e-18)
(-0.0904605 -0.0175963 0)
(-0.078229 -0.0117141 0)
(-0.0664401 -0.00291468 -6.87751e-19)
(-0.0585015 0.00816723 0)
(-0.0560988 0.0205287 3.81807e-20)
(-0.0608925 0.0341618 0)
(-0.0733477 0.0474666 6.11744e-19)
(-0.0923965 0.0582003 7.01937e-20)
(-0.115732 0.0638443 0)
(-0.140109 0.0623006 1.06339e-19)
(-0.161803 0.0526134 -1.8611e-19)
(-0.177362 0.0355916 -1.73484e-19)
(-0.184279 0.0137557 -3.59069e-19)
(-0.182825 -0.00978275 3.93701e-19)
(-0.173712 -0.0309222 6.31629e-19)
(-0.157232 -0.0463153 0)
(-0.135837 -0.0534889 1.44121e-18)
(-0.112157 -0.0509667 -3.4027e-18)
(-0.0883782 -0.0384751 0)
(-0.066139 -0.0162812 -2.37045e-18)
(-0.0470545 0.0152039 4.55485e-18)
(-0.0311536 0.0541331 0)
(-0.0170806 0.097189 -2.02748e-18)
(-0.00436239 0.137627 2.25227e-18)
(0.00943173 0.166597 -1.88208e-18)
(0.0254536 0.176332 -1.3714e-18)
(0.043573 0.162267 0)
(0.0681365 0.12407 -4.97943e-19)
(0.0973243 0.068174 1.86028e-19)
(0.122331 0.0105434 -5.28395e-19)
(0.14012 -0.0324534 -4.52393e-19)
(0.156028 -0.0628273 -6.46371e-19)
(0.177565 -0.088592 0)
(0.20531 -0.112607 0)
(0.238098 -0.134672 0)
(0.275143 -0.153352 -9.94143e-19)
(0.315754 -0.166604 0)
(0.358844 -0.17395 3.87888e-18)
(0.40298 -0.174865 0)
(0.447191 -0.169645 -2.51435e-18)
(0.490775 -0.159195 -5.9596e-18)
(0.533272 -0.144669 0)
(0.574526 -0.127325 -3.12743e-18)
(0.614622 -0.108391 3.20003e-18)
(0.653818 -0.0889075 0)
(0.69249 -0.0696796 0)
(0.73117 -0.0513142 0)
(0.770319 -0.0342827 -6.06995e-18)
(0.81093 -0.0189777 0)
(0.852325 -0.00586088 -2.08349e-18)
(0.899363 0.00451623 3.55048e-18)
(0.937111 0.0110619 0)
(1.01314 0.0125807 4.20756e-19)
(0.970611 0.20912 0)
(0.963917 0.194779 1.51215e-18)
(0.96643 0.198538 0)
(0.977152 0.206443 1.68301e-18)
(0.98203 0.208932 -2.98225e-18)
(0.968276 0.204324 -1.33058e-18)
(0.930705 0.193786 0)
(0.870667 0.177934 0)
(0.790967 0.156635 0)
(0.695159 0.131408 1.34081e-18)
(0.589103 0.105516 1.372e-18)
(0.479596 0.0808017 0)
(0.368773 0.0580999 0)
(0.266431 0.0376695 0)
(0.17923 0.0182864 0)
(0.0996453 0.00201718 6.3472e-18)
(0.0293406 -0.0101953 -3.36018e-18)
(-0.0286878 -0.00690257 0)
(-0.0294396 0.00549538 -3.23891e-18)
(-0.0339023 0.00741663 1.58225e-18)
(-0.0385887 0.00578176 3.09856e-18)
(-0.048155 0.00189487 0)
(-0.0628624 -0.00125297 0)
(-0.0805631 -0.00430622 -2.811e-18)
(-0.0979138 -0.00922802 0)
(-0.112069 -0.0160148 -1.3293e-18)
(-0.11988 -0.0226776 1.32577e-18)
(-0.119664 -0.0259632 0)
(-0.112649 -0.0226212 0)
(-0.102217 -0.0124652 7.43847e-19)
(-0.0927083 0.0033952 0)
(-0.0869725 0.0232634 -7.5535e-19)
(-0.0865306 0.0441323 0)
(-0.0927524 0.0634239 -1.5989e-19)
(-0.104432 0.0777804 -7.63335e-20)
(-0.119145 0.0835694 -1.58011e-20)
(-0.133691 0.0781761 -1.67604e-19)
(-0.144567 0.0610871 2.10782e-19)
(-0.148698 0.0342052 2.01184e-19)
(-0.14537 0.0014258 5.49436e-19)
(-0.134296 -0.032459 -2.98992e-19)
(-0.117448 -0.0613851 3.24232e-19)
(-0.0961147 -0.081941 0)
(-0.0718548 -0.0918618 8.34914e-19)
(-0.0464378 -0.0901163 9.79434e-19)
(-0.019908 -0.077121 0)
(0.00690693 -0.0538706 2.7733e-18)
(0.0345297 -0.0215108 1.59591e-18)
(0.0633421 0.0179124 0)
(0.0953064 0.0596254 -3.95757e-18)
(0.13214 0.0978018 -2.20717e-18)
(0.17373 0.124828 8.11603e-19)
(0.218586 0.133479 1.24652e-18)
(0.26335 0.120067 0)
(0.305263 0.0860955 2.09849e-19)
(0.340694 0.0407917 -1.28005e-19)
(0.367713 -0.00393147 -3.54698e-19)
(0.38996 -0.0433161 3.71439e-19)
(0.412597 -0.0778236 7.13149e-20)
(0.439173 -0.109421 0)
(0.470134 -0.138873 0)
(0.504269 -0.165242 0)
(0.540049 -0.186694 1.25954e-18)
(0.576008 -0.201494 5.84432e-19)
(0.610885 -0.20876 0)
(0.643775 -0.208448 -1.83051e-18)
(0.674293 -0.201342 2.29543e-18)
(0.702515 -0.188787 -2.38924e-18)
(0.728816 -0.172332 -2.60639e-18)
(0.753761 -0.153488 2.47404e-19)
(0.777997 -0.133574 -3.14201e-18)
(0.802177 -0.113645 0)
(0.826908 -0.0944858 0)
(0.852782 -0.0766539 0)
(0.880221 -0.0605539 0)
(0.909957 -0.0464957 0)
(0.941349 -0.0348315 4.20857e-18)
(0.977892 -0.0258914 -1.54875e-18)
(1.00773 -0.0204814 0)
(1.06705 -0.0188987 -4.56792e-19)
(0.972988 0.216084 0)
(0.965832 0.201821 1.85602e-18)
(0.959207 0.195623 2.4747e-19)
(0.961491 0.19558 1.89399e-18)
(0.972673 0.197584 0)
(0.985526 0.199299 -1.5957e-18)
(0.992497 0.199376 0)
(0.988432 0.196351 -3.59833e-19)
(0.970156 0.189153 0)
(0.935507 0.17772 -1.59357e-18)
(0.884527 0.162953 -1.23321e-18)
(0.819315 0.145885 -3.1276e-19)
(0.742853 0.126909 3.10332e-19)
(0.657459 0.106223 0)
(0.568313 0.0853586 3.10319e-19)
(0.478191 0.0662837 0)
(0.391887 0.0501774 2.63527e-18)
(0.3117 0.0363004 -3.48838e-19)
(0.244332 0.0248293 0)
(0.190585 0.0168749 -1.85532e-18)
(0.148292 0.0121615 0)
(0.113362 0.00960877 0)
(0.0828564 0.00839802 0)
(0.0563416 0.00710989 0)
(0.0346676 0.00233652 -1.98009e-19)
(0.0176198 -0.00791396 0)
(0.00414877 -0.0207574 0)
(-0.00688274 -0.0303779 1.10697e-19)
(-0.0137565 -0.0323035 0)
(-0.0144262 -0.0237443 0)
(-0.00830831 -0.00532928 0)
(-0.000588985 0.019259 -6.85675e-20)
(0.00699966 0.0449123 0)
(0.0139035 0.0682632 -2.47459e-19)
(0.0203899 0.0854957 0)
(0.0277724 0.0926833 1.96386e-20)
(0.038081 0.0868426 7.53335e-20)
(0.052572 0.0669558 9.00931e-21)
(0.0704337 0.034841 -1.30821e-20)
(0.0895623 -0.00482995 -1.53736e-19)
(0.110813 -0.0447593 -1.82974e-19)
(0.131103 -0.0788453 2.42822e-19)
(0.147897 -0.103371 -7.83074e-20)
(0.160982 -0.116385 -8.27857e-19)
(0.171001 -0.117496 1.01146e-18)
(0.180415 -0.107214 -1.53317e-19)
(0.191806 -0.0865887 0)
(0.208576 -0.0576966 -1.41435e-18)
(0.231961 -0.0234985 0)
(0.262675 0.0118729 1.32341e-18)
(0.30126 0.0427195 0)
(0.346648 0.0635481 9.15919e-19)
(0.396332 0.0698714 0)
(0.446609 0.0598466 -1.26498e-19)
(0.493521 0.0356724 -2.01313e-19)
(0.533826 0.00279103 -2.93186e-20)
(0.56774 -0.0334541 1.17928e-20)
(0.597851 -0.069966 0)
(0.628095 -0.105507 -6.49633e-20)
(0.660401 -0.139555 -1.93028e-20)
(0.694203 -0.170998 0)
(0.727612 -0.197814 6.82252e-20)
(0.758574 -0.217851 -3.89787e-19)
(0.785579 -0.229704 -5.55493e-19)
(0.807939 -0.2331 0)
(0.825765 -0.228779 1.79493e-18)
(0.839782 -0.218151 0)
(0.851074 -0.202927 2.41491e-18)
(0.860836 -0.184805 2.67086e-18)
(0.870194 -0.165274 2.87732e-18)
(0.880127 -0.14553 3.47835e-19)
(0.89143 -0.126466 0)
(0.904715 -0.108708 0)
(0.920472 -0.092668 0)
(0.938974 -0.0786193 -3.32645e-19)
(0.960703 -0.066751 0)
(0.984917 -0.0572582 -1.95084e-18)
(1.01437 -0.0503282 1.90993e-18)
(1.03872 -0.0463475 1.23337e-19)
(1.08844 -0.045622 5.27857e-20)
(0.974194 0.218516 -1.22363e-18)
(0.970935 0.206376 1.1844e-18)
(0.96512 0.198194 -2.80033e-19)
(0.961141 0.194144 0)
(0.962203 0.191986 0)
(0.968271 0.190605 0)
(0.97779 0.189966 0)
(0.988525 0.18959 1.24306e-18)
(0.997452 0.188453 0)
(1.00094 0.185549 -1.11086e-18)
(0.995757 0.180198 -1.38431e-18)
(0.979778 0.17219 3.17247e-19)
(0.952519 0.161741 9.57967e-19)
(0.914007 0.148953 0)
(0.865056 0.134075 -1.46119e-18)
(0.807254 0.118236 0)
(0.744471 0.102968 -1.16859e-18)
(0.681121 0.0887342 2.92757e-19)
(0.619366 0.0755511 -1.21594e-18)
(0.56171 0.0637164 -9.27529e-19)
(0.509302 0.0533666 0)
(0.462763 0.0446264 0)
(0.422565 0.0373537 -6.35061e-19)
(0.389084 0.0306467 0)
(0.362076 0.0232956 -4.84738e-19)
(0.339819 0.01428 0)
(0.316775 0.00336317 0)
(0.289553 -0.00760101 -9.4657e-20)
(0.258744 -0.0163783 0)
(0.228388 -0.0202922 0)
(0.205564 -0.0155498 0)
(0.195583 -0.000107459 6.1941e-20)
(0.19938 0.0233116 2.38797e-19)
(0.214217 0.0481096 1.30867e-19)
(0.236745 0.0674747 0)
(0.26468 0.0762101 0)
(0.296885 0.0712546 -1.1606e-20)
(0.332509 0.0514797 -3.73606e-20)
(0.36917 0.018288 1.0561e-20)
(0.403093 -0.021872 0)
(0.432997 -0.0603546 0)
(0.457827 -0.0913115 -9.36754e-20)
(0.476158 -0.11117 6.35872e-20)
(0.487387 -0.118854 -3.50608e-19)
(0.491669 -0.115626 4.3618e-19)
(0.489867 -0.104191 1.29002e-19)
(0.484095 -0.0874739 0)
(0.478176 -0.0677065 6.31149e-19)
(0.476948 -0.0463096 0)
(0.484882 -0.0242774 0)
(0.505093 -0.00394263 0)
(0.53661 0.0104218 0)
(0.575924 0.0148602 0)
(0.618971 0.00748679 1.26124e-19)
(0.662025 -0.0111984 0)
(0.702822 -0.0386176 2.54941e-19)
(0.740791 -0.0715022 -1.13266e-20)
(0.77701 -0.106712 0)
(0.812508 -0.142034 1.26111e-19)
(0.846771 -0.175475 1.87346e-20)
(0.877958 -0.204649 2.28045e-19)
(0.903959 -0.227172 -6.75738e-20)
(0.923323 -0.241414 0)
(0.935694 -0.246946 -5.45491e-19)
(0.941761 -0.244471 0)
(0.942925 -0.235436 0)
(0.940909 -0.221597 -9.61247e-19)
(0.937436 -0.204694 0)
(0.934025 -0.186246 0)
(0.931891 -0.167467 -1.33357e-18)
(0.931943 -0.14926 -3.81361e-19)
(0.934819 -0.132255 0)
(0.940938 -0.116859 0)
(0.950588 -0.103321 0)
(0.963851 -0.0917777 3.71393e-19)
(0.981008 -0.0823066 -1.27948e-18)
(1.00121 -0.0749651 -2.8849e-19)
(1.02685 -0.0698169 -2.24261e-19)
(1.04827 -0.0669297 -1.39322e-19)
(1.0932 -0.0666332 -2.87211e-19)
(0.974501 0.219012 4.32497e-18)
(0.973758 0.208048 -4.15293e-18)
(0.971716 0.200446 0)
(0.969163 0.196241 -2.5196e-18)
(0.96706 0.192979 0)
(0.966177 0.189368 -2.22109e-18)
(0.967438 0.185894 0)
(0.971699 0.18311 2.95683e-18)
(0.979023 0.180867 -3.67044e-18)
(0.988348 0.178668 1.67546e-18)
(0.99778 0.176014 1.56579e-18)
(1.00508 0.172453 0)
(1.00822 0.167626 -4.23079e-18)
(1.0055 0.161117 -2.69316e-18)
(0.995505 0.152607 3.78381e-18)
(0.977461 0.142426 0)
(0.95234 0.131517 1.15907e-18)
(0.922589 0.120689 0)
(0.890063 0.109986 1.1487e-18)
(0.856164 0.0991883 1.13857e-18)
(0.822123 0.0884252 0)
(0.789248 0.0779581 0)
(0.758795 0.0678078 -6.0041e-19)
(0.731614 0.0575524 0)
(0.707686 0.0466833 5.58081e-19)
(0.685943 0.0352797 0)
(0.664749 0.0246322 0)
(0.643117 0.0166511 0)
(0.620305 0.0127105 0)
(0.595381 0.0125256 0)
(0.569043 0.0148591 0)
(0.543814 0.0191717 0)
(0.524675 0.0258689 2.0163e-19)
(0.517565 0.0341038 -9.2325e-20)
(0.525209 0.0405095 3.86671e-20)
(0.546056 0.0402019 0)
(0.57668 0.0286885 0)
(0.614253 0.00461124 2.68171e-20)
(0.653499 -0.0282261 -1.05047e-19)
(0.688319 -0.0636431 1.10618e-19)
(0.715513 -0.0954445 0)
(0.734104 -0.119013 4.78207e-19)
(0.744609 -0.131743 -5.23305e-19)
(0.748877 -0.133106 -3.39938e-19)
(0.749469 -0.124286 -4.03989e-19)
(0.748776 -0.107553 0)
(0.74843 -0.0858071 0)
(0.749185 -0.0623424 -1.67443e-18)
(0.751344 -0.0405722 0)
(0.755398 -0.0234826 0)
(0.762758 -0.0129466 0)
(0.775895 -0.00965566 9.24767e-19)
(0.795921 -0.0143153 1.57168e-18)
(0.821891 -0.0274325 0)
(0.85155 -0.0485923 0)
(0.882883 -0.07618 -2.49425e-19)
(0.914267 -0.10798 0)
(0.944423 -0.141554 4.99716e-19)
(0.971923 -0.174352 3.5887e-19)
(0.994978 -0.203651 0)
(1.01185 -0.226906 3.84658e-19)
(1.02151 -0.242356 7.55854e-19)
(1.02393 -0.249424 9.34216e-19)
(1.02004 -0.248678 5.86157e-19)
(1.01145 -0.241472 -1.40611e-18)
(1 -0.2295 1.68609e-18)
(0.987491 -0.21444 3.04245e-18)
(0.975474 -0.197749 0)
(0.965176 -0.180591 0)
(0.95749 -0.163835 1.4937e-18)
(0.953025 -0.148091 0)
(0.952174 -0.133769 3.14715e-18)
(0.955163 -0.12112 3.20987e-18)
(0.962136 -0.110282 0)
(0.973071 -0.101314 3.0449e-18)
(0.988164 -0.0942235 -1.34111e-18)
(1.00654 -0.088973 0)
(1.03045 -0.0855409 0)
(1.05055 -0.0837379 0)
(1.09344 -0.0840343 -2.43566e-19)
(0.974733 0.21894 -3.33207e-18)
(0.975459 0.208213 3.18974e-18)
(0.97606 0.201078 -6.19556e-18)
(0.975942 0.197395 2.84967e-18)
(0.974884 0.1945 0)
(0.973214 0.190839 2.51196e-18)
(0.971507 0.186655 -4.80812e-18)
(0.970502 0.182432 -4.45676e-18)
(0.971038 0.178254 -7.87356e-20)
(0.973774 0.174116 0)
(0.978914 0.170087 0)
(0.986123 0.166138 3.56456e-18)
(0.994577 0.162037 3.26046e-18)
(1.00309 0.157376 -3.24387e-18)
(1.01022 0.151783 -8.80078e-18)
(1.01452 0.145199 0)
(1.01511 0.137967 0)
(1.01209 0.130395 0)
(1.00599 0.122364 0)
(0.99732 0.113699 0)
(0.986617 0.104456 0)
(0.974561 0.09476 0)
(0.961898 0.0846104 1.16041e-18)
(0.949173 0.073863 -2.42234e-18)
(0.93646 0.0625114 0)
(0.923364 0.0511165 0)
(0.909385 0.0408639 0)
(0.894298 0.0329667 0)
(0.878283 0.0282536 0)
(0.862068 0.0273209 -7.49884e-19)
(0.846987 0.0300261 0)
(0.834327 0.0348631 0)
(0.825473 0.0395876 -4.30943e-21)
(0.82254 0.0416837 0)
(0.827676 0.0387709 -3.59201e-20)
(0.841873 0.0287548 0)
(0.864296 0.0101991 9.93695e-20)
(0.890278 -0.0165046 0)
(0.913765 -0.0482198 2.42233e-19)
(0.93051 -0.0796871 -1.06238e-19)
(0.938576 -0.105855 -3.57791e-19)
(0.938157 -0.123422 -3.90444e-19)
(0.930974 -0.131125 5.26504e-19)
(0.919671 -0.129416 6.74855e-19)
(0.907161 -0.119989 1.62308e-18)
(0.896065 -0.10518 1.85349e-18)
(0.888472 -0.0874273 0)
(0.88586 -0.068899 -1.04507e-18)
(0.888955 -0.0514223 0)
(0.897631 -0.0368621 0)
(0.911121 -0.0274798 -2.09948e-18)
(0.928487 -0.0253067 -9.4009e-19)
(0.948877 -0.0313989 1.03794e-19)
(0.971119 -0.0459556 0)
(0.993876 -0.0681549 0)
(1.01575 -0.0962636 0)
(1.03538 -0.12779 8.71104e-19)
(1.05159 -0.159821 -5.24106e-19)
(1.06333 -0.189407 -5.15754e-19)
(1.06986 -0.213967 0)
(1.07093 -0.231659 -6.74466e-19)
(1.06686 -0.24164 8.19221e-20)
(1.0584 -0.244105 -1.03586e-18)
(1.04657 -0.240071 1.25665e-18)
(1.03254 -0.231027 7.52706e-20)
(1.01753 -0.218565 -1.89862e-18)
(1.00272 -0.204127 -2.23591e-18)
(0.98914 -0.18889 0)
(0.977661 -0.173748 0)
(0.968938 -0.159348 0)
(0.963454 -0.146132 0)
(0.961547 -0.134388 -3.56756e-18)
(0.963436 -0.124287 -3.63976e-18)
(0.96928 -0.115908 0)
(0.979086 -0.109266 -3.45465e-18)
(0.993076 -0.104319 6.25635e-18)
(1.01042 -0.100957 0)
(1.03335 -0.0990799 0)
(1.05274 -0.0982853 0)
(1.09457 -0.0991267 1.13716e-18)
(0.975035 0.218504 8.28901e-18)
(0.977129 0.207487 0)
(0.979627 0.200827 1.41814e-17)
(0.98095 0.197747 0)
(0.980759 0.195216 6.17088e-18)
(0.979856 0.191871 0)
(0.978681 0.187972 5.43342e-18)
(0.977217 0.18375 0)
(0.975653 0.179109 -4.99833e-18)
(0.974508 0.174049 0)
(0.974371 0.168747 8.80658e-18)
(0.975724 0.163365 -4.07448e-18)
(0.978867 0.15794 0)
(0.983818 0.152384 7.2324e-18)
(0.990232 0.146565 -1.83723e-19)
(0.997471 0.140432 -6.59792e-18)
(1.00471 0.134145 6.38235e-18)
(1.01131 0.127779 0)
(1.01698 0.121112 0)
(1.02145 0.113908 5.91601e-18)
(1.02454 0.106077 0)
(1.02618 0.0976037 -2.83446e-18)
(1.02644 0.0884589 0)
(1.02535 0.078622 2.62687e-18)
(1.02277 0.0682641 0)
(1.01847 0.0579614 2.79476e-18)
(1.0124 0.0486769 0)
(1.00496 0.0414561 0)
(0.997017 0.0370955 1.53947e-18)
(0.989834 0.0358956 7.82321e-19)
(0.984838 0.0372763 0)
(0.98322 0.0396871 0)
(0.985686 0.0410828 -1.1355e-18)
(0.992537 0.0392379 0)
(1.00369 0.0320829 0)
(1.01841 0.0180565 0)
(1.03433 -0.00310356 -1.0191e-19)
(1.04759 -0.0296494 0)
(1.05472 -0.0580444 -5.4086e-19)
(1.05371 -0.0840561 -4.04396e-19)
(1.04439 -0.104227 3.82013e-19)
(1.02827 -0.116668 0)
(1.00791 -0.12103 0)
(0.986249 -0.11811 1.52045e-18)
(0.966094 -0.109426 -1.77945e-18)
(0.949744 -0.0968175 -2.03451e-18)
(0.938764 -0.0821946 0)
(0.933988 -0.0674213 6.59144e-20)
(0.935645 -0.0542855 2.39172e-18)
(0.943501 -0.0444997 0)
(0.956849 -0.0397101 2.29726e-18)
(0.974278 -0.0412437 2.1591e-18)
(0.993961 -0.0497371 -1.84839e-18)
(1.01405 -0.0651172 0)
(1.03285 -0.086503 0)
(1.04888 -0.112285 0)
(1.06106 -0.140261 -9.62967e-19)
(1.06886 -0.16798 0)
(1.07241 -0.193079 0)
(1.07236 -0.213552 0)
(1.06959 -0.227944 2.07795e-18)
(1.06468 -0.235519 -1.03124e-18)
(1.05781 -0.23638 0)
(1.0489 -0.231416 -1.4227e-18)
(1.03808 -0.22204 -1.53551e-18)
(1.02585 -0.209803 3.82715e-18)
(1.01303 -0.196101 -4.49914e-18)
(1.0006 -0.182041 -5.21148e-18)
(0.989498 -0.168431 0)
(0.980532 -0.15582 -6.57155e-18)
(0.974356 -0.144564 0)
(0.97146 -0.134873 0)
(0.972187 -0.126852 0)
(0.976795 -0.120531 7.76621e-18)
(0.985365 -0.115876 -7.49857e-18)
(0.998179 -0.112801 -1.04356e-17)
(1.01447 -0.11112 0)
(1.03647 -0.110673 4.72405e-18)
(1.05522 -0.110808 0)
(1.09626 -0.112247 -1.9293e-18)
(0.975434 0.217692 -9.40228e-18)
(0.979145 0.2061 -9.15293e-18)
(0.983428 0.200262 -1.63345e-17)
(0.985589 0.198021 0)
(0.9855 0.195714 -1.40313e-17)
(0.984808 0.192461 -6.68383e-18)
(0.984231 0.18879 0)
(0.983496 0.184804 1.19076e-17)
(0.982412 0.180304 1.11125e-17)
(0.981111 0.175239 0)
(0.979809 0.1697 -9.95959e-18)
(0.978747 0.163786 0)
(0.978244 0.157563 0)
(0.978633 0.151063 8.61828e-18)
(0.980145 0.144306 7.9804e-18)
(0.982867 0.137347 -1.78227e-19)
(0.986695 0.130409 1.79048e-19)
(0.991414 0.123631 0)
(0.996782 0.116846 0)
(1.00245 0.109821 -6.77911e-18)
(1.008 0.102399 -6.82871e-18)
(1.01305 0.0945012 9.93617e-18)
(1.01727 0.0860779 3.30017e-18)
(1.02037 0.0771335 3.26922e-18)
(1.022 0.0678447 0)
(1.02191 0.0586895 -3.15533e-18)
(1.02018 0.0504284 0)
(1.01737 0.0438696 0)
(1.01448 0.0395535 -3.48209e-18)
(1.01281 0.0375208 0)
(1.01362 0.0371506 0)
(1.01787 0.0371793 0)
(1.02586 0.0359624 8.40659e-19)
(1.03716 0.0317048 -4.02067e-19)
(1.05058 0.0227811 1.85624e-19)
(1.06417 0.00836832 0)
(1.07537 -0.0110399 0)
(1.08152 -0.0337248 0)
(1.08056 -0.0568412 4.37093e-19)
(1.07187 -0.0773381 4.54001e-19)
(1.05627 -0.0928522 -1.14756e-18)
(1.03569 -0.102169 0)
(1.01255 -0.105218 0)
(0.989327 -0.10278 -3.47343e-18)
(0.968261 -0.096152 -1.99395e-18)
(0.951174 -0.0868468 0)
(0.939354 -0.076386 0)
(0.933533 -0.0661943 2.62877e-18)
(0.933934 -0.0575744 -2.7976e-20)
(0.940325 -0.0517535 0)
(0.951935 -0.0498845 0)
(0.967398 -0.0529811 -2.4402e-18)
(0.984903 -0.0616808 0)
(1.00253 -0.0759741 0)
(1.01857 -0.0952462 0)
(1.03175 -0.118285 0)
(1.04143 -0.143411 0)
(1.04775 -0.168671 -2.94855e-18)
(1.05168 -0.192073 0)
(1.05455 -0.211716 0)
(1.05724 -0.225874 2.1364e-19)
(1.05939 -0.233295 0)
(1.05967 -0.233686 0)
(1.05673 -0.227896 0)
(1.04999 -0.217585 7.11517e-18)
(1.0399 -0.204624 -4.3225e-18)
(1.02761 -0.19063 5.08954e-18)
(1.01455 -0.176798 2.72212e-19)
(1.00209 -0.163907 0)
(0.991383 -0.152425 7.46722e-18)
(0.983321 -0.1426 -7.88402e-18)
(0.978551 -0.134541 0)
(0.977512 -0.128266 0)
(0.980509 -0.123731 -1.19082e-19)
(0.987651 -0.120845 8.54527e-18)
(0.999237 -0.119475 7.89233e-18)
(1.01453 -0.119359 0)
(1.03579 -0.120305 -5.38414e-18)
(1.05409 -0.121317 0)
(1.09488 -0.123525 1.46853e-18)
(0.975986 0.216476 0)
(0.981694 0.204224 2.10863e-17)
(0.987775 0.199663 1.86995e-17)
(0.990451 0.198435 0)
(0.990139 0.196269 7.97406e-18)
(0.989296 0.193019 -7.71643e-18)
(0.988807 0.189449 0)
(0.98833 0.185542 -1.34644e-17)
(0.987678 0.181103 0)
(0.986943 0.176131 0)
(0.98616 0.170686 0)
(0.985304 0.164797 0)
(0.984411 0.158477 0)
(0.983604 0.151736 1.80648e-19)
(0.983037 0.144594 -9.41845e-18)
(0.982874 0.137119 -1.78523e-19)
(0.983296 0.129571 1.79068e-19)
(0.984448 0.122165 0)
(0.986371 0.114828 0)
(0.988943 0.107392 0)
(0.991908 0.0997384 -2.07339e-19)
(0.994956 0.0918053 2.18585e-19)
(0.997763 0.0835622 -3.78062e-18)
(0.999983 0.0750312 -3.74556e-18)
(1.00126 0.0663693 0)
(1.00136 0.0579492 -3.89068e-18)
(1.00033 0.0503284 3.94811e-18)
(0.998627 0.0440649 0)
(0.997132 0.0394892 2.0106e-18)
(0.99694 0.0365491 2.07819e-18)
(0.999127 0.0347209 0)
(1.00444 0.0330106 0)
(1.013 0.0301143 9.93895e-19)
(1.02423 0.0246508 -1.30381e-20)
(1.03673 0.0155007 -4.34904e-19)
(1.04849 0.00222231 0)
(1.05751 -0.0147803 0)
(1.06175 -0.0340612 -6.89359e-19)
(1.05992 -0.0533252 0)
(1.05181 -0.0701907 -6.65552e-19)
(1.03825 -0.0828407 -1.00037e-19)
(1.02068 -0.0903795 0)
(1.00089 -0.0928578 1.77068e-18)
(0.980768 -0.0910212 4.01036e-18)
(0.962126 -0.0860073 2.27668e-18)
(0.94654 -0.0790827 0)
(0.935232 -0.0714772 -5.50313e-18)
(0.928978 -0.0643325 0)
(0.928102 -0.0587228 -3.04452e-18)
(0.932474 -0.0556541 0)
(0.9415 -0.0560264 0)
(0.954111 -0.0606009 0)
(0.968843 -0.0698509 0)
(0.984088 -0.0837824 0)
(0.998417 -0.101942 -4.72939e-18)
(1.01081 -0.123447 4.35469e-18)
(1.02087 -0.147046 0)
(1.02912 -0.171268 3.34142e-18)
(1.03699 -0.19448 -3.48226e-18)
(1.04594 -0.214655 0)
(1.05595 -0.229357 -2.87024e-18)
(1.06507 -0.236515 0)
(1.07044 -0.235513 0)
(1.06999 -0.227534 0)
(1.06328 -0.214883 -3.90389e-18)
(1.05143 -0.2 4.36684e-18)
(1.03636 -0.184812 -5.21159e-18)
(1.02013 -0.170577 1.25808e-17)
(1.00456 -0.157987 -7.12789e-18)
(0.991035 -0.14736 0)
(0.980566 -0.138782 9.04815e-18)
(0.973818 -0.132225 -9.4846e-18)
(0.971203 -0.127591 0)
(0.972978 -0.124751 -7.33229e-20)
(0.9792 -0.123553 -9.68644e-18)
(0.990144 -0.123829 0)
(1.00504 -0.12524 0)
(1.02626 -0.127633 -6.23147e-18)
(1.04468 -0.129508 0)
(1.08637 -0.132756 -1.72428e-18)
(0.976761 0.214806 0)
(0.984938 0.202019 -1.21493e-17)
(0.992777 0.199219 -1.06342e-17)
(0.99566 0.199013 0)
(0.995001 0.196902 1.83001e-17)
(0.993984 0.193678 1.72791e-17)
(0.993428 0.190197 0)
(0.992883 0.186279 1.55502e-17)
(0.992235 0.181783 -1.47627e-17)
(0.99166 0.176789 0)
(0.991208 0.171366 0)
(0.990811 0.165521 0)
(0.990408 0.159251 0)
(0.989982 0.152543 -1.1203e-17)
(0.989529 0.145395 -1.09964e-17)
(0.989072 0.137841 1.00938e-17)
(0.988716 0.130115 -2.98165e-17)
(0.988617 0.122443 0)
(0.988888 0.114797 0)
(0.989529 0.107064 9.45242e-18)
(0.990435 0.0991718 1.83912e-17)
(0.991436 0.0910938 -8.95547e-18)
(0.992326 0.0828346 0)
(0.99286 0.0744436 0)
(0.992779 0.0660712 -4.51199e-18)
(0.991904 0.0580152 8.9667e-18)
(0.990274 0.0506866 -9.09017e-18)
(0.988254 0.0444731 0)
(0.986529 0.0395738 0)
(0.98598 0.0358826 -2.36603e-18)
(0.987484 0.0329297 0)
(0.991669 0.0298953 2.37632e-18)
(0.998688 0.0257472 -1.13694e-18)
(1.00808 0.0194499 -1.3886e-20)
(1.01872 0.0102026 -9.36206e-21)
(1.02909 -0.00231924 0)
(1.03752 -0.0177065 0)
(1.04235 -0.0346558 -5.9939e-20)
(1.04251 -0.0512489 8.10225e-19)
(1.03767 -0.0655326 2.37814e-18)
(1.02815 -0.0760375 3.30444e-18)
(1.01483 -0.0820989 1.84041e-18)
(0.998923 -0.083888 -2.01285e-18)
(0.981923 -0.0821885 -2.28783e-18)
(0.965441 -0.0780965 2.58132e-18)
(0.951015 -0.0727656 0)
(0.939917 -0.0672599 6.23444e-18)
(0.933038 -0.0625212 -6.61269e-18)
(0.930831 -0.0593906 0)
(0.933303 -0.0586208 0)
(0.940026 -0.0608771 0)
(0.950156 -0.0667083 0)
(0.962529 -0.0764697 0)
(0.975848 -0.0902117 0)
(0.988911 -0.107653 5.34739e-18)
(1.00083 -0.128193 -1.01909e-17)
(1.0114 -0.151024 -4.90912e-18)
(1.0216 -0.175214 4.56854e-18)
(1.03315 -0.199305 3.88808e-18)
(1.04679 -0.22064 -3.90553e-18)
(1.06086 -0.235625 3.59344e-18)
(1.07181 -0.241399 0)
(1.07618 -0.237487 3.2901e-18)
(1.0723 -0.225901 -3.4753e-18)
(1.06073 -0.209879 0)
(1.04359 -0.192477 -9.73863e-18)
(1.02358 -0.175845 6.00865e-18)
(1.00321 -0.16118 -1.3998e-17)
(0.984449 -0.148977 8.27942e-18)
(0.968672 -0.139329 0)
(0.956761 -0.132119 1.01578e-17)
(0.94923 -0.127154 1.10438e-17)
(0.946339 -0.124221 -1.14083e-17)
(0.948211 -0.123115 -1.15495e-17)
(0.954793 -0.123613 1.11718e-17)
(0.966316 -0.125535 0)
(0.981951 -0.128475 0)
(1.00426 -0.132395 7.07903e-18)
(1.02368 -0.135177 0)
(1.06797 -0.13978 1.92333e-18)
(0.977833 0.212619 1.61211e-17)
(0.988997 0.199658 0)
(0.998478 0.199072 -2.39385e-17)
(1.00126 0.199754 2.1681e-17)
(1.0002 0.197619 -2.06752e-17)
(0.999059 0.194474 1.98293e-17)
(0.998441 0.191086 0)
(0.997781 0.187128 1.59627e-19)
(0.997024 0.182547 1.6667e-17)
(0.996384 0.177486 0)
(0.995933 0.172011 0)
(0.995628 0.166127 0)
(0.99543 0.159835 2.74413e-17)
(0.995313 0.15313 0)
(0.995244 0.146002 2.44035e-17)
(0.995188 0.138466 0)
(0.995159 0.130727 4.54807e-17)
(0.995223 0.122998 0)
(0.99544 0.115263 0)
(0.995807 0.107436 -2.15245e-17)
(0.996249 0.0994643 -1.04915e-17)
(0.996648 0.0913435 0)
(0.996863 0.0831014 0)
(0.996722 0.0748086 0)
(0.996048 0.0666135 5.09351e-18)
(0.994726 0.0587677 -5.12657e-18)
(0.992813 0.0515899 -1.07904e-19)
(0.99062 0.0453573 0)
(0.988712 0.0401766 5.44962e-18)
(0.987817 0.035894 0)
(0.988667 0.0320662 0)
(0.991812 0.0279908 -2.69045e-18)
(0.99743 0.0228312 1.33628e-18)
(1.00522 0.01578 -1.48679e-20)
(1.0144 0.0062413 3.00198e-19)
(1.02377 -0.00596723 0)
(1.03191 -0.0203854 0)
(1.03741 -0.0358271 9.52087e-19)
(1.03925 -0.0506148 -9.13503e-19)
(1.03691 -0.0630435 -1.82743e-18)
(1.03034 -0.0718635 -1.91167e-18)