/*--------------------------------*- C++ -*----------------------------------*\
| =========                 |                                                 |
| \\      /  F ield         | OpenFOAM: The Open Source CFD Toolbox           |
|  \\    /   O peration     | Version:  v1912                                 |
|   \\  /    A nd           | Website:  www.openfoam.com                      |
|    \\/     M anipulation  |                                                 |
\*---------------------------------------------------------------------------*/
FoamFile
{
    version     2.0;
    format      ascii;
    class       volScalarField;
    location    "200";
    object      epsilon;
}
// * * * * * * * * * * * * * * * * * * * * * * * * * * * * * * * * * * * * * //

dimensions      [0 2 -3 0 0 0 0];


internalField   nonuniform List<scalar> 
2000
(
0.0135126
0.0111845
0.00819021
0.00480134
0.00122143
0.000121636
9.66149e-05
0.000112654
0.000114446
8.62887e-05
5.13126e-05
3.39736e-05
3.8028e-05
4.28277e-05
4.86699e-05
5.76617e-05
7.03378e-05
8.63812e-05
0.000106095
0.000130354
0.000160322
0.000197374
0.000243046
0.000298936
0.000366546
0.000447097
0.000541362
0.000649567
0.000771375
0.000905947
0.00105206
0.00120825
0.00137294
0.00154463
0.00172206
0.00190442
0.00209158
0.00228443
0.00248532
0.00269895
0.00292308
0.00315092
0.00338298
0.00362021
0.00386307
0.00411151
0.00436513
0.00462327
0.00488512
0.00514974
0.00541614
0.00568331
0.00595024
0.00621588
0.00647711
0.00673334
0.00698437
0.00723054
0.00747416
0.00772438
0.00801245
0.00832635
0.0086545
0.00899153
0.00933659
0.00969067
0.0100559
0.0104351
0.0108322
0.0112518
0.0116996
0.012183
0.0127109
0.0132949
0.0139507
0.0146993
0.0155741
0.0166257
0.0179357
0.019902
0.122256
0.0401411
0.0185261
0.0102232
0.00590902
0.00348122
0.0020649
0.00118791
0.00145488
0.000683923
0.00030193
0.000205928
0.000164965
0.000131219
0.000108385
0.000106112
0.000115673
0.000130811
0.000150959
0.000176725
0.000208886
0.000248484
0.000296829
0.000355367
0.000425559
0.000508743
0.000605996
0.000718028
0.000845129
0.000987109
0.00114328
0.0013125
0.00149319
0.00168355
0.00188169
0.00208594
0.00229499
0.00250777
0.00272315
0.00293686
0.00314789
0.00335823
0.0035684
0.0037792
0.00399091
0.00420333
0.00441592
0.00462792
0.00483846
0.00504661
0.00525147
0.00545242
0.00564969
0.00584664
0.00602919
0.00620089
0.00636265
0.0065147
0.00665764
0.00679298
0.00692244
0.00704552
0.00716255
0.00727379
0.00737984
0.00748174
0.007581
0.00767945
0.0077793
0.00788305
0.00799358
0.00811412
0.00824827
0.00839975
0.0085727
0.00876847
0.00899317
0.00921239
0.00951065
0.00951369
0.111974
0.0306053
0.0126533
0.00692949
0.00433062
0.00288081
0.00200529
0.00147511
0.00138871
0.00132258
0.00131548
0.00151698
0.00157495
0.000973542
0.000614208
0.000464368
0.000414012
0.000395706
0.000398834
0.000419144
0.000453227
0.000499795
0.000558913
0.000630978
0.000716691
0.000817004
0.000932879
0.001065
0.00121361
0.00137843
0.00155864
0.00175295
0.0019597
0.00217722
0.00240415
0.00263986
0.00288489
0.00314165
0.00340072
0.00365838
0.00391557
0.00417096
0.00442197
0.00467
0.00491485
0.00515567
0.00539129
0.00562039
0.00584157
0.00605346
0.00625474
0.00644425
0.00662103
0.00678433
0.00693232
0.00706454
0.00718081
0.00728118
0.00736592
0.00743558
0.00749107
0.00753362
0.00756479
0.0075861
0.00759914
0.00760574
0.00760799
0.00760818
0.00760884
0.00761268
0.00762258
0.00764154
0.00767258
0.00771843
0.00778113
0.00786022
0.00795353
0.00803673
0.00814785
0.00803629
0.109259
0.0268001
0.00926416
0.00444704
0.00268938
0.00184508
0.00135665
0.0010515
0.000919237
0.000887303
0.000950786
0.00119542
0.00164651
0.00208058
0.00243556
0.00245505
0.00212242
0.00174797
0.00150153
0.00137429
0.00132192
0.00131693
0.00134594
0.00140077
0.0014765
0.00157091
0.00168343
0.00181415
0.0019633
0.00213105
0.00231737
0.00252195
0.00274406
0.00298292
0.00323891
0.00351294
0.00380852
0.00410748
0.00440573
0.00470175
0.00499321
0.00527761
0.00555314
0.00581872
0.00607328
0.00631564
0.00654445
0.00675833
0.0069559
0.00713585
0.00729703
0.00743846
0.00755945
0.00765955
0.00773847
0.00779634
0.00783359
0.00785097
0.00784951
0.00783049
0.00779553
0.00774652
0.00768563
0.00761511
0.00753726
0.00745447
0.00736923
0.00728408
0.00720163
0.00712451
0.00705537
0.00699681
0.0069513
0.00692091
0.00690692
0.0069085
0.00692335
0.0069336
0.00696891
0.00685469
0.108843
0.0260421
0.00822885
0.00339505
0.00179882
0.0011572
0.000843107
0.000662408
0.00056308
0.000519105
0.000525597
0.000608904
0.000817826
0.00117743
0.00174216
0.00251506
0.0032988
0.00387037
0.00412972
0.00411507
0.00394988
0.00375478
0.00359678
0.00349499
0.00344558
0.00343954
0.00346951
0.00353087
0.00362105
0.00373878
0.00388335
0.00405408
0.00425004
0.00447078
0.00472559
0.00500168
0.00528147
0.00556249
0.00584114
0.00611414
0.00637815
0.00662999
0.00686703
0.00708723
0.0072889
0.00747062
0.00763111
0.00776926
0.00788417
0.00797514
0.00804172
0.00808379
0.00810155
0.00809554
0.00806664
0.00801606
0.00794532
0.00785622
0.00775077
0.00763117
0.00749979
0.00735912
0.00721172
0.00706013
0.00690685
0.00675428
0.00660476
0.00646055
0.00632381
0.00619663
0.00608103
0.00597894
0.00589216
0.0058222
0.00577008
0.00573539
0.00571714
0.00570293
0.00571906
0.00563885
0.108786
0.0259479
0.00802271
0.0030886
0.00145467
0.000827189
0.000552345
0.000415629
0.000342635
0.000304396
0.000290872
0.000305806
0.00036513
0.000489984
0.000718911
0.00110875
0.0016821
0.00243343
0.00332196
0.00425544
0.00511131
0.00578568
0.00623346
0.00647307
0.00656109
0.00656102
0.00652399
0.0064835
0.00645842
0.00645824
0.00648721
0.00654657
0.00663899
0.00676446
0.00690322
0.00705174
0.0072068
0.00736472
0.00752137
0.00767256
0.00781428
0.00794286
0.00805517
0.00814871
0.00822151
0.00827208
0.00829937
0.00830272
0.00828187
0.00823694
0.00816845
0.00807732
0.00796483
0.00783263
0.00768268
0.00751718
0.00733855
0.00714935
0.00695218
0.00674967
0.00654441
0.00633888
0.00613545
0.00593627
0.00574335
0.00555844
0.00538314
0.00521885
0.00506685
0.00492829
0.00480426
0.00469581
0.00460394
0.00452959
0.00447351
0.00443575
0.00441654
0.00440762
0.00443214
0.00439983
0.108778
0.0259455
0.00799966
0.00302536
0.00135563
0.000706618
0.000424251
0.000289809
0.000221524
0.000185889
0.000168634
0.000165206
0.000177499
0.000211455
0.000279121
0.000401593
0.00059711
0.000885556
0.0012884
0.00182194
0.00249057
0.00328015
0.00415399
0.0050553
0.00591789
0.00668196
0.00730825
0.00778428
0.00812139
0.00834588
0.00848915
0.00857986
0.00862695
0.00864253
0.00864319
0.00863715
0.00862759
0.00861481
0.0085976
0.00857397
0.00854159
0.00849803
0.00844104
0.00836867
0.00827941
0.00817219
0.00804648
0.00790225
0.00773998
0.00756065
0.00736564
0.00715675
0.00693606
0.00670589
0.00646875
0.00622719
0.00598378
0.00574103
0.0055013
0.00526676
0.00503936
0.0048208
0.00461254
0.00441576
0.0042314
0.00406019
0.00390265
0.00375917
0.00363006
0.00351554
0.00341584
0.00333125
0.00326213
0.00320892
0.0031722
0.00315231
0.00315038
0.00316125
0.0032046
0.00321976
0.108777
0.0259493
0.00800224
0.00301735
0.00133375
0.000671705
0.000379177
0.000238019
0.000165447
0.000126704
0.000106079
9.64494e-05
9.52674e-05
0.000102654
0.000121064
0.000155782
0.000211447
0.000293832
0.00041057
0.000570507
0.000783217
0.00105813
0.00140326
0.00182352
0.00231884
0.00288226
0.00349887
0.00414629
0.00479718
0.00542315
0.00599915
0.00650681
0.00694334
0.00727027
0.00748651
0.00760967
0.00765955
0.00765401
0.00760717
0.00752909
0.00742633
0.00730281
0.00716082
0.00700177
0.00682673
0.00663678
0.00643321
0.00621759
0.00599174
0.00575772
0.00551777
0.00527423
0.00502944
0.00478575
0.00454536
0.00431034
0.00408255
0.00386361
0.00365486
0.00345738
0.00327201
0.0030993
0.00293961
0.00279309
0.00265974
0.00253944
0.00243199
0.00233714
0.00225463
0.00218425
0.00212582
0.00207932
0.00204482
0.00202262
0.00201325
0.0020173
0.00203642
0.00206791
0.00212767
0.00217883
0.108777
0.0259518
0.00800532
0.00301798
0.00133024
0.000663324
0.000365849
0.000220157
0.000143603
0.000101336
7.73679e-05
6.39424e-05
5.73028e-05
5.58297e-05
5.92681e-05
6.84936e-05
8.4233e-05
0.000107444
0.000139506
0.000182041
0.000236904
0.000306135
0.000391915
0.000496462
0.000621889
0.000769949
0.000941706
0.00113718
0.00135503
0.00159237
0.00184478
0.00210645
0.00237172
0.00266502
0.00296078
0.00323972
0.00348701
0.00369207
0.00384897
0.00395603
0.00401494
0.00402962
0.00400527
0.00394756
0.00386212
0.00375424
0.0036287
0.00348978
0.00334124
0.00318642
0.0030282
0.00286915
0.00271145
0.002557
0.00240737
0.00226385
0.00212747
0.00199898
0.00187891
0.00176761
0.00166523
0.0015718
0.00148724
0.0014114
0.00134407
0.00128502
0.00123402
0.00119084
0.00115532
0.00112732
0.0011068
0.00109382
0.00108856
0.0010914
0.00110294
0.00112398
0.00115635
0.00119915
0.00126446
0.00133331
0.108777
0.0259524
0.00800666
0.00301892
0.00133007
0.000661638
0.000362362
0.000214705
0.000136118
9.1801e-05
6.57528e-05
5.00911e-05
4.0749e-05
3.5602e-05
3.36154e-05
3.4458e-05
3.79761e-05
4.41138e-05
5.29719e-05
6.46993e-05
7.94436e-05
9.73235e-05
0.000118414
0.000142734
0.000170232
0.000200752
0.00023399
0.000269445
0.000306362
0.000343704
0.00038013
0.000414007
0.000443539
0.000467707
0.000502177
0.000547192
0.000601341
0.000662279
0.000726956
0.000791958
0.000853882
0.000909672
0.000956874
0.000993779
0.00101945
0.0010337
0.00103692
0.00103001
0.00101418
0.000990843
0.000961464
0.000927496
0.000890302
0.000851111
0.000810999
0.000770882
0.000731518
0.000693521
0.000657374
0.000623451
0.000592034
0.000563328
0.000537483
0.000514604
0.00049477
0.000478044
0.000464488
0.000454172
0.000447191
0.000443673
0.000443796
0.000447808
0.000456052
0.000468994
0.000487311
0.000511842
0.000544246
0.000584836
0.000641924
0.000708637
0.108776
0.0259514
0.00800629
0.00301902
0.00133012
0.000661328
0.000361505
0.000213156
0.000133754
8.85226e-05
6.14737e-05
4.47078e-05
3.40887e-05
2.73565e-05
2.32523e-05
2.10946e-05
2.05085e-05
2.11894e-05
2.29664e-05
2.57449e-05
2.9458e-05
3.4038e-05
3.93995e-05
4.54297e-05
5.19826e-05
5.88729e-05
6.58701e-05
7.26937e-05
7.90112e-05
8.44431e-05
8.85747e-05
9.09782e-05
9.12495e-05
8.90731e-05
8.63301e-05
8.42656e-05
8.30525e-05
8.28508e-05
8.37828e-05
8.59092e-05
8.92095e-05
9.35742e-05
9.88078e-05
0.000104646
0.000110779
0.000116881
0.000122643
0.000127789
0.000132102
0.000135431
0.000137692
0.000138868
0.000139
0.000138175
0.000136517
0.000134173
0.000131304
0.000128073
0.000124642
0.000121166
0.000117785
0.000114632
0.000111826
0.000109478
0.00010769
0.000106565
0.000106207
0.00010673
0.000108263
0.000110961
0.000115015
0.000120671
0.000128247
0.000138161
0.00015099
0.000167477
0.000188897
0.000216138
0.000254242
0.000302804
0.108776
0.0259488
0.00800441
0.00301818
0.00132977
0.00066111
0.000361227
0.000212698
0.000133027
8.74516e-05
5.99916e-05
4.27481e-05
3.15717e-05
2.41704e-05
1.9228e-05
1.59699e-05
1.39786e-05
1.28878e-05
1.24551e-05
1.2529e-05
1.30066e-05
1.38102e-05
1.48721e-05
1.61271e-05
1.75074e-05
1.89396e-05
2.03439e-05
2.16334e-05
2.27172e-05
2.35039e-05
2.39088e-05
2.38635e-05
2.33269e-05
2.22985e-05
2.11483e-05
2.00156e-05
1.89041e-05
1.78194e-05
1.67687e-05
1.57605e-05
1.48038e-05
1.39081e-05
1.30821e-05
1.23333e-05
1.16675e-05
1.10874e-05
1.05927e-05
1.01802e-05
9.84346e-06
9.57391e-06
9.36161e-06
9.19636e-06
9.06877e-06
8.97131e-06
8.89915e-06
8.85078e-06
8.82836e-06
8.83788e-06
8.88903e-06
8.9949e-06
9.17156e-06
9.43752e-06
9.81314e-06
1.03201e-05
1.0981e-05
1.18194e-05
1.28599e-05
1.41298e-05
1.56605e-05
1.74918e-05
1.96764e-05
2.22882e-05
2.54347e-05
2.92738e-05
3.40457e-05
4.01024e-05
4.80552e-05
5.85703e-05
7.4027e-05
9.55686e-05
0.108775
0.0259446
0.00800123
0.00301653
0.00132897
0.000660696
0.000360976
0.000212484
0.000132769
8.7094e-05
5.94905e-05
4.20642e-05
3.06647e-05
2.29934e-05
1.77207e-05
1.40492e-05
1.15604e-05
9.87917e-06
8.74951e-06
8.00959e-06
7.55205e-06
7.30171e-06
7.20265e-06
7.21049e-06
7.28782e-06
7.40144e-06
7.52085e-06
7.61771e-06
7.66605e-06
7.6433e-06
7.53171e-06
7.32018e-06
7.00588e-06
6.59491e-06
6.1832e-06
5.7872e-06
5.40621e-06
5.03993e-06
4.68835e-06
4.35163e-06
4.03006e-06
3.724e-06
3.4338e-06
3.15978e-06
2.90222e-06
2.66136e-06
2.43749e-06
2.23101e-06
2.04262e-06
1.87355e-06
1.72589e-06
1.60297e-06
1.5098e-06
1.45355e-06
1.44395e-06
1.49366e-06
1.61845e-06
1.83711e-06
2.17126e-06
2.64485e-06
3.28339e-06
4.11298e-06
5.15904e-06
6.44507e-06
7.99147e-06
9.81469e-06
1.19269e-05
1.43365e-05
1.70487e-05
2.00676e-05
2.33985e-05
2.70501e-05
3.10375e-05
3.53834e-05
4.01182e-05
4.52644e-05
5.08511e-05
5.66634e-05
6.30093e-05
6.78889e-05
0.108775
0.025939
0.00799702
0.00301426
0.00132779
0.000660066
0.000360627
0.000212271
0.00013261
8.69379e-05
5.93043e-05
4.18222e-05
3.03445e-05
2.2573e-05
1.71756e-05
1.335e-05
1.06816e-05
8.79573e-06
7.43571e-06
6.43979e-06
5.70212e-06
5.15074e-06
4.73498e-06
4.41786e-06
4.17146e-06
3.97406e-06
3.80836e-06
3.66034e-06
3.51875e-06
3.37485e-06
3.22236e-06
3.05755e-06
2.87921e-06
2.68734e-06
2.50831e-06
2.34077e-06
2.18364e-06
2.0361e-06
1.89747e-06
1.76723e-06
1.64497e-06
1.53035e-06
1.42318e-06
1.32343e-06
1.23137e-06
1.14774e-06
1.0741e-06
1.01322e-06
9.69639e-07
9.50394e-07
9.65795e-07
1.03028e-06
1.16325e-06
1.38979e-06
1.74129e-06
2.25575e-06
2.97769e-06
3.95745e-06
5.24988e-06
6.91237e-06
9.00259e-06
1.15761e-05
1.46841e-05
1.83718e-05
2.26773e-05
2.7632e-05
3.32614e-05
3.95874e-05
4.6631e-05
5.44154e-05
6.29686e-05
7.23259e-05
8.25295e-05
9.36239e-05
0.000105641
0.000118557
0.000132248
0.00014603
0.000159474
0.000167374
0.108774
0.025932
0.00799203
0.00301159
0.00132636
0.000659279
0.000360181
0.000212008
0.000132443
8.6819e-05
5.92026e-05
4.17175e-05
3.0222e-05
2.24202e-05
1.69809e-05
1.31015e-05
1.037e-05
8.41351e-06
6.9759e-06
5.89648e-06
5.07071e-06
4.42837e-06
3.92091e-06
3.51385e-06
3.18215e-06
2.90721e-06
2.675e-06
2.47479e-06
2.29834e-06
2.13938e-06
1.99326e-06
1.85665e-06
1.72738e-06
1.60476e-06
1.49345e-06
1.39197e-06
1.29909e-06
1.21384e-06
1.13541e-06
1.06321e-06
9.96916e-07
9.36563e-07
8.82841e-07
8.37477e-07
8.03842e-07
7.87785e-07
7.98707e-07
8.50862e-07
9.64839e-07
1.16915e-06
1.50191e-06
2.01238e-06
2.76237e-06
3.82687e-06
5.29391e-06
7.26338e-06
9.84489e-06
1.31548e-05
1.73127e-05
2.24379e-05
2.86457e-05
3.60445e-05
4.47337e-05
5.48019e-05
6.63249e-05
7.93638e-05
9.39624e-05
0.000110143
0.000127905
0.000147217
0.000168017
0.000190208
0.00021366
0.0002382
0.000263601
0.000289534
0.000315557
0.000340341
0.000363315
0.00037602
0.108774
0.0259237
0.00798654
0.00300872
0.00132481
0.000658407
0.000359674
0.000211702
0.000132252
8.66922e-05
5.91122e-05
4.16459e-05
3.0157e-05
2.23531e-05
1.69047e-05
1.30102e-05
1.02592e-05
8.27996e-06
6.81728e-06
5.71114e-06
4.85769e-06
4.18745e-06
3.65265e-06
3.21968e-06
2.86434e-06
2.5689e-06
2.32016e-06
2.10814e-06
1.92521e-06
1.76555e-06
1.62466e-06
1.49907e-06
1.38618e-06
1.28443e-06
1.19349e-06
1.11183e-06
1.03828e-06
9.72001e-07
9.12731e-07
8.6108e-07
8.19166e-07
7.91543e-07
7.86522e-07
8.1789e-07
9.07024e-07
1.08534e-06
1.39701e-06
1.90195e-06
2.67884e-06
3.82778e-06
5.47205e-06
7.75877e-06
1.08581e-05
1.49614e-05
2.02773e-05
2.70279e-05
3.54435e-05
4.57564e-05
5.81944e-05
7.29722e-05
9.02802e-05
0.00011027
0.000133035
0.000158591
0.000186856
0.000217633
0.000250606
0.000285345
0.000321329
0.000357981
0.000394709
0.000430953
0.000466224
0.00050013
0.000532388
0.000562717
0.00059103
0.000615797
0.000638046
0.000646696
0.108774
0.0259142
0.00798077
0.00300578
0.00132323
0.00065751
0.00035914
0.000211372
0.000132039
8.65506e-05
5.90144e-05
4.15753e-05
3.01028e-05
2.2308e-05
1.68634e-05
1.29686e-05
1.02143e-05
8.2298e-06
6.76048e-06
5.64683e-06
4.78543e-06
4.10715e-06
3.56456e-06
3.12433e-06
2.76257e-06
2.46178e-06
2.20898e-06
1.99438e-06
1.81051e-06
1.65158e-06
1.5131e-06
1.39153e-06
1.28411e-06
1.18886e-06
1.10441e-06
1.02992e-06
9.66034e-07
9.16017e-07
8.87489e-07
8.94845e-07
9.62331e-07
1.12765e-06
1.44603e-06
1.99464e-06
2.87749e-06
4.23001e-06
6.22282e-06
9.06402e-06
1.29998e-05
1.83133e-05
2.53214e-05
3.43701e-05
4.58274e-05
6.00741e-05
7.74909e-05
9.84398e-05
0.000123238
0.000152124
0.000185215
0.000222468
0.000263634
0.000308247
0.000355617
0.000404873
0.000455018
0.000505013
0.000553866
0.00060071
0.000644862
0.00068585
0.000723424
0.000757532
0.00078829
0.00081593
0.0008408
0.000863098
0.000883454
0.000899983
0.000915976
0.000914193
0.108775
0.0259035
0.00797483
0.00300286
0.00132167
0.000656618
0.000358602
0.00021103
0.000131813
8.6397e-05
5.89069e-05
4.14981e-05
3.00459e-05
2.22645e-05
1.68287e-05
1.29393e-05
1.01879e-05
8.20455e-06
6.7352e-06
5.62074e-06
4.75805e-06
4.07822e-06
3.534e-06
3.0922e-06
2.72904e-06
2.42714e-06
2.17359e-06
1.95865e-06
1.77488e-06
1.61653e-06
1.47909e-06
1.35903e-06
1.25378e-06
1.16479e-06
1.09949e-06
1.07602e-06
1.12859e-06
1.31369e-06
1.71635e-06
2.45659e-06
3.69613e-06
5.64429e-06
8.56213e-06
1.2764e-05
1.86163e-05
2.65341e-05
3.69743e-05
5.04264e-05
6.73995e-05
8.84044e-05
0.000113927
0.000144393
0.000180123
0.000221278
0.0002678
0.00031937
0.00037538
0.000434942
0.000496935
0.000560093
0.000623109
0.000684743
0.000743918
0.000799773
0.000851689
0.000899278
0.000942353
0.000980888
0.00101499
0.00104486
0.00107079
0.00109314
0.00111233
0.00112882
0.00114318
0.0011557
0.00116746
0.00117585
0.00118672
0.00117448
0.108775
0.0258916
0.00796871
0.0029999
0.00132011
0.000655727
0.000358059
0.00021068
0.000131578
8.62342e-05
5.87913e-05
4.14141e-05
2.99836e-05
2.22175e-05
1.67925e-05
1.29107e-05
1.01646e-05
8.18491e-06
6.71807e-06
5.60537e-06
4.74395e-06
4.06512e-06
3.52182e-06
3.08105e-06
2.71924e-06
2.41929e-06
2.16868e-06
1.95827e-06
1.78156e-06
1.63438e-06
1.51491e-06
1.42502e-06
1.46239e-06
1.78118e-06
2.56947e-06
4.08389e-06
6.65388e-06
1.06817e-05
1.66364e-05
2.50437e-05
3.64711e-05
5.15096e-05
7.07539e-05
9.47774e-05
0.000124102
0.000159163
0.000200263
0.000247524
0.000300842
0.000359847
0.000423887
0.000492039
0.000563163
0.000635982
0.000709187
0.000781546
0.000851988
0.000919656
0.000983916
0.00104433
0.00110062
0.00115259
0.00120012
0.00124312
0.00128153
0.00131535
0.00134463
0.0013695
0.00139019
0.00140705
0.00142049
0.00143103
0.00143928
0.00144585
0.00145151
0.00145659
0.00146268
0.00146623
0.00147598
0.00145578
0.108776
0.025878
0.00796209
0.00299669
0.00131841
0.00065477
0.000357478
0.000210306
0.000131327
8.60596e-05
5.86673e-05
4.13249e-05
2.99195e-05
2.21729e-05
1.67648e-05
1.29004e-05
1.01744e-05
8.22084e-06
6.7909e-06
5.7328e-06
4.95419e-06
4.40224e-06
4.05341e-06
3.90874e-06
3.99279e-06
4.35499e-06
5.07306e-06
6.25853e-06
8.06448e-06
1.06957e-05
1.44218e-05
1.9968e-05
2.92153e-05
4.27843e-05
6.1373e-05
8.5612e-05
0.000116033
0.00015303
0.000196816
0.000247399
0.000304556
0.000367815
0.000436467
0.000509579
0.000586039
0.000664628
0.0007441
0.000823283
0.000901163
0.000976951
0.00105012
0.00112037
0.00118762
0.00125189
0.00131325
0.00137176
0.00142738
0.00147997
0.00152932
0.00157514
0.00161711
0.00165494
0.00168838
0.00171727
0.00174158
0.00176138
0.00177689
0.00178845
0.00179651
0.00180166
0.00180456
0.00180594
0.00180662
0.0018074
0.00180928
0.00181265
0.00181963
0.00182542
0.00184236
0.00181927
0.108775
0.0258617
0.00795405
0.00299255
0.00131621
0.00065357
0.000356812
0.000209947
0.000131174
8.6086e-05
5.89035e-05
4.18631e-05
3.09408e-05
2.39988e-05
1.99378e-05
1.82961e-05
1.8924e-05
2.1742e-05
2.68407e-05
3.44274e-05
4.47878e-05
5.82628e-05
7.52326e-05
9.61034e-05
0.000121297
0.00015124
0.000186358
0.000227066
0.00027376
0.000326808
0.000386524
0.000453146
0.000528365
0.000610277
0.00069692
0.000786214
0.000876142
0.000964878
0.0010509
0.00113307
0.00121068
0.00128347
0.00135157
0.00141544
0.00147574
0.00153324
0.00158872
0.00164283
0.00169607
0.00174875
0.00180095
0.00185259
0.00190341
0.00195303
0.002001
0.00204681
0.00208995
0.0021299
0.0021662
0.00219845
0.00222635
0.0022497
0.00226845
0.00228269
0.00229267
0.0022988
0.00230162
0.00230183
0.00230024
0.00229776
0.00229536
0.00229411
0.00229512
0.00229948
0.00230858
0.00232292
0.0023455
0.00236958
0.00241317
0.00240089
0.108774
0.0258449
0.00794693
0.00299009
0.00131689
0.000657016
0.000363635
0.000222052
0.000152225
0.000122038
0.0001183
0.000135689
0.000172107
0.000226724
0.000299156
0.000389017
0.000490376
0.000599427
0.000714004
0.000832242
0.000952482
0.0010732
0.00119294
0.00131032
0.00142405
0.00153293
0.00163594
0.00173227
0.00182136
0.00190294
0.001977
0.00204314
0.00210044
0.00214986
0.00219206
0.00222834
0.00226039
0.00228996
0.00231863
0.00234767
0.00237798
0.00241011
0.00244432
0.00248067
0.00251904
0.0025592
0.00260085
0.00264361
0.00268708
0.00273079
0.00277421
0.0028168
0.00285793
0.00289699
0.00293334
0.00296638
0.00299558
0.0030205
0.00304083
0.00305643
0.00306735
0.0030738
0.00307624
0.00307528
0.00307173
0.00306657
0.00306091
0.003056
0.0030532
0.00305396
0.00305984
0.00307248
0.0030937
0.00312531
0.0031697
0.00322806
0.00330571
0.00339259
0.00351868
0.00356958
0.108947
0.0260451
0.00817372
0.00325314
0.00164748
0.00110331
0.000995419
0.00112536
0.00141196
0.00180139
0.00224495
0.00269928
0.00313056
0.00351603
0.00384243
0.00410321
0.00428694
0.00440354
0.00446759
0.00449191
0.0044873
0.00446263
0.00442505
0.00438024
0.00433252
0.00428512
0.00424031
0.00419958
0.00416384
0.0041335
0.00410874
0.00408953
0.00407366
0.00406063
0.00405019
0.00404318
0.00404064
0.00404325
0.00405134
0.00406492
0.00408377
0.00410753
0.00413567
0.00416755
0.00420244
0.00423953
0.00427793
0.00431671
0.00435491
0.00439159
0.00442582
0.00445672
0.00448353
0.00450558
0.00452238
0.00453362
0.0045392
0.0045393
0.00453432
0.00452497
0.00451221
0.00449726
0.00448158
0.00446686
0.00445496
0.00444792
0.00444799
0.00445757
0.00447929
0.00451599
0.00457084
0.0046474
0.00474982
0.00488272
0.00505234
0.00526335
0.00552943
0.00583728
0.00624577
0.00662037
0.11748
0.0358328
0.0174707
0.012353
0.0112221
0.0116223
0.0127029
0.0139643
0.0150217
0.0156381
0.0157564
0.0154582
0.0148855
0.0141764
0.0134333
0.0127188
0.0120662
0.0114935
0.0109985
0.0105698
0.0101953
0.00986514
0.00957194
0.00931029
0.00907637
0.00886735
0.00868103
0.00851557
0.00836934
0.00824075
0.0081286
0.00803057
0.00795047
0.00789451
0.00786246
0.00785149
0.0078579
0.00787805
0.00790862
0.00794673
0.00799014
0.00803676
0.00808464
0.00813191
0.00817687
0.00821793
0.00825361
0.00828257
0.00830363
0.00831581
0.00831836
0.00831085
0.00829319
0.00826567
0.00822898
0.00818429
0.0081332
0.00807778
0.00802053
0.00796439
0.00791267
0.00786904
0.00783753
0.00782249
0.00782863
0.00786089
0.00792496
0.00802732
0.00817524
0.00837712
0.00864296
0.00898479
0.00941762
0.00995937
0.0106345
0.0114659
0.012507
0.0137578
0.0154096
0.0176466
0.223501
0.161833
0.121109
0.0944872
0.0764556
0.0640462
0.0554294
0.0494361
0.0452119
0.0420864
0.0395702
0.0373626
0.0353196
0.0333971
0.0315968
0.0299311
0.0284449
0.0271527
0.0260325
0.0250583
0.0242074
0.0234611
0.0228045
0.0222255
0.0217144
0.0212631
0.0208649
0.0205138
0.0202042
0.0199308
0.0196886
0.0194735
0.0192757
0.0190852
0.0188991
0.0187174
0.0185407
0.0183691
0.0182021
0.0180391
0.0178792
0.0177218
0.0175664
0.0174128
0.017261
0.0171111
0.0169636
0.016819
0.0166785
0.0165433
0.0164152
0.0162962
0.0161889
0.0160963
0.0160221
0.0159704
0.0159459
0.0159543
0.0160017
0.0160954
0.0162436
0.0164559
0.0167432
0.0171185
0.0175969
0.0181968
0.0189398
0.0198527
0.0209684
0.0223278
0.0239822
0.025997
0.0284546
0.0314677
0.0351663
0.039793
0.0454505
0.0531041
0.0613959
0.0762813
)
;

boundaryField
{
    inlet
    {
        type            fixedValue;
        value           uniform 0.63;
    }
    outlet
    {
        type            zeroGradient;
    }
    fixedWalls
    {
        lowReCorrection 0;
        type            epsilonWallFunction;
        value           nonuniform List<scalar> 
160
(
0.223501
0.161833
0.121109
0.0944872
0.0764556
0.0640462
0.0554294
0.0494361
0.0452119
0.0420864
0.0395702
0.0373626
0.0353196
0.0333971
0.0315968
0.0299311
0.0284449
0.0271527
0.0260325
0.0250583
0.0242074
0.0234611
0.0228045
0.0222255
0.0217144
0.0212631
0.0208649
0.0205138
0.0202042
0.0199308
0.0196886
0.0194735
0.0192757
0.0190852
0.0188991
0.0187174
0.0185407
0.0183691
0.0182021
0.0180391
0.0178792
0.0177218
0.0175664
0.0174128
0.017261
0.0171111
0.0169636
0.016819
0.0166785
0.0165433
0.0164152
0.0162962
0.0161889
0.0160963
0.0160221
0.0159704
0.0159459
0.0159543
0.0160017
0.0160954
0.0162436
0.0164559
0.0167432
0.0171185
0.0175969
0.0181968
0.0189398
0.0198527
0.0209684
0.0223278
0.0239822
0.025997
0.0284546
0.0314677
0.0351663
0.039793
0.0454505
0.0531041
0.0613959
0.0762813
0.0135126
0.0111845
0.00819021
0.00480134
0.00122143
0.000121636
9.66149e-05
0.000112654
0.000114446
8.62887e-05
5.13126e-05
3.39736e-05
3.8028e-05
4.28277e-05
4.86699e-05
5.76617e-05
7.03378e-05
8.63812e-05
0.000106095
0.000130354
0.000160322
0.000197374
0.000243046
0.000298936
0.000366546
0.000447097
0.000541362
0.000649567
0.000771375
0.000905947
0.00105206
0.00120825
0.00137294
0.00154463
0.00172206
0.00190442
0.00209158
0.00228443
0.00248532
0.00269895
0.00292308
0.00315092
0.00338298
0.00362021
0.00386307
0.00411151
0.00436513
0.00462327
0.00488512
0.00514974
0.00541614
0.00568331
0.00595024
0.00621588
0.00647711
0.00673334
0.00698437
0.00723054
0.00747416
0.00772438
0.00801245
0.00832635
0.0086545
0.00899153
0.00933659
0.00969067
0.0100559
0.0104351
0.0108322
0.0112518
0.0116996
0.012183
0.0127109
0.0132949
0.0139507
0.0146993
0.0155741
0.0166257
0.0179357
0.019902
)
;
    }
    frontAndBack
    {
        type            empty;
    }
}


// ************************************************************************* //
