/*--------------------------------*- C++ -*----------------------------------*\
| =========                 |                                                 |
| \\      /  F ield         | OpenFOAM: The Open Source CFD Toolbox           |
|  \\    /   O peration     | Version:  v1912                                 |
|   \\  /    A nd           | Website:  www.openfoam.com                      |
|    \\/     M anipulation  |                                                 |
\*---------------------------------------------------------------------------*/
FoamFile
{
    version     2.0;
    format      ascii;
    class       volScalarField;
    location    "200";
    object      k;
}
// * * * * * * * * * * * * * * * * * * * * * * * * * * * * * * * * * * * * * //

dimensions      [0 2 -2 0 0 0 0];


internalField   nonuniform List<scalar> 
2000
(
0.0162095
0.0147776
0.0124075
0.00897585
0.00371941
0.000824223
0.000728656
0.000831491
0.000864962
0.000737052
0.000535756
0.000418033
0.000462539
0.00051346
0.000572934
0.000656709
0.00076643
0.000896767
0.00104734
0.00122137
0.00142299
0.00165655
0.00192613
0.002235
0.00258501
0.00297611
0.00340609
0.00387084
0.0043647
0.00488108
0.00541311
0.00595408
0.00649784
0.00703917
0.00757413
0.0081004
0.00861771
0.00912835
0.00963803
0.0101577
0.0106798
0.011187
0.0116804
0.0121621
0.0126327
0.0130916
0.0135374
0.0139686
0.0143831
0.0147789
0.0151541
0.0155069
0.0158355
0.0161385
0.0164108
0.0166521
0.0168629
0.0170442
0.0172003
0.0173451
0.0175235
0.017714
0.0178978
0.018066
0.0182166
0.0183501
0.018468
0.0185724
0.0186664
0.018753
0.0188359
0.0189196
0.0190088
0.0191099
0.0192306
0.0193816
0.0195799
0.0198513
0.0202362
0.020984
0.0068377
0.00499944
0.00452688
0.00410486
0.00326481
0.00245389
0.00191208
0.00163175
0.00452233
0.00323329
0.0017938
0.00136463
0.00139664
0.0014003
0.00137572
0.00147601
0.0016763
0.00192828
0.00222075
0.00255603
0.00293851
0.00337385
0.00386915
0.00443241
0.00507226
0.00579723
0.00661479
0.00753038
0.00854664
0.009662
0.01087
0.0121591
0.0135131
0.0149123
0.0163352
0.0177607
0.019169
0.0205421
0.0218612
0.0230714
0.0241689
0.0252063
0.0262005
0.027161
0.0280915
0.028993
0.029864
0.0307025
0.0315054
0.0322698
0.0329928
0.0336723
0.0343081
0.0349065
0.0354324
0.0358955
0.0362989
0.0366441
0.0369331
0.0371699
0.0373572
0.0374945
0.0375844
0.0376292
0.0376318
0.0375963
0.0375278
0.037432
0.0373153
0.0371848
0.037048
0.0369127
0.0367874
0.0366796
0.0365971
0.0365391
0.036516
0.0364365
0.036527
0.0361488
0.00514621
0.00248523
0.00187974
0.00175546
0.00163529
0.0014742
0.00132811
0.00124341
0.00172566
0.00203264
0.00243414
0.00379033
0.00571982
0.00486246
0.00363503
0.00312543
0.00318433
0.00342867
0.00376268
0.00417809
0.00467511
0.00525504
0.00592002
0.00667211
0.00751505
0.0084544
0.00949591
0.0106433
0.0118968
0.0132517
0.0146981
0.0162203
0.0177982
0.0194089
0.0210285
0.0226364
0.024217
0.0257646
0.0272356
0.0286201
0.0299331
0.031181
0.0323624
0.0334886
0.0345626
0.0355838
0.03655
0.0374582
0.038305
0.0390871
0.0398015
0.0404458
0.041018
0.041517
0.0419389
0.042284
0.0425534
0.042749
0.0428731
0.0429289
0.0429204
0.0428528
0.0427326
0.0425658
0.0423586
0.0421178
0.0418509
0.0415658
0.041271
0.0409754
0.0406878
0.0404174
0.0401725
0.03996
0.0397837
0.0396385
0.0395132
0.0393319
0.0392171
0.0385105
0.00490121
0.00193923
0.00108631
0.000851096
0.000792558
0.000769824
0.000751629
0.000743108
0.000857524
0.00103878
0.00133063
0.00198333
0.00324306
0.00464394
0.00617978
0.00738796
0.00771878
0.00753042
0.00737528
0.00746304
0.00779158
0.00831228
0.00898208
0.00976878
0.0106546
0.0116339
0.0127071
0.0138755
0.0151392
0.0164959
0.0179403
0.019463
0.0210493
0.0226798
0.0243333
0.0259909
0.0276388
0.0292285
0.0307505
0.0322023
0.0335794
0.0348772
0.0360938
0.0372298
0.0382851
0.039259
0.0401494
0.0409545
0.0416718
0.0422994
0.0428357
0.04328
0.0436321
0.0438927
0.0440632
0.0441461
0.0441448
0.0440638
0.0439082
0.0436839
0.0433975
0.0430566
0.0426696
0.042245
0.0417912
0.0413169
0.040831
0.0403423
0.03986
0.0393929
0.0389498
0.0385391
0.0381684
0.0378431
0.0375655
0.0373298
0.0371239
0.0368854
0.0367119
0.0360559
0.00486817
0.00184217
0.000889179
0.00055404
0.000439143
0.000407015
0.000404712
0.000413622
0.00045282
0.000525606
0.000649035
0.000896222
0.00140121
0.00223309
0.00353946
0.00542278
0.00759235
0.00964199
0.011284
0.012423
0.0131704
0.0137316
0.0142737
0.0148838
0.015592
0.0164024
0.0173119
0.0183162
0.0194118
0.0205963
0.0218667
0.0232171
0.0246346
0.0261003
0.0276019
0.0291047
0.0305736
0.0319985
0.033367
0.0346686
0.0358931
0.0370317
0.0380777
0.0390268
0.0398762
0.0406237
0.0412677
0.0418071
0.0422412
0.0425703
0.042795
0.0429173
0.04294
0.0428668
0.0427027
0.0424533
0.0421255
0.0417267
0.041265
0.0407491
0.040188
0.0395911
0.0389679
0.038328
0.0376805
0.0370344
0.0363982
0.0357803
0.0351885
0.0346306
0.0341137
0.0336446
0.0332294
0.0328728
0.0325771
0.0323385
0.0321504
0.0319658
0.0318741
0.0314338
0.00486377
0.00182805
0.000849455
0.000474234
0.000317517
0.000253174
0.000231614
0.000230701
0.000245519
0.000275543
0.000325321
0.000414854
0.000588256
0.000897928
0.00143275
0.00232753
0.00365169
0.00542725
0.00761386
0.0100692
0.0125731
0.0149036
0.0169156
0.0185745
0.0199327
0.0210812
0.0221089
0.0230839
0.0240515
0.0250403
0.0260668
0.0271373
0.0282426
0.0293649
0.0304785
0.0315771
0.0326511
0.0336898
0.0346807
0.0356117
0.0364709
0.0372477
0.0379335
0.0385215
0.0390071
0.0393872
0.0396601
0.0398257
0.0398847
0.0398393
0.039693
0.0394503
0.039117
0.0387001
0.0382072
0.0376473
0.0370295
0.0363637
0.0356599
0.0349283
0.0341788
0.0334211
0.0326646
0.031918
0.0311896
0.0304866
0.0298158
0.0291834
0.028595
0.0280557
0.0275704
0.0271434
0.0267791
0.0264811
0.0262517
0.0260904
0.0259959
0.0259353
0.0259924
0.0258271
0.00486318
0.00182655
0.00084316
0.000456556
0.000283056
0.000199664
0.000159927
0.000143595
0.000141889
0.000151128
0.000170776
0.000205161
0.0002665
0.000373462
0.000557165
0.000869618
0.00135567
0.0020658
0.0030567
0.00437704
0.00605308
0.00807298
0.0103758
0.0128536
0.0153703
0.0177915
0.0200145
0.0219852
0.0236979
0.0251818
0.0264828
0.027646
0.0286709
0.0295804
0.0304056
0.0311628
0.0318588
0.032495
0.0330691
0.0335767
0.0340121
0.034369
0.0346414
0.0348242
0.0349137
0.0349076
0.0348055
0.0346084
0.0343191
0.0339419
0.0334828
0.0329486
0.0323476
0.0316887
0.0309816
0.0302365
0.0294637
0.0286733
0.0278753
0.0270793
0.026294
0.0255276
0.0247874
0.0240798
0.0234103
0.0227838
0.0222041
0.0216746
0.0211982
0.0207774
0.0204146
0.0201123
0.0198727
0.0196987
0.0195929
0.0195566
0.0195938
0.0196829
0.0199015
0.0200054
0.00486311
0.00182659
0.000842596
0.000453366
0.000274741
0.000183906
0.000135047
0.000108744
9.60483e-05
9.26622e-05
9.67164e-05
0.000108405
0.000130629
0.000169056
0.000233268
0.000339073
0.000499494
0.00073073
0.00105407
0.00149438
0.00207925
0.002837
0.00379357
0.00496824
0.00636837
0.00798387
0.00978366
0.011716
0.0137142
0.0157057
0.017623
0.019413
0.0210722
0.0224921
0.023654
0.0245883
0.0253317
0.0259176
0.026372
0.0267126
0.0269504
0.0270914
0.0271389
0.0270948
0.0269612
0.026741
0.026438
0.0260572
0.025605
0.0250885
0.024516
0.0238961
0.0232382
0.0225516
0.0218461
0.0211308
0.0204147
0.0197061
0.0190127
0.0183414
0.0176981
0.0170879
0.0165152
0.0159833
0.0154951
0.0150527
0.0146577
0.0143114
0.0140148
0.013769
0.0135748
0.0134336
0.0133471
0.0133175
0.0133479
0.0134413
0.0136052
0.0138276
0.0141778
0.0144981
0.0048631
0.00182671
0.000842737
0.000452991
0.00027302
0.000179811
0.000127478
9.66773e-05
7.84374e-05
6.831e-05
6.40541e-05
6.477e-05
7.07459e-05
8.34642e-05
0.000105841
0.000142737
0.000197541
0.000274154
0.00037754
0.000513333
0.000687947
0.000908588
0.00118319
0.00152023
0.00192835
0.00241564
0.00298862
0.00365095
0.00440223
0.00523695
0.00614406
0.00710718
0.00811007
0.00921953
0.0103518
0.0114468
0.0124581
0.0133517
0.0141073
0.0147164
0.0151803
0.0155063
0.0157054
0.01579
0.0157729
0.0156664
0.0154818
0.01523
0.0149213
0.0145652
0.014171
0.0137475
0.0133032
0.012846
0.0123833
0.0119218
0.0114677
0.0110264
0.0106024
0.0101998
0.00982187
0.00947125
0.00915012
0.00886024
0.00860296
0.0083794
0.00819048
0.00803704
0.00791991
0.00784
0.00779842
0.00779663
0.00783655
0.0079208
0.00805314
0.00823788
0.00848432
0.00878859
0.00920907
0.00966099
0.00486309
0.00182675
0.000842844
0.000453029
0.000272743
0.000178859
0.000125384
9.28989e-05
7.23586e-05
5.92204e-05
5.10856e-05
4.67025e-05
4.55681e-05
4.77849e-05
5.40654e-05
6.58407e-05
8.40394e-05
0.000109655
0.000143864
0.000187792
0.00024248
0.000308869
0.000387782
0.000479911
0.000585777
0.00070564
0.000839346
0.000986145
0.00114449
0.00131185
0.00148461
0.00165799
0.0018265
0.00198757
0.00219303
0.00244384
0.00273519
0.00305807
0.00340026
0.00374772
0.00408616
0.00440247
0.00468572
0.00492779
0.00512355
0.00527074
0.00536956
0.00542225
0.00543251
0.00540503
0.00534508
0.00525813
0.00514962
0.00502474
0.00488831
0.00474475
0.00459801
0.00445157
0.00430852
0.0041715
0.00404285
0.00392456
0.00381842
0.00372599
0.00364868
0.00358784
0.00354479
0.00352085
0.00351745
0.00353619
0.00357888
0.0036477
0.00374527
0.00387486
0.00404083
0.00424837
0.00450716
0.00481956
0.00523106
0.00571257
0.00486308
0.00182671
0.000842831
0.000453044
0.00027271
0.000178657
0.000124845
9.17975e-05
7.04121e-05
5.60844e-05
4.63373e-05
3.9789e-05
3.56825e-05
3.36695e-05
3.37231e-05
3.61225e-05
4.10518e-05
4.86835e-05
5.92562e-05
7.29847e-05
9.0022e-05
0.000110429
0.000134154
0.000161016
0.000190684
0.000222662
0.000256249
0.000290515
0.00032426
0.000356011
0.000384021
0.000406314
0.000420777
0.000425397
0.000427383
0.000432205
0.000441033
0.000454999
0.000475046
0.00050177
0.000535295
0.000575199
0.000620525
0.000669851
0.000721428
0.000773341
0.000823686
0.000870715
0.000912961
0.000949312
0.000979052
0.00100186
0.00101777
0.00102715
0.00103063
0.00102901
0.00102326
0.0010144
0.00100352
0.000991688
0.000979952
0.00096934
0.000960841
0.000955424
0.000954055
0.000957721
0.00096747
0.000984451
0.00100997
0.00104556
0.00109306
0.0011547
0.00123329
0.00133233
0.00145639
0.00161116
0.00180574
0.00204699
0.00236709
0.00277231
0.00486307
0.00182658
0.000842698
0.000452967
0.000272664
0.000178593
0.0001247
9.14859e-05
6.98197e-05
5.50632e-05
4.47004e-05
3.72968e-05
3.20092e-05
2.8345e-05
2.60421e-05
2.50113e-05
2.52245e-05
2.66094e-05
2.91303e-05
3.27654e-05
3.74835e-05
4.32291e-05
4.99113e-05
5.73971e-05
6.5506e-05
7.40061e-05
8.26096e-05
9.09721e-05
9.86971e-05
0.000105349
0.000110476
0.000113649
0.000114512
0.000112847
0.000110236
0.000107351
0.000104234
0.000100943
9.75483e-05
9.41287e-05
9.07728e-05
8.75734e-05
8.46226e-05
8.20054e-05
7.97934e-05
7.8038e-05
7.6766e-05
7.59771e-05
7.56448e-05
7.57202e-05
7.61381e-05
7.68255e-05
7.77101e-05
7.8729e-05
7.98356e-05
8.10055e-05
8.22402e-05
8.3569e-05
8.50492e-05
8.67649e-05
8.88256e-05
9.13635e-05
9.4532e-05
9.85049e-05
0.000103477
0.000109669
0.000117336
0.00012678
0.000138377
0.00015261
0.000170125
0.000191808
0.000218909
0.000253213
0.000297338
0.000355081
0.000432579
0.000537585
0.000689862
0.000910245
0.00486306
0.00182636
0.000842462
0.000452802
0.000272557
0.000178517
0.000124626
9.1379e-05
6.96342e-05
5.47391e-05
4.41603e-05
3.6441e-05
3.07067e-05
2.64172e-05
2.32367e-05
2.09639e-05
1.95194e-05
1.87688e-05
1.86051e-05
1.89514e-05
1.97443e-05
2.09231e-05
2.24235e-05
2.41738e-05
2.60927e-05
2.80889e-05
3.00609e-05
3.18984e-05
3.34866e-05
3.47116e-05
3.54694e-05
3.56764e-05
3.52817e-05
3.42749e-05
3.31155e-05
3.18973e-05
3.06273e-05
2.93141e-05
2.79673e-05
2.65975e-05
2.52156e-05
2.38328e-05
2.24601e-05
2.11082e-05
1.97873e-05
1.85068e-05
1.72759e-05
1.61035e-05
1.4999e-05
1.39732e-05
1.30395e-05
1.22156e-05
1.15256e-05
1.10022e-05
1.06887e-05
1.0641e-05
1.09289e-05
1.1636e-05
1.28593e-05
1.47065e-05
1.72925e-05
2.07347e-05
2.51476e-05
3.06378e-05
3.7299e-05
4.52091e-05
5.4429e-05
6.50041e-05
7.69689e-05
9.0355e-05
0.000105202
0.000121572
0.00013957
0.000159364
0.000181219
0.000205511
0.000232914
0.000263856
0.000301915
0.00034683
0.00486305
0.00182606
0.000842138
0.000452565
0.000272393
0.000178402
0.000124542
9.13068e-05
6.95531e-05
5.46239e-05
4.39795e-05
3.61542e-05
3.02618e-05
2.57458e-05
2.22469e-05
1.95296e-05
1.7505e-05
1.60252e-05
1.49673e-05
1.42445e-05
1.3792e-05
1.35573e-05
1.3495e-05
1.35635e-05
1.3723e-05
1.39345e-05
1.41595e-05
1.43604e-05
1.45017e-05
1.45513e-05
1.44832e-05
1.42791e-05
1.3931e-05
1.34355e-05
1.2937e-05
1.2436e-05
1.19335e-05
1.14312e-05
1.09308e-05
1.04344e-05
9.94436e-06
9.46289e-06
8.99261e-06
8.53648e-06
8.09833e-06
7.68357e-06
7.3004e-06
6.96147e-06
6.68617e-06
6.50362e-06
6.45599e-06
6.6024e-06
7.0226e-06
7.8203e-06
9.12544e-06
1.10949e-05
1.39112e-05
1.77787e-05
2.29182e-05
2.95585e-05
3.79276e-05
4.82432e-05
6.07036e-05
7.54817e-05
9.27204e-05
0.000112533
0.000135006
0.000160207
0.000188191
0.000219013
0.000252733
0.000289426
0.000329171
0.000372042
0.000418052
0.000467025
0.000518458
0.000570238
0.000620954
0.000655498
0.00486304
0.00182567
0.000841744
0.000452275
0.000272188
0.000178255
0.000124435
9.12266e-05
6.94872e-05
5.456e-05
4.39038e-05
3.60499e-05
3.0108e-05
2.55162e-05
2.19077e-05
1.90362e-05
1.68122e-05
1.50856e-05
1.37306e-05
1.266e-05
1.18106e-05
1.11351e-05
1.05963e-05
1.01641e-05
9.81322e-06
9.52166e-06
9.27026e-06
9.04213e-06
8.8226e-06
8.59938e-06
8.36286e-06
8.10646e-06
7.82673e-06
7.52653e-06
7.23859e-06
6.9616e-06
6.69462e-06
6.43704e-06
6.18854e-06
5.9492e-06
5.71974e-06
5.50203e-06
5.29999e-06
5.12111e-06
4.97872e-06
4.89515e-06
4.90598e-06
5.06523e-06
5.45142e-06
6.17406e-06
7.37996e-06
9.25866e-06
1.2046e-05
1.60252e-05
2.15245e-05
2.89112e-05
3.85822e-05
5.09517e-05
6.64367e-05
8.54426e-05
0.000108349
0.000135501
0.000167197
0.000203686
0.000245158
0.000291743
0.000343499
0.0004004
0.000462327
0.000529051
0.000600225
0.000675376
0.000753897
0.000835045
0.00091791
0.00100131
0.00108378
0.00116179
0.00123363
0.00127832
0.00486304
0.0018252
0.000841296
0.000451951
0.000271954
0.000178085
0.00012431
9.11328e-05
6.9415e-05
5.45014e-05
4.38513e-05
3.59959e-05
3.00437e-05
2.5431e-05
2.17887e-05
1.88676e-05
1.65781e-05
1.47705e-05
1.3319e-05
1.21367e-05
1.11619e-05
1.03494e-05
9.66532e-06
9.08332e-06
8.58278e-06
8.14706e-06
7.7626e-06
7.41821e-06
7.1047e-06
6.81457e-06
6.54189e-06
6.28219e-06
6.03231e-06
5.79285e-06
5.5696e-06
5.36079e-06
5.16511e-06
4.98207e-06
4.81255e-06
4.66013e-06
4.53322e-06
4.44833e-06
4.43481e-06
4.54121e-06
4.84312e-06
5.45254e-06
6.528e-06
8.28475e-06
1.10039e-05
1.50393e-05
2.08209e-05
2.88533e-05
3.97096e-05
5.40195e-05
7.24524e-05
9.56977e-05
0.000124443
0.000159348
0.000201027
0.000250011
0.000306727
0.000371448
0.000444256
0.000524984
0.00061318
0.000708069
0.000808556
0.000913256
0.00102057
0.00112876
0.00123612
0.00134104
0.00144213
0.00153828
0.00162867
0.00171256
0.00178967
0.0018568
0.00191631
0.00194458
0.00486304
0.00182465
0.000840808
0.000451605
0.000271706
0.000177903
0.000124174
9.10288e-05
6.93342e-05
5.44372e-05
4.37987e-05
3.59505e-05
3.00011e-05
2.53867e-05
2.17374e-05
1.88032e-05
1.64949e-05
1.46629e-05
1.31818e-05
1.19652e-05
1.09521e-05
1.00981e-05
9.37056e-06
8.74441e-06
8.20049e-06
7.72376e-06
7.30226e-06
6.92639e-06
6.58838e-06
6.28193e-06
6.00195e-06
5.74434e-06
5.50587e-06
5.28534e-06
5.08265e-06
4.89801e-06
4.73578e-06
4.6081e-06
4.5407e-06
4.58093e-06
4.80825e-06
5.34699e-06
6.38066e-06
8.16708e-06
1.10526e-05
1.54841e-05
2.20167e-05
3.13157e-05
4.41518e-05
6.13883e-05
8.39611e-05
0.000112852
0.000149055
0.00019354
0.000247204
0.000310819
0.000384961
0.000469931
0.000565666
0.00067166
0.000786903
0.00090987
0.00103857
0.00117067
0.00130364
0.00143497
0.00156236
0.00168388
0.00179801
0.00190378
0.00200062
0.00208841
0.00216731
0.00223771
0.00230019
0.00235504
0.00240346
0.00244196
0.0024775
0.00247745
0.00486305
0.00182402
0.000840291
0.000451246
0.000271449
0.000177714
0.000124031
9.09185e-05
6.92469e-05
5.43668e-05
4.3741e-05
3.59022e-05
2.99597e-05
2.53496e-05
2.17023e-05
1.87675e-05
1.6456e-05
1.46187e-05
1.31302e-05
1.19045e-05
1.0881e-05
1.00156e-05
9.27594e-06
8.63756e-06
8.08173e-06
7.59388e-06
7.16252e-06
6.7785e-06
6.43443e-06
6.12434e-06
5.84332e-06
5.58741e-06
5.35422e-06
5.15282e-06
5.00886e-06
4.97892e-06
5.16721e-06
5.74507e-06
6.97223e-06
9.21766e-06
1.29779e-05
1.88898e-05
2.77356e-05
4.04389e-05
5.80497e-05
8.17184e-05
0.00011266
0.000152107
0.000201258
0.000261209
0.000332881
0.000416932
0.000513656
0.000622883
0.000743898
0.000875387
0.00101545
0.0011617
0.0013114
0.00146169
0.00160982
0.00175334
0.00189026
0.00201906
0.00213876
0.00224875
0.00234877
0.00243881
0.00251901
0.00258964
0.0026511
0.00270386
0.00274849
0.00278562
0.00281609
0.00284024
0.00286004
0.00287119
0.00288505
0.00285962
0.00486306
0.00182331
0.000839748
0.000450873
0.000271184
0.000177519
0.000123884
9.08032e-05
6.91543e-05
5.4291e-05
4.36779e-05
3.5849e-05
2.99143e-05
2.53104e-05
2.16677e-05
1.87363e-05
1.6427e-05
1.45907e-05
1.31023e-05
1.18761e-05
1.08516e-05
9.98509e-06
9.2445e-06
8.60585e-06
8.05104e-06
7.56643e-06
7.14186e-06
6.77032e-06
6.44785e-06
6.1743e-06
5.95472e-06
5.80442e-06
6.0039e-06
6.98262e-06
9.26265e-06
1.35564e-05
2.07727e-05
3.20056e-05
4.85042e-05
7.16284e-05
0.000102789
0.000143376
0.000194689
0.00025785
0.000333728
0.000422851
0.000525325
0.000640764
0.000768234
0.000906247
0.0010528
0.00120546
0.00136158
0.00151844
0.00167349
0.00182455
0.00196987
0.00210822
0.0022388
0.00236116
0.00247505
0.00258037
0.00267703
0.00276492
0.00284396
0.00291408
0.00297528
0.00302764
0.00307136
0.00310678
0.00313435
0.00315462
0.00316829
0.00317603
0.00317884
0.00317699
0.00317303
0.00316198
0.00315876
0.00311432
0.00486307
0.00182252
0.000839169
0.000450474
0.0002709
0.000177311
0.000123726
9.06793e-05
6.90545e-05
5.42091e-05
4.36102e-05
3.57932e-05
2.98695e-05
2.52772e-05
2.16488e-05
1.87378e-05
1.64589e-05
1.46694e-05
1.32548e-05
1.2146e-05
1.13095e-05
1.07434e-05
1.04787e-05
1.05843e-05
1.11752e-05
1.24236e-05
1.45729e-05
1.79565e-05
2.30182e-05
3.03397e-05
4.06698e-05
5.56797e-05
7.91972e-05
0.000112638
0.000157484
0.000214954
0.000285924
0.000370845
0.000469675
0.000581853
0.000706286
0.000841385
0.000985127
0.00113517
0.00128897
0.00144399
0.00159783
0.00174843
0.00189418
0.00203396
0.00216719
0.00229369
0.00241361
0.00252725
0.00263492
0.00273686
0.00283316
0.00292375
0.0030084
0.0030868
0.00315857
0.00322332
0.00328075
0.00333057
0.00337265
0.00340693
0.0034335
0.00345257
0.00346446
0.00346963
0.00346862
0.00346208
0.00345072
0.00343525
0.00341669
0.00339524
0.00337375
0.00334687
0.0033315
0.0032746
0.00486305
0.00182161
0.000838519
0.00045001
0.000270568
0.000177079
0.000123569
9.0589e-05
6.90395e-05
5.4302e-05
4.38817e-05
3.63811e-05
3.10317e-05
2.74833e-05
2.57259e-05
2.60827e-05
2.89756e-05
3.48517e-05
4.43066e-05
5.80414e-05
7.68373e-05
0.000101531
0.000132996
0.000172114
0.00021976
0.000276775
0.000343946
0.000421984
0.000511506
0.000613002
0.000726787
0.000852623
0.000990698
0.00113781
0.00129062
0.00144569
0.00159981
0.00175017
0.00189453
0.00203134
0.00215975
0.00227955
0.00239111
0.00249521
0.00259286
0.00268516
0.00277313
0.00285761
0.00293922
0.00301833
0.00309505
0.00316933
0.00324094
0.00330957
0.00337482
0.00343626
0.00349345
0.00354593
0.00359323
0.00363495
0.00367069
0.00370015
0.00372312
0.00373947
0.00374923
0.00375252
0.00374962
0.0037409
0.00372683
0.00370797
0.00368494
0.0036584
0.00362908
0.00359763
0.00356504
0.00353137
0.00349954
0.00346432
0.00344223
0.00338021
0.00486319
0.00182092
0.000838296
0.00045021
0.00027135
0.000178813
0.00012705
9.74246e-05
8.22324e-05
7.8931e-05
8.7671e-05
0.000109978
0.000147973
0.000203921
0.000279951
0.000377833
0.000492714
0.000621126
0.000760879
0.000909772
0.00106561
0.0012262
0.00138939
0.00155306
0.00171522
0.00187402
0.00202788
0.00217551
0.00231594
0.00244861
0.00257326
0.00268922
0.00279339
0.00288663
0.00296977
0.00304414
0.00311142
0.00317326
0.00323116
0.00328628
0.00333946
0.00339123
0.0034419
0.00349163
0.00354047
0.00358841
0.00363539
0.00368132
0.00372607
0.00376944
0.00381117
0.00385094
0.00388836
0.00392299
0.00395435
0.00398196
0.00400536
0.00402411
0.00403787
0.00404636
0.0040494
0.00404694
0.00403904
0.00402587
0.00400771
0.00398497
0.0039581
0.00392767
0.00389427
0.00385851
0.00382105
0.00378253
0.00374364
0.00370494
0.00366737
0.00363094
0.0035984
0.00356542
0.00354424
0.00349006
0.00487705
0.00184506
0.00087583
0.000507877
0.000362417
0.000325287
0.000362228
0.00046503
0.000630547
0.000851727
0.00111583
0.00140688
0.00170896
0.00200851
0.00229499
0.00256063
0.00278967
0.00298158
0.00314122
0.00327365
0.00338378
0.00347608
0.00355451
0.00362243
0.00368264
0.00373733
0.00378817
0.00383637
0.00388272
0.00392772
0.00397168
0.00401475
0.00405365
0.00408711
0.0041154
0.00413975
0.00416157
0.00418202
0.00420197
0.00422199
0.00424242
0.00426343
0.00428498
0.00430694
0.00432904
0.00435092
0.00437219
0.00439236
0.00441095
0.00442746
0.00444138
0.0044522
0.00445947
0.00446277
0.00446172
0.00445604
0.00444553
0.00443011
0.0044098
0.00438475
0.00435524
0.00432163
0.0042844
0.00424412
0.00420141
0.00415696
0.00411145
0.00406563
0.0040202
0.00397586
0.00393331
0.00389322
0.0038563
0.00382318
0.00379486
0.00377157
0.00375592
0.00374572
0.00374167
0.00373438
0.00556862
0.00287821
0.00213711
0.00201014
0.00218327
0.00254429
0.00303182
0.00357477
0.00409181
0.00451752
0.00482255
0.0050126
0.00511401
0.00515825
0.00517197
0.00517356
0.00516727
0.0051596
0.00515349
0.00514875
0.00514433
0.00513942
0.00513363
0.00512697
0.00511973
0.00511233
0.0051052
0.00509872
0.00509316
0.00508867
0.00508541
0.00508294
0.00508134
0.00508299
0.0050896
0.0051012
0.00511692
0.00513559
0.00515605
0.00517721
0.00519825
0.00521841
0.00523692
0.00525306
0.00526613
0.00527547
0.00528047
0.00528054
0.00527518
0.00526394
0.00524648
0.00522255
0.00519205
0.00515501
0.0051116
0.00506214
0.00500713
0.00494719
0.00488308
0.00481568
0.00474597
0.004675
0.00460385
0.00453365
0.00446549
0.00440043
0.00433953
0.00428392
0.00423463
0.00419269
0.00415912
0.00413499
0.00412152
0.00411978
0.00413166
0.00415709
0.00420186
0.00425724
0.00433751
0.00450717
0.0142815
0.0119092
0.0101451
0.00887965
0.00795818
0.00729423
0.0068281
0.00651681
0.00632039
0.00619827
0.00611472
0.00604488
0.00597589
0.00590395
0.00583007
0.00575674
0.00568849
0.00562672
0.00557121
0.00552133
0.00547628
0.00543532
0.00539785
0.00536339
0.00533156
0.00530206
0.0052746
0.00524888
0.00522457
0.00520129
0.00517857
0.00515609
0.00513241
0.00510602
0.00507661
0.00504439
0.00500964
0.00497254
0.00493319
0.00489162
0.00484782
0.00480182
0.00475365
0.00470341
0.0046512
0.00459716
0.00454147
0.00448436
0.00442609
0.00436698
0.0043074
0.00424777
0.0041886
0.00413041
0.00407383
0.00401952
0.00396821
0.00392069
0.0038778
0.00384045
0.00380959
0.00378623
0.00377147
0.00376643
0.00377237
0.00379064
0.00382269
0.00387018
0.00393496
0.00401915
0.0041252
0.00425601
0.00441489
0.00460635
0.00483424
0.00510947
0.00542685
0.00584342
0.00623816
0.00697507
)
;

boundaryField
{
    inlet
    {
        type            fixedValue;
        value           uniform 0.017;
    }
    outlet
    {
        type            zeroGradient;
    }
    fixedWalls
    {
        type            kqRWallFunction;
        value           nonuniform List<scalar> 
160
(
0.0142815
0.0119092
0.0101451
0.00887965
0.00795818
0.00729423
0.0068281
0.00651681
0.00632039
0.00619827
0.00611472
0.00604488
0.00597589
0.00590395
0.00583007
0.00575674
0.00568849
0.00562672
0.00557121
0.00552133
0.00547628
0.00543532
0.00539785
0.00536339
0.00533156
0.00530206
0.0052746
0.00524888
0.00522457
0.00520129
0.00517857
0.00515609
0.00513241
0.00510602
0.00507661
0.00504439
0.00500964
0.00497254
0.00493319
0.00489162
0.00484782
0.00480182
0.00475365
0.00470341
0.0046512
0.00459716
0.00454147
0.00448436
0.00442609
0.00436698
0.0043074
0.00424777
0.0041886
0.00413041
0.00407383
0.00401952
0.00396821
0.00392069
0.0038778
0.00384045
0.00380959
0.00378623
0.00377147
0.00376643
0.00377237
0.00379064
0.00382269
0.00387018
0.00393496
0.00401915
0.0041252
0.00425601
0.00441489
0.00460635
0.00483424
0.00510947
0.00542685
0.00584342
0.00623816
0.00697507
0.0162095
0.0147776
0.0124075
0.00897585
0.00371941
0.000824223
0.000728656
0.000831491
0.000864962
0.000737052
0.000535756
0.000418033
0.000462539
0.00051346
0.000572934
0.000656709
0.00076643
0.000896767
0.00104734
0.00122137
0.00142299
0.00165655
0.00192613
0.002235
0.00258501
0.00297611
0.00340609
0.00387084
0.0043647
0.00488108
0.00541311
0.00595408
0.00649784
0.00703917
0.00757413
0.0081004
0.00861771
0.00912835
0.00963803
0.0101577
0.0106798
0.011187
0.0116804
0.0121621
0.0126327
0.0130916
0.0135374
0.0139686
0.0143831
0.0147789
0.0151541
0.0155069
0.0158355
0.0161385
0.0164108
0.0166521
0.0168629
0.0170442
0.0172003
0.0173451
0.0175235
0.017714
0.0178978
0.018066
0.0182166
0.0183501
0.018468
0.0185724
0.0186664
0.018753
0.0188359
0.0189196
0.0190088
0.0191099
0.0192306
0.0193816
0.0195799
0.0198513
0.0202362
0.020984
)
;
    }
    frontAndBack
    {
        type            empty;
    }
}


// ************************************************************************* //
