/*--------------------------------*- C++ -*----------------------------------*\
| =========                 |                                                 |
| \\      /  F ield         | OpenFOAM: The Open Source CFD Toolbox           |
|  \\    /   O peration     | Version:  v1912                                 |
|   \\  /    A nd           | Website:  www.openfoam.com                      |
|    \\/     M anipulation  |                                                 |
\*---------------------------------------------------------------------------*/
FoamFile
{
    version     2.0;
    format      ascii;
    class       volScalarField;
    location    "200";
    object      nut;
}
// * * * * * * * * * * * * * * * * * * * * * * * * * * * * * * * * * * * * * //

dimensions      [0 2 -1 0 0 0 0];


internalField   nonuniform List<scalar> 
2000
(
0.00175001
0.00175725
0.00169168
0.00151019
0.00101935
0.000502656
0.000494588
0.000552344
0.000588348
0.000566611
0.000503445
0.000462938
0.000506332
0.000554027
0.000607004
0.000673133
0.000751621
0.00083788
0.000930518
0.00102993
0.00113672
0.00125131
0.00137381
0.0015039
0.00164074
0.00178294
0.00192871
0.00207601
0.00222272
0.00236686
0.00250667
0.00264068
0.00276776
0.00288709
0.00299819
0.00310094
0.00319559
0.00328283
0.00336386
0.0034406
0.00351177
0.00357463
0.00362961
0.00367728
0.00371793
0.00375166
0.00377849
0.00379838
0.00381128
0.00381718
0.00381605
0.00380794
0.00379293
0.00377109
0.00374215
0.0037064
0.00366421
0.00361599
0.00356248
0.00350536
0.00344919
0.00339173
0.00333118
0.00326688
0.00319883
0.00312727
0.00305253
0.00297497
0.00289499
0.00281295
0.00272926
0.00264429
0.00255845
0.00247213
0.0023858
0.00229998
0.00221545
0.00213324
0.00205486
0.00199123
3.44185e-05
5.60398e-05
9.95538e-05
0.000148338
0.000162346
0.000155676
0.000159351
0.000201728
0.00126515
0.00137571
0.000959142
0.000813873
0.00106419
0.00134489
0.00157157
0.00184782
0.00218632
0.00255823
0.00294025
0.00332719
0.00372037
0.00412284
0.00453908
0.00497561
0.00544109
0.00594545
0.00649838
0.00710781
0.00777876
0.00851161
0.00930134
0.0101378
0.0110061
0.0118879
0.0127628
0.01361
0.0144099
0.0151442
0.015795
0.016312
0.0167007
0.0170274
0.0173137
0.0175685
0.017796
0.0179984
0.0181768
0.0183317
0.0184631
0.018571
0.0186552
0.0187154
0.0187504
0.0187564
0.0187407
0.0187011
0.0186377
0.0185505
0.0184397
0.0183048
0.018144
0.0179583
0.0177496
0.0175199
0.0172705
0.0170032
0.0167195
0.0164209
0.0161093
0.0157863
0.0154536
0.0151131
0.0147665
0.0144153
0.0140611
0.0137036
0.0133443
0.0129701
0.0126259
0.0123618
2.12863e-05
1.81627e-05
2.51324e-05
4.00241e-05
5.55751e-05
6.78953e-05
7.91644e-05
9.43294e-05
0.000192994
0.000281153
0.000405367
0.000852348
0.00186957
0.00218575
0.00193617
0.00189322
0.00220427
0.00267374
0.00319481
0.00374831
0.00434022
0.00497282
0.00564345
0.00634972
0.00709209
0.0078738
0.00869942
0.00957297
0.010496
0.0114658
0.0124743
0.0135079
0.0145481
0.0155718
0.0165538
0.0174694
0.018296
0.0190166
0.0196311
0.0201509
0.0205945
0.0209791
0.0213161
0.0216132
0.0218748
0.0221035
0.022301
0.0224683
0.022606
0.0227147
0.0227946
0.0228463
0.02287
0.0228659
0.0228348
0.0227777
0.0226954
0.0225888
0.0224588
0.0223063
0.0221323
0.021938
0.0217252
0.0214954
0.0212501
0.020991
0.0207196
0.0204378
0.0201472
0.0198496
0.0195465
0.0192397
0.0189304
0.0186194
0.0183067
0.0179904
0.0176672
0.0173242
0.0169883
0.0166091
1.97876e-05
1.26288e-05
1.14642e-05
1.46598e-05
2.1021e-05
2.89074e-05
3.74784e-05
4.72647e-05
7.19958e-05
0.00010945
0.0001676
0.000296151
0.000574892
0.000932889
0.0014112
0.00200093
0.00252644
0.00291975
0.00326036
0.00364749
0.00413323
0.00472195
0.00539474
0.00613136
0.00691966
0.00775432
0.00863256
0.00955138
0.0105066
0.0114921
0.0124999
0.0135184
0.014532
0.0155196
0.016453
0.0173067
0.0180519
0.0187189
0.0193165
0.0198499
0.020324
0.0207438
0.021114
0.0214386
0.021721
0.0219636
0.0221681
0.022336
0.0224684
0.0225665
0.0226313
0.0226639
0.0226655
0.0226373
0.0225808
0.0224976
0.0223893
0.0222579
0.0221051
0.0219329
0.0217433
0.0215385
0.0213206
0.0210919
0.0208544
0.0206101
0.020361
0.0201089
0.0198557
0.019603
0.0193523
0.019105
0.0188618
0.0186231
0.0183881
0.0181539
0.0179157
0.0176601
0.0174057
0.017069
1.95963e-05
1.17281e-05
8.64733e-06
8.13727e-06
9.64868e-06
1.28841e-05
1.74845e-05
2.32447e-05
3.27736e-05
4.78969e-05
7.21316e-05
0.00011872
0.000216068
0.000381169
0.000647185
0.0010523
0.00157268
0.00216184
0.00277492
0.00337533
0.00395234
0.00451958
0.00509802
0.00570462
0.00635012
0.00703978
0.00777436
0.00855127
0.0093657
0.0102116
0.0110816
0.0119664
0.0128511
0.0137136
0.0145099
0.0152424
0.0159288
0.0165666
0.0171546
0.0176921
0.018179
0.0186156
0.0190026
0.0193416
0.0196339
0.0198813
0.0200851
0.0202471
0.0203685
0.0204511
0.0204965
0.0205066
0.0204832
0.0204286
0.0203451
0.0202351
0.0201012
0.0199461
0.0197725
0.0195834
0.0193814
0.0191695
0.0189504
0.0187267
0.0185011
0.0182757
0.0180529
0.0178345
0.0176225
0.0174183
0.0172235
0.0170392
0.0168661
0.0167043
0.0165533
0.0164104
0.0162719
0.0161256
0.015988
0.0157705
1.95712e-05
1.15909e-05
8.09473e-06
6.5534e-06
6.23754e-06
6.97391e-06
8.74102e-06
1.15249e-05
1.58337e-05
2.24483e-05
3.27464e-05
5.06509e-05
8.52958e-05
0.000148096
0.000256985
0.000439745
0.000713476
0.00108939
0.00157057
0.00214432
0.00278353
0.00345516
0.00413133
0.00479697
0.00545005
0.00609625
0.00674317
0.00739691
0.00806124
0.0087379
0.00942673
0.0101243
0.0108131
0.0114727
0.012111
0.0127259
0.0133136
0.0138702
0.014392
0.0148761
0.0153196
0.0157205
0.0160773
0.0163893
0.0166563
0.0168786
0.0170571
0.0171929
0.0172873
0.017342
0.0173592
0.0173411
0.0172901
0.0172091
0.017101
0.016969
0.0168162
0.0166461
0.016462
0.0162673
0.0160651
0.0158588
0.0156513
0.0154455
0.0152439
0.015049
0.0148628
0.0146873
0.014524
0.0143744
0.0142397
0.0141209
0.0140186
0.0139333
0.0138647
0.0138113
0.0137712
0.0137347
0.013719
0.0136446
1.95678e-05
1.1573e-05
7.99818e-06
6.20087e-06
5.3192e-06
5.07759e-06
5.42582e-06
6.4034e-06
8.17932e-06
1.10581e-05
1.55651e-05
2.293e-05
3.60115e-05
5.93632e-05
0.000100096
0.000169478
0.000277009
0.000433714
0.000652675
0.000946387
0.00132403
0.0017882
0.00233249
0.00294135
0.00359286
0.00426348
0.00493309
0.00558839
0.00622349
0.00683823
0.00743541
0.00801728
0.00857569
0.00911192
0.00962666
0.0101192
0.010588
0.0110314
0.0114475
0.0118342
0.0121891
0.01251
0.0127949
0.0130421
0.0132506
0.0134198
0.0135498
0.0136412
0.0136954
0.0137138
0.0136986
0.0136521
0.0135773
0.013477
0.0133546
0.0132134
0.0130569
0.0128886
0.0127121
0.0125306
0.0123476
0.0121659
0.0119885
0.0118179
0.0116566
0.0115066
0.0113697
0.0112474
0.011141
0.0110518
0.0109807
0.0109284
0.0108957
0.0108832
0.0108912
0.0109194
0.0109678
0.0110297
0.0111235
0.011187
1.95674e-05
1.15717e-05
7.98491e-06
6.13075e-06
5.09348e-06
4.53166e-06
4.3288e-06
4.4714e-06
5.01836e-06
6.09896e-06
7.93619e-06
1.09658e-05
1.61204e-05
2.50569e-05
4.04519e-05
6.64221e-05
0.000106195
0.000163553
0.000243552
0.000352293
0.000496792
0.000684575
0.000922997
0.00121825
0.00157408
0.00199038
0.00246217
0.0029795
0.00352856
0.0040936
0.00465923
0.00521266
0.00575561
0.00626254
0.00672623
0.00715047
0.00753997
0.0078985
0.0082282
0.00852966
0.00880236
0.00904517
0.00925685
0.00943639
0.00958316
0.00969705
0.00977846
0.00982827
0.0098478
0.00983882
0.00980341
0.00974401
0.00966331
0.00956421
0.00944977
0.00932312
0.00918745
0.00904587
0.00890145
0.00875709
0.00861552
0.00847927
0.00835065
0.00823175
0.00812442
0.0080303
0.0079508
0.00788717
0.00784048
0.00781167
0.0078016
0.00781106
0.00784083
0.00789173
0.00796468
0.00806038
0.00818057
0.00832157
0.00850267
0.00868236
1.95673e-05
1.15722e-05
7.9845e-06
6.11934e-06
5.04318e-06
4.38683e-06
3.99773e-06
3.82085e-06
3.8559e-06
4.14427e-06
4.77282e-06
5.90474e-06
7.86084e-06
1.123e-05
1.70108e-05
2.67709e-05
4.16939e-05
6.29575e-05
9.19551e-05
0.000130278
0.000179796
0.000242696
0.000321483
0.000418961
0.000538146
0.000682096
0.000853628
0.00105494
0.00128718
0.00155008
0.00184166
0.00215817
0.0024959
0.00287051
0.00325736
0.00363999
0.00400582
0.00434559
0.00465356
0.00492707
0.00516565
0.00537025
0.00554253
0.00568434
0.00579752
0.00588378
0.00594475
0.005982
0.00599716
0.005992
0.00596839
0.00592841
0.00587427
0.00580829
0.00573286
0.00565041
0.00556333
0.00547395
0.00538452
0.00529716
0.00521384
0.00513642
0.00506659
0.00500591
0.00495583
0.00491766
0.00489261
0.0048818
0.0048863
0.00490711
0.00494521
0.00500161
0.00507736
0.00517367
0.005292
0.00543393
0.00560259
0.00579704
0.00603628
0.00630018
1.95673e-05
1.15724e-05
7.98521e-06
6.11847e-06
5.03354e-06
4.35153e-06
3.9047e-06
3.6176e-06
3.46183e-06
3.43826e-06
3.57211e-06
3.91889e-06
4.58614e-06
5.7723e-06
7.82606e-06
1.13225e-05
1.67378e-05
2.45316e-05
3.51642e-05
4.90563e-05
6.66096e-05
8.82215e-05
0.000114292
0.000145223
0.000181413
0.000223229
0.000270973
0.000324828
0.000384795
0.000450637
0.000521838
0.000597586
0.00067694
0.000760173
0.000861935
0.000982307
0.00111969
0.00127086
0.00143139
0.00159615
0.00175985
0.00191757
0.0020651
0.00219916
0.00231748
0.00241876
0.00250251
0.00256898
0.00261895
0.00265359
0.00267435
0.00268283
0.00268075
0.00266983
0.00265179
0.00262834
0.0026011
0.00257164
0.00254147
0.00251203
0.00248468
0.00246073
0.00244144
0.00242802
0.00242165
0.00242349
0.00243472
0.00245649
0.00249003
0.00253659
0.00259749
0.00267417
0.00276818
0.00288129
0.00301562
0.00317359
0.00335934
0.00357456
0.00383653
0.00414458
1.95673e-05
1.15723e-05
7.98531e-06
6.11868e-06
5.03215e-06
4.34378e-06
3.88037e-06
3.55801e-06
3.33604e-06
3.19796e-06
3.1435e-06
3.18702e-06
3.36158e-06
3.72955e-06
4.40182e-06
5.56708e-06
7.3956e-06
1.00667e-05
1.37599e-05
1.86215e-05
2.47592e-05
3.22439e-05
4.11114e-05
5.13616e-05
6.29525e-05
7.5791e-05
8.97181e-05
0.000104492
0.000119768
0.000135084
0.000149845
0.000163316
0.000174629
0.000182846
0.000190421
0.000199513
0.000210781
0.000224888
0.000242415
0.000263762
0.000289079
0.000318217
0.000350728
0.000385903
0.000422836
0.00046051
0.000497879
0.000533951
0.000567854
0.000598884
0.000626535
0.000650505
0.000670697
0.000687198
0.000700257
0.000710257
0.000717688
0.000723115
0.000727163
0.000730488
0.000733772
0.000737712
0.00074302
0.000750429
0.000760701
0.000774651
0.000793164
0.000817229
0.00084797
0.000886691
0.000934915
0.000994441
0.0010674
0.00115633
0.0012643
0.00139497
0.00155357
0.00174479
0.00198347
0.00228436
1.95674e-05
1.15718e-05
7.98468e-06
6.11831e-06
5.03175e-06
4.34206e-06
3.87432e-06
3.5415e-06
3.29806e-06
3.12031e-06
2.99761e-06
2.92866e-06
2.92075e-06
2.99166e-06
3.17438e-06
3.52544e-06
4.09659e-06
4.94463e-06
6.13177e-06
7.71184e-06
9.72206e-06
1.21786e-05
1.50754e-05
1.83851e-05
2.20589e-05
2.60259e-05
3.01905e-05
3.44297e-05
3.85919e-05
4.24973e-05
4.59431e-05
4.87126e-05
5.05924e-05
5.1398e-05
5.17148e-05
5.18181e-05
5.17254e-05
5.14641e-05
5.10718e-05
5.0596e-05
5.00933e-05
4.96272e-05
4.9265e-05
4.90734e-05
4.91133e-05
4.94341e-05
5.00693e-05
5.1033e-05
5.23182e-05
5.38985e-05
5.57308e-05
5.77613e-05
5.99307e-05
6.21807e-05
6.44595e-05
6.67252e-05
6.89494e-05
7.11188e-05
7.32366e-05
7.53242e-05
7.7424e-05
7.96031e-05
8.19582e-05
8.46202e-05
8.77583e-05
9.15837e-05
9.63533e-05
0.000102379
0.000110043
0.000119832
0.000132383
0.000148559
0.000169567
0.000197122
0.000233712
0.000282962
0.000350455
0.000444078
0.000578599
0.000780268
1.95674e-05
1.15709e-05
7.98337e-06
6.11718e-06
5.03086e-06
4.34109e-06
3.87241e-06
3.53679e-06
3.28693e-06
3.09634e-06
2.95025e-06
2.84126e-06
2.76738e-06
2.73157e-06
2.74228e-06
2.81536e-06
2.96622e-06
3.20919e-06
3.56059e-06
4.03566e-06
4.64579e-06
5.39596e-06
6.28285e-06
7.29401e-06
8.40783e-06
9.59395e-06
1.08138e-05
1.20214e-05
1.31648e-05
1.41877e-05
1.50333e-05
1.56489e-05
1.59911e-05
1.60319e-05
1.59622e-05
1.58227e-05
1.56159e-05
1.53451e-05
1.5015e-05
1.4631e-05
1.41994e-05
1.37272e-05
1.32218e-05
1.26908e-05
1.21418e-05
1.15824e-05
1.10199e-05
1.04612e-05
9.91247e-06
9.37931e-06
8.86647e-06
8.37812e-06
7.91868e-06
7.49507e-06
7.12104e-06
6.82272e-06
6.64191e-06
6.63304e-06
6.8543e-06
7.35969e-06
8.19663e-06
9.40765e-06
1.10323e-05
1.31078e-05
1.56679e-05
1.87421e-05
2.2355e-05
2.65266e-05
3.1274e-05
3.66143e-05
4.25699e-05
4.91748e-05
5.6486e-05
6.45986e-05
7.36728e-05
8.39763e-05
9.60138e-05
0.000110579
0.000130199
0.000159469
1.95674e-05
1.15696e-05
7.98144e-06
6.11537e-06
5.02929e-06
4.33967e-06
3.87094e-06
3.53475e-06
3.28323e-06
3.08887e-06
2.93533e-06
2.8129e-06
2.71613e-06
2.6428e-06
2.5934e-06
2.57126e-06
2.58186e-06
2.62772e-06
2.71147e-06
2.83574e-06
3.00234e-06
3.21156e-06
3.46153e-06
3.74779e-06
4.06307e-06
4.39734e-06
4.73804e-06
5.07053e-06
5.37885e-06
5.64668e-06
5.85862e-06
6.00162e-06
6.06642e-06
6.04546e-06
6.00522e-06
5.94627e-06
5.86947e-06
5.77599e-06
5.66723e-06
5.54482e-06
5.41051e-06
5.26622e-06
5.11391e-06
4.95562e-06
4.79342e-06
4.6294e-06
4.4657e-06
4.30467e-06
4.14943e-06
4.00542e-06
3.88404e-06
3.80794e-06
3.81563e-06
3.96041e-06
4.30406e-06
4.91132e-06
5.84912e-06
7.18835e-06
9.00443e-06
1.13758e-05
1.43809e-05
1.80947e-05
2.25852e-05
2.79109e-05
3.41194e-05
4.12468e-05
4.93185e-05
5.8351e-05
6.83543e-05
7.93341e-05
9.12944e-05
0.000104237
0.000118162
0.000133058
0.000148892
0.000165576
0.000182928
0.000200408
0.000217607
0.000231044
1.95674e-05
1.15679e-05
7.97894e-06
6.11296e-06
5.0271e-06
4.33767e-06
3.86908e-06
3.53292e-06
3.28112e-06
3.08587e-06
2.93026e-06
2.8037e-06
2.69951e-06
2.61359e-06
2.54375e-06
2.48933e-06
2.45308e-06
2.43439e-06
2.43234e-06
2.44634e-06
2.47582e-06
2.51991e-06
2.57731e-06
2.64607e-06
2.72361e-06
2.80667e-06
2.89136e-06
2.97335e-06
3.04805e-06
3.11091e-06
3.15784e-06
3.18549e-06
3.19166e-06
3.17703e-06
3.15761e-06
3.13351e-06
3.10495e-06
3.07223e-06
3.03575e-06
2.99598e-06
2.9535e-06
2.90905e-06
2.86358e-06
2.81837e-06
2.77528e-06
2.73758e-06
2.7121e-06
2.71382e-06
2.77209e-06
2.93436e-06
3.26368e-06
3.83379e-06
4.72768e-06
6.03959e-06
7.87649e-06
1.03571e-05
1.36084e-05
1.77614e-05
2.29453e-05
2.92825e-05
3.68839e-05
4.58449e-05
5.62427e-05
6.81346e-05
8.15565e-05
9.6521e-05
0.000113016
0.000131
0.000150402
0.000171112
0.000192983
0.000215826
0.00023941
0.000263464
0.000287671
0.000311661
0.000335004
0.00035693
0.000376988
0.000391121
1.95674e-05
1.15656e-05
7.97593e-06
6.11003e-06
5.02436e-06
4.33514e-06
3.86674e-06
3.53075e-06
3.27905e-06
3.08374e-06
2.92772e-06
2.80011e-06
2.69377e-06
2.60395e-06
2.52754e-06
2.46259e-06
2.41102e-06
2.37141e-06
2.34193e-06
2.32124e-06
2.30828e-06
2.30211e-06
2.30179e-06
2.30632e-06
2.31459e-06
2.32539e-06
2.33743e-06
2.34932e-06
2.35969e-06
2.36722e-06
2.37076e-06
2.36942e-06
2.3626e-06
2.35134e-06
2.33922e-06
2.32627e-06
2.31254e-06
2.29824e-06
2.28376e-06
2.26984e-06
2.25779e-06
2.24989e-06
2.25052e-06
2.26929e-06
2.32742e-06
2.46533e-06
2.74539e-06
3.2479e-06
4.06808e-06
5.31804e-06
7.13001e-06
9.65696e-06
1.30701e-05
1.75539e-05
2.32991e-05
3.04953e-05
3.93227e-05
4.99444e-05
6.24984e-05
7.70912e-05
9.37892e-05
0.000112611
0.000133519
0.000156407
0.000181097
0.000207333
0.000234785
0.000263061
0.000291725
0.000320322
0.000348408
0.000375575
0.000401474
0.000425824
0.000448416
0.000469078
0.000487732
0.000503891
0.000517992
0.000526252
1.95674e-05
1.15629e-05
7.97244e-06
6.10664e-06
5.02117e-06
4.33217e-06
3.86399e-06
3.52821e-06
3.27669e-06
3.08152e-06
2.92555e-06
2.7978e-06
2.69098e-06
2.60013e-06
2.52181e-06
2.45366e-06
2.39735e-06
2.35122e-06
2.3132e-06
2.28179e-06
2.25587e-06
2.23453e-06
2.21701e-06
2.20265e-06
2.19083e-06
2.18098e-06
2.17253e-06
2.16495e-06
2.15774e-06
2.15045e-06
2.14269e-06
2.13417e-06
2.12468e-06
2.11475e-06
2.1052e-06
2.09643e-06
2.08945e-06
2.08633e-06
2.09086e-06
2.11058e-06
2.16218e-06
2.28184e-06
2.53395e-06
3.00961e-06
3.82083e-06
5.10121e-06
7.01066e-06
9.73745e-06
1.34959e-05
1.85202e-05
2.50559e-05
3.33487e-05
4.36326e-05
5.61172e-05
7.09747e-05
8.83257e-05
0.000108226
0.000130651
0.000155484
0.000182505
0.000211389
0.000241714
0.000272981
0.000304642
0.000336145
0.000366966
0.000396645
0.000424813
0.000451193
0.000475603
0.000497942
0.00051817
0.000536289
0.000552327
0.000566339
0.000578333
0.000588481
0.000596329
0.000603097
0.000604248
1.95674e-05
1.15597e-05
7.96857e-06
6.10286e-06
5.0176e-06
4.32885e-06
3.86093e-06
3.52536e-06
3.27404e-06
3.07902e-06
2.92317e-06
2.79549e-06
2.68864e-06
2.5976e-06
2.51885e-06
2.44987e-06
2.39224e-06
2.34424e-06
2.30374e-06
2.2692e-06
2.23949e-06
2.21374e-06
2.19125e-06
2.17149e-06
2.15397e-06
2.13833e-06
2.12421e-06
2.11131e-06
2.09939e-06
2.08822e-06
2.07762e-06
2.06745e-06
2.05785e-06
2.05157e-06
2.05366e-06
2.07345e-06
2.1292e-06
2.2612e-06
2.54906e-06
3.11281e-06
4.10116e-06
5.68967e-06
8.08602e-06
1.15307e-05
1.6291e-05
2.26505e-05
3.08944e-05
4.12936e-05
5.40867e-05
6.94615e-05
8.75377e-05
0.00010835
0.000131831
0.000157804
0.000185977
0.000215948
0.000247225
0.000279255
0.000311468
0.000343314
0.000374311
0.000404062
0.000432274
0.00045875
0.000483375
0.000506092
0.000526878
0.00054573
0.000562652
0.00057765
0.000590734
0.000601916
0.000611221
0.000618674
0.000624339
0.000628216
0.000630587
0.000630977
0.000631247
0.000626632
1.95674e-05
1.1556e-05
7.96439e-06
6.09879e-06
5.01373e-06
4.32525e-06
3.8576e-06
3.52226e-06
3.27111e-06
3.07622e-06
2.92047e-06
2.79286e-06
2.68606e-06
2.59504e-06
2.51626e-06
2.44715e-06
2.38927e-06
2.34088e-06
2.29983e-06
2.26459e-06
2.23404e-06
2.20736e-06
2.18395e-06
2.16337e-06
2.14536e-06
2.12979e-06
2.11675e-06
2.10663e-06
2.10026e-06
2.09925e-06
2.10658e-06
2.12784e-06
2.21843e-06
2.46361e-06
3.00517e-06
4.05002e-06
5.83654e-06
8.63087e-06
1.27275e-05
1.8438e-05
2.60726e-05
3.59177e-05
4.8214e-05
6.31352e-05
8.07695e-05
0.000101105
0.000124022
0.000149287
0.00017656
0.000205408
0.000235332
0.000265798
0.000296276
0.000326282
0.000355411
0.000383354
0.000409907
0.00043496
0.000458474
0.000480455
0.000500928
0.000519916
0.000537432
0.00055347
0.000568014
0.000581037
0.00059251
0.000602405
0.000610702
0.000617384
0.000622443
0.000625875
0.00062769
0.000627897
0.000626554
0.000623643
0.000619503
0.000613707
0.000608408
0.000599614
1.95674e-05
1.1552e-05
7.96002e-06
6.09454e-06
5.00966e-06
4.32142e-06
3.85402e-06
3.5189e-06
3.26792e-06
3.07318e-06
2.91757e-06
2.79018e-06
2.68376e-06
2.59345e-06
2.51601e-06
2.4495e-06
2.39627e-06
2.35587e-06
2.32841e-06
2.31603e-06
2.3236e-06
2.35968e-06
2.43801e-06
2.57947e-06
2.815e-06
3.18968e-06
3.76762e-06
4.63672e-06
5.91304e-06
7.74559e-06
1.03221e-05
1.39734e-05
1.9322e-05
2.66889e-05
3.63697e-05
4.85735e-05
6.34105e-05
8.08817e-05
0.000100874
0.00012316
0.000147414
0.000173222
0.000200113
0.000227589
0.000255154
0.000282352
0.000308796
0.000334188
0.000358327
0.000381114
0.00040253
0.000422622
0.00044147
0.000459169
0.000475803
0.000491437
0.000506111
0.000519839
0.000532618
0.000544428
0.000555242
0.000565026
0.000573745
0.000581356
0.000587817
0.000593084
0.000597113
0.000599861
0.000601289
0.00060136
0.000600047
0.000597328
0.000593192
0.000587632
0.000580694
0.000572358
0.000562969
0.000552276
0.000542187
0.000530473
1.95674e-05
1.15477e-05
7.95572e-06
6.09039e-06
5.00578e-06
4.318e-06
3.85141e-06
3.5179e-06
3.27033e-06
3.08278e-06
2.94217e-06
2.84553e-06
2.80105e-06
2.83265e-06
2.9875e-06
3.34648e-06
3.99295e-06
5.02796e-06
6.58241e-06
8.80673e-06
1.18639e-05
1.5924e-05
2.11598e-05
2.77419e-05
3.58337e-05
4.55859e-05
5.71313e-05
7.05803e-05
8.60149e-05
0.000103484
0.000122993
0.000144384
0.000167183
0.000190921
0.000215107
0.000239251
0.00026291
0.000285714
0.000307387
0.000327758
0.000346752
0.00036438
0.000380718
0.000395883
0.000410009
0.000423226
0.000435648
0.000447359
0.00045842
0.000468866
0.000478715
0.000487975
0.000496653
0.000504749
0.000512266
0.000519203
0.000525553
0.000531304
0.000536433
0.000540907
0.000544685
0.000547718
0.000549954
0.000551335
0.000551803
0.000551302
0.000549774
0.000547168
0.000543435
0.00053853
0.000532416
0.000525062
0.000516453
0.000506577
0.00049548
0.000483165
0.000469925
0.000455836
0.000441909
0.000428309
1.95686e-05
1.15465e-05
7.95862e-06
6.10082e-06
5.03212e-06
4.37993e-06
3.99508e-06
3.84703e-06
3.99799e-06
4.59456e-06
5.84751e-06
8.02248e-06
1.14502e-05
1.6507e-05
2.35782e-05
3.30273e-05
4.45557e-05
5.7925e-05
7.29749e-05
8.95072e-05
0.000107295
0.000126092
0.000145637
0.000165669
0.000185933
0.000206191
0.000226237
0.000245895
0.000265035
0.000283567
0.000301441
0.000318565
0.000334345
0.000348832
0.000362105
0.000374275
0.000385456
0.000395755
0.000405255
0.000414014
0.000422072
0.000429458
0.000436196
0.000442315
0.000447848
0.000452838
0.00045733
0.000461373
0.000465011
0.000468281
0.000471214
0.000473827
0.000476128
0.000478112
0.000479767
0.000481072
0.000481997
0.000482508
0.000482564
0.000482121
0.000481129
0.000479535
0.000477286
0.000474326
0.0004706
0.000466057
0.000460645
0.000454317
0.000447031
0.00043875
0.000429446
0.000419101
0.000407711
0.000395287
0.000381886
0.000367569
0.000352529
0.000337234
0.000321298
0.000307107
1.9649e-05
1.17635e-05
8.44622e-06
7.13604e-06
7.17526e-06
8.63132e-06
1.18632e-05
1.72947e-05
2.53428e-05
3.62438e-05
4.99153e-05
6.59944e-05
8.39626e-05
0.000103262
0.000123367
0.000143818
0.00016338
0.000181691
0.000198776
0.000214722
0.000229648
0.000243687
0.00025697
0.000269616
0.000281721
0.00029336
0.000304582
0.00031541
0.000325852
0.000335896
0.000345528
0.00035472
0.000363037
0.000370238
0.000376349
0.000381477
0.000385751
0.0003893
0.000392238
0.000394662
0.000396651
0.000398272
0.000399572
0.00040059
0.00040135
0.000401872
0.000402167
0.000402241
0.000402095
0.000401726
0.000401129
0.000400292
0.000399199
0.000397832
0.000396168
0.00039418
0.000391841
0.000389119
0.000385983
0.000382399
0.000378335
0.000373757
0.00036863
0.000362924
0.000356607
0.000349652
0.000342035
0.000333734
0.000324735
0.00031503
0.000304623
0.000293529
0.000281779
0.00026942
0.000256532
0.000243234
0.000229613
0.000216323
0.000201738
0.000189582
2.3756e-05
2.08068e-05
2.3528e-05
2.94389e-05
3.8228e-05
5.01284e-05
6.51246e-05
8.23611e-05
0.000100312
0.000117452
0.000132843
0.000146288
0.000158126
0.00016892
0.000179214
0.000189398
0.000199156
0.000208459
0.000217327
0.000225726
0.000233616
0.000240973
0.000247794
0.000254098
0.000259911
0.000265268
0.000270207
0.000274758
0.00027895
0.000282803
0.000286338
0.000289552
0.000292285
0.000294548
0.000296518
0.000298288
0.000299884
0.000301304
0.000302535
0.000303561
0.00030437
0.000304956
0.000305305
0.000305404
0.000305238
0.000304791
0.000304049
0.000302994
0.000301612
0.000299889
0.000297811
0.000295367
0.000292549
0.00028935
0.000285765
0.000281793
0.000277434
0.000272689
0.000267564
0.000262063
0.000256195
0.000249968
0.000243392
0.000236479
0.000229243
0.000221698
0.000213861
0.000205756
0.000197412
0.000188857
0.000180129
0.000171271
0.000162336
0.000153376
0.000144469
0.000135648
0.00012705
0.000118563
0.000109884
0.000103607
8.2132e-05
7.88758e-05
7.64846e-05
7.51037e-05
7.45523e-05
7.47666e-05
7.57011e-05
7.73158e-05
7.95202e-05
8.21564e-05
8.50408e-05
8.802e-05
9.09982e-05
9.39332e-05
9.68158e-05
9.9649e-05
0.000102384
0.00010494
0.000107306
0.000109491
0.000111498
0.00011333
0.000114991
0.000116485
0.000117816
0.000118989
0.000120006
0.000120873
0.000121592
0.000122163
0.000122588
0.000122868
0.000122991
0.000122945
0.00012273
0.000122353
0.000121823
0.000121147
0.000120331
0.000119381
0.000118301
0.000117097
0.000115775
0.00011434
0.000112799
0.000111159
0.000109426
0.000107607
0.000105712
0.000103748
0.000101725
9.96504e-05
9.75354e-05
9.53897e-05
9.3224e-05
9.10489e-05
8.88753e-05
8.67141e-05
8.45761e-05
8.24717e-05
8.04111e-05
7.84037e-05
7.64582e-05
7.45826e-05
7.27838e-05
7.10677e-05
6.94393e-05
6.79023e-05
6.64594e-05
6.51125e-05
6.38622e-05
6.27084e-05
6.16494e-05
6.06864e-05
5.98098e-05
5.90456e-05
5.83176e-05
5.78694e-05
5.70447e-05
5.74013e-05
)
;

boundaryField
{
    inlet
    {
        type            fixedValue;
        value           uniform 0;
    }
    outlet
    {
        type            zeroGradient;
    }
    fixedWalls
    {
        type            nutkWallFunction;
        Cmu             0.09;
        kappa           0.41;
        E               9.8;
        value           nonuniform List<scalar> 
160
(
9.29711e-06
8.85655e-06
8.53151e-06
8.3432e-06
8.26788e-06
8.29716e-06
8.42472e-06
8.64464e-06
8.94393e-06
9.3004e-06
9.68875e-06
1.00881e-05
1.04855e-05
1.08756e-05
1.12572e-05
1.16308e-05
1.19901e-05
1.23249e-05
1.2634e-05
1.29185e-05
1.31792e-05
1.34168e-05
1.36317e-05
1.38247e-05
1.39964e-05
1.41474e-05
1.42783e-05
1.43897e-05
1.4482e-05
1.45553e-05
1.46099e-05
1.46458e-05
1.46616e-05
1.46556e-05
1.4628e-05
1.45797e-05
1.45117e-05
1.44249e-05
1.43201e-05
1.41979e-05
1.40588e-05
1.39037e-05
1.3733e-05
1.35475e-05
1.3348e-05
1.31352e-05
1.291e-05
1.26732e-05
1.24259e-05
1.2169e-05
1.19036e-05
1.1631e-05
1.13522e-05
1.10686e-05
1.07815e-05
1.04923e-05
1.02024e-05
9.91325e-06
9.6263e-06
9.34294e-06
9.06457e-06
8.79248e-06
8.52792e-06
8.27202e-06
8.0258e-06
7.79017e-06
7.56587e-06
7.35352e-06
7.1536e-06
6.96645e-06
6.79225e-06
6.63111e-06
6.48285e-06
6.34773e-06
6.22448e-06
6.11684e-06
6.01412e-06
5.9508e-06
5.83411e-06
5.88459e-06
0.000184713
0.000185409
0.000179095
0.000161492
0.000112755
5.86845e-05
5.78042e-05
6.4074e-05
6.7947e-05
6.56119e-05
5.87706e-05
5.43356e-05
5.90852e-05
6.42557e-05
6.9944e-05
7.69723e-05
8.5222e-05
9.41873e-05
0.000103712
0.000113828
0.000124586
0.00013602
0.000148131
0.000160878
0.000174173
0.000187877
0.000201818
0.000215805
0.000229644
0.000243158
0.000256194
0.000268628
0.000280364
0.000291341
0.000301523
0.000310909
0.000319531
0.000327458
0.000334803
0.000341746
0.000348172
0.000353837
0.000358786
0.000363071
0.000366721
0.000369747
0.000372152
0.000373934
0.00037509
0.000375617
0.000375517
0.000374791
0.000373445
0.000371488
0.000368894
0.000365686
0.000361896
0.00035756
0.000352743
0.000347593
0.000342522
0.000337326
0.000331843
0.00032601
0.000319826
0.00031331
0.00030649
0.000299398
0.000292065
0.000284526
0.000276814
0.000268962
0.000261006
0.000252981
0.000244929
0.000236898
0.00022896
0.000221214
0.000213803
0.000207766
)
;
    }
    frontAndBack
    {
        type            empty;
    }
}


// ************************************************************************* //
