/*--------------------------------*- C++ -*----------------------------------*\
| =========                 |                                                 |
| \\      /  F ield         | OpenFOAM: The Open Source CFD Toolbox           |
|  \\    /   O peration     | Version:  v1912                                 |
|   \\  /    A nd           | Website:  www.openfoam.com                      |
|    \\/     M anipulation  |                                                 |
\*---------------------------------------------------------------------------*/
FoamFile
{
    version     2.0;
    format      ascii;
    class       volScalarField;
    location    "200";
    object      p;
}
// * * * * * * * * * * * * * * * * * * * * * * * * * * * * * * * * * * * * * //

dimensions      [0 2 -2 0 0 0 0];


internalField   nonuniform List<scalar> 
2000
(
-0.0169221
0.0997786
0.156103
0.152229
0.139078
0.134057
0.133512
0.134099
0.134053
0.134398
0.134627
0.134552
0.134452
0.134464
0.134535
0.134567
0.134553
0.134521
0.134478
0.134421
0.134343
0.134237
0.134095
0.133908
0.133668
0.133365
0.132996
0.132568
0.1321
0.131628
0.131203
0.130888
0.130749
0.130852
0.131257
0.132003
0.133114
0.134605
0.136491
0.13876
0.141406
0.144453
0.147878
0.151668
0.155815
0.16031
0.165143
0.1703
0.175761
0.181498
0.187479
0.19366
0.199993
0.206421
0.212882
0.219302
0.225603
0.231698
0.237491
0.242886
0.247817
0.252152
0.255813
0.258685
0.260645
0.261572
0.261344
0.259828
0.256883
0.252351
0.246052
0.237777
0.227271
0.214221
0.198193
0.178647
0.154484
0.12506
0.0846508
0.0429912
0.0411956
0.125585
0.163642
0.150944
0.134739
0.13271
0.137593
0.138554
0.13444
0.132342
0.133422
0.134323
0.134359
0.134475
0.134674
0.134678
0.134609
0.134546
0.134516
0.134495
0.134464
0.134412
0.134325
0.134185
0.133967
0.133642
0.133192
0.132614
0.131925
0.131171
0.130424
0.129771
0.129306
0.129118
0.129282
0.129848
0.130843
0.132277
0.134215
0.136641
0.139458
0.142569
0.145992
0.149744
0.153834
0.15826
0.163016
0.168088
0.173455
0.179089
0.184953
0.191003
0.197185
0.203437
0.209688
0.215868
0.221895
0.227681
0.23313
0.23814
0.242593
0.246381
0.249424
0.251609
0.252813
0.252916
0.251789
0.249299
0.245298
0.239622
0.232085
0.22247
0.210516
0.195901
0.178215
0.156947
0.131331
0.100872
0.0630842
0.0287345
0.0889682
0.122406
0.145186
0.144693
0.137382
0.135399
0.136717
0.136082
0.134286
0.134185
0.136432
0.136201
0.134075
0.133393
0.134262
0.134733
0.134772
0.134688
0.134636
0.134621
0.134607
0.134571
0.134502
0.13438
0.134169
0.133837
0.133362
0.132749
0.132027
0.131255
0.130514
0.129893
0.129484
0.129366
0.129601
0.130231
0.131279
0.132722
0.134527
0.136726
0.139313
0.142259
0.145555
0.1492
0.153191
0.157522
0.162182
0.167154
0.172415
0.177933
0.183669
0.189576
0.195597
0.201671
0.207726
0.213683
0.219458
0.224959
0.23009
0.23475
0.238834
0.242243
0.244876
0.246621
0.247361
0.246975
0.24534
0.242322
0.237775
0.231539
0.223431
0.213238
0.200714
0.185561
0.167428
0.145918
0.120511
0.0911673
0.0561851
0.0266217
0.110837
0.121047
0.134555
0.140436
0.139926
0.138863
0.138387
0.13732
0.136088
0.135472
0.1358
0.135814
0.135572
0.135048
0.135008
0.134926
0.1346
0.134486
0.134609
0.134752
0.134824
0.134837
0.134803
0.134707
0.134516
0.134197
0.133732
0.133128
0.132421
0.131668
0.13095
0.130351
0.129957
0.129841
0.130057
0.130637
0.131594
0.13297
0.134741
0.136902
0.139443
0.14235
0.145617
0.149238
0.153209
0.157521
0.162161
0.167109
0.172339
0.177818
0.183503
0.189345
0.195285
0.201258
0.207189
0.213
0.218603
0.223905
0.228811
0.233222
0.237035
0.240149
0.242461
0.243862
0.24424
0.243479
0.241459
0.238049
0.233109
0.226483
0.217994
0.20744
0.194589
0.179175
0.160893
0.139439
0.114432
0.0860553
0.052769
0.0255414
0.120936
0.125254
0.134412
0.140652
0.141782
0.141272
0.14117
0.140975
0.140104
0.138935
0.138044
0.137532
0.137063
0.136203
0.135841
0.135908
0.135799
0.135521
0.135259
0.135091
0.135048
0.13509
0.135142
0.135138
0.135027
0.134777
0.134375
0.133832
0.133186
0.132498
0.131842
0.131301
0.130953
0.130863
0.131081
0.131646
0.132597
0.13395
0.135702
0.137848
0.140377
0.143276
0.146538
0.150157
0.154124
0.158428
0.163054
0.167979
0.173175
0.178604
0.184224
0.18998
0.195815
0.20166
0.207441
0.213076
0.21848
0.223561
0.228225
0.232374
0.235911
0.238736
0.240748
0.241845
0.241919
0.240859
0.238549
0.234864
0.229668
0.22281
0.21412
0.203405
0.190444
0.174992
0.156772
0.135532
0.110937
0.0832987
0.0509407
0.0247355
0.127088
0.129965
0.136274
0.141392
0.143101
0.143296
0.143659
0.143979
0.14367
0.142924
0.142195
0.14151
0.14053
0.139298
0.138471
0.138093
0.137716
0.137267
0.136905
0.136679
0.136529
0.136385
0.136225
0.136052
0.135854
0.135599
0.135253
0.134806
0.134279
0.133718
0.133188
0.132762
0.132504
0.132472
0.132738
0.133349
0.134337
0.135717
0.137488
0.139646
0.142183
0.14509
0.148358
0.151978
0.15594
0.160231
0.164831
0.169717
0.174856
0.18021
0.185733
0.191372
0.197065
0.202744
0.208336
0.213759
0.21893
0.22376
0.228158
0.232031
0.235286
0.237826
0.239558
0.240382
0.240197
0.238897
0.23637
0.232496
0.227143
0.220164
0.211393
0.200643
0.187699
0.172326
0.154259
0.133266
0.109005
0.0818617
0.0499321
0.0240484
0.131326
0.13353
0.138055
0.142242
0.144316
0.145108
0.14578
0.146358
0.146486
0.146239
0.145881
0.14541
0.144639
0.143633
0.142715
0.141952
0.141194
0.140474
0.139905
0.139505
0.139203
0.138932
0.138663
0.138379
0.138054
0.13766
0.137184
0.136644
0.136075
0.135526
0.13505
0.134697
0.13453
0.134616
0.134991
0.135702
0.136776
0.138222
0.140042
0.142237
0.1448
0.147724
0.150999
0.154617
0.158565
0.162827
0.167381
0.172202
0.177255
0.182501
0.187892
0.193374
0.198886
0.204361
0.209726
0.214903
0.219811
0.224366
0.228482
0.232071
0.235045
0.237314
0.238787
0.239371
0.23897
0.237483
0.234801
0.230806
0.225371
0.21835
0.20958
0.198876
0.186026
0.170796
0.152919
0.132166
0.108155
0.0813109
0.0494945
0.0235068
0.134336
0.136178
0.139818
0.143498
0.145756
0.146888
0.147737
0.148471
0.148875
0.148946
0.14885
0.148626
0.148194
0.14756
0.14687
0.146185
0.145465
0.144737
0.144069
0.143495
0.143003
0.142571
0.142179
0.141801
0.141405
0.140959
0.140449
0.139885
0.139297
0.138729
0.138236
0.137876
0.137694
0.137756
0.138122
0.138842
0.13994
0.141422
0.143282
0.145512
0.148102
0.151041
0.154319
0.157922
0.161837
0.166046
0.170527
0.175252
0.180185
0.185286
0.190508
0.195796
0.201092
0.206329
0.211438
0.216345
0.220974
0.225244
0.229076
0.232387
0.235095
0.237114
0.238359
0.238741
0.238168
0.23654
0.233754
0.229694
0.224232
0.217224
0.208508
0.1979
0.185185
0.170129
0.152454
0.131921
0.108095
0.0814046
0.0495021
0.0231295
0.136546
0.138243
0.141508
0.14493
0.147263
0.1486
0.149598
0.150457
0.151029
0.151288
0.151362
0.151315
0.151111
0.150741
0.150293
0.149827
0.149325
0.148784
0.148241
0.147727
0.147245
0.146784
0.146331
0.145877
0.145407
0.144911
0.144383
0.143834
0.143287
0.142778
0.142354
0.142067
0.141977
0.142109
0.142521
0.143237
0.144293
0.145713
0.147503
0.149661
0.152181
0.155051
0.158257
0.161784
0.165613
0.169722
0.174085
0.178672
0.183446
0.188366
0.193384
0.198449
0.203501
0.208481
0.21332
0.21795
0.222299
0.226292
0.229855
0.232909
0.235377
0.237178
0.23823
0.238448
0.237742
0.236015
0.233164
0.229076
0.223622
0.216661
0.20803
0.197542
0.184983
0.170112
0.152636
0.132304
0.108617
0.0819826
0.0498775
0.0229236
0.13821
0.13989
0.143041
0.146341
0.148698
0.150181
0.151328
0.152309
0.15301
0.153405
0.153604
0.153675
0.153606
0.153396
0.153111
0.152808
0.152478
0.15211
0.151729
0.151359
0.151
0.15064
0.150265
0.14987
0.149446
0.14899
0.148503
0.148
0.147506
0.147058
0.146702
0.146487
0.146464
0.146676
0.147159
0.147944
0.149047
0.150483
0.15226
0.154379
0.156833
0.159615
0.162713
0.166113
0.169797
0.173746
0.177933
0.182327
0.186893
0.19159
0.196371
0.201187
0.205982
0.210697
0.215268
0.219631
0.223717
0.227456
0.230777
0.233605
0.235867
0.237484
0.238378
0.238464
0.237655
0.235856
0.232965
0.228869
0.223442
0.216541
0.208004
0.197644
0.185243
0.170555
0.153274
0.133127
0.109561
0.0829299
0.0505766
0.0229071
0.13947
0.141215
0.144413
0.147678
0.15004
0.151631
0.152911
0.154004
0.154812
0.155325
0.155634
0.155801
0.155832
0.155731
0.155554
0.15535
0.155122
0.154863
0.154592
0.154328
0.154068
0.153801
0.153517
0.153209
0.152872
0.152504
0.15211
0.151705
0.151316
0.150977
0.150729
0.150616
0.150683
0.150966
0.151483
0.152286
0.153397
0.154824
0.156574
0.15865
0.161047
0.163757
0.166767
0.170065
0.17363
0.177442
0.181475
0.185699
0.19008
0.194577
0.199147
0.203743
0.20831
0.212794
0.217135
0.221271
0.225136
0.228663
0.231783
0.234426
0.236519
0.237986
0.238751
0.23873
0.237838
0.235982
0.233061
0.228962
0.223562
0.216719
0.20827
0.198029
0.185776
0.17126
0.154164
0.134195
0.110747
0.084117
0.0515348
0.0231294
0.140414
0.142295
0.145653
0.148932
0.151284
0.152956
0.154352
0.155538
0.156436
0.157049
0.157454
0.157711
0.15783
0.157821
0.157731
0.157602
0.157445
0.15726
0.15706
0.156859
0.156659
0.156449
0.156222
0.15597
0.155692
0.155387
0.155063
0.154734
0.154427
0.154173
0.154011
0.15398
0.154119
0.154459
0.155022
0.155859
0.156992
0.158426
0.160167
0.162217
0.164573
0.167225
0.170163
0.173374
0.176839
0.180539
0.184447
0.188535
0.19277
0.197112
0.201521
0.205949
0.210345
0.214655
0.218822
0.222784
0.22648
0.229844
0.232809
0.235306
0.237265
0.238612
0.239271
0.239162
0.238201
0.236295
0.233345
0.229241
0.223859
0.217058
0.208678
0.19853
0.186396
0.17202
0.155077
0.135257
0.111908
0.0852779
0.0524704
0.023481
0.141104
0.143192
0.146786
0.150093
0.152421
0.154161
0.155656
0.156921
0.157892
0.158587
0.159076
0.159412
0.159609
0.159683
0.15967
0.159611
0.159519
0.159395
0.159252
0.1591
0.158943
0.158773
0.158583
0.158368
0.158128
0.157864
0.157585
0.157306
0.157053
0.156856
0.156751
0.156774
0.156963
0.157345
0.157951
0.158816
0.159962
0.161399
0.163131
0.16516
0.167484
0.170095
0.172983
0.176135
0.179531
0.183153
0.186975
0.190967
0.195097
0.199327
0.203616
0.207918
0.212183
0.216358
0.220388
0.224213
0.227773
0.231005
0.233842
0.23622
0.238067
0.239314
0.239884
0.239701
0.23868
0.236731
0.233755
0.229643
0.224271
0.217501
0.209171
0.199094
0.187049
0.172778
0.155947
0.136235
0.112938
0.0862833
0.0531813
0.0237771
0.141587
0.143955
0.14783
0.151155
0.153451
0.155251
0.156833
0.158163
0.159194
0.159957
0.160518
0.160921
0.161186
0.16133
0.161386
0.161391
0.161358
0.161292
0.161201
0.161095
0.160977
0.160843
0.160686
0.160503
0.160294
0.160062
0.159818
0.159578
0.159366
0.159211
0.159148
0.159213
0.159439
0.159855
0.160494
0.161379
0.162534
0.163972
0.165697
0.16771
0.170011
0.17259
0.175439
0.178542
0.181884
0.185442
0.189191
0.193105
0.197148
0.201285
0.205475
0.209672
0.213829
0.217893
0.221811
0.225524
0.228973
0.232096
0.234831
0.237111
0.23887
0.240036
0.240536
0.240294
0.239226
0.237244
0.23425
0.230134
0.224775
0.218034
0.209749
0.199734
0.187765
0.173583
0.156843
0.137218
0.113954
0.0872729
0.0538195
0.0241262
0.141897
0.144624
0.148799
0.152116
0.154377
0.156235
0.157892
0.159275
0.160355
0.161177
0.161797
0.162259
0.162582
0.162785
0.1629
0.162961
0.162982
0.162968
0.162924
0.16286
0.16278
0.162679
0.162554
0.1624
0.16222
0.162018
0.161804
0.161596
0.161418
0.161298
0.161269
0.161367
0.161623
0.162065
0.162725
0.163623
0.164785
0.166222
0.167939
0.169938
0.172216
0.174767
0.17758
0.180642
0.183935
0.187438
0.191127
0.194973
0.198944
0.203004
0.207111
0.211223
0.215291
0.219264
0.22309
0.226712
0.230072
0.233109
0.235762
0.237965
0.239652
0.240754
0.241199
0.240911
0.239807
0.237801
0.234794
0.23068
0.225336
0.218623
0.210381
0.200424
0.188525
0.174424
0.157771
0.138232
0.115009
0.0883378
0.0545232
0.0246862
0.142064
0.145229
0.149697
0.152978
0.155208
0.157122
0.158841
0.160267
0.16139
0.162261
0.162933
0.163444
0.163816
0.16407
0.164236
0.164346
0.164414
0.164444
0.164442
0.164416
0.16437
0.1643
0.164202
0.164076
0.163922
0.163746
0.163559
0.163379
0.163229
0.163137
0.163137
0.16326
0.16354
0.164002
0.164676
0.165585
0.16675
0.168184
0.169893
0.171878
0.174137
0.176662
0.179444
0.18247
0.185721
0.189178
0.192815
0.196605
0.200516
0.204511
0.20855
0.212591
0.216587
0.220488
0.22424
0.227789
0.231076
0.234043
0.236628
0.238768
0.240396
0.241445
0.241844
0.241517
0.240384
0.238357
0.235342
0.23123
0.225901
0.219217
0.211016
0.201112
0.18928
0.175258
0.15869
0.139244
0.116076
0.0894615
0.0553112
0.0254567
0.142115
0.145795
0.150528
0.153745
0.155951
0.157919
0.159689
0.161151
0.16231
0.163223
0.163939
0.164492
0.164907
0.165205
0.165415
0.165567
0.165676
0.165745
0.16578
0.165787
0.16577
0.165727
0.165655
0.165552
0.165421
0.165268
0.165104
0.164947
0.164821
0.164753
0.164775
0.164919
0.165218
0.165695
0.16638
0.167296
0.168463
0.169894
0.171594
0.173566
0.175806
0.178309
0.181064
0.184058
0.187274
0.190691
0.194286
0.198029
0.20189
0.205833
0.209818
0.213803
0.21774
0.22158
0.225271
0.228758
0.231983
0.234889
0.237414
0.239497
0.241072
0.242074
0.242431
0.242071
0.240914
0.238874
0.235855
0.231751
0.226441
0.219788
0.21163
0.201781
0.190015
0.176072
0.159589
0.14024
0.117138
0.0906161
0.0561724
0.0263642
0.14207
0.146339
0.151291
0.154424
0.156617
0.158635
0.160446
0.161936
0.163128
0.164077
0.16483
0.16542
0.165871
0.166207
0.166455
0.166644
0.166788
0.166892
0.166959
0.166995
0.167004
0.166985
0.166936
0.166854
0.166743
0.166609
0.166464
0.166327
0.166219
0.16617
0.166209
0.16637
0.166685
0.167172
0.167865
0.168786
0.169953
0.171381
0.173074
0.175034
0.177259
0.179743
0.182475
0.185443
0.18863
0.192016
0.195575
0.199281
0.203101
0.206999
0.210937
0.21487
0.218753
0.222537
0.226169
0.229596
0.232763
0.235611
0.238082
0.240115
0.241646
0.242609
0.242937
0.242555
0.241384
0.239339
0.236325
0.232236
0.22695
0.220331
0.212217
0.202423
0.190722
0.176854
0.160453
0.141201
0.118174
0.0917663
0.0570847
0.0273396
0.14195
0.146871
0.151984
0.155022
0.157212
0.159276
0.161119
0.162633
0.163851
0.164832
0.165617
0.166238
0.166722
0.167091
0.167372
0.167593
0.167769
0.167903
0.167997
0.168058
0.168091
0.168093
0.168063
0.168
0.167907
0.16779
0.167662
0.167541
0.16745
0.167417
0.167471
0.167645
0.167972
0.168467
0.169165
0.170088
0.171255
0.172678
0.174364
0.176315
0.178528
0.180997
0.183711
0.186657
0.189819
0.193174
0.196699
0.200366
0.204142
0.207994
0.211881
0.215761
0.21959
0.223319
0.226898
0.230274
0.233391
0.236194
0.238624
0.240621
0.242121
0.24306
0.243369
0.242975
0.2418
0.239758
0.236754
0.232682
0.227423
0.220838
0.212768
0.203027
0.191388
0.177592
0.161272
0.142115
0.119165
0.0928836
0.0580278
0.0283343
0.141773
0.147397
0.152609
0.155548
0.157744
0.159847
0.161719
0.163255
0.164497
0.165504
0.166315
0.166963
0.167474
0.16787
0.16818
0.168429
0.168633
0.168794
0.168913
0.168996
0.169049
0.16907
0.169057
0.169009
0.16893
0.168827
0.168714
0.168606
0.168528
0.168508
0.168574
0.168758
0.169097
0.169603
0.170307
0.171234
0.1724
0.173819
0.175497
0.177435
0.179631
0.182078
0.184766
0.187683
0.19081
0.194128
0.197614
0.201239
0.204973
0.208781
0.212624
0.216461
0.220247
0.223934
0.227473
0.23081
0.233892
0.236663
0.239063
0.241035
0.242514
0.243437
0.243736
0.243337
0.242163
0.240128
0.237138
0.233087
0.227856
0.221306
0.213279
0.203589
0.192009
0.178282
0.162038
0.142971
0.120103
0.0939496
0.0589851
0.0293188
0.141552
0.147918
0.153165
0.156017
0.158221
0.160351
0.162242
0.163797
0.165062
0.166094
0.166931
0.167603
0.168138
0.168558
0.168892
0.169165
0.169393
0.169577
0.169718
0.169821
0.169893
0.169932
0.169935
0.169903
0.169838
0.169748
0.169646
0.16955
0.169482
0.169471
0.169546
0.169737
0.170069
0.170576
0.171277
0.172196
0.173351
0.174756
0.176416
0.178335
0.180508
0.182931
0.185593
0.188482
0.19158
0.194869
0.198323
0.201917
0.205618
0.209393
0.213202
0.217006
0.220759
0.224414
0.227922
0.231231
0.234286
0.237033
0.239413
0.241367
0.242834
0.243748
0.244043
0.243645
0.242477
0.240453
0.23748
0.233452
0.228249
0.221735
0.213749
0.204107
0.192583
0.178921
0.162748
0.143767
0.12098
0.0949523
0.0599402
0.0302764
0.141304
0.148434
0.153639
0.156432
0.158665
0.16082
0.162722
0.164287
0.165566
0.166615
0.167471
0.168165
0.168722
0.169166
0.169523
0.169818
0.170066
0.170269
0.170427
0.170544
0.170628
0.170676
0.170687
0.17066
0.1706
0.170515
0.170415
0.170321
0.170254
0.170242
0.170315
0.170502
0.170828
0.171331
0.172027
0.172937
0.174082
0.175476
0.177124
0.179028
0.181185
0.18359
0.186233
0.189101
0.192177
0.195442
0.198872
0.202439
0.206114
0.209862
0.213645
0.217423
0.22115
0.224781
0.228266
0.231554
0.23459
0.237321
0.239687
0.241631
0.243091
0.244002
0.244297
0.243904
0.242745
0.240736
0.237781
0.233776
0.228602
0.222121
0.214176
0.204579
0.193108
0.179505
0.163399
0.144497
0.121789
0.0958794
0.0608706
0.0311918
0.141038
0.148974
0.154029
0.156749
0.15902
0.161212
0.16314
0.164726
0.166021
0.167085
0.167954
0.168658
0.169225
0.169678
0.170043
0.170348
0.170605
0.170816
0.170981
0.171104
0.171191
0.171243
0.171256
0.171231
0.171173
0.171088
0.17099
0.170897
0.170831
0.17082
0.170895
0.171085
0.171409
0.171909
0.1726
0.173504
0.174642
0.176027
0.177665
0.179557
0.181701
0.184091
0.186718
0.189569
0.192627
0.195872
0.199282
0.20283
0.206484
0.210212
0.213975
0.217732
0.221441
0.225054
0.228523
0.231796
0.23482
0.23754
0.239898
0.241837
0.243294
0.244206
0.244506
0.24412
0.242972
0.240977
0.238041
0.234059
0.228912
0.222463
0.214554
0.204999
0.193575
0.180025
0.16398
0.145149
0.122515
0.0967131
0.0617389
0.0320447
0.140712
0.149607
0.154504
0.157103
0.159354
0.161539
0.163464
0.165052
0.166352
0.167421
0.168296
0.169005
0.169577
0.170035
0.170406
0.170716
0.17098
0.171196
0.171365
0.171492
0.171584
0.17164
0.171657
0.171635
0.171579
0.171497
0.171401
0.171308
0.171243
0.171232
0.171304
0.171494
0.171818
0.17232
0.173009
0.173909
0.175043
0.176422
0.178052
0.179936
0.182071
0.184451
0.187067
0.189906
0.192951
0.196182
0.199578
0.203111
0.206751
0.210463
0.214212
0.217956
0.221651
0.225253
0.228711
0.231975
0.234991
0.237706
0.240062
0.242
0.243459
0.244375
0.244682
0.244306
0.24317
0.24119
0.238272
0.234313
0.229192
0.222773
0.214896
0.205379
0.193996
0.180494
0.1645
0.14573
0.123161
0.0974571
0.0625336
0.0328599
0.140004
0.149777
0.154781
0.157391
0.159648
0.161823
0.16373
0.165309
0.166607
0.167679
0.16856
0.169277
0.169858
0.170326
0.170707
0.171026
0.171301
0.171528
0.171706
0.171842
0.171941
0.172003
0.172027
0.172011
0.171961
0.171883
0.171791
0.171703
0.171641
0.171632
0.171707
0.171899
0.172226
0.172726
0.173411
0.174305
0.175431
0.176802
0.178422
0.180294
0.182414
0.184781
0.187382
0.190205
0.193234
0.19645
0.199829
0.203346
0.206969
0.210667
0.214401
0.218131
0.221815
0.225405
0.228854
0.232112
0.235124
0.237836
0.240193
0.242134
0.243599
0.244525
0.244843
0.244483
0.243367
0.241409
0.238515
0.234583
0.229493
0.223109
0.215272
0.205799
0.194465
0.181018
0.165085
0.146388
0.123894
0.098312
0.0634539
0.0339186
)
;

boundaryField
{
    inlet
    {
        type            zeroGradient;
    }
    outlet
    {
        type            fixedValue;
        value           uniform 0;
    }
    fixedWalls
    {
        type            zeroGradient;
    }
    frontAndBack
    {
        type            empty;
    }
}


// ************************************************************************* //
