/*--------------------------------*- C++ -*----------------------------------*\
| =========                 |                                                 |
| \\      /  F ield         | OpenFOAM: The Open Source CFD Toolbox           |
|  \\    /   O peration     | Version:  v1912                                 |
|   \\  /    A nd           | Website:  www.openfoam.com                      |
|    \\/     M anipulation  |                                                 |
\*---------------------------------------------------------------------------*/
FoamFile
{
    version     2.0;
    format      ascii;
    class       volVectorField;
    location    "200";
    object      U;
}
// * * * * * * * * * * * * * * * * * * * * * * * * * * * * * * * * * * * * * //

dimensions      [0 1 -1 0 0 0 0];


internalField   nonuniform List<vector> 
2000
(
(0.843124 0.195894 0)
(0.511694 0.132652 0)
(0.222178 0.0718674 0)
(0.0611308 0.0151952 7.36621e-20)
(-0.00472306 -0.030814 1.61492e-17)
(-0.0578422 -0.0466256 1.46123e-17)
(-0.0677102 -0.0370031 0)
(-0.0630646 -0.00535459 0)
(-0.0519182 0.0271972 0)
(-0.0492996 0.024242 3.23168e-17)
(-0.0421233 0.0127359 -2.00319e-17)
(-0.0370471 0.00774499 -1.8655e-17)
(-0.0427924 0.00599744 0)
(-0.0473854 0.00555765 0)
(-0.048465 0.00585954 -1.44389e-17)
(-0.0490091 0.00725418 0)
(-0.0510708 0.00817276 1.28132e-17)
(-0.054124 0.00861246 -1.21529e-21)
(-0.0575357 0.0088759 1.22173e-17)
(-0.0612437 0.00927358 -5.98024e-18)
(-0.0654389 0.00989536 1.17343e-17)
(-0.0703365 0.0107575 0)
(-0.0761306 0.0118582 0)
(-0.0829952 0.0131649 6.10057e-21)
(-0.0910635 0.014595 0)
(-0.100389 0.016012 -5.36347e-18)
(-0.110918 0.0172451 0)
(-0.122474 0.018121 5.15941e-18)
(-0.134767 0.0184933 0)
(-0.147415 0.0182575 0)
(-0.159998 0.0173671 0)
(-0.172107 0.0158374 1.20333e-18)
(-0.183378 0.0137344 0)
(-0.193514 0.0111593 -5.91217e-19)
(-0.202298 0.00822954 1.96787e-14)
(-0.209598 0.00506562 1.95533e-14)
(-0.215354 0.00178044 6.03749e-19)
(-0.219529 -0.00152809 -6.07408e-19)
(-0.222079 -0.00476347 0)
(-0.223031 -0.00778527 2.55674e-18)
(-0.222767 -0.0105017 0)
(-0.221587 -0.0129378 -2.73192e-18)
(-0.21941 -0.0152093 0)
(-0.216249 -0.0173677 -5.89057e-18)
(-0.212082 -0.0194282 3.09072e-18)
(-0.206877 -0.0213883 0)
(-0.200597 -0.0232361 0)
(-0.193206 -0.0249541 -3.60837e-18)
(-0.184665 -0.0265217 0)
(-0.174942 -0.0279162 4.03533e-18)
(-0.164009 -0.0291136 0)
(-0.151843 -0.0300884 9.25782e-18)
(-0.138427 -0.0308133 -9.9186e-18)
(-0.123745 -0.0312622 1.06523e-17)
(-0.107782 -0.0314171 -5.68769e-18)
(-0.0905334 -0.0312658 0)
(-0.0719967 -0.0307907 6.62965e-18)
(-0.0521801 -0.0299745 -7.18003e-18)
(-0.0311316 -0.0287953 -1.57376e-17)
(-0.00895787 -0.027203 1.68822e-17)
(0.0144018 -0.025099 -1.76408e-17)
(0.0391212 -0.0224857 1.77904e-17)
(0.0649903 -0.0193753 -1.78859e-17)
(0.0920473 -0.0157763 1.81882e-17)
(0.12031 -0.0116918 -2.90305e-19)
(0.149774 -0.00712038 1.78099e-17)
(0.180439 -0.00205816 0)
(0.212324 0.00350018 0)
(0.245469 0.00956087 4.19281e-19)
(0.279935 0.0161311 0)
(0.315809 0.0232191 1.66365e-17)
(0.353219 0.030834 0)
(0.392334 0.038982 1.5299e-17)
(0.433434 0.0476694 -6.54295e-19)
(0.476762 0.0568628 1.33177e-17)
(0.523341 0.0665595 2.32229e-17)
(0.572337 0.0764032 8.25113e-19)
(0.631689 0.0864117 -8.36635e-18)
(0.680572 0.0946977 -5.62291e-18)
(0.800319 0.0970146 0)
(1.01525 0.211455 0)
(0.942826 0.196059 0)
(0.799522 0.180995 -4.45288e-18)
(0.646024 0.151799 9.39992e-18)
(0.497047 0.108994 0)
(0.345476 0.0652247 -1.03287e-17)
(0.198248 0.024264 0)
(0.0581709 -0.00898563 0)
(-0.0262465 -0.0142212 0)
(-0.034613 -0.0242328 -2.38731e-17)
(-0.0513484 -0.0183278 2.21162e-17)
(-0.0489845 0.0064249 2.05775e-17)
(-0.0441476 0.0222284 0)
(-0.0455154 0.0182337 8.60503e-18)
(-0.047001 0.0110901 0)
(-0.0497339 0.0103678 0)
(-0.0537038 0.0118077 0)
(-0.0577258 0.0129984 6.7985e-18)
(-0.061557 0.0138597 -1.32345e-17)
(-0.0653682 0.0148406 -6.45111e-18)
(-0.0693842 0.0161524 0)
(-0.0736806 0.017802 0)
(-0.0782511 0.0197551 0)
(-0.0830737 0.021965 -8.85492e-18)
(-0.0881149 0.0243163 0)
(-0.0933036 0.0266063 5.66306e-18)
(-0.0985087 0.0285766 2.7789e-18)
(-0.10354 0.0299682 0)
(-0.108176 0.030573 0)
(-0.112207 0.030266 0)
(-0.115462 0.0290179 0)
(-0.117828 0.0268899 -6.38332e-19)
(-0.119255 0.0240121 0)
(-0.119757 0.020556 3.14212e-19)
(-0.119399 0.016706 1.55917e-19)
(-0.118291 0.0126362 0)
(-0.116599 0.00850372 0)
(-0.114521 0.00444979 6.37524e-19)
(-0.112129 0.000552174 0)
(-0.109607 -0.00316868 -1.32231e-18)
(-0.10678 -0.00668031 0)
(-0.103257 -0.0100134 -1.38434e-18)
(-0.0990663 -0.0132675 0)
(-0.0941403 -0.0164918 1.5048e-18)
(-0.0884054 -0.0197019 1.53991e-18)
(-0.0818011 -0.0228905 0)
(-0.0742778 -0.0260364 0)
(-0.0657934 -0.02911 -3.52584e-18)
(-0.0563119 -0.0320766 0)
(-0.0458028 -0.0348983 -3.82219e-20)
(-0.0342403 -0.0375358 0)
(-0.021603 -0.0399496 0)
(-0.00787464 -0.0420996 0)
(0.00695581 -0.0439399 0)
(0.022886 -0.0454296 1.00961e-17)
(0.0399097 -0.0465339 0)
(0.0580276 -0.0472159 -1.06806e-17)
(0.0772366 -0.0474412 5.52132e-18)
(0.0975335 -0.0471794 -5.57254e-18)
(0.118919 -0.0464066 -1.15856e-17)
(0.141384 -0.0450931 1.1832e-17)
(0.164887 -0.0432258 -1.20561e-17)
(0.189384 -0.0407745 1.22556e-17)
(0.214891 -0.0377305 0)
(0.241426 -0.0340929 -1.86771e-17)
(0.269006 -0.0298636 -1.26502e-17)
(0.297655 -0.0250468 0)
(0.327412 -0.0196495 6.12445e-18)
(0.358334 -0.0136813 1.26016e-17)
(0.390499 -0.00715427 0)
(0.424014 -8.44001e-05 0)
(0.459017 0.00750613 0)
(0.495692 0.0155813 0)
(0.534278 0.0240832 -1.07897e-17)
(0.575079 0.0328831 4.60142e-18)
(0.618575 0.0418036 -9.01662e-18)
(0.664946 0.0501938 7.75437e-18)
(0.716388 0.0577289 -2.63581e-18)
(0.764653 0.0609574 0)
(0.845275 0.0553516 0)
(0.978937 0.202903 0)
(0.979956 0.1965 -3.67329e-18)
(0.969218 0.209705 4.39308e-18)
(0.935919 0.213212 -3.93508e-18)
(0.869979 0.198603 3.82244e-18)
(0.771588 0.171835 3.87359e-18)
(0.649172 0.139791 0)
(0.514351 0.105394 0)
(0.376429 0.0711108 0)
(0.254329 0.0381085 9.8945e-18)
(0.138943 0.0089591 0)
(0.0395303 -0.00757076 0)
(9.1444e-05 -0.000726833 0)
(-0.00420671 -0.00117695 -9.93676e-18)
(-0.0146146 0.00143406 0)
(-0.0189076 0.0104045 -8.479e-18)
(-0.0223289 0.0161252 0)
(-0.0262488 0.0170168 7.81469e-18)
(-0.030017 0.0164168 3.79431e-18)
(-0.0332288 0.0165072 0)
(-0.0358031 0.0174831 -3.60336e-18)
(-0.037805 0.0189435 0)
(-0.0392145 0.0206827 0)
(-0.0400006 0.0226224 6.73094e-18)
(-0.0401719 0.0246516 0)
(-0.0397703 0.0265658 1.61861e-18)
(-0.0388522 0.0280967 -4.75692e-18)
(-0.0374807 0.0289762 0)
(-0.0357277 0.028995 0)
(-0.0336754 0.0280444 -7.51958e-19)
(-0.0314081 0.0261264 0)
(-0.0289993 0.0233395 1.68679e-21)
(-0.0265023 0.0198509 0)
(-0.0239441 0.0158643 7.15951e-19)
(-0.0213261 0.0115932 8.93474e-20)
(-0.0186113 0.00722908 0)
(-0.0157095 0.00292102 1.80225e-19)
(-0.0125485 -0.00123214 -3.63974e-19)
(-0.00903386 -0.00510728 -3.68621e-19)
(-0.00513369 -0.0087423 -7.49932e-19)
(-0.000676298 -0.0122923 7.65252e-19)
(0.00446965 -0.0159 7.81239e-19)
(0.0103167 -0.0196016 0)
(0.0168786 -0.0233973 1.62776e-18)
(0.0241765 -0.0272709 -3.3312e-18)
(0.0322329 -0.0311953 0)
(0.0410699 -0.0351362 -1.75367e-18)
(0.0507087 -0.0390543 3.61832e-18)
(0.0611682 -0.0429064 0)
(0.0724654 -0.0466471 -1.92838e-18)
(0.0846142 -0.0502288 1.9755e-18)
(0.0976252 -0.0536037 -2.03808e-18)
(0.111505 -0.056724 -2.10268e-18)
(0.126257 -0.0595422 0)
(0.141882 -0.062011 -4.49747e-18)
(0.158375 -0.0640834 -2.30293e-18)
(0.175732 -0.0657164 2.40414e-18)
(0.193948 -0.0668716 2.43491e-18)
(0.213018 -0.0675176 5.04189e-18)
(0.232937 -0.0676321 0)
(0.253699 -0.0672041 0)
(0.275292 -0.0662232 0)
(0.297712 -0.0646695 -2.70906e-18)
(0.320974 -0.062534 0)
(0.345105 -0.0598197 5.64315e-18)
(0.370137 -0.0565373 0)
(0.396113 -0.0527026 -2.79661e-18)
(0.423096 -0.048337 -5.70359e-18)
(0.451162 -0.0434665 0)
(0.480411 -0.0381228 -2.7167e-18)
(0.510967 -0.0323447 2.64934e-18)
(0.54298 -0.0261811 0)
(0.576633 -0.0196995 0)
(0.612146 -0.012999 0)
(0.649758 -0.00623903 -4.36191e-18)
(0.689794 0.000318589 0)
(0.732247 0.00619458 -1.52224e-18)
(0.778387 0.0107174 2.51639e-18)
(0.821615 0.0123977 0)
(0.888693 0.00846691 3.77934e-19)
(0.970709 0.210798 0)
(0.964257 0.199169 2.07018e-18)
(0.966631 0.204805 0)
(0.976262 0.213728 2.18097e-18)
(0.978819 0.216553 -3.96127e-18)
(0.961445 0.211966 -1.84052e-18)
(0.919063 0.201103 0)
(0.853311 0.183867 0)
(0.765675 0.159627 0)
(0.661623 0.131219 1.90106e-18)
(0.547841 0.10241 1.97384e-18)
(0.430134 0.0744098 0)
(0.317228 0.0489948 0)
(0.221131 0.0270866 0)
(0.142387 0.0124518 0)
(0.0868055 0.00651615 8.66121e-18)
(0.059404 0.00709499 -4.30599e-18)
(0.0481831 0.00972164 0)
(0.0415144 0.0123683 -4.17772e-18)
(0.0363424 0.0148348 2.05812e-18)
(0.0325117 0.0167531 4.03605e-18)
(0.0300995 0.0179791 0)
(0.0291355 0.018853 0)
(0.0295481 0.0197453 -3.79795e-18)
(0.0312349 0.0207769 0)
(0.0340653 0.0218386 -1.81194e-18)
(0.0378656 0.0227036 1.76681e-18)
(0.0424206 0.0231252 0)
(0.0474927 0.0229033 0)
(0.0528502 0.0219208 8.17715e-19)
(0.0582943 0.0201537 0)
(0.063681 0.0176565 -7.81438e-19)
(0.0689277 0.0145412 0)
(0.0740137 0.0109479 -1.87966e-19)
(0.0789658 0.00702496 -9.36324e-20)
(0.0838733 0.00290269 -2.34197e-20)
(0.0888251 -0.00131039 -2.79223e-19)
(0.0939793 -0.00555724 3.71539e-19)
(0.0995027 -0.00982238 3.72787e-19)
(0.105469 -0.014077 1.12831e-18)
(0.111961 -0.0183381 -3.78247e-19)
(0.119036 -0.0226563 3.83786e-19)
(0.126713 -0.0270622 0)
(0.134994 -0.0315622 8.02144e-19)
(0.143879 -0.0361461 8.14695e-19)
(0.15337 -0.0407906 0)
(0.163468 -0.0454634 1.71938e-18)
(0.174176 -0.0501251 8.86368e-19)
(0.185496 -0.0547314 0)
(0.197431 -0.0592341 -2.81772e-18)
(0.209982 -0.0635823 -1.93714e-18)
(0.223146 -0.0677238 9.98886e-19)
(0.236923 -0.0716057 2.06596e-18)
(0.251306 -0.0751752 0)
(0.266291 -0.0783813 1.10117e-18)
(0.281872 -0.0811756 3.40989e-18)
(0.298044 -0.0835142 2.34519e-18)
(0.3148 -0.0853588 -2.4156e-18)
(0.33214 -0.0866779 -1.23735e-18)
(0.350064 -0.0874487 0)
(0.368575 -0.0876566 0)
(0.387681 -0.0872921 0)
(0.4074 -0.0863489 4.07623e-18)
(0.427761 -0.0848301 1.3718e-18)
(0.448807 -0.0827484 0)
(0.470592 -0.0801247 -2.79721e-18)
(0.493187 -0.0769865 2.84516e-18)
(0.516674 -0.0733673 -2.7994e-18)
(0.541157 -0.0693063 -2.77551e-18)
(0.566757 -0.0648487 5.25664e-20)
(0.593616 -0.0600467 -2.72022e-18)
(0.621899 -0.0549629 0)
(0.651791 -0.0496753 0)
(0.683497 -0.0442893 0)
(0.717218 -0.0389531 0)
(0.753201 -0.0338948 0)
(0.791314 -0.0294406 3.08535e-18)
(0.832641 -0.0261192 -1.15102e-18)
(0.870921 -0.024508 0)
(0.930377 -0.026108 -3.91531e-19)
(0.972919 0.21779 0)
(0.965116 0.20638 2.41036e-18)
(0.957351 0.202157 3.13347e-19)
(0.958491 0.20329 2.44296e-18)
(0.968839 0.206094 0)
(0.980947 0.208572 -2.13824e-18)
(0.986625 0.209216 0)
(0.980296 0.206198 -4.87948e-19)
(0.958009 0.198055 0)
(0.917112 0.184733 -2.22002e-18)
(0.858159 0.167627 -1.74153e-18)
(0.783684 0.147345 -4.4361e-19)
(0.695921 0.1242 4.45175e-19)
(0.600631 0.0999421 0)
(0.503371 0.0768121 4.54875e-19)
(0.40941 0.0562084 0)
(0.327422 0.0393529 3.75976e-18)
(0.263294 0.0271973 -4.89717e-19)
(0.217213 0.0197434 0)
(0.186598 0.0160981 -2.48772e-18)
(0.167434 0.0148759 0)
(0.155783 0.0148806 0)
(0.148846 0.0153795 0)
(0.145046 0.0159894 0)
(0.143627 0.0165099 -2.36485e-19)
(0.144225 0.0168326 0)
(0.146566 0.0168826 0)
(0.150356 0.0165801 1.11291e-19)
(0.155268 0.0158358 0)
(0.160976 0.0145716 0)
(0.167191 0.0127435 0)
(0.173682 0.0103504 -5.11272e-20)
(0.180284 0.0074346 0)
(0.186895 0.00405151 -2.21326e-19)
(0.193495 0.000267545 0)
(0.200132 -0.00381288 2.40837e-20)
(0.206896 -0.00811505 1.19887e-19)
(0.213866 -0.0125683 2.41264e-20)
(0.221129 -0.0171423 -4.8345e-20)
(0.228752 -0.0218125 -3.85084e-19)
(0.236791 -0.0265682 -3.88792e-19)
(0.24528 -0.0314147 3.93844e-19)
(0.254232 -0.0363557 -1.01006e-19)
(0.263643 -0.0413861 -8.15614e-19)
(0.273503 -0.0464904 8.33332e-19)
(0.283801 -0.051644 -1.07621e-19)
(0.294523 -0.0568142 0)
(0.305657 -0.0619618 -9.00981e-19)
(0.317191 -0.067042 0)
(0.329113 -0.0720059 9.57476e-19)
(0.341412 -0.0768015 0)
(0.354075 -0.0813751 1.022e-18)
(0.367091 -0.0856727 0)
(0.380448 -0.0896407 -2.74294e-19)
(0.394136 -0.093228 -1.13034e-18)
(0.408148 -0.0963872 -1.16843e-18)
(0.422478 -0.0990764 3.01977e-19)
(0.437125 -0.10126 0)
(0.452094 -0.102911 1.28325e-18)
(0.467395 -0.104011 -3.29202e-19)
(0.483047 -0.10455 0)
(0.499075 -0.104526 3.45384e-19)
(0.515519 -0.103946 -1.41804e-18)
(0.532429 -0.102823 -1.44407e-18)
(0.549871 -0.101182 0)
(0.567923 -0.0990526 2.96172e-18)
(0.586681 -0.096474 0)
(0.606253 -0.0934894 2.97983e-18)
(0.626765 -0.0901478 2.96147e-18)
(0.648362 -0.086503 2.92063e-18)
(0.671204 -0.0826141 3.51305e-19)
(0.695467 -0.0785477 0)
(0.721344 -0.0743804 0)
(0.749039 -0.0702066 0)
(0.778731 -0.0661428 -2.73112e-19)
(0.81065 -0.0623583 0)
(0.844582 -0.0590302 -1.42966e-18)
(0.881692 -0.0565357 1.39184e-18)
(0.915635 -0.0549345 9.36583e-20)
(0.969888 -0.0548021 4.89717e-20)
(0.974031 0.220517 -1.5012e-18)
(0.969589 0.21179 1.45642e-18)
(0.961607 0.205778 -3.55016e-19)
(0.955327 0.202584 0)
(0.954929 0.20072 0)
(0.960643 0.199773 0)
(0.970532 0.199762 0)
(0.981813 0.199945 1.67643e-18)
(0.990827 0.198994 0)
(0.993065 0.195663 -1.51141e-18)
(0.984691 0.189361 -1.90066e-18)
(0.963669 0.179971 4.43091e-19)
(0.929021 0.167456 1.33108e-18)
(0.880793 0.151829 0)
(0.820379 0.133893 -2.08759e-18)
(0.750221 0.114711 0)
(0.67571 0.0955906 -1.68775e-18)
(0.603092 0.0778914 4.25189e-19)
(0.536255 0.0623725 -1.77607e-18)
(0.477613 0.0493492 -1.36892e-18)
(0.428592 0.0388904 0)
(0.389607 0.0308752 0)
(0.360107 0.0250072 -9.36829e-19)
(0.33883 0.0208627 0)
(0.324221 0.0179712 -7.00629e-19)
(0.314808 0.0158893 0)
(0.309377 0.0142371 0)
(0.307001 0.0127052 -1.11157e-19)
(0.306983 0.0110543 0)
(0.308788 0.00911645 0)
(0.31199 0.00679524 0)
(0.316252 0.00405268 5.22789e-20)
(0.321304 0.000869759 2.0914e-19)
(0.326926 -0.0027372 1.28816e-19)
(0.333008 -0.00670411 0)
(0.339473 -0.0109865 0)
(0.346276 -0.0155323 -2.48319e-20)
(0.353409 -0.0202869 -1.25627e-19)
(0.360885 -0.0252091 4.97578e-20)
(0.368718 -0.030269 0)
(0.376921 -0.0354458 0)
(0.385498 -0.0407265 -2.08307e-19)
(0.39444 -0.0460987 1.04262e-19)
(0.403729 -0.0515464 -4.31586e-19)
(0.413343 -0.0570475 4.4107e-19)
(0.423255 -0.0625738 1.11412e-19)
(0.433438 -0.0680908 0)
(0.443866 -0.0735586 4.7729e-19)
(0.454511 -0.0789319 0)
(0.465347 -0.084162 0)
(0.47635 -0.089197 0)
(0.487498 -0.0939838 0)
(0.49877 -0.0984691 0)
(0.51015 -0.102601 2.88269e-19)
(0.521624 -0.106332 0)
(0.533185 -0.109619 1.24231e-18)
(0.544833 -0.112423 -3.2001e-19)
(0.556574 -0.114716 0)
(0.568425 -0.116479 1.36713e-18)
(0.580412 -0.117699 3.52076e-19)
(0.592572 -0.118376 1.44615e-18)
(0.604954 -0.118519 -3.71708e-19)
(0.617619 -0.118144 0)
(0.630643 -0.117276 -1.54473e-18)
(0.644116 -0.11595 0)
(0.658142 -0.114205 0)
(0.672838 -0.112089 -1.59684e-18)
(0.688337 -0.109652 0)
(0.704783 -0.106949 0)
(0.722337 -0.10404 -1.56744e-18)
(0.741172 -0.100985 -3.86937e-19)
(0.761476 -0.0978493 0)
(0.783443 -0.0947038 0)
(0.807282 -0.0916263 0)
(0.833161 -0.088698 3.02064e-19)
(0.861326 -0.086032 -1.04669e-18)
(0.891497 -0.083681 -2.19812e-19)
(0.925043 -0.081891 -1.6727e-19)
(0.955317 -0.0804347 -1.03449e-19)
(1.00577 -0.0791503 -2.62282e-19)
(0.974215 0.221531 5.21068e-18)
(0.971746 0.214828 -5.02539e-18)
(0.96669 0.20968 0)
(0.960969 0.206003 -3.20934e-18)
(0.956637 0.202434 0)
(0.954651 0.198601 -2.93384e-18)
(0.955725 0.195147 0)
(0.960626 0.192512 3.9704e-18)
(0.969292 0.190461 -4.96321e-18)
(0.980188 0.188429 2.28551e-18)
(0.990707 0.185833 2.14498e-18)
(0.998083 0.18215 0)
(0.999817 0.176792 -5.81528e-18)
(0.993596 0.169136 -3.71308e-18)
(0.977763 0.159121 5.27014e-18)
(0.951638 0.14707 0)
(0.91654 0.133571 1.6433e-18)
(0.875168 0.119366 0)
(0.829957 0.105039 1.66248e-18)
(0.783094 0.0910965 1.68173e-18)
(0.736615 0.0779602 0)
(0.692285 0.065919 0)
(0.651511 0.055129 -9.10323e-19)
(0.615311 0.0456401 0)
(0.584309 0.0374182 8.84593e-19)
(0.558744 0.0303562 0)
(0.538491 0.0242881 0)
(0.523135 0.019009 0)
(0.51207 0.0142997 0)
(0.504616 0.00994981 0)
(0.500112 0.00577716 0)
(0.497961 0.00162653 0)
(0.497707 -0.00260508 2.20913e-19)
(0.498954 -0.00699206 -1.05166e-19)
(0.501389 -0.0115816 5.3236e-20)
(0.504773 -0.0163984 0)
(0.508944 -0.0214394 0)
(0.513792 -0.0266808 1.03981e-19)
(0.519229 -0.03209 -4.27112e-19)
(0.525188 -0.0376346 4.31004e-19)
(0.531612 -0.0432864 0)
(0.538451 -0.0490225 1.10313e-18)
(0.545655 -0.054822 -9.02283e-19)
(0.553177 -0.0606627 -4.69475e-19)
(0.560968 -0.0665186 -4.62846e-19)
(0.568978 -0.0723589 0)
(0.577162 -0.0781478 0)
(0.585471 -0.0838448 -1.52994e-18)
(0.593861 -0.089405 0)
(0.602293 -0.0947804 0)
(0.610727 -0.0999211 0)
(0.619134 -0.104777 1.17215e-18)
(0.627487 -0.109297 2.4292e-18)
(0.635766 -0.113437 0)
(0.643963 -0.117153 0)
(0.652078 -0.120409 -1.34386e-18)
(0.660119 -0.123176 0)
(0.668112 -0.125435 2.89665e-18)
(0.676089 -0.127175 1.49949e-18)
(0.6841 -0.128397 0)
(0.692206 -0.129108 1.58877e-18)
(0.700482 -0.129329 3.26528e-18)
(0.709015 -0.129087 3.34521e-18)
(0.717905 -0.128415 1.71398e-18)
(0.727266 -0.127356 -3.47647e-18)
(0.737221 -0.125958 3.52276e-18)
(0.747904 -0.124271 5.33818e-18)
(0.759462 -0.122353 0)
(0.772051 -0.12026 0)
(0.785836 -0.118051 1.76373e-18)
(0.800995 -0.115789 0)
(0.817717 -0.113534 3.31445e-18)
(0.836193 -0.111348 3.15647e-18)
(0.856632 -0.109293 0)
(0.879195 -0.107421 2.68282e-18)
(0.904158 -0.105797 -1.17141e-18)
(0.931178 -0.104379 0)
(0.961892 -0.103297 0)
(0.989217 -0.102167 0)
(1.03706 -0.100195 -2.23635e-19)
(0.974268 0.222146 -3.98627e-18)
(0.97248 0.216651 3.83253e-18)
(0.96904 0.212054 -7.56811e-18)
(0.965138 0.208417 3.63511e-18)
(0.961702 0.204786 0)
(0.958703 0.200568 3.32596e-18)
(0.956149 0.195948 -6.41243e-18)
(0.954823 0.191294 -6.01645e-18)
(0.955832 0.186787 -8.73081e-20)
(0.959858 0.18252 0)
(0.96688 0.17855 0)
(0.976232 0.174762 4.85766e-18)
(0.986723 0.17076 4.47401e-18)
(0.996635 0.166012 -4.40746e-18)
(1.00402 0.160188 -1.20883e-17)
(1.00708 0.15311 0)
(1.00469 0.144804 0)
(0.996641 0.135514 0)
(0.983391 0.125492 0)
(0.965679 0.115005 0)
(0.944415 0.104298 0)
(0.920559 0.0935753 0)
(0.895053 0.083012 1.76127e-18)
(0.868797 0.072761 -3.62922e-18)
(0.842635 0.0629434 0)
(0.817334 0.053635 0)
(0.79356 0.0448632 0)
(0.77185 0.036614 0)
(0.75259 0.0288436 0)
(0.736007 0.0214893 -9.16291e-19)
(0.722168 0.0144759 0)
(0.711021 0.00773251 0)
(0.702336 0.00116573 1.22816e-20)
(0.696038 -0.00526823 0)
(0.691873 -0.0116124 -5.51385e-20)
(0.689492 -0.0178837 0)
(0.688566 -0.0241024 2.2696e-19)
(0.688825 -0.0302958 0)
(0.690055 -0.0364892 9.08649e-19)
(0.692087 -0.0426992 -4.53912e-19)
(0.694784 -0.0489317 -9.45281e-19)
(0.698035 -0.0551833 -9.39036e-19)
(0.70174 -0.0614415 9.5922e-19)
(0.705805 -0.0676859 9.82502e-19)
(0.710146 -0.0738892 2.06241e-18)
(0.71468 -0.080019 2.12076e-18)
(0.719334 -0.086038 0)
(0.724038 -0.091906 -1.1487e-18)
(0.728731 -0.0975797 0)
(0.73336 -0.103014 0)
(0.737883 -0.108165 -2.50423e-18)
(0.742265 -0.112987 -1.28237e-18)
(0.746485 -0.117439 3.08434e-20)
(0.750533 -0.121482 0)
(0.754414 -0.125084 0)
(0.758145 -0.128221 0)
(0.761759 -0.130873 3.13285e-18)
(0.765304 -0.133034 -3.23342e-18)
(0.768843 -0.134705 -3.35172e-18)
(0.77245 -0.135896 0)
(0.776215 -0.136628 -3.58227e-18)
(0.780236 -0.136928 -9.29146e-22)
(0.784624 -0.136832 -3.79193e-18)
(0.789497 -0.13638 3.87575e-18)
(0.79498 -0.13562 1.00055e-20)
(0.801207 -0.1346 -4.02354e-18)
(0.808314 -0.133376 -4.06597e-18)
(0.816448 -0.132003 0)
(0.82576 -0.130537 0)
(0.836409 -0.129036 0)
(0.848562 -0.12756 0)
(0.862395 -0.126163 -3.8215e-18)
(0.878092 -0.124901 -3.6417e-18)
(0.895854 -0.123825 0)
(0.915831 -0.12296 -3.09612e-18)
(0.938336 -0.12234 5.43355e-18)
(0.962962 -0.121852 0)
(0.991655 -0.121523 0)
(1.01679 -0.120893 0)
(1.06318 -0.118615 1.02964e-18)
(0.974307 0.222606 9.3805e-18)
(0.972773 0.21791 0)
(0.96991 0.213549 1.72897e-17)
(0.966846 0.209742 0)
(0.964431 0.206063 8.07968e-18)
(0.962486 0.202027 0)
(0.960481 0.197512 7.2665e-18)
(0.958356 0.19258 0)
(0.956553 0.187281 -6.75637e-18)
(0.955677 0.181711 0)
(0.956331 0.17606 1.1999e-17)
(0.959044 0.170494 -5.58533e-18)
(0.964119 0.165019 0)
(0.971417 0.159498 9.93767e-18)
(0.980321 0.153783 -1.95346e-19)
(0.989895 0.147705 -9.0259e-18)
(0.998887 0.141183 8.73844e-18)
(1.00617 0.134245 0)
(1.01111 0.126889 0)
(1.01342 0.119147 8.24293e-18)
(1.01307 0.111083 0)
(1.01019 0.10277 -4.02664e-18)
(1.00504 0.0942884 0)
(0.997904 0.0857153 3.86388e-18)
(0.989134 0.0771122 0)
(0.979076 0.068521 3.94448e-18)
(0.968078 0.0599676 0)
(0.956474 0.0514684 0)
(0.944588 0.0430363 1.96713e-18)
(0.932717 0.0346825 9.56263e-19)
(0.921135 0.0264162 0)
(0.910072 0.0182413 0)
(0.899741 0.0101639 -1.47839e-18)
(0.890143 0.00216819 0)
(0.881462 -0.00575194 0)
(0.873865 -0.0135874 0)
(0.867428 -0.0213164 -2.43518e-19)
(0.862147 -0.0289209 0)
(0.857956 -0.0363916 -1.52099e-18)
(0.854741 -0.0437251 -1.03856e-18)
(0.852361 -0.05092 1.02627e-18)
(0.850666 -0.0579753 0)
(0.849507 -0.0648874 0)
(0.848747 -0.0716489 2.25946e-18)
(0.848264 -0.0782471 -2.26725e-18)
(0.847952 -0.084664 -2.33896e-18)
(0.847719 -0.0908759 0)
(0.84749 -0.0968549 -5.01413e-20)
(0.847204 -0.102569 2.64645e-18)
(0.846816 -0.107985 0)
(0.846294 -0.113068 2.80796e-18)
(0.84562 -0.117784 2.96308e-18)
(0.844795 -0.122105 -3.04462e-18)
(0.843833 -0.126004 0)
(0.842767 -0.129462 0)
(0.841645 -0.132466 0)
(0.84053 -0.135013 -3.58148e-18)
(0.839499 -0.137107 0)
(0.838642 -0.138759 0)
(0.838056 -0.139991 0)
(0.837847 -0.140828 8.30327e-18)
(0.838129 -0.141305 -4.27676e-18)
(0.839014 -0.141459 0)
(0.840621 -0.141333 -4.51279e-18)
(0.84307 -0.140973 -4.60082e-18)
(0.846481 -0.140428 9.36537e-18)
(0.850978 -0.139749 -9.47482e-18)
(0.856687 -0.13899 -9.5299e-18)
(0.863739 -0.138203 0)
(0.872272 -0.137445 -9.4325e-18)
(0.882431 -0.136768 0)
(0.894374 -0.136227 0)
(0.908263 -0.135869 0)
(0.92429 -0.135739 8.02057e-18)
(0.942592 -0.135848 -7.31653e-18)
(0.963525 -0.136207 -9.63995e-18)
(0.98661 -0.136662 0)
(1.01414 -0.137142 4.08565e-18)
(1.03785 -0.137165 0)
(1.08396 -0.134927 -1.77602e-18)
(0.974319 0.222965 -1.06825e-17)
(0.972879 0.218869 -1.03285e-17)
(0.970246 0.214688 -1.98706e-17)
(0.967479 0.210705 0)
(0.965408 0.206839 -1.8449e-17)
(0.964014 0.202775 -8.84992e-18)
(0.962858 0.198347 0)
(0.961675 0.193541 1.60796e-17)
(0.960427 0.188324 1.51161e-17)
(0.959156 0.182654 0)
(0.958004 0.176577 -1.36288e-17)
(0.957296 0.170203 0)
(0.957494 0.163619 0)
(0.959026 0.15686 1.17994e-17)
(0.962144 0.149958 1.09897e-17)
(0.966918 0.142928 -1.88785e-19)
(0.973049 0.135864 1.92504e-19)
(0.97995 0.128858 0)
(0.987063 0.121861 0)
(0.993927 0.114814 -9.4785e-18)
(1.00019 0.107685 -9.5363e-18)
(1.00563 0.100459 1.40036e-17)
(1.01009 0.0931387 4.649e-18)
(1.01351 0.0857302 4.60293e-18)
(1.0159 0.0782426 0)
(1.0173 0.0706802 -4.42002e-18)
(1.01777 0.0630412 0)
(1.0174 0.0553202 0)
(1.01627 0.0475111 -4.4202e-18)
(1.01449 0.0396097 0)
(1.01215 0.0316168 0)
(1.00933 0.0235384 0)
(1.00614 0.0153959 1.09763e-18)
(1.00268 0.00720009 -5.70012e-19)
(0.99886 -0.00101462 2.85752e-19)
(0.994651 -0.00923157 0)
(0.990093 -0.0174249 0)
(0.985249 -0.0255581 0)
(0.980198 -0.033594 1.14575e-18)
(0.975014 -0.0415001 1.16463e-18)
(0.969764 -0.0492493 -2.44292e-18)
(0.964495 -0.0568188 0)
(0.959238 -0.0641886 0)
(0.954003 -0.0713399 -5.18773e-18)
(0.948788 -0.0782538 -2.70356e-18)
(0.943578 -0.0849102 0)
(0.938352 -0.0912878 0)
(0.933091 -0.097364 2.92982e-18)
(0.927781 -0.103115 5.43539e-20)
(0.922416 -0.108519 0)
(0.917002 -0.113554 0)
(0.911562 -0.118202 -3.43617e-18)
(0.906131 -0.122446 0)
(0.900759 -0.126278 0)
(0.89551 -0.129691 0)
(0.89046 -0.132688 0)
(0.885694 -0.135275 0)
(0.881304 -0.137465 -8.84803e-18)
(0.877386 -0.139277 0)
(0.874038 -0.140734 0)
(0.871358 -0.141866 2.40143e-20)
(0.869444 -0.142705 0)
(0.868392 -0.143286 0)
(0.868296 -0.143649 0)
(0.86925 -0.143835 2.19276e-17)
(0.871349 -0.143889 -1.11624e-17)
(0.874689 -0.143858 1.13092e-17)
(0.879372 -0.143792 2.35422e-21)
(0.885501 -0.14374 0)
(0.893192 -0.143754 1.13066e-17)
(0.902567 -0.143887 -1.11151e-17)
(0.913763 -0.14419 0)
(0.926927 -0.14471 0)
(0.942241 -0.145486 3.30135e-20)
(0.959826 -0.146526 8.81825e-18)
(0.980088 -0.147827 7.76069e-18)
(1.00248 -0.149219 0)
(1.02965 -0.150555 -4.92278e-18)
(1.05263 -0.151349 0)
(1.09957 -0.149519 1.40856e-18)
(0.974304 0.223274 0)
(0.972844 0.21966 2.36182e-17)
(0.970297 0.215616 2.28286e-17)
(0.967693 0.211502 0)
(0.965747 0.207458 1.05423e-17)
(0.964459 0.203259 -1.02492e-17)
(0.963552 0.198742 0)
(0.962879 0.193915 -1.82713e-17)
(0.962385 0.188767 0)
(0.96196 0.183232 0)
(0.961465 0.177274 0)
(0.960849 0.170906 0)
(0.960209 0.164144 0)
(0.959733 0.156994 1.91235e-19)
(0.959645 0.149494 -1.2921e-17)
(0.960203 0.141712 -1.87284e-19)
(0.961601 0.133858 1.89117e-19)
(0.963859 0.12614 0)
(0.966869 0.118576 0)
(0.970465 0.111141 0)
(0.974462 0.103808 -2.02926e-19)
(0.978683 0.0965492 2.06067e-19)
(0.982964 0.0893372 -5.37142e-18)
(0.987168 0.0821485 -5.31771e-18)
(0.991185 0.0749616 0)
(0.994928 0.0677544 -5.34206e-18)
(0.99833 0.0605037 5.3119e-18)
(1.00134 0.0531861 0)
(1.0039 0.0457811 2.57837e-18)
(1.00598 0.0382738 2.63543e-18)
(1.00754 0.030657 0)
(1.00857 0.0229332 0)
(1.00903 0.0151165 1.33229e-18)
(1.00893 0.00723175 -1.70063e-20)
(1.00829 -0.000674194 -6.66684e-19)
(1.00712 -0.00857036 0)
(1.00541 -0.0164383 0)
(1.00317 -0.0242552 -1.38223e-18)
(1.00038 -0.031995 0)
(0.997068 -0.0396322 -1.42521e-18)
(0.993231 -0.0471423 -6.86701e-20)
(0.988889 -0.0545017 0)
(0.984067 -0.061687 3.0489e-18)
(0.978793 -0.068675 6.20258e-18)
(0.973106 -0.0754423 3.16486e-18)
(0.967048 -0.0819656 0)
(0.960671 -0.0882224 -6.89881e-18)
(0.954033 -0.0941911 0)
(0.947199 -0.099852 -3.65264e-18)
(0.940241 -0.105188 0)
(0.933235 -0.110184 0)
(0.926265 -0.114828 0)
(0.919416 -0.119114 0)
(0.912774 -0.123037 0)
(0.90643 -0.126598 -9.41468e-18)
(0.90047 -0.129801 9.79789e-18)
(0.894981 -0.132654 0)
(0.890046 -0.13517 1.05322e-17)
(0.885745 -0.137365 -1.09867e-17)
(0.882156 -0.139258 0)
(0.879355 -0.140875 -1.17389e-17)
(0.877416 -0.142242 0)
(0.876412 -0.143391 0)
(0.876418 -0.144356 0)
(0.877513 -0.145176 -1.31192e-17)
(0.879776 -0.145892 1.3384e-17)
(0.883292 -0.146548 -1.35761e-17)
(0.888151 -0.147192 2.73829e-17)
(0.894449 -0.147873 -1.37319e-17)
(0.902292 -0.148641 0)
(0.911794 -0.149547 1.34451e-17)
(0.923084 -0.150641 -1.31234e-17)
(0.9363 -0.15197 0)
(0.951626 -0.153571 5.08065e-20)
(0.969172 -0.155452 -1.09138e-17)
(0.989399 -0.157608 0)
(1.01168 -0.159859 0)
(1.03907 -0.16203 -6.24663e-18)
(1.06179 -0.163569 0)
(1.11041 -0.162544 -1.76342e-18)
(0.974265 0.223567 0)
(0.972691 0.220353 -1.3511e-17)
(0.970127 0.216372 -1.30574e-17)
(0.967638 0.212139 0)
(0.965804 0.207962 2.44013e-17)
(0.964552 0.203641 2.31217e-17)
(0.963664 0.199004 0)
(0.963078 0.194071 2.12043e-17)
(0.962806 0.188862 -2.0183e-17)
(0.962796 0.183333 0)
(0.962925 0.177446 0)
(0.963069 0.17119 0)
(0.96315 0.164544 0)
(0.963125 0.157476 -1.54332e-17)
(0.962981 0.149975 -1.50445e-17)
(0.962772 0.142073 1.39376e-17)
(0.962627 0.133979 -4.11212e-17)
(0.962678 0.125935 0)
(0.963006 0.118002 0)
(0.963644 0.110195 1.31648e-17)
(0.964599 0.102518 2.5825e-17)
(0.965852 0.0949649 -1.26782e-17)
(0.967362 0.0875226 0)
(0.969076 0.0801729 0)
(0.970933 0.072895 -6.29257e-18)
(0.972869 0.0656643 1.24106e-17)
(0.974815 0.0584537 -1.23558e-17)
(0.976699 0.0512358 0)
(0.978446 0.0439864 0)
(0.979981 0.0366868 -3.04515e-18)
(0.981225 0.0293257 0)
(0.982107 0.0219008 3.12448e-18)
(0.982564 0.0144197 -1.54164e-18)
(0.982532 0.00690284 -1.61444e-20)
(0.982028 -0.000640681 -8.19208e-21)
(0.981048 -0.00818634 0)
(0.979585 -0.0157096 0)
(0.977639 -0.0231867 -3.34482e-20)
(0.975217 -0.0305921 1.66195e-18)
(0.972331 -0.0379009 5.04083e-18)
(0.969004 -0.0450896 6.83843e-18)
(0.965262 -0.0521368 3.53292e-18)
(0.961137 -0.0590228 -3.55909e-18)
(0.956668 -0.0657295 -3.66243e-18)
(0.951894 -0.0722398 3.84028e-18)
(0.946861 -0.0785376 0)
(0.941618 -0.0846075 8.08066e-18)
(0.936217 -0.0904348 -8.49505e-18)
(0.930715 -0.0960057 0)
(0.925168 -0.101307 0)
(0.919638 -0.106327 0)
(0.914186 -0.111055 0)
(0.908875 -0.115483 0)
(0.903769 -0.119604 0)
(0.89893 -0.123414 1.10338e-17)
(0.894423 -0.126914 -2.30356e-17)
(0.890312 -0.130106 -1.20057e-17)
(0.886662 -0.132998 1.24625e-17)
(0.883543 -0.135601 1.28654e-17)
(0.881024 -0.137931 -1.33812e-17)
(0.87918 -0.140009 1.38336e-17)
(0.878087 -0.141862 0)
(0.877827 -0.143519 1.46948e-17)
(0.878481 -0.145014 -1.50885e-17)
(0.880136 -0.146385 0)
(0.882878 -0.147672 -3.14838e-17)
(0.886798 -0.14892 1.5979e-17)
(0.891988 -0.150175 -3.23272e-17)
(0.898545 -0.151484 1.62291e-17)
(0.906576 -0.152897 0)
(0.916193 -0.154465 1.60469e-17)
(0.927529 -0.156238 1.5664e-17)
(0.940724 -0.158263 -1.51644e-17)
(0.955973 -0.160581 -1.43189e-17)
(0.973395 -0.1632 1.32359e-17)
(0.993512 -0.166121 0)
(1.01565 -0.169159 0)
(1.04326 -0.172157 7.75528e-18)
(1.06579 -0.174358 0)
(1.11642 -0.174495 2.21862e-18)
(0.974202 0.223865 1.62959e-17)
(0.972436 0.220979 0)
(0.969784 0.216985 -3.02298e-17)
(0.967373 0.212638 2.92001e-17)
(0.965644 0.208361 -2.78011e-17)
(0.964441 0.203944 2.67532e-17)
(0.96357 0.199205 0)
(0.962995 0.194174 2.02101e-19)
(0.962739 0.188878 2.29785e-17)
(0.962785 0.183285 0)
(0.963067 0.177366 0)
(0.963515 0.171115 0)
(0.964068 0.164516 3.77983e-17)
(0.964656 0.157534 0)
(0.965192 0.150143 3.37371e-17)
(0.965609 0.142342 0)
(0.965885 0.134313 6.28848e-17)
(0.966044 0.126285 0)
(0.96613 0.11832 0)
(0.966187 0.110438 -3.00735e-17)
(0.966261 0.102653 -1.47703e-17)
(0.96639 0.0949722 0)
(0.966602 0.0873958 0)
(0.966911 0.0799177 0)
(0.967316 0.0725267 7.16277e-18)
(0.967808 0.0652068 -7.12991e-18)
(0.968363 0.0579377 -1.07616e-19)
(0.968947 0.0506976 0)
(0.969516 0.043466 7.19667e-18)
(0.970019 0.0362263 0)
(0.970401 0.0289671 0)
(0.970607 0.0216838 -3.57255e-18)
(0.970585 0.0143793 1.82981e-18)
(0.970291 0.00706504 -1.5642e-20)
(0.969704 -0.00026973 4.5587e-19)
(0.968794 -0.00760114 0)
(0.967543 -0.0149028 0)
(0.965942 -0.0221538 1.87236e-18)