/*--------------------------------*- C++ -*----------------------------------*\
| =========                 |                                                 |
| \\      /  F ield         | OpenFOAM: The Open Source CFD Toolbox           |
|  \\    /   O peration     | Version:  v1912                                 |
|   \\  /    A nd           | Website:  www.openfoam.com                      |
|    \\/     M anipulation  |                                                 |
\*---------------------------------------------------------------------------*/
FoamFile
{
    version     2.0;
    format      ascii;
    class       volScalarField;
    location    "300";
    object      p;
}
// * * * * * * * * * * * * * * * * * * * * * * * * * * * * * * * * * * * * * //

dimensions      [0 2 -2 0 0 0 0];


internalField   nonuniform List<scalar> 
10000
(
0.00230335
0.00230631
0.00231432
0.00232659
0.00234315
0.00236442
0.00239081
0.00242288
0.00246127
0.0025072
0.00256159
0.0026271
0.00270411
0.00280148
0.00291311
0.0030766
0.00323834
0.00360968
0.00381907
0.00574943
0.00230335
0.0023063
0.00231432
0.00232659
0.00234315
0.00236442
0.0023908
0.00242288
0.00246127
0.0025072
0.00256159
0.00262709
0.0027041
0.00280146
0.00291309
0.00307655
0.00323833
0.00360933
0.00381904
0.0056689
0.00230335
0.0023063
0.00231432
0.00232659
0.00234315
0.00236441
0.0023908
0.00242287
0.00246126
0.00250719
0.00256158
0.00262707
0.00270408
0.00280143
0.00291306
0.00307647
0.00323826
0.00360882
0.00381854
0.00552829
0.00230334
0.00230629
0.00231431
0.00232658
0.00234314
0.0023644
0.00239079
0.00242286
0.00246124
0.00250717
0.00256156
0.00262705
0.00270405
0.00280139
0.002913
0.00307634
0.00323815
0.00360807
0.00381762
0.00544582
0.00230333
0.00230628
0.0023143
0.00232657
0.00234312
0.00236439
0.00239077
0.00242284
0.00246122
0.00250714
0.00256153
0.00262701
0.00270401
0.00280132
0.00291292
0.00307616
0.00323798
0.00360702
0.00381656
0.0053914
0.00230331
0.00230626
0.00231428
0.00232655
0.00234311
0.00236437
0.00239075
0.00242282
0.00246119
0.00250711
0.00256148
0.00262695
0.00270394
0.00280122
0.0029128
0.00307591
0.00323775
0.00360565
0.00381536
0.00534239
0.0023033
0.00230624
0.00231426
0.00232653
0.00234308
0.00236434
0.00239072
0.00242278
0.00246116
0.00250707
0.00256143
0.00262689
0.00270386
0.0028011
0.00291265
0.00307559
0.00323744
0.00360392
0.00381394
0.00529262
0.00230327
0.00230622
0.00231423
0.0023265
0.00234305
0.00236431
0.00239068
0.00242274
0.00246111
0.00250701
0.00256137
0.0026268
0.00270376
0.00280094
0.00291246
0.00307519
0.00323705
0.00360181
0.00381223
0.00524181
0.00230324
0.00230618
0.0023142
0.00232647
0.00234302
0.00236427
0.00239064
0.00242269
0.00246105
0.00250694
0.00256128
0.00262669
0.00270363
0.00280075
0.00291223
0.00307469
0.00323656
0.00359927
0.00381016
0.00518954
0.00230321
0.00230615
0.00231416
0.00232642
0.00234297
0.00236422
0.00239058
0.00242263
0.00246098
0.00250686
0.00256118
0.00262656
0.00270347
0.00280051
0.00291194
0.00307409
0.00323595
0.00359626
0.00380765
0.00513576
0.00230316
0.0023061
0.0023141
0.00232637
0.00234292
0.00236416
0.00239052
0.00242255
0.0024609
0.00250675
0.00256106
0.0026264
0.00270328
0.00280022
0.00291159
0.00307336
0.00323521
0.00359273
0.00380463
0.00508015
0.00230311
0.00230604
0.00231405
0.00232631
0.00234285
0.00236409
0.00239044
0.00242246
0.00246079
0.00250663
0.00256091
0.00262622
0.00270305
0.00279988
0.00291117
0.0030725
0.00323432
0.00358864
0.00380104
0.00502287
0.00230305
0.00230597
0.00231397
0.00232624
0.00234278
0.00236401
0.00239034
0.00242236
0.00246067
0.00250649
0.00256074
0.00262599
0.00270277
0.00279947
0.00291068
0.00307148
0.00323326
0.00358393
0.0037968
0.00496382
0.00230297
0.00230589
0.00231389
0.00232615
0.00234268
0.00236391
0.00239023
0.00242223
0.00246053
0.00250631
0.00256053
0.00262573
0.00270245
0.00279899
0.00291009
0.00307028
0.003232
0.00357857
0.00379183
0.00490323
0.00230289
0.0023058
0.00231379
0.00232605
0.00234258
0.00236379
0.0023901
0.00242208
0.00246036
0.00250611
0.00256029
0.00262542
0.00270207
0.00279843
0.00290941
0.0030689
0.00323051
0.00357248
0.00378606
0.00484107
0.00230278
0.00230569
0.00231368
0.00232594
0.00234245
0.00236365
0.00238995
0.00242191
0.00246016
0.00250588
0.00256
0.00262506
0.00270163
0.00279778
0.00290861
0.0030673
0.00322876
0.00356563
0.00377941
0.00477754
0.00230267
0.00230556
0.00231354
0.0023258
0.00234231
0.00236349
0.00238977
0.00242171
0.00245993
0.0025056
0.00255968
0.00262464
0.00270112
0.00279702
0.00290767
0.00306545
0.00322672
0.00355795
0.00377178
0.00471267
0.00230253
0.00230542
0.00231339
0.00232564
0.00234214
0.00236331
0.00238957
0.00242148
0.00245967
0.00250529
0.0025593
0.00262415
0.00270052
0.00279615
0.00290659
0.00306334
0.00322436
0.00354941
0.0037631
0.00464668
0.00230237
0.00230525
0.00231321
0.00232546
0.00234194
0.0023631
0.00238933
0.00242121
0.00245936
0.00250492
0.00255886
0.00262359
0.00269983
0.00279515
0.00290535
0.00306094
0.00322161
0.00353994
0.00375325
0.0045796
0.00230219
0.00230505
0.002313
0.00232525
0.00234172
0.00236285
0.00238906
0.0024209
0.002459
0.0025045
0.00255835
0.00262295
0.00269904
0.002794
0.00290391
0.00305821
0.00321846
0.00352949
0.00374215
0.00451167
0.00230198
0.00230483
0.00231277
0.00232501
0.00234146
0.00236257
0.00238875
0.00242055
0.0024586
0.00250402
0.00255778
0.00262221
0.00269813
0.00279269
0.00290226
0.00305512
0.00321482
0.00351802
0.00372968
0.00444297
0.00230174
0.00230457
0.0023125
0.00232473
0.00234117
0.00236225
0.00238839
0.00242014
0.00245813
0.00250347
0.00255711
0.00262137
0.00269709
0.0027912
0.00290038
0.00305164
0.00321067
0.00350549
0.00371576
0.00437373
0.00230146
0.00230428
0.00231219
0.00232442
0.00234083
0.00236188
0.00238798
0.00241968
0.0024576
0.00250284
0.00255636
0.00262042
0.0026959
0.0027895
0.00289823
0.00304773
0.00320592
0.00349186
0.00370026
0.00430407
0.00230114
0.00230395
0.00231184
0.00232406
0.00234045
0.00236146
0.00238751
0.00241915
0.002457
0.00250212
0.0025555
0.00261932
0.00269455
0.00278758
0.00289577
0.00304335
0.00320053
0.00347708
0.00368311
0.00423422
0.00230078
0.00230357
0.00231144
0.00232364
0.00234001
0.00236098
0.00238698
0.00241855
0.00245631
0.0025013
0.00255451
0.00261809
0.002693
0.0027854
0.00289299
0.00303846
0.00319442
0.00346112
0.00366419
0.00416431
0.00230037
0.00230313
0.00231099
0.00232318
0.00233951
0.00236043
0.00238638
0.00241787
0.00245552
0.00250037
0.0025534
0.00261668
0.00269125
0.00278295
0.00288983
0.00303302
0.00318751
0.00344396
0.00364343
0.00409457
0.0022999
0.00230264
0.00231047
0.00232264
0.00233894
0.00235981
0.00238569
0.00241709
0.00245463
0.00249932
0.00255214
0.0026151
0.00268927
0.00278019
0.00288626
0.00302697
0.00317973
0.00342557
0.00362074
0.00402512
0.00229937
0.00230209
0.00230989
0.00232204
0.0023383
0.00235911
0.00238491
0.00241621
0.00245362
0.00249813
0.00255071
0.0026133
0.00268703
0.00277709
0.00288223
0.00302029
0.00317102
0.00340593
0.00359608
0.00395618
0.00229877
0.00230146
0.00230923
0.00232135
0.00233758
0.00235832
0.00238403
0.00241522
0.00245248
0.00249678
0.00254909
0.00261128
0.0026845
0.00277361
0.0028777
0.0030129
0.00316128
0.00338502
0.00356939
0.00388784
0.00229808
0.00230075
0.00230848
0.00232058
0.00233675
0.00235742
0.00238304
0.00241409
0.00245119
0.00249526
0.00254727
0.00260901
0.00268165
0.00276972
0.00287261
0.00300477
0.00315044
0.00336284
0.00354068
0.00382028
0.0022973
0.00229994
0.00230764
0.0023197
0.00233582
0.00235641
0.00238191
0.00241282
0.00244973
0.00249354
0.00254521
0.00260645
0.00267845
0.00276538
0.00286691
0.00299583
0.00313842
0.00333937
0.00350992
0.00375358
0.00229643
0.00229904
0.00230669
0.00231872
0.00233477
0.00235526
0.00238064
0.00241139
0.00244809
0.00249161
0.0025429
0.00260358
0.00267485
0.00276053
0.00286054
0.00298604
0.00312516
0.00331462
0.00347717
0.00368784
0.00229543
0.00229802
0.00230562
0.0023176
0.00233359
0.00235397
0.00237921
0.00240978
0.00244624
0.00248944
0.0025403
0.00260036
0.00267082
0.00275515
0.00285345
0.00297533
0.00311059
0.00328856
0.00344246
0.00362311
0.00229431
0.00229686
0.00230441
0.00231634
0.00233225
0.00235252
0.00237761
0.00240797
0.00244416
0.002487
0.00253739
0.00259676
0.00266632
0.00274917
0.00284558
0.00296365
0.00309465
0.00326122
0.00340589
0.00355945
0.00229305
0.00229557
0.00230306
0.00231493
0.00233075
0.00235088
0.0023758
0.00240593
0.00244183
0.00248427
0.00253412
0.00259274
0.00266129
0.00274254
0.00283687
0.00295094
0.00307729
0.0032326
0.00336756
0.00349684
0.00229162
0.00229411
0.00230153
0.00231334
0.00232906
0.00234905
0.00237376
0.00240365
0.00243922
0.00248121
0.00253047
0.00258826
0.00265569
0.00273521
0.00282724
0.00293715
0.00305847
0.00320269
0.00332759
0.00343531
0.00229002
0.00229247
0.00229982
0.00231155
0.00232716
0.00234699
0.00237148
0.00240109
0.00243629
0.00247779
0.00252639
0.00258327
0.00264947
0.00272713
0.00281666
0.00292222
0.00303815
0.00317153
0.00328613
0.00337481
0.00228822
0.00229063
0.00229791
0.00230954
0.00232503
0.00234467
0.00236893
0.00239822
0.00243301
0.00247396
0.00252184
0.00257772
0.00264258
0.00271822
0.00280504
0.00290609
0.00301633
0.00313912
0.00324334
0.00331534
0.00228619
0.00228856
0.00229576
0.00230729
0.00232264
0.00234208
0.00236607
0.00239501
0.00242934
0.0024697
0.00251678
0.00257157
0.00263495
0.00270844
0.00279234
0.00288873
0.00299298
0.0031055
0.00319938
0.00325683
0.00228391
0.00228625
0.00229335
0.00230477
0.00231997
0.00233918
0.00236287
0.00239142
0.00242526
0.00246495
0.00251115
0.00256475
0.00262653
0.00269772
0.0027785
0.00287008
0.00296813
0.0030707
0.00315442
0.00319926
0.00228136
0.00228365
0.00229066
0.00230195
0.00231697
0.00233593
0.00235929
0.00238742
0.0024207
0.00245966
0.00250491
0.00255722
0.00261727
0.00268601
0.00276346
0.00285012
0.00294178
0.00303476
0.00310861
0.00314256
0.0022785
0.00228075
0.00228765
0.00229879
0.00231362
0.00233231
0.00235531
0.00238296
0.00241563
0.0024538
0.002498
0.00254891
0.00260709
0.00267323
0.00274719
0.0028288
0.00291396
0.00299774
0.00306212
0.00308672
0.00227529
0.0022775
0.00228428
0.00229527
0.00230987
0.00232826
0.00235086
0.002378
0.00241
0.0024473
0.00249037
0.00253976
0.00259594
0.00265934
0.00272963
0.00280611
0.00288472
0.00295968
0.00301509
0.00303166
0.00227171
0.00227387
0.00228052
0.00229133
0.00230569
0.00232375
0.00234591
0.00237248
0.00240376
0.00244011
0.00248195
0.00252972
0.00258376
0.00264428
0.00271076
0.00278204
0.0028541
0.00292067
0.00296765
0.00297738
0.0022677
0.00226981
0.00227633
0.00228694
0.00230104
0.00231873
0.00234041
0.00236636
0.00239684
0.00243217
0.00247268
0.00251872
0.00257049
0.002628
0.00269053
0.00275659
0.00282215
0.00288076
0.00291993
0.00292381
0.00226323
0.00226529
0.00227166
0.00228205
0.00229585
0.00231315
0.0023343
0.00235958
0.0023892
0.00242342
0.0024625
0.0025067
0.00255608
0.00261045
0.00266895
0.00272977
0.00278893
0.00284005
0.00287201
0.00287096
0.00225824
0.00226025
0.00226647
0.00227661
0.00229009
0.00230695
0.00232753
0.00235208
0.00238076
0.00241379
0.00245136
0.0024936
0.00254047
0.0025916
0.00264597
0.00270159
0.00275453
0.0027986
0.002824
0.00281876
0.00225269
0.00225464
0.00226069
0.00227057
0.00228369
0.00230008
0.00232004
0.00234379
0.00237147
0.00240322
0.00243917
0.00247936
0.00252361
0.00257142
0.00262162
0.00267209
0.002719
0.00275649
0.00277596
0.00276721
0.00224652
0.0022484
0.00225426
0.00226386
0.00227659
0.00229247
0.00231176
0.00233466
0.00236126
0.00239165
0.00242589
0.00246392
0.00250546
0.00254987
0.00259588
0.00264129
0.00268242
0.00271381
0.00272795
0.00271626
0.00223965
0.00224147
0.00224714
0.00225642
0.00226873
0.00228405
0.00230262
0.0023246
0.00235006
0.00237901
0.00241145
0.00244723
0.00248598
0.00252694
0.00256878
0.00260925
0.00264487
0.00267063
0.00268002
0.00266591
0.00223204
0.00223379
0.00223925
0.00224819
0.00226004
0.00227477
0.00229256
0.00231357
0.0023378
0.00236524
0.00239579
0.00242924
0.00246514
0.00250263
0.00254033
0.00257602
0.00260643
0.00262703
0.0026322
0.0026161
0.0022236
0.00222528
0.00223051
0.00223909
0.00225045
0.00226453
0.00228151
0.00230148
0.00232442
0.00235026
0.00237886
0.00240992
0.00244291
0.00247693
0.00251056
0.00254166
0.00256717
0.00258306
0.00258454
0.00256681
0.00221427
0.00221587
0.00222086
0.00222905
0.00223989
0.00225328
0.00226938
0.00228825
0.00230984
0.00233402
0.0023606
0.00238921
0.00241928
0.00244985
0.00247952
0.00250623
0.00252717
0.00253879
0.00253703
0.00251801
0.00220396
0.00220548
0.00221022
0.00221799
0.00222826
0.00224093
0.00225611
0.00227383
0.002294
0.00231647
0.00234097
0.0023671
0.00239424
0.00242141
0.00244724
0.00246978
0.0024865
0.00249428
0.00248971
0.00246967
0.00219259
0.00219402
0.00219849
0.00220583
0.00221551
0.00222741
0.00224162
0.00225814
0.00227684
0.00229754
0.00231992
0.00234356
0.00236778
0.00239164
0.00241377
0.00243239
0.00244522
0.00244956
0.00244257
0.00242175
0.00218008
0.00218142
0.00218561
0.00219248
0.00220153
0.00221263
0.00222583
0.0022411
0.0022583
0.00227718
0.00229743
0.00231857
0.00233993
0.00236055
0.00237916
0.00239412
0.00240339
0.00240468
0.00239561
0.00237422
0.00216633
0.00216758
0.00217147
0.00217786
0.00218625
0.00219652
0.00220867
0.00222266
0.00223831
0.00225536
0.00227346
0.00229213
0.00231067
0.00232818
0.00234347
0.00235502
0.00236107
0.00235966
0.00234884
0.00232704
0.00215126
0.00215241
0.002156
0.00216188
0.00216959
0.00217899
0.00219006
0.00220274
0.00221682
0.00223203
0.002248
0.00226423
0.00228005
0.00229459
0.00230674
0.00231516
0.00231831
0.00231453
0.00230223
0.00228019
0.00213478
0.00213582
0.00213909
0.00214445
0.00215146
0.00215997
0.00216995
0.00218129
0.0021938
0.00220717
0.00222103
0.00223488
0.00224807
0.0022598
0.00226903
0.0022746
0.00227515
0.00226931
0.00225579
0.00223361
0.00211678
0.00211773
0.00212067
0.0021255
0.00213179
0.00213939
0.00214825
0.00215826
0.00216919
0.00218074
0.00219254
0.00220409
0.00221478
0.00222385
0.0022304
0.00223337
0.00223162
0.002224
0.00220948
0.00218729
0.0020972
0.00209803
0.00210065
0.00210493
0.00211049
0.00211718
0.00212493
0.0021336
0.00214297
0.00215274
0.00216253
0.00217188
0.0021802
0.00218681
0.00219088
0.00219152
0.00218774
0.00217861
0.00216328
0.00214117
0.00207593
0.00207666
0.00207894
0.00208267
0.0020875
0.00209328
0.00209991
0.00210726
0.00211511
0.00212315
0.00213101
0.00213826
0.00214437
0.0021487
0.00215053
0.00214909
0.00214355
0.00213313
0.00211718
0.00209522
0.00205289
0.00205351
0.00205547
0.00205865
0.00206275
0.00206762
0.00207316
0.00207922
0.00208558
0.00209196
0.00209799
0.00210328
0.00210732
0.00210957
0.00210938
0.0021061
0.00209904
0.00208756
0.00207114
0.00204941
0.00202801
0.00202853
0.00203016
0.0020328
0.00203619
0.00204016
0.00204464
0.00204945
0.00205439
0.00205918
0.00206349
0.00206694
0.0020691
0.00206945
0.00206747
0.00206259
0.00205423
0.00204188
0.00202513
0.0020037
0.00200123
0.00200165
0.00200296
0.00200507
0.00200775
0.00201087
0.00201431
0.00201793
0.00202152
0.00202482
0.00202752
0.00202929
0.00202972
0.00202839
0.00202483
0.00201856
0.00200911
0.00199608
0.00197912
0.00195804
0.00197248
0.0019728
0.0019738
0.0019754
0.00197741
0.00197971
0.00198217
0.00198466
0.00198698
0.00198889
0.00199011
0.00199034
0.00198924
0.00198641
0.00198147
0.00197402
0.00196368
0.00195012
0.00193307
0.00191238
0.00194173
0.00194195
0.00194265
0.00194376
0.00194514
0.00194665
0.00194819
0.00194963
0.00195077
0.00195141
0.00195129
0.00195014
0.00194767
0.00194353
0.00193742
0.00192898
0.00191793
0.00190398
0.00188695
0.00186669
0.00190892
0.00190906
0.00190948
0.00191014
0.00191091
0.0019117
0.00191239
0.00191285
0.00191292
0.0019124
0.00191108
0.00190871
0.00190504
0.00189979
0.00189268
0.00188344
0.00187183
0.00185764
0.0018407
0.00182092
0.00187406
0.00187411
0.00187427
0.00187451
0.00187473
0.00187485
0.00187476
0.00187434
0.00187344
0.0018719
0.00186952
0.00186608
0.00186138
0.00185519
0.00184726
0.00183739
0.00182538
0.00181105
0.00179429
0.00177503
0.00183712
0.0018371
0.00183703
0.00183688
0.0018366
0.00183611
0.00183533
0.00183412
0.00183237
0.00182993
0.00182662
0.00182228
0.00181672
0.00180975
0.00180117
0.00179082
0.00177854
0.00176418
0.00174768
0.00172896
0.00179813
0.00179804
0.00179776
0.00179727
0.00179654
0.00179552
0.00179412
0.00179223
0.00178974
0.00178652
0.00178244
0.00177734
0.00177107
0.00176348
0.0017544
0.00174371
0.00173128
0.001717
0.00170081
0.00168266
0.00175711
0.00175696
0.0017565
0.0017557
0.00175459
0.0017531
0.00175117
0.00174869
0.00174557
0.00174171
0.00173699
0.00173127
0.00172445
0.00171638
0.00170695
0.00169605
0.00168358
0.00166946
0.00165364
0.0016361
0.0017141
0.00171391
0.00171328
0.00171223
0.00171078
0.00170891
0.00170653
0.00170356
0.00169993
0.00169554
0.00169031
0.00168412
0.00167687
0.00166847
0.00165881
0.00164782
0.00163541
0.00162153
0.00160613
0.00158921
0.00166916
0.00166892
0.00166817
0.00166691
0.00166519
0.00166299
0.00166025
0.00165689
0.00165285
0.00164806
0.00164243
0.00163589
0.00162835
0.00161974
0.00160997
0.00159899
0.00158673
0.00157315
0.00155823
0.00154196
0.00162236
0.00162209
0.00162123
0.0016198
0.00161786
0.00161542
0.0016124
0.00160874
0.00160439
0.00159929
0.00159339
0.00158662
0.0015789
0.00157019
0.00156042
0.00154954
0.00153751
0.0015243
0.0015099
0.00149429
0.00157378
0.00157348
0.00157255
0.00157099
0.00156889
0.00156626
0.00156303
0.00155916
0.0015546
0.0015493
0.00154323
0.00153633
0.00152854
0.00151983
0.00151015
0.00149946
0.00148773
0.00147494
0.00146109
0.00144616
0.00152351
0.0015232
0.00152221
0.00152056
0.00151835
0.00151559
0.00151223
0.00150822
0.00150353
0.00149813
0.00149199
0.00148505
0.00147729
0.00146867
0.00145916
0.00144873
0.00143736
0.00142504
0.00141176
0.00139752
0.00147166
0.00147133
0.0014703
0.0014686
0.00146633
0.0014635
0.00146007
0.001456
0.00145126
0.00144584
0.0014397
0.00143281
0.00142516
0.00141671
0.00140744
0.00139733
0.00138637
0.00137456
0.00136188
0.00134835
0.00141832
0.00141799
0.00141695
0.00141522
0.00141293
0.00141008
0.00140663
0.00140256
0.00139784
0.00139246
0.0013864
0.00137965
0.00137217
0.00136395
0.00135499
0.00134525
0.00133475
0.00132347
0.00131142
0.0012986
0.00136361
0.00136328
0.00136224
0.00136052
0.00135824
0.00135541
0.001352
0.00134798
0.00134334
0.00133807
0.00133216
0.00132559
0.00131834
0.00131042
0.00130181
0.00129249
0.00128248
0.00127176
0.00126034
0.00124824
0.00130763
0.00130731
0.00130629
0.0013046
0.00130236
0.00129959
0.00129626
0.00129234
0.00128782
0.00128271
0.001277
0.00127067
0.00126371
0.00125612
0.0012479
0.00123904
0.00122954
0.0012194
0.00120864
0.00119725
0.00125051
0.00125019
0.0012492
0.00124757
0.00124539
0.00124271
0.00123948
0.0012357
0.00123136
0.00122645
0.00122097
0.00121492
0.00120829
0.00120108
0.00119328
0.0011849
0.00117593
0.00116639
0.00115628
0.0011456
0.00119233
0.00119203
0.00119108
0.00118951
0.00118742
0.00118485
0.00118177
0.00117815
0.00117401
0.00116933
0.00116413
0.00115839
0.00115211
0.0011453
0.00113795
0.00113006
0.00112165
0.00111271
0.00110325
0.00109328
0.00113321
0.00113292
0.00113202
0.00113053
0.00112854
0.0011261
0.00112318
0.00111976
0.00111584
0.00111142
0.00110651
0.00110111
0.00109521
0.00108881
0.00108192
0.00107455
0.00106669
0.00105835
0.00104954
0.00104027
0.00107323
0.00107296
0.00107211
0.0010707
0.00106884
0.00106654
0.00106379
0.00106058
0.0010569
0.00105276
0.00104816
0.00104311
0.0010376
0.00103163
0.00102522
0.00101836
0.00101106
0.00100332
0.000995151
0.000986565
0.00101247
0.00101222
0.00101143
0.00101011
0.00100837
0.00100623
0.00100366
0.00100067
0.000997242
0.000993392
0.00098912
0.000984426
0.000979314
0.000973786
0.000967846
0.000961499
0.000954749
0.000947604
0.000940069
0.000932153
0.000951009
0.000950776
0.000950039
0.000948821
0.000947208
0.000945223
0.000942851
0.000940081
0.000936915
0.000933359
0.000929415
0.000925085
0.000920373
0.000915281
0.000909813
0.000903975
0.000897771
0.000891208
0.000884291
0.000877029
0.000888891
0.000888676
0.000887999
0.00088688
0.000885398
0.000883574
0.000881396
0.000878853
0.000875949
0.000872687
0.000869071
0.000865104
0.000860789
0.000856128
0.000851127
0.000845788
0.000840119
0.000834124
0.000827808
0.00082118
0.000826156
0.00082596
0.000825343
0.000824322
0.000822971
0.000821309
0.000819324
0.000817008
0.000814362
0.000811392
0.000808102
0.000804493
0.000800568
0.000796331
0.000791785
0.000786935
0.000781786
0.000776343
0.000770611
0.000764596
0.000762821
0.000762644
0.000762086
0.000761163
0.000759941
0.000758438
0.000756644
0.00075455
0.000752159
0.000749476
0.000746504
0.000743245
0.000739701
0.000735876
0.000731774
0.000727398
0.000722753
0.000717844
0.000712675
0.000707251
0.000698882
0.000698723
0.000698223
0.000697396
0.0006963
0.000694954
0.000693346
0.00069147
0.000689328
0.000686924
0.000684262
0.000681343
0.000678169
0.000674745
0.000671072
0.000667155
0.000662998
0.000658604
0.000653978
0.000649124
0.000634306
0.000634166
0.000633721
0.000632987
0.000632014
0.000630819
0.000629391
0.000627726
0.000625825
0.000623691
0.000621329
0.000618738
0.000615922
0.000612884
0.000609625
0.00060615
0.000602461
0.000598563
0.000594458
0.000590152
0.000569033
0.00056891
0.00056852
0.000567876
0.000567023
0.000565974
0.000564722
0.000563261
0.000561594
0.000559722
0.00055765
0.000555377
0.000552907
0.000550242
0.000547384
0.000544335
0.000541099
0.000537679
0.000534078
0.000530299
0.00050296
0.000502853
0.000502515
0.000501957
0.000501218
0.00050031
0.000499225
0.00049796
0.000496516
0.000494896
0.000493101
0.000491134
0.000488995
0.000486687
0.000484212
0.000481572
0.00047877
0.000475808
0.000472688
0.000469415
0.000435951
0.00043586
0.000435575
0.000435102
0.000434476
0.000433706
0.000432786
0.000431713
0.000430488
0.000429113
0.000427591
0.000425921
0.000424106
0.000422147
0.000420045
0.000417804
0.000415424
0.000412909
0.000410259
0.000407478
0.000367791
0.000367714
0.000367475
0.00036708
0.000366558
0.000365917
0.000365152
0.00036426
0.000363241
0.000362099
0.000360833
0.000359446
0.000357938
0.00035631
0.000354564
0.000352702
0.000350725
0.000348635
0.000346434
0.000344124
0.000298259
0.000298201
0.000298015
0.000297705
0.000297294
0.000296787
0.000296181
0.000295474
0.000294667
0.00029376
0.000292755
0.000291653
0.000290455
0.000289161
0.000287773
0.000286292
0.000284719
0.000283055
0.000281303
0.000279462
0.000226917
0.000226867
0.000226716
0.000226473
0.000226155
0.000225764
0.000225299
0.000224758
0.000224141
0.00022345
0.000222685
0.000221847
0.000220936
0.000219954
0.000218902
0.000217779
0.000216587
0.000215328
0.000214001
0.000212609
0.000153523
0.000153502
0.000153419
0.000153271
0.00015307
0.00015282
0.000152521
0.00015217
0.000151768
0.000151316
0.000150814
0.000150264
0.000149664
0.000149016
0.00014832
0.000147577
0.000146788
0.000145953
0.000145072
0.000144147
7.70589e-05
7.70212e-05
7.69437e-05
7.68394e-05
7.67136e-05
7.65648e-05
7.6391e-05
7.61921e-05
7.59687e-05
7.57212e-05
7.54499e-05
7.51547e-05
7.4836e-05
7.4494e-05
7.4129e-05
7.37412e-05
7.3331e-05
7.28986e-05
7.24444e-05
7.19687e-05
0.00547117
0.0035146
0.00222441
0.00239763
0.00262186
0.00237443
0.00212278
0.00195327
0.00181645
0.00170057
0.00160228
0.00151716
0.00144088
0.00137256
0.00131048
0.00125357
0.00120088
0.00115193
0.00110615
0.00106313
0.0010225
0.000984052
0.00094754
0.000912759
0.000879528
0.000847743
0.000817267
0.000787995
0.000759819
0.000732676
0.000706484
0.000681174
0.00065668
0.000632968
0.00060998
0.000587677
0.000566012
0.000544955
0.000524474
0.000504537
0.000485115
0.000466186
0.000447725
0.000429712
0.000412123
0.000394946
0.000378161
0.000361752
0.000345705
0.000330009
0.000314651
0.000299619
0.000284906
0.0002705
0.000256396
0.000242585
0.000229064
0.000215827
0.000202871
0.000190196
0.000177802
0.000165688
0.000153859
0.000142323
0.000131091
0.000120171
0.000109583
9.9352e-05
8.95238e-05
8.0115e-05
7.12681e-05
6.28675e-05
5.56411e-05
4.81563e-05
4.52865e-05
3.49159e-05
5.31363e-05
4.23696e-06
0.000154177
-0.000219474
0.00551945
0.00313276
0.00225739
0.00252302
0.00265495
0.00237328
0.00212077
0.0019541
0.00181851
0.00170292
0.00160461
0.00151939
0.00144298
0.00137452
0.0013123
0.00125526
0.00120246
0.0011534
0.00110752
0.00106442
0.00102371
0.000985193
0.000948618
0.000913779
0.000880496
0.000848662
0.000818143
0.00078883
0.000760618
0.000733441
0.000707217
0.000681877
0.000657355
0.000633618
0.000610606
0.000588281
0.000566595
0.000545518
0.000525018
0.000505064
0.000485626
0.00046668
0.000448205
0.000430177
0.000412576
0.000395386
0.000378589
0.000362168
0.000346111
0.000330404
0.000315036
0.000299995
0.000285272
0.000270858
0.000256745
0.000242927
0.000229398
0.000216153
0.00020319
0.000190509
0.000178108
0.000165987
0.000154152
0.00014261
0.000131373
0.000120447
0.000109854
9.96182e-05
8.97851e-05
8.03715e-05
7.15199e-05
6.31145e-05
5.58833e-05
4.83935e-05
4.5518e-05
3.51424e-05
5.33509e-05
4.46895e-06
0.000154369
-0.000219348
0.00545451
0.00309107
0.00233953
0.0025737
0.00266183
0.0023762
0.00212521
0.00195926
0.00182384
0.00170816
0.00160964
0.00152413
0.00144742
0.00137867
0.00131617
0.00125888
0.00120584
0.00115657
0.00111051
0.00106723
0.00102637
0.000987716
0.000951013
0.000916057
0.000882666
0.000850734
0.000820123
0.000790727
0.000762436
0.000735186
0.000708895
0.000683492
0.000658911
0.000635118
0.000612054
0.00058968
0.000567948
0.000546828
0.000526287
0.000506295
0.000486819
0.000467839
0.000449331
0.000431272
0.00041364
0.000396422
0.000379598
0.000363151
0.000347069
0.000331339
0.000315948
0.000300885
0.000286142
0.000271708
0.000257576
0.000243739
0.000230193
0.000216931
0.000203952
0.000191254
0.000178839
0.000166703
0.000154854
0.000143299
0.000132048
0.00012111
0.000110505
0.000100257
9.04124e-05
8.09877e-05
7.21254e-05
6.37094e-05
5.64685e-05
4.89673e-05
4.60852e-05
3.56906e-05
5.39093e-05
4.97479e-06
0.000155013
-0.000219121
0.00540113
0.00313264
0.00238031
0.00257574
0.00265947
0.00238197
0.00213216
0.00196582
0.00183022
0.00171437
0.00161558
0.00152975
0.0014527
0.00138362
0.00132081
0.00126324
0.00120994
0.00116044
0.00111416
0.00107069
0.00102965
0.000990827
0.000953974
0.00091888
0.000885362
0.000853313
0.000822593
0.000793095
0.000764711
0.000737373
0.000711
0.00068552
0.000660868
0.000637007
0.00061388
0.000591446
0.000569658
0.000548484
0.000527893
0.000507853
0.000488332
0.000469309
0.00045076
0.000432662
0.000414993
0.000397739
0.000380881
0.000364403
0.00034829
0.00033253
0.000317111
0.000302021
0.000287252
0.000272793
0.000258637
0.000244777
0.000231208
0.000217925
0.000204926
0.000192208
0.000179773
0.00016762
0.000155753
0.00014418
0.000132913
0.000121959
0.000111338
0.000101075
9.12165e-05
8.17777e-05
7.2902e-05
6.44726e-05
5.72192e-05
4.9704e-05
4.68126e-05
3.6397e-05
5.4621e-05
5.637e-06
0.00015585
-0.000218847
0.00535895
0.00315067
0.00239195
0.00257402
0.00265791
0.00238621
0.00213783
0.00197156
0.0018359
0.00171993
0.00162094
0.00153486
0.00145756
0.00138822
0.00132517
0.00126736
0.00121385
0.00116414
0.00111767
0.00107403
0.00103283
0.000993863
0.000956875
0.000921655
0.000888022
0.000855864
0.000825044
0.000795452
0.00076698
0.00073956
0.00071311
0.000687557
0.000662837
0.000638912
0.000615724
0.000593233
0.00057139
0.000550165
0.000529525
0.000509439
0.000489874
0.000470809
0.00045222
0.000434083
0.000416378
0.00039909
0.000382198
0.000365688
0.000349545
0.000333756
0.000318308
0.000303191
0.000288396
0.000273912
0.000259732
0.000245849
0.000232258
0.000218954
0.000205934
0.000193196
0.000180742
0.00016857
0.000156686
0.000145095
0.000133812
0.000122841
0.000112205
0.000101927
9.20529e-05
8.25998e-05
7.37102e-05
6.52672e-05
5.80006e-05
5.04718e-05
4.7568e-05
3.71368e-05
5.53478e-05
6.35267e-06
0.000156707
-0.000218568
0.00531539
0.00315656
0.00240343
0.00257637
0.00265563
0.00238796
0.00214177
0.00197617
0.00184069
0.0017247
0.0016256
0.00153937
0.00146191
0.00139239
0.00132916
0.00127118
0.00121749
0.00116762
0.00112101
0.00107722
0.00103589
0.000996794
0.000959689
0.00092436
0.000890624
0.00085837
0.000827459
0.000797783
0.00076923
0.000741735
0.000715213
0.000689594
0.00066481
0.000640825
0.00061758
0.000595034
0.00057314
0.000551866
0.00053118
0.000511049
0.000491442
0.000472336
0.000453708
0.000435535
0.000417795
0.000400472
0.000383548
0.000367007
0.000350833
0.000335016
0.000319541
0.000304397
0.000289576
0.000275068
0.000260864
0.000246958
0.000233345
0.000220019
0.000206979
0.000194221
0.000181748
0.000169557
0.000157655
0.000146047
0.000134746
0.000123759
0.000113107
0.000102813
9.29249e-05
8.34573e-05
7.45534e-05
6.60965e-05
5.8816e-05
5.12738e-05
4.83543e-05
3.79132e-05
5.609e-05
7.12956e-06
0.000157563
-0.000218242
0.00526792
0.00316384
0.0024193
0.00257942
0.00265178
0.00238831
0.00214467
0.00197986
0.00184469
0.00172877
0.00162965
0.00154334
0.00146579
0.00139617
0.00133282
0.00127471
0.0012209
0.00117091
0.00112417
0.00108027
0.00103883
0.000999634
0.000962429
0.000927007
0.000893182
0.000860843
0.000829852
0.0008001
0.000771475
0.000743912
0.000717325
0.000691643
0.0006668
0.000642759
0.000619461
0.000596864
0.000574921
0.000553601
0.00053287
0.000512696
0.000493048
0.000473903
0.000455238
0.000437029
0.000419254
0.000401899
0.000384943
0.000368371
0.000352168
0.000336322
0.00032082
0.00030565
0.000290804
0.000276271
0.000262043
0.000248115
0.000234479
0.000221132
0.000208071
0.000195293
0.000182801
0.000170591
0.00015867
0.000147045
0.000135727
0.000124723
0.000114055
0.000103746
9.38422e-05
8.43597e-05
7.54412e-05
6.69701e-05
5.96746e-05
5.21194e-05
4.91801e-05
3.87355e-05
5.68546e-05
7.97977e-06
0.000158408
-0.000217827
0.00521795
0.00317359
0.00243687
0.00258196
0.00264701
0.00238798
0.00214685
0.00198279
0.00184796
0.00173217
0.00163308
0.00154676
0.00146919
0.00139952
0.0013361
0.00127792
0.00122403
0.00117396
0.00112714
0.00108315
0.00104162
0.00100235
0.000965063
0.000929564
0.000895666
0.000863256
0.000832197
0.000802379
0.000773692
0.000746068
0.000719423
0.000693686
0.00066879
0.000644698
0.00062135
0.000598706
0.000576718
0.000555355
0.000534582
0.000514368
0.000494682
0.0004755
0.0004568
0.000438556
0.000420748
0.000403361
0.000386375
0.000369773
0.000353541