/*--------------------------------*- C++ -*----------------------------------*\
| =========                 |                                                 |
| \\      /  F ield         | OpenFOAM: The Open Source CFD Toolbox           |
|  \\    /   O peration     | Version:  v1912                                 |
|   \\  /    A nd           | Website:  www.openfoam.com                      |
|    \\/     M anipulation  |                                                 |
\*---------------------------------------------------------------------------*/
FoamFile
{
    version     2.0;
    format      ascii;
    class       volVectorField;
    location    "300";
    object      U;
}
// * * * * * * * * * * * * * * * * * * * * * * * * * * * * * * * * * * * * * //

dimensions      [0 1 -1 0 0 0 0];


internalField   nonuniform List<vector> 
10000
(
(1 2.15217e-08 0)
(0.999996 6.75543e-08 0)
(0.999988 1.16627e-07 0)
(0.999976 1.66182e-07 0)
(0.999959 2.18364e-07 0)
(0.999937 2.74983e-07 0)
(0.999911 3.37167e-07 0)
(0.999879 4.07137e-07 0)
(0.99984 4.86748e-07 0)
(0.999794 5.8106e-07 0)
(0.999739 6.90165e-07 0)
(0.999673 8.33821e-07 0)
(0.999593 9.93763e-07 0)
(0.9995 1.26645e-06 0)
(0.999372 1.47472e-06 0)
(0.999243 2.30959e-06 0)
(0.998967 1.93036e-06 0)
(0.998911 8.56563e-06 0)
(0.997466 -1.35378e-05 0)
(1.00109 0.000715586 0)
(1 6.58194e-08 0)
(0.999996 2.0649e-07 0)
(0.999988 3.56364e-07 0)
(0.999976 5.07917e-07 0)
(0.999959 6.67377e-07 0)
(0.999937 8.40531e-07 0)
(0.999911 1.03107e-06 0)
(0.999879 1.24553e-06 0)
(0.99984 1.48645e-06 0)
(0.999794 1.77576e-06 0)
(0.999739 2.11134e-06 0)
(0.999673 2.55184e-06 0)
(0.999593 3.03488e-06 0)
(0.9995 3.87e-06 0)
(0.999372 4.5223e-06 0)
(0.999244 7.07278e-06 0)
(0.998968 5.86847e-06 0)
(0.998909 2.59134e-05 0)
(0.997503 -3.59051e-05 0)
(1.00052 0.000593356 0)
(1 1.12566e-07 0)
(0.999996 3.53166e-07 0)
(0.999988 6.09321e-07 0)
(0.999976 8.68599e-07 0)
(0.999959 1.14151e-06 0)
(0.999937 1.43766e-06 0)
(0.999911 1.76347e-06 0)
(0.999879 2.12976e-06 0)
(0.99984 2.54341e-06 0)
(0.999794 3.03749e-06 0)
(0.999739 3.61109e-06 0)
(0.999673 4.36223e-06 0)
(0.999593 5.19401e-06 0)
(0.9995 6.61562e-06 0)
(0.999372 7.73802e-06 0)
(0.999244 1.20543e-05 0)
(0.998969 1.01526e-05 0)
(0.998904 4.35782e-05 0)
(0.997555 -5.14009e-05 0)
(0.99989 0.000914881 0)
(1 1.62179e-07 0)
(0.999996 5.08371e-07 0)
(0.999988 8.76764e-07 0)
(0.999976 1.24991e-06 0)
(0.999959 1.6427e-06 0)
(0.999937 2.06884e-06 0)
(0.999911 2.53776e-06 0)
(0.999879 3.0647e-06 0)
(0.99984 3.66016e-06 0)
(0.999794 4.37096e-06 0)
(0.999739 5.1968e-06 0)
(0.999673 6.27656e-06 0)
(0.999593 7.47552e-06 0)
(0.9995 9.51647e-06 0)
(0.999372 1.1144e-05 0)
(0.999243 1.73092e-05 0)
(0.99897 1.47562e-05 0)
(0.998897 6.13955e-05 0)
(0.997626 -5.93716e-05 0)
(0.999301 0.001002 0)
(1 2.14717e-07 0)
(0.999996 6.72472e-07 0)
(0.999988 1.1594e-06 0)
(0.999976 1.65287e-06 0)
(0.999959 2.17233e-06 0)
(0.999938 2.73585e-06 0)
(0.999911 3.35602e-06 0)
(0.999879 4.0527e-06 0)
(0.99984 4.84018e-06 0)
(0.999794 5.77997e-06 0)
(0.999739 6.87253e-06 0)
(0.999674 8.29926e-06 0)
(0.999593 9.88656e-06 0)
(0.9995 1.25801e-05 0)
(0.999372 1.47477e-05 0)
(0.999243 2.28376e-05 0)
(0.998972 1.97453e-05 0)
(0.998888 7.91504e-05 0)
(0.997705 -6.01221e-05 0)
(0.998786 0.00103274 0)
(1 2.70308e-07 0)
(0.999996 8.45921e-07 0)
(0.999988 1.45801e-06 0)
(0.999976 2.07862e-06 0)
(0.999959 2.73193e-06 0)
(0.999938 3.4406e-06 0)
(0.999911 4.22054e-06 0)
(0.999879 5.09653e-06 0)
(0.99984 6.08703e-06 0)
(0.999794 7.2687e-06 0)
(0.999739 8.64303e-06 0)
(0.999674 1.04359e-05 0)
(0.999593 1.24344e-05 0)
(0.9995 1.58147e-05 0)
(0.999373 1.85603e-05 0)
(0.999243 2.86442e-05 0)
(0.998974 2.51783e-05 0)
(0.998877 9.6678e-05 0)
(0.997789 -5.40612e-05 0)
(0.998362 0.00104818 0)
(1 3.29172e-07 0)
(0.999996 1.02931e-06 0)
(0.999988 1.77354e-06 0)
(0.999976 2.52854e-06 0)
(0.999959 3.32326e-06 0)
(0.999938 4.18532e-06 0)
(0.999911 5.13412e-06 0)
(0.999879 6.19959e-06 0)
(0.99984 7.40432e-06 0)
(0.999794 8.84161e-06 0)
(0.999739 1.05138e-05 0)
(0.999674 1.26932e-05 0)
(0.999593 1.51265e-05 0)
(0.9995 1.92292e-05 0)
(0.999373 2.25954e-05 0)
(0.999243 3.47363e-05 0)
(0.998977 3.11056e-05 0)
(0.998866 0.00011388 0)
(0.997872 -4.18965e-05 0)
(0.998031 0.00105654 0)
(1 3.91484e-07 0)
(0.999996 1.22317e-06 0)
(0.999988 2.10691e-06 0)
(0.999976 3.00389e-06 0)
(0.999959 3.94804e-06 0)
(0.999938 4.97215e-06 0)
(0.999911 6.09935e-06 0)
(0.999879 7.36499e-06 0)
(0.99984 8.79608e-06 0)
(0.999794 1.05034e-05 0)
(0.999739 1.24904e-05 0)
(0.999674 1.50774e-05 0)
(0.999593 1.79711e-05 0)
(0.999501 2.28329e-05 0)
(0.999373 2.68665e-05 0)
(0.999243 4.1121e-05 0)
(0.99898 3.75777e-05 0)
(0.998854 0.000130728 0)
(0.997949 -2.44353e-05 0)
(0.997788 0.0010596 0)
(1 4.57471e-07 0)
(0.999996 1.42811e-06 0)
(0.999988 2.45912e-06 0)
(0.999976 3.50615e-06 0)
(0.999959 4.60816e-06 0)
(0.999938 5.8035e-06 0)
(0.999911 7.11917e-06 0)
(0.999879 8.59627e-06 0)
(0.99984 1.02664e-05 0)
(0.999794 1.22589e-05 0)
(0.999739 1.45786e-05 0)
(0.999674 1.75957e-05 0)
(0.999594 2.09767e-05 0)
(0.999501 2.66354e-05 0)
(0.999373 3.13877e-05 0)
(0.999243 4.78057e-05 0)
(0.998984 4.46368e-05 0)
(0.998843 0.00014724 0)
(0.99802 -2.57011e-06 0)
(0.997622 0.00106136 0)
(1 5.2734e-07 0)
(0.999996 1.64476e-06 0)
(0.999988 2.8312e-06 0)
(0.999976 4.03678e-06 0)
(0.999959 5.30558e-06 0)
(0.999938 6.68181e-06 0)
(0.999911 8.19658e-06 0)
(0.999879 9.89703e-06 0)
(0.99984 1.18197e-05 0)
(0.999794 1.41135e-05 0)
(0.999739 1.67847e-05 0)
(0.999674 2.02552e-05 0)
(0.999594 2.4152e-05 0)
(0.999501 3.06466e-05 0)
(0.999374 3.61745e-05 0)
(0.999243 5.47999e-05 0)
(0.998987 5.2317e-05 0)
(0.998833 0.00016348 0)
(0.998082 2.28569e-05 0)
(0.99752 0.00106269 0)
(1 6.01366e-07 0)
(0.999996 1.87385e-06 0)
(0.999988 3.22434e-06 0)
(0.999976 4.59748e-06 0)
(0.999959 6.04245e-06 0)
(0.999938 7.60983e-06 0)
(0.999911 9.33492e-06 0)
(0.999879 1.12714e-05 0)
(0.99984 1.34605e-05 0)
(0.999794 1.60725e-05 0)
(0.999739 1.91151e-05 0)
(0.999674 2.30639e-05 0)
(0.999594 2.75065e-05 0)
(0.999501 3.48774e-05 0)
(0.999374 4.1241e-05 0)
(0.999243 6.21121e-05 0)
(0.998991 6.06442e-05 0)
(0.998824 0.00017953 0)
(0.998136 5.1065e-05 0)
(0.99747 0.00106546 0)
(1 6.79771e-07 0)
(0.999996 2.11604e-06 0)
(0.999988 3.63965e-06 0)
(0.999976 5.18982e-06 0)
(0.999959 6.82092e-06 0)
(0.999938 8.59022e-06 0)
(0.999911 1.05375e-05 0)
(0.999879 1.27232e-05 0)
(0.99984 1.51937e-05 0)
(0.999794 1.81418e-05 0)
(0.999739 2.15768e-05 0)
(0.999674 2.60295e-05 0)
(0.999594 3.105e-05 0)
(0.999501 3.93381e-05 0)
(0.999375 4.66045e-05 0)
(0.999243 6.97555e-05 0)
(0.998995 6.96374e-05 0)
(0.998817 0.000195501 0)
(0.998181 8.14176e-05 0)
(0.997458 0.00106915 0)
(1 7.62844e-07 0)
(0.999996 2.3721e-06 0)
(0.999988 4.07837e-06 0)
(0.999976 5.8156e-06 0)
(0.999959 7.64329e-06 0)
(0.999938 9.6259e-06 0)
(0.999911 1.18078e-05 0)
(0.999879 1.42568e-05 0)
(0.99984 1.70244e-05 0)
(0.999794 2.03272e-05 0)
(0.999739 2.41767e-05 0)
(0.999674 2.91602e-05 0)
(0.999594 3.47927e-05 0)
(0.999502 4.40402e-05 0)
(0.999376 5.22796e-05 0)
(0.999243 7.77406e-05 0)
(0.999 7.93131e-05 0)
(0.998811 0.000211494 0)
(0.99822 0.000113395 0)
(0.997474 0.0010744 0)
(1 8.50852e-07 0)
(0.999996 2.6428e-06 0)
(0.999988 4.54177e-06 0)
(0.999976 6.47662e-06 0)
(0.999959 8.51198e-06 0)
(0.999938 1.07199e-05 0)
(0.999911 1.31496e-05 0)
(0.999879 1.58766e-05 0)
(0.99984 1.89578e-05 0)
(0.999794 2.26351e-05 0)
(0.999739 2.69226e-05 0)
(0.999674 3.2465e-05 0)
(0.999595 3.87454e-05 0)
(0.999502 4.8995e-05 0)
(0.999377 5.82846e-05 0)
(0.999243 8.60835e-05 0)
(0.999004 8.96773e-05 0)
(0.998808 0.000227611 0)
(0.998253 0.000146594 0)
(0.997509 0.00108035 0)
(1 9.44135e-07 0)
(0.999996 2.92906e-06 0)
(0.999988 5.03129e-06 0)
(0.999976 7.17497e-06 0)
(0.999959 9.42961e-06 0)
(0.999938 1.18755e-05 0)
(0.999911 1.45669e-05 0)
(0.999879 1.75875e-05 0)
(0.99984 2.09996e-05 0)
(0.999794 2.50723e-05 0)
(0.999739 2.98218e-05 0)
(0.999675 3.59529e-05 0)
(0.999595 4.2919e-05 0)
(0.999502 5.4215e-05 0)
(0.999377 6.46331e-05 0)
(0.999244 9.47947e-05 0)
(0.999008 0.00010074 0)
(0.998806 0.000243926 0)
(0.998282 0.000180716 0)
(0.997556 0.00108738 0)
(1 1.04298e-06 0)
(0.999996 3.2317e-06 0)
(0.999988 5.54831e-06 0)
(0.999976 7.91259e-06 0)
(0.999959 1.03988e-05 0)
(0.999938 1.30961e-05 0)
(0.999911 1.60637e-05 0)
(0.999879 1.93943e-05 0)
(0.99984 2.31556e-05 0)
(0.999795 2.76454e-05 0)
(0.99974 3.28831e-05 0)
(0.999675 3.96334e-05 0)
(0.999595 4.73251e-05 0)
(0.999503 5.97122e-05 0)
(0.999379 7.13448e-05 0)
(0.999245 0.000103893 0)
(0.999013 0.000112503 0)
(0.998806 0.000260504 0)
(0.998309 0.000215552 0)
(0.997611 0.0010946 0)
(1 1.14776e-06 0)
(0.999996 3.55167e-06 0)
(0.999988 6.09432e-06 0)
(0.999976 8.69163e-06 0)
(0.999959 1.14224e-05 0)
(0.999938 1.43851e-05 0)
(0.999911 1.76443e-05 0)
(0.999879 2.13021e-05 0)
(0.999841 2.5432e-05 0)
(0.999795 3.03617e-05 0)
(0.99974 3.61144e-05 0)
(0.999675 4.35159e-05 0)
(0.999596 5.1976e-05 0)
(0.999503 6.54991e-05 0)
(0.99938 7.84343e-05 0)
(0.999246 0.000113389 0)
(0.999018 0.000124981 0)
(0.998808 0.000277386 0)
(0.998334 0.000250966 0)
(0.99767 0.00110228 0)
(1 1.2588e-06 0)
(0.999996 3.88993e-06 0)
(0.999988 6.6709e-06 0)
(0.999976 9.51432e-06 0)
(0.999959 1.25034e-05 0)
(0.999938 1.57462e-05 0)
(0.999911 1.93133e-05 0)
(0.999879 2.33165e-05 0)
(0.999841 2.78352e-05 0)
(0.999795 3.32287e-05 0)
(0.99974 3.95252e-05 0)
(0.999676 4.76111e-05 0)
(0.999596 5.68838e-05 0)
(0.999504 7.15888e-05 0)
(0.999381 8.59215e-05 0)
(0.999247 0.0001233 0)
(0.999023 0.000138171 0)
(0.998811 0.000294595 0)
(0.998359 0.00028683 0)
(0.997731 0.00110976 0)
(1 1.37651e-06 0)
(0.999996 4.24761e-06 0)
(0.999988 7.27977e-06 0)
(0.999976 1.03831e-05 0)
(0.999959 1.36448e-05 0)
(0.999938 1.71835e-05 0)
(0.999911 2.10753e-05 0)
(0.999879 2.54429e-05 0)
(0.999841 3.03721e-05 0)
(0.999795 3.62544e-05 0)
(0.99974 4.3124e-05 0)
(0.999676 5.19287e-05 0)
(0.999597 6.20614e-05 0)
(0.999505 7.79942e-05 0)
(0.999383 9.3819e-05 0)
(0.999248 0.000133633 0)
(0.999028 0.00015209 0)
(0.998815 0.000312133 0)
(0.998384 0.000323061 0)
(0.997794 0.00111739 0)
(1 1.50127e-06 0)
(0.999996 4.62573e-06 0)
(0.999988 7.92262e-06 0)
(0.999976 1.13005e-05 0)
(0.999959 1.48499e-05 0)
(0.999938 1.87009e-05 0)
(0.999912 2.29355e-05 0)
(0.99988 2.76875e-05 0)
(0.999841 3.30495e-05 0)
(0.999795 3.94466e-05 0)
(0.999741 4.69209e-05 0)
(0.999676 5.64802e-05 0)
(0.999598 6.75217e-05 0)
(0.999506 8.47288e-05 0)
(0.999384 0.000102148 0)
(0.99925 0.000144407 0)
(0.999034 0.000166736 0)
(0.998821 0.000330001 0)
(0.99841 0.000359536 0)
(0.997857 0.00112464 0)
(1 1.63349e-06 0)
(0.999996 5.02543e-06 0)
(0.999988 8.60123e-06 0)
(0.999976 1.22689e-05 0)
(0.999959 1.61221e-05 0)
(0.999938 2.03026e-05 0)
(0.999912 2.48986e-05 0)
(0.99988 3.00559e-05 0)
(0.999841 3.58749e-05 0)
(0.999796 4.28139e-05 0)
(0.999741 5.09253e-05 0)
(0.999677 6.12757e-05 0)
(0.999598 7.32786e-05 0)
(0.999507 9.18053e-05 0)
(0.999386 0.000110921 0)
(0.999252 0.000155625 0)
(0.99904 0.00018212 0)
(0.998827 0.000348188 0)
(0.998437 0.000396178 0)
(0.997921 0.00113182 0)
(1 1.77361e-06 0)
(0.999996 5.44789e-06 0)
(0.999988 9.31753e-06 0)
(0.999976 1.3291e-05 0)
(0.999959 1.74649e-05 0)
(0.999938 2.1993e-05 0)
(0.999912 2.69703e-05 0)
(0.99988 3.2555e-05 0)
(0.999842 3.88555e-05 0)
(0.999796 4.63648e-05 0)
(0.999742 5.5148e-05 0)
(0.999678 6.63277e-05 0)
(0.999599 7.93449e-05 0)
(0.999508 9.92378e-05 0)
(0.999388 0.000120159 0)
(0.999255 0.000167305 0)
(0.999047 0.000198234 0)
(0.998835 0.000366681 0)
(0.998464 0.000432828 0)
(0.997985 0.00113854 0)
(1 1.92207e-06 0)
(0.999996 5.89442e-06 0)
(0.999988 1.00735e-05 0)
(0.999976 1.43698e-05 0)
(0.999959 1.88821e-05 0)
(0.999938 2.37766e-05 0)
(0.999912 2.91559e-05 0)
(0.99988 3.51907e-05 0)
(0.999842 4.19998e-05 0)
(0.999796 5.01085e-05 0)
(0.999742 5.95986e-05 0)
(0.999678 7.1646e-05 0)
(0.9996 8.57351e-05 0)
(0.999509 0.000107038 0)
(0.999391 0.00012987 0)
(0.999258 0.000179445 0)
(0.999055 0.000215083 0)
(0.998844 0.000385462 0)
(0.998493 0.000469393 0)
(0.99805 0.00114516 0)
(1 2.07934e-06 0)
(0.999996 6.3663e-06 0)
(0.999988 1.08712e-05 0)
(0.999976 1.5508e-05 0)
(0.999959 2.03775e-05 0)
(0.999938 2.56584e-05 0)
(0.999912 3.14616e-05 0)
(0.99988 3.79706e-05 0)
(0.999842 4.53153e-05 0)
(0.999797 5.4054e-05 0)
(0.999743 6.42884e-05 0)
(0.999679 7.72438e-05 0)
(0.999601 9.24618e-05 0)
(0.999511 0.000115221 0)
(0.999393 0.000140073 0)
(0.999261 0.000192061 0)
(0.999063 0.000232642 0)
(0.998855 0.00040452 0)
(0.998523 0.000505666 0)
(0.998115 0.00115132 0)
(1 2.24588e-06 0)
(0.999996 6.86483e-06 0)
(0.999988 1.17128e-05 0)
(0.999976 1.67086e-05 0)
(0.999959 2.19549e-05 0)
(0.999938 2.76431e-05 0)
(0.999912 3.38928e-05 0)
(0.999881 4.09009e-05 0)
(0.999842 4.88107e-05 0)
(0.999797 5.82107e-05 0)
(0.999743 6.92277e-05 0)
(0.99968 8.31316e-05 0)
(0.999603 9.95393e-05 0)
(0.999512 0.000123798 0)
(0.999396 0.000150777 0)
(0.999265 0.000205153 0)
(0.999071 0.0002509 0)
(0.998866 0.000423841 0)
(0.998554 0.000541534 0)
(0.998181 0.0011573 0)
(1 2.42217e-06 0)
(0.999996 7.39147e-06 0)
(0.999988 1.26005e-05 0)
(0.999976 1.79749e-05 0)
(0.99996 2.36186e-05 0)
(0.999939 2.97359e-05 0)
(0.999912 3.64561e-05 0)
(0.999881 4.39896e-05 0)
(0.999843 5.24941e-05 0)
(0.999798 6.25883e-05 0)
(0.999744 7.44279e-05 0)
(0.999681 8.93227e-05 0)
(0.999604 0.000106979 0)
(0.999514 0.000132782 0)
(0.9994 0.000161992 0)
(0.999269 0.000218732 0)
(0.999081 0.000269814 0)
(0.998879 0.000443409 0)
(0.998586 0.000576763 0)
(0.998246 0.00116279 0)
(1 2.6087e-06 0)
(0.999996 7.94764e-06 0)
(0.999988 1.35366e-05 0)
(0.999976 1.93099e-05 0)
(0.99996 2.53729e-05 0)
(0.999939 3.19418e-05 0)
(0.999913 3.91575e-05 0)
(0.999881 4.7243e-05 0)
(0.999843 5.6375e-05 0)
(0.999798 6.71962e-05 0)
(0.999745 7.98993e-05 0)
(0.999682 9.58263e-05 0)
(0.999606 0.000114796 0)
(0.999517 0.000142183 0)
(0.999403 0.000173723 0)
(0.999274 0.000232795 0)
(0.999091 0.000289357 0)
(0.998894 0.000463211 0)
(0.998619 0.000611247 0)
(0.998311 0.00116811 0)
(1 2.80597e-06 0)
(0.999996 8.5349e-06 0)
(0.999988 1.45237e-05 0)
(0.999976 2.07171e-05 0)
(0.99996 2.7222e-05 0)
(0.999939 3.42665e-05 0)
(0.999913 4.20038e-05 0)
(0.999881 5.06699e-05 0)
(0.999844 6.04613e-05 0)
(0.999799 7.20445e-05 0)
(0.999746 8.56533e-05 0)
(0.999683 0.000102656 0)
(0.999608 0.000122999 0)
(0.999519 0.000152013 0)
(0.999408 0.000185974 0)
(0.99928 0.000247348 0)
(0.999102 0.000309465 0)
(0.99891 0.000483223 0)
(0.998653 0.000644728 0)
(0.998376 0.00117293 0)
(1 3.01448e-06 0)
(0.999996 9.15467e-06 0)
(0.999988 1.55639e-05 0)
(0.999976 2.21997e-05 0)
(0.99996 2.91704e-05 0)
(0.999939 3.67152e-05 0)
(0.999913 4.50012e-05 0)
(0.999882 5.42769e-05 0)
(0.999844 6.47624e-05 0)
(0.9998 7.71429e-05 0)
(0.999747 9.16999e-05 0)
(0.999685 0.000109822 0)
(0.99961 0.000131599 0)
(0.999522 0.000162281 0)
(0.999412 0.000198743 0)
(0.999286 0.000262387 0)
(0.999114 0.000330085 0)
(0.998927 0.000503428 0)
(0.998689 0.000677096 0)
(0.998441 0.00117747 0)
(1 3.23472e-06 0)
(0.999996 9.80861e-06 0)
(0.999988 1.66601e-05 0)
(0.999976 2.37614e-05 0)
(0.99996 3.12227e-05 0)
(0.999939 3.92938e-05 0)
(0.999914 4.81566e-05 0)
(0.999882 5.80727e-05 0)
(0.999845 6.92861e-05 0)
(0.999801 8.25012e-05 0)
(0.999748 9.80499e-05 0)
(0.999686 0.000117337 0)
(0.999612 0.000140605 0)
(0.999525 0.000172996 0)
(0.999417 0.000212028 0)
(0.999293 0.000277912 0)
(0.999127 0.000351138 0)
(0.998946 0.000523792 0)
(0.998725 0.000708114 0)
(0.998505 0.00118148 0)
(1 3.46717e-06 0)
(0.999996 1.04982e-05 0)
(0.999988 1.78146e-05 0)
(0.999976 2.54054e-05 0)
(0.99996 3.33834e-05 0)
(0.99994 4.20075e-05 0)
(0.999914 5.14765e-05 0)
(0.999883 6.20637e-05 0)
(0.999846 7.40426e-05 0)
(0.999802 8.81284e-05 0)
(0.999749 0.000104713 0)
(0.999688 0.000125207 0)
(0.999615 0.000150027 0)
(0.999529 0.000184161 0)
(0.999423 0.000225817 0)
(0.9993 0.000293908 0)
(0.999141 0.000372556 0)
(0.998967 0.000544282 0)
(0.998762 0.00073772 0)
(0.998569 0.00118516 0)
(1 3.71235e-06 0)
(0.999996 1.12251e-05 0)
(0.999989 1.90302e-05 0)
(0.999977 2.71356e-05 0)
(0.99996 3.56572e-05 0)
(0.99994 4.48625e-05 0)
(0.999914 5.49679e-05 0)
(0.999883 6.62588e-05 0)
(0.999846 7.9039e-05 0)
(0.999803 9.40341e-05 0)
(0.999751 0.000111698 0)
(0.99969 0.000133444 0)
(0.999618 0.000159866 0)
(0.999533 0.000195783 0)
(0.999429 0.000240098 0)
(0.999309 0.000310363 0)
(0.999156 0.000394243 0)
(0.998989 0.000564841 0)
(0.9988 0.00076569 0)
(0.998632 0.00118825 0)
(1 3.97072e-06 0)
(0.999996 1.19908e-05 0)
(0.999989 2.03094e-05 0)
(0.999977 2.89554e-05 0)
(0.999961 3.80487e-05 0)
(0.99994 4.78641e-05 0)
(0.999915 5.86368e-05 0)
(0.999884 7.06649e-05 0)
(0.999847 8.42839e-05 0)
(0.999804 0.000100227 0)
(0.999753 0.000119013 0)
(0.999692 0.000142055 0)
(0.999621 0.000170128 0)
(0.999537 0.000207859 0)
(0.999436 0.000254848 0)
(0.999318 0.000327258 0)
(0.999172 0.000416108 0)
(0.999012 0.000585415 0)
(0.99884 0.000791985 0)
(0.998693 0.00119087 0)
(1 4.24278e-06 0)
(0.999996 1.27971e-05 0)
(0.999989 2.16551e-05 0)
(0.999977 3.08686e-05 0)
(0.999961 4.05623e-05 0)
(0.99994 5.10183e-05 0)
(0.999915 6.24901e-05 0)
(0.999885 7.529e-05 0)
(0.999848 8.97844e-05 0)
(0.999805 0.000106715 0)
(0.999754 0.000126665 0)
(0.999695 0.000151048 0)
(0.999624 0.000180812 0)
(0.999542 0.000220389 0)
(0.999443 0.000270047 0)
(0.999329 0.00034456 0)
(0.999189 0.000438052 0)
(0.999037 0.000605919 0)
(0.99888 0.000816447 0)
(0.998754 0.00119281 0)
(1 4.52892e-06 0)
(0.999996 1.36452e-05 0)
(0.999989 2.30697e-05 0)
(0.999977 3.28783e-05 0)
(0.999961 4.32027e-05 0)
(0.999941 5.43295e-05 0)
(0.999916 6.65338e-05 0)
(0.999886 8.01391e-05 0)
(0.999849 9.55488e-05 0)
(0.999807 0.000113505 0)
(0.999757 0.000134661 0)
(0.999698 0.000160421 0)
(0.999628 0.000191918 0)
(0.999547 0.00023336 0)
(0.999451 0.000285665 0)
(0.99934 0.000362233 0)
(0.999207 0.000459985 0)
(0.999064 0.00062628 0)
(0.998921 0.000839114 0)
(0.998814 0.00119418 0)
(1 4.82967e-06 0)
(0.999996 1.45369e-05 0)
(0.999989 2.4556e-05 0)
(0.999977 3.49885e-05 0)
(0.999961 4.5974e-05 0)
(0.999941 5.78041e-05 0)
(0.999916 7.07739e-05 0)
(0.999886 8.52208e-05 0)
(0.999851 0.000101582 0)
(0.999808 0.000120603 0)
(0.999759 0.000143003 0)
(0.999701 0.000170182 0)
(0.999633 0.000203437 0)
(0.999553 0.000246764 0)
(0.99946 0.000301662 0)
(0.999352 0.000380227 0)
(0.999226 0.000481791 0)
(0.999092 0.000646379 0)
(0.998962 0.000859857 0)
(0.998873 0.00119477 0)
(1 5.14543e-06 0)
(0.999996 1.54737e-05 0)
(0.999989 2.61164e-05 0)
(0.999977 3.72026e-05 0)
(0.999962 4.88805e-05 0)
(0.999942 6.14465e-05 0)
(0.999917 7.52151e-05 0)
(0.999887 9.05396e-05 0)
(0.999852 0.000107889 0)
(0.99981 0.000128013 0)
(0.999761 0.000151693 0)
(0.999704 0.000180327 0)
(0.999637 0.000215358 0)
(0.99956 0.000260577 0)
(0.999469 0.000317992 0)
(0.999366 0.000398483 0)
(0.999246 0.000503368 0)
(0.999121 0.000666115 0)
(0.999004 0.000878727 0)
(0.998931 0.00119462 0)
(1 5.47663e-06 0)
(0.999997 1.64568e-05 0)
(0.999989 2.77534e-05 0)
(0.999978 3.95236e-05 0)
(0.999962 5.19257e-05 0)
(0.999942 6.52613e-05 0)
(0.999918 7.98627e-05 0)
(0.999888 9.61011e-05 0)
(0.999854 0.000114473 0)
(0.999812 0.000135738 0)
(0.999764 0.000160732 0)
(0.999708 0.000190852 0)
(0.999643 0.000227667 0)
(0.999567 0.00027478 0)
(0.999479 0.000334611 0)
(0.99938 0.000416932 0)
(0.999267 0.000524615 0)
(0.999151 0.000685356 0)
(0.999047 0.000895685 0)
(0.998988 0.0011936 0)
(1 5.82355e-06 0)
(0.999997 1.74873e-05 0)
(0.999989 2.94685e-05 0)
(0.999978 4.19542e-05 0)
(0.999962 5.51124e-05 0)
(0.999943 6.92517e-05 0)
(0.999919 8.4719e-05 0)
(0.99989 0.000101908 0)
(0.999855 0.000121337 0)
(0.999815 0.000143779 0)
(0.999767 0.000170112 0)
(0.999712 0.000201746 0)
(0.999649 0.000240341 0)
(0.999575 0.000289336 0)
(0.999491 0.000351462 0)
(0.999395 0.0004355 0)
(0.99929 0.000545436 0)
(0.999183 0.000704005 0)
(0.99909 0.000910842 0)
(0.999043 0.00119179 0)
(1 6.18656e-06 0)
(0.999997 1.85662e-05 0)
(0.999989 3.1264e-05 0)
(0.999978 4.44968e-05 0)
(0.999963 5.84439e-05 0)
(0.999944 7.34209e-05 0)
(0.99992 8.97882e-05 0)
(0.999891 0.000107962 0)
(0.999857 0.000128481 0)
(0.999817 0.000152134 0)
(0.999771 0.000179831 0)
(0.999717 0.000212999 0)
(0.999655 0.000253362 0)
(0.999584 0.000304209 0)
(0.999503 0.000368489 0)
(0.999412 0.000454096 0)
(0.999313 0.000565741 0)
(0.999215 0.000721919 0)
(0.999134 0.000924191 0)
(0.999097 0.00118907 0)
(1 6.56578e-06 0)
(0.999997 1.9694e-05 0)
(0.99999 3.3141e-05 0)
(0.999978 4.7153e-05 0)
(0.999963 6.19216e-05 0)
(0.999944 7.777e-05 0)
(0.999921 9.50706e-05 0)
(0.999893 0.000114263 0)
(0.999859 0.000135903 0)
(0.99982 0.000160795 0)
(0.999775 0.000189876 0)
(0.999722 0.000224587 0)
(0.999662 0.000266695 0)
(0.999593 0.000319347 0)
(0.999515 0.000385626 0)
(0.99943 0.000472625 0)
(0.999338 0.000585438 0)
(0.999249 0.000738998 0)
(0.999178 0.000935858 0)
(0.99915 0.00118553 0)
(1 6.96148e-06 0)
(0.999997 2.08715e-05 0)
(0.99999 3.51006e-05 0)
(0.999979 4.99241e-05 0)
(0.999964 6.55471e-05 0)
(0.999945 8.23002e-05 0)
(0.999922 0.000100567 0)
(0.999894 0.00012081 0)
(0.999861 0.0001436 0)
(0.999823 0.000169755 0)
(0.999779 0.000200236 0)
(0.999728 0.000236491 0)
(0.999669 0.00028031 0)
(0.999603 0.000334701 0)
(0.999529 0.000402803 0)
(0.999448 0.000490988 0)
(0.999364 0.000604447 0)
(0.999283 0.000755121 0)
(0.999222 0.000945864 0)
(0.999202 0.0011811 0)
(1 7.37355e-06 0)
(0.999997 2.20983e-05 0)
(0.99999 3.71426e-05 0)
(0.999979 5.28102e-05 0)
(0.999964 6.93196e-05 0)
(0.999946 8.70102e-05 0)
(0.999923 0.000106274 0)
(0.999896 0.000127598 0)
(0.999864 0.000151562 0)
(0.999826 0.000179001 0)
(0.999783 0.000210888 0)
(0.999734 0.000248679 0)
(0.999677 0.000294159 0)
(0.999614 0.000350209 0)
(0.999544 0.000419944 0)
(0.999468 0.000509089 0)
(0.99939 0.000622682 0)
(0.999318 0.000770222 0)
(0.999266 0.00095434 0)
(0.999253 0.0011759 0)
(1 7.80206e-06 0)
(0.999997 2.33745e-05 0)
(0.99999 3.92674e-05 0)
(0.999979 5.58111e-05 0)
(0.999965 7.32386e-05 0)
(0.999947 9.18978e-05 0)
(0.999925 0.00011219 0)
(0.999898 0.00013462 0)
(0.999867 0.000159781 0)
(0.99983 0.000188518 0)
(0.999788 0.000221812 0)
(0.99974 0.000261116 0)
(0.999686 0.000308199 0)
(0.999626 0.000365804 0)
(0.999559 0.000436968 0)
(0.999489 0.000526816 0)
(0.999418 0.000640071 0)
(0.999353 0.000784194 0)
(0.999309 0.000961314 0)
(0.999303 0.00116988 0)
(1 8.24662e-06 0)
(0.999997 2.46991e-05 0)
(0.99999 4.14732e-05 0)
(0.99998 5.89245e-05 0)
(0.999966 7.73009e-05 0)
(0.999948 9.69581e-05 0)
(0.999926 0.000118306 0)
(0.9999 0.000141866 0)
(0.99987 0.000168241 0)
(0.999834 0.000198283 0)
(0.999794 0.000232976 0)
(0.999747 0.000273761 0)
(0.999696 0.000322372 0)
(0.999638 0.000381412 0)
(0.999576 0.000453792 0)
(0.999511 0.000544073 0)
(0.999446 0.000656544 0)
(0.999389 0.000796998 0)
(0.999353 0.00096691 0)
(0.999352 0.00116317 0)
(1 8.70705e-06 0)
(0.999997 2.60713e-05 0)
(0.999991 4.37588e-05 0)
(0.99998 6.21482e-05 0)
(0.999966 8.15029e-05 0)
(0.999949 0.000102185 0)
(0.999928 0.000124614 0)
(0.999902 0.000149324 0)
(0.999873 0.000176925 0)
(0.999838 0.000208271 0)
(0.999799 0.000244346 0)
(0.999755 0.000286565 0)
(0.999706 0.000336618 0)
(0.999652 0.000396952 0)
(0.999593 0.00047032 0)
(0.999533 0.000560744 0)
(0.999475 0.000672026 0)
(0.999426 0.000808556 0)
(0.999396 0.000971136 0)
(0.999399 0.00115571 0)
(1 9.18261e-06 0)
(0.999997 2.74889e-05 0)
(0.999991 4.61207e-05 0)
(0.999981 6.54774e-05 0)
(0.999967 8.58378e-05 0)
(0.99995 0.00010757 0)
(0.99993 0.000131101 0)
(0.999905 0.000156974 0)
(0.999876 0.000185808 0)
(0.999843 0.00021845 0)
(0.999806 0.00025588 0)
(0.999763 0.000299474 0)
(0.999717 0.000350868 0)
(0.999666 0.000412341 0)
(0.999612 0.000486463 0)
(0.999557 0.000576743 0)
(0.999505 0.000686456 0)
(0.999462 0.000818855 0)
(0.999439 0.000974095 0)
(0.999445 0.00114763 0)
(1 9.67273e-06 0)
(0.999997 2.89503e-05 0)
(0.999991 4.85557e-05 0)
(0.999981 6.89069e-05 0)
(0.999968 9.02977e-05 0)
(0.999952 0.000113102 0)
(0.999932 0.000137753 0)
(0.999908 0.000164798 0)
(0.99988 0.000194864 0)
(0.999848 0.000228783 0)
(0.999812 0.000267529 0)
(0.999772 0.000312426 0)
(0.999728 0.000365044 0)
(0.99968 0.000427486 0)
(0.999631 0.000502115 0)
(0.999581 0.000591958 0)
(0.999535 0.000699764 0)
(0.999499 0.00082784 0)
(0.999481 0.000975789 0)
(0.999491 0.00113888 0)
(1 1.01762e-05 0)
(0.999997 3.04517e-05 0)
(0.999991 5.10578e-05 0)
(0.999982 7.24283e-05 0)
(0.999969 9.48714e-05 0)
(0.999953 0.000118765 0)
(0.999934 0.000144547 0)
(0.999911 0.000172769 0)
(0.999884 0.000204056 0)
(0.999854 0.000239228 0)
(0.99982 0.000279238 0)
(0.999782 0.000325355 0)
(0.99974 0.000379066 0)
(0.999696 0.000442298 0)
(0.99965 0.000517188 0)
(0.999605 0.00060631 0)
(0.999565 0.000711906 0)
(0.999535 0.000835519 0)
(0.999522 0.000976299 0)
(0.999535 0.00112954 0)
(1 1.0692e-05 0)
(0.999997 3.199e-05 0)
(0.999992 5.36208e-05 0)
(0.999982 7.60325e-05 0)
(0.99997 9.95458e-05 0)
(0.999955 0.000124541 0)
(0.999936 0.000151463 0)
(0.999914 0.000180856 0)
(0.999889 0.000213348 0)
(0.99986 0.000249734 0)
(0.999827 0.000290947 0)
(0.999792 0.000338184 0)
(0.999753 0.000392846 0)
(0.999712 0.000456674 0)
(0.999671 0.000531575 0)
(0.999631 0.0006197 0)
(0.999596 0.000722821 0)
(0.999571 0.00084186 0)
(0.999563 0.000975629 0)
(0.999578 0.00111961 0)
(1 1.12183e-05 0)
(0.999997 3.35596e-05 0)
(0.999992 5.62362e-05 0)
(0.999983 7.97069e-05 0)
(0.999971 0.000104304 0)
(0.999956 0.00013041 0)
(0.999939 0.000158469 0)
(0.999918 0.000189023 0)
(0.999893 0.000222693 0)
(0.999866 0.000260247 0)
(0.999835 0.000302587 0)
(0.999802 0.000350836 0)
(0.999766 0.000406295 0)
(0.999729 0.000470523 0)
(0.999692 0.000545189 0)
(0.999656 0.000632061 0)
(0.999627 0.000732481 0)
(0.999607 0.000846886 0)
(0.999603 0.000973846 0)
(0.999619 0.00110912 0)
(1 1.17534e-05 0)
(0.999998 3.51555e-05 0)
(0.999992 5.88942e-05 0)
(0.999984 8.34376e-05 0)
(0.999972 0.000109127 0)
(0.999958 0.000136345 0)
(0.999941 0.000165535 0)
(0.999921 0.00019723 0)
(0.999898 0.000232041 0)
(0.999873 0.000270705 0)
(0.999844 0.000314085 0)
(0.999813 0.000363225 0)
(0.99978 0.000419318 0)
(0.999746 0.000483741 0)
(0.999713 0.000557933 0)
(0.999682 0.000643311 0)
(0.999658 0.000740843 0)
(0.999642 0.000850583 0)
(0.999642 0.000970959 0)
(0.99966 0.00109806 0)
(1 1.22948e-05 0)
(0.999998 3.67699e-05 0)
(0.999993 6.15827e-05 0)
(0.999984 8.72069e-05 0)
(0.999974 0.000113991 0)
(0.99996 0.000142316 0)
(0.999944 0.000172622 0)
(0.999925 0.00020543 0)
(0.999904 0.000241335 0)
(0.99988 0.000281041 0)
(0.999853 0.000325363 0)
(0.999824 0.000375263 0)
(0.999795 0.000431822 0)
(0.999764 0.00049624 0)
(0.999735 0.00056973 0)
(0.999709 0.0006534 0)
(0.999688 0.000747893 0)
(0.999677 0.000852982 0)
(0.999679 0.000967025 0)
(0.999699 0.00108646 0)
(1 1.28399e-05 0)
(0.999998 3.83954e-05 0)
(0.999993 6.42882e-05 0)
(0.999985 9.09953e-05 0)
(0.999975 0.000118869 0)
(0.999962 0.000148289 0)
(0.999947 0.000179688 0)
(0.999929 0.00021357 0)
(0.999909 0.000250513 0)
(0.999887 0.000291181 0)
(0.999862 0.000336338 0)
(0.999836 0.000386859 0)
(0.999809 0.000443709 0)
(0.999782 0.00050792 0)
(0.999757 0.000580493 0)
(0.999735 0.000662263 0)
(0.999719 0.000753605 0)
(0.999711 0.000854084 0)
(0.999716 0.000962055 0)
(0.999736 0.00107432 0)
(1 1.33856e-05 0)
(0.999998 4.00222e-05 0)
(0.999993 6.69946e-05 0)
(0.999986 9.47798e-05 0)
(0.999976 0.000123732 0)
(0.999965 0.000154226 0)
(0.99995 0.000186685 0)
(0.999934 0.000221595 0)
(0.999915 0.000259509 0)
(0.999895 0.00030105 0)
(0.999872 0.000346925 0)
(0.999849 0.000397921 0)
(0.999825 0.000454888 0)
(0.999801 0.000518699 0)
(0.999779 0.000590158 0)
(0.999761 0.000669867 0)
(0.999748 0.000757981 0)
(0.999744 0.000853924 0)
(0.999752 0.000956097 0)
(0.999772 0.00106166 0)
(1 1.39284e-05 0)
(0.999998 4.164e-05 0)
(0.999994 6.96843e-05 0)
(0.999987 9.85352e-05 0)
(0.999978 0.000128547 0)
(0.999967 0.000160085 0)
(0.999954 0.000193562 0)
(0.999938 0.000229443 0)
(0.999921 0.00026825 0)
(0.999902 0.000310566 0)
(0.999882 0.000357034 0)
(0.999861 0.000408356 0)
(0.99984 0.000465267 0)
(0.99982 0.000528491 0)
(0.999801 0.000598656 0)
(0.999787 0.000676168 0)
(0.999778 0.000761009 0)
(0.999777 0.000852515 0)
(0.999786 0.000949166 0)
(0.999807 0.00104846 0)
(1 1.44644e-05 0)
(0.999998 4.32369e-05 0)
(0.999994 7.23372e-05 0)
(0.999988 0.000102233 0)
(0.99998 0.000133275 0)
(0.999969 0.00016582 0)
(0.999957 0.000200263 0)
(0.999943 0.000237048 0)
(0.999928 0.000276664 0)
(0.999911 0.000319647 0)
(0.999893 0.000366578 0)
(0.999874 0.000418074 0)
(0.999856 0.000474761 0)
(0.999838 0.000537225 0)
(0.999823 0.000605941 0)
(0.999812 0.000681149 0)
(0.999806 0.000762703 0)
(0.999808 0.000849892 0)
(0.999819 0.000941299 0)
(0.99984 0.00103473 0)
(1 1.49891e-05 0)
(0.999998 4.48001e-05 0)
(0.999995 7.49317e-05 0)
(0.999989 0.000105842 0)
(0.999981 0.000137877 0)
(0.999972 0.00017138 0)
(0.999961 0.000206729 0)
(0.999948 0.000244341 0)
(0.999934 0.000284672 0)
(0.999919 0.000328209 0)
(0.999903 0.000375469 0)
(0.999887 0.000426988 0)
(0.999871 0.000483287 0)
(0.999857 0.000544832 0)
(0.999845 0.000611961 0)
(0.999837 0.000684786 0)
(0.999834 0.000763065 0)
(0.999838 0.000846075 0)
(0.99985 0.000932514 0)
(0.999872 0.00102048 0)
(1 1.5498e-05 0)
(0.999998 4.63155e-05 0)
(0.999995 7.74444e-05 0)
(0.99999 0.000109331 0)
(0.999983 0.000142311 0)
(0.999974 0.000176714 0)
(0.999964 0.000212899 0)
(0.999953 0.000251253 0)
(0.999941 0.000292197 0)
(0.999927 0.000336168 0)
(0.999914 0.000383623 0)
(0.9999 0.000435015 0)
(0.999887 0.000490775 0)
(0.999875 0.000551257 0)
(0.999866 0.000616688 0)
(0.999861 0.000687075 0)
(0.99986 0.000762115 0)
(0.999866 0.000841098 0)
(0.99988 0.000922842 0)
(0.999902 0.0010057 0)
(1 1.5986e-05 0)
(0.999999 4.77681e-05 0)
(0.999996 7.98503e-05 0)
(0.999991 0.000112663 0)
(0.999985 0.00014653 0)
(0.999977 0.000181768 0)
(0.999968 0.000218708 0)
(0.999958 0.000257712 0)
(0.999947 0.00029916 0)
(0.999936 0.000343444 0)
(0.999924 0.000390956 0)
(0.999913 0.000442079 0)
(0.999902 0.000497156 0)
(0.999893 0.000556449 0)
(0.999887 0.000620091 0)