/*--------------------------------*- C++ -*----------------------------------*\
| =========                 |                                                 |
| \\      /  F ield         | OpenFOAM: The Open Source CFD Toolbox           |
|  \\    /   O peration     | Version:  v1912                                 |
|   \\  /    A nd           | Website:  www.openfoam.com                      |
|    \\/     M anipulation  |                                                 |
\*---------------------------------------------------------------------------*/
FoamFile
{
    version     2.0;
    format      ascii;
    class       volScalarField;
    location    "150";
    object      nut;
}
// * * * * * * * * * * * * * * * * * * * * * * * * * * * * * * * * * * * * * //

dimensions      [0 2 -1 0 0 0 0];


internalField   nonuniform List<scalar> 
12441
(
5.82204e-24
1.79081e-20
8.10617e-20
3.3259e-19
1.06858e-18
3.88979e-18
1.01093e-17
2.50135e-17
6.14083e-17
1.27582e-16
3.05773e-16
7.71783e-16
2.17782e-15
7.39555e-15
1.03798e-13
1.89393e-11
0.000200801
0.00104566
0.00333053
0.0027349
0.00364207
0.00775321
6.34215e-24
3.03419e-20
1.11757e-19
4.2404e-19
1.30259e-18
4.80985e-18
1.22047e-17
3.00248e-17
7.36514e-17
1.54542e-16
3.80011e-16
1.0298e-15
2.82398e-15
9.36628e-15
1.13248e-13
3.89889e-11
5.90904e-05
0.0012689
0.0038089
0.00297699
0.00400381
0.00781733
6.36491e-24
3.59035e-20
1.20805e-19
4.48231e-19
1.37826e-18
4.9093e-18
1.29356e-17
3.2057e-17
8.05604e-17
1.71874e-16
4.18128e-16
1.11816e-15
2.78052e-15
7.6578e-15
5.36183e-14
6.571e-12
1.12293e-05
0.00092624
0.00150978
0.00280672
0.0041563
0.0078909
6.31939e-24
3.77002e-20
1.18561e-19
4.29409e-19
1.32588e-18
4.71614e-18
1.25201e-17
3.13434e-17
7.85419e-17
1.73782e-16
4.24015e-16
1.15476e-15
2.60664e-15
8.46697e-15
3.85642e-14
1.54264e-12
1.63305e-06
0.000641896
0.00112156
0.00272455
0.00431856
0.0079647
6.28534e-24
4.38922e-20
1.29807e-19
4.58418e-19
1.40322e-18
4.78179e-18
1.30975e-17
3.28111e-17
8.43466e-17
1.87638e-16
4.54434e-16
1.28551e-15
3.01433e-15
4.06841e-14
2.47681e-13
2.29704e-12
1.39931e-07
0.000449942
0.0010945
0.00270846
0.00445933
0.00803394
6.23517e-24
4.1297e-20
1.20567e-19
4.2929e-19
1.34327e-18
4.6246e-18
1.27573e-17
3.24103e-17
8.29451e-17
1.9281e-16
4.77245e-16
1.44655e-15
4.52626e-15
1.3279e-12
1.19148e-11
5.10207e-11
4.59434e-07
0.00040791
0.00115139
0.00276452
0.00458782
0.00809948
6.20026e-24
5.02738e-20
1.37825e-19
4.75877e-19
1.46071e-18
4.79488e-18
1.36e-17
3.44709e-17
9.07555e-17
2.11254e-16
5.21161e-16
2.00147e-15
2.49851e-14
4.14235e-11
6.59088e-10
9.37333e-09
1.87575e-05
0.00041511
0.00132819
0.00295496
0.00473834
0.00816218
6.1505e-24
4.34614e-20
1.232e-19
4.40263e-19
1.40875e-18
4.72538e-18
1.35196e-17
3.48637e-17
9.13765e-17
2.23993e-16
5.72877e-16
5.43988e-15
6.08936e-13
2.25192e-09
8.42561e-08
4.96805e-06
0.000193131
0.000462854
0.00178288
0.00335156
0.00493918
0.00822577
6.11769e-24
5.57147e-20
1.46162e-19
4.99791e-19
1.55472e-18
4.96113e-18
1.46191e-17
3.75895e-17
1.02134e-16
2.51102e-16
6.45748e-16
6.13941e-14
2.58656e-11
7.42176e-08
1.04317e-05
0.000151981
0.000772824
0.000805688
0.00273485
0.00403628
0.00522528
0.00829204
6.07086e-24
4.43588e-20
1.25464e-19
4.56741e-19
1.50818e-18
4.95635e-18
1.47556e-17
3.87465e-17
1.04944e-16
2.75302e-16
7.49108e-16
1.68321e-12
1.08174e-09
4.42944e-06
0.000188635
0.000589167
0.00157186
0.00147899
0.00445511
0.00508849
0.00561178
0.00836448
6.04167e-24
6.0271e-20
1.53466e-19
5.26027e-19
1.67337e-18
5.20851e-18
1.60331e-17
4.20557e-17
1.19365e-16
3.17568e-16
8.92635e-16
5.23473e-11
5.4957e-08
8.13493e-05
0.000688626
0.00154825
0.00324086
0.00283183
0.00731698
0.00660134
0.00611179
0.00844366
5.99628e-24
4.46381e-20
1.27765e-19
4.77058e-19
1.63439e-18
5.28385e-18
1.64113e-17
4.40891e-17
1.25579e-16
3.6487e-16
1.15936e-15
1.45785e-09
3.24174e-06
0.000336559
0.00143195
0.00324257
0.00636892
0.0054388
0.0116893
0.00860689
0.00671207
0.00853143
5.97065e-24
6.41606e-20
1.60483e-19
5.53935e-19
1.81566e-18
5.5446e-18
1.79173e-17
4.82459e-17
1.4679e-16
4.45003e-16
1.69562e-15
3.52487e-08
7.20751e-05
0.00100427
0.00329105
0.00672015
0.0120761
0.0100757
0.017673
0.0110742
0.00740022
0.00862633
5.9267e-24
4.43342e-20
1.29699e-19
4.99435e-19
1.78396e-18
5.69503e-18
1.85426e-17
5.14119e-17
1.59953e-16
5.5952e-16
3.60372e-15
7.97062e-07
0.000336238
0.00243766
0.00684955
0.0127707
0.0212806
0.0173737
0.0249545
0.0138645
0.00814037
0.00872852
5.9043e-24
6.7527e-20
1.66688e-19
5.82751e-19
1.97875e-18
5.94294e-18
2.02789e-17
5.68104e-17
1.96169e-16
7.79186e-16
1.65274e-14
1.51637e-05
0.00104836
0.00540233
0.0129534
0.0220352
0.0343132
0.0273466
0.0328072
0.0168119
0.00890954
0.00883515
5.86065e-24
4.39675e-20
1.32027e-19
5.24934e-19
1.95865e-18
6.18891e-18
2.12138e-17
6.17127e-17
2.28311e-16
1.21706e-15
3.02357e-13
0.000135607
0.00246748
0.0105538
0.0221731
0.03463
0.0505919
0.0390833
0.0403702
0.0197123
0.00966842
0.00894576
5.84153e-24
7.05517e-20
1.73538e-19
6.15258e-19
2.17142e-18
6.44253e-18
2.33218e-17
6.94118e-17
3.08408e-16
2.30633e-15
1.26102e-11
0.000503424
0.00533207
0.0184068
0.0343692
0.0500469
0.068482
0.0509326
0.0469069
0.0224289
0.010401
0.00905718
5.7976e-24
4.35106e-20
1.34523e-19
5.53275e-19
2.16161e-18
6.77527e-18
2.46319e-17
7.72721e-17
4.08722e-16
5.44911e-15
5.48333e-10
0.00123785
0.0101974
0.0291119
0.0491289
0.0670374
0.0855721
0.0610943
0.0520671
0.0248434
0.0110787
0.00916919
5.78121e-24
7.32754e-20
1.80323e-19
6.49277e-19
2.38891e-18
7.01486e-18
2.71954e-17
8.91137e-17
6.62101e-16
1.69331e-14
4.41038e-08
0.00286474
0.0175725
0.0420711
0.0652035
0.0838521
0.0993477
0.0683816
0.0558464
0.0269308
0.0117014
0.00927899
5.73672e-24
4.30615e-20
1.36902e-19
5.82552e-19
2.38794e-18
7.44221e-18
2.90233e-17
1.02372e-16
1.0811e-15
7.5319e-14
8.52618e-06
0.00580039
0.0274072
0.0565643
0.0813444
0.0985227
0.107975
0.0725855
0.0585304
0.0286685
0.0122552
0.00938714
5.72361e-24
7.57412e-20
1.86838e-19
6.83331e-19
2.63025e-18
7.6765e-18
3.23192e-17
1.22304e-16
2.19498e-15
7.80647e-13
0.000163894
0.0106558
0.0391705
0.0713834
0.095832
0.109462
0.11091
0.0743933
0.0604612
0.0301003
0.0127542
0.00949146
5.6783e-24
4.24423e-20
1.38604e-19
6.11084e-19
2.63631e-18
8.19775e-18
3.49591e-17
1.46544e-16
4.34282e-15
1.34141e-11
0.000619836
0.0176851
0.0520111
0.0856085
0.107524
0.115786
0.108986
0.0748541
0.0619707
0.0312448
0.0131965
0.00959327
5.66788e-24
7.80344e-20
1.92506e-19
7.15639e-19
2.89094e-18
8.42202e-18
3.94513e-17
1.83668e-16
1.02813e-14
1.66193e-10
0.0015597
0.0266945
0.0650008
0.0981198
0.115417
0.117594
0.103967
0.0748923
0.0632663
0.0321682
0.013608
0.00969106
5.62202e-24
4.19722e-20
1.39824e-19
6.38169e-19
2.90392e-18
9.0425e-18
4.35249e-17
2.31617e-16
2.24339e-14
1.55888e-09
0.00341236
0.0371742
0.0773196
0.108313
0.119493
0.11575
0.0977907
0.0750218
0.0644839
0.0329047
0.0139967
0.00978684
5.61513e-24
8.0287e-20
1.97615e-19
7.45975e-19
3.17234e-18
9.27134e-18
5.02868e-17
3.06566e-16
5.64703e-14
1.37856e-08
0.00655077
0.0483098
0.0883416
0.115658
0.120082
0.111593
0.0919334
0.0754016
0.0656684
0.0335327
0.0143972
0.00987966
5.56749e-24
4.17998e-20
1.40796e-19
6.64045e-19
3.19348e-18
9.99786e-18
5.71834e-17
4.08679e-16
1.30559e-13
3.18958e-07
0.0112291
0.0593976
0.0976458
0.120237
0.118168
0.106434
0.0871497
0.0759764
0.0668428
0.0340993
0.0148238
0.00997203
5.5631e-24
8.24956e-20
2.02133e-19
7.74177e-19
3.47412e-18
1.02366e-17
6.84902e-17
5.73612e-16
3.92744e-13
1.86545e-05
0.0173067
0.0697693
0.10501
0.122243
0.11464
0.101294
0.0835991
0.0766366
0.0679915
0.0346877
0.0153142
0.0100634
5.51432e-24
4.18672e-20
1.41254e-19
6.87708e-19
3.50313e-18
1.10748e-17
8.13727e-17
8.10823e-16
1.83101e-12
0.000207926
0.0244643
0.0790346
0.110388
0.122268
0.110454
0.0967479
0.0811134
0.0772803
0.0691044
0.0353407
0.0158814
0.0101564
5.5133e-24
8.46872e-20
2.05833e-19
7.99377e-19
3.79755e-18
1.13488e-17
1.02557e-16
1.20491e-15
1.28078e-11
0.000678028
0.0321579
0.0869064
0.113889
0.12081
0.106176
0.0930258
0.0794267
0.0778487
0.0701534
0.036122
0.0165559
0.0102507
5.46227e-24
4.20421e-20
1.40999e-19
7.08608e-19
3.83537e-18
1.23112e-17
1.28897e-16
1.7967e-15
7.41336e-11
0.00132272
0.0399593
0.0932912
0.115733
0.11847
0.102241
0.0901135
0.0782946
0.0783125
0.071122
0.0370447
0.0173374
0.0103488
5.46327e-24
8.68181e-20
2.09013e-19
8.21961e-19
4.14458e-18
1.26582e-17
1.72549e-16
2.81077e-15
3.56568e-10
0.00221315
0.0474361
0.0981533
0.116204
0.115627
0.0987716
0.0878975
0.0775335
0.0786699
0.071982
0.0381329
0.0182392
0.01045
5.41118e-24
4.2254e-20
1.39932e-19
7.26808e-19
4.19278e-18
1.37488e-17
2.30257e-16
4.39193e-15
1.38757e-09
0.00340696
0.0543313
0.101582
0.115603
0.112642
0.0958406
0.0862294
0.0770197
0.0789285
0.0727172
0.0393604
0.0192398
0.0105565
5.41528e-24
8.89297e-20
2.11447e-19
8.42538e-19
4.5241e-18
1.41987e-17
3.2653e-16
7.08649e-15
4.74807e-09
0.00498045
0.0604138
0.10369
0.114218
0.109671
0.0933755
0.0849766
0.0766756
0.0791052
0.0733016
0.0407173
0.0203313
0.010667
5.35973e-24
4.22863e-20
1.37842e-19
7.43086e-19
4.58707e-18
1.54619e-17
4.58502e-16
1.13017e-14
1.44566e-08
0.00697512
0.0656105
0.104664
0.112297
0.106866
0.0913349
0.0840279
0.0764551
0.0792152
0.0737204
0.0421566
0.0214726
0.0107831
5.36577e-24
8.84687e-20
2.10371e-19
8.57387e-19
4.93813e-18
1.60539e-17
6.78247e-16
1.85147e-14
4.28059e-08
0.00941534
0.0698845
0.104681
0.110041
0.104246
0.0896176
0.0833008
0.0763321
0.0792762
0.0739504
0.0436622
0.022643
0.0109032
5.30618e-24
4.14933e-20
1.32608e-19
7.51838e-19
5.01249e-18
1.7472e-17
9.81006e-16
2.99344e-14
2.19429e-07
0.0123579
0.073326
0.103947
0.107605
0.101861
0.0881766
0.0827329
0.0762934
0.0793024
0.07398
0.0451985
0.0237948
0.0110282
5.3126e-24
8.52738e-20
2.03856e-19
8.62216e-19
5.38274e-18
1.81933e-17
1.47528e-15
5.74821e-14
1.09818e-05
0.0158994
0.0760388
0.102638
0.105103
0.0996785
0.0869332
0.082282
0.0763333
0.0793098
0.0737911
0.0467765
0.02491
0.0111563
5.24625e-24
4.16222e-20
1.27357e-19
7.57924e-19
5.48531e-18
1.98678e-17
2.14354e-15
4.65282e-13
0.000174334
0.0202398
0.0781927
0.100933
0.102615
0.0977166
0.0858615
0.0819178
0.0764512
0.0793109
0.0733795
0.0483968
0.0259523
0.0112883
5.24955e-24
5.37964e-20
1.54745e-19
7.9963e-19
5.77065e-18
2.06466e-17
3.2028e-15
2.31377e-11
0.00103624
0.0256366
0.0799198
0.0989662
0.100193
0.0959369
0.0849091
0.0816227
0.0766499
0.0793199
0.0727386
0.0501089
0.0269264
0.011422
5.17284e-24
4.32879e-20
1.14502e-19
7.24508e-19
5.94334e-18
2.35578e-17
4.6653e-15
1.03323e-09
0.00361828
0.0322498
0.0813519
0.0968706
0.0978673
0.0943589
0.084072
0.0813856
0.0769339
0.0793468
0.0718797
0.0519405
0.0278263
0.0115584
5.16614e-24
1.93974e-21
1.12111e-20
4.00735e-19
5.45097e-18
2.44475e-17
7.21027e-15
1.82095e-07
0.00905135
0.0400138
0.08254
0.0947365
0.0956512
0.0929533
0.0833168
0.0812043
0.0773081
0.0794009
0.0708166
0.0539335
0.0286928
0.0116955
5.07806e-24
1.71193e-20
4.47857e-20
4.17532e-19
5.46516e-18
3.62281e-17
1.80167e-14
4.19363e-05
0.0181788
0.048732
0.0835123
0.0926535
0.0935413
0.0917529
0.0826603
0.0810794
0.0777762
0.0794829
0.0695868
0.0560346
0.0295431
0.0118345
5.03919e-24
6.72091e-22
8.46073e-23
2.353e-19
5.06818e-18
8.28519e-17
3.70947e-13
0.000731665
0.0315086
0.0581233
0.0842247
0.0906775
0.091523
0.0907319
0.0820786
0.0810218
0.0783403
0.0795883
0.0682337
0.0580738
0.030381
0.011976
4.83858e-24
2.10364e-19
4.58333e-19
1.03e-18
7.26375e-18
9.13904e-16
7.18427e-12
0.00398066
0.0491782
0.0680573
0.0847602
0.0889081
0.0895814
0.0899221
0.0815892
0.081033
0.0789891
0.0796592
0.0668135
0.0596101
0.0309026
0.0121338
0.00987657
0.0135671
0.0147804
0.0057319
0.00510443
0.00513422
0.00520084
0.00521943
0.0052496
0.00578703
0.00803165
0.00749912
0.00719118
0.0075996
0.00844247
0.00917445
0.0101903
0.011719
0.0118208
0.0103303
0.0104692
0.0139821
0.0191194
0.0254677
0.0366756
0.0660286
0.094352
0.105382
0.108934
0.104386
0.097334
0.0934947
0.0941549
0.104555
0.122397
0.00986353
0.0137105
0.0140692
0.00535369
0.00485901
0.00490178
0.00505578
0.00507615
0.00506443
0.00565745
0.00781653
0.00725605
0.00690498
0.00727172
0.00815239
0.00899035
0.0100868
0.0117331
0.0119496
0.0103434
0.0102887
0.013689
0.0188114
0.025161
0.0364612
0.0658058
0.0942256
0.105279
0.10887
0.104298
0.097274
0.0934461
0.0941362
0.104539
0.122393
0.00983842
0.0137692
0.0129172
0.00479463
0.00454718
0.00457262
0.00486959
0.00490033
0.00486035
0.00551605
0.00714802
0.0065552
0.00623731
0.00648181
0.00716829
0.00789934
0.00890108
0.0104778
0.0110666
0.00992473
0.0100102
0.0132405
0.0182193
0.0245296
0.0361507
0.0655517
0.0939252
0.105002
0.108683
0.104071
0.0971076
0.0933051
0.0940592
0.104464
0.122346
0.00979929
0.0137586
0.011524
0.00424405
0.00425281
0.00424971
0.00468422
0.00469351
0.0046527
0.00535037
0.00638283
0.00575701
0.00544369
0.00559975
0.00611216
0.00667593
0.00746833
0.00879561
0.00967905
0.00920863
0.00959442
0.0126105
0.0173472
0.0235647
0.0356644
0.0652134
0.09345
0.104553
0.108377
0.103704
0.0968352
0.0930712
0.0939234
0.104331
0.122254
0.00974597
0.0136425
0.0100444
0.00376273
0.00398523
0.00394357
0.00447818
0.00443652
0.00440366
0.00511336
0.0056572
0.00501197
0.00470333
0.00482278
0.00520405
0.00560042
0.00617013
0.00718108
0.00817153
0.0083104
0.00901756
0.0117907
0.0162162
0.0222766
0.0349372
0.0647551
0.0928166
0.103952
0.107967
0.103212
0.096468
0.0927551
0.0937381
0.10415
0.122128
0.00967615
0.0133946
0.008601
0.00336726
0.00375292
0.00365998
0.00424217
0.00413241
0.00409524
0.00476921
0.00496515
0.00432513
0.00403173
0.00413758
0.00441909
0.00467204
0.00506066
0.00579876
0.00674906
0.00730865
0.00826842
0.0107874
0.0148623
0.0206948
0.033918
0.0641521
0.0920528
0.103232
0.107477
0.102617
0.0960243
0.0923743
0.0935188
0.103939
0.121987
0.00959042
0.013005
0.00728465
0.00306266
0.00357341
0.0034188
0.00399238
0.00380599
0.00374155
0.00432402
0.00427914
0.00366682
0.00339831
0.00349274
0.00369405
0.0038278
0.00407186
0.00461452
0.00546156
0.00624256
0.00734816
0.00961949
0.0133327
0.0188665
0.0325721
0.0633869
0.0911935
0.10243
0.106936
0.101947
0.0955269
0.0919508
0.0932851
0.103718
0.12185
0.00948687
0.0124695
0.00614801
0.00284431
0.003462
0.00324359
0.00376052
0.00349355
0.00337936
0.00381924
0.00360424
0.0030405
0.00280905
0.00289007
0.00302962
0.00306692
0.00317742
0.00356149
0.00428534
0.00513367
0.00627937
0.00832033
0.0116834
0.0168558
0.0308838
0.0624457
0.0902764
0.101587
0.106379
0.101233
0.095001
0.0915093
0.0930589
0.103513
0.121744
0.00936733
0.0117973
0.00520574
0.00269935
0.00342362
0.00315141
0.00357985
0.00323133
0.00305361
0.00331464
0.0029808
0.00248521
0.00230494
0.00237323
0.00247355
0.00244647
0.00243655
0.00265689
0.00322568
0.00402846
0.00512166
0.00694376
0.00997878
0.0147409
0.0288613
0.0613166
0.089339
0.100746
0.105839
0.100507
0.0944735
0.0910763
0.0928639
0.103349
0.121694
0.0092307
0.0109985
0.00444514
0.00261267
0.00345348
0.00314872
0.00347608
0.00304748
0.002805
0.00287022
0.00245997
0.00204713
0.00192377
0.00198041
0.00206237
0.00200898
0.00191704
0.00198346
0.0023612
0.00302662
0.00398269
0.00557168
0.0082924
0.0126107
0.0265413
0.0599881
0.0884158
0.0999453
0.105349
0.0998007
0.0939712
0.0906786
0.0927246
0.103254
0.121728
0.00908003
0.0100938
0.00383851
0.00257303
0.00354248
0.00323248
0.0034639
0.00295837
0.00266076
0.00253366
0.00208015
0.0017483
0.00167109
0.00171643
0.00179313
0.00174328
0.0016182
0.00158034
0.00177901
0.00225472
0.00300453
0.00431647
0.00670961
0.0105608
0.0239933
0.058451
0.0875366
0.0992215
0.104937
0.0991439
0.0935199
0.0903427
0.0926648
0.103255
0.121873
0.00891508
0.00910464
0.00335762
0.00257552
0.00368334
0.00339379
0.0035477
0.00296927
0.00262897
0.00233016
0.00184987
0.00157787
0.0015229
0.00155517
0.0016311
0.00159888
0.00147655
0.00139385
0.00147631
0.00178197
0.00230898
0.00330283
0.00532609
0.00868848
0.02132
0.0567008
0.0867253
0.0986049
0.10463
0.098564
0.0931438
0.090094
0.0927082
0.103378
0.122157
0.00874002
0.0080648
0.00297748
0.00262088
0.00387474
0.00362289
0.00372508
0.00307753
0.00270118
0.0022603
0.00175376
0.0015038
0.00144313
0.00145948
0.00153435
0.00152167
0.00141893
0.0013329
0.00136729
0.00157128
0.00192864
0.0026204
0.00423483
0.00708484
0.0186526
0.054744
0.0860003
0.0981208
0.10445
0.0980848
0.0928651
0.0899563
0.0928769
0.10365
0.122604
0.00855535
0.0070116
0.0026845
0.00271371
0.00412269
0.0039134
0.00398985
0.0032752
0.00286266
0.00230735
0.00176233
0.00149289
0.00140065
0.00139777
0.00147028
0.00147405
0.00139502
0.00132575
0.0013584
0.00152965
0.00180252
0.00227595
0.00349601
0.00582294
0.0161364
0.0526042
0.0853746
0.0977889
0.104412
0.0977266
0.0927033
0.0899514
0.0931915
0.104096
0.12324
0.00836592
0.0059929
0.00247778
0.00286139
0.0044401
0.00426599
0.00433561
0.00355221
0.00309897
0.00244883
0.0018456
0.00151836
0.00137479
0.00135023
0.00142041
0.00143791
0.00138193
0.00133591
0.00138975
0.00157552
0.00183996
0.00220394
0.0031093
0.00494098
0.0139075
0.0503286
0.0848574
0.097624
0.104532
0.097506
0.0926753
0.0900992
0.0936714
0.104738
0.124086
0.00817267
0.00505518
0.0023678
0.0030743
0.00484634
0.00468955
0.00476001
0.00389977
0.00339727
0.00266124
0.00197794
0.00156454
0.00135603
0.0013079
0.00137708
0.00140773
0.00137398
0.0013526
0.00143653
0.00166268
0.00197038
0.00231969
0.00302086
0.00443091
0.0120635
0.0479888
0.0844555
0.0976365
0.104817
0.0974365
0.0927957
0.0904176
0.094334
0.1056
0.125165
0.00798033
0.00424224
0.00237257
0.0033671
0.00536369
0.00520754
0.00526885
0.00431496
0.00374975
0.00292633
0.00214324
0.00162262
0.00134161
0.00126848
0.0013386
0.00138374
0.00137251
0.00137653
0.00149459
0.00177489
0.00215558
0.00255531
0.00315677
0.00424517
0.0106441
0.0456747
0.0841747
0.0978337
0.105274
0.0975284
0.0930769
0.0909228
0.0951954
0.1067
0.126494
0.00778933
0.0035867
0.00251448
0.00376026
0.0060229
0.00585321
0.00587803
0.00480342
0.00415427
0.00323231
0.00233283
0.00169161
0.00133357
0.00123306
0.00130547
0.00136737
0.00137993
0.00141084
0.00156688
0.00191134
0.00238158
0.00286794
0.00344892
0.00431712
0.00963394
0.0434812
0.0840212
0.0982204
0.105907
0.0977898
0.0935292
0.0916295
0.0962708
0.108061
0.128093
0.00760307
0.00310484
0.00281903
0.00428267
0.00686259
0.00667006
0.00661464
0.00538227
0.00461753
0.00357766
0.00254794
0.00177371
0.00133572
0.00120399
0.00127877
0.00135997
0.00139825
0.00145826
0.00165703
0.00207578
0.00264597
0.0032342
0.00384457
0.00457948
0.00898426
0.041493
0.0840026
0.0987998
0.10672
0.0982269
0.0941616
0.0925515
0.097574
0.109699
0.129978
0.00742066
0.00279452
0.00331756
0.00497208
0.00792931
0.00771038
0.00751486
0.00607904
0.00515392
0.0039691
0.00279641
0.00187699
0.00135437
0.00118477
0.00125979
0.00136265
0.00142904
0.00152086
0.00176746
0.00227109
0.00294882
0.00364115
0.00430617
0.00497397
0.00863529
0.0397729
0.0841284
0.0995746
0.107713
0.0988446
0.0949818
0.0937014
0.0991183
0.111634
0.132165
0.00724378
0.00263833
0.00405821
0.00587393
0.00927678
0.00903201
0.00862057
0.0069293
0.00578566
0.00442227
0.0030942
0.002012
0.00139762
0.00118026
0.00125059
0.00137686
0.00147429
0.00160095
0.00189972
0.00249775
0.00328826
0.0040797
0.00480764
0.00545456
0.00852962
0.038359
0.0844098
0.100547
0.108886
0.0996465
0.0959968
0.0950918
0.100916
0.113885
0.13467
0.00707145
0.00260766
0.00511791
0.00704263
0.010966
0.0106951
0.0099749
0.00797031
0.00653727
0.00495565
0.00345951
0.00219486
0.0014778
0.00119812
0.00125478
0.001405
0.00153682
0.00170161
0.00205492
0.00275333
0.00365918
0.00454114
0.00533057
0.00598705
0.00861768
0.0372684
0.0848605
0.10172
0.110242
0.100636
0.097213
0.0967349
0.102981
0.116469
0.137506
0.00690537
0.00267754
0.00659394
0.00855061
0.0130699
0.012764
0.011622
0.00923707
0.00743295
0.00558759
0.00390998
0.00244186
0.00161056
0.00125024
0.00127882
0.00145144
0.00162132
0.00182771
0.00223483
0.00303325
0.00405357
0.00501633
0.00586156
0.00654735
0.00885951
0.0365044
0.0854954
0.103098
0.11178
0.101817
0.0986364
0.098643
0.105325
0.119405
0.140686
0.00674534
0.00283995
0.00859153
0.0105012
0.0156821
0.0153139
0.013609
0.0107588
0.00849038
0.00632792
0.00445291
0.00276863
0.0018149
0.00135523
0.00133373
0.00152349
0.00173497
0.00198656
0.00244282
0.00333151
0.00446154
0.00549594
0.0063907
0.00711943
0.00922495
0.0360647
0.0863314
0.104684
0.113503
0.103191
0.100273
0.100829
0.107959
0.122712
0.144225
0.00659312
0.00308566
0.0112148
0.01304
0.0189221
0.0184326
0.0159863
0.012557
0.00971814
0.00717544
0.00508192
0.00318014
0.00210649
0.00153857
0.00143789
0.00163334
0.00188883
0.00218909
0.00268548
0.0036428
0.0048729
0.0059714
0.00691089
0.00769367
0.00969334
0.0359474
0.0873866
0.106486
0.11541
0.104762
0.102129
0.103305
0.110898
0.126408
0.148135
0.00644962
0.0034106
0.0145424
0.0163551
0.022928
0.0222066
0.0187947
0.014636
0.0111069
0.00811094
0.00577202
0.00366954
0.00249233
0.00182844
0.00161952
0.00180012
0.00209884
0.0024501
0.00297354
0.00396427
0.00527863
0.00643558
0.00741749
0.00826548
0.0102529
0.0361544
0.0886801
0.10851
0.117506
0.106533
0.10421
0.106085
0.114153
0.130513
0.152427
0.00631698
0.00381756
0.0186111
0.0206618
0.0278299
0.0266826
0.0220374
0.0169657
0.0126212
0.00909637
0.00648353
0.00421325
0.00296396
0.0022439
0.00191571
0.00205248
0.00238755
0.00278897
0.00332258
0.00429835
0.00567248
0.00688371
0.00790824
0.00883444
0.0109
0.0366931
0.0902315
0.110765
0.119792
0.108507
0.106522
0.109182
0.117737
0.135047
0.157112
0.00619775
0.00432747
0.0234296
0.0261722
0.0337086
0.0318168
0.025643
0.019461
0.0141885
0.010071
0.00716414
0.00477824
0.00350055
0.00278422
0.00236196
0.00242765
0.00278402
0.00322845
0.00375168
0.00465377
0.00605225
0.00731359
0.00838311
0.00940361
0.0116383
0.0375769
0.0920604
0.11326
0.12227
0.110687
0.109071
0.112611
0.121664
0.14003
0.162201
0.00609509
0.00499103
0.0290136
0.0330637
0.0405505
0.0374337
0.0294383
0.0219709
0.0156981
0.0109572
0.00775695
0.00532328
0.00407132
0.0034266
0.00297395
0.00296354
0.00332107
0.0037925
0.00428142
0.00504677
0.0064209
0.00772611
0.00884423
0.0099791
0.0124783
0.0388241
0.0941856
0.116005
0.124945
0.113077
0.111863
0.116385
0.125944
0.145481
0.167702
0.00601408
0.00590183
0.0354276
0.0414399
0.0482032
0.0432076
0.0331442
0.0242839
0.0170076
0.0116651
0.00820444
0.00580818
0.00464292
0.0041333
0.00373363
0.00368045
0.00402465
0.00449932
0.00492864
0.00549874
0.00678705
0.00812501
0.00929559
0.0105696
0.0134368
0.0404576
0.096624
0.11901
0.127817
0.115678
0.114903
0.120519
0.130593
0.151422
0.173625
0.00596079
0.00718667
0.0427805
0.0512513
0.0563251
0.0486709
0.0363981
0.0261501
0.0179619
0.0121054
0.00845621
0.00619409
0.00518056
0.00485887
0.00459164
0.00456279
0.00489827
0.00535164
0.00569997
0.00603379
0.00716508
0.00851706
0.00974281
0.0111861
0.0145364
0.0425028
0.0993905
0.122286
0.130891
0.118492
0.118198
0.125027
0.135623
0.157875
0.179978
0.00594609
0.00898078
0.0511734
0.062166
0.0643402
0.0532509
0.0387999
0.027316
0.0184134
0.0121997
0.00847339
0.00645132
0.00565354
0.00555621
0.00547927
0.00555229
0.00590705
0.00632391
0.00658196
0.00667127
0.00757418
0.00891133
0.0101926
0.0118415
0.0158058
0.044987
0.102496
0.125841
0.134168
0.121521
0.121753
0.129927
0.141048
0.164863
0.186768
0.00598322
0.0113846
0.060576
0.0734396
0.0714446
0.0563462
0.0399774
0.0275672
0.0182482
0.0118953
0.00823812
0.00656013
0.00603569
0.00618181
0.00632441
0.00656195
0.00697746
0.00735823
0.00753502
0.0074184
0.00803634
0.00931879
0.0106523
0.0125499
0.0172791
0.047937
0.105949
0.129684
0.137648
0.124765
0.125575
0.135234
0.146886
0.172413
0.194006
0.00609167
0.0144524
0.0706962
0.0839194
0.0767185
0.0574483
0.0396642
0.0267717
0.0174081
0.0111777
0.00776047
0.00651914
0.00631148
0.0067009
0.00706339
0.00749762
0.0080112
0.00836981
0.00849251
0.00825893
0.00857226
0.00975071
0.0111287
0.0133266
0.018996
0.0513778
0.10975
0.133822
0.141335
0.128226
0.129674
0.140969
0.153155
0.180555
0.201704
0.00628805
0.0181914
0.0809002
0.0922688
0.0793424
0.0562727
0.0377661
0.0249141
0.0159102
0.0100841
0.00708634
0.00634539
0.00647675
0.007093
0.00765281
0.0082828
0.00891341
0.0092686
0.00937419
0.00914994
0.00919522
0.0102171
0.0116277
0.0141867
0.0210018
0.0553306
0.113899
0.138259
0.145227
0.131905
0.13406
0.147155
0.159878
0.189326
0.209876
0.00658505
0.0225949
0.0903211
0.0973606
0.0788362
0.052847
0.0343941
0.0221105
0.0138561
0.00870927
0.0062953
0.00607684
0.00654233
0.00735381
0.00807266
0.00887016
0.00961286
0.009979
0.0101037
0.0100234
0.00990288
0.0107233
0.0121522
0.0151451
0.0233469
0.0598114
0.118389
0.143
0.149328
0.135806
0.138748
0.153824
0.167084
0.198769
0.218545
0.00697682
0.0276093
0.0980625
0.0986061
0.0751929
0.0475073
0.0298458
0.0186002
0.0114338
0.00720529
0.00548901
0.00576281
0.0065295
0.00749535
0.00832808
0.00924805
0.0100772
0.0104591
0.0106299
0.010805
0.0106706
0.0112671
0.0127015
0.0162155
0.0260866
0.0648305
0.12321
0.14805
0.15364
0.139935
0.143759
0.161012
0.174808
0.20894
0.22774
0.00744499
0.033098
0.103401
0.0960404
0.0688443
0.0408064
0.024552
0.0147248
0.00890847
0.00576012
0.00476564
0.00545511
0.00646653
0.00753967
0.0084404
0.00943145
0.0103082
0.0107014
0.0109334
0.0114294
0.0114496
0.0118341
0.0132701
0.0174103
0.0292807
0.0703926
0.128355
0.153417
0.158171
0.144306
0.14912
0.16877
0.183096
0.219907
0.237497
0.00795396
0.0386533
0.105802
0.0901494
0.0604914
0.0333837
0.0190128
0.0109029
0.00659421
0.0045524
0.00419416
0.00519293
0.00637857
0.00751295
0.00844127
0.009455
0.0103372
0.0107316
0.0110301
0.0118613
0.0121749
0.0123975
0.0138471
0.018741
0.0329933
0.0764997
0.133815
0.159113
0.162931
0.148937
0.154866
0.177157
0.192002
0.231753
0.247867
0.00846726
0.0435262
0.104876
0.0816192
0.0509081
0.025858
0.0137497
0.00758054
0.00477174
0.00368503
0.00379912
0.00499596
0.00628235
0.00743592
0.00836016
0.00935741
0.0102074
0.0105926
0.0109581
0.0120943
0.0127795
0.0129187
0.0144176
0.0202195
0.0372938
0.0831541
0.139594
0.16516
0.167939
0.153857
0.161042
0.186249
0.201593
0.244575
0.258908
0.00894498
0.046576
0.100321
0.071147
0.0408051
0.0187728
0.00925439
0.0051054
0.00356285
0.00315331
0.00356376
0.00485861
0.00617904
0.00731943
0.00822075
0.00917604
0.00996653
0.0103369
0.0107702
0.012153
0.0132112
0.0133551
0.0149651
0.0218604
0.0422577
0.0903654
0.145706
0.171588
0.173221
0.159102
0.167702
0.196135
0.211946
0.258487
0.270692
0.0093615
0.0466542
0.0919741
0.0593963
0.0308006
0.012594
0.00589182
0.00355044
0.00287794
0.00287116
0.00343942
0.00475465
0.00605533
0.00715956
0.00803379
0.00893707
0.00965392
0.0100119
0.0105192
0.0120773
0.0134433
0.0136688
0.0154748
0.0236842
0.0479686
0.0981567
0.152182
0.178439
0.178809
0.164722
0.174908
0.206915
0.223149
0.273617
0.283301
0.0096768
0.042808
0.0798432
0.0470299
0.0214803
0.00771528
0.00374331
0.00268693
0.00251083
0.0027183
0.0033591
0.00464403
0.00588538
0.00694258
0.0078025
0.00865804
0.00930039
0.00965884
0.0102544
0.011919
0.0134796
0.0138374
0.015938
0.0257211
0.054521
0.106572
0.159069
0.185769
0.184747
0.170774
0.182732
0.218702
0.235295
0.290103
0.296821
0.00988074
0.0350241
0.0643569
0.0347076
0.0134243
0.00435589
0.00251851
0.0021732
0.00224244
0.00256104
0.00324033
0.00447132
0.0056246
0.00663646
0.00751149
0.00833343
0.0089134
0.00929766
0.0100111
0.0117271
0.0133491
0.0138565
0.0163544
0.0280137
0.0620221
0.115682
0.166436
0.19364
0.191083
0.17732
0.191246
0.231611
0.248484
0.308086
0.311344
4.88287e-24
3.1498e-19
1.14943e-18
4.35855e-18
2.51853e-17
3.16846e-14
9.08349e-11
0.0141395
0.0655822
0.0756556
0.0849845
0.0877462
0.0881874
0.0894914
0.0813113
0.081141
0.0795845
0.0795756
0.0657214
0.0601329
0.0305541
0.0121583
4.9967e-24
7.39423e-20
8.38176e-20
6.29502e-18
6.29409e-17
2.47544e-13
9.31125e-10
0.0263039
0.076676
0.0802279
0.0849118
0.0870518
0.0873841
0.089368
0.0812839
0.0813258
0.080114
0.0795024
0.0651923
0.0601145
0.0301481
0.0122183
5.10267e-24
2.76686e-19
8.78298e-19
8.91831e-18
1.22651e-16
9.32037e-13
9.3672e-09
0.040724
0.0866101
0.0840055
0.0847524
0.0864901
0.0867649
0.0893895
0.0814017
0.0816031
0.0807282
0.0794351
0.0649521
0.0596824
0.0296389
0.0123866
5.06252e-24
5.72797e-20
2.14747e-20
6.84893e-18
1.92416e-16
2.28172e-12
1.6964e-07
0.0559397
0.0952644
0.0871388
0.0846785
0.0861065
0.0863584
0.0895768
0.0816821
0.0819583
0.0813985
0.079375
0.0649871
0.0588661
0.0290608
0.012654
5.16621e-24
2.21372e-19
6.31779e-19
7.21977e-18
2.8789e-16
3.60755e-12
6.52697e-06
0.0696915
0.10267
0.0897732
0.0848101
0.0859349
0.0861922
0.0899199
0.0821108
0.0823818
0.0820937
0.0793197
0.0652629
0.0577368
0.0284597
0.0130117
5.11451e-24
4.59387e-20
1.20623e-20
4.60978e-18
4.09367e-16
4.86733e-12
1.85343e-05
0.079488
0.108913
0.0920598
0.085245
0.0860137
0.0862894
0.0904457
0.0827085
0.0828653
0.0827831
0.0792631
0.0657418
0.0563535
0.0278455
0.0134769
5.22965e-24
1.78734e-19
4.73011e-19
4.62897e-18
5.79493e-16
5.05389e-12
3.42297e-05
0.0841161
0.114111
0.0941202
0.086038
0.0863689
0.0866707
0.091147
0.0834627
0.0834094
0.0834391
0.0792004
0.0663686
0.0548014
0.0272441
0.0140635
5.17063e-24
3.80512e-20
7.87744e-21
2.77673e-18
7.71438e-16
4.37157e-12
2.56047e-05
0.0839034
0.118353
0.0960648
0.0872347
0.0870314
0.0873518
0.0920556
0.0843998
0.0840168
0.0840405
0.0791227
0.0670939
0.0531393
0.0266531
0.0147893
5.29828e-24
1.46688e-19
3.69285e-19
2.85679e-18
9.84472e-16
2.87615e-12
2.72131e-05
0.0800886
0.121703
0.0979635
0.0888483
0.0880192
0.0883464
0.0931654
0.08551
0.084701
0.0845762
0.0790241
0.0678579
0.0514446
0.0260919
0.0156581
5.2239e-24
3.2449e-20
5.8855e-21
1.68513e-18
1.14684e-15
1.68729e-12
3.50648e-05
0.0738185
0.124148
0.0998672
0.090892
0.0893567
0.089664
0.0945089
0.0868234
0.0854761
0.0850464
0.0788965
0.0686166
0.0497612
0.0255512
0.0166736
5.35801e-24
1.21951e-19
2.97188e-19
1.83951e-18
1.25055e-15
8.51286e-13
3.98965e-05
0.0657943
0.125623
0.10178
0.0933515
0.0910558
0.0913138
0.0960781
0.0883322
0.0863656
0.0854646
0.0787377
0.0693202
0.0481499
0.0250465
0.0178212
5.27148e-24
2.84331e-20
4.69049e-21
1.0796e-18
1.23784e-15
4.16117e-13
4.08966e-05
0.0566577
0.125975
0.103681
0.0962155
0.0931365
0.0933028
0.0979033
0.0900679
0.0873908
0.0858552
0.0785456
0.0699418
0.0466361
0.0245642