/*--------------------------------*- C++ -*----------------------------------*\
| =========                 |                                                 |
| \\      /  F ield         | OpenFOAM: The Open Source CFD Toolbox           |
|  \\    /   O peration     | Version:  v1912                                 |
|   \\  /    A nd           | Website:  www.openfoam.com                      |
|    \\/     M anipulation  |                                                 |
\*---------------------------------------------------------------------------*/
FoamFile
{
    version     2.0;
    format      ascii;
    class       volScalarField;
    location    "150";
    object      p;
}
// * * * * * * * * * * * * * * * * * * * * * * * * * * * * * * * * * * * * * //

dimensions      [0 2 -2 0 0 0 0];


internalField   nonuniform List<scalar> 
12441
(
8.25462
8.52677
9.30111
10.6563
12.4167
14.3722
16.9285
20.3018
24.5102
29.5529
35.7695
43.4572
53.0937
65.1158
80.786
100.119
127.515
161.194
215.777
277.371
369.808
436.912
8.25461
8.52676
9.30111
10.6563
12.4166
14.3721
16.9284
20.3017
24.51
29.5527
35.7692
43.4566
53.0927
65.1141
80.783
100.112
127.5
161.171
215.693
277.293
369.754
436.703
8.25459
8.52674
9.30109
10.6563
12.4166
14.3721
16.9283
20.3015
24.5097
29.5522
35.7685
43.4554
53.0907
65.1108
80.7771
100.099
127.477
161.116
215.518
277.108
369.611
436.325
8.25457
8.52672
9.30108
10.6562
12.4165
14.372
16.9282
20.3012
24.5092
29.5515
35.7674
43.4536
53.0876
65.1057
80.7684
100.079
127.446
161.033
215.336
276.824
369.354
435.74
8.25453
8.52669
9.30106
10.6561
12.4163
14.3718
16.928
20.3008
24.5086
29.5506
35.766
43.4511
53.0836
65.099
80.7568
100.054
127.406
160.929
215.169
276.468
368.994
434.942
8.25449
8.52665
9.30103
10.656
12.4161
14.3717
16.9277
20.3003
24.5078
29.5494
35.7642
43.4481
53.0785
65.0907
80.7422
100.022
127.356
160.808
214.98
276.038
368.536
433.934
8.25444
8.5266
9.30101
10.6559
12.4159
14.3715
16.9274
20.2997
24.5068
29.548
35.7621
43.4445
53.0724
65.0806
80.7249
99.9844
127.298
160.665
214.759
275.537
367.985
432.715
8.25438
8.52654
9.30097
10.6558
12.4156
14.3713
16.9271
20.299
24.5057
29.5463
35.7597
43.4402
53.0653
65.0689
80.7046
99.9412
127.233
160.503
214.518
274.978
367.346
431.281
8.25431
8.52648
9.30093
10.6556
12.4153
14.371
16.9267
20.2982
24.5044
29.5445
35.7569
43.4353
53.0572
65.0557
80.682
99.8941
127.167
160.328
214.277
274.374
366.623
429.629
8.25423
8.5264
9.30089
10.6554
12.4149
14.3707
16.9262
20.2973
24.503
29.5424
35.7537
43.4298
53.0481
65.0409
80.6581
99.846
127.102
160.147
214.057
273.738
365.82
427.755
8.25415
8.52632
9.30085
10.6552
12.4145
14.3704
16.9257
20.2963
24.5014
29.54
35.7502
43.4237
53.038
65.0249
80.6338
99.8007
127.049
159.976
213.883
273.079
364.933
425.65
8.25405
8.52623
9.30079
10.655
12.4141
14.37
16.9252
20.2952
24.4996
29.5375
35.7464
43.417
53.0269
65.0085
80.6115
99.7647
127.027
159.838
213.778
272.4
363.958
423.307
8.25395
8.52614
9.30074
10.6548
12.4136
14.3697
16.9246
20.294
24.4977
29.5347
35.7422
43.4097
53.0151
64.9935
80.5974
99.7513
127.063
159.767
213.747
271.694
362.886
420.716
8.25384
8.52603
9.30068
10.6545
12.4131
14.3693
16.924
20.2926
24.4956
29.5316
35.7376
43.4018
53.0032
64.9832
80.6006
99.7769
127.183
159.788
213.763
270.939
361.708
417.866
8.25372
8.52592
9.30061
10.6543
12.4125
14.3688
16.9233
20.2912
24.4933
29.5284
35.7327
43.3933
52.9923
64.9827
80.6306
99.8524
127.397
159.9
213.774
270.11
360.414
414.743
8.25359
8.5258
9.30054
10.654
12.4119
14.3683
16.9226
20.2897
24.4909
29.5249
35.7275
43.3844
52.9846
64.9981
80.6941
99.9804
127.689
160.066
213.715
269.181
358.996
411.336
8.25345
8.52567
9.30046
10.6536
12.4113
14.3678
16.9218
20.288
24.4883
29.5212
35.7218
43.3756
52.9836
65.0332
80.7911
100.152
128.014
160.215
213.538
268.133
357.445
407.63
8.2533
8.52554
9.30038
10.6533
12.4106
14.3673
16.9209
20.2863
24.4856
29.5172
35.7157
43.3677
52.9932
65.0889
80.9147
100.345
128.307
160.273
213.218
266.957
355.757
403.613
8.25315
8.52539
9.3003
10.6529
12.4099
14.3667
16.9201
20.2844
24.4827
29.513
35.7092
43.3623
53.0161
65.1612
81.052
100.53
128.502
160.191
212.759
265.65
353.928
399.271
8.25299
8.52524
9.3002
10.6526
12.4091
14.3661
16.9191
20.2825
24.4797
29.5086
35.7024
43.3616
53.0521
65.2437
81.1858
100.675
128.548
159.962
212.184
264.217
351.956
394.588
8.25282
8.52508
9.3001
10.6522
12.4083
14.3655
16.9181
20.2804
24.4765
29.5039
35.6954
43.3679
53.0985
65.3274
81.2982
100.75
128.431
159.616
211.519
262.664
349.84
389.55
8.25264
8.52492
9.3
10.6517
12.4075
14.3648
16.9171
20.2783
24.4731
29.4989
35.6888
43.3826
53.1501
65.404
81.3731
100.742
128.173
159.195
210.788
261.001
347.583
384.141
8.25245
8.52474
9.29989
10.6513
12.4066
14.3641
16.916
20.276
24.4696
29.4937
35.6831
43.405
53.2021
65.4656
81.4013
100.652
127.822
158.739
210.008
259.236
345.185
378.344
8.25226
8.52456
9.29977
10.6508
12.4057
14.3634
16.9149
20.2736
24.4659
29.4882
35.6795
43.4328
53.2495
65.5065
81.3803
100.495
127.429
158.27
209.187
257.378
342.649
372.142
8.25205
8.52437
9.29965
10.6504
12.4048
14.3627
16.9137
20.2712
24.4621
29.4824
35.679
43.4629
53.2892
65.5233
81.316
100.292
127.033
157.796
208.329
255.438
339.979
365.517
8.25184
8.52417
9.29952
10.6499
12.4038
14.3619
16.9125
20.2686
24.4581
29.4763
35.6823
43.4923
53.3183
65.5161
81.218
100.066
126.656
157.316
207.436
253.425
337.176
358.448
8.25162
8.52396
9.29939
10.6493
12.4028
14.3611
16.9112
20.2659
24.4539
29.4701
35.6895
43.5185
53.336
65.4869
81.0986
99.8354
126.303
156.826
206.507
251.347
334.245
350.913
8.25139
8.52375
9.29925
10.6488
12.4018
14.3602
16.9098
20.2631
24.4495
29.4639
35.6996
43.5398
53.3413
65.4401
80.9675
99.6097
125.97
156.321
205.542
249.213
331.186
342.889
8.25116
8.52352
9.2991
10.6482
12.4007
14.3593
16.9084
20.2602
24.445
29.4579
35.7113
43.5551
53.3356
65.3798
80.833
99.3929
125.65
155.798
204.54
247.03
328
334.35
8.25091
8.52329
9.29894
10.6476
12.3995
14.3584
16.907
20.2572
24.4403
29.4521
35.7228
43.564
53.3193
65.3108
80.699
99.1855
125.336
155.259
203.501
244.802
324.684
325.269
8.25066
8.52306
9.29878
10.647
12.3984
14.3574
16.9055
20.2541
24.4354
29.4465
35.7331
43.5664
53.2946
65.2362
80.5682
98.9852
125.023
154.701
202.424
242.531
321.235
315.616
8.2504
8.52281
9.29861
10.6464
12.3972
14.3564
16.9039
20.2509
24.4304
29.4413
35.7412
43.5626
53.2626
65.1589
80.4406
98.7898
124.707
154.127
201.31
240.218
317.646
305.359
8.25013
8.52255
9.29844
10.6458
12.396
14.3554
16.9023
20.2476
24.4252
29.4366
35.7467
43.553
53.2254
65.0801
80.316
98.5966
124.387
153.537
200.159
237.862
313.906
294.463
8.24986
8.52229
9.29825
10.6451
12.3947
14.3544
16.9006
20.2441
24.4198
29.4325
35.7493
43.5383
53.1839
65.0012
80.1934
98.4042
124.062
152.932
198.971
235.463
310.007
282.893
8.24957
8.52202
9.29806
10.6444
12.3934
14.3533
16.8989
20.2406
24.4142
29.429
35.7488
43.5193
53.1397
64.9221
80.0722
98.2107
123.73
152.312
197.746
233.021
305.936
270.608
8.24928
8.52174
9.29786
10.6437
12.3921
14.3522
16.8972
20.2369
24.4084
29.4262
35.7456
43.4966
53.0932
64.8435
79.9512
98.0156
123.392
151.679
196.485
230.537
301.681
257.569
8.24898
8.52146
9.29766
10.643
12.3907
14.351
16.8953
20.2332
24.4025
29.4245
35.7398
43.471
53.0455
64.7648
79.8301
97.8178
123.047
151.032
195.188
228.013
297.231
243.732
8.24867
8.52116
9.29744
10.6423
12.3893
14.3498
16.8935
20.2293
24.3967
29.4244
35.7321
43.4432
52.9966
64.6865
79.708
97.6171
122.696
150.374
193.856
225.454
292.576
229.051
8.24836
8.52086
9.29722
10.6415
12.3879
14.3486
16.8915
20.2253
24.3916
29.4263
35.7227
43.4137
52.9473
64.6081
79.5849
97.4131
122.338
149.703
192.491
222.864
287.709
213.479
8.24804
8.52055
9.29699
10.6407
12.3864
14.3473
16.8895
20.2212
24.3884
29.4301
35.7121
43.3831
52.8972
64.5298
79.4603
97.2058
121.974
149.021
191.095
220.249
282.624
196.963
8.24771
8.52023
9.29675
10.6399
12.385
14.346
16.8875
20.217
24.3889
29.4359
35.7004
43.3516
52.847
64.4513
79.3342
96.995
121.604
148.327
189.672
217.613
277.321
179.45
8.24737
8.5199
9.29651
10.6391
12.3834
14.3447
16.8854
20.2128
24.3945
29.4432
35.6877
43.3197
52.7959
64.373
79.2062
96.7811
121.228
147.622
188.224
214.957
271.798
160.893
8.24702
8.51957
9.29625
10.6383
12.3819
14.3434
16.8832
20.2091
24.4062
29.4516
35.6739
43.2875
52.7446
64.2944
79.0766
96.564
120.848
146.906
186.757
212.278
266.03
141.206
8.24667
8.51922
9.29599
10.6374
12.3803
14.3419
16.881
20.2075
24.4234
29.4604
35.6591
43.2557
52.6928
64.2164
78.9457
96.3448
120.463
146.176
185.276
209.564
259.938
119.66
-15.3798
-42.0418
-50.8865
-31.8187
-20.1743
-13.6136
-9.12512
-5.4323
-3.93726
-5.08677
-5.59015
0.0991811
9.86232
18.3585
22.8391
23.7062
23.1476
21.6337
19.1344
16.3682
13.8307
11.8747
9.52023
6.11484
1.16308
3.22408
7.87163
9.24535
7.00619
5.19868
3.84819
2.99554
2.14009
1.1773
0.647367
-15.4448
-42.0952
-50.9436
-31.8166
-20.1596
-13.6059
-9.12348
-5.43259
-3.93624
-5.08274
-5.57974
0.108098
9.87131
18.37
22.8537
23.7205
23.1582
21.6405
19.1383
16.3702
13.8301
11.8719
9.51805
6.11725
1.16508
3.21576
7.86002
9.24229
7.00631
5.19892
3.84823
2.99553
2.14009
1.17732
0.647365
-15.549
-42.2091
-51.0425
-31.8155
-20.1405
-13.595
-9.12028
-5.43094
-3.93297
-5.07789
-5.56722
0.12104
9.88649
18.3885
22.8765
23.7454
23.1833
21.6625
19.1521
16.3759
13.8311
11.8715
9.51848
6.12259
1.16773
3.20691
7.84844
9.23942
7.00654
5.19921
3.84829
2.99553
2.14009
1.17735
0.647368
-15.7007
-42.3883
-51.1754
-31.8217
-20.1202
-13.5826
-9.11583
-5.42813
-3.92895
-5.07344
-5.55552
0.134483
9.90445
18.4099
22.9023
23.7751
23.2169
21.696
19.1753
16.3864
13.8351
11.8749
9.52229
6.13147
1.17322
3.20123
7.8388
9.23692
7.00683
5.19956
3.84838
2.99555
2.14011
1.17739
0.647377
-15.898
-42.6313
-51.3382
-31.839
-20.1
-13.5694
-9.10987
-5.42402
-3.92404
-5.06954
-5.54759
0.145156
9.92091
18.4293
22.9248
23.8007
23.247
21.7288
19.2003
16.399
13.8418
11.8821
9.52973
6.14414
1.18266
3.19856
7.83117
9.23487
7.00721
5.19995
3.84849
2.9956
2.14015
1.17744
0.647392
-16.136
-42.9364
-51.5253
-31.8674
-20.0805
-13.5561
-9.10257
-5.41883
-3.91832
-5.06632
-5.54353
0.152395
9.93423
18.4456
22.9432
23.8211
23.2705
21.7555
19.2228
16.4124
13.8511
11.8928
9.54046
6.16036
1.1968
3.19877
7.82527
9.23322
7.00767
5.20037
3.84863
2.99566
2.14019
1.1775
0.64741
-16.4102
-43.2991
-51.7302
-31.9052
-20.063
-13.5437
-9.09459
-5.41304
-3.91206
-5.06408
-5.54277
0.156758
9.94432
18.4589
22.9585
23.8379
23.2889
21.7763
19.2423
16.4264
13.8631
11.9064
9.55394
6.17973
1.21623
3.20199
7.82078
9.23192
7.00819
5.20081
3.84877
2.99574
2.14024
1.17757
0.647431
-16.7161
-43.7122
-51.9472
-31.9508
-20.0489
-13.5335
-9.08697
-5.40732
-3.90584
-5.06318
-5.54446
0.158639
9.95111
18.4688
22.9703
23.8511
23.3034
21.7926
19.2591
16.4411
13.8775
11.9223
9.56944
6.20168
1.24126
3.20847
7.81744
9.23088
7.00875
5.20126
3.84892
2.99581
2.14028
1.17764
0.647452
-17.0485
-44.1652
-52.172
-32.0023
-20.0391
-13.5263
-9.0808
-5.4023
-3.90016
-5.06378
-5.54811
0.15806
9.95425
18.4743
22.977
23.859
23.3128
21.804
19.2727
16.4556
13.8933
11.9392
9.5861
6.2255
1.27193
3.21841
7.81497
9.23003
7.00934
5.20169
3.84905
2.99588
2.14032
1.17771
0.647472
-17.402
-44.646
-52.4007
-32.0583
-20.034
-13.5229
-9.07702
-5.39855
-3.89554
-5.06577
-5.55298
0.155252
9.95384
18.4748
22.978
23.8606
23.3155
21.8091
19.2817
16.4681
13.9087
11.9559
9.60289
6.25031
1.30793
3.23208
7.81313
9.22928
7.00993
5.2021
3.84916
2.99594
2.14035
1.17776
0.647489
-17.7706
-45.1415
-52.6295
-32.1178
-20.0337
-13.5237
-9.07622
-5.3964
-3.89219
-5.06883
-5.55859
0.150619
9.95037
18.4706
22.9735
23.856
23.3115
21.8072
19.2843
16.4761
13.9212
11.9705
9.61863
6.27516
1.34857
3.24977
7.81167
9.22858
7.01051
5.20248
3.84924
2.99597
2.14036
1.17781
0.6475
-18.1483
-45.6387
-52.8543
-32.18
-20.0382
-13.5289
-9.07867
-5.39598
-3.89029
-5.07268
-5.56432
0.144911
9.94472
18.4625
22.9646
23.8469
23.3019
21.7992
19.2808
16.4784
13.9287
11.9812
9.63207
6.29904
1.39268
3.27185
7.81045
9.22785
7.01106
5.2028
3.84927
2.99597
2.14036
1.17784
0.647506
-18.5284
-46.1247
-53.0705
-32.2443
-20.0475
-13.5382
-9.08424
-5.39713
-3.88969
-5.07719
-5.56993
0.138654
9.93762
18.4513
22.9522
23.8344
23.2887
21.7867
19.2723
16.4755
13.9307
11.9867
9.64206
6.32102
1.4387
3.29859
7.80936
9.22704
7.01157
5.20307
3.84926
2.99593
2.14032
1.17784
0.647503
-18.9048
-46.5869
-53.2737
-32.3096
-20.0623
-13.5517
-9.09264
-5.39961
-3.89032
-5.0823
-5.57511
0.132416
9.92977
18.4377
22.9369
23.8195
23.273
21.7714
19.2607
16.4687
13.9281
11.987
9.64783
6.34036
1.48475
3.33015
7.80838
9.22612
7.01204
5.20327
3.84919
2.99585
2.14026
1.17783
0.647491
-19.2706
-47.0129
-53.4593
-32.3744
-20.0829
-13.5696
-9.10335
-5.40305
-3.89189
-5.08804
-5.57996
0.126369
9.9215
18.4219
22.9189
23.8023
23.2552
21.754
19.2469
16.4597
13.9222
11.9831
9.64938
6.3567
1.52885
3.3663
7.80754
9.22507
7.01245
5.20339
3.84905
2.99572
2.14017
1.17778
0.647469
-19.6192
-47.3904
-53.6231
-32.4366
-20.1096
-13.5925
-9.11612
-5.40724
-3.89427
-5.09454
-5.58449
0.120811
9.91312
18.4042
22.8983
23.7828
23.2354
21.7348
19.2316
16.4492
13.9145
11.9763
9.64739
6.37015
1.56927
3.40639
7.80696
9.22387
7.01281
5.20343
3.84885
2.99554
2.14004
1.17771
0.647437
-19.9439
-47.7086
-53.7617
-32.4937
-20.1424
-13.6211
-9.1309
-5.41191
-3.89714
-5.10197
-5.58904
0.115641
9.90459
18.3845
22.8748
23.7609
23.2135
21.7138
19.2149
16.4377
13.9058
11.9679
9.64291
6.3813
1.60503
3.44912
7.8068
9.22252
7.01311
5.2034
3.84858
2.9953
2.13988
1.1776
0.647393
-20.238
-47.9593
-53.8729
-32.5417
-20.1835
-13.656
-9.14808
-5.41711
-3.9005
-5.11051
-5.59375
0.110944
9.89584
18.3627
22.8483
23.7363
23.1892
21.6907
19.1968
16.4253
13.8964
11.9586
9.63687
6.39088
1.63609
3.49274
7.80724
9.22104
7.01335
5.20327
3.84823
2.995
2.13968
1.17746
0.647338
-20.4952
-48.1389
-53.9561
-32.5768
-20.2352
-13.698
-9.16817
-5.42287
-3.90419
-5.12043
-5.5992
0.106272
9.88644
18.3385
22.8186
23.7088
23.1625
21.6657
19.1773
16.4121
13.8865
11.9487
9.62996
6.39951
1.66331
3.53527
7.80845
9.21945
7.01353
5.20306
3.84781
2.99463
2.13944
1.17728
0.64727
-20.7099
-48.2489
-54.0131
-32.5987
-20.2984
-13.748
-9.19206
-5.42962
-3.90848
-5.13206
-5.60584
0.101315
9.87596
18.3115
22.7852
23.6781
23.1333
21.6386
19.1564
16.3981
13.8763
11.9387
9.62262
6.40751
1.68794
3.57491
7.81058
9.21778
7.01365
5.20276
3.84731
2.99421
2.13915
1.17706
0.647192
-20.8775
-48.2945
-54.0473
-32.6092
-20.3719
-13.8067
-9.22056
-5.43764
-3.91339
-5.14589
-5.61478
0.0950156
9.86349
18.2813
22.7481
23.6442
23.1015
21.6095
19.1342
16.3833
13.8658
11.9285
9.61514
6.41506
1.71119
3.61036
7.81372
9.21607
7.01372
5.20237
3.84672
2.99371
2.13883
1.17681
0.647103
-20.9954
-48.2842
-54.0608
-32.6109
-20.4549
-13.875
-9.25473
-5.4475
-3.91942
-5.16254
-5.62703
0.0864241
9.84813
18.2471
22.7068
23.6069
23.0669
21.5783
19.1107
16.3679
13.855
11.9184
9.6077
6.4222
1.73396
3.64093
7.81793
9.21436
7.01374
5.20189
3.84606
2.99315
2.13847
1.17652
0.647002
-21.0655
-48.2264
-54.0504
-32.6062
-20.5463
-13.9539
-9.29539
-5.45939
-3.9266
-5.18277
-5.64429
0.0737512
9.82836
18.208
22.6612
23.566
23.0296
21.545
19.086
16.352
13.844
11.9083
9.60042
6.42901
1.75676
3.66648
7.82317
9.21271
7.01371
5.20131
3.84532
2.99252
2.13806
1.17619
0.646891
-21.0985
-48.1182
-54.0115
-32.5961
-20.6455
-14.0448
-9.34381
-5.47375
-3.93545
-5.20736
-5.6677
0.055708
9.80291
18.163
22.6107
23.5216
22.9896
21.5096
19.0599
16.3355
13.8329
11.8982
9.59335
6.43557
1.77984
3.68733
7.82939
9.21114
7.01363
5.20065
3.84449
2.99182
2.13762
1.17582
0.646771
-21.1032
-47.9509
-53.9395
-32.5806
-20.752
-14.149
-9.40098
-5.49043
-3.94575
-5.23708
-5.69874
0.0306126
9.7703
18.1107
22.5549
23.4733
22.9467
21.4721
19.0326
16.3185
13.8216
11.8883
9.58652
6.442
1.80328
3.70395
7.83647
9.20973
7.01352
5.19988
3.84358
2.99105
2.13713
1.1754
0.646642
-21.0803
-47.7236
-53.8256
-32.5581
-20.8659
-14.2689
-9.46831
-5.50956
-3.95781
-5.27239
-5.73749
-0.00181923
9.73009
18.0496
22.4926
23.4211
22.9009
21.4324
19.0039
16.3009
13.8103
11.8784
9.57996
6.44838
1.82703
3.71691
7.84431
9.20851
7.01336
5.19902
3.84259
2.99021
2.1366
1.17495
0.646504
-21.0288
-47.441
-53.6549
-32.5247
-20.9874
-14.4057
-9.54613
-5.53007
-3.97075
-5.31345
-5.78397
-0.0418311
9.68232
17.9793
22.4228
23.3641
22.852
21.3905
18.9737
16.2826
13.7988
11.8687
9.57367
6.45481
1.85104
3.72673
7.85276
9.20755
7.01317
5.19806
3.84152
2.9893
2.13604
1.17445
0.646359
-20.9492
-47.1099
-53.4089
-32.475
-21.1173
-14.5609
-9.63417
-5.55074
-3.98403
-5.35964
-5.83624
-0.0877616
9.62849
17.9005
22.3447
23.3019
22.7996
21.3461
18.9418
16.2636
13.7871
11.8591
9.56765
6.46133
1.87522
3.73384
7.86174
9.20687
7.01294
5.197
3.84037
2.98832
2.13543
1.17392
0.646208
-20.8433
-46.7388
-53.0693
-32.4021
-21.2565
-14.7335
-9.72956
-5.56839
-3.99542
-5.40968
-5.89233
-0.13821
9.57013
17.815
22.2586
23.2338
22.7436
21.2992
18.9084
16.2437
13.7752
11.8496
9.56191
6.46803
1.89948
3.73855
7.87111
9.20656
7.01268
5.19584
3.83913
2.98727
2.13478
1.17334
0.64605
-20.7135
-46.3398
-52.6238
-32.3002
-21.4072
-14.9218
-9.82803
-5.5796
-4.00316
-5.4612
-5.94831
-0.190005
9.50979
17.7256
22.1663
23.1603
22.6837
21.2498
18.8732
16.2228
13.7631
11.8401
9.55645
6.47492
1.92371
3.74111
7.88084
9.20664
7.01239
5.19457
3.83781
2.98615
2.1341
1.17272
0.645889
-20.5629
-45.9284
-52.0713
-32.166
-21.5713
-15.1202
-9.92229
-5.57923
-4.004
-5.51122
-6.00074
-0.240976
9.4492
17.635
22.0703
23.0822
22.6202
21.198
18.8364
16.201
13.7506
11.8308
9.55128
6.48207
1.94779
3.74166
7.89085
9.20719
7.01208
5.1932
3.83641
2.98496
2.13338
1.17206
0.645724
-20.3968
-45.5233
-51.4258
-32.0044
-21.7521
-15.3224
-10.0046
-5.56309
-3.996
-5.5559
-6.04483
-0.287513
9.39078
17.5458
21.9736
23.0014
22.554
21.1442
18.7981
16.1781
13.7377
11.8215
9.54639
6.48948
1.97159
3.74029
7.9012
9.20825
7.01174
5.19171
3.83492
2.9837
2.13262
1.17135
0.645556
-20.2235
-45.1424
-50.7125
-31.8294
-21.9515
-15.5186
-10.0658
-5.52665
-3.97667
-5.59129
-6.07745
-0.32778
9.33558
17.4595
21.8786
22.92
22.486
21.089
18.7588
16.1544
13.7245
11.8123
9.5418
6.49725
1.99497
3.737
7.91189
9.20992
7.01139
5.19011
3.83336
2.98237
2.13183
1.1706
0.645387
-20.0541
-44.8008
-49.9647
-31.668
-22.1716
-15.6995
-10.0993
-5.46835
-3.94575
-5.61363
-6.09547
-0.358988
9.28515
17.3771
21.7868
22.8398
22.4175
21.0329
18.7188
16.1299
13.7109
11.8031
9.53752
6.50535
2.01772
3.73183
7.92305
9.21223
7.01102
5.18841
3.83171
2.98097
2.131
1.16981
0.645217
-19.9005
-44.5101
-49.2173
-31.5523
-22.4111
-15.8558
-10.0998
-5.38833
-3.90319
-5.62081
-6.09891
-0.380853
9.23929
17.2983
21.6987
22.7618
22.3494
20.9768
18.6787
16.105
13.6969
11.794
9.53358
6.51388
2.03968
3.7247
7.93475
9.21528
7.01065
5.18658
3.82998
2.9795
2.13014
1.16897
0.645046
-19.7724
-44.2812
-48.5058
-31.5137
-22.6677
-15.9822
-10.0671
-5.291
-3.85136
-5.61315
-6.08863
-0.392515
9.19827
17.2226
21.6138
22.6863
22.2823
20.9209
18.6388
16.0799
13.6827
11.7849
9.52998
6.52283
2.06057
3.71557
7.9472
9.21913
7.01027
5.18464
3.82815
2.97796
2.12923
1.16808
0.644876
-19.6748
-44.1273
-47.8607
-31.5707
-22.9352
-16.0756
-10.0044
-5.18264
-3.79347
-5.59458
-6.06824
-0.395712
9.16055
17.1484
21.5307
22.6128
22.2163
20.8657
18.5994
16.055
13.6685
11.776
9.52677
6.53232
2.08015
3.70432
7.96052
9.22388
7.00988
5.18258
3.82624
2.97635
2.12829
1.16713
0.644705
-19.6077
-44.0641
-47.3048
-31.7277
-23.2068
-16.1376
-9.91916
-5.07207
-3.73575
-5.57149
-6.04047
-0.391286
9.12532
17.0745
21.4482
22.5404
22.1513
20.811
18.5606
16.0306
13.6545
11.7672
9.52395
6.54232
2.09809
3.69088
7.97495
9.2296
7.0095
5.18039
3.82423
2.97465
2.1273
1.16613
0.644536
-19.5659
-44.1027
-46.8484
-31.9745
-23.4739
-16.171
-9.82079
-4.96842
-3.68639
-5.55077
-6.00858
-0.382111
9.09014
16.9988
21.3646
22.4683
22.0869
20.7569
18.5225
16.0069
13.6408
11.7587
9.5216
6.55299
2.11404
3.67505
7.99071
9.23642
7.00911
5.17806
3.82211
2.97286
2.12627
1.16507
0.644367
-19.5425
-44.2372
-46.4937
-32.2942
-23.7291
-16.1808
-9.72039
-4.88241
-3.65464
-5.53643
-5.97366
-0.369779
9.05355
16.9205
21.2792
22.3958
22.0228
20.7031
18.4847
15.9838
13.6276
11.7504
9.51969
6.56426
2.1275
3.65683
8.00815
9.24441
7.00872
5.17558
3.81988
2.97098
2.12519
1.16393
0.644199
-19.5337
-44.4265
-46.2347
-32.6652
-23.9642
-16.1716
-9.62904
-4.82424
-3.64536
-5.52871
-5.93714
-0.357499
9.01304
16.8385
21.192
22.3229
21.9587
20.6494
18.4472
15.9612
13.6149
11.7424
9.51821
6.57622
2.13815
3.6362
8.02722
9.25353
7.00829
5.17294
3.81751
2.96898
2.12404
1.16272
0.644031
-19.5376
-44.5769
-46.059
-33.0646
-24.1714
-16.1484
-9.55806
-4.79913
-3.65573
-5.52439
-5.89944
-0.347259
8.96783
16.7538
21.1039
22.2496
21.8942
20.5953
18.4094
15.9386
13.6022
11.7343
9.51705
6.58897
2.14605
3.613
8.04672
9.26323
7.0078
5.17015
3.815
2.96685
2.12283
1.16141
0.643859
-19.5157
-44.5371
-45.9381
-33.4661
-24.3398
-16.1177
-9.5154
-4.8009
-3.67586
-5.52004
-5.86448
-0.344125
8.91635
16.6675
21.016
22.1753
21.8283
20.5403
18.3711
15.9155
13.5892
11.7262
9.51648
6.60344
2.15144
3.58608
8.065
9.27332
7.00732
5.1672
3.81232
2.96455
2.12153
1.16
0.643678
-19.3092
-44.1663
-45.8403
-33.856
-24.4647
-16.0922
-9.50085
-4.81831
-3.69985
-5.51803
-5.83855
-0.351649
8.86076
16.5828
20.9294
22.0994
21.7603
20.4842
18.3324
15.8924
13.5768
11.7194
9.51809
6.62004
2.14908
3.55368
8.09205
9.28925
7.0072
5.16379
3.80941
2.96214
2.12018
1.1585
0.643524
8.24639
8.51895
9.29577
10.6368
12.3791
14.3408
16.8792
20.2122
24.4398
29.4665
35.6473
43.2328
52.6549
64.1559
78.8439
96.1723
120.158
145.59
184.115
207.409
254.909
98.0316
8.24618
8.51875
9.29561
10.6362
12.3782
14.34
16.8778
20.2213
24.4514
29.4692
35.6385
43.218
52.6295
64.1129
78.7702
96.0466
119.934
145.153
183.265
205.838
251.067
95.1714
8.24596
8.51855
9.29544
10.6357
12.3772
14.3391
16.8764
20.2332
24.4606
29.4696
35.629
43.2033
52.6048
64.0689
78.6951
95.9165
119.699
144.696
182.392
204.206
247.068
96.9018
8.24573
8.51832
9.29527
10.6351
12.3762
14.3381
16.8749
20.2454
24.4674
29.4682
35.6189
43.1881
52.5791
64.024
78.6175
95.7812
119.454
144.22
181.495
202.508
242.956
96.8384
8.24549
8.51809
9.29509
10.6345
12.3752
14.3372
16.8734
20.2561
24.4723
29.4655
35.6088
43.1725
52.5533
63.9776
78.5374
95.6393
119.197
143.723
180.568
200.742
238.72
95.0908
8.24523
8.51785
9.2949
10.6339
12.374
14.3361
16.8717
20.2633
24.4752
29.4617
35.5988
43.1567
52.5268
63.9302
78.4542
95.4909
118.925
143.202
179.606
198.913
234.358
93.0859
8.24496
8.51759
9.2947
10.6332
12.3728
14.3351
16.87
20.2655
24.4765
29.4571
35.5892
43.1409
52.5003
63.8812
78.3682
95.3349
118.637
142.657
178.603
197.02
229.873
91.22
8.24468
8.51732
9.2945
10.6325
12.3716
14.334
16.8681
20.2629
24.4761
29.4519
35.58
43.125
52.4731
63.8309
78.2787
95.1715
118.332
142.087
177.553
195.067
225.271
89.3313
8.24437
8.51703
9.29428
10.6317
12.3702
14.3328
16.8662
20.2566
24.4742
29.4461
35.5712
43.109
52.4459
63.7789
78.1858
94.9998
118.008
141.491
176.451
193.052
220.558
87.3218
8.24406
8.51672
9.29406
10.6309
12.3688
14.3315
16.8641
20.2475
24.4707
29.4398
35.5628
43.0931
52.4179
63.7255
78.089
94.8199
117.666
140.866
175.291
190.977
215.737
85.2161
8.24372
8.5164
9.29382
10.6301
12.3673
14.3302
16.8619
20.2365
24.4655
29.4331
35.5547
43.0772
52.3898
63.6702
77.9883
94.631
117.303
140.212
174.068
188.84
210.814
83.0494
8.24337
8.51606
9.29356
10.6292
12.3656
14.3289
16.8596
20.2239
24.4585
29.4258
35.5468
43.0612
52.3608
63.6131
77.8832
94.4332
116.919
139.527
172.778
186.641
205.793
80.8328
8.243
8.5157
9.2933
10.6283
12.3639
14.3274
16.8572
20.2103
24.4492
29.4177
35.539
43.0452
52.3315
63.5538
77.7735
94.2258
116.514
138.809
171.418
184.378
200.681
78.5705
8.2426
8.51532
9.29301
10.6273
12.3621
14.3259
16.8546
20.1964
24.4373
29.4087
35.531
43.029
52.3011
63.4923
77.6588
94.0088
116.088
138.058
169.983
182.051
195.483
76.2715
8.24219
8.51491
9.29271
10.6262
12.3602
14.3242
16.8518
20.1826
24.4224
29.3983
35.5226
43.0127
52.2702
63.4283
77.539
93.7813
115.641
137.272
168.472
179.659
190.205
73.9485
8.24175
8.51448
9.29239
10.6251
12.3581
14.3225
16.8489
20.1695
24.4041
29.3861
35.5134
42.9962
52.238
63.3617
77.4134
93.5431
115.17
136.45
166.884
177.198
184.85
71.6151
8.24128
8.51403
9.29205
10.624
12.356
14.3207
16.8459
20.1574
24.3824
29.3715
35.5029
42.9792
52.2051
63.2919
77.2818
93.2934
114.677
135.59
165.218
174.669
179.424
69.2855
8.24079
8.51354
9.29168
10.6228
12.3537
14.3187
16.8426
20.1465
24.3571
29.3538
35.4904
42.9617
52.1707
63.2191
77.1436
93.0317
114.159
134.691
163.472
172.07
173.932
66.9742
8.24027
8.51303
9.29129
10.6215
12.3513
14.3166
16.8392
20.1367
24.329
29.3322
35.475
42.9432
52.1354
63.1426
76.9984
92.757
113.617
133.752
161.646
169.4
168.377
64.6945
8.23972
8.51249
9.29087
10.6201
12.3488
14.3144
16.8355
20.1277
24.2989
29.3061
35.4556
42.9231
52.0984
63.0626
76.8457
92.4689
113.048
132.771
159.741
166.656
162.764
62.4569
8.23914
8.51191
9.29041
10.6187
12.3461
14.3121
16.8317
20.1191
24.2679
29.2749
35.4307
42.9007
52.0602
62.9783
76.6849
92.1662
112.452
131.746
157.755
163.838
157.097
60.2689
8.23852
8.5113
9.28993
10.6171
12.3432
14.3096
16.8275
20.1108
24.2375
29.2386
35.3987
42.8746
52.0196
62.8898
76.5154
91.8485
111.826
130.676
155.688
160.945
151.382
58.1333
8.23787
8.51065
9.2894
10.6155
12.3402
14.3069
16.8231
20.1023
24.2088
29.1977
35.358
42.8429
51.9766
62.7966
76.3369
91.5144
111.17
129.559
153.54
157.973
145.625
56.0478
8.23717
8.50996
9.28883
10.6138
12.337
14.304
16.8184
20.0935
24.1825
29.1535
35.3072
42.8028
51.9295
62.6985
76.1483
91.1635
110.481
128.392
151.309
154.923
139.833
54.0047
8.23644
8.50922
9.28822
10.6121
12.3337
14.301
16.8134
20.0843
24.1585
29.1074
35.2458
42.751
51.8766
62.5946
75.9493
90.7945
109.759
127.174
148.996
151.792
134.015
51.9912
8.23566
8.50844
9.28756
10.6102
12.3301
14.2977
16.8081
20.0745
24.1366
29.0611
35.1747
42.6834
51.814
62.4844
75.7391
90.4067
109.001
125.902
146.598
148.579
128.179
49.9893
8.23484
8.50761
9.28685
10.6082
12.3264
14.2943
16.8024
20.064
24.1158
29.0161
35.0962
42.5966
51.737
62.3656
75.517
89.999
108.206
124.575
144.115
145.282
122.337
47.9776
8.23396
8.50672
9.28607
10.606
12.3225
14.2906
16.7963
20.0529
24.0955
28.9732
35.0133
42.489
51.6378
62.2354
75.2814
89.5706
107.373
123.19
141.547
141.898
116.5
45.9318
8.23303
8.50578
9.28524
10.6038
12.3183
14.2866
16.7899
20.0411
24.075
28.9325
34.9295
42.3622
51.5087
62.0877
75.0304
89.1201
106.501
121.745
138.891
138.426
110.682
43.8264
8.23204
8.50477
9.28433
10.6014
12.3139
14.2823
16.783
20.0285
24.0538
28.8936
34.8475
42.2211
51.3424
61.9141
74.76
88.6462
105.588
120.239
136.148
134.864
104.896
41.6362
8.231
8.5037
9.28335
10.5989
12.3092
14.2778
16.7756
20.0151
24.0317
28.8557
34.7689
42.0727
51.1375
61.7026
74.4637
88.1463
104.634
118.669
133.318
131.212
99.1562
39.3379
8.22988
8.50256
9.28229
10.5962
12.3043
14.2729
16.7678
20.0008
24.0084
28.8176
34.6938
41.9239
50.8988
61.4416
74.1304
87.6166
103.636
117.033
130.4
127.468
93.4765
36.9114
8.2287
8.50134
9.28114
10.5934
12.2991
14.2677
16.7594
19.9857
23.9836
28.7785
34.6213
41.7797
50.6385
61.1235
73.7454
87.0497
102.592
115.331
127.395
123.631
87.871
34.3409
8.22744
8.50004
9.27989
10.5904
12.2937
14.2621
16.7505
19.9696
23.9574
28.7378
34.5499
41.6419
50.3709
60.7508
73.2921
86.4352
101.5
113.561
124.304
119.704
82.353
31.6163
8.2261
8.49866
9.27854
10.5872
12.2879
14.2561
16.741
19.9526
23.9295
28.6949
34.4779
41.5096
50.1084
60.3371
72.7591
85.7581
100.352
111.721
121.127
115.687
76.9351
28.7336
8.22468
8.49718
9.27708
10.5838
12.2818
14.2497
16.7308
19.9344
23.8998
28.6496
34.4036
41.3801
49.8573
59.9033
72.1462
85.0022
99.1403
109.809
117.868
111.582
71.6289
25.6956
8.22316
8.4956
9.27549
10.5802
12.2753
14.2428
16.72
19.9151
23.8684
28.6014
34.326
41.2501
49.6176
59.4698
71.4693
84.1548
97.8535
107.825
114.53
107.395
66.4451
22.5119
8.22155
8.49392
9.27377
10.5764
12.2685
14.2354
16.7084
19.8946
23.8349
28.5502
34.2443
41.1166
49.3849
59.049
70.7558
83.2144
96.48
105.766
111.118
103.131
61.3933
19.1987
8.21983
8.49212
9.27191
10.5724
12.2613
14.2274
16.696
19.8727
23.7994
28.4959
34.1579
40.9773
49.1526
58.6433
70.0344
82.1939
95.0117
103.632
107.643
98.7976
56.483
15.778
8.21799
8.4902
9.26989
10.5681
12.2536
14.2189
16.6827
19.8495
23.7617
28.438
34.0663
40.8308
48.9149
58.2465
69.3239
81.1184
93.4495
101.427
104.118
94.4079
51.7241
12.2765
8.21604
8.48814
9.2677
10.5635
12.2456
14.2098
16.6685
19.8248
23.7216
28.3765
33.9691
40.6761
48.6671
57.8484
68.6287
80.0153
91.8042
99.1545
100.564
89.9787
47.128
8.72534
8.21396
8.48594
9.26533
10.5586
12.237
14.1999
16.6534
19.7985
23.6789
28.3111
33.866
40.5123
48.4066
57.4394
67.9399
78.9039
90.0949
96.8253
97.0071
85.5338
42.7083
5.1585
8.21174
8.48359
9.26276
10.5535
12.228
14.1894
16.6372
19.7705
23.6336
28.2415
33.7564
40.3389
48.1318
57.0122
67.2428
77.7893
88.3414
94.4485
93.4779
81.1041
38.4818
1.6127
8.20937
8.48107
9.25998
10.548
12.2185
14.1781
16.6198
19.7407
23.5855
28.1675
33.64
40.1552
47.8415
56.5627
66.5228
76.6631
86.5578
92.0289
90.0028
76.7271
34.4681
-1.8734
8.20684
8.47838
9.25697
10.5421
12.2083
14.1659
16.6012
19.709
23.5342
28.0888
33.5165
39.9604
47.5348
56.0887
65.7699
75.51
84.7484
89.5636
86.5961
72.4429
30.6889
-5.25957
8.20413
8.4755
9.2537
10.5358
12.1976
14.1529
16.5813
19.6752
23.4798
28.005
33.3852
39.7539
47.2105
55.5889
64.9789
74.3146
82.9075
87.0444
83.2499
68.2867
27.1647
-8.50508
8.20125
8.47241
9.25018
10.5292
12.1863
14.1389
16.56
19.6391
23.4218
27.9158
33.2458
39.5352
46.8677
55.0621
64.1483
73.0664
81.0218
84.4646
79.9328
64.2776
23.9106
-11.5701
8.19817
8.46911
9.24635
10.5221
12.1743
14.1238
16.5372
19.6008
23.3602
27.8209
33.0978
39.3034
46.5054
54.5067
63.2777
71.7612
79.0771
81.8214
76.6028
60.4085
20.9296
-14.4184
8.19487
8.46557
9.24222
10.5145
12.1615
14.1077
16.5128
19.5599
23.2946
27.72
32.9407
39.0579
46.1226
53.9216
62.3665
70.3992
77.0641
79.1129
73.227
56.644
18.2051
-17.0204
8.19135
8.46177
9.23775
10.5065
12.148
14.0903
16.4866
19.5163
23.2248
27.6127
32.7738
38.7979
45.7185
53.3053
61.4135
68.9817
74.9817
76.3369
69.7942
52.9345
15.6967
-19.358
8.18758
8.45771
9.23291
10.4978
12.1336
14.0717
16.4586