/*--------------------------------*- C++ -*----------------------------------*\
| =========                 |                                                 |
| \\      /  F ield         | OpenFOAM: The Open Source CFD Toolbox           |
|  \\    /   O peration     | Version:  v1912                                 |
|   \\  /    A nd           | Website:  www.openfoam.com                      |
|    \\/     M anipulation  |                                                 |
\*---------------------------------------------------------------------------*/
FoamFile
{
    version     2.0;
    format      ascii;
    class       surfaceScalarField;
    location    "150";
    object      phi;
}
// * * * * * * * * * * * * * * * * * * * * * * * * * * * * * * * * * * * * * //

dimensions      [0 3 -1 0 0 0 0];
oriented        oriented;


internalField   nonuniform List<scalar> 
24588
(
6.81675e-05
2.12566e-08
6.8118e-05
5.6154e-08
6.80356e-05
7.56983e-08
6.79225e-05
1.08162e-07
6.7783e-05
1.44169e-07
6.75984e-05
1.89428e-07
6.73668e-05
2.2773e-07
6.70743e-05
2.88898e-07
6.67141e-05
3.63063e-07
6.62646e-05
4.50328e-07
6.57076e-05
5.56556e-07
6.50229e-05
6.8487e-07
6.41191e-05
8.89093e-07
6.29611e-05
1.15465e-06
6.1588e-05
1.4536e-06
5.92643e-05
2.24703e-06
5.64851e-05
2.78709e-06
5.1962e-05
4.52181e-06
4.55217e-05
6.44062e-06
3.446e-05
1.10621e-05
2.06038e-05
1.38561e-05
2.06039e-05
6.8167e-05
4.41914e-08
6.8116e-05
1.16134e-07
6.80357e-05
1.4672e-07
6.79259e-05
2.11438e-07
6.77831e-05
2.9323e-07
6.75969e-05
3.81824e-07
6.73669e-05
4.52728e-07
6.7076e-05
5.75429e-07
6.67145e-05
7.28061e-07
6.62626e-05
9.03133e-07
6.57094e-05
1.10915e-06
6.50217e-05
1.37267e-06
6.41131e-05
1.78082e-06
6.29593e-05
2.30265e-06
6.16e-05
2.89628e-06
5.93183e-05
4.45432e-06
5.64977e-05
5.62212e-06
5.19236e-05
9.09449e-06
4.55546e-05
1.28104e-05
3.43563e-05
2.22609e-05
2.05512e-05
2.76611e-05
4.11552e-05
6.81671e-05
6.69866e-08
6.8116e-05
1.75834e-07
6.80354e-05
2.18552e-07
6.79255e-05
3.15151e-07
6.77831e-05
4.41612e-07
6.7597e-05
5.73802e-07
6.73668e-05
6.78132e-07
6.70759e-05
8.62089e-07
6.67145e-05
1.09291e-06
6.62628e-05
1.3558e-06
6.57083e-05
1.66305e-06
6.50234e-05
2.0578e-06
6.41128e-05
2.67475e-06
6.29567e-05
3.45611e-06
6.15929e-05
4.35137e-06
5.93451e-05
6.61388e-06
5.64933e-05
8.49125e-06
5.19406e-05
1.36444e-05
4.55212e-05
1.92308e-05
3.43654e-05
3.34174e-05
2.05636e-05
4.14626e-05
6.1719e-05
6.8167e-05
8.98592e-08
6.81162e-05
2.35413e-07
6.80359e-05
2.89368e-07
6.7926e-05
4.18611e-07
6.77832e-05
5.9086e-07
6.75971e-05
7.65938e-07
6.73671e-05
9.0306e-07
6.70761e-05
1.14887e-06
6.67145e-05
1.45804e-06
6.62627e-05
1.80848e-06
6.57091e-05
2.21605e-06
6.50208e-05
2.74612e-06
6.41131e-05
3.56566e-06
6.29591e-05
4.60388e-06
6.15892e-05
5.80063e-06
5.9367e-05
8.76493e-06
5.65196e-05
1.1355e-05
5.19551e-05
1.82071e-05
4.55024e-05
2.56848e-05
3.43848e-05
4.45358e-05
2.05905e-05
5.52567e-05
8.23097e-05
6.81672e-05
1.12493e-07
6.81164e-05
2.94478e-07
6.80357e-05
3.6118e-07
6.79257e-05
5.22705e-07
6.77833e-05
7.39244e-07
6.75974e-05
9.57471e-07
6.73672e-05
1.12847e-06
6.70761e-05
1.43582e-06
6.67146e-05
1.82305e-06
6.6263e-05
2.26105e-06
6.57082e-05
2.77031e-06
6.50239e-05
3.43067e-06
6.41141e-05
4.45915e-06
6.29586e-05
5.75768e-06
6.15867e-05
7.26493e-06
5.93746e-05
1.08887e-05
5.65442e-05
1.4203e-05
5.1955e-05
2.2793e-05
4.5517e-05
3.21239e-05
3.44231e-05
5.56304e-05
2.06329e-05
6.90466e-05
0.000102943
6.81671e-05
1.35296e-07
6.81164e-05
3.53601e-07
6.80364e-05
4.31559e-07
6.79264e-05
6.26324e-07
6.77834e-05
8.8886e-07
6.75975e-05
1.14934e-06
6.73675e-05
1.35321e-06
6.70764e-05
1.72282e-06
6.67147e-05
2.18839e-06
6.6263e-05
2.71364e-06
6.57093e-05
3.32333e-06
6.50201e-05
4.11986e-06
6.41136e-05
5.34919e-06
6.29605e-05
6.90386e-06
6.15823e-05
8.71685e-06
5.93776e-05
1.3026e-05
5.65645e-05
1.70321e-05
5.19641e-05
2.73919e-05
4.55457e-05
3.85438e-05
3.44814e-05
6.66954e-05
2.06921e-05
8.28359e-05
0.000123635
6.81672e-05
1.57803e-07
6.81167e-05
4.12064e-07
6.80361e-05
5.03164e-07
6.79259e-05
7.30791e-07
6.77835e-05
1.03742e-06
6.75978e-05
1.34043e-06
6.73676e-05
1.57851e-06
6.70764e-05
2.00999e-06
6.67149e-05
2.55357e-06
6.62633e-05
3.16618e-06
6.57086e-05
3.87752e-06
6.50247e-05
4.80408e-06
6.41146e-05
6.24338e-06
6.29592e-05
8.05955e-06
6.15799e-05
1.01873e-05
5.93718e-05
1.51472e-05
5.65804e-05
1.98382e-05
5.19781e-05
3.19906e-05
4.55858e-05
4.4937e-05
3.45637e-05
7.7718e-05
2.077e-05
9.66293e-05
0.000144405
6.81671e-05
1.80548e-07
6.81167e-05
4.70776e-07
6.80368e-05
5.73095e-07
6.79267e-05
8.34528e-07
6.77836e-05
1.18745e-06
6.75978e-05
1.53204e-06
6.73679e-05
1.80306e-06
6.70767e-05
2.29716e-06
6.67149e-05
2.91909e-06
6.62633e-05
3.61866e-06
6.57098e-05
4.43034e-06
6.50193e-05
5.49451e-06
6.41134e-05
7.13332e-06
6.29612e-05
9.20494e-06
6.15677e-05
1.16471e-05
5.93641e-05
1.72917e-05
5.65996e-05
2.26153e-05
5.20082e-05
3.65811e-05
4.5643e-05
5.13036e-05
3.46752e-05
8.86865e-05
2.0869e-05
0.000110435
0.000165274
6.81673e-05
2.02939e-07
6.8117e-05
5.28742e-07
6.80365e-05
6.44547e-07
6.79262e-05
9.39235e-07
6.77837e-05
1.33614e-06
6.75981e-05
1.72276e-06
6.7368e-05
2.0283e-06
6.70768e-05
2.58452e-06
6.67152e-05
3.28441e-06
6.62636e-05
4.07111e-06
6.5709e-05
4.98451e-06
6.50261e-05
6.17774e-06
6.41164e-05
8.02783e-06
6.29541e-05
1.037e-05
6.15389e-05
1.31418e-05
5.93606e-05
1.94074e-05
5.65883e-05
2.53947e-05
5.206e-05
4.11065e-05
4.57199e-05
5.7644e-05
3.48203e-05
9.95864e-05
2.09918e-05
0.000124264
0.000186266
6.81671e-05
2.25617e-07
6.81169e-05
5.87082e-07
6.80372e-05
7.1414e-07
6.7927e-05
1.04305e-06
6.77838e-05
1.48652e-06
6.75981e-05
1.91413e-06
6.73682e-05
2.25271e-06
6.7077e-05
2.87183e-06
6.67152e-05
3.65006e-06
6.62636e-05
4.52351e-06
6.57105e-05
5.53694e-06
6.50175e-05
6.87064e-06
6.41083e-05
8.92219e-06
6.29432e-05
1.15303e-05
6.14964e-05
1.46269e-05
5.93608e-05
2.15134e-05
5.6545e-05
2.82174e-05
5.21227e-05
4.5529e-05
4.58168e-05
6.39509e-05
3.50003e-05
0.000110403
2.11407e-05
0.000138123
0.000207407
6.81674e-05
2.47876e-07
6.81172e-05
6.44547e-07
6.80368e-05
7.85553e-07
6.79263e-05
1.14803e-06
6.77839e-05
1.63532e-06
6.75985e-05
2.10445e-06
6.73684e-05
2.47795e-06
6.70771e-05
3.15933e-06
6.67154e-05
4.01547e-06
6.6264e-05
4.97584e-06
6.57103e-05
6.09027e-06
6.50245e-05
7.55671e-06
6.41151e-05
9.81833e-06
6.29376e-05
1.27139e-05
6.14534e-05
1.61558e-05
5.93444e-05
2.35915e-05
5.64896e-05
3.10742e-05
5.2189e-05
4.98274e-05
4.59299e-05
7.02099e-05
3.52113e-05
0.000121122
2.13164e-05
0.000152018
0.000228724
6.81672e-05
2.70468e-07
6.81171e-05
7.02526e-07
6.80375e-05
8.5495e-07
6.79272e-05
1.25191e-06
6.7784e-05
1.78597e-06
6.75983e-05
2.29558e-06
6.73685e-05
2.70229e-06
6.70773e-05
3.44674e-06
6.67154e-05
4.38119e-06
6.62638e-05
5.4282e-06
6.57121e-05
6.64129e-06
6.50101e-05
8.25858e-06
6.40997e-05
1.07168e-05
6.29332e-05
1.38778e-05
6.14063e-05
1.76918e-05
5.9318e-05
2.56727e-05
5.64464e-05
3.39492e-05
5.22547e-05
5.40199e-05
4.60506e-05
7.64146e-05
3.54447e-05
0.000131728
2.15179e-05
0.000165945
0.000250242
6.81675e-05
2.9258e-07
6.81174e-05
7.59561e-07
6.8037e-05
9.26511e-07
6.79265e-05
1.35708e-06
6.7784e-05
1.93474e-06
6.75987e-05
2.48555e-06
6.73687e-05
2.92762e-06
6.70773e-05
3.73433e-06
6.67156e-05
4.74676e-06
6.62641e-05
5.88057e-06
6.57115e-05
7.19355e-06
6.50092e-05
8.96128e-06
6.40949e-05
1.16226e-05
6.29204e-05
1.50578e-05
6.13602e-05
1.92749e-05
5.92921e-05
2.77274e-05
5.64208e-05
3.68203e-05
5.23128e-05
5.81264e-05
4.61695e-05
8.25576e-05
3.5691e-05
0.000142207
2.17429e-05
0.000179892
0.000271985
6.81672e-05
3.15067e-07
6.81172e-05
8.17193e-07
6.80378e-05
9.95854e-07
6.79274e-05
1.46102e-06
6.77841e-05
2.08559e-06
6.75986e-05
2.67643e-06
6.73688e-05
3.15196e-06
6.70776e-05
4.02178e-06
6.67156e-05
5.11261e-06
6.62638e-05
6.33311e-06
6.57103e-05
7.74638e-06
6.49898e-05
9.68163e-06
6.40762e-05
1.253e-05
6.28985e-05
1.62331e-05
6.13232e-05
2.08468e-05
5.9272e-05
2.97795e-05
5.64075e-05
3.96867e-05
5.23602e-05
6.21746e-05
4.6281e-05
8.86373e-05
3.59421e-05
0.000152546
2.19884e-05
0.000193846
0.000293973
6.81676e-05
3.37011e-07
6.81177e-05
8.73758e-07
6.80371e-05
1.06765e-06
6.79265e-05
1.56645e-06
6.77842e-05
2.23429e-06
6.7599e-05
2.86599e-06
6.73689e-05
3.37743e-06
6.70777e-05
4.3094e-06
6.67158e-05
5.47826e-06
6.62638e-05
6.78605e-06
6.57086e-05
8.30127e-06
6.49807e-05
1.041e-05
6.40672e-05
1.34408e-05
6.28754e-05
1.74292e-05
6.1296e-05
2.24388e-05
5.92566e-05
3.18111e-05
5.64001e-05
4.25426e-05
5.23978e-05
6.61757e-05
4.63828e-05
9.4652e-05
3.6193e-05
0.000162736
2.22511e-05
0.000207788
0.000316224
6.81673e-05
3.59374e-07
6.81174e-05
9.3104e-07
6.8038e-05
1.13705e-06
6.79275e-05
1.67046e-06
6.77842e-05
2.38528e-06
6.75988e-05
3.05661e-06
6.7369e-05
3.60181e-06
6.70779e-05
4.59684e-06
6.6716e-05
5.84398e-06
6.62635e-05
7.23924e-06
6.57042e-05
8.85997e-06
6.49727e-05
1.11413e-05
6.40527e-05
1.43587e-05
6.2856e-05
1.86235e-05
6.12765e-05
2.40123e-05
5.92447e-05
3.38455e-05
5.6395e-05
4.53936e-05
5.24277e-05
7.01438e-05
4.64751e-05
0.000100605
3.64409e-05
0.00017277
2.2528e-05
0.000221701
0.000338752
6.81677e-05
3.81141e-07
6.81178e-05
9.87201e-07
6.80372e-05
1.20924e-06
6.79265e-05
1.77605e-06
6.77843e-05
2.5338e-06
6.75993e-05
3.24583e-06
6.73691e-05
3.82748e-06
6.7078e-05
4.88443e-06
6.67162e-05
6.20947e-06
6.62641e-05
7.69235e-06
6.56964e-05
9.42738e-06
6.49714e-05
1.18668e-05
6.4039e-05
1.52907e-05
6.28402e-05
1.98253e-05
6.12621e-05
2.55998e-05
5.9235e-05
3.58673e-05
5.63907e-05
4.82372e-05
5.24523e-05
7.40812e-05
4.65594e-05
0.000106498
3.66844e-05
0.000182645
2.2817e-05
0.000235568
0.000361569
6.81674e-05
4.0337e-07
6.81176e-05
1.04415e-06
6.80381e-05
1.27878e-06
6.79276e-05
1.88012e-06
6.77843e-05
2.68486e-06
6.7599e-05
3.43619e-06
6.73692e-05
4.05196e-06
6.70783e-05
5.1718e-06
6.67163e-05
6.57522e-06
6.62647e-05
8.14453e-06
6.56861e-05
1.00054e-05
6.49677e-05
1.25851e-05
6.40256e-05
1.62318e-05
6.28279e-05
2.10206e-05
6.12512e-05
2.71705e-05
5.92268e-05
3.78946e-05
5.63866e-05
5.10783e-05
5.24737e-05
7.79949e-05
4.66376e-05
0.000112334
3.69238e-05
0.000192359
2.31164e-05
0.000249375
0.000384686
6.81678e-05
4.24947e-07
6.81181e-05
1.09987e-06
6.80373e-05
1.35139e-06
6.79265e-05
1.98595e-06
6.77844e-05
2.8332e-06
6.75995e-05
3.62501e-06
6.73693e-05
4.27784e-06
6.70784e-05
5.4593e-06
6.67163e-05
6.94091e-06
6.62656e-05
8.59621e-06
6.56784e-05
1.05925e-05
6.49618e-05
1.33021e-05
6.40146e-05
1.71791e-05
6.28179e-05
2.22198e-05
6.12427e-05
2.87534e-05
5.92197e-05
3.99132e-05
5.63827e-05
5.39147e-05
5.24936e-05
8.18831e-05
4.67118e-05
0.000118116
3.71599e-05
0.000201911
2.34252e-05
0.00026311
0.000408111
6.81675e-05
4.47034e-07
6.81177e-05
1.15647e-06
6.80383e-05
1.42112e-06
6.79277e-05
2.09008e-06
6.77844e-05
2.9843e-06
6.75992e-05
3.81509e-06
6.73694e-05
4.50246e-06
6.70787e-05
5.74658e-06
6.67163e-05
7.3069e-06
6.62629e-05
9.05022e-06
6.56748e-05
1.11801e-05
6.49542e-05
1.40224e-05
6.40053e-05
1.81275e-05
6.28099e-05
2.34131e-05
6.12358e-05
3.03219e-05
5.92136e-05
4.19381e-05
5.63793e-05
5.67498e-05
5.25135e-05
8.57496e-05
4.67838e-05
0.000123846
3.73941e-05
0.000211301
2.3743e-05
0.000276761
0.000431854
6.81679e-05
4.68422e-07
6.81182e-05
1.21181e-06
6.80373e-05
1.49424e-06
6.79265e-05
2.19608e-06
6.77845e-05
3.13238e-06
6.75998e-05
4.00355e-06
6.73695e-05
4.72862e-06
6.70787e-05
6.03405e-06
6.67167e-05
7.67249e-06
6.62564e-05
9.51141e-06
6.56757e-05
1.1761e-05
6.49469e-05
1.47515e-05
6.39976e-05
1.9077e-05
6.28031e-05
2.46098e-05
6.12302e-05
3.19014e-05
5.92084e-05
4.39561e-05
5.63767e-05
5.9581e-05
5.25345e-05
8.95909e-05
4.68556e-05
0.000129524
3.76281e-05
0.000220528
2.40699e-05
0.000290319
0.000455924
6.81676e-05
4.90361e-07
6.81179e-05
1.26809e-06
6.80384e-05
1.56423e-06
6.79278e-05
2.30026e-06
6.77844e-05
3.28348e-06
6.75994e-05
4.19335e-06
6.73696e-05
4.95338e-06
6.70789e-05
6.32141e-06
6.67171e-05
8.03784e-06
6.62481e-05
9.98094e-06
6.56769e-05
1.23319e-05
6.49401e-05
1.54881e-05
6.39911e-05
2.00255e-05
6.27974e-05
2.58014e-05
6.12256e-05
3.34681e-05
5.92042e-05
4.59802e-05
5.63752e-05
6.24107e-05
5.25575e-05
9.34094e-05
4.69284e-05
0.000135154
3.78638e-05
0.000229593
2.44064e-05
0.000303776
0.000480331
6.8168e-05
5.11554e-07
6.81184e-05
1.32302e-06
6.80374e-05
1.63782e-06
6.79265e-05
2.40648e-06
6.77846e-05
3.43132e-06
6.76e-05
4.38143e-06
6.73698e-05
5.17975e-06
6.70788e-05
6.60908e-06
6.67179e-05
8.40217e-06
6.62418e-05
1.04581e-05
6.56764e-05
1.28975e-05
6.49341e-05
1.62306e-05
6.39855e-05
2.09743e-05
6.27925e-05
2.69965e-05
6.12219e-05
3.50446e-05
5.9201e-05
4.79975e-05
5.63753e-05
6.52359e-05
5.2583e-05
9.72007e-05
4.70034e-05
0.000140733
3.81031e-05
0.000238493
2.47532e-05
0.000317126
0.000505084
6.81676e-05
5.33342e-07
6.8118e-05
1.37897e-06
6.80385e-05
1.70809e-06
6.79278e-05
2.51072e-06
6.77845e-05
3.5824e-06
6.75996e-05
4.57097e-06
6.73699e-05
5.40461e-06
6.7079e-05
6.89665e-06
6.67185e-05
8.76618e-06
6.62371e-05
1.09399e-05
6.56741e-05
1.34603e-05
6.49288e-05
1.69757e-05
6.39806e-05
2.19221e-05
6.27883e-05
2.8187e-05
6.12189e-05
3.66091e-05
5.91991e-05
5.00199e-05
5.63771e-05
6.80587e-05
5.26114e-05
0.000100967
4.70814e-05
0.000146263
3.83482e-05
0.000247226
2.51115e-05
0.000330363
0.000530195
6.81682e-05
5.54342e-07
6.81185e-05
1.43354e-06
6.80373e-05
1.78225e-06
6.79264e-05
2.61708e-06
6.77847e-05
3.7299e-06
6.76002e-05
4.75872e-06
6.737e-05
5.6312e-06
6.7079e-05
7.1845e-06
6.67192e-05
9.12938e-06
6.62344e-05
1.14256e-05
6.56711e-05
1.40238e-05
6.49242e-05
1.77228e-05
6.39764e-05
2.28701e-05
6.27846e-05
2.93807e-05
6.12168e-05
3.81825e-05
5.91985e-05
5.20347e-05
5.6381e-05
7.08758e-05
5.26425e-05
0.000104705
4.7163e-05
0.000151742
3.86012e-05
0.000255788
2.54826e-05
0.000343481
0.000555678
6.81677e-05
5.75978e-07
6.81182e-05
1.48919e-06
6.80386e-05
1.85282e-06
6.79279e-05
2.72136e-06
6.77846e-05
3.88092e-06
6.75998e-05
4.948e-06
6.73701e-05
5.85619e-06
6.70793e-05
7.47212e-06
6.67183e-05
9.49379e-06
6.62333e-05
1.19109e-05
6.56679e-05
1.4589e-05
6.492e-05
1.84706e-05
6.39725e-05
2.38172e-05
6.27814e-05
3.05699e-05
6.12153e-05
3.97439e-05
5.91994e-05
5.40531e-05
5.6387e-05
7.3689e-05
5.26764e-05
0.000108416
4.72485e-05
0.000157171
3.88639e-05
0.000264173
2.5868e-05
0.000356477
0.000581546
6.81683e-05
5.96787e-07
6.81187e-05
1.54338e-06
6.80373e-05
1.9275e-06
6.79264e-05
2.82793e-06
6.77848e-05
4.02815e-06
6.76005e-05
5.13539e-06
6.73703e-05
6.08299e-06
6.70793e-05
7.75992e-06
6.67141e-05
9.86237e-06
6.62362e-05
1.23897e-05
6.56648e-05
1.51605e-05
6.49162e-05
1.92194e-05
6.3969e-05
2.47646e-05
6.27787e-05
3.17621e-05
6.12145e-05
4.13136e-05
5.92016e-05
5.60625e-05
5.63951e-05
7.64949e-05
5.27127e-05
0.000112098
4.73379e-05
0.000162545
3.91384e-05
0.000272372
2.62691e-05
0.000369346
0.000607815
6.81678e-05
6.18273e-07
6.81183e-05
1.59871e-06
6.80386e-05
1.99837e-06
6.79279e-05
2.93227e-06
6.77847e-05
4.17911e-06
6.76e-05
5.32439e-06
6.73703e-05
6.30812e-06
6.70796e-05
8.04747e-06
6.67076e-05
1.02377e-05
6.62408e-05
1.28565e-05
6.56619e-05
1.57393e-05
6.49127e-05
1.99684e-05
6.39658e-05
2.57111e-05
6.27763e-05
3.29498e-05
6.12144e-05
4.28709e-05
5.92051e-05
5.80744e-05
5.64054e-05
7.92955e-05
5.27515e-05
0.000115752
4.74313e-05
0.000167866
3.94261e-05
0.000280378
2.66875e-05
0.000382085
0.000634503
6.81684e-05
6.38899e-07
6.81188e-05
1.65259e-06
6.80373e-05
2.07363e-06
6.79263e-05
3.03895e-06
6.77849e-05
4.326e-06
6.76007e-05
5.51146e-06
6.73705e-05
6.53518e-06
6.70798e-05
8.33513e-06
6.67028e-05
1.06178e-05
6.62442e-05
1.33156e-05
6.56591e-05
1.63245e-05
6.49095e-05
2.07182e-05
6.39629e-05
2.66579e-05
6.27743e-05
3.41402e-05
6.12148e-05
4.44359e-05
5.92098e-05
6.00758e-05
5.64176e-05
8.20871e-05
5.27924e-05
0.000119377
4.75285e-05
0.000173129
3.97283e-05
0.000288178
2.71246e-05
0.000394689
0.000661627
6.81679e-05
6.60239e-07
6.81184e-05
1.70763e-06
6.80387e-05
2.14481e-06
6.7928e-05
3.14334e-06
6.77848e-05
4.4769e-06
6.76002e-05
5.70019e-06
6.73706e-05
6.76047e-06
6.70801e-05
8.62251e-06
6.66996e-05
1.10014e-05
6.62459e-05
1.37693e-05
6.56565e-05
1.69138e-05
6.49065e-05
2.1468e-05
6.39602e-05
2.76039e-05
6.27727e-05
3.53259e-05
6.12158e-05
4.59881e-05
5.92156e-05
6.20786e-05
5.64319e-05
8.48717e-05
5.28355e-05
0.000122974
4.76292e-05
0.000178336
4.00457e-05
0.000295761
2.75817e-05
0.000407153
0.000689209
6.81685e-05
6.80684e-07
6.8119e-05
1.76114e-06
6.80373e-05
2.22055e-06
6.79263e-05
3.25025e-06
6.7785e-05
4.62353e-06
6.76009e-05
5.88688e-06
6.73708e-05
6.98773e-06
6.70803e-05
8.90988e-06
6.66977e-05
1.1387e-05
6.62466e-05
1.42209e-05
6.5654e-05
1.75064e-05
6.49038e-05
2.22184e-05
6.39578e-05
2.85501e-05
6.27714e-05
3.65143e-05
6.12174e-05
4.75477e-05
5.92224e-05
6.407e-05
5.6448e-05
8.76456e-05
5.28805e-05
0.00012654
4.7733e-05
0.000183483
4.03785e-05
0.000303116
2.80595e-05
0.000419472
0.000717269
6.8168e-05
7.01885e-07
6.81186e-05
1.81591e-06
6.80388e-05
2.29202e-06
6.7928e-05
3.35467e-06
6.77849e-05
4.77437e-06
6.76004e-05
6.07535e-06
6.73708e-05
7.21316e-06
6.70806e-05
9.19704e-06
6.66964e-05
1.17741e-05
6.62465e-05
1.46707e-05
6.56517e-05
1.81012e-05
6.49011e-05
2.29688e-05
6.39555e-05
2.94954e-05
6.27703e-05
3.76975e-05
6.12193e-05
4.9094e-05
5.92301e-05
6.60619e-05
5.64659e-05
9.04106e-05
5.29275e-05
0.00013008
4.78395e-05
0.000188571
4.07265e-05
0.000310229
2.85586e-05
0.000431639
0.000745827
6.81686e-05
7.2216e-07
6.81191e-05
1.86913e-06
6.80373e-05
2.3683e-06
6.79262e-05
3.4617e-06
6.77851e-05
4.92066e-06
6.76012e-05
6.26171e-06
6.7371e-05
7.44065e-06
6.70809e-05
9.48423e-06
6.66955e-05
1.21623e-05
6.62461e-05
1.51205e-05
6.56494e-05
1.8698e-05
6.48987e-05
2.37196e-05
6.39534e-05
3.0441e-05
6.27695e-05
3.88834e-05
6.12217e-05
5.06473e-05
5.92386e-05
6.80413e-05
5.64857e-05
9.3163e-05
5.29764e-05
0.000133588
4.79486e-05
0.000193599
4.10892e-05
0.000317088
2.90794e-05
0.000443649
0.000774907
6.81681e-05
7.43233e-07
6.81187e-05
1.92365e-06
6.80389e-05
2.44003e-06
6.7928e-05
3.56614e-06
6.77849e-05
5.07147e-06
6.76006e-05
6.44991e-06
6.73711e-05
7.66619e-06
6.70812e-05
9.77117e-06
6.66949e-05
1.25513e-05
6.62453e-05
1.55701e-05
6.56472e-05
1.9296e-05
6.48963e-05
2.44704e-05
6.39514e-05
3.13855e-05
6.27689e-05
4.00638e-05
6.12245e-05
5.21872e-05
5.92479e-05
7.00205e-05
5.65071e-05
9.59047e-05
5.30273e-05
0.000137069
4.80601e-05
0.000198566
4.1466e-05
0.000323683
2.9622e-05
0.000455493
0.000804529
6.81687e-05
7.63359e-07
6.81192e-05
1.97663e-06
6.80373e-05
2.51678e-06
6.79262e-05
3.67325e-06
6.77852e-05
5.21747e-06
6.76014e-05
6.63598e-06
6.73713e-05
7.89388e-06
6.70814e-05
1.00582e-05
6.66943e-05
1.29408e-05
6.62443e-05
1.60204e-05
6.5645e-05
1.98954e-05
6.48941e-05
2.52214e-05
6.39496e-05
3.23302e-05
6.27686e-05
4.1247e-05
6.12276e-05
5.37336e-05
5.92579e-05
7.19864e-05
5.65302e-05
9.86319e-05
5.30801e-05
0.000140518
4.8174e-05
0.000203472
4.18562e-05
0.00033
3.01863e-05
0.000467163
0.000834715
6.81681e-05
7.84316e-07
6.81188e-05
2.03089e-06
6.8039e-05
2.5887e-06
6.79281e-05
3.77774e-06
6.7785e-05
5.36832e-06
6.76009e-05
6.82392e-06
6.73714e-05
8.11949e-06
6.70816e-05
1.03452e-05
6.66941e-05
1.33305e-05
6.62432e-05
1.64713e-05
6.5643e-05
2.04955e-05
6.4892e-05
2.59723e-05
6.39479e-05
3.3274e-05
6.27685e-05
4.24243e-05
6.1231e-05
5.52665e-05
5.92686e-05
7.39515e-05
5.65548e-05
0.000101347
5.31349e-05
0.000143938
4.82903e-05
0.000208317
4.22597e-05
0.000336031
3.07725e-05
0.00047865
0.000865488
6.81688e-05
8.04307e-07
6.81193e-05
2.08359e-06
6.80373e-05
2.66578e-06
6.79262e-05
3.88501e-06
6.77853e-05
5.51418e-06
6.76017e-05
7.00966e-06
6.73716e-05
8.34728e-06
6.708e-05
1.0634e-05
6.66959e-05
1.37161e-05
6.6242e-05
1.69255e-05
6.56409e-05
2.10966e-05
6.489e-05
2.67234e-05
6.39464e-05
3.42177e-05
6.27686e-05
4.36045e-05
6.12348e-05
5.68057e-05
5.92799e-05
7.59027e-05
5.65809e-05
0.000104045
5.31917e-05
0.000147327
4.84093e-05
0.000213099
4.26762e-05
0.000341764
3.13808e-05
0.000489945
0.000896869
6.81682e-05
8.25164e-07
6.81189e-05
2.13758e-06
6.80391e-05
2.73777e-06
6.79282e-05
3.98955e-06
6.77851e-05
5.66517e-06
6.76011e-05
7.19729e-06
6.73715e-05
8.57307e-06
6.70733e-05
1.09297e-05
6.67021e-05
1.40882e-05
6.62406e-05
1.73869e-05
6.5639e-05
2.16982e-05
6.4888e-05
2.74742e-05
6.3945e-05
3.51604e-05
6.27689e-05
4.47783e-05
6.12389e-05
5.8331e-05
5.92919e-05
7.78524e-05
5.66083e-05
0.000106729
5.32506e-05
0.000150685
4.8531e-05
0.000217819
4.31058e-05
0.000347189
3.20118e-05
0.000501039
0.00092888
6.81689e-05
8.45004e-07
6.81195e-05
2.18994e-06
6.80374e-05
2.81523e-06
6.79262e-05
4.09711e-06
6.77853e-05
5.81084e-06
6.7602e-05
7.38259e-06
6.73718e-05
8.80116e-06
6.70671e-05
1.12318e-05
6.67075e-05
1.4448e-05
6.62392e-05
1.78555e-05
6.5637e-05
2.23005e-05
6.48862e-05
2.82252e-05
6.39437e-05
3.61031e-05
6.27694e-05
4.5955e-05
6.12433e-05
5.98626e-05
5.93044e-05
7.97878e-05
5.6637e-05
0.000109396
5.33118e-05
0.00015401
4.86554e-05
0.000222475
4.35488e-05
0.000352296
3.26659e-05
0.000511922
0.000961546
6.81683e-05
8.65759e-07
6.8119e-05
2.24366e-06
6.80393e-05
2.88736e-06
6.79283e-05
4.20174e-06
6.77851e-05
5.9619e-06
6.76014e-05
7.56989e-06
6.73717e-05
9.02718e-06
6.70644e-05
1.15367e-05
6.67093e-05
1.48033e-05
6.62377e-05
1.83269e-05
6.56351e-05
2.29029e-05
6.48844e-05
2.89758e-05
6.39426e-05
3.70445e-05
6.27702e-05
4.71249e-05
6.12481e-05
6.13797e-05
5.93175e-05
8.17214e-05
5.66669e-05
0.000112047
5.33752e-05
0.000157302
4.87821e-05
0.000227068
4.40046e-05
0.000357074
3.33436e-05
0.000522583
0.00099489
6.81689e-05
8.85564e-07
6.81195e-05
2.29589e-06
6.80376e-05
2.96468e-06
6.79264e-05
4.30917e-06
6.77854e-05
6.10785e-06
6.76024e-05
7.75492e-06
6.73707e-05
9.25676e-06
6.70639e-05
1.18417e-05
6.67094e-05
1.51578e-05
6.62362e-05
1.88003e-05
6.56333e-05
2.3506e-05
6.48827e-05
2.97265e-05
6.39416e-05
3.79859e-05
6.27711e-05
4.82983e-05
6.12533e-05
6.29042e-05
5.93311e-05
8.36396e-05
5.66977e-05
0.00011468
5.34412e-05
0.000160558
4.89106e-05
0.000231599
4.44714e-05
0.000361513
3.4044e-05
0.00053301
0.00102893
6.81684e-05
9.06132e-07
6.81192e-05
2.34927e-06
6.80392e-05
3.03743e-06
6.79282e-05
4.41409e-06
6.77852e-05
6.2585e-06
6.76019e-05
7.94155e-06
6.7364e-05
9.49131e-06
6.70688e-05
1.21359e-05
6.67089e-05
1.55178e-05
6.62346e-05
1.92744e-05
6.56314e-05
2.4109e-05
6.48811e-05
3.04766e-05
6.39407e-05
3.89259e-05
6.27723e-05
4.94638e-05
6.12588e-05
6.44122e-05
5.93453e-05
8.55562e-05
5.67294e-05
0.000117297
5.35099e-05
0.000163778
4.90399e-05
0.000236069
4.49443e-05
0.000365608
3.47639e-05
0.000543191
0.0010637
6.8169e-05
9.25747e-07
6.81197e-05
2.40112e-06
6.80375e-05
3.11538e-06
6.79263e-05
4.52195e-06
6.77855e-05
6.40397e-06
6.76027e-05
8.12605e-06
6.73572e-05
9.73494e-06
6.70752e-05
1.24177e-05
6.67083e-05
1.58847e-05
6.62331e-05
1.97498e-05
6.56296e-05
2.47126e-05
6.48796e-05
3.12268e-05
6.394e-05
3.98658e-05
6.27738e-05
5.0633e-05
6.12648e-05
6.5928e-05
5.936e-05
8.74571e-05
5.67617e-05
0.000119894
5.35814e-05
0.000166957
4.91693e-05
0.000240481
4.54133e-05
0.000369364
3.5495e-05
0.000553109
0.00109919
6.81682e-05
9.46529e-07
6.81189e-05
2.45477e-06
6.80398e-05
3.1866e-06
6.79289e-05
4.62604e-06
6.77853e-05
6.55616e-06
6.76019e-05
8.31313e-06
6.73546e-05
9.97862e-06
6.70779e-05
1.26943e-05
6.67075e-05
1.62551e-05
6.62315e-05
2.02257e-05
6.56278e-05
2.53161e-05
6.48781e-05
3.19764e-05
6.39394e-05
4.08041e-05
6.27755e-05
5.17942e-05
6.1271e-05
6.74268e-05
5.93754e-05
8.93557e-05
5.67944e-05
0.000122476
5.36568e-05
0.000170096
4.92975e-05
0.00024484
4.58743e-05
0.000372788
3.63159e-05
0.000562668
0.00113551
-1.01729e-05
1.01728e-05
-1.76719e-05
7.49892e-06
-1.83183e-05
6.46303e-07
-1.44411e-05
-3.87758e-06
-1.10487e-05
-3.39211e-06
-9.25286e-06
-1.79695e-06
-8.18961e-06
-1.06438e-06
-7.45557e-06
-7.36313e-07
-6.67018e-06
-7.97641e-07
-5.58079e-06
-1.10363e-06
-3.78977e-06
-1.88119e-06
-9.59988e-07
-2.72712e-06
2.84964e-06
-3.79504e-06
7.29978e-06
-4.44985e-06
1.2329e-05
-5.03072e-06
1.78826e-05
-5.55408e-06
2.34619e-05
-5.57952e-06
2.8575e-05
-5.11314e-06
3.32672e-05
-4.69225e-06
3.78248e-05
-4.55756e-06
4.2224e-05
-4.39877e-06
4.59765e-05
-3.75271e-06
4.88888e-05
-2.91185e-06
5.24161e-05
-3.52784e-06
5.79646e-05
-5.54898e-06
6.30877e-05
-5.12276e-06
6.54024e-05
-2.31444e-06
6.60767e-05
-6.74434e-07
6.63882e-05
-3.11501e-07
6.66687e-05
-2.80462e-07
6.69204e-05
-2.51669e-07
6.7126e-05
-2.05601e-07
6.72882e-05
-1.62188e-07
6.74246e-05
-1.36469e-07
-6.26886e-08
-1.00281e-05
2.02008e-05
-1.74248e-05
1.48955e-05
-1.80052e-05
1.22648e-06
-1.40985e-05
-7.78499e-06
-1.07899e-05
-6.70019e-06
-9.04325e-06
-3.54583e-06
-7.97074e-06
-2.1391e-06
-7.16764e-06
-1.54395e-06
-6.32188e-06
-1.66666e-06
-5.33505e-06
-2.11828e-06
-3.80346e-06
-3.55391e-06
-1.15681e-06
-5.2074e-06
2.60067e-06
-7.52391e-06
7.09811e-06
-8.94651e-06
1.20884e-05
-1.00239e-05
1.7512e-05
-1.09787e-05
2.30132e-05
-1.1081e-05
2.81226e-05
-1.02226e-05
3.27872e-05
-9.35701e-06
3.72997e-05
-9.06987e-06
4.17546e-05
-8.85292e-06
4.56774e-05
-7.67594e-06
4.87321e-05
-5.96566e-06
5.2251e-05
-7.04788e-06
5.77542e-05
-1.1053e-05
6.296e-05
-1.03279e-05
6.53752e-05
-4.72923e-06
6.60806e-05
-1.37996e-06
6.63918e-05
-6.22773e-07
6.66698e-05
-5.58394e-07
6.69211e-05
-5.02964e-07
6.71271e-05
-4.11586e-07
6.72894e-05
-3.24486e-07
6.74258e-05
-2.72819e-07
-1.25433e-07
-9.87386e-06
3.00745e-05
-1.71103e-05
2.21318e-05
-1.76094e-05
1.72541e-06
-1.3695e-05
-1.17002e-05
-1.04557e-05
-9.93884e-06
-8.72879e-06
-5.27506e-06
-7.61503e-06
-3.25491e-06
-6.75632e-06
-2.40689e-06
-5.93969e-06
-2.50579e-06
-5.14017e-06
-2.94378e-06
-3.83557e-06
-5.00473e-06
-1.30018e-06
-7.56798e-06
2.47251e-06
-1.12673e-05
7.00149e-06
-1.34749e-05
1.19286e-05
-1.49542e-05
1.72143e-05
-1.62654e-05
2.26255e-05
-1.64926e-05
2.77233e-05
-1.53205e-05
3.2369e-05
-1.40028e-05
3.68447e-05
-1.35455e-05
4.13421e-05
-1.33495e-05
4.54103e-05
-1.17446e-05
4.8596e-05
-9.15058e-06
5.21076e-05
-1.05604e-05
5.75636e-05
-1.65098e-05
6.28409e-05
-1.56046e-05
6.53501e-05
-7.23801e-06
6.60851e-05
-2.11504e-06
6.6396e-05
-9.33783e-07
6.66714e-05
-8.33775e-07
6.69223e-05
-7.53845e-07
6.71286e-05
-6.17881e-07
6.7291e-05
-4.86788e-07
6.74271e-05
-4.08954e-07
-1.88129e-07
-9.68044e-06
3.97548e-05
-1.67365e-05
2.91876e-05
-1.71204e-05
2.1091e-06
-1.31719e-05
-1.56495e-05
-1.00118e-05
-1.30985e-05
-8.31652e-06
-6.97283e-06
-7.17932e-06
-4.39449e-06
-6.28812e-06
-3.30306e-06
-5.52159e-06
-3.29668e-06
-4.90738e-06
-3.58745e-06
-3.8095e-06
-6.22489e-06
-1.36814e-06
-9.85183e-06
2.43053e-06
-1.50312e-05
6.9951e-06
-1.80384e-05
1.18586e-05
-1.98213e-05
1.69937e-05
-2.14018e-05
2.22886e-05
-2.1788e-05
2.73596e-05
-2.03915e-05
3.19982e-05
-1.86416e-05
3.6454e-05
-1.80011e-05
4.09845e-05
-1.78792e-05
4.51732e-05
-1.59337e-05
4.84788e-05
-1.24553e-05
5.1985e-05
-1.40678e-05
5.73917e-05
-2.19173e-05
6.273e-05
-2.09423e-05
6.53268e-05
-9.83439e-06
6.60902e-05
-2.87849e-06
6.64008e-05
-1.24448e-06
6.66736e-05
-1.10658e-06
6.6924e-05
-1.00425e-06
6.71306e-05
-8.24401e-07
6.72928e-05
-6.4899e-07
6.74286e-05
-5.44755e-07
-2.50683e-07
-9.44977e-06
4.92045e-05
-1.62976e-05
3.60352e-05
-1.65241e-05
2.33545e-06
-1.25189e-05
-1.96555e-05
-9.45111e-06
-1.61657e-05
-7.8034e-06
-8.62304e-06
-6.66307e-06
-5.53696e-06
-5.75749e-06
-4.21314e-06
-5.05465e-06
-4.02304e-06
-4.61898e-06
-4.05083e-06
-3.70625e-06
-7.25385e-06
-1.33937e-06
-1.20629e-05
2.49881e-06
-1.88332e-05
7.10611e-06
-2.2645e-05
1.19092e-05
-2.46283e-05
1.6882e-05
-2.63759e-05
2.2027e-05
-2.69334e-05
2.70437e-05
-2.54082e-05
3.16796e-05
-2.32777e-05
3.61302e-05
-2.24516e-05
4.0684e-05
-2.24322e-05
4.49679e-05
-2.02181e-05
4.83811e-05
-1.58676e-05
5.18829e-05
-1.75708e-05
5.72379e-05
-2.72731e-05
6.26271e-05
-2.63309e-05
6.53053e-05
-1.25123e-05
6.60959e-05
-3.66914e-06
6.64062e-05
-1.5548e-06
6.66764e-05
-1.37678e-06
6.69263e-05
-1.25413e-06
6.7133e-05
-1.03106e-06
6.72949e-05
-8.10984e-07
6.74303e-05
-6.80106e-07
-3.13007e-07
-9.18277e-06
5.83871e-05
-1.57882e-05
4.26405e-05
-1.58145e-05
2.36147e-06
-1.1736e-05
-2.3735e-05
-8.77075e-06
-1.91305e-05
-7.18493e-06
-1.02118e-05
-6.06091e-06
-6.66362e-06
-5.15319e-06
-5.12662e-06
-4.52155e-06
-4.68154e-06
-4.254e-06
-4.35196e-06
-3.50168e-06
-8.10708e-06
-1.18488e-06
-1.423e-05
2.70857e-06
-2.26824e-05
7.36729e-06
-2.73021e-05
1.21191e-05
-2.93847e-05
1.69263e-05
-3.1185e-05
2.18887e-05
-3.18964e-05
2.68116e-05
-3.03312e-05
3.14341e-05
-2.79005e-05
3.58844e-05
-2.69016e-05
4.04475e-05
-2.69943e-05
4.4799e-05
-2.45702e-05
4.83052e-05
-1.93727e-05
5.18017e-05
-2.10687e-05
5.71017e-05
-3.25739e-05
6.2532e-05
-3.17605e-05
6.52857e-05
-1.52655e-05
6.61022e-05
-4.48581e-06
6.64121e-05
-1.86471e-06
6.66797e-05
-1.64435e-06
6.6929e-05
-1.50342e-06
6.71357e-05
-1.23776e-06
6.72974e-05
-9.72659e-07
6.74322e-05
-8.14886e-07
-3.75005e-07
-8.87993e-06
6.72669e-05
-1.52047e-05
4.89651e-05
-1.49954e-05
2.15202e-06
-1.08363e-05
-2.78951e-05
-7.97439e-06
-2.19917e-05
-6.45704e-06
-1.17319e-05
-5.36398e-06
-7.75889e-06
-4.45962e-06
-6.0362e-06
-3.90052e-06
-5.26686e-06
-3.787e-06
-4.49876e-06
-3.16612e-06
-8.82121e-06
-8.69767e-07
-1.63788e-05
3.09573e-06
-2.66022e-05
7.81602e-06
-3.20215e-05
1.25333e-05
-3.4107e-05
1.71833e-05
-3.58367e-05
2.19378e-05
-3.66515e-05
2.67199e-05
-3.51133e-05
3.12993e-05
-3.24803e-05
3.57381e-05
-3.13402e-05
4.02883e-05
-3.15435e-05
4.46758e-05
-2.89583e-05
4.82564e-05
-2.29522e-05
5.17431e-05
-2.45568e-05
5.69828e-05
-3.78145e-05
6.24448e-05
-3.72219e-05
6.52679e-05
-1.80883e-05
6.61093e-05
-5.32721e-06
6.64187e-05
-2.17415e-06
6.66836e-05
-1.90928e-06
6.69322e-05
-1.75206e-06
6.71389e-05
-1.44442e-06
6.73002e-05
-1.1339e-06
6.74343e-05
-9.48977e-07
-4.36588e-07
-8.5416e-06
7.58084e-05
-1.45459e-05
5.49691e-05
-1.40802e-05
1.68595e-06
-9.84574e-06
-3.21307e-05
-7.07643e-06
-2.47606e-05
-5.62129e-06
-1.31902e-05
-4.56421e-06
-8.81896e-06
-3.66055e-06
-6.94673e-06
-3.16745e-06
-5.79112e-06
-3.18713e-06
-4.52059e-06
-2.66219e-06
-9.43274e-06
-3.52241e-07
-1.85359e-05
3.70223e-06
-3.05994e-05
8.49662e-06
-3.68136e-05
1.32059e-05
-3.88222e-05
1.77224e-05
-4.03557e-05
2.22564e-05
-4.11863e-05
2.68464e-05
-3.97035e-05
3.13329e-05
-3.69671e-05
3.57282e-05
-3.57352e-05
4.02306e-05
-3.60447e-05
4.46141e-05
-3.33425e-05
4.82432e-05