/*--------------------------------*- C++ -*----------------------------------*\
| =========                 |                                                 |
| \\      /  F ield         | OpenFOAM: The Open Source CFD Toolbox           |
|  \\    /   O peration     | Version:  v1912                                 |
|   \\  /    A nd           | Website:  www.openfoam.com                      |
|    \\/     M anipulation  |                                                 |
\*---------------------------------------------------------------------------*/
FoamFile
{
    version     2.0;
    format      ascii;
    class       volVectorField;
    location    "150";
    object      U;
}
// * * * * * * * * * * * * * * * * * * * * * * * * * * * * * * * * * * * * * //

dimensions      [0 1 -1 0 0 0 0];


internalField   nonuniform List<vector> 
12441
(
(29.9994 1.84331e-05 0)
(29.9845 5.29145e-05 0)
(29.9582 7.69202e-05 0)
(29.9164 0.000129836 0)
(29.8591 0.0002013 0)
(29.7873 0.000284 0)
(29.6991 0.000382528 0)
(29.5866 0.000550326 0)
(29.4427 0.000780126 0)
(29.2662 0.00108569 0)
(29.0515 0.00150334 0)
(28.7679 0.00209349 0)
(28.4534 0.00303068 0)
(27.9734 0.0044366 0)
(27.4525 0.00624276 0)
(26.6685 0.0109085 0)
(25.6482 0.0142866 0)
(24.0779 0.0296455 0)
(21.8645 0.0507514 0)
(18.3026 0.0901231 0)
(12.524 0.12431 0)
(6.0508 0.203709 0)
(29.9996 5.54094e-05 0)
(29.9835 0.000161339 0)
(29.9576 0.00023561 0)
(29.9175 0.000382632 0)
(29.86 0.000587111 0)
(29.7867 0.000854967 0)
(29.6986 0.00114702 0)
(29.5871 0.00164381 0)
(29.4432 0.00233555 0)
(29.2657 0.00324984 0)
(29.0514 0.00449614 0)
(28.7673 0.00624506 0)
(28.453 0.00911767 0)
(27.9713 0.0132703 0)
(27.4557 0.0187509 0)
(26.6721 0.0326367 0)
(25.6477 0.04559 0)
(24.0747 0.0848411 0)
(21.8589 0.132273 0)
(18.2952 0.26073 0)
(12.5213 0.365123 0)
(6.05146 0.607952 0)
(29.9996 9.27921e-05 0)
(29.9836 0.000273809 0)
(29.9576 0.000385836 0)
(29.9173 0.000625704 0)
(29.8599 0.000979376 0)
(29.7868 0.00143195 0)
(29.6986 0.0019087 0)
(29.5871 0.00273033 0)
(29.4432 0.00388625 0)
(29.2658 0.00541856 0)
(29.0516 0.00747988 0)
(28.7665 0.0104102 0)
(28.4555 0.0152044 0)
(27.9694 0.0220896 0)
(27.4558 0.0312642 0)
(26.6707 0.0535607 0)
(25.6472 0.0776095 0)
(24.0788 0.138321 0)
(21.8589 0.211398 0)
(18.2908 0.429011 0)
(12.5219 0.60251 0)
(6.05582 1.01005 0)
(29.9996 0.000130847 0)
(29.9836 0.000386059 0)
(29.9577 0.000536499 0)
(29.9176 0.000870857 0)
(29.8601 0.00137689 0)
(29.7868 0.00201111 0)
(29.6987 0.00267051 0)
(29.5872 0.00381789 0)
(29.4433 0.00544362 0)
(29.2658 0.00759392 0)
(29.0516 0.0104711 0)
(28.7674 0.0145818 0)
(28.4529 0.0212979 0)
(27.9726 0.0309347 0)
(27.4555 0.0438029 0)
(26.672 0.0745776 0)
(25.6503 0.108884 0)
(24.084 0.194871 0)
(21.865 0.315311 0)
(18.2923 0.605286 0)
(12.5297 0.843878 0)
(6.06526 1.41369 0)
(29.9996 0.000168857 0)
(29.9837 0.000497415 0)
(29.9578 0.000686792 0)
(29.9174 0.0011171 0)
(29.86 0.00177503 0)
(29.7869 0.00258745 0)
(29.6988 0.00342955 0)
(29.5873 0.00490558 0)
(29.4433 0.00700238 0)
(29.2659 0.00976818 0)
(29.0518 0.0134606 0)
(28.7668 0.0187479 0)
(28.4564 0.0273898 0)
(27.9709 0.0397654 0)
(27.4571 0.056383 0)
(26.6723 0.0953347 0)
(25.6518 0.139639 0)
(24.0882 0.252174 0)
(21.8755 0.401966 0)
(18.3006 0.777776 0)
(12.5458 1.08498 0)
(6.08005 1.81849 0)
(29.9996 0.000206776 0)
(29.9836 0.000608335 0)
(29.9579 0.000836914 0)
(29.9178 0.00136382 0)
(29.8602 0.00217284 0)
(29.7869 0.00316246 0)
(29.6989 0.00418894 0)
(29.5874 0.00599535 0)
(29.4434 0.00856234 0)
(29.266 0.0119413 0)
(29.0518 0.0164488 0)
(28.7679 0.0229192 0)
(28.4525 0.033477 0)
(27.9744 0.0486011 0)
(27.4561 0.068956 0)
(26.6731 0.115994 0)
(25.6557 0.170127 0)
(24.0932 0.308868 0)
(21.8883 0.487075 0)
(18.3154 0.949033 0)
(12.5714 1.32575 0)
(6.10047 2.22428 0)
(29.9996 0.000244604 0)
(29.9838 0.000718677 0)
(29.958 0.000986697 0)
(29.9175 0.00161084 0)
(29.86 0.00257094 0)
(29.7871 0.00373717 0)
(29.6991 0.00494866 0)
(29.5875 0.0070856 0)
(29.4435 0.0101218 0)
(29.2662 0.0141139 0)
(29.052 0.019438 0)
(28.7674 0.0270875 0)
(28.4571 0.0395714 0)
(27.9718 0.057405 0)
(27.4579 0.0815385 0)
(26.6736 0.136473 0)
(25.6581 0.19996 0)
(24.0971 0.363258 0)
(21.9035 0.574428 0)
(18.3377 1.12047 0)
(12.6079 1.56657 0)
(6.12692 2.63134 0)
(29.9996 0.000282366 0)
(29.9837 0.000828665 0)
(29.9581 0.00113614 0)
(29.918 0.00185799 0)
(29.8602 0.00296937 0)
(29.787 0.00431158 0)
(29.6991 0.00570817 0)
(29.5876 0.00817587 0)
(29.4436 0.0116815 0)
(29.2662 0.0162861 0)
(29.052 0.0224257 0)
(28.7686 0.0312607 0)
(28.4519 0.0456589 0)
(27.9761 0.0662183 0)
(27.4569 0.0939542 0)
(26.6746 0.156661 0)
(25.664 0.231305 0)
(24.1026 0.419844 0)
(21.9235 0.663043 0)
(18.3697 1.29145 0)
(12.6572 1.80761 0)
(6.15987 3.04012 0)
(29.9995 0.000320045 0)
(29.9839 0.000938171 0)
(29.9581 0.0012853 0)
(29.9177 0.00210534 0)
(29.8601 0.0033682 0)
(29.7873 0.00488559 0)
(29.6993 0.00646738 0)
(29.5877 0.00926635 0)
(29.4437 0.0132415 0)
(29.2664 0.0184588 0)
(29.0522 0.0254151 0)
(28.768 0.0354324 0)
(28.4583 0.0517467 0)
(27.975 0.0751118 0)
(27.4558 0.106506 0)
(26.6734 0.1773 0)
(25.666 0.261236 0)
(24.1034 0.476118 0)
(21.949 0.751416 0)
(18.4143 1.46146 0)
(12.7213 2.04898 0)
(6.19983 3.45108 0)
(29.9996 0.000357654 0)
(29.9837 0.00104735 0)
(29.9582 0.00143423 0)
(29.9182 0.00235285 0)
(29.8603 0.00376729 0)
(29.7872 0.00545906 0)
(29.6993 0.00722642 0)
(29.5878 0.0103572 0)
(29.4438 0.014802 0)
(29.2664 0.0206309 0)
(29.0523 0.0284016 0)
(28.7694 0.0396073 0)
(28.4503 0.0578246 0)
(27.9796 0.0838604 0)
(27.4509 0.119654 0)
(26.6678 0.19835 0)
(25.6612 0.291626 0)
(24.0972 0.530748 0)
(21.9801 0.839319 0)
(18.4725 1.63041 0)
(12.8017 2.29081 0)
(6.2473 3.86469 0)
(29.9995 0.000395167 0)
(29.984 0.00115604 0)
(29.9582 0.00158298 0)
(29.9178 0.00260062 0)
(29.8601 0.00416675 0)
(29.7874 0.00603212 0)
(29.6994 0.00798535 0)
(29.5878 0.0114483 0)
(29.4438 0.0163626 0)
(29.2666 0.0228031 0)
(29.0525 0.0313878 0)
(28.7693 0.0437868 0)
(28.4576 0.0639288 0)
(27.9855 0.092654 0)
(27.4477 0.132198 0)
(26.6536 0.218409 0)
(25.6489 0.323231 0)
(24.0893 0.584986 0)
(22.0156 0.926802 0)
(18.5423 1.79804 0)
(12.8985 2.53322 0)
(6.30273 4.28148 0)
(29.9995 0.000432596 0)
(29.9838 0.00126441 0)
(29.9583 0.00173164 0)
(29.9183 0.00284854 0)
(29.8604 0.00456641 0)
(29.7873 0.00660463 0)
(29.6995 0.00874425 0)
(29.5879 0.0125396 0)
(29.444 0.0179233 0)
(29.2666 0.024974 0)
(29.0525 0.0343718 0)
(28.7712 0.0479748 0)
(28.4473 0.0699262 0)
(27.9921 0.101697 0)
(27.4377 0.145642 0)
(26.6341 0.239055 0)
(25.6363 0.355138 0)
(24.0865 0.637989 0)
(22.0517 1.01331 0)
(18.6185 1.96393 0)
(13.0103 2.77621 0)
(6.36641 4.70198 0)
(29.9995 0.000469912 0)
(29.9841 0.00137235 0)
(29.9583 0.00188036 0)
(29.9179 0.00309661 0)
(29.8602 0.00496614 0)
(29.7876 0.00717679 0)
(29.6996 0.00950327 0)
(29.588 0.013631 0)
(29.444 0.0194843 0)
(29.2668 0.0271462 0)
(29.0527 0.0373452 0)
(28.7716 0.0522519 0)
(28.4522 0.0759028 0)
(27.9922 0.110826 0)
(27.4218 0.159662 0)
(26.6152 0.259578 0)
(25.6265 0.386892 0)
(24.0885 0.689443 0)
(22.0848 1.09862 0)
(18.6954 2.12776 0)
(13.1349 3.01965 0)
(6.43845 5.12667 0)
(29.9995 0.00050713 0)
(29.9839 0.00147999 0)
(29.9584 0.00202915 0)
(29.9185 0.00334484 0)
(29.8604 0.00536597 0)
(29.7874 0.00774834 0)
(29.6996 0.0102623 0)
(29.5881 0.0147227 0)
(29.4442 0.0210455 0)
(29.2667 0.0293197 0)
(29.0525 0.0403342 0)
(28.7735 0.0565587 0)
(28.4436 0.0822158 0)
(27.9843 0.120131 0)
(27.406 0.173429 0)
(26.6011 0.27959 0)
(25.6195 0.418274 0)
(24.0923 0.739605 0)
(22.1132 1.18283 0)
(18.769 2.28938 0)
(13.2691 3.26334 0)
(6.51878 5.55599 0)
(29.9995 0.000544218 0)
(29.9842 0.00158717 0)
(29.9584 0.00217804 0)
(29.9179 0.00359327 0)
(29.8602 0.00576591 0)
(29.7877 0.00831957 0)
(29.6997 0.0110216 0)
(29.5881 0.0158141 0)
(29.4443 0.0226076 0)
(29.2669 0.0314924 0)
(29.0524 0.0433287 0)
(28.7762 0.0608153 0)
(28.4418 0.0885225 0)
(27.9737 0.129396 0)
(27.3935 0.187153 0)
(26.591 0.299341 0)
(25.6143 0.449429 0)
(24.0958 0.788864 0)
(22.1372 1.26607 0)
(18.8372 2.44869 0)
(13.4103 3.50696 0)
(6.60714 5.99031 0)
(29.9995 0.000581196 0)
(29.9839 0.00169404 0)
(29.9585 0.00232711 0)
(29.9186 0.00384188 0)
(29.8605 0.00616591 0)
(29.7875 0.00889014 0)
(29.6997 0.0117809 0)
(29.5882 0.0169058 0)
(29.4444 0.0241683 0)
(29.267 0.0336709 0)
(29.0522 0.0463204 0)
(28.7793 0.0652121 0)
(28.4341 0.0949127 0)
(27.9644 0.138575 0)
(27.3842 0.200746 0)
(26.5839 0.319016 0)
(25.61 0.480476 0)
(24.0982 0.837545 0)
(22.1576 1.34847 0)
(18.8997 2.60563 0)
(13.556 3.75023 0)
(6.70319 6.42994 0)
(29.9994 0.00061803 0)
(29.9843 0.00180051 0)
(29.9585 0.00247649 0)
(29.9179 0.00409062 0)
(29.8602 0.00656572 0)
(29.7878 0.00946045 0)
(29.6999 0.0125406 0)
(29.5882 0.0179974 0)
(29.4445 0.0257293 0)
(29.2672 0.0358459 0)
(29.0526 0.0493655 0)
(28.7814 0.0696802 0)
(28.4274 0.101325 0)
(27.9568 0.147759 0)
(27.3773 0.214349 0)
(26.5786 0.338636 0)
(25.6062 0.511453 0)
(24.0996 0.88583 0)
(22.1755 1.43009 0)
(18.9566 2.76016 0)
(13.7045 3.99284 0)
(6.8065 6.87514 0)
(29.9995 0.000654747 0)
(29.984 0.00190667 0)
(29.9586 0.00262616 0)
(29.9186 0.00433952 0)
(29.8605 0.00696553 0)
(29.7876 0.01003 0)
(29.6999 0.0133004 0)
(29.5883 0.0190887 0)
(29.4447 0.0272906 0)
(29.2671 0.0380144 0)
(29.0533 0.0524312 0)
(28.7801 0.0741959 0)
(28.4203 0.107735 0)
(27.9508 0.156914 0)
(27.372 0.227926 0)
(26.5746 0.358246 0)
(25.6027 0.542386 0)
(24.1002 0.933825 0)
(22.1921 1.51098 0)
(19.009 2.91223 0)
(13.8548 4.23453 0)
(6.91665 7.32612 0)
(29.9994 0.000691312 0)
(29.9845 0.00201242 0)
(29.9586 0.00277612 0)
(29.9179 0.00458859 0)
(29.8602 0.00736523 0)
(29.788 0.0105994 0)
(29.7 0.0140606 0)
(29.5883 0.02018 0)
(29.4449 0.0288515 0)
(29.2671 0.0401898 0)
(29.0546 0.055494 0)
(28.777 0.0786373 0)
(28.4147 0.114165 0)
(27.9461 0.166075 0)
(27.3678 0.241516 0)
(26.5714 0.377838 0)
(25.5995 0.573289 0)
(24.1003 0.981583 0)
(22.2082 1.59117 0)
(19.0578 3.06181 0)
(14.0064 4.47506 0)
(7.03326 7.78307 0)
(29.9995 0.000727756 0)
(29.9841 0.00211785 0)
(29.9586 0.00292641 0)
(29.9187 0.00483786 0)
(29.8605 0.00776493 0)
(29.7877 0.011168 0)
(29.7 0.014821 0)
(29.5884 0.0212711 0)
(29.445 0.0304147 0)
(29.267 0.0423664 0)
(29.0555 0.0586423 0)
(28.7731 0.0830235 0)
(28.4099 0.120606 0)
(27.9423 0.175232 0)
(27.3644 0.255089 0)
(26.5688 0.39743 0)
(25.5966 0.604173 0)
(24.1004 1.02913 0)
(22.2246 1.67067 0)
(19.1043 3.20889 0)
(14.1593 4.71422 0)
(7.156 8.24618 0)
(29.9994 0.000764041 0)
(29.9846 0.00222292 0)
(29.9586 0.00307712 0)
(29.9179 0.0050872 0)
(29.8602 0.00816429 0)
(29.7881 0.0117364 0)
(29.7001 0.015582 0)
(29.5884 0.0223618 0)
(29.4451 0.0319783 0)
(29.2673 0.0445503 0)
(29.0559 0.0618254 0)
(28.7694 0.0874273 0)
(28.4062 0.127058 0)
(27.9392 0.184392 0)
(27.3615 0.268662 0)
(26.5668 0.417021 0)
(25.5939 0.635049 0)
(24.1006 1.07646 0)
(22.2419 1.74947 0)
(19.1493 3.35346 0)
(14.3139 4.95183 0)
(7.28463 8.71563 0)
(29.9994 0.000800202 0)
(29.9843 0.00232768 0)
(29.9587 0.00322824 0)
(29.9187 0.00533674 0)
(29.8605 0.00856359 0)
(29.7878 0.0123039 0)
(29.7001 0.0163431 0)
(29.5884 0.0234531 0)
(29.4452 0.0335382 0)
(29.2677 0.046786 0)
(29.0551 0.0649743 0)
(28.7661 0.091858 0)
(28.403 0.133518 0)
(27.9365 0.193549 0)
(27.3591 0.282224 0)
(26.5652 0.436618 0)
(25.5918 0.665927 0)
(24.1015 1.12355 0)
(22.2604 1.82759 0)
(19.1939 3.4955 0)
(14.4708 5.18775 0)
(7.419 9.19158 0)
(29.9994 0.000836201 0)
(29.9847 0.00243206 0)
(29.9587 0.00337971 0)
(29.9179 0.00558638 0)
(29.8602 0.00896265 0)
(29.7883 0.0128714 0)
(29.7002 0.0171047 0)
(29.5885 0.0245445 0)
(29.4452 0.0350956 0)
(29.2684 0.0490601 0)
(29.0536 0.0681221 0)
(28.7632 0.0963298 0)
(28.4004 0.139983 0)
(27.9342 0.202705 0)
(27.357 0.295781 0)
(26.5639 0.456221 0)
(25.5902 0.69681 0)
(24.103 1.17033 0)
(22.2804 1.905 0)
(19.2388 3.635 0)
(14.6309 5.42185 0)
(7.55904 9.67424 0)
(29.9994 0.000872077 0)
(29.9844 0.00253612 0)
(29.9587 0.00353161 0)
(29.9188 0.00583627 0)
(29.8605 0.00936167 0)
(29.7879 0.0134379 0)
(29.7002 0.0178664 0)
(29.5886 0.0256365 0)
(29.4453 0.0366487 0)
(29.2689 0.0513604 0)
(29.0519 0.0712098 0)
(28.7608 0.10083 0)
(28.398 0.146451 0)
(27.9322 0.211856 0)
(27.3553 0.309332 0)
(26.563 0.475829 0)
(25.5893 0.727683 0)
(24.1055 1.21678 0)
(22.302 1.98173 0)
(19.2848 3.77194 0)
(14.7951 5.65402 0)
(7.70475 10.1638 0)
(29.9993 0.000907786 0)
(29.9849 0.00263987 0)
(29.9587 0.00368399 0)
(29.9178 0.00608615 0)
(29.8602 0.00976019 0)
(29.7884 0.0140046 0)
(29.7003 0.0186283 0)
(29.5886 0.0267293 0)
(29.4453 0.0381966 0)
(29.2695 0.0536451 0)
(29.0503 0.0742532 0)
(28.7586 0.10535 0)
(28.396 0.152919 0)
(27.9304 0.221005 0)
(27.3538 0.322875 0)
(26.5625 0.495436 0)
(25.5893 0.758523 0)
(24.1089 1.26288 0)
(22.3249 2.05775 0)
(19.3323 3.90625 0)
(14.9646 5.88416 0)
(7.85626 10.6606 0)
(29.9994 0.000943374 0)
(29.9845 0.00274331 0)
(29.9587 0.00383683 0)
(29.9188 0.00633628 0)
(29.8606 0.0101587 0)
(29.7881 0.0145701 0)
(29.7003 0.0193906 0)
(29.5887 0.027821 0)
(29.4454 0.0397581 0)
(29.2697 0.0559166 0)
(29.0489 0.0772831 0)
(28.7567 0.109881 0)
(28.3942 0.159386 0)
(27.9288 0.23015 0)
(27.3525 0.336411 0)
(26.5623 0.515032 0)
(25.5901 0.789301 0)
(24.1133 1.30862 0)
(22.3492 2.13307 0)
(19.3819 4.03786 0)
(15.1405 6.11221 0)
(8.01373 11.1647 0)
(29.9993 0.000978797 0)
(29.985 0.00284641 0)
(29.9587 0.00399006 0)
(29.9178 0.00658643 0)
(29.8602 0.0105568 0)
(29.7886 0.0151359 0)
(29.7004 0.0201534 0)
(29.5888 0.0289145 0)
(29.4455 0.0413228 0)
(29.2702 0.0582984 0)
(29.0476 0.0803354 0)
(28.755 0.114421 0)
(28.3925 0.165852 0)
(27.9274 0.239291 0)
(27.3515 0.349933 0)
(26.5625 0.534605 0)
(25.5918 0.820002 0)
(24.1187 1.354 0)
(22.3747 2.20766 0)
(19.4337 4.16667 0)
(15.3242 6.33809 0)
(8.17741 11.6766 0)
(29.9994 0.0010141 0)
(29.9846 0.00294919 0)
(29.9588 0.00414374 0)
(29.9188 0.00683688 0)
(29.8606 0.0109548 0)
(29.7882 0.0157006 0)
(29.7004 0.0209158 0)
(29.5889 0.0300083 0)
(29.4457 0.0428929 0)
(29.2703 0.0606371 0)
(29.0464 0.0834275 0)
(28.7534 0.118966 0)
(28.391 0.172317 0)
(27.9261 0.248429 0)
(27.3507 0.363441 0)
(26.5631 0.554143 0)
(25.5942 0.850618 0)
(24.1251 1.39904 0)
(22.4013 2.28151 0)
(19.4879 4.29255 0)
(15.5167 6.56172 0)
(8.34761 12.1965 0)
(29.9993 0.00104925 0)
(29.9851 0.00305171 0)
(29.9587 0.00429791 0)
(29.9178 0.00708724 0)
(29.8602 0.0113523 0)
(29.7887 0.0162654 0)
(29.7005 0.0216794 0)
(29.5889 0.0310988 0)
(29.4458 0.0445121 0)
(29.2705 0.062833 0)
(29.0453 0.0865612 0)
(28.752 0.123515 0)
(28.3896 0.17878 0)
(27.9249 0.25756 0)
(27.3501 0.376927 0)
(26.564 0.573637 0)
(25.5974 0.881149 0)
(24.1326 1.44373 0)
(22.4288 2.35459 0)
(19.5445 4.41533 0)
(15.719 6.78303 0)
(8.52468 12.7248 0)
(29.9993 0.00108428 0)
(29.9847 0.00315391 0)
(29.9588 0.00445256 0)
(29.9188 0.00733792 0)
(29.8606 0.0117498 0)
(29.7883 0.016829 0)
(29.7005 0.022443 0)
(29.589 0.0321897 0)
(29.446 0.0461483 0)
(29.2705 0.0650101 0)
(29.0443 0.089728 0)
(28.7507 0.128067 0)
(28.3883 0.185241 0)
(27.9238 0.266685 0)
(27.3497 0.390391 0)
(26.5652 0.593083 0)
(25.6012 0.91159 0)
(24.1412 1.48806 0)
(22.457 2.42689 0)
(19.6034 4.53483 0)
(15.9317 7.00196 0)
(8.70899 13.2619 0)
(29.9992 0.00111915 0)
(29.9853 0.00325582 0)
(29.9588 0.00460754 0)
(29.9177 0.00758855 0)
(29.8602 0.012147 0)
(29.7888 0.0173931 0)
(29.7007 0.0232069 0)
(29.589 0.0332808 0)
(29.4462 0.0477903 0)
(29.2704 0.0671914 0)
(29.0434 0.0929175 0)
(28.7495 0.132621 0)
(28.3871 0.191702 0)
(27.9228 0.275801 0)
(27.3495 0.403828 0)
(26.5667 0.612477 0)
(25.6055 0.941936 0)
(24.1507 1.53205 0)
(22.4861 2.49838 0)
(19.6643 4.65088 0)
(16.1553 7.21839 0)
(8.90091 13.8081 0)
(29.9993 0.00115391 0)
(29.9848 0.00335743 0)
(29.9588 0.00476299 0)
(29.9189 0.00783956 0)
(29.8606 0.0125441 0)
(29.7884 0.0179557 0)
(29.7007 0.023971 0)
(29.5891 0.0343712 0)
(29.4465 0.0494397 0)
(29.2703 0.0693601 0)
(29.0424 0.0961224 0)
(28.7483 0.137177 0)
(28.3859 0.198159 0)
(27.922 0.284908 0)
(27.3494 0.41724 0)
(26.5684 0.631815 0)
(25.6105 0.972176 0)
(24.1614 1.57568 0)
(22.5158 2.56905 0)
(19.727 4.76326 0)
(16.3898 7.43224 0)
(9.1008 14.364 0)
(29.9992 0.00118852 0)
(29.9854 0.00345879 0)
(29.9588 0.00491885 0)
(29.9177 0.0080904 0)
(29.8602 0.0129406 0)
(29.789 0.0185188 0)
(29.7008 0.0247356 0)
(29.5891 0.0354614 0)
(29.4466 0.0510952 0)
(29.2701 0.0715221 0)
(29.0415 0.0993387 0)
(28.7472 0.141734 0)
(28.3848 0.204615 0)
(27.9211 0.294004 0)
(27.3494 0.430622 0)
(26.5703 0.651096 0)
(25.6159 1.0023 0)
(24.173 1.61895 0)
(22.5462 2.6389 0)
(19.7912 4.8718 0)
(16.6351 7.64339 0)
(9.30902 14.9298 0)
(29.9993 0.00122304 0)
(29.9849 0.00355989 0)
(29.9589 0.00507515 0)
(29.9189 0.0083416 0)
(29.8606 0.0133373 0)
(29.7885 0.0190805 0)
(29.7008 0.0255 0)
(29.5892 0.0365513 0)
(29.4469 0.0527546 0)
(29.2699 0.0736789 0)
(29.0406 0.102564 0)
(28.7461 0.146293 0)
(28.3838 0.211068 0)
(27.9204 0.30309 0)
(27.3496 0.443977 0)
(26.5724 0.670315 0)
(25.6217 1.0323 0)
(24.1857 1.66186 0)
(22.5773 2.70791 0)
(19.8568 4.9763 0)
(16.8909 7.8517 0)
(9.52584 15.5061 0)
(29.9992 0.00125742 0)
(29.9855 0.00366081 0)
(29.9588 0.00523181 0)
(29.9176 0.00859253 0)
(29.8602 0.0137334 0)
(29.7891 0.0196428 0)
(29.7009 0.0262652 0)
(29.5892 0.0376378 0)
(29.447 0.0544144 0)
(29.2696 0.0758354 0)
(29.0397 0.105796 0)
(28.7451 0.150852 0)
(28.3829 0.217519 0)
(27.9198 0.312165 0)
(27.3499 0.457301 0)
(26.5747 0.689468 0)
(25.628 1.06216 0)
(24.1993 1.70441 0)
(22.6091 2.77608 0)
(19.9237 5.07659 0)
(17.1569 8.05705 0)
(9.75156 16.0933 0)
(29.9993 0.00129172 0)
(29.985 0.00376143 0)
(29.9589 0.00538882 0)
(29.9189 0.00884388 0)
(29.8606 0.0141298 0)
(29.7886 0.0202034 0)
(29.7009 0.0270317 0)
(29.5893 0.0387235 0)
(29.4472 0.0560229 0)
(29.2693 0.077993 0)
(29.0389 0.109034 0)
(28.7441 0.155412 0)
(28.3819 0.223966 0)
(27.9192 0.321228 0)
(27.3503 0.470596 0)
(26.5772 0.708553 0)
(25.6347 1.09187 0)
(24.2139 1.74659 0)
(22.6418 2.84341 0)
(19.992 5.1725 0)
(17.4327 8.25927 0)
(9.98642 16.6918 0)
(29.9992 0.00132588 0)
(29.9856 0.00386184 0)
(29.9588 0.005546 0)
(29.9176 0.00909498 0)
(29.8602 0.0145256 0)
(29.7892 0.0207655 0)
(29.7011 0.0277952 0)
(29.5894 0.0398338 0)
(29.4477 0.0575161 0)
(29.2689 0.080161 0)
(29.038 0.112278 0)
(28.7432 0.159972 0)
(28.3811 0.230411 0)
(27.9187 0.330279 0)
(27.3509 0.483858 0)
(26.5799 0.727566 0)
(25.6417 1.12143 0)
(24.2293 1.7884 0)
(22.6754 2.90988 0)
(20.0617 5.26388 0)
(17.7183 8.45823 0)
(10.2306 17.3019 0)
(29.9993 0.00135998 0)
(29.985 0.00396195 0)
(29.959 0.00570349 0)
(29.919 0.00934665 0)
(29.8607 0.0149216 0)
(29.7887 0.021325 0)
(29.7011 0.0285631 0)
(29.5893 0.0409316 0)
(29.4481 0.0592391 0)
(29.2685 0.0823626 0)
(29.0372 0.115525 0)
(28.7423 0.164532 0)
(28.3803 0.236851 0)
(27.9182 0.339316 0)
(27.3515 0.497089 0)
(26.5827 0.746506 0)
(25.6492 1.15082 0)
(24.2456 1.82982 0)
(22.7099 2.97548 0)
(20.1328 5.35055 0)
(18.0139 8.65375 0)
(10.4844 17.9243 0)
(29.9992 0.00139394 0)
(29.9857 0.00406177 0)
(29.9589 0.00586112 0)
(29.9176 0.00959837 0)
(29.8602 0.0153177 0)
(29.7893 0.0218842 0)
(29.7013 0.02933 0)
(29.5893 0.0420554 0)
(29.4484 0.0609822 0)
(29.268 0.084601 0)
(29.0363 0.118775 0)
(28.7415 0.169091 0)
(28.3795 0.243288 0)
(27.9178 0.34834 0)
(27.3523 0.510286 0)
(26.5858 0.765368 0)
(25.6569 1.18003 0)
(24.2626 1.87086 0)
(22.7457 3.04022 0)
(20.2051 5.43237 0)
(18.3197 8.84567 0)
(10.748 18.5593 0)
(29.9992 0.00142786 0)
(29.9851 0.00416126 0)
(29.959 0.00601877 0)
(29.9191 0.00985076 0)
(29.8607 0.0157149 0)
(29.7888 0.0224441 0)
(29.7013 0.0300827 0)
(29.5893 0.0431985 0)
(29.4484 0.0625313 0)
(29.2674 0.0868603 0)
(29.0355 0.122028 0)
(28.7406 0.17365 0)
(28.3788 0.24972 0)
(27.9176 0.357349 0)
(27.3532 0.523449 0)
(26.589 0.784153 0)
(25.6649 1.20907 0)
(24.2803 1.91149 0)
(22.7828 3.10408 0)
(20.2782 5.50917 0)
(18.6358 9.03381 0)
(11.0217 19.2073 0)
(29.9991 0.00146168 0)
(29.9857 0.00426097 0)
(29.9589 0.00617627 0)
(29.9177 0.0101007 0)
(29.8603 0.0161129 0)
(29.7894 0.0230055 0)
(29.7016 0.0308655 0)
(29.589 0.0441754 0)
(29.4484 0.064012 0)
(29.2669 0.0891293 0)
(29.0347 0.125283 0)
(28.7398 0.178208 0)
(28.3781 0.256149 0)
(27.9173 0.366345 0)
(27.3542 0.53658 0)
(26.5924 0.802853 0)
(25.6733 1.23792 0)
(24.2986 1.9517 0)
(22.8215 3.16707 0)
(20.3513 5.58078 0)
(18.9611 9.21802 0)
(11.3057 19.8688 0)
(29.9992 0.00149531 0)
(29.9852 0.00436048 0)
(29.959 0.00633583 0)
(29.919 0.0103493 0)
(29.8607 0.0165049 0)
(29.7889 0.0235714 0)
(29.7017 0.0316557 0)
(29.5886 0.0453197 0)
(29.4483 0.0655168 0)
(29.2663 0.0914035 0)
(29.0338 0.128539 0)
(28.739 0.182764 0)
(28.3775 0.262571 0)
(27.9172 0.375325 0)
(27.3553 0.549673 0)
(26.596 0.821471 0)
(25.6819 1.26658 0)
(24.3173 1.99147 0)
(22.862 3.2292 0)
(20.4236 5.64708 0)
(19.2926 9.39829 0)
(11.6001 20.545 0)
(29.9991 0.00152847 0)
(29.9858 0.00445892 0)
(29.959 0.00650002 0)
(29.9176 0.0106042 0)
(29.8603 0.0168802 0)
(29.7895 0.0241321 0)
(29.7018 0.0324568 0)
(29.5889 0.0466323 0)
(29.4483 0.0670619 0)
(29.2657 0.0936841 0)
(29.033 0.131796 0)
(28.7382 0.187316 0)
(28.3769 0.268987 0)
(27.9171 0.384289 0)
(27.3566 0.562729 0)
(26.5998 0.840002 0)
(25.6908 1.29505 0)
(24.3364 2.03078 0)
(22.9046 3.29051 0)
(20.494 5.70805 0)
(19.6227 9.57427 0)
(11.9046 21.2431 0)
(29.9992 0.00156273 0)
(29.9851 0.00455038 0)
(29.959 0.00666885 0)
(29.9194 0.0108893 0)
(29.8609 0.0172496 0)
(29.789 0.0246545 0)
(29.7016 0.0332856 0)
(29.5892 0.0477895 0)
(29.4482 0.0686244 0)
(29.2651 0.0959677 0)
(29.0322 0.135058 0)
(28.7375 0.191864 0)
(28.3763 0.275395 0)
(27.9171 0.393247 0)
(27.358 0.575753 0)
(26.6038 0.858441 0)
(25.7 1.32332 0)
(24.3557 2.06957 0)
(22.9496 3.35105 0)
(20.5624 5.76374 0)
(19.9398 9.74391 0)
(12.3046 21.985 0)
(-2.28183 0.104556 0)
(-6.9057 0.0717394 0)
(-8.71997 0.00612212 0)
(-7.3076 -0.0312169 0)
(-5.32749 -0.0254409 0)
(-4.36407 -0.0123756 0)
(-3.75711 -0.00662553 0)
(-3.43532 -0.00420237 0)
(-3.11264 -0.0044324 0)
(-2.7468 -0.00589811 0)
(-2.14421 -0.00910906 0)
(-1.14922 -0.0118183 0)
(0.368847 -0.0150469 0)
(2.21382 -0.0163802 0)
(4.29172 -0.017158 0)
(6.65012 -0.0175007 0)
(9.18712 -0.0162583 0)
(11.5535 -0.0137678 0)
(13.6769 -0.0116611 0)
(15.6778 -0.0103254 0)
(17.688 -0.00904154 0)
(19.5432 -0.0070694 0)
(20.9731 -0.00510479 0)
(22.0936 -0.00581606 0)
(24.1124 -0.00840911 0)
(27.0122 -0.00709132 0)
(28.567 -0.00293756 0)
(29.0045 -0.000791306 0)
(29.1487 -0.00034266 0)
(29.2781 -0.000285333 0)
(29.395 -0.000235776 0)
(29.499 -0.000177678 0)
(29.5748 -0.000129488 0)
(29.6414 -0.000100657 0)
(29.6944 -4.26676e-05 0)
(-2.27263 0.311173 0)
(-6.82029 0.212076 0)
(-8.58301 0.0165309 0)
(-7.1432 -0.0935805 0)
(-5.20083 -0.0749941 0)
(-4.27226 -0.036647 0)
(-3.66842 -0.0201676 0)
(-3.3234 -0.0131267 0)
(-2.95441 -0.013191 0)
(-2.59602 -0.0163281 0)
(-2.10569 -0.0253948 0)
(-1.21362 -0.034065 0)
(0.260186 -0.0444369 0)
(2.12186 -0.0484053 0)
(4.20758 -0.0505101 0)
(6.51497 -0.0515108 0)
(8.99191 -0.0479046 0)
(11.3538 -0.0406683 0)
(13.4787 -0.0343967 0)
(15.4524 -0.0307799 0)
(17.4504 -0.0275265 0)
(19.3706 -0.0218285 0)
(20.886 -0.0156279 0)
(22.0445 -0.0173057 0)
(24.0139 -0.0251273 0)
(26.9262 -0.0215195 0)
(28.5432 -0.00902009 0)
(29.0055 -0.00242617 0)
(29.1511 -0.00102591 0)
(29.2788 -0.000851976 0)
(29.3953 -0.000706956 0)
(29.4994 -0.000533649 0)
(29.5754 -0.000388652 0)
(29.6419 -0.000301895 0)
(29.6949 -0.000128117 0)
(-2.24492 0.514428 0)
(-6.70732 0.350039 0)
(-8.42038 0.0261657 0)
(-6.95085 -0.156327 0)
(-5.04138 -0.123809 0)
(-4.13956 -0.0605312 0)
(-3.52421 -0.0340653 0)
(-3.15326 -0.023018 0)
(-2.76109 -0.0226783 0)
(-2.45541 -0.025713 0)
(-2.08037 -0.0397969 0)
(-1.27133 -0.0544187 0)
(0.1918 -0.0736068 0)
(2.08041 -0.0809911 0)
(4.16395 -0.0833557 0)
(6.41498 -0.0840092 0)
(8.82711 -0.0784766 0)
(11.177 -0.0670703 0)
(13.3042 -0.056745 0)
(15.258 -0.050837 0)
(17.244 -0.0460715 0)
(19.2161 -0.0371219 0)
(20.8085 -0.026672 0)
(22.0038 -0.0288107 0)
(23.9264 -0.0416725 0)
(26.8462 -0.0361208 0)
(28.5207 -0.0153548 0)
(29.0068 -0.00413975 0)
(29.1538 -0.00170967 0)
(29.2797 -0.00141311 0)
(29.3958 -0.00117718 0)
(29.5 -0.000890151 0)
(29.5762 -0.000647884 0)
(29.6425 -0.000502868 0)
(29.6955 -0.00021356 0)
(-2.20341 0.714249 0)
(-6.57384 0.484988 0)
(-8.22662 0.0339844 0)
(-6.70454 -0.2197 0)
(-4.83147 -0.171435 0)
(-3.96095 -0.0841277 0)
(-3.34013 -0.0484194 0)
(-2.95291 -0.033351 0)
(-2.54824 -0.0315216 0)
(-2.30304 -0.0330294 0)
(-2.03351 -0.0521723 0)
(-1.29951 -0.0742707 0)
(0.160844 -0.103158 0)
(2.07848 -0.114071 0)
(4.1603 -0.116353 0)
(6.35358 -0.116463 0)
(8.69098 -0.109244 0)
(11.0156 -0.0939592 0)
(13.1456 -0.0793372 0)
(15.0899 -0.0709148 0)
(17.0679 -0.0648424 0)
(19.0791 -0.0529809 0)
(20.7396 -0.0381639 0)
(21.971 -0.0402816 0)
(23.8496 -0.0580767 0)
(26.7719 -0.0509297 0)
(28.4995 -0.0219311 0)
(29.0084 -0.00592194 0)
(29.1567 -0.00239237 0)
(29.2809 -0.00196905 0)
(29.3965 -0.00164664 0)
(29.5009 -0.00124717 0)
(29.5771 -0.000907059 0)
(29.6432 -0.00070344 0)
(29.6961 -0.000298883 0)
(-2.14933 0.909854 0)
(-6.4203 0.616273 0)
(-7.99612 0.0394333 0)
(-6.39788 -0.283706 0)
(-4.56811 -0.217695 0)
(-3.73338 -0.107134 0)
(-3.11668 -0.0629179 0)
(-2.72127 -0.0439243 0)
(-2.31182 -0.0397051 0)
(-2.1314 -0.0385068 0)
(-1.95712 -0.0625448 0)
(-1.28929 -0.0934474 0)
(0.17714 -0.132995 0)
(2.12717 -0.147524 0)
(4.20945 -0.148978 0)
(6.34525 -0.147984 0)
(8.59711 -0.13935 0)
(10.8776 -0.120803 0)
(13.0055 -0.102021 0)
(14.9495 -0.0909702 0)
(16.9231 -0.0837273 0)
(18.9606 -0.069259 0)
(20.6798 -0.0500668 0)
(21.9462 -0.0517434 0)
(23.7829 -0.0743321 0)
(26.7032 -0.0658973 0)
(28.4796 -0.0287275 0)
(29.0103 -0.00777072 0)
(29.1599 -0.00307435 0)
(29.2824 -0.00251973 0)
(29.3974 -0.00211518 0)
(29.5019 -0.00160452 0)
(29.5781 -0.001166 0)
(29.644 -0.00090344 0)
(29.6968 -0.000383954 0)
(-2.08354 1.10037 0)
(-6.24669 0.743297 0)
(-7.72404 0.0417762 0)
(-6.03075 -0.348712 0)
(-4.25106 -0.262481 0)
(-3.45421 -0.12937 0)
(-2.85262 -0.0773253 0)
(-2.45475 -0.0545846 0)
(-2.04528 -0.0471496 0)
(-1.93169 -0.0422608 0)
(-1.84175 -0.0711453 0)
(-1.22876 -0.112017 0)
(0.25444 -0.16302 0)
(2.24015 -0.181124 0)
(4.32664 -0.181015 0)
(6.40906 -0.178282 0)
(8.56803 -0.168326 0)
(10.7823 -0.147195 0)
(12.8959 -0.124672 0)
(14.8432 -0.111012 0)
(16.8129 -0.102672 0)
(18.8632 -0.0858487 0)
(20.6305 -0.0623288 0)
(21.93 -0.0631927 0)
(23.7259 -0.0904276 0)
(26.64 -0.0809917 0)
(28.4609 -0.035726 0)
(29.0125 -0.00968293 0)
(29.1633 -0.0037555 0)
(29.2841 -0.0030651 0)
(29.3985 -0.00258266 0)
(29.5032 -0.00196202 0)
(29.5793 -0.00142452 0)
(29.645 -0.00110269 0)
(29.6974 -0.000468646 0)
(-2.00671 1.28505 0)
(-6.05279 0.865391 0)
(-7.40715 0.040291 0)
(-5.61035 -0.415011 0)
(-3.88433 -0.305731 0)
(-3.12239 -0.150693 0)
(-2.54535 -0.0914203 0)
(-2.14804 -0.0652313 0)
(-1.73996 -0.0538236 0)
(-1.69325 -0.0444345 0)
(-1.67596 -0.0782662 0)
(-1.10325 -0.130237 0)
(0.408977 -0.193375 0)
(2.433 -0.214973 0)
(4.52929 -0.212618 0)
(6.56718 -0.207437 0)
(8.63148 -0.196014 0)
(10.7587 -0.172825 0)
(12.8374 -0.147145 0)
(14.7829 -0.131023 0)
(16.7441 -0.121606 0)
(18.7919 -0.102636 0)
(20.5949 -0.0748901 0)
(21.9239 -0.0746204 0)
(23.6787 -0.10635 0)
(26.5822 -0.0961872 0)
(28.4436 -0.0429109 0)
(29.015 -0.0116555 0)
(29.167 -0.00443569 0)
(29.2862 -0.00360512 0)
(29.3999 -0.00304899 0)
(29.5046 -0.00231954 0)
(29.5807 -0.00168244 0)
(29.6461 -0.00130101 0)
(29.6982 -0.000552834 0)
(-1.91935 1.46318 0)
(-5.83842 0.981816 0)
(-7.04471 0.0344525 0)
(-5.14995 -0.482624 0)
(-3.47722 -0.347516 0)
(-2.74095 -0.171091 0)
(-2.19296 -0.10507 0)
(-1.7959 -0.0758494 0)
(-1.38668 -0.0597615 0)
(-1.40377 -0.0452056 0)
(-1.44511 -0.0842806 0)
(-0.894457 -0.148391 0)
(0.659471 -0.224331 0)
(2.72405 -0.249308 0)
(4.83822 -0.244077 0)
(6.84656 -0.235683 0)
(8.82203 -0.222439 0)
(10.8443 -0.197468 0)
(12.8607 -0.169217 0)
(14.7883 -0.150891 0)
(16.729 -0.140411 0)
(18.7555 -0.119486 0)
(20.5777 -0.0876737 0)
(21.9304 -0.0860049 0)
(23.6415 -0.122081 0)
(26.5298 -0.111458 0)
(28.4276 -0.0502671 0)
(29.0179 -0.0136855 0)
(29.1709 -0.0051148 0)
(29.2885 -0.00413977 0)
(29.4016 -0.00351404 0)
(29.5063 -0.00267688 0)
(29.5822 -0.00193958 0)
(29.6473 -0.00149822 0)
(29.699 -0.000636392 0)
(-1.82186 1.63403 0)
(-5.60353 1.09183 0)
(-6.63862 0.0240233 0)
(-4.66454 -0.551324 0)
(-3.04286 -0.38805 0)
(-2.31887 -0.190737 0)
(-1.79679 -0.118285 0)
(-1.39567 -0.086527 0)
(-0.978148 -0.0650959 0)
(-1.0502 -0.0448377 0)
(-1.13193 -0.0895481 0)
(-0.581912 -0.166876 0)
(1.02328 -0.256126 0)
(3.13015 -0.284354 0)
(5.27246 -0.275697 0)
(7.2739 -0.263315 0)
(9.18064 -0.24772 0)
(11.0895 -0.221002 0)
(13.0105 -0.190634 0)
(14.8916 -0.170415 0)
(16.7892 -0.158902 0)
(18.7683 -0.136218 0)
(20.5872 -0.10057 0)
(21.9534 -0.0973031 0)
(23.6151 -0.13759 0)
(26.483 -0.126775 0)
(28.4131 -0.0577795 0)
(29.0211 -0.0157695 0)
(29.1751 -0.00579271 0)
(29.291 -0.00466903 0)
(29.4034 -0.0039777 0)
(29.5082 -0.0030339 0)
(29.5838 -0.00219574 0)
(29.6486 -0.00169415 0)
(29.6998 -0.000719194 0)
(-1.71459 1.7969 0)
(-5.34828 1.19475 0)
(-6.19265 0.00903508 0)
(-4.16616 -0.620702 0)
(-2.59476 -0.427597 0)
(-1.87045 -0.209969 0)
(-1.36358 -0.131261 0)
(-0.950298 -0.0974735 0)
(-0.513334 -0.0701071 0)
(-0.621831 -0.0437348 0)
(-0.720454 -0.0945114 0)
(-0.151089 -0.185954 0)
(1.50595 -0.288832 0)
(3.65536 -0.320218 0)
(5.83562 -0.307748 0)
(7.85667 -0.290703 0)
(9.73405 -0.272076 0)
(11.5479 -0.243385 0)
(13.3484 -0.211164 0)
(15.1427 -0.189324 0)
(16.9609 -0.176815 0)
(18.854 -0.152582 0)
(20.6357 -0.113417 0)
(21.9989 -0.108439 0)
(23.6007 -0.15283 0)
(26.4417 -0.142108 0)
(28.4002 -0.0654323 0)
(29.0246 -0.017904 0)
(29.1795 -0.00646929 0)
(29.2939 -0.00519289 0)
(29.4056 -0.00443984 0)
(29.5104 -0.00339039 0)
(29.5856 -0.00245074 0)
(29.6501 -0.00188861 0)
(29.7006 -0.000801114 0)
(-1.59783 1.95109 0)
(-5.07289 1.28998 0)
(-5.71057 -0.0102826 0)
(-3.6621 -0.690203 0)
(-2.14359 -0.466318 0)
(-1.41167 -0.229162 0)
(-0.905561 -0.144334 0)
(-0.469919 -0.108972 0)
(-0.00194855 -0.0752278 0)
(-0.116202 -0.0424673 0)
(-0.205272 -0.0995595 0)
(0.393767 -0.20576 0)