/*--------------------------------*- C++ -*----------------------------------*\
| =========                 |                                                 |
| \\      /  F ield         | OpenFOAM: The Open Source CFD Toolbox           |
|  \\    /   O peration     | Version:  v1912                                 |
|   \\  /    A nd           | Website:  www.openfoam.com                      |
|    \\/     M anipulation  |                                                 |
\*---------------------------------------------------------------------------*/
FoamFile
{
    version     2.0;
    format      ascii;
    class       volScalarField;
    location    "150";
    object      yPlus;
}
// * * * * * * * * * * * * * * * * * * * * * * * * * * * * * * * * * * * * * //

dimensions      [0 0 0 0 0 0 0];


internalField   uniform 0;

boundaryField
{
    inlet
    {
        type            calculated;
        value           uniform 0;
    }
    outlet
    {
        type            calculated;
        value           uniform 0;
    }
    lowerSymmetry
    {
        type            symmetryPlane;
    }
    obstical
    {
        type            calculated;
        value           nonuniform List<scalar> 
88
(
496.891
498.92
503.135
509.598
518.24
528.965
541.674
556.264
572.637
590.694
610.338
631.472
654
677.822
702.842
728.966
756.109
784.192
813.151
842.93
873.483
904.778
936.789
969.5
1002.9
1037
1071.79
1107.29
1143.52
1180.49
1218.22
1256.75
1296.08
1336.25
1377.27
1419.17
1461.97
1505.69
1550.36
1596
1642.62
1690.32
1739.45
1793.96
202.257
203.004
203.725
204.749
206.123
207.851
209.917
212.282
214.897
217.706
220.649
223.668
226.708
229.719
232.654
235.47
238.133
240.619
242.923
245.063
247.074
249.011
250.876
252.595
254.18
255.589
256.772
257.694
258.337
258.72
258.931
259.137
259.553
260.335
261.403
262.263
261.92
258.974
251.848
239.029
219.181
191.174
154.029
106.881
)
;
    }
    obsticalTop
    {
        type            calculated;
        value           nonuniform List<scalar> 
20
(
53.0129
37.9367
46.5537
52.8184
55.7675
57.4886
58.1656
57.9487
57.0874
55.7192
53.8287
51.3172
48.1018
44.0168
39.0292
32.5306
26.3176
17.1911
15.223
9.92444
)
;
    }
    top
    {
        type            calculated;
        value           uniform 0;
    }
    defaultFaces
    {
        type            empty;
    }
}


// ************************************************************************* //
