/*--------------------------------*- C++ -*----------------------------------*\
| =========                 |                                                 |
| \\      /  F ield         | OpenFOAM: The Open Source CFD Toolbox           |
|  \\    /   O peration     | Version:  v1912                                 |
|   \\  /    A nd           | Website:  www.openfoam.com                      |
|    \\/     M anipulation  |                                                 |
\*---------------------------------------------------------------------------*/
FoamFile
{
    version     2.0;
    format      ascii;
    class       volScalarField;
    location    "380";
    object      epsilon;
}
// * * * * * * * * * * * * * * * * * * * * * * * * * * * * * * * * * * * * * //

dimensions      [0 2 -3 0 0 0 0];


internalField   nonuniform List<scalar> 
12441
(
0.0102963
0.00908482
0.00832694
0.00770251
0.00718356
0.00674886
0.00638215
0.00607086
0.00580488
0.00557639
0.00537897
0.00520595
0.00505736
0.00491976
0.0048018
0.00469835
0.00486327
0.0200979
0.272943
3.02639
20.9532
39.25
0.0101188
0.00891989
0.00818377
0.00757669
0.00707175
0.00664848
0.00629119
0.00598778
0.00572845
0.00550565
0.00531314
0.00514427
0.00499973
0.00486592
0.00475132
0.00465244
0.00479566
0.0198467
0.257072
3.01876
21.2438
40.2318
0.00989673
0.00871712
0.00800007
0.00740887
0.00691728
0.00650532
0.00615772
0.0058627
0.00561073
0.00539449
0.00520794
0.00504455
0.00490524
0.00477564
0.00466621
0.00457245
0.00464579
0.017991
0.217714
2.988
21.6234
41.3784
0.00967315
0.00851348
0.0078147
0.00723863
0.0067597
0.00635844
0.00601996
0.00573284
0.00548778
0.00527769
0.00509669
0.00493854
0.00480409
0.0046807
0.00457626
0.00448788
0.00450593
0.01576
0.179261
2.96536
22.0911
42.5504
0.00942893
0.00828887
0.00760881
0.00704837
0.00658261
0.00619258
0.00586378
0.00558512
0.00534755
0.00514423
0.00496946
0.00481718
0.00468837
0.00456969
0.0044712
0.00438984
0.00435782
0.0137524
0.159598
2.97215
22.6085
43.6698
0.00922295
0.00809925
0.00743441
0.00688658
0.00643138
0.00605028
0.00572908
0.00545695
0.00522507
0.00502675
0.00485645
0.00470835
0.00458338
0.00447025
0.00437609
0.00429885
0.00428337
0.0138829
0.179124
3.0786
23.2383
44.7472
0.00900229
0.00789565
0.00724726
0.00671315
0.00626952
0.00589827
0.00558556
0.00532084
0.00509551
0.00490308
0.00473817
0.00459516
0.00447496
0.00436598
0.00427557
0.00420556
0.00603665
0.0229551
0.284632
3.37873
24.0803
45.7945
0.00882384
0.00773101
0.00709544
0.00657194
0.00613714
0.00577331
0.00546687
0.00520747
0.00498671
0.00479825
0.00463681
0.00449695
0.0043797
0.00427545
0.00419421
0.0051708
0.0343913
0.0793553
0.59754
4.01159
25.2581
46.8732
0.0086297
0.0075518
0.00693075
0.00641936
0.00599477
0.00563963
0.00534068
0.00508781
0.0048728
0.00468949
0.00453274
0.00439731
0.00428476
0.00414342
0.00539617
0.0269528
0.174866
0.296953
1.28216
5.12734
26.9025
48.0153
0.00847501
0.00740892
0.00679886
0.00629652
0.00587944
0.00553059
0.00523691
0.00498849
0.00477728
0.00459722
0.00444328
0.00431054
0.00419977
0.00427368
0.0251729
0.148051
0.517479
0.785432
2.36228
6.78423
29.1084
49.2846
0.00830557
0.00725246
0.00665513
0.00616341
0.00575529
0.00541405
0.00512694
0.00488423
0.00467805
0.00450245
0.00435255
0.00422461
0.00408557
0.00949345
0.112696
0.422526
1.00967
1.48757
3.62613
8.8789
31.9019
50.6975
0.00817055
0.00712776
0.00654
0.00605613
0.0056545
0.00531868
0.00503607
0.00479716
0.00459418
0.00442132
0.00427375
0.00414931
0.00415993
0.0481429
0.312591
0.778334
1.47866
2.19249
4.81664
11.196
35.2287
52.295
0.00802141
0.0069901
0.00641368
0.00593928
0.00554562
0.00521658
0.00493981
0.00470596
0.00450742
0.00433848
0.00419444
0.00403573
0.00834991
0.161907
0.569392
1.09081
1.83309
2.75904
5.81369
13.5217
38.9794
54.0597
0.00790053
0.00687847
0.00631061
0.00584324
0.00545539
0.00513118
0.00485845
0.004628
0.00443234
0.00426587
0.00412393
0.00388027
0.0367375
0.330944
0.790812
1.3159
2.07782
3.17205
6.61356
15.7103
43.0174
56.0037
0.00776914
0.00675711
0.00619928
0.00574025
0.00535944
0.00504121
0.00477361
0.0045476
0.00435581
0.00419273
0.00405382
0.00426238
0.110712
0.495285
0.953072
1.47104
2.24619
3.46823
7.25457
17.6902
47.2113
58.0812
0.00766007
0.00665644
0.00610634
0.00565366
0.00527808
0.00496422
0.00470027
0.00447733
0.00428815
0.00412732
0.00399039
0.00946463
0.215187
0.625433
1.06729
1.57992
2.36573
3.68598
7.77798
19.4406
51.4463
60.2902
0.00754413
0.00654937
0.00600818
0.00556292
0.00519356
0.00488496
0.00462551
0.00440643
0.00422059
0.00406267
0.00392873
0.0321135
0.319244
0.722022
1.14942
1.65933
2.45436
3.85307
8.21673
20.9693
55.6362
62.571
0.00744261
0.00645579
0.0059219
0.00548263
0.00511826
0.00481383
0.0045579
0.0043418
0.00415853
0.00400284
0.00387352
0.0799712
0.406293
0.793656
1.21081
1.71978
2.52317
3.98762
8.59468
22.2956
59.7196
64.9213
0.00733999
0.00636089
0.00583483
0.00540206
0.00504312
0.00474327
0.00449123
0.00427846
0.00409805
0.00394483
0.00380984
0.140803
0.474398
0.848397
1.25865
1.76776
2.57912
4.10126
8.9284
23.4428
63.6616
67.2818
0.00724536
0.00627375
0.00575454
0.00532742
0.0049732
0.00467733
0.00442864
0.00421875
0.00404083
0.00388979
0.00428148
0.199895
0.527231
0.89185
1.29746
1.80743
2.62671
4.2015
9.22911
24.4332
67.4457
69.6617
0.00715513
0.00619024
0.0056779
0.00525645
0.00490691
0.00461495
0.00436956
0.00416244
0.00398687
0.00383792
0.00994071
0.251174
0.569154
0.927657
1.33012
1.84151
2.66901
4.29309
9.50426
25.2874
71.0755
72.0102
0.00706436
0.00610683
0.00560121
0.00518536
0.00484054
0.00455259
0.00431062
0.00410646
0.00393348
0.0037873
0.0282691
0.293915
0.603532
0.958175
1.35858
1.8719
2.70816
4.37896
9.75863
26.0236
74.5673
74.3523
0.00698507
0.00603322
0.0055335
0.00512246
0.00478159
0.00449689
0.00425765
0.00405576
0.00388469
0.00374223
0.058709
0.329418
0.632684
0.984971
1.38418
1.89995
2.74569
4.46073
9.99525
26.6578
77.9533
76.6493
0.00689857
0.00595383
0.00546061
0.00505502
0.00471877
0.00443804
0.00420219
0.00400326
0.00383479
0.00370251
0.0927798
0.359263
0.65816
1.00913
1.40789
1.92664
2.78264
4.53917
10.216
27.2041
81.2757
78.9445
0.0068303
0.00589033
0.00540209
0.00500049
0.00466745
0.00438929
0.00415555
0.00395832
0.00379126
0.00368408
0.124504
0.384885
0.681002
1.03145
1.43044
1.9527
2.81962
4.61464
10.4223
27.6753
84.59
81.212
0.00674461
0.00581196
0.00533044
0.00493454
0.00460638
0.00433245
0.00410237
0.00390836
0.00374413
0.00364538
0.152247
0.407418
0.701931
1.05248
1.45236
1.97864
2.85687
4.6873
10.6149
28.0824
87.9594
83.5114
0.00668546
0.00575663
0.00527917
0.00488645
0.00456078
0.00428881
0.0040603
0.00386752
0.00370435
0.00384342
0.176419
0.427697
0.721456
1.07267
1.47403
2.00476
2.89439
4.75729
10.7947
28.4351
91.4568
85.8273
0.00660173
0.0056802
0.00520946
0.00482249
0.00450178
0.00423414
0.0040094
0.00381992
0.00365976
0.00580716
0.197885
0.446316
0.73995
1.09234
1.49572
2.03122
2.93205
4.82479
10.9623
28.7416
95.1574
88.2307
0.00655207
0.00563348
0.00516591
0.0047813
0.00446236
0.00419601
0.00397223
0.00378344
0.00362422
0.0112475
0.217398
0.463698
0.757691
1.11172
1.51756
2.05802
2.9697
4.88998
11.1185
29.009
99.1376
90.7106
0.00646798
0.00555705
0.00509655
0.00471806
0.00440443
0.00414275
0.00392303
0.00373784
0.00358276
0.0211953
0.235494
0.480146
0.774887
1.13097
1.53965
2.08514
3.00721
4.95305
11.264
29.2428
103.467
93.3406
0.00642575
0.0055169
0.00505873
0.00468187
0.00436936
0.00410841
0.00388919
0.0037043
0.0035517
0.0357118
0.252522
0.49588
0.791694
1.15018
1.56198
2.11249
3.04449
5.01417
11.3996
29.448
108.207
96.1058
0.00634328
0.00544208
0.00499099
0.00462029
0.00431318
0.00405698
0.00384192
0.00366069
0.00351578
0.0538261
0.268704
0.511063
0.808224
1.16944
1.58453
2.13999
3.08148
5.0735
11.5259
29.629
113.404
99.0732
0.0063096
0.00540972
0.00496014
0.00459031
0.00428361
0.00402749
0.00381234
0.00363089
0.00349482
0.0741743
0.284184
0.525816
0.824554
1.18874
1.60724
2.16755
3.11815
5.13114
11.6438
29.7901
119.092
102.217
0.00622512
0.00533344
0.00489149
0.00452836
0.00422757
0.00397668
0.00376611
0.00358868
0.00347378
0.0954678
0.299053
0.540228
0.840733
1.20809
1.63006
2.19511
3.15448
5.1872
11.7539
29.9352
125.292
105.592
0.00619829
0.00530715
0.0048659
0.0045029
0.00420186
0.00395048
0.00373933
0.0035613
0.00347878
0.116755
0.313372
0.554361
0.856788
1.22747
1.65292
2.2226
3.19046
5.24172
11.8571
30.0684
132.018
109.157
0.0061113
0.00522904
0.00479601
0.00444027
0.00414565
0.00389994
0.00369374
0.00352004
0.00354996
0.137369
0.327174
0.568257
0.872723
1.24684
1.67576
2.24998
3.22607
5.29474
11.9541
30.1934
139.275
112.957
0.00608775
0.00520569
0.00477294
0.00441693
0.00412169
0.00387518
0.00366817
0.00349369
0.00629878
0.156831
0.34047
0.581936
0.888529
1.26616
1.69852
2.27719
3.26129
5.34626
12.0457
30.3131
147.064
116.938
0.00599576
0.00512367
0.00470006
0.00435209
0.00406394
0.00382368
0.00362208
0.00345232
0.027777
0.174698
0.353251
0.595407
0.904184
1.28538
1.72113
2.30419
3.2961
5.39625
12.1328
30.4294
155.37
121.137
0.00596745
0.00509621
0.00467342
0.0043256
0.0040372
0.00379646
0.00359438
0.00342472
0.0555882
0.190328
0.365494
0.608661
0.919655
1.30445
1.74353
2.33093
3.33046
5.44466
12.2162
30.543
164.139
125.495
0.00586277
0.00500329
0.00459122
0.00425283
0.00397272
0.00373927
0.00354354
0.00338446
0.072475
0.203463
0.377173
0.62168
0.934901
1.3233
1.76566
2.35735
3.3643
5.49143
12.2968
30.653
173.24
130.045
0.00582118
0.00496385
0.00455373
0.00421647
0.00393698
0.00370388
0.00350846
0.00335283
0.0821983
0.214342
0.388265
0.634433
0.949877
1.34186
1.78746
2.38339
3.39757
5.53649
12.3753
30.7582
182.401
134.727
0.00569955
0.00485629
0.00445862
0.00413202
0.00386179
0.0036368
0.00344845
0.00359379
0.0882148
0.223343
0.398756
0.646884
0.964532
1.36005
1.80884
2.40898
3.43016
5.57978
12.4524
30.8576
191.145
139.588
0.00561725
0.00478978
0.00440417
0.00408593
0.00382133
0.00359999
0.00341384
0.00418508
0.092197
0.230819
0.40864
0.658986
0.978819
1.3778
1.82973
2.43403
3.46196
5.62128
12.5281
30.9515
198.775
144.654
0.0052548
0.00446045
0.00411214
0.00382658
0.00358933
0.0033908
0.00322363
0.00446029
0.0949545
0.237043
0.417918
0.670684
0.992688
1.395
1.85004
2.45844
3.49285
5.66102
12.6019
31.0417
204.485
150.447
95.0235
50.6902
34.4694
27.1943
26.0828
21.8527
20.8641
18.6391
17.4617
16.8191
16.2177
15.4934
16.5859
19.4013
23.4622
26.891
29.3358
31.9565
34.4816
35.8847
36.6281
37.2143
37.4526
37.2722
37.1159
36.8955
36.3256
34.9628
35.1145
39.3215
20.8833
4.85471
3.96908
3.64391
3.24065
94.6475
50.7214
34.5754
27.5694
26.6849
22.2843
21.2788
18.9563
17.7404
17.0546
16.3377
15.6045
16.7243
19.5949
23.7258
27.1618
29.5071
32.0537
34.6585
36.2721
37.2447
37.9681
38.2415
37.9993
37.734
37.4093
36.7751
35.3704
35.5097
39.5608
21.4414
4.8616
3.96479
3.63927
3.23668
93.9266
50.763
34.7797
28.3247
27.8784
23.1425
22.0795
19.5662
18.2882
17.5239
16.5911
15.8419
17.018
20.0064
24.2892
27.7498
29.9056
32.2805
34.9864
36.9922
38.4574
39.5037
39.8871
39.5436
39.0562
38.499
37.7041
36.1992
36.316
39.9743
21.7565
4.87274
3.95617
3.63
3.22876
92.8104
50.8029
35.0926
29.4918
29.6465
24.4268
23.2363
20.4516
19.099
18.2239
17.0122
16.2448
17.5084
20.6932
25.2552
28.8158
30.7069
32.7705
35.564
38.1475
40.3764
41.9494
42.5479
42.0843
41.252
40.2953
39.2025
37.51
37.5689
40.7454
21.9992
4.88918
3.94328
3.61611
3.21691
91.3035
50.8295
35.529
31.0949
31.9628
26.1305
24.7228
21.6044
20.1679
19.1503
17.6395
16.8614
18.2458
21.7138
26.7285
30.5656
32.1935
33.7782
36.5874
39.922
43.1849
45.5102
46.4698
45.9005
44.5909
43.0091
41.412
39.3955
39.3264
42.058
22.3138
4.91272
3.92617
3.59765
3.20116
89.3553
50.8322
36.1097
33.1613
34.8158
28.2586
26.5338
23.0339
21.503
20.3108
18.5106
17.7407
19.2761
23.1089
28.7789
33.1912
34.7304
35.7132
38.4004
42.622
47.1756
50.5017
52.0191
51.4075
49.4843
46.9698
44.5527
41.9952
41.6753
44.1133
22.8164
4.94562
3.90493
3.57462
3.18153
87.0012
50.8016
36.8624
35.7289
38.2121
30.8335
28.6879
24.7677
23.131
21.7319
19.6682
18.9352
20.6479
24.9239
31.4635
36.8477
38.7112
39.1458
41.5503
46.7338
52.8069
57.4027
59.7298
59.2072
56.5468
52.6837
48.9631
45.5175
44.7404
47.1522
23.6024
4.99044
3.87961
3.54708
3.15807
84.2135
50.7295
37.8231
38.8379
42.1597
33.8885
31.2224
26.8496
25.0968
23.4614
21.1698
20.5125
22.4327
27.2428
34.8723
41.6798
44.5068
44.7648
46.8273
52.9945
60.7764
66.924
70.364
70.1484
66.6731
60.916
55.1582
50.2714
48.6971
51.4788
24.7596
5.04988
3.8503
3.51507
3.13083
81.0699
50.6082
39.0361
42.5068
46.6479
37.4543
34.1847
29.335
27.4611
25.5687
23.0976
22.567
24.7407
30.2044
39.1545
47.8357
52.3982
53.2522
55.2336
62.4358
72.0798
80.0579
84.9444
85.35
81.0939
72.7811
63.9045
56.7088
53.7885
57.483
26.3805
5.12667
3.81706
3.47865
3.09987
77.574
50.4301
40.5542
46.702
51.6317
41.5471
37.623
32.2867
30.2967
28.1442
25.5625
25.2259
27.728
34.0064
44.5001
55.4032
62.3921
64.9277
67.6897
76.2287
87.9039
97.9572
104.603
106.026
101.256
89.7474
76.2759
65.4673
60.3422
65.6457
28.5751
5.22342
3.77996
3.4379
3.06528
73.8369
50.1874
42.4381
51.3126
57.0287
46.1594
41.578
35.7671
33.6816
31.2964
28.7068
28.6511
31.5957
38.884
51.0772
64.2572
73.876
79.0143
84.0911
94.8903
108.955
121.262
129.863
132.708
128.096
113.229
93.5476
77.3677
68.7739
76.489
31.4838
5.34232
3.73906
3.39291
3.02714
69.8857
49.8717
44.7535
56.1534
62.7287
51.2588
46.0724
39.8283
37.688
35.1437
32.6978
33.0302
36.5712
45.0403
58.8968
73.8555
85.3779
93.0733
101.922
116.586
133.817
148.479
158.998
163.455
160.097
143.057
116.525
93.2279
79.5416
90.3926
35.2862
5.48477
3.69439
3.34382
2.98559
65.8489
49.4735
47.5632
61.0104
68.6154
56.796
51.1056
44.5003
42.3648
39.7956
37.7089
38.5472
42.8288
52.5097
67.5997
83.1554
94.9763
104.025
116.748
136.427
157.659
174.585
186.603
192.274
190.966
174.635
143.731
113.201
92.9708
107.166
40.1965
5.6506
3.64598
3.29077
2.94075
61.7626
48.982
50.9074
65.7152
74.5902
62.7207
56.6523
49.783
47.72
45.3213
43.8693
45.3126
50.3553
60.9226
76.2972
90.9069
101.42
110.497
125.866
149.894
174.78
193.25
205.802
211.479
211.466
198.354
169.254
135.448
108.842
125.402
46.4195
5.83678
3.5938
3.23393
2.89279
57.7502
48.3866
54.7668
70.204
80.5874
69.001
62.6751
55.6407
53.7065
51.7103
51.1905
53.2353
58.785
69.3583
83.7613
96.2963
104.876
113.572
130.383
156.834
183.477
201.9
213.481
217.526
216.624
206.273
184.518
155.156
125.768
142.123
54.0229
6.03541
3.53782
3.17349
2.84188
53.8399
47.6783
59.0193
74.5228
86.5856
75.6258
69.1313
62.0157
60.2325
58.8419
59.4727
61.9305
67.3182
76.6009
89.055
99.4016
106.564
115.333
133.071
160.185
186.281
202.75
211.741
212.772
209.058
199.156
185.354
166.492
140.897
153.639
62.6792
6.2312
3.47794
3.10969
2.78823
50.1273
46.8539
63.4227
78.7845
92.5995
82.5814
75.9864
68.8523
67.1863
66.4971
68.3037
70.76
74.9974
81.8306
92.1025
101.035
107.858
117.405
135.937
162.549
186.322
199.31
204.499
201.774
194.609
183.684
175.161
167.058
150.849
157.544
71.3181
6.39933
3.41407
3.04278
2.73204
46.6135
45.9215
67.6689
83.0758
98.6662
89.8522
83.2146
76.115
74.4769
74.4312
77.1825
79.0898
81.2625
85.1381
93.6417
102.233
109.765
120.583
139.674
164.893
185.168
193.774
194.572
188.01
177.849
165.938
160.198
159.311
153.669
153.998
78.0085
6.50669
3.34613
2.97301
2.67357
43.349
44.9231
71.5056
87.4471
104.807
97.3977
90.7873
83.7907
82.0656
82.4648
85.7556
86.6546
86.317
87.3874
94.735
103.871
112.818
125.006
144.086
167.012
183.012
186.867
183.273
173.315
161.156
149.093
144.898
147.539
149.877
145.055
80.6091
6.51939
3.27411
2.9007
2.61304
40.3033
43.9474
74.8061
91.9386
111.01
105.136
98.6549
91.873
89.9679
90.5673
93.9846
93.7002
90.9718
89.707
96.356
106.552
117.208
130.44
148.588
168.264
179.5
178.656
171.104
158.545
145.511
134.211
131.152
134.95
141.607
133.129
78.0709
6.41582
3.19814
2.82613
2.55072
37.4893
43.1285
77.6275
96.5451
117.229
112.944
106.734
100.321
98.2302
98.8281
102.147
100.857
96.2546
93.1422
99.2663
110.666
122.922
136.499
152.567
168.09
174.351
169.169
158.372
144.167
131.259
121.377
119.336
123.073
131.101
120.03
71.1413
6.19676
3.11851
2.74963
2.48686
34.8769
42.5464
80.1607
101.223
123.39
120.67
114.907
109.058
106.885
107.404
110.653
108.841
103.099
98.5718
104.084
116.507
129.899
142.826
155.586
166.21
167.561
158.629
145.433
130.525
118.491
110.349
109.216
112.334
119.903
106.815
61.7112
5.88457
3.03571
2.67153
2.42175
32.4767
42.1966
82.5708
105.9
129.403
128.162
123.036
117.965
115.917
116.44
119.867
118.24
112.234
106.781
111.409
124.378
138.112
149.199
157.46
162.652
159.395
147.425
132.692
117.887
107.185
100.815
100.411
102.667
108.823
94.0124
51.6696
5.51313
2.95035
2.59216
2.35563
30.2708
42.0434
84.9197
110.484
135.176
135.279
130.975
126.898
125.257
126.004
129.987
129.379
124.122
118.509
121.937
134.674
147.644
155.561
158.239
157.662
150.261
136.011
120.524
106.421
97.2528
92.4874
92.5674
93.8589
98.1879
81.8849
42.2763
5.11635
2.86309
2.51185
2.28877
28.2673
42.0639
87.2066
114.873
140.62
141.91
138.594
135.708
134.806
136.094
141.068
142.362
138.972
134.413
136.508
147.906
158.654
161.967
158.138
151.637
140.624
124.803
109.209
96.1919
88.5606
85.1221
85.4134
85.7081
88.0883
70.5874
34.1315
4.72118
2.7746
2.43091
2.22142
26.4614
42.2946
89.4101
118.966
145.659
147.978
145.784
144.268
144.459
146.665
153.088
157.158
156.801
154.937
156.042
164.67
171.326
168.497
157.452
145.022
130.912
114.13
98.9135
87.1748
80.9523
78.5198
78.7616
78.0697
78.5325
60.2365
27.3871
4.34548
2.68549
2.34967
2.15384
24.8623
42.8443
91.5085
122.683
150.243
153.445
152.48
152.493
154.131
157.683
166.048
173.766
177.63
180.277
181.32
185.491
185.706
175.144
156.456
138.254
121.485
104.212
89.6948
79.2799
74.2668
72.5247
72.4971
70.859
69.5204
50.9209
21.9577
3.99908
2.5963
2.26841
2.08625
23.4808
43.8647
93.488
125.976
154.35
158.319
158.662
160.352
163.789
169.159
180.025
192.309
201.647
210.54
212.657
210.541
201.586
181.758
155.325
131.668
112.591
95.1661
81.532
72.384
68.3523
67.0179
66.5585
64.0391
61.0718
42.6925
17.6602
3.68585
2.5075
2.18743
2.01886
22.3333
45.5006
95.34
128.834
157.989
162.642
164.356
167.87
173.462
181.183
195.225
213.131
229.34
245.977
249.715
239.242
218.285
187.974
154.079
125.475
104.376
87.0218
74.3505
66.3523
63.0754
61.9152
60.9234
57.6023
53.2242
35.5563
14.2906
3.40586
2.41944
2.10698
1.9519
21.4546
47.8519
97.0568
131.274
161.195
166.483
169.627
175.122
183.247
193.938
212.006
236.831
261.538
287.012
291.468
269.996
234.618
193.249
152.573
119.721
96.8782
79.7497
68.0493
61.0541
58.325
57.1594
55.5915
51.5568
46.0219
29.4709
11.6596
3.15699
2.33245
2.0273
1.88553
20.8892
50.9536
98.6295
133.334
164.019
169.925
174.567
182.226
193.31
207.718
230.921
264.34
299.43
334.006
336.075
300.18
248.925
196.909
150.544
114.335
90.0697
73.281
62.5172
56.3714
54.0124
52.716
50.5736
45.9148
39.501
24.3567
9.60621
2.93612
2.24677
1.94861
1.81993
20.7351
54.7686
100.049
135.061
166.52
173.054
179.285
189.334
203.891
222.951
252.767
296.977
344.462
386.649
380.499
326.499
259.463
198.317
147.694
109.147
83.87
67.5305
57.6462
52.2025
50.0698
48.5653
45.8816
40.6871
33.68
20.1099
7.99966
2.7398
2.16258
1.87111
1.75525
21.1259
59.187
101.311
136.51
168.766
175.96
183.905
196.636
215.311
240.24
278.686
336.547
398.001
442.962
420.203
345.531
264.761
197.004
143.782
103.981
78.1871
62.4079
53.3367
48.4626
46.4462
44.6976
41.524
35.879
28.5542
16.6156
6.73692
2.56465
2.08004
1.79496
1.69163
22.2957
64.0366
102.415
137.734
170.825
178.736
188.57
204.372
228.007
260.433
310.273
385.282
460.33
497.963
449.463
354.494
264.038
192.796
138.684
98.6879
72.9274
57.8285
49.5014
45.0821
43.1043
41.1069
37.5022
31.4897
24.0973
13.7594
5.7382
2.4076
1.99929
1.72033
1.62917
24.5223
69.1058
103.372
138.787
172.771
181.483
193.453
212.855
242.588
284.744
349.739
445.422
528.538
542.992
462.76
351.991
257.279
185.797
132.409
93.194
68.0192
53.7159
46.0646
42.005
40.0163
37.7881
33.8105
27.5116
20.265
11.4345
4.94231
2.26592
1.92041
1.64735
1.568
28.1637
74.176
104.195
139.716
174.681
184.316
198.771
222.516
259.93
314.942
399.932
517.534
593.495
567.346
456.921
338.474
245.208
176.352
125.069
87.4881
63.4075
50.004
42.963
39.1863
37.1605
34.7333
30.4363
23.9321
17.001
9.54566
4.30263
2.13729
1.8435
1.57613
1.50819
33.4954
79.0538
104.9
140.564
176.642
187.38
204.831
233.991
281.372
353.634
463.803
596.503
639.015
563.062
432.768
316.05
228.995
164.939
116.849
81.614
59.0592
46.635
40.1431
36.5901
34.519
31.9319
27.3629
20.7333
14.2431
8.01127
3.7837
2.01974
1.76863
1.5068
1.44983
40.701
83.5957
105.504
141.373
178.762
190.878
212.088
248.279
309.034
404.526
541.8
665.915
648.146
529.819
394.895
287.768
210.017
152.103
107.969
75.637
54.9493
43.5591
37.5612
34.1877
32.0762
29.3691
24.5698
17.8944
11.9276
6.76286
3.35853
1.91165
1.69585
1.43943
1.393
49.6321
87.7227
106.021
142.19
181.185
195.116
221.277
267.048
346.386
471.977
625.014
699.51
614.822
475.45
349.666
256.714
189.566
138.384
98.6673
69.6372
51.0618
40.733
35.1816
31.9564
29.8171
27.0278
22.0358
15.3913
9.9931
5.74415
3.00654
1.81167
1.62524
1.37413
1.33775
59.8743
91.4196
106.463
143.07
184.125
200.59
233.662
293.234
398.953
557.096
687.183
678.38
548.567
411.356
302.883
225.4
168.754
124.292
89.1858
63.6943
47.3814
38.1196
32.9763
29.8791
27.7282
24.8887
19.739
13.1988
8.38288
4.90946
2.71196
1.7187
1.55686
1.31097
1.28416
70.5911
94.7213
106.845
144.093
187.929
208.174
251.545
332.122
473.782
645.235
694.355
608.014
467.092
347.298
258.509
195.538
148.427
110.274
79.7605
57.8906
43.8963
35.6876
30.9236
27.9429
25.7967
22.9321
17.6589
11.2902
7.04593
4.22215
2.46268
1.63186
1.49076
1.25004
1.23228
80.9187
97.6916
107.182
145.384
193.201
219.505
279.344
392.685
570.638
693.156
635.668
511.895
385.826
289.008
218.587
168.134
129.209
96.7126
70.6102
52.3031
40.5957
33.4118
29.0077
26.1391
24.0119
21.1391
15.7761
9.63871
5.93759
3.65297
2.2493
1.55044
1.427
1.1914
1.18217
89.3733
100.409
107.497
147.162
201.099
237.882
325.577
484.131
652.73
657.659
533.218
413.424
313.403
238.69
183.824
143.683
111.517
83.9145
61.9275
47.0042
37.4731
31.2719
27.217
24.4628
22.3653
19.4928
14.0733
8.21782
5.01935
3.17868
2.06452
1.47384
1.36564
1.13512
1.13388
95.1437
102.974
107.827
149.843
214.05
270.27
403.14
583.805
643.161
547.675
419.701
326.153
252.562
196.438
154.178
122.335
95.6032
72.1167
53.8721
42.0543
34.5234
29.2523
25.5435
22.9113
20.8511
17.9793
12.5351
7.00161
4.25853
2.78086
1.90262
1.4016
1.30674
1.08127
1.08746
0.00337779
0.00250488
0.00227712
0.00216519
0.00212401
0.00212729
0.00215949
0.00454369
0.0964314
0.240936
0.424405
0.679019
1.00254
1.40711
1.86436
2.4757
3.51475
5.68923
12.6549
31.1107
206.774
160.15
0.00334436
0.00224234
0.00184204
0.00160584
0.0014842
0.00144592
0.00147791
0.0045852
0.0971603
0.243042
0.428125
0.683659
1.00777
1.41333
1.87161
2.4845
3.52628
5.70503
12.688
31.1624
207.728
170.279
0.00354042
0.00237571
0.00188201
0.00154429
0.00132225
0.0011912
0.00116044
0.00461317
0.0976391
0.244579
0.43102
0.687068
1.01128
1.41722
1.87598
2.48984
3.53376
5.71635
12.7145
31.2154
207.835
179.95
0.00367077
0.00251732
0.00200374
0.00162959
0.00135778
0.00116634
0.00103184
0.0046314
0.0979026
0.245584
0.433082
0.689221
1.01301
1.41873
1.87742
2.49167
3.53704
5.72299
12.7325
31.2702
207.156
189.029
0.00392255
0.00276384
0.00222629
0.00182199
0.00151412
0.00127988
0.00099895
0.00464203
0.0979716
0.246078
0.434302
0.690098
1.01295
1.41784
1.87589
2.48993
3.53602
5.72472
12.7407
31.3273
205.737
197.979
0.00406019
0.00292963
0.00239834
0.00199188
0.00167504
0.00142508
0.000988196
0.00464628
0.0978581
0.246076
0.434674
0.689689
1.01109
1.41455
1.87137
2.48458
3.53061
5.72136
12.7372
31.3869
203.61
206.97
0.00434046
0.0032079
0.00265939
0.00223331
0.00189597
0.00162463
0.00105748
0.0046448
0.0975698
0.245589
0.4342
0.687993
1.00742
1.40887
1.86389
2.47561
3.52074
5.71274
12.7207
31.4486
200.814
216
0.00447857
0.0033792
0.00284376
0.00242328
0.00208637
0.00181134
0.00118427
0.00463768
0.0971113
0.244627
0.432886
0.685023
1.00197
1.40082
1.85346
2.46303
3.50636
5.69868
12.6899
31.5116
197.398
225.009
0.00478403
0.00368456
0.00313451
0.0026968
0.00234201
0.00204908
0.001309
0.00462456
0.0964856
0.243199
0.430751
0.6808
0.994776
1.39046
1.84014
2.44685
3.48742
5.67904
12.6437
31.5745
193.418
233.925
0.00490869
0.00384881
0.00331938
0.00289449
0.00254681
0.00225645
0.00139926
0.00460485
0.0956949
0.241317
0.427819
0.675361
0.985891
1.37785
1.82401
2.42714
3.46388
5.65368
12.5812
31.6349
188.934
242.666
0.00522938
0.00417118
0.00362995
0.00319039
0.00282715
0.00252112
0.00151318
0.00457781
0.0947401
0.238995
0.424123
0.668753
0.975385
1.36307
1.80516
2.40396
3.43574
5.62248
12.5016
31.6896
184.011
251.12
0.0053393
0.00432466
0.00380976
0.00338892
0.00303855
0.00274063
0.00163257
0.0045424
0.093621
0.236247
0.419702
0.661035
0.963342
1.34623
1.78371
2.37741
3.40298
5.58528
12.4045
31.7343
178.716
259.155
0.00567208
0.00466086
0.00413666
0.00370331
0.00333921
0.00302731
0.00183691
0.00449736
0.0923354
0.23309
0.4146
0.652275
0.949858
1.32744
1.7598
2.34761
3.36563
5.54197
12.2895
31.7637
173.119
266.623
0.00575628
0.00479288
0.00430104
0.00389279
0.00354785
0.00325015
0.00211453
0.00444076
0.0908779
0.229539
0.408862
0.64255
0.935039
1.30683
1.73358
2.31471
3.32374
5.49239
12.1563
31.7714
167.285
273.369
0.00609207
0.00513326
0.00463425
0.00421552
0.00385879
0.00354905
0.00251921
0.00437032
0.089238
0.225606
0.402534
0.631944
0.918998
1.28453
1.70521
2.27889
3.27738
5.4364
12.0049
31.7502
161.279
279.247
0.0061522
0.00524294
0.00478007
0.00439088
0.00405808
0.00376748
0.00298534
0.00428219
0.0873983
0.2213
0.395659
0.620543
0.901857
1.26069
1.67487
2.24034
3.22667
5.37384
11.8353
31.6918
155.162
284.124
0.00648672
0.00558303
0.00511475
0.0047167
0.00437355
0.00407228
0.00349784
0.00417194
0.0853309
0.216622
0.388274
0.608438
0.883741
1.23547
1.64274
2.19927
3.17176
5.30455
11.6478
31.5873
148.988
287.89
0.00651839
0.00566545
0.00523642
0.00487179
0.00455682
0.00427916
0.00389391
0.00403182
0.0829931
0.21156
0.380411
0.595716
0.864777
1.20902
1.60901
2.1559
3.11286
5.22839
11.4426
31.4276
142.804
290.46
0.00683897
0.0059924
0.00555977
0.00518812
0.00486463
0.00457812
0.00427064
0.00386017
0.0803216
0.206084
0.372085
0.582462
0.845096
1.1815
1.57387
2.11048
3.0502
5.14523
11.2203
31.2032
136.652
291.777
0.00685354
0.00605575
0.00566223
0.00532484
0.00503106
0.00477021
0.00452548
0.00366715
0.077225
0.200143
0.363299
0.56875
0.824826
1.15307
1.53751
2.06325
2.98404
5.05495
10.9816
30.9051
130.566
291.808
0.00716006
0.00636937
0.00597375
0.00563074
0.00532966
0.00506103
0.00482088
0.00352686
0.0735737
0.193648
0.354028
0.55464
0.804092
1.12388
1.50011
2.01446
2.91468
4.95748
10.7272
30.5249
124.574
290.539
0.00715668
0.00641252
0.00605547
0.00574711
0.00547681
0.00523539
0.00502099
0.00362705
0.0691913
0.186465
0.344215
0.540173
0.783011
1.09409
1.46188
1.96434
2.84245
4.8528
10.458
30.0551
118.695
287.975
0.00744653
0.00670963
0.00635141
0.0060384
0.00576172
0.00551335
0.00529049
0.00406564
0.0638489
0.178398
0.333754
0.525353
0.761687
1.06386
1.42297
1.91315
2.76771
4.74097
10.1751
29.49
112.945
284.13
0.0074306
0.00673703
0.00641566
0.00613643
0.00589034
0.00566951
0.00546922
0.00464734
0.0572758
0.169168
0.322475
0.510143
0.7402
1.03332
1.38358
1.86111
2.69081
4.6221
9.87945
28.8257
107.333
279.029
0.00770414
0.00701776
0.00669584
0.00641262
0.00616076
0.00593345
0.00572571
0.00523736
0.0492281
0.158402
0.310122
0.494439
0.718598
1.00263
1.34385
1.80847
2.61214
4.49642
9.57228
28.0607
101.864
272.705
0.00767677
0.00703042
0.00674336
0.00649269
0.0062708
0.00607093
0.00588721
0.00561666
0.0396756
0.145619
0.296321
0.47805
0.696875
0.971897
1.30396
1.75544
2.5321
4.36424
9.25472
27.1961
96.5385
265.2
0.00793328
0.00729375
0.00700641
0.00675215
0.00652487
0.00631884
0.00612897
0.00592415
0.0291616
0.130278
0.280548
0.46066
0.674945
0.941217
1.26406
1.70223
2.45109
4.22601
8.92788
26.2359
91.353
256.564
0.00789955
0.00729639
0.00704131
0.00681765
0.00661894
0.0064394
0.00627355
0.00611048
0.0190941
0.111934
0.262097
0.44179
0.652611
0.910631
1.22427
1.64906
2.36953
4.0823
8.59287
25.1869
86.3007
246.861
0.00814116
0.00754431
0.00728903
0.00706196
0.00685804
0.00667243
0.00650069
0.00633723
0.0115255
0.0905998
0.240074
0.420743
0.629512
0.880088
1.1847
1.59609
2.28784
3.93382
8.25077
24.0588
81.3731
236.167
0.00810337
0.00753939
0.00731378
0.00711524
0.00693832
0.00677803
0.00662957
0.00648805
0.00762692
0.0673489
0.213474
0.396542
0.60507
0.849407
1.14539
1.54352
2.20647
3.78144
7.90263
22.8634
76.5579
224.581
0.00833022
0.00777197
0.00754613
0.00734433
0.00716236
0.00699613
0.00684187
0.00669593
0.00657714
0.0447306
0.181505
0.367874
0.578418
0.818199
1.10631
1.49147
2.12586
3.62622
7.54953
21.6151
71.8423
212.215
0.00829267
0.00776379
0.00756483
0.00738919
0.00723224
0.0070897
0.00695742
0.00683151
0.00659654
0.026172
0.144294
0.333105
0.548302
0.785798
1.06723
1.43999
2.04643
3.46939
7.19268
20.3292
67.2118
199.205
0.008506
0.00798233
0.00778312
0.00760437
0.00744256
0.00729424
0.00715621
0.00702554
0.00684508
0.0143083
0.104044
0.290541
0.512973
0.751158
1.02771
1.38905
1.96857
3.31233
6.83352
19.0223
62.6538
185.704
0.00847103
0.00797346
0.00779843
0.00764347
0.00750464
0.00737828
0.00726076
0.00714879
0.00702176
0.00883262
0.0657897
0.239248
0.470118
0.712738
0.986956
1.33839
1.89256
3.15658
6.47381
17.7109
58.1582
171.878
0.00867164
0.00817879
0.00800349
0.00784558
0.00770213
0.00757021
0.00744707
0.00733025
0.00721151
0.00716589
0.0359332
0.180738
0.417019
0.668347
0.943722
1.28749
1.81854
3.00372
6.11579
16.4117
53.7216
157.906
0.00864159
0.00817179
0.00801805
0.00788157
0.00775899
0.00764716
0.00754294
0.00744344
0.0073437
0.00696722
0.0180931
0.120891
0.351395
0.615014
0.896141
1.23544
1.74634
2.85526
5.76218
15.1401
49.3488
143.97
0.0088316
0.00836601
0.00821192
0.00807261
0.00794561
0.00782841
0.00771868
0.00761427
0.00751191
0.00720738
0.0103853
0.0695491
0.273613
0.549092
0.841543
1.1808
1.67543
2.71244
5.41611
13.9111
45.0562
130.247
0.00880916
0.00836383
0.00822884
0.00810867
0.00800045
0.00790144
0.00780893
0.00772036