/*--------------------------------*- C++ -*----------------------------------*\
| =========                 |                                                 |
| \\      /  F ield         | OpenFOAM: The Open Source CFD Toolbox           |
|  \\    /   O peration     | Version:  v1912                                 |
|   \\  /    A nd           | Website:  www.openfoam.com                      |
|    \\/     M anipulation  |                                                 |
\*---------------------------------------------------------------------------*/
FoamFile
{
    version     2.0;
    format      ascii;
    class       volScalarField;
    location    "380";
    object      p;
}
// * * * * * * * * * * * * * * * * * * * * * * * * * * * * * * * * * * * * * //

dimensions      [0 2 -2 0 0 0 0];


internalField   nonuniform List<scalar> 
12441
(
8.84437
9.14285
9.99504
11.3218
13.0404
15.1996
17.8887
21.2151
25.3648
30.4936
36.8205
44.5968
54.2828
66.2961
81.9681
101.516
129.625
164.8
221.895
284.453
375.458
438.173
8.84437
9.14284
9.99503
11.3218
13.0404
15.1995
17.8886
21.215
25.3647
30.4933
36.8202
44.5962
54.2818
66.2944
81.9651
101.509
129.609
164.776
221.814
284.377
375.41
437.979
8.84435
9.14282
9.99501
11.3218
13.0403
15.1994
17.8885
21.2148
25.3644
30.4929
36.8194
44.595
54.2798
66.291
81.9591
101.495
129.584
164.719
221.645
284.197
375.28
437.627
8.84433
9.14279
9.99497
11.3217
13.0402
15.1993
17.8883
21.2145
25.3639
30.4922
36.8183
44.5932
54.2769
66.2859
81.9501
101.474
129.551
164.633
221.467
283.92
375.042
437.08
8.8443
9.14276
9.99493
11.3217
13.0401
15.1992
17.8881
21.2141
25.3633
30.4912
36.8168
44.5907
54.273
66.2791
81.9382
101.447
129.508
164.525
221.302
283.573
374.706
436.334
8.84426
9.14271
9.99487
11.3216
13.04
15.199
17.8878
21.2136
25.3626
30.49
36.815
44.5877
54.2681
66.2706
81.9233
101.413
129.454
164.397
221.116
283.153
374.279
435.39
8.84421
9.14266
9.9948
11.3215
13.0398
15.1987
17.8874
21.213
25.3617
30.4886
36.8128
44.584
54.2622
66.2604
81.9054
101.373
129.391
164.248
220.898
282.664
373.765
434.246
8.84415
9.1426
9.99472
11.3213
13.0397
15.1984
17.887
21.2123
25.3606
30.487
36.8102
44.5797
54.2554
66.2486
81.8847
101.326
129.322
164.078
220.661
282.117
373.167
432.901
8.84409
9.14252
9.99463
11.3212
13.0395
15.1981
17.8865
21.2115
25.3595
30.4851
36.8072
44.5748
54.2475
66.2351
81.8615
101.276
129.25
163.896
220.424
281.524
372.49
431.35
8.84402
9.14244
9.99452
11.321
13.0392
15.1978
17.886
21.2106
25.3581
30.4829
36.8039
44.5693
54.2387
66.2201
81.8369
101.225
129.184
163.712
220.213
280.897
371.734
429.587
8.84394
9.14236
9.99441
11.3209
13.039
15.1974
17.8854
21.2097
25.3566
30.4806
36.8002
44.5632
54.2289
66.2038
81.8126
101.18
129.138
163.545
220.059
280.245
370.897
427.606
8.84385
9.14226
9.99428
11.3207
13.0387
15.1969
17.8847
21.2086
25.355
30.478
36.7962
44.5564
54.2183
66.1874
81.7919
101.151
129.145
163.434
219.993
279.571
369.973
425.397
8.84376
9.14215
9.99414
11.3205
13.0384
15.1965
17.884
21.2074
25.3532
30.4751
36.7918
44.5491
54.2069
66.1729
81.7848
101.163
129.252
163.424
220.022
278.87
368.954
422.949
8.84366
9.14204
9.99399
11.3202
13.038
15.196
17.8832
21.2061
25.3513
30.472
36.7869
44.5412
54.1956
66.1654
81.8074
101.244
129.504
163.557
220.118
278.12
367.829
420.248
8.84355
9.14191
9.99383
11.32
13.0376
15.1954
17.8824
21.2047
25.3492
30.4687
36.7818
44.5327
54.1859
66.1738
81.8781
101.418
129.924
163.834
220.217
277.298
366.589
417.283
8.84343
9.14178
9.99366
11.3197
13.0373
15.1948
17.8815
21.2032
25.347
30.4652
36.7762
44.5239
54.181
66.209
82.0114
101.693
130.489
164.202
220.245
276.376
365.225
414.038
8.8433
9.14164
9.99347
11.3194
13.0368
15.1942
17.8805
21.2016
25.3446
30.4614
36.7703
44.5154
54.1864
66.28
82.2102
102.056
131.127
164.561
220.142
275.336
363.731
410.5
8.84317
9.14148
9.99328
11.3191
13.0364
15.1935
17.8795
21.1999
25.3421
30.4573
36.7639
44.5083
54.2088
66.3903
82.4652
102.472
131.731
164.801
219.88
274.167
362.1
406.653
8.84303
9.14132
9.99307
11.3188
13.0359
15.1928
17.8785
21.1982
25.3394
30.453
36.757
44.5048
54.2538
66.5355
82.7546
102.887
132.185
164.848
219.461
272.866
360.328
402.483
8.84288
9.14116
9.99285
11.3185
13.0354
15.192
17.8773
21.1963
25.3366
30.4485
36.7499
44.5084
54.3228
66.7051
83.0484
103.241
132.402
164.69
218.909
271.437
358.413
397.975
8.84272
9.14098
9.99262
11.3182
13.0349
15.1913
17.8761
21.1943
25.3336
30.4437
36.7428
44.5231
54.4126
66.8845
83.3128
103.482
132.354
164.365
218.255
269.886
356.355
393.112
8.84256
9.14079
9.99238
11.3178
13.0343
15.1904
17.8749
21.1922
25.3305
30.4386
36.7361
44.5518
54.516
67.0583
83.518
103.58
132.074
163.936
217.527
268.222
354.153
387.877
8.84238
9.1406
9.99212
11.3174
13.0338
15.1896
17.8736
21.19
25.3272
30.4333
36.7308
44.5945
54.6244
67.2114
83.6434
103.534
131.638
163.459
216.743
266.454
351.809
382.253
8.8422
9.14039
9.99186
11.317
13.0332
15.1887
17.8722
21.1878
25.3238
30.4276
36.7286
44.6486
54.7296
67.3326
83.6836
103.367
131.133
162.967
215.913
264.59
349.326
376.221
8.84201
9.14018
9.99158
11.3166
13.0325
15.1877
17.8708
21.1854
25.3202
30.4217
36.7314
44.7098
54.825
67.4141
83.6455
103.119
130.625
162.47
215.042
262.64
346.705
369.763
8.84182
9.13996
9.99129
11.3161
13.0319
15.1867
17.8693
21.1829
25.3164
30.4156
36.7408
44.7733
54.9055
67.4545
83.5471
102.829
130.15
161.967
214.131
260.615
343.95
362.856
8.84161
9.13973
9.99099
11.3157
13.0312
15.1857
17.8677
21.1803
25.3125
30.4093
36.7572
44.8348
54.968
67.4562
83.4082
102.53
129.718
161.451
213.18
258.522
341.063
355.479
8.8414
9.13949
9.99068
11.3152
13.0305
15.1846
17.8661
21.1777
25.3084
30.4031
36.7802
44.891
55.0112
67.4262
83.2484
102.241
129.322
160.916
212.188
256.372
338.045
347.607
8.84118
9.13924
9.99036
11.3147
13.0298
15.1835
17.8644
21.1749
25.3041
30.3971
36.8079
44.9398
55.0353
67.3718
83.0812
101.969
128.951
160.36
211.155
254.169
334.897
339.214
8.84095
9.13898
9.99002
11.3142
13.029
15.1824
17.8627
21.172
25.2997
30.3914
36.838
44.9797
55.0419
67.3011
82.916
101.715
128.593
159.782
210.079
251.92
331.616
330.272
8.84072
9.13872
9.98967
11.3137
13.0282
15.1812
17.8609
21.169
25.2951
30.3863
36.8687
45.01
55.0333
67.2199
82.7563
101.476
128.241
159.181
208.962
249.625
328.199
320.75
8.84048
9.13844
9.98931
11.3132
13.0274
15.18
17.8591
21.1659
25.2903
30.3822
36.8987
45.0307
55.0122
67.1336
82.604
101.247
127.888
158.559
207.803
247.286
324.637
310.615
8.84022
9.13816
9.98894
11.3126
13.0266
15.1787
17.8571
21.1627
25.2854
30.3794
36.9267
45.0422
54.9814
67.0448
82.4581
101.026
127.532
157.918
206.603
244.902
320.923
299.832
8.83997
9.13786
9.98856
11.312
13.0257
15.1774
17.8552
21.1594
25.2803
30.3784
36.952
45.0452
54.9434
66.956
82.3179
100.808
127.171
157.258
205.361
242.472
317.045
288.364
8.8397
9.13756
9.98817
11.3114
13.0248
15.1761
17.8532
21.156
25.275
30.3796
36.9741
45.0408
54.9002
66.8676
82.1813
100.592
126.804
156.581
204.079
239.996
312.992
276.172
8.83942
9.13725
9.98776
11.3108
13.0239
15.1747
17.8511
21.1525
25.2696
30.3836
36.9929
45.03
54.8535
66.7807
82.0478
100.375
126.431
155.889
202.757
237.476
308.751
263.213
8.83914
9.13693
9.98734
11.3102
13.023
15.1733
17.8489
21.1489
25.2641
30.3914
37.0086
45.0141
54.8046
66.6949
81.9156
100.157
126.051
155.183
201.396
234.914
304.311
249.445
8.83885
9.13661
9.98691
11.3095
13.022
15.1718
17.8467
21.1452
25.2588
30.4047
37.0216
44.9941
54.7543
66.6107
81.7846
99.9377
125.665
154.462
199.997
232.315
299.662
234.821
8.83855
9.13627
9.98647
11.3089
13.021
15.1703
17.8444
21.1414
25.2551
30.4247
37.0323
44.9711
54.7033
66.5276
81.6537
99.716
125.274
153.73
198.562
229.684
294.797
219.291
8.83825
9.13592
9.98602
11.3082
13.02
15.1688
17.8421
21.1374
25.2563
30.4517
37.041
44.9459
54.652
66.4461
81.523
99.4921
124.878
152.985
197.094
227.026
289.709
202.803
8.83794
9.13557
9.98555
11.3075
13.019
15.1672
17.8397
21.1333
25.2676
30.4857
37.048
44.9192
54.6007
66.3658
81.3919
99.2663
124.478
152.229
195.597
224.347
284.398
185.303
8.83761
9.13521
9.98508
11.3068
13.0179
15.1656
17.8373
21.1294
25.2942
30.5262
37.053
44.8917
54.5493
66.2875
81.2609
99.0388
124.073
151.462
194.074
221.647
278.861
166.743
8.83729
9.13483
9.98459
11.3061
13.0168
15.1639
17.8347
21.1266
25.3391
30.5719
37.0559
44.8641
54.4978
66.2106
81.1296
98.8103
123.665
150.683
192.531
218.925
273.073
147.037
8.83695
9.13445
9.98409
11.3053
13.0157
15.1622
17.8321
21.1289
25.4016
30.6208
37.0564
44.837
54.4461
66.136
80.9989
98.581
123.254
149.888
190.974
216.168
266.953
125.442
-19.7965
-22.3126
-23.3476
-21.9344
-18.4592
-16.5308
-14.8576
-14.0519
-13.2981
-12.0643
-9.95775
-7.48321
-4.743
-1.89184
1.6705
4.68736
6.25041
7.71961
10.3632
13.1642
13.8814
12.7478
11.4897
9.33193
7.5779
6.13769
5.31494
4.47561
2.15191
0.879319
-2.05551
-2.74225
6.51032
2.58389
1.16332
-19.7975
-22.2969
-23.3739
-21.9366
-18.4587
-16.5289
-14.8576
-14.0512
-13.2971
-12.0631
-9.95679
-7.48281
-4.74145
-1.88901
1.67546
4.69594
6.26203
7.72999
10.3688
13.1673
13.8843
12.7505
11.4923
9.3343
7.57992
6.13947
5.31654
4.47619
2.15391
0.882171
-2.05049
-2.779
6.50688
2.5846
1.16347
-19.7987
-22.2833
-23.4151
-21.9405
-18.4582
-16.5265
-14.8574
-14.0504
-13.2964
-12.0622
-9.95612
-7.48168
-4.7386
-1.88418
1.68457
4.7128
6.2877
7.75846
10.3897
13.1784
13.8909
12.756
11.4971
9.33845
7.58339
6.14254
5.31929
4.47771
2.15682
0.885349
-2.04734
-2.81422
6.5036
2.58536
1.16363
-19.8003
-22.2786
-23.4699
-21.9465
-18.4587
-16.5238
-14.8567
-14.0494
-13.2958
-12.0613
-9.95562
-7.48018
-4.73502
-1.8787
1.69475
4.73272
6.32103
7.80041
10.4249
13.1978
13.9017
12.7645
11.5044
9.34479
7.58868
6.14709
5.32338
4.48037
2.15968
0.890884
-2.04182
-2.84152
6.50024
2.58615
1.16378
-19.8025
-22.2872
-23.5352
-21.9542
-18.459
-16.5205
-14.8551
-14.0484
-13.2953
-12.0607
-9.95549
-7.479
-4.7318
-1.87432
1.70265
4.74914
6.35058
7.8411
10.4632
13.2208
13.9152
12.7754
11.5139
9.35306
7.59565
6.15305
5.32872
4.48411
2.1628
0.899579
-2.03347
-2.8592
6.49702
2.58696
1.16393
-19.8052
-22.3137
-23.6076
-21.9628
-18.458
-16.516
-14.8523
-14.0474
-13.2951
-12.0604
-9.95586
-7.47825
-4.72915
-1.87101
1.70812
4.76085
6.37263
7.87364
10.4971
13.2439
13.9301
12.7876
11.5247
9.36275
7.60401
6.16024
5.33515
4.48876
2.16628
0.91151
-2.02093
-2.86745
6.49399
2.58781
1.16406
-19.808
-22.3618
-23.6843
-21.9715
-18.4551
-16.51
-14.8482
-14.0465
-13.2952
-12.0607
-9.95679
-7.47781
-4.72669
-1.86777
1.71264
4.76944
6.38843
7.89775
10.5246
13.265
13.9452
12.8003
11.5361
9.37319
7.61331
6.16839
5.34245
4.49414
2.17007
0.92637
-2.00286
-2.86669
6.49116
2.58869
1.16418
-19.8111
-22.4341
-23.762
-21.9801
-18.4508
-16.503
-14.843
-14.0459
-13.2957
-12.0617
-9.95824
-7.47752
-4.72403
-1.86378
1.7175
4.77657
6.40013
7.91548
10.5462
13.2836
13.9595
12.8124
11.5471
9.38358
7.62294
6.17711
5.35038
4.50006
2.17407
0.943665
-1.97894
-2.85716
6.48851
2.58961
1.16429
-19.8143
-22.5315
-23.8382
-21.9889
-18.4455
-16.4955
-14.8372
-14.0455
-13.2966
-12.0635
-9.96025
-7.47733
-4.72111
-1.85897
1.7231
4.78304
6.40914
7.92863
10.5629
13.2993
13.9724
12.8232
11.5568
9.39307
7.63219
6.1859
5.35861
4.5063
2.17818
0.962804
-1.94979
-2.83909
6.48603
2.59056
1.16437
-19.8175
-22.6534
-23.9104
-21.9982
-18.4398
-16.4881
-14.8311
-14.0455
-13.2979
-12.066
-9.96269
-7.47726
-4.71812
-1.85374
1.72913
4.78882
6.41594
7.93816
10.5752
13.3117
13.9827
12.8317
11.5645
9.40088
7.64029
6.19415
5.36673
4.51259
2.18233
0.983065
-1.91668
-2.81259
6.48373
2.59156
1.16445
-19.8207
-22.7976
-23.9766
-22.0081
-18.4342
-16.4814
-14.8253
-14.0458
-13.2998
-12.0694
-9.96563
-7.47739
-4.71531
-1.84864
1.73498
4.79362
6.42059
7.94435
10.5834
13.3201
13.9898
12.8372
11.5696
9.40642
7.6466
6.20126
5.37427
4.51862
2.18641
1.00371
-1.88116
-2.77787
6.48161
2.59259
1.1645
-19.8239
-22.96
-24.0354
-22.0187
-18.429
-16.4758
-14.8202
-14.0467
-13.3023
-12.0736
-9.96898
-7.4778
-4.71289
-1.84412
1.74008
4.79713
6.42316
7.94749
10.5874
13.3242
13.9931
12.8395
11.5717
9.40938
7.65071
6.20673
5.38078
4.52405
2.19033
1.02407
-1.8449
-2.73506
6.47971
2.59367
1.16452
-19.8272
-23.1348
-24.0861
-22.03
-18.4244
-16.4716
-14.8162
-14.0482
-13.3055
-12.0787
-9.97283
-7.4786
-4.71103
-1.84044
1.74407
4.79923
6.4239
7.94805
10.588
13.3242
13.9926
12.8384
11.571
9.40983
7.65254
6.2103
5.38588
4.52855
2.194
1.0437
-1.80956
-2.68448
6.47808
2.59479
1.16453
-19.8307
-23.3147
-24.1287
-22.0414
-18.4208
-16.4691
-14.8135
-14.0503
-13.3094
-12.0846
-9.97715
-7.47987
-4.70976
-1.83768
1.74681
4.8
6.42322
7.94677
10.5859
13.321
13.9887
12.8345
11.5678
9.40811
7.65235
6.21202
5.38939
4.53182
2.19733
1.06244
-1.77678
-2.62649
6.4768
2.59595
1.16451
-19.8346
-23.4913
-24.1636
-22.0524
-18.4185
-16.4683
-14.8124
-14.0534
-13.3142
-12.0916
-9.98212
-7.48166
-4.7091
-1.83579
1.74841
4.79967
6.42153
7.94434
10.5821
13.3153
13.9822
12.8282
11.5626
9.40475
7.65058
6.21218
5.39136
4.53373
2.20028
1.08044
-1.74804
-2.56194
6.47597
2.59714
1.16447
-19.8392
-23.656
-24.1917
-22.0622
-18.4174
-16.4696
-14.8131
-14.0575
-13.32
-12.0996
-9.98781
-7.48404
-4.70901
-1.83462
1.74905
4.79846
6.41918
7.94129
10.5774
13.3081
13.9737
12.82
11.5559
9.40023
7.64776
6.21122
5.39206
4.53432
2.20282
1.09803
-1.72442
-2.49217
6.47572
2.59838
1.1644
-19.8445
-23.8014
-24.2141
-22.0697
-18.4179
-16.4732
-14.8156
-14.0629
-13.3271
-12.1089
-9.99446
-7.48708
-4.70947
-1.83397
1.74903
4.79664
6.41642
7.93796
10.5722
13.2997
13.9637
12.8105
11.548
9.39491
7.64432
6.20956
5.39185
4.5338
2.20498
1.11558
-1.70631
-2.41939
6.47617
2.59964
1.1643
-19.8506
-23.9225
-24.2321
-22.0738
-18.4204
-16.4792
-14.8203
-14.0698
-13.3356
-12.1196
-10.0022
-7.49091
-4.71048
-1.8337
1.74855
4.79435
6.41334
7.93448
10.5667
13.2904
13.9524
12.7996
11.539
9.38897
7.64051
6.20752
5.39108
4.53245
2.20681
1.13335
-1.69332
-2.34635
6.47743
2.60094
1.16418
-19.8573
-24.0173
-24.2472
-22.0742
-18.4247
-16.4877
-14.8274
-14.0786
-13.3461
-12.1321
-10.0115
-7.49577
-4.71214
-1.8337
1.74783
4.7917
6.40997
7.93085
10.5609
13.2801
13.9397
12.7875
11.5291
9.38249
7.63645
6.20527
5.38999
4.53054
2.20844
1.15146
-1.68451
-2.27615
6.47953
2.60225
1.16403
-19.8646
-24.0872
-24.2609
-22.0716
-18.4305
-16.4989
-14.8371
-14.0898
-13.3588
-12.1468
-10.0229
-7.50202
-4.71463
-1.83399
1.74692
4.78868
6.4062
7.92698
10.5545
13.2688
13.9256
12.7742
11.5182
9.37549
7.63216
6.20288
5.38875
4.52824
2.20996
1.16991
-1.6788
-2.21117
6.48243
2.60359
1.16384
-19.8723
-24.1375
-24.273
-22.0672
-18.4374
-16.5129
-14.8501
-14.1041
-13.3746
-12.1643
-10.037
-7.51026
-4.71833
-1.83471
1.74584
4.78524
6.40195
7.92273
10.5476
13.2561
13.91
12.7596
11.5063
9.36799
7.62764
6.20037
5.38742
4.52571
2.21148
1.18871
-1.67523
-2.15276
6.48605
2.60493
1.16363
-19.8801
-24.1749
-24.2816
-22.0624
-18.4446
-16.5299
-14.8668
-14.1221
-13.3942
-12.1855
-10.0548
-7.52127
-4.72382
-1.8362
1.74443
4.7812
6.39704
7.91797
10.5399
13.2421
13.8928
12.7437
11.4936
9.36002
7.62287
6.19771
5.38605
4.52304
2.21307
1.20784
-1.67309
-2.10073
6.49025
2.6063
1.16338
-19.8873
-24.2048
-24.2845
-22.0584
-18.4519
-16.55
-14.8879
-14.1451
-13.4186
-12.2112
-10.0775
-7.53606
-4.73199
-1.83904
1.74244
4.77643
6.39133
7.91253
10.5314
13.2268
13.874
12.7266
11.48
9.35161
7.61787
6.19491
5.38464
4.52027
2.21477
1.22727
-1.67184
-2.05399
6.4949
2.60765
1.16311
-19.8934
-24.2312
-24.2792
-22.0561
-18.4586
-16.5735
-14.9139
-14.1738
-13.4489
-12.2424
-10.1058
-7.55561
-4.7439
-1.84416
1.73937
4.77065
6.38462
7.90625
10.5218
13.21
13.8537
12.7083
11.4656
9.34281
7.61264
6.19197
5.38318
4.51743
2.21661
1.24691
-1.67115
-2.01072
6.49991
2.60901
1.1628
-19.8976
-24.2578
-24.2619
-22.056
-18.4645
-16.6008
-14.9459
-14.2093
-13.4861
-12.28
-10.1404
-7.58064
-4.76052
-1.85273
1.73457
4.7636
6.37676
7.89895
10.5111
13.1918
13.832
12.6889
11.4504
9.33365
7.60721
6.18889
5.38169
4.51453
2.21859
1.26666
-1.67078
-1.96927
6.5052
2.61035
1.16245
-19.8994
-24.2883
-24.229
-22.0577
-18.4694
-16.6323
-14.9846
-14.2526
-13.5312
-12.3244
-10.181
-7.61113
-4.78218
-1.86587
1.72702
4.75477
6.36751
7.89045
10.4991
13.1721
13.8088
12.6685
11.4346
9.32419
7.6016
6.18571
5.38014
4.51155
2.22069
1.28632
-1.67057
-1.92795
6.51077
2.61168
1.16207
-19.8987
-24.3264
-24.1785
-22.0601
-18.473
-16.6683
-15.0306
-14.3039
-13.5846
-12.3757
-10.227
-7.6462
-4.80823
-1.88394
1.71585
4.74366
6.35664
7.88054
10.4856
13.1509
13.7844
12.6473
11.4183
9.31446
7.59586
6.18244
5.37853
4.5085
2.2229
1.30572
-1.67042
-1.88568
6.51663
2.61299
1.16166
-19.8958
-24.3761
-24.1112
-22.0611
-18.4752
-16.7085
-15.0832
-14.3624
-13.6454
-12.4324
-10.2758
-7.68385
-4.83687
-1.90609
1.70048
4.7296
6.34379
7.86906
10.4703
13.1281
13.7587
12.6252
11.4014
9.30452
7.59
6.17911
5.37686
4.50536
2.22517
1.32459
-1.67028
-1.84141
6.52281
2.61429
1.16121
-19.8911
-24.4411
-24.0306
-22.0579
-18.4758
-16.7518
-15.1409
-14.4263
-13.712
-12.4929
-10.3251
-7.72133
-4.86549
-1.93012
1.68142
4.71223
6.32869
7.85579
10.4532
13.1036
13.7319
12.6024
11.3841
9.29441
7.58408
6.17574
5.37511
4.50214
2.22748
1.34273
-1.67009
-1.79462
6.52937
2.61554
1.16072
-19.8853
-24.5254
-23.9419
-22.0474
-18.4748
-16.7962
-15.1998
-14.4912
-13.7807
-12.5532
-10.3708
-7.7553
-4.8912
-1.95322
1.66003
4.69154
6.31107
7.84063
10.434
13.0771
13.7038
12.5789
11.3665
9.28417
7.57814
6.17235
5.37326
4.4988
2.22977
1.35979
-1.66986
-1.74466
6.53636
2.61679
1.16019
-19.879
-24.6334
-23.8508
-22.0268
-18.4728
-16.8384
-15.2547
-14.5521
-13.8467
-12.6096
-10.4096
-7.78257
-4.91139
-1.97285
1.63826
4.66823
6.29102
7.82352
10.4128
13.0485
13.6745
12.5548
11.3485
9.27385
7.57221
6.16894
5.37131
4.49536
2.23203
1.37551
-1.66956
-1.69137
6.54385
2.61798
1.15962
-19.8727
-24.7709
-23.7628
-21.9943
-18.4706
-16.8743
-15.2992
-14.6022
-13.9044
-12.6572
-10.4374
-7.80037
-4.92421
-1.98749
1.61756
4.64315
6.26887
7.80466
10.3896
13.0178
13.6438
12.5301
11.3302
9.26349
7.56633
6.16555
5.36924
4.49178
2.23419
1.38945
-1.66925
-1.63431
6.55189
2.61916
1.15901
-19.8665
-24.9456
-23.6817
-21.9502
-18.4692
-16.8996
-15.3268
-14.6356
-13.9485
-12.6924
-10.4522
-7.80714
-4.92909
-1.99697
1.59872
4.61736
6.24525
7.78436
10.3647
12.9849
13.6117
12.5048
11.3117
9.25314
7.56053
6.16218
5.36704
4.48806
2.23625
1.40128
-1.66889
-1.57351
6.56054
2.62029
1.15836
-19.8605
-25.1685
-23.6095
-21.8981
-18.47
-16.9101
-15.3321
-14.6472
-13.9747
-12.712
-10.4525
-7.80269
-4.92696
-2.0024
1.58154
4.59138
6.22077
7.76309
10.3385
12.95
13.5781
12.479
11.293
9.24285
7.55486
6.15884
5.36469
4.48413
2.23813
1.41043
-1.66856
-1.50864
6.56986
2.6214
1.15767
-19.854
-25.4533
-23.5452
-21.8445
-18.4741
-16.9032
-15.3127
-14.6352
-13.9813
-12.7155
-10.4395
-7.7887
-4.92027
-2.00561
1.56554
4.56563
6.196
7.74124
10.3113
12.9134
13.5431
12.4525
11.2742
9.23266
7.54935
6.15554
5.36219
4.48003
2.23983
1.41651
-1.66824
-1.43986
6.57989
2.62245
1.15694
-19.8457
-25.8168
-23.4857
-21.7978
-18.4825
-16.8789
-15.2693
-14.6004
-13.969
-12.7039
-10.4154
-7.76854
-4.9124
-2.00846
1.54997
4.53997
6.17115
7.71917
10.2837
12.8755
13.5069
12.4255
11.2553
9.22264
7.54404
6.15229
5.35951
4.47566
2.24127
1.41883
-1.66799
-1.36687
6.59068
2.62348
1.15616
-19.8333
-26.2761
-23.4259
-21.7655
-18.4954
-16.8394
-15.2059
-14.5473
-13.9409
-12.6802
-10.3846
-7.74704
-4.90646
-2.0121
1.53442
4.51435
6.14635
7.69697
10.2558
12.8368
13.4696
12.3981
11.2364
9.21281
7.53896
6.14909
5.35664
4.47104
2.24241
1.41694
-1.66781
-1.28988
6.60227
2.62445
1.15533
-19.8143
-26.8426
-23.3598
-21.7527
-18.5126
-16.7888
-15.1291
-14.4819
-13.9014
-12.6479
-10.3524
-7.72896
-4.90408
-2.01701
1.51837
4.48833
6.12134
7.67466
10.2278
12.7978
13.4317
12.3703
11.2175
9.20325
7.53413
6.14597
5.35356
4.46606
2.24318
1.41004
-1.66779
-1.20854
6.61473
2.62539
1.15446
-19.7869
-27.5083
-23.2808
-21.7608
-18.5334
-16.7322
-15.0458
-14.4112
-13.8551
-12.6114
-10.3244
-7.71716
-4.90527
-2.02321
1.5016
4.46165
6.09598
7.65217
10.1997
12.7586
13.3936
12.3424
11.1987
9.19396
7.52955
6.14288
5.35024
4.46079
2.24353
1.39759
-1.66793
-1.12292
6.6281
2.62625
1.15353
-19.7505
-28.2274
-23.1819
-21.7885
-18.5567
-16.6738
-14.9627
-14.3405
-13.8053
-12.5761
-10.3045
-7.71157
-4.9092
-2.03071
1.48359
4.43378
6.07002
7.62963
10.1718
12.7196
13.3555
12.3145
11.1801
9.18495
7.52523
6.13987
5.3467
4.45511
2.24324
1.37861
-1.66816
-1.03251
6.64244
2.62707
1.15255
-19.6984
-28.9
-23.0562
-21.8318
-18.5809
-16.6171
-14.8843
-14.2728
-13.7564
-12.5477
-10.2933
-7.71048
-4.91511
-2.03956
1.46408
4.40469
6.04384
7.60737
10.144
12.6806
13.3175
12.2865
11.1615
9.17617
7.52118
6.13699
5.34298
4.44911
2.24208
1.35287
-1.66825
-0.937903
6.65763
2.62781
1.15151
-19.6068
-29.3713
-22.8974
-21.8851
-18.6032
-16.5635
-14.8131
-14.2103
-13.7145
-12.5289
-10.2881
-7.71207
-4.92243
-2.04983
1.44288
4.37478
6.01822
7.58589
10.1161
12.6412
13.2793
12.2585
11.143
9.16768
7.51756
6.13443
5.33915
4.44255
2.24002
1.32064
-1.66881
-0.841152
6.67336
2.62854
1.15043
-19.4805
-29.4584
-22.6996
-21.9417
-18.6198
-16.5129
-14.7492
-14.1571
-13.6852
-12.5178
-10.2862
-7.71528
-4.93062
-2.06112
1.42111
4.34596
5.99442
7.56469
10.0864
12.5999
13.2401
12.2302
11.1248
9.1598
7.51472
6.13239
5.33511
4.43534
2.23762
1.28315
-1.67138
-0.745094
6.68967
2.62926
1.14931
-19.5685
-29.0214
-22.4545
-21.9976
-18.631
-16.4664
-14.6936
-14.1188
-13.6678
-12.5116
-10.2867
-7.71978
-4.9393
-2.07284
1.3999
4.31919
5.97183
7.54161
10.0527
12.5556
13.2003
12.2031
11.1085
9.15374
7.51327
6.13058
5.32986
4.42656
2.23295
1.22953
-1.67467
-0.629958
6.71108
2.62967
1.14795
8.83668
9.13415
9.98369
11.3047
13.0148
15.1609
17.83
21.1451
25.4609
30.6585
37.0544
44.8165
54.4066
66.0788
80.898
98.4033
122.935
149.257
189.761
213.985
261.897
103.734
8.83648
9.13393
9.9834
11.3043
13.0141
15.1599
17.8285
21.1704
25.5043
30.6817
37.0502
44.8019
54.3789
66.0382
80.8265
98.2752
122.704
148.793
188.884
212.399
258.035
100.795
8.83628
9.13369
9.98309
11.3038
13.0134
15.1588
17.8269
21.202
25.5418
30.699
37.0435
44.7864
54.3511
65.9964
80.7535
98.1434
122.464
148.311
187.985
210.753
254.014
102.468
8.83606
9.13344
9.98276
11.3033
13.0127
15.1577
17.8251
21.2338
25.5726
30.7112
37.0354
44.7703
54.3232
65.9541
80.6794
98.0067
122.215
147.809
187.062
209.038
249.88
102.351
8.83583
9.13318
9.98242
11.3028
13.0119
15.1565
17.8233
21.2617
25.5974
30.7192
37.027
44.754
54.2955
65.9107
80.6034
97.8648
121.954
147.285
186.11
207.255
245.621
100.55
8.83558
9.1329
9.98206
11.3023
13.0111
15.1553
17.8215
21.2808
25.6165
30.7239
37.0189
44.7377
54.2682
65.867
80.5259
97.7168
121.679
146.74
185.123
205.406
241.234
98.495
8.83533
9.13261
9.98167
11.3017
13.0103
15.154
17.8194
21.2881
25.6303
30.7259
37.0116
44.7218
54.2416
65.8221
80.446
97.5625
121.39
146.171
184.096
203.492
236.723
96.5818
8.83505
9.1323
9.98127
11.3011
13.0094
15.1526
17.8173
21.2839
25.6389
30.7256
37.0052
44.7063
54.2156
65.7769
80.3645
97.4014
121.083
145.578
183.022
201.513
232.094
94.6474
8.83477
9.13198
9.98084
11.3005
13.0084
15.1511
17.8151
21.2711
25.6427
30.7235
36.9998
44.6914
54.1904
65.7306
80.2802
97.2332
120.758
144.959
181.895
199.47
227.351
92.5933
8.83447
9.13164
9.98039
11.2998
13.0074
15.1495
17.8127
21.2524
25.6417
30.7198
36.9954
44.6773
54.1658
65.684
80.1938
97.0576
120.414
144.312
180.709
197.362
222.498
90.444
8.83415
9.13128
9.97992
11.2991
13.0064
15.1479
17.8102
21.2296
25.6356
30.7144
36.9918
44.6638
54.1418
65.6361
80.1044
96.8746
120.05
143.636
179.459
195.189
217.54
88.2343
8.83381
9.13089
9.97942
11.2984
13.0052
15.1461
17.8076
21.204
25.624
30.7073
36.9888
44.6511
54.1183
65.5876
80.0123
96.6837
119.664
142.929
178.139
192.95
212.481
85.9752
8.83345
9.13049
9.97888
11.2976
13.004
15.1443
17.8048
21.1773
25.6065
30.6982
36.986
44.639
54.0951
65.5375
79.9166
96.485
119.259
142.19
176.745
190.643
207.327
83.6707
8.83308
9.13006
9.97832
11.2967
13.0028
15.1423
17.8018
21.1507
25.5822
30.6865
36.9829
44.6275
54.072
65.4864
79.8176
96.2779
118.831
141.417
175.274
188.266
202.084
81.3294
8.83268
9.12961
9.97773
11.2958
13.0015
15.1402
17.7986
21.1259
25.5507
30.6714
36.9789
44.6165
54.049
65.4333
79.7143
96.0622
118.383
140.608
173.722
185.82
196.755
78.9637
8.83226
9.12913
9.9771
11.2949
13.0001
15.138
17.7953
21.1038
25.5115
30.6521
36.9732
44.6058
54.0258
65.3785
79.6068
95.8373
117.913
139.762
172.088
183.301
191.345
76.5865
8.83181
9.12863
9.97643
11.2939
12.9986
15.1357
17.7917
21.085
25.4649
30.6273
36.9647
44.595
54.0025
65.3211
79.4941
95.6026
117.42
138.878
170.369
180.708
185.859
74.2119
8.83134
9.12809
9.97572
11.2929
12.997
15.1332
17.788
21.0698
25.4116
30.5959
36.9519
44.5838
53.9787
65.2613
79.3762
95.3574
116.904
137.954
168.566
178.041
180.301
71.8537
8.83084
9.12752
9.97498
11.2918
12.9953
15.1306
17.784
21.0576
25.3538
30.5564
36.9332
44.5714
53.9545
65.1982
79.2519
95.1009
116.363
136.989
166.676
175.297
174.675
69.5248
8.83031
9.12692
9.97418
11.2906
12.9935
15.1278
17.7797
21.0478
25.294
30.508
36.9062
44.5566
53.9294
65.132
79.1211
94.8323
115.797
135.981
164.699
172.474
168.985
67.2354
8.82975
9.12628
9.97334
11.2893
12.9917
15.1248
17.7752
21.0393
25.2353
30.4502
36.8684
44.5379
53.9032
65.0617
78.9825
94.5506
115.204
134.93
162.635
169.572
163.236
64.9927
8.82915
9.1256
9.97245
11.288
12.9897
15.1217
17.7704
21.0315
25.1809
30.3838
36.8169
44.5126
53.8751
64.9877
78.836
94.2549
114.582
133.832
160.483
166.589
157.432
62.7996
8.82852
9.12488
9.9715
11.2866
12.9876
15.1184
17.7653
21.0237
25.1333
30.3107
36.7491
44.4772
53.8439
64.909
78.6802
93.9442
113.93
132.686
158.243
163.523
151.58
60.654
8.82785
9.12412
9.97049
11.2851
12.9853
15.1148
17.7598
21.0156
25.0934
30.2343
36.6634
44.4268
53.8073
64.8255
78.515
93.6172
113.246
131.491
155.914
160.373
145.686
58.5491
8.82713
9.12331
9.96942
11.2835
12.9829
15.1111
17.754
21.0071
25.061
30.1584
36.5602
44.3553
53.7615
64.736
78.3389
93.2732
112.529
130.244
153.496
157.137
139.76
56.4729
8.82638
9.12245
9.96828
11.2819
12.9804
15.1071
17.7479
20.998
25.0345
30.0866
36.4426
44.2564
53.7004
64.6394
78.1517
92.9109
111.777
128.943
150.988
153.813
133.81
54.409
8.82557
9.12154
9.96707
11.2801
12.9777
15.1029
17.7413
20.9883
25.012
30.0217
36.3165
44.125
53.615
64.5321
77.9517
92.5294
110.988
127.588
148.39
150.401
127.847
52.3375
8.82471
9.12056
9.96579
11.2782
12.9749
15.0984
17.7344
20.978
24.9917
29.9647
36.1891
43.9606
53.4929
64.4091
77.7376
92.1274
110.162
126.175
145.703
146.897
121.884
50.2361
8.8238
9.11953
9.96442
11.2762
12.9718
15.0936
17.727
20.9669
24.9721
29.915
36.0673
43.7685
53.3213
64.2605
77.5055
91.7036
109.298
124.703
142.925
143.3
115.932
48.0813
8.82283
9.11843
9.96296
11.274
12.9686
15.0886
17.7192
20.955
24.9524
29.8711
35.9559
43.5598
53.0906
64.0722
77.2498
91.2559
108.394
123.17
140.058
139.61
110.006
45.8498
8.8218
9.11726
9.96142
11.2717
12.9652
15.0832
17.7108
20.9424
24.9321
29.8309
35.8571
43.3488
52.8009
63.8252
76.9591
90.7807
107.449
121.575
137.103
135.825
104.12
43.52
8.82071
9.11602
9.95976
11.2693
12.9615
15.0775
17.7019
20.9289
24.9106
29.7924
35.7701
43.1484
52.4654
63.5018
76.6167
90.2718
106.462
119.916
134.061
131.945
98.2882
41.0728
8.81954
9.11469
9.95801
11.2667
12.9576
15.0714
17.6925
20.9146
24.8878
29.7538
35.6919
42.9665
52.1078
63.0929
76.1987
89.7183
105.43
118.192
130.932
127.971
92.5259
38.4931
8.81829
9.11328
9.95613
11.264
12.9535
15.065
17.6825
20.8993
24.8635
29.714
35.619
42.805
51.7548
62.6074
75.681
89.1032
104.348
116.401
127.72
123.903
86.8473
35.7707
8.81696
9.11177
9.95413
11.261
12.9491
15.0581
17.6718
20.883
24.8376
29.6723
35.5477
42.6607
51.427
62.0728
75.048
88.4038
103.206
114.542
124.426
119.745
81.2665
32.9006
8.81555
9.11017
9.952
11.2579
12.9444
15.0507
17.6604
20.8657
24.81
29.6282
35.4753
42.5274
51.133
61.5272
74.3057
87.5957
101.992
112.614
121.053
115.5
75.7972
29.8837
8.81404
9.10846
9.94973
11.2545
12.9393
15.0429
17.6483
20.8472
24.7807
29.5815
35.4
42.3986
50.8705
61.0045
73.4855
86.6625
100.688
110.614
117.607
111.174
70.4526
26.7272
8.81243
9.10663
9.94731
11.251
12.934
15.0346
17.6355
20.8275
24.7495
29.5317
35.3207
42.2688
50.6295
60.5236
72.6367
85.6064
99.2756
108.539
114.096
106.775
65.2455
23.4438
8.81071
9.10469
9.94472
11.2472
12.9283
15.0258
17.6217
20.8065
24.7163
29.4789
35.2368
42.1343
50.398
60.085
71.8069
84.4546
97.7437
106.39
110.531
102.314
60.1888
20.0521
8.80887
9.10261
9.94195
11.2431
12.9222
15.0163
17.6071
20.7841
24.6809
29.4227
35.1478
41.9928
50.1656
59.6757
71.0245
83.2524
96.0955
104.167
106.931
97.8059
55.2961
16.5756
8.80691
9.10039
9.939
11.2388
12.9157
15.0063
17.5916
20.7603
24.6432
29.363
35.0532
41.8432
49.925
59.2777
70.2924
82.0466
94.3524
101.876
103.32
93.2707
50.5824
13.0422
8.80482
9.09802
9.93585
11.2342
12.9088
14.9955
17.575
20.7348
24.603
29.2994
34.9527
41.6848
49.6721
58.8747
69.5928
80.8673
92.5487
99.5282
99.7307
88.7364
46.0646
9.48385
8.80258
9.09549
9.93248
11.2292
12.9013
14.9841
17.5573
20.7077
24.5603
29.2318
34.8459
41.5168
49.4051
58.4556
68.9
79.7193
90.7188
97.1361
96.1973
84.2384
41.7625
5.936
8.80018
9.09278
9.92887
11.224
12.8934
14.9718
17.5384
20.6787
24.5147
29.1598
34.7324
41.3385
49.1227
58.0144
68.1911
78.5865
88.885
94.7078
92.7493
79.8188
37.6979
2.4374
8.79763
9.08989
9.92502
11.2183
12.885
14.9588
17.5182
20.6478
24.4661
29.0832
34.6118
41.1494
48.8241
57.5488
67.4504
77.4428
87.0524
92.241
89.3989
75.5219
33.8933
-0.970639
8.79489
9.0868
9.9209
11.2123
12.8759
14.9449
17.4968
20.6149
24.4143
29.0016
34.4836
40.9487
48.5082
57.0577
66.6709
76.2633
85.2103
89.7256
86.1297
71.3851
30.3691
-4.24539
8.79196
9.08349
9.91649
11.2059
12.8663
14.93
17.4738
20.5797
24.3592
28.9148
34.3474
40.7357
48.1739
56.5398
65.851
75.0314
83.337
87.1533
82.8954
67.4257
27.139
-7.34461
8.78883
9.07995
9.91177
11.199
12.8559
14.9141
17.4494
20.5421
24.3003
28.8224
34.2026
40.5099
47.8202
55.9935
64.9909
73.7405
81.409
84.5209
79.6367
63.6289
24.203
-10.2295
8.78548
9.07616
9.90673
11.1916
12.8449
14.8972
17.4232
20.502
24.2376
28.7241
34.0487
40.2704
47.4461
55.4176
64.0901
72.3912
79.4109
81.826
76.3101
59.9445
21.5399
-12.8684
8.78188
9.07211
9.90132
11.1837
12.8331
14.879
17.3953
20.4592
24.1708
28.6194
33.8853
40.0164
47.0508
54.8108
63.1477