/*--------------------------------*- C++ -*----------------------------------*\
| =========                 |                                                 |
| \\      /  F ield         | OpenFOAM: The Open Source CFD Toolbox           |
|  \\    /   O peration     | Version:  v1912                                 |
|   \\  /    A nd           | Website:  www.openfoam.com                      |
|    \\/     M anipulation  |                                                 |
\*---------------------------------------------------------------------------*/
FoamFile
{
    version     2.0;
    format      ascii;
    class       surfaceScalarField;
    location    "380";
    object      phi;
}
// * * * * * * * * * * * * * * * * * * * * * * * * * * * * * * * * * * * * * //

dimensions      [0 3 -1 0 0 0 0];
oriented        oriented;


internalField   nonuniform List<scalar> 
24588
(
6.81683e-05
1.98311e-08
6.81148e-05
5.43134e-08
6.80305e-05
8.36639e-08
6.7916e-05
1.14476e-07
6.77666e-05
1.48684e-07
6.75788e-05
1.88047e-07
6.73454e-05
2.32722e-07
6.70524e-05
2.92304e-07
6.66896e-05
3.63162e-07
6.62354e-05
4.53456e-07
6.56731e-05
5.62663e-07
6.49828e-05
7.01116e-07
6.40645e-05
8.81146e-07
6.29435e-05
1.1626e-06
6.14803e-05
1.44869e-06
5.91662e-05
2.31909e-06
5.62597e-05
2.90484e-06
5.14797e-05
4.78047e-06
4.47965e-05
6.68326e-06
3.36111e-05
1.11852e-05
1.99641e-05
1.3647e-05
1.99641e-05
6.81686e-05
4.01984e-08
6.81146e-05
1.09344e-07
6.80304e-05
1.67067e-07
6.79161e-05
2.28717e-07
6.77667e-05
2.97096e-07
6.7579e-05
3.76038e-07
6.73455e-05
4.65392e-07
6.70528e-05
5.84115e-07
6.66902e-05
7.2617e-07
6.62355e-05
9.07346e-07
6.56753e-05
1.1233e-06
6.4985e-05
1.40369e-06
6.40536e-05
1.77144e-06
6.29482e-05
2.30906e-06
6.14811e-05
2.90074e-06
5.92383e-05
4.56657e-06
5.62784e-05
5.86178e-06
5.14487e-05
9.61082e-06
4.48412e-05
1.32908e-05
3.3514e-05
2.25121e-05
1.99256e-05
2.72355e-05
3.98897e-05
6.81685e-05
6.05784e-08
6.81146e-05
1.64386e-07
6.80304e-05
2.50511e-07
6.7916e-05
3.43001e-07
6.77666e-05
4.45558e-07
6.75788e-05
5.64068e-07
6.73453e-05
6.98126e-07
6.70527e-05
8.75935e-07
6.66901e-05
1.08912e-06
6.62354e-05
1.36123e-06
6.56749e-05
1.68428e-06
6.49863e-05
2.10485e-06
6.40541e-05
2.66043e-06
6.29459e-05
3.46597e-06
6.14742e-05
4.35571e-06
5.92671e-05
6.77974e-06
5.62736e-05
8.85155e-06
5.14686e-05
1.44168e-05
4.48171e-05
1.99422e-05
3.35352e-05
3.37936e-05
1.99459e-05
4.08248e-05
5.98357e-05
6.81686e-05
8.09392e-08
6.81147e-05
2.1936e-07
6.80304e-05
3.33903e-07
6.79161e-05
4.57236e-07
6.77667e-05
5.93933e-07
6.7579e-05
7.52018e-07
6.73455e-05
9.30793e-07
6.70529e-05
1.16781e-06
6.66902e-05
1.45218e-06
6.62355e-05
1.81516e-06
6.56749e-05
2.24535e-06
6.49841e-05
2.80787e-06
6.40538e-05
3.55009e-06
6.29464e-05
4.61279e-06
6.14734e-05
5.81438e-06
5.92903e-05
8.9674e-06
5.62991e-05
1.18396e-05
5.14841e-05
1.92325e-05
4.48067e-05
2.66195e-05
3.35643e-05
4.50357e-05
1.998e-05
5.44092e-05
7.98157e-05
6.81685e-05
1.01308e-07
6.81146e-05
2.74332e-07
6.80304e-05
4.17334e-07
6.7916e-05
5.71525e-07
6.77666e-05
7.42363e-07
6.75789e-05
9.40014e-07
6.73454e-05
1.16354e-06
6.70527e-05
1.45967e-06
6.66901e-05
1.81519e-06
6.62354e-05
2.26909e-06
6.56747e-05
2.80648e-06
6.49863e-05
3.50862e-06
6.40551e-05
4.43783e-06
6.29459e-05
5.77085e-06
6.14695e-05
7.27378e-06
5.92951e-05
1.11478e-05
5.6322e-05
1.48089e-05
5.14852e-05
2.40705e-05
4.48249e-05
3.32798e-05
3.36103e-05
5.625e-05
2.00286e-05
6.79908e-05
9.98443e-05
6.81686e-05
1.21658e-07
6.81147e-05
3.29242e-07
6.80305e-05
5.00698e-07
6.79162e-05
6.85743e-07
6.77668e-05
8.90673e-07
6.75792e-05
1.12791e-06
6.73457e-05
1.39618e-06
6.7053e-05
1.75159e-06
6.66902e-05
2.17832e-06
6.62355e-05
2.72303e-06
6.56748e-05
3.36768e-06
6.49834e-05
4.21211e-06
6.40542e-05
5.32762e-06
6.29456e-05
6.9166e-06
6.14683e-05
8.73753e-06
5.92979e-05
1.33225e-05
5.63395e-05
1.77642e-05
5.14967e-05
2.89139e-05
4.48566e-05
3.99197e-05
3.36761e-05
6.74302e-05
2.0094e-05
8.15729e-05
0.000119938
6.81685e-05
1.42021e-07
6.81147e-05
3.84154e-07
6.80304e-05
5.84112e-07
6.79161e-05
8.0003e-07
6.77667e-05
1.03905e-06
6.7579e-05
1.31586e-06
6.73455e-05
1.6289e-06
6.70529e-05
2.04347e-06
6.66902e-05
2.54137e-06
6.62355e-05
3.17697e-06
6.56749e-05
3.92868e-06
6.49867e-05
4.91221e-06
6.40563e-05
6.21484e-06
6.2946e-05
8.07632e-06
6.1466e-05
1.02001e-05
5.92889e-05
1.55055e-05
5.63527e-05
2.06974e-05
5.15167e-05
3.3751e-05
4.49044e-05
4.65321e-05
3.37689e-05
7.85654e-05
2.0179e-05
9.51627e-05
0.000140117
6.81686e-05
1.62363e-07
6.81147e-05
4.39005e-07
6.80305e-05
6.67451e-07
6.79162e-05
9.14228e-07
6.77669e-05
1.18728e-06
6.75793e-05
1.5037e-06
6.73458e-05
1.86151e-06
6.70531e-05
2.3354e-06
6.66904e-05
2.90454e-06
6.62357e-05
3.63085e-06
6.56751e-05
4.48983e-06
6.49829e-05
5.61631e-06
6.40544e-05
7.10587e-06
6.29445e-05
9.22071e-06
6.14572e-05
1.1674e-05
5.92771e-05
1.76891e-05
5.63715e-05
2.36006e-05
5.15644e-05
3.85585e-05
4.49853e-05
5.31111e-05
3.38999e-05
8.96506e-05
2.02876e-05
0.000108775
0.000160405
6.81685e-05
1.82719e-07
6.81147e-05
4.93863e-07
6.80304e-05
7.50851e-07
6.79161e-05
1.02851e-06
6.77668e-05
1.3356e-06
6.75791e-05
1.69161e-06
6.73456e-05
2.09421e-06
6.7053e-05
2.62727e-06
6.66903e-05
3.2676e-06
6.62357e-05
4.08477e-06
6.56753e-05
5.05058e-06
6.49876e-05
6.31533e-06
6.40568e-05
7.99336e-06
6.29379e-05
1.03879e-05
6.14344e-05
1.31629e-05
5.92745e-05
1.98531e-05
5.63778e-05
2.64959e-05
5.16661e-05
4.3271e-05
4.51188e-05
5.96585e-05
3.40804e-05
0.000100689
2.04239e-05
0.000122432
0.000180829
6.81686e-05
2.0305e-07
6.81147e-05
5.48659e-07
6.80305e-05
8.34175e-07
6.79163e-05
1.14268e-06
6.7767e-05
1.48376e-06
6.75794e-05
1.87938e-06
6.7346e-05
2.32678e-06
6.70533e-05
2.9192e-06
6.66905e-05
3.6308e-06
6.6236e-05
4.53853e-06
6.56757e-05
5.61141e-06
6.49821e-05
7.02055e-06
6.40493e-05
8.89232e-06
6.29195e-05
1.15484e-05
6.14049e-05
1.46678e-05
5.92964e-05
2.19629e-05
5.63892e-05
2.94019e-05
5.18248e-05
4.78355e-05
4.53087e-05
6.61744e-05
3.43147e-05
0.000111683
2.05914e-05
0.000136155
0.00020142
6.81685e-05
2.23399e-07
6.81147e-05
6.03467e-07
6.80305e-05
9.17575e-07
6.79161e-05
1.25695e-06
6.77668e-05
1.63202e-06
6.75792e-05
2.06725e-06
6.73458e-05
2.55946e-06
6.70532e-05
3.21105e-06
6.66905e-05
3.99387e-06
6.6236e-05
4.99226e-06
6.56761e-05
6.1717e-06
6.49861e-05
7.7211e-06
6.40514e-05
9.78607e-06
6.29073e-05
1.27314e-05
6.13872e-05
1.61807e-05
5.93266e-05
2.40256e-05
5.64196e-05
3.23085e-05
5.20107e-05
5.22449e-05
4.5532e-05
7.26533e-05
3.45948e-05
0.00012262
2.07914e-05
0.000149958
0.000222212
6.81686e-05
2.43717e-07
6.81148e-05
6.5821e-07
6.80306e-05
1.0009e-06
6.79163e-05
1.37111e-06
6.77671e-05
1.78012e-06
6.75796e-05
2.25496e-06
6.73461e-05
2.792e-06
6.70535e-05
3.50296e-06
6.66907e-05
4.35712e-06
6.62365e-05
5.44574e-06
6.56769e-05
6.73174e-06
6.49767e-05
8.43195e-06
6.40381e-05
1.06975e-05
6.2902e-05
1.38856e-05
6.13804e-05
1.76983e-05
5.93555e-05
2.60504e-05
5.64612e-05
3.52023e-05
5.21832e-05
5.65228e-05
4.57582e-05
7.90782e-05
3.49051e-05
0.000133473
2.10225e-05
0.000163841
0.000243234
6.81685e-05
2.64055e-07
6.81147e-05
7.12968e-07
6.80305e-05
1.08431e-06
6.79162e-05
1.48537e-06
6.77669e-05
1.92833e-06
6.75793e-05
2.44278e-06
6.73459e-05
3.02466e-06
6.70533e-05
3.79477e-06
6.66906e-05
4.72028e-06
6.62368e-05
5.89883e-06
6.56768e-05
7.292e-06
6.49715e-05
9.14633e-06
6.40333e-05
1.16046e-05
6.29044e-05
1.50318e-05
6.13801e-05
1.92206e-05
5.93773e-05
2.80542e-05
5.65006e-05
3.8079e-05
5.23208e-05
6.0703e-05
4.59679e-05
8.54312e-05
3.52297e-05
0.000144211
2.12816e-05
0.000177789
0.000264516
6.81686e-05
2.84359e-07
6.81148e-05
7.67659e-07
6.80306e-05
1.16764e-06
6.79164e-05
1.59951e-06
6.77672e-05
2.07636e-06
6.75797e-05
2.63044e-06
6.73463e-05
3.25716e-06
6.70537e-05
4.08664e-06
6.66908e-05
5.08365e-06
6.62372e-05
6.35169e-06
6.56754e-05
7.85421e-06
6.49546e-05
9.87544e-06
6.40313e-05
1.2515e-05
6.29051e-05
1.61621e-05
6.13813e-05
2.07431e-05
5.93919e-05
3.00431e-05
5.65322e-05
4.09385e-05
5.24245e-05
6.48105e-05
4.61548e-05
9.17008e-05
3.55568e-05
0.000154809
2.15641e-05
0.000191782
0.00028608
6.81685e-05
3.04684e-07
6.81147e-05
8.22368e-07
6.80305e-05
1.25107e-06
6.79162e-05
1.71377e-06
6.7767e-05
2.22452e-06
6.75794e-05
2.81821e-06
6.7346e-05
3.4898e-06
6.70535e-05
4.37839e-06
6.66907e-05
5.44692e-06
6.62375e-05
6.80418e-06
6.5673e-05
8.41896e-06
6.49429e-05
1.06118e-05
6.40379e-05
1.3407e-05
6.2905e-05
1.73016e-05
6.13828e-05
2.22649e-05
5.94011e-05
3.20254e-05
5.65555e-05
4.37842e-05
5.25028e-05
6.88634e-05
4.63191e-05
9.78847e-05
3.58793e-05
0.000165248
2.18658e-05
0.000205795
0.000307946
6.81686e-05
3.24971e-07
6.81148e-05
8.77007e-07
6.80306e-05
1.33442e-06
6.79164e-05
1.82788e-06
6.77672e-05
2.3725e-06
6.75798e-05
3.00581e-06
6.73465e-05
3.72227e-06
6.7054e-05
4.6702e-06
6.66909e-05
5.81042e-06
6.62376e-05
7.25682e-06
6.5667e-05
8.98988e-06
6.49379e-05
1.13457e-05
6.40409e-05
1.43017e-05
6.29044e-05
1.8438e-05
6.13841e-05
2.37848e-05
5.94068e-05
3.40022e-05
5.65721e-05
4.66188e-05
5.25635e-05
7.28718e-05
4.64638e-05
0.000103984
3.61937e-05
0.000175519
2.21827e-05
0.000219806
0.000330129
6.81685e-05
3.45281e-07
6.81147e-05
9.31669e-07
6.80305e-05
1.41788e-06
6.79162e-05
1.94214e-06
6.7767e-05
2.52062e-06
6.75795e-05
3.19353e-06
6.73461e-05
3.95489e-06
6.70538e-05
4.96185e-06
6.66907e-05
6.17388e-06
6.6238e-05
7.70887e-06
6.56571e-05
9.57094e-06
6.49399e-05
1.20654e-05
6.40419e-05
1.51941e-05
6.29041e-05
1.9579e-05
6.13852e-05
2.53035e-05
5.94102e-05
3.59777e-05
5.65838e-05
4.94454e-05
5.26126e-05
7.68432e-05
4.65925e-05
0.000110005
3.64988e-05
0.000185612
2.25119e-05
0.000233793
0.000352641
6.81686e-05
3.6555e-07
6.81148e-05
9.86256e-07
6.80307e-05
1.50125e-06
6.79164e-05
2.05623e-06
6.77673e-05
2.66854e-06
6.75799e-05
3.38107e-06
6.73466e-05
4.18733e-06
6.70542e-05
5.25355e-06
6.66909e-05
6.53766e-06
6.62385e-05
8.16063e-06
6.56468e-05
1.01629e-05
6.49421e-05
1.27716e-05
6.40417e-05
1.60952e-05
6.29039e-05
2.07156e-05
6.13862e-05
2.6821e-05
5.94123e-05
3.79512e-05
5.65922e-05
5.22653e-05
5.26542e-05
8.0781e-05
4.67091e-05
0.00011595
3.67949e-05
0.000195526
2.28511e-05
0.000247736
0.000375492
6.81685e-05
3.85844e-07
6.81148e-05
1.04087e-06
6.80305e-05
1.58474e-06
6.79162e-05
2.17048e-06
6.77671e-05
2.81663e-06
6.75796e-05
3.56875e-06
6.73463e-05
4.41995e-06
6.7054e-05
5.54508e-06
6.66908e-05
6.9013e-06
6.62384e-05
8.61234e-06
6.56406e-05
1.07609e-05
6.49428e-05
1.34698e-05
6.40414e-05
1.69936e-05
6.29039e-05
2.18553e-05
6.13872e-05
2.83377e-05
5.94135e-05
3.99254e-05
5.65987e-05
5.50802e-05
5.26915e-05
8.46884e-05
4.68167e-05
0.000121825
3.70833e-05
0.00020526
2.31991e-05
0.000261621
0.000398691
6.81686e-05
4.06093e-07
6.81148e-05
1.09541e-06
6.80307e-05
1.66814e-06
6.79165e-05
2.28455e-06
6.77674e-05
2.96449e-06
6.75801e-05
3.75622e-06
6.73468e-05
4.65236e-06
6.70545e-05
5.83668e-06
6.66912e-05
7.26505e-06
6.62347e-05
9.06818e-06
6.56394e-05
1.13563e-05
6.49424e-05
1.41673e-05
6.40413e-05
1.78961e-05
6.29041e-05
2.29912e-05
6.13883e-05
2.98533e-05
5.94144e-05
4.18989e-05
5.66043e-05
5.78901e-05
5.27268e-05
8.85657e-05
4.69183e-05
0.000127633
3.73656e-05
0.000214812
2.35552e-05
0.000275431
0.000422246
6.81685e-05
4.2637e-07
6.81148e-05
1.14997e-06
6.80305e-05
1.75167e-06
6.79162e-05
2.3988e-06
6.77671e-05
3.11254e-06
6.75797e-05
3.94384e-06
6.73464e-05
4.88494e-06
6.70543e-05
6.12816e-06
6.66915e-05
7.62819e-06
6.62262e-05
9.53284e-06
6.56428e-05
1.19398e-05
6.49419e-05
1.48682e-05
6.40413e-05
1.87944e-05
6.29045e-05
2.41299e-05
6.13895e-05
3.13684e-05
5.94155e-05
4.38734e-05
5.66099e-05
6.06958e-05
5.27618e-05
9.2414e-05
4.70163e-05
0.000133379
3.7644e-05
0.000224185
2.39192e-05
0.000289156
0.000446165
6.81686e-05
4.46599e-07
6.81149e-05
1.20446e-06
6.80307e-05
1.8351e-06
6.79165e-05
2.51285e-06
6.77675e-05
3.26035e-06
6.75802e-05
4.13125e-06
6.7347e-05
5.11728e-06
6.70547e-05
6.41981e-06
6.66923e-05
7.99097e-06
6.62164e-05
1.00082e-05
6.56467e-05
1.25096e-05
6.49415e-05
1.55735e-05
6.40416e-05
1.96957e-05
6.2905e-05
2.52652e-05
6.1391e-05
3.28822e-05
5.94171e-05
4.5847e-05
5.66163e-05
6.34965e-05
5.27976e-05
9.62325e-05
4.71127e-05
0.000139064
3.79205e-05
0.000233377
2.42915e-05
0.000302785
0.000470457
6.81686e-05
4.66858e-07
6.81148e-05
1.25898e-06
6.80306e-05
1.91867e-06
6.79163e-05
2.62709e-06
6.77672e-05
3.40836e-06
6.75798e-05
4.31884e-06
6.73466e-05
5.3498e-06
6.70544e-05
6.71134e-06
6.66929e-05
8.35291e-06
6.62094e-05
1.04911e-05
6.56492e-05
1.30698e-05
6.49414e-05
1.62813e-05
6.4042e-05
2.05933e-05
6.29058e-05
2.6403e-05
6.13929e-05
3.43952e-05
5.94196e-05
4.78206e-05
5.6624e-05
6.62922e-05
5.28352e-05
0.000100021
4.7209e-05
0.00014469
3.81976e-05
0.000242388
2.46729e-05
0.00031631
0.00049513
6.81686e-05
4.87067e-07
6.81149e-05
1.31341e-06
6.80307e-05
2.00212e-06
6.79166e-05
2.74111e-06
6.77676e-05
3.55611e-06
6.75803e-05
4.50619e-06
6.73472e-05
5.58207e-06
6.70549e-05
7.003e-06
6.66934e-05
8.71481e-06
6.62053e-05
1.09787e-05
6.56503e-05
1.36248e-05
6.49415e-05
1.69902e-05
6.40426e-05
2.14934e-05
6.29069e-05
2.75375e-05
6.13954e-05
3.59066e-05
5.94235e-05
4.97922e-05
5.66337e-05
6.90819e-05
5.2875e-05
0.00010378
4.73063e-05
0.000150259
3.84774e-05
0.000251217
2.50644e-05
0.000329723
0.000520194
6.81686e-05
5.07307e-07
6.81148e-05
1.36788e-06
6.80306e-05
2.08573e-06
6.79163e-05
2.85535e-06
6.77673e-05
3.70409e-06
6.75799e-05
4.69372e-06
6.73468e-05
5.81456e-06
6.70548e-05
7.2944e-06
6.66936e-05
9.07635e-06
6.62032e-05
1.14685e-05
6.56508e-05
1.41772e-05
6.49417e-05
1.76992e-05
6.40433e-05
2.23903e-05
6.29082e-05
2.86741e-05
6.13984e-05
3.74164e-05
5.9429e-05
5.1762e-05
5.66456e-05
7.18654e-05
5.29171e-05
0.000107509
4.74056e-05
0.00015577
3.87623e-05
0.00025986
2.54672e-05
0.000343018
0.000545661
6.81686e-05
5.27495e-07
6.81149e-05
1.42227e-06
6.80308e-05
2.16921e-06
6.79166e-05
2.96934e-06
6.77677e-05
3.85179e-06
6.75805e-05
4.88098e-06
6.73474e-05
6.04681e-06
6.70554e-05
7.58575e-06
6.66924e-05
9.43978e-06
6.62028e-05
1.19577e-05
6.56511e-05
1.4729e-05
6.49421e-05
1.84082e-05
6.40442e-05
2.32894e-05
6.29099e-05
2.98073e-05
6.14023e-05
3.89238e-05
5.94362e-05
5.37278e-05
5.66599e-05
7.46415e-05
5.29616e-05
0.000111207
4.75072e-05
0.000161224
3.90545e-05
0.000268313
2.58829e-05
0.000356189
0.000571544
6.81686e-05
5.47717e-07
6.81148e-05
1.4767e-06
6.80306e-05
2.25285e-06
6.79163e-05
3.08356e-06
6.77674e-05
3.99973e-06
6.758e-05
5.06843e-06
6.73469e-05
6.27935e-06
6.70554e-05
7.87662e-06
6.6687e-05
9.80853e-06
6.6206e-05
1.24382e-05
6.56514e-05
1.52837e-05
6.49427e-05
1.91169e-05
6.40453e-05
2.41854e-05
6.29119e-05
3.09421e-05
6.14069e-05
4.04289e-05
5.94452e-05
5.569e-05
5.66767e-05
7.74101e-05
5.30085e-05
0.000114875
4.76117e-05
0.000166621
3.9356e-05
0.000276569
2.63129e-05
0.000369232
0.000597857
6.81686e-05
5.67884e-07
6.81149e-05
1.53103e-06
6.80308e-05
2.33636e-06
6.79166e-05
3.19753e-06
6.77678e-05
4.14739e-06
6.75807e-05
5.25559e-06
6.73476e-05
6.51168e-06
6.70563e-05
8.16722e-06
6.66795e-05
1.01858e-05
6.6211e-05
1.29065e-05
6.56518e-05
1.58429e-05
6.49433e-05
1.98255e-05
6.40464e-05
2.50834e-05
6.29143e-05
3.20731e-05
6.14125e-05
4.19305e-05
5.94559e-05
5.76462e-05
5.66961e-05
8.01698e-05
5.30577e-05
0.000118513
4.77192e-05
0.00017196
3.96685e-05
0.000284619
2.67588e-05
0.000382142
0.000624616
6.81686e-05
5.88088e-07
6.81148e-05
1.58541e-06
6.80306e-05
2.42004e-06
6.79164e-05
3.31173e-06
6.77674e-05
4.29531e-06
6.75802e-05
5.44294e-06
6.7347e-05
6.74432e-06
6.70564e-05
8.45726e-06
6.66733e-05
1.05692e-05
6.6215e-05
1.33647e-05
6.56523e-05
1.64056e-05
6.4944e-05
2.05337e-05
6.40478e-05
2.59783e-05
6.29171e-05
3.32051e-05
6.14188e-05
4.34289e-05
5.94683e-05
5.9597e-05
5.6718e-05
8.29203e-05
5.31093e-05
0.000122122
4.78295e-05
0.00017724
3.99935e-05
0.000292455
2.72221e-05
0.000394913
0.000651838
6.81686e-05
6.08235e-07
6.8115e-05
1.6397e-06
6.80308e-05
2.50358e-06
6.79167e-05
3.42566e-06
6.77679e-05
4.44292e-06
6.75809e-05
5.62998e-06
6.73477e-05
6.97671e-06
6.70572e-05
8.74712e-06
6.66696e-05
1.09571e-05
6.62176e-05
1.38166e-05
6.56529e-05
1.69703e-05
6.49448e-05
2.12418e-05
6.40493e-05
2.6875e-05
6.29203e-05
3.4333e-05
6.14259e-05
4.49231e-05
5.94824e-05
6.15402e-05
5.67424e-05
8.56601e-05
5.31632e-05
0.000125701
4.79428e-05
0.00018246
4.03317e-05
0.000300067
2.77038e-05
0.000407541
0.000679542
6.81686e-05
6.2842e-07
6.81149e-05
1.69403e-06
6.80306e-05
2.58729e-06
6.79164e-05
3.53985e-06
6.77675e-05
4.5908e-06
6.75804e-05
5.81724e-06
6.73472e-05
7.20936e-06
6.70571e-05
9.03662e-06
6.66671e-05
1.13475e-05
6.62195e-05
1.42641e-05
6.56535e-05
1.75363e-05
6.49457e-05
2.19496e-05
6.40509e-05
2.77686e-05
6.29238e-05
3.54614e-05
6.14338e-05
4.64132e-05
5.94978e-05
6.34766e-05
5.67694e-05
8.83887e-05
5.32197e-05
0.000129251
4.80587e-05
0.000187621
4.06835e-05
0.000307442
2.82051e-05
0.00042002
0.000707747
6.81686e-05
6.48547e-07
6.8115e-05
1.74827e-06
6.80309e-05
2.67085e-06
6.79168e-05
3.65375e-06
6.7768e-05
4.73835e-06
6.75811e-05
6.00419e-06
6.7348e-05
7.44168e-06
6.70578e-05
9.32617e-06
6.66661e-05
1.17395e-05
6.62211e-05
1.47091e-05
6.56543e-05
1.81031e-05
6.49467e-05
2.26572e-05
6.40527e-05
2.86637e-05
6.29277e-05
3.65852e-05
6.14424e-05
4.78984e-05
5.95147e-05
6.54039e-05
5.67989e-05
9.11044e-05
5.32788e-05
0.000132771
4.81772e-05
0.000192723
4.10489e-05
0.00031457
2.87264e-05
0.000432342
0.000736473
6.81686e-05
6.68716e-07
6.81149e-05
1.80257e-06
6.80307e-05
2.75459e-06
6.79164e-05
3.76792e-06
6.77676e-05
4.88619e-06
6.75805e-05
6.19139e-06
6.73475e-05
7.67421e-06
6.70575e-05
9.61561e-06
6.66653e-05
1.2132e-05
6.62226e-05
1.51517e-05
6.56551e-05
1.86706e-05
6.49478e-05
2.33645e-05
6.40547e-05
2.95555e-05
6.2932e-05
3.77093e-05
6.14516e-05
4.93789e-05
5.95329e-05
6.73229e-05
5.6831e-05
9.38064e-05
5.33405e-05
0.000136262
4.82981e-05
0.000197765
4.14276e-05
0.00032144
2.92682e-05
0.000444501
0.000765742
6.81686e-05
6.88825e-07
6.8115e-05
1.85676e-06
6.80309e-05
2.83817e-06
6.79168e-05
3.88178e-06
6.77681e-05
5.03368e-06
6.75812e-05
6.37829e-06
6.73484e-05
7.90632e-06
6.70581e-05
9.90532e-06
6.66653e-05
1.2525e-05
6.62239e-05
1.55931e-05
6.5656e-05
1.92385e-05
6.49489e-05
2.40717e-05
6.40568e-05
3.04487e-05
6.29365e-05
3.88284e-05
6.14613e-05
5.08539e-05
5.95524e-05
6.92315e-05
5.68656e-05
9.6493e-05
5.34051e-05
0.000139722
4.84217e-05
0.000202748
4.18191e-05
0.000328043
2.98306e-05
0.00045649
0.000795572
6.81686e-05
7.08978e-07
6.81149e-05
1.91102e-06
6.80307e-05
2.92194e-06
6.79165e-05
3.99593e-06
6.77677e-05
5.18146e-06
6.75807e-05
6.56546e-06
6.7348e-05
8.13859e-06
6.70576e-05
1.01951e-05
6.66652e-05
1.29177e-05
6.62253e-05
1.60329e-05
6.56569e-05
1.98068e-05
6.49501e-05
2.47785e-05
6.4059e-05
3.13387e-05
6.29413e-05
3.99475e-05
6.14716e-05
5.23238e-05
5.95731e-05
7.11305e-05
5.69028e-05
9.91634e-05
5.34728e-05
0.000143152
4.85481e-05
0.000207673
4.22232e-05
0.000334368
3.04136e-05
0.000468299
0.000825986
6.81686e-05
7.2907e-07
6.8115e-05
1.96517e-06
6.80309e-05
3.00552e-06
6.79169e-05
4.10976e-06
6.77683e-05
5.32886e-06
6.75814e-05
6.75232e-06
6.73489e-05
8.37033e-06
6.70578e-05
1.04857e-05
6.66657e-05
1.331e-05
6.62266e-05
1.6472e-05
6.56579e-05
2.03755e-05
6.49514e-05
2.54851e-05
6.40613e-05
3.22298e-05
6.29464e-05
4.10612e-05
6.14825e-05
5.37875e-05
5.95949e-05
7.30177e-05
5.69425e-05
0.000101816
5.35437e-05
0.000146551
4.86776e-05
0.000212539
4.26395e-05
0.000340406
3.10176e-05
0.000479921
0.000857003
6.81686e-05
7.4921e-07
6.81149e-05
2.01939e-06
6.80307e-05
3.08931e-06
6.79165e-05
4.22389e-06
6.77679e-05
5.47657e-06
6.75808e-05
6.9395e-06
6.73486e-05
8.60215e-06
6.70543e-05
1.07794e-05
6.66681e-05
1.36964e-05
6.62279e-05
1.69122e-05
6.5659e-05
2.09444e-05
6.49527e-05
2.61913e-05
6.40638e-05
3.31175e-05
6.29518e-05
4.21747e-05
6.14938e-05
5.52457e-05
5.96179e-05
7.4894e-05
5.69847e-05
0.000104449
5.3618e-05
0.000149918
4.88108e-05
0.000217346
4.30685e-05
0.000346148
3.16427e-05
0.000491347
0.000888646
6.81686e-05
7.69287e-07
6.8115e-05
2.0735e-06
6.8031e-05
3.1729e-06
6.7917e-05
4.33767e-06
6.77684e-05
5.62387e-06
6.75815e-05
7.12636e-06
6.73496e-05
8.83338e-06
6.70447e-05
1.10838e-05
6.6677e-05
1.40641e-05
6.62291e-05
1.73601e-05
6.566e-05
2.15135e-05
6.49541e-05
2.68973e-05
6.40664e-05
3.40063e-05
6.29573e-05
4.32825e-05
6.15055e-05
5.66973e-05
5.96419e-05
7.67573e-05
5.70293e-05
0.000107061
5.3696e-05
0.000153251
4.89481e-05
0.000222094
4.35103e-05
0.000351586
3.22895e-05
0.000502568
0.000920936
6.81686e-05
7.89412e-07
6.81149e-05
2.12768e-06
6.80307e-05
3.25671e-06
6.79166e-05
4.45179e-06
6.7768e-05
5.77151e-06
6.75809e-05
7.31352e-06
6.73491e-05
9.06485e-06
6.70377e-05
1.13947e-05
6.66832e-05
1.44186e-05
6.62302e-05
1.7813e-05
6.56611e-05
2.20826e-05
6.49556e-05
2.76029e-05
6.40691e-05
3.48916e-05
6.29631e-05
4.43899e-05
6.15178e-05
5.81428e-05
5.9667e-05
7.86085e-05
5.70762e-05
0.000109652
5.3778e-05
0.000156549
4.90897e-05
0.000226783
4.39655e-05
0.00035671
3.29588e-05
0.000513575
0.000953894
6.81686e-05
8.09473e-07
6.81151e-05
2.18174e-06
6.8031e-05
3.34031e-06
6.7917e-05
4.56552e-06
6.77686e-05
5.91873e-06
6.75818e-05
7.50026e-06
6.735e-05
9.296e-06
6.70359e-05
1.17082e-05
6.66853e-05
1.47692e-05
6.62313e-05
1.82671e-05
6.56622e-05
2.26517e-05
6.4957e-05
2.83081e-05
6.40718e-05
3.57779e-05
6.29691e-05
4.54913e-05
6.15304e-05
5.95812e-05
5.96931e-05
8.04454e-05
5.71254e-05
0.00011222
5.38642e-05
0.00015981
4.92358e-05
0.000231411
4.44341e-05
0.000361512
3.36509e-05
0.000524358
0.000987545
6.81686e-05
8.29589e-07
6.81149e-05
2.23588e-06
6.80308e-05
3.42411e-06
6.79167e-05
4.67957e-06
6.77681e-05
6.06632e-06
6.75813e-05
7.68712e-06
6.73478e-05
9.5292e-06
6.70354e-05
1.20203e-05
6.66862e-05
1.51184e-05
6.62322e-05
1.8721e-05
6.56633e-05
2.32206e-05
6.49586e-05
2.90129e-05
6.40747e-05
3.66603e-05
6.29753e-05
4.65924e-05
6.15435e-05
6.10133e-05
5.97201e-05
8.22693e-05
5.71766e-05
0.000114764
5.3955e-05
0.000163032
4.93861e-05
0.00023598
4.49144e-05
0.000365983
3.43653e-05
0.000534907
0.00102191
6.81686e-05
8.49644e-07
6.81151e-05
2.28991e-06
6.8031e-05
3.50774e-06
6.79171e-05
4.79325e-06
6.77685e-05
6.2137e-06
6.75826e-05
7.87298e-06
6.73377e-05
9.77352e-06
6.70404e-05
1.23174e-05
6.66866e-05
1.54723e-05
6.6233e-05
1.91745e-05
6.56644e-05
2.37892e-05
6.49601e-05
2.97173e-05
6.40775e-05
3.75441e-05
6.29816e-05
4.76868e-05
6.15569e-05
6.24376e-05
5.97479e-05
8.40778e-05
5.72297e-05
0.000117282
5.40508e-05
0.000166211
4.95402e-05
0.000240491
4.54022e-05
0.000370121
3.50988e-05
0.00054521
0.00105701
6.81686e-05
8.69741e-07
6.8115e-05
2.34399e-06
6.80308e-05
3.59159e-06
6.79168e-05
4.90723e-06
6.7768e-05
6.36156e-06
6.75825e-05
8.05857e-06
6.73292e-05
1.00265e-05
6.70442e-05
1.26024e-05
6.66868e-05
1.58297e-05
6.62338e-05
1.96275e-05
6.56655e-05
2.43575e-05
6.49616e-05
3.0421e-05
6.40805e-05
3.84238e-05
6.2988e-05
4.8781e-05
6.15707e-05
6.38553e-05
5.97766e-05
8.58724e-05
5.72844e-05
0.000119774
5.4152e-05
0.000169343
4.96978e-05
0.000244945
4.5888e-05
0.000373931
3.58438e-05
0.000555255
0.00109285
6.81685e-05
8.89758e-07
6.8115e-05
2.398e-06
6.8031e-05
3.67518e-06
6.79172e-05
5.02074e-06
6.77686e-05
6.50882e-06
6.75835e-05
8.2436e-06
6.73273e-05
1.02821e-05
6.7045e-05
1.28847e-05
6.66869e-05
1.61878e-05
6.62343e-05
2.00801e-05
6.56664e-05
2.49254e-05
6.49632e-05
3.11244e-05
6.40834e-05
3.93048e-05
6.29946e-05
4.98683e-05
6.15848e-05
6.52648e-05
5.9806e-05
8.76508e-05
5.73405e-05
0.000122239
5.42597e-05
0.000172424
4.98582e-05
0.000249346
4.63687e-05
0.000377421
3.66796e-05
0.000564944
0.00112953
-2.03373e-06
2.03371e-06
-4.84327e-06
2.80953e-06
-5.88304e-06
1.03975e-06
-5.07575e-06
-8.07325e-07
-3.77023e-06
-1.30538e-06
-2.84921e-06
-9.21289e-07
-2.44828e-06
-4.01096e-07
-2.40848e-06
-3.9935e-08
-2.37891e-06
-3.14738e-08
-2.3237e-06
-5.6595e-08
-2.29255e-06
-2.84353e-08
-2.07589e-06
-2.13323e-07
-1.52242e-06
-5.51424e-07
-5.94959e-07
-9.27254e-07
7.39588e-07
-1.33515e-06
2.59168e-06
-1.85304e-06
5.2121e-06
-2.6224e-06
8.67016e-06
-3.45854e-06
1.26088e-05
-3.94056e-06
1.65705e-05
-3.95854e-06
2.03416e-05
-3.76701e-06
2.38329e-05
-3.49403e-06
2.70457e-05
-3.21279e-06
3.0052e-05
-3.0064e-06
3.29114e-05
-2.85954e-06
3.57411e-05
-2.82858e-06
3.8686e-05
-2.94162e-06
4.12833e-05
-2.59993e-06
4.33277e-05
-2.04764e-06
5.1747e-05
-8.4221e-06
6.33391e-05
-1.15907e-05
6.73673e-05
-4.02719e-06
6.75142e-05
-1.46963e-07
6.75348e-05
-2.04861e-08
-5.52175e-08
-1.98038e-06
4.01403e-06
-4.7783e-06
5.60743e-06
-5.8082e-06
2.06962e-06
-5.00957e-06
-1.60603e-06
-3.70364e-06
-2.61105e-06
-2.78602e-06
-1.83941e-06
-2.38225e-06
-8.05163e-07
-2.34934e-06
-7.30827e-08
-2.3401e-06
-4.42438e-08
-2.3151e-06
-8.40812e-08
-2.29664e-06
-4.15632e-08
-2.0766e-06
-4.2726e-07
-1.51181e-06
-1.11227e-06
-5.67726e-07
-1.87087e-06
7.88627e-07
-2.69262e-06
2.64377e-06
-3.71007e-06
5.22243e-06
-5.20509e-06
8.61087e-06
-6.84801e-06
1.24964e-05
-7.82957e-06
1.6453e-05
-7.90915e-06
2.02491e-05
-7.55521e-06
2.37717e-05
-7.02179e-06
2.70068e-05
-6.44786e-06
3.00215e-05
-6.02129e-06
3.2879e-05
-5.71733e-06
3.56943e-05
-5.64183e-06
3.86242e-05
-5.86538e-06
4.12526e-05
-5.23326e-06
4.32312e-05
-4.03232e-06
5.13367e-05
-1.65329e-05
6.2976e-05
-2.32274e-05
6.73379e-05
-8.3872e-06
6.75233e-05
-3.32472e-07
6.75375e-05
-3.44186e-08
-1.08818e-07
-1.91969e-06
5.93368e-06
-4.70233e-06
8.39005e-06
-5.71571e-06
3.08299e-06
-4.90718e-06
-2.41463e-06
-3.60422e-06
-3.91378e-06
-2.69441e-06
-2.74971e-06
-2.29717e-06
-1.20269e-06
-2.27842e-06
-9.20645e-08
-2.29378e-06
-3.21683e-08
-2.29465e-06
-8.569e-08
-2.28525e-06
-4.56555e-08
-2.05752e-06
-6.4859e-07
-1.47993e-06
-1.68576e-06
-5.15177e-07
-2.83521e-06
8.67324e-07
-4.07639e-06
2.72248e-06
-5.56731e-06
5.25195e-06
-7.73883e-06
8.5689e-06
-1.0166e-05
1.24087e-05
-1.16732e-05
1.63676e-05
-1.1862e-05
2.01952e-05
-1.13748e-05
2.37495e-05
-1.05814e-05
2.70051e-05
-9.70341e-06
3.00273e-05
-9.04371e-06
3.28815e-05
-8.57173e-06
3.56811e-05
-8.43942e-06
3.85943e-05
-8.77235e-06
4.12475e-05
-7.89133e-06
4.31727e-05
-5.9636e-06
5.09795e-05
-2.43448e-05
6.26416e-05
-3.48869e-05
6.7309e-05
-1.30528e-05
6.75318e-05
-5.55347e-07
6.75401e-05
-4.2561e-08
-1.60794e-07
-1.84838e-06
7.782e-06
-4.61559e-06
1.11572e-05
-5.60167e-06
4.06904e-06
-4.77231e-06
-3.24408e-06
-3.47325e-06
-5.21259e-06
-2.57869e-06
-3.64477e-06
-2.19368e-06
-1.58797e-06
-2.19062e-06
-9.53731e-08
-2.22908e-06
2.9656e-09
-2.25591e-06
-6.12831e-08
-2.25624e-06
-3.91946e-08
-2.01917e-06
-8.78891e-07
-1.42542e-06
-2.2749e-06
-4.34282e-07
-3.82577e-06
9.80524e-07
-5.49257e-06
2.83688e-06
-7.42624e-06
5.31173e-06
-1.02192e-05
8.55119e-06
-1.34068e-05
1.23461e-05
-1.54725e-05
1.63146e-05
-1.58233e-05
2.01795e-05
-1.52308e-05
2.37679e-05
-1.41757e-05
2.7044e-05
-1.29796e-05
3.00727e-05
-1.20726e-05
3.2922e-05
-1.14213e-05
3.57041e-05
-1.12192e-05
3.85966e-05
-1.16583e-05
4.12687e-05
-1.05688e-05
4.31519e-05
-7.85322e-06
5.06756e-05
-3.18742e-05
6.23355e-05
-4.65442e-05
6.72801e-05
-1.79955e-05
6.75397e-05
-8.14983e-07
6.75428e-05
-4.53934e-08
-2.11182e-07
-1.76616e-06
9.54812e-06
-4.51734e-06
1.39084e-05
-5.46369e-06
5.01536e-06
-4.60395e-06
-4.10389e-06
-3.31134e-06
-6.50498e-06
-2.43955e-06
-4.51707e-06
-2.07194e-06
-1.95583e-06
-2.08506e-06
-8.24899e-08
-2.1454e-06
6.02734e-08
-2.19745e-06
-1.17752e-08
-2.20634e-06
-2.43327e-08
-1.95785e-06
-1.1205e-06
-1.34466e-06
-2.88339e-06
-3.20455e-07
-4.84951e-06
1.13657e-06
-6.95112e-06
3.00035e-06
-9.29284e-06
5.41638e-06
-1.26413e-05
8.56872e-06
-1.65607e-05
1.23162e-05
-1.92254e-05
1.63003e-05
-1.97996e-05
2.02086e-05
-1.91297e-05
2.38339e-05
-1.78075e-05
2.7131e-05
-1.62767e-05
3.01646e-05
-1.51064e-05
3.30064e-05
-1.42634e-05
3.57678e-05
-1.39782e-05
3.86348e-05
-1.45184e-05
4.13191e-05
-1.32587e-05
4.31699e-05
-9.71052e-06
5.04231e-05
-3.9133e-05
6.20557e-05
-5.81741e-05
6.72514e-05
-2.31895e-05
6.75472e-05
-1.1108e-06
6.75455e-05
-4.34849e-08
-2.60021e-07
-1.67256e-06
1.12206e-05
-4.40648e-06
1.66423e-05
-5.29864e-06
5.90747e-06
-4.39999e-06
-5.00264e-06
-3.11781e-06
-7.78694e-06
-2.27637e-06
-5.35903e-06
-1.93081e-06
-2.30164e-06
-1.95998e-06
-5.35694e-08
-2.04139e-06
1.38441e-07
-2.11747e-06
6.18189e-08
-2.13238e-06
-2.31793e-09
-1.87018e-06
-1.37515e-06
-1.23494e-06
-3.51322e-06
-1.7124e-07
-5.91251e-06
1.34076e-06
-8.46477e-06
3.22538e-06
-1.11809e-05
5.58486e-06
-1.50087e-05
8.64055e-06
-1.96185e-05
1.23344e-05
-2.29255e-05
1.63376e-05
-2.37929e-05
2.02947e-05
-2.30755e-05
2.39601e-05
-2.14807e-05
2.72785e-05
-1.95951e-05
3.03144e-05
-1.81426e-05
3.31445e-05
-1.70938e-05
3.58801e-05
-1.6711e-05
3.87147e-05
-1.73453e-05
4.14033e-05
-1.59537e-05
4.32297e-05
-1.15441e-05
5.02207e-05
-4.61305e-05
6.17998e-05
-6.97505e-05
6.72228e-05
-2.86105e-05
6.7554e-05
-1.44209e-06
6.75482e-05
-3.7365e-08
-3.07358e-07
-1.56702e-06
1.27876e-05
-4.28149e-06
1.93567e-05
-5.10223e-06
6.72819e-06
-4.15666e-06
-5.9483e-06
-2.89063e-06
-9.05274e-06
-2.08716e-06
-6.16302e-06
-1.76796e-06
-2.6211e-06
-1.81264e-06
-9.13616e-09
-1.91461e-06
2.37411e-07
-2.01337e-06
1.57837e-07
-2.03096e-06
2.21109e-08
-1.75266e-06
-1.64593e-06
-1.09319e-06
-4.1672e-06
1.62282e-08
-7.02137e-06
1.59757e-06
-1.00479e-05
3.52358e-06
-1.31106e-05
5.83924e-06
-1.73327e-05
8.79384e-06
-2.25754e-05
1.24255e-05
-2.65651e-05
1.64476e-05
-2.78037e-05
2.04575e-05
-2.70731e-05
2.41668e-05
-2.51989e-05
2.75068e-05
-2.2935e-05
3.05411e-05
-2.11772e-05
3.33521e-05
-1.99052e-05
3.60534e-05
-1.9409e-05
3.88456e-05
-2.01292e-05
4.1528e-05
-1.8643e-05
4.33362e-05
-1.33598e-05
5.0069e-05
-5.28699e-05
6.15661e-05
-8.12448e-05
6.71944e-05
-3.42368e-05
6.75603e-05
-1.80812e-06
6.75508e-05
-2.76834e-08
-3.53239e-07
-1.44896e-06
1.42365e-05
-4.14034e-06
2.20481e-05
-4.86917e-06
7.45697e-06
-3.86921e-06
-6.94837e-06
-2.62717e-06
-1.02946e-05
-1.86911e-06
-6.92164e-06
-1.58022e-06
-2.91024e-06
-1.63946e-06
4.98399e-08
-1.76143e-06
3.56034e-07
-1.8813e-06
2.74998e-07
-1.89756e-06
4.67452e-08
-1.6003e-06
-1.93462e-06
-9.13697e-07
-4.84729e-06
2.48611e-07
-8.18278e-06
1.91508e-06
-1.17164e-05
3.90886e-06
-1.5109e-05
6.20531e-06
-1.96402e-05
9.06398e-06
-2.54373e-05
1.26253e-05
-3.0136e-05
1.66623e-05
-3.18263e-05
2.07274e-05
-3.11227e-05
2.44847e-05
-2.89671e-05