/*--------------------------------*- C++ -*----------------------------------*\
| =========                 |                                                 |
| \\      /  F ield         | OpenFOAM: The Open Source CFD Toolbox           |
|  \\    /   O peration     | Version:  v1912                                 |
|   \\  /    A nd           | Website:  www.openfoam.com                      |
|    \\/     M anipulation  |                                                 |
\*---------------------------------------------------------------------------*/
FoamFile
{
    version     2.0;
    format      ascii;
    class       volVectorField;
    location    "380";
    object      U;
}
// * * * * * * * * * * * * * * * * * * * * * * * * * * * * * * * * * * * * * //

dimensions      [0 1 -1 0 0 0 0];


internalField   nonuniform List<vector> 
12441
(
(29.9989 1.70372e-05 0)
(29.9854 5.15478e-05 0)
(29.9565 8.89359e-05 0)
(29.9123 0.000136899 0)
(29.8548 0.000199801 0)
(29.7809 0.000284079 0)
(29.6896 0.000394572 0)
(29.5755 0.000557684 0)
(29.4327 0.000778257 0)
(29.2561 0.00109216 0)
(29.0362 0.00152129 0)
(28.7568 0.00213809 0)
(28.4219 0.00301069 0)
(27.9642 0.00446877 0)
(27.4254 0.00622085 0)
(26.6259 0.0112486 0)
(25.5882 0.014984 0)
(23.936 0.0312543 0)
(21.6049 0.0525847 0)
(17.9331 0.0911156 0)
(12.1531 0.122379 0)
(5.83433 0.197284 0)
(29.9989 5.06409e-05 0)
(29.9853 0.000154073 0)
(29.9565 0.000265129 0)
(29.9123 0.0004082 0)
(29.8548 0.000596118 0)
(29.7809 0.000847662 0)
(29.6897 0.00117967 0)
(29.5756 0.00166489 0)
(29.4328 0.00232723 0)
(29.2562 0.00326866 0)
(29.0369 0.00455455 0)
(28.7573 0.00639046 0)
(28.4199 0.00905304 0)
(27.963 0.0133299 0)
(27.4278 0.0187423 0)
(26.6292 0.0335221 0)
(25.5929 0.0475535 0)
(23.9366 0.0896388 0)
(21.6047 0.137331 0)
(17.931 0.263652 0)
(12.1538 0.359561 0)
(5.83796 0.58918 0)
(29.9989 8.41568e-05 0)
(29.9853 0.000256765 0)
(29.9565 0.000440586 0)
(29.9123 0.000678392 0)
(29.8548 0.000990954 0)
(29.7808 0.00141063 0)
(29.6896 0.00196336 0)
(29.5755 0.00277071 0)
(29.4328 0.00387389 0)
(29.2563 0.0054439 0)
(29.0369 0.00757617 0)
(28.7571 0.0106463 0)
(28.4216 0.0151226 0)
(27.9623 0.0221538 0)
(27.4277 0.0313013 0)
(26.6275 0.0549068 0)
(25.5936 0.080891 0)
(23.9407 0.14626 0)
(21.6079 0.219579 0)
(17.9307 0.433851 0)
(12.1595 0.593263 0)
(5.84606 0.979111 0)
(29.9989 0.000118099 0)
(29.9853 0.000360144 0)
(29.9565 0.000616859 0)
(29.9123 0.000949835 0)
(29.8548 0.00138747 0)
(29.7809 0.00197547 0)
(29.6897 0.00274957 0)
(29.5756 0.00387935 0)
(29.4329 0.00542444 0)
(29.2563 0.00762427 0)
(29.037 0.0106067 0)
(28.7573 0.0149108 0)
(28.4201 0.0211956 0)
(27.9638 0.0310049 0)
(27.4277 0.0438801 0)
(26.6301 0.0763597 0)
(25.5969 0.113474 0)
(23.9458 0.205867 0)
(21.6166 0.326564 0)
(17.9351 0.612078 0)
(12.1717 0.830932 0)
(5.8589 1.3707 0)
(29.9989 0.000152098 0)
(29.9853 0.000463371 0)
(29.9565 0.000792928 0)
(29.9123 0.00122105 0)
(29.8548 0.00178361 0)
(29.7809 0.00253972 0)
(29.6897 0.00353507 0)
(29.5756 0.00498726 0)
(29.4329 0.00697419 0)
(29.2564 0.00980353 0)
(29.037 0.0136358 0)
(28.7573 0.019172 0)
(28.4223 0.0272654 0)
(27.9633 0.0398537 0)
(27.4288 0.056479 0)
(26.629 0.0975678 0)
(25.5983 0.14556 0)
(23.9498 0.266228 0)
(21.6275 0.416357 0)
(17.9455 0.786491 0)
(12.1916 1.06838 0)
(5.87677 1.76357 0)
(29.9989 0.000186087 0)
(29.9853 0.0005665 0)
(29.9565 0.000968964 0)
(29.9123 0.00149227 0)
(29.8549 0.00217969 0)
(29.781 0.00310394 0)
(29.6898 0.00432064 0)
(29.5757 0.00609544 0)
(29.433 0.00852431 0)
(29.2564 0.0119828 0)
(29.0372 0.0166659 0)
(28.7575 0.0234355 0)
(28.4202 0.0333306 0)
(27.9649 0.0486963 0)
(27.4282 0.0690817 0)
(26.6315 0.118683 0)
(25.6017 0.177385 0)
(23.9546 0.326047 0)
(21.6403 0.504591 0)
(17.9624 0.959594 0)
(12.221 1.30552 0)
(5.90006 2.15754 0)
(29.9989 0.000220067 0)
(29.9853 0.000669575 0)
(29.9565 0.00114499 0)
(29.9123 0.0017635 0)
(29.8548 0.00257571 0)
(29.7809 0.00366811 0)
(29.6897 0.00510619 0)
(29.5757 0.00720363 0)
(29.433 0.0100745 0)
(29.2565 0.0141624 0)
(29.0372 0.0196952 0)
(28.7578 0.0276965 0)
(28.4231 0.0394014 0)
(27.9643 0.0575242 0)
(27.4302 0.0816778 0)
(26.6314 0.139637 0)
(25.6038 0.208508 0)
(23.9585 0.383351 0)
(21.6574 0.594965 0)
(17.9891 1.1328 0)
(12.2621 1.54275 0)
(5.92928 2.55292 0)
(29.9989 0.00025404 0)
(29.9853 0.000772597 0)
(29.9565 0.001321 0)
(29.9123 0.0020347 0)
(29.8549 0.00297162 0)
(29.781 0.00423219 0)
(29.6899 0.00589166 0)
(29.5758 0.00831185 0)
(29.4331 0.0116247 0)
(29.2566 0.0163415 0)
(29.0374 0.0227248 0)
(28.7579 0.0319582 0)
(28.4203 0.0454661 0)
(27.9659 0.0663341 0)
(27.4294 0.0941068 0)
(26.6337 0.160247 0)
(25.6091 0.241201 0)
(23.9648 0.44262 0)
(21.6873 0.686429 0)
(18.032 1.30551 0)
(12.3181 1.78029 0)
(5.96501 2.95017 0)
(29.9989 0.000288007 0)
(29.9853 0.000875569 0)
(29.9565 0.00149699 0)
(29.9123 0.00230589 0)
(29.8548 0.00336746 0)
(29.781 0.0047962 0)
(29.6898 0.0066771 0)
(29.5758 0.00942005 0)
(29.4331 0.013175 0)
(29.2566 0.018521 0)
(29.0374 0.0257533 0)
(28.7583 0.03622 0)
(28.4243 0.0515319 0)
(27.9661 0.0752492 0)
(27.4295 0.106645 0)
(26.6337 0.181232 0)
(25.6162 0.272345 0)
(23.9755 0.501311 0)
(21.7408 0.777581 0)
(18.0987 1.47738 0)
(12.3924 2.0184 0)
(6.0079 3.34982 0)
(29.9989 0.000321966 0)
(29.9853 0.000978488 0)
(29.9565 0.00167296 0)
(29.9124 0.00257705 0)
(29.8549 0.00376319 0)
(29.7811 0.00536011 0)
(29.69 0.00746249 0)
(29.5759 0.0105282 0)
(29.4333 0.0147253 0)
(29.2567 0.0206998 0)
(29.0377 0.0287809 0)
(28.7586 0.0404801 0)
(28.42 0.0576035 0)
(27.9675 0.083974 0)
(27.426 0.119814 0)
(26.6335 0.202527 0)
(25.6289 0.303998 0)
(24 0.558103 0)
(21.8197 0.868435 0)
(18.1916 1.6487 0)
(12.4874 2.25748 0)
(6.05862 3.75244 0)
(29.9989 0.000355918 0)
(29.9853 0.00108136 0)
(29.9565 0.00184894 0)
(29.9123 0.0028482 0)
(29.8549 0.00415885 0)
(29.781 0.00592396 0)
(29.6899 0.00824782 0)
(29.5759 0.0116364 0)
(29.4333 0.0162756 0)
(29.2568 0.0228787 0)
(29.0377 0.0318077 0)
(28.7591 0.0447419 0)
(28.4245 0.0637131 0)
(27.9714 0.0927152 0)
(27.4246 0.132337 0)
(26.6337 0.22271 0)
(25.6454 0.336614 0)
(24.0387 0.614141 0)
(21.9097 0.959075 0)
(18.3044 1.81942 0)
(12.6035 2.49786 0)
(6.11778 4.15866 0)
(29.9989 0.000389861 0)
(29.9854 0.00118418 0)
(29.9566 0.00202491 0)
(29.9124 0.00311933 0)
(29.855 0.00455442 0)
(29.7812 0.00648772 0)
(29.6901 0.00903312 0)
(29.5761 0.0127445 0)
(29.4334 0.0178261 0)
(29.2568 0.025056 0)
(29.0381 0.0348348 0)
(28.7597 0.0489997 0)
(28.4201 0.0697467 0)
(27.9739 0.10169 0)
(27.422 0.145826 0)
(26.6358 0.243162 0)
(25.6614 0.368995 0)
(24.081 0.66847 0)
(21.9936 1.04873 0)
(18.4259 1.989 0)
(12.7389 2.73966 0)
(6.18591 4.56911 0)
(29.9989 0.000423794 0)
(29.9853 0.00128696 0)
(29.9565 0.00220089 0)
(29.9123 0.00339045 0)
(29.8549 0.00494992 0)
(29.7811 0.00705141 0)
(29.69 0.00981836 0)
(29.576 0.0138526 0)
(29.4334 0.0193767 0)
(29.2569 0.0272326 0)
(29.0384 0.0378546 0)
(28.7603 0.0533404 0)
(28.4225 0.0757142 0)
(27.9751 0.110752 0)
(27.4202 0.15957 0)
(26.6384 0.263169 0)
(25.6737 0.400823 0)
(24.1167 0.720878 0)
(22.0634 1.13702 0)
(18.5459 2.15684 0)
(12.89 2.98274 0)
(6.26325 4.98438 0)
(29.9989 0.000457714 0)
(29.9854 0.00138969 0)
(29.9566 0.00237688 0)
(29.9124 0.00366155 0)
(29.855 0.00534535 0)
(29.7812 0.00761501 0)
(29.6902 0.0106036 0)
(29.5762 0.0149606 0)
(29.4336 0.0209275 0)
(29.2569 0.0294089 0)
(29.0388 0.0408882 0)
(28.7612 0.0577083 0)
(28.4193 0.0820701 0)
(27.9734 0.119842 0)
(27.4189 0.172875 0)
(26.6409 0.282551 0)
(25.682 0.432107 0)
(24.1433 0.771774 0)
(22.1191 1.22396 0)
(18.6581 2.32253 0)
(13.0527 3.22679 0)
(6.34979 5.40499 0)
(29.9989 0.000491624 0)
(29.9854 0.00149237 0)
(29.9565 0.0025529 0)
(29.9123 0.00393264 0)
(29.8549 0.0057407 0)
(29.7811 0.00817854 0)
(29.69 0.0113887 0)
(29.5761 0.0160683 0)
(29.4336 0.022479 0)
(29.2569 0.0315813 0)
(29.0391 0.0439364 0)
(28.7626 0.0619989 0)
(28.4188 0.0883642 0)
(27.9718 0.128716 0)
(27.4184 0.186016 0)
(26.6429 0.301723 0)
(25.6872 0.463114 0)
(24.1623 0.821652 0)
(22.1637 1.30965 0)
(18.7601 2.48582 0)
(13.223 3.47141 0)
(6.44528 5.83135 0)
(29.9989 0.00052552 0)
(29.9854 0.001595 0)
(29.9566 0.00272893 0)
(29.9124 0.00420371 0)
(29.855 0.00613599 0)
(29.7813 0.008742 0)
(29.6902 0.0121738 0)
(29.5763 0.0171762 0)
(29.4338 0.0240299 0)
(29.257 0.0337572 0)
(29.0392 0.0469857 0)
(28.7635 0.066421 0)
(28.4169 0.0946584 0)
(27.9707 0.137432 0)
(27.4182 0.199059 0)
(26.6444 0.320839 0)
(25.6902 0.493982 0)
(24.1757 0.870856 0)
(22.2004 1.39421 0)
(18.8518 2.64655 0)
(13.3977 3.71618 0)
(6.54929 6.2638 0)
(29.9989 0.000559403 0)
(29.9854 0.00169759 0)
(29.9566 0.00290499 0)
(29.9124 0.00447477 0)
(29.8549 0.00653121 0)
(29.7812 0.00930537 0)
(29.6901 0.0129589 0)
(29.5762 0.0182838 0)
(29.4338 0.0255818 0)
(29.2569 0.0359281 0)
(29.0397 0.0500996 0)
(28.7632 0.0708859 0)
(28.4154 0.100845 0)
(27.9701 0.146134 0)
(27.4181 0.212102 0)
(26.6456 0.339949 0)
(25.6918 0.524761 0)
(24.1853 0.919577 0)
(22.2316 1.47771 0)
(18.9341 2.80461 0)
(13.5745 3.96071 0)
(6.6613 6.70261 0)
(29.9989 0.000593271 0)
(29.9854 0.00180013 0)
(29.9566 0.00308108 0)
(29.9124 0.00474581 0)
(29.8551 0.00692637 0)
(29.7814 0.00986866 0)
(29.6903 0.0137439 0)
(29.5764 0.019391 0)
(29.434 0.0271347 0)
(29.2569 0.0380922 0)
(29.0402 0.053236 0)
(28.7615 0.0753821 0)
(28.4141 0.106975 0)
(27.9698 0.154817 0)
(27.4181 0.225154 0)
(26.6465 0.35906 0)
(25.6925 0.555477 0)
(24.1925 0.967918 0)
(22.2593 1.56022 0)
(19.0085 2.95993 0)
(13.752 4.20466 0)
(6.78079 7.14799 0)
(29.9989 0.000627126 0)
(29.9854 0.00190262 0)
(29.9566 0.0032572 0)
(29.9124 0.00501684 0)
(29.855 0.00732147 0)
(29.7813 0.0104319 0)
(29.6902 0.0145289 0)
(29.5763 0.0204982 0)
(29.434 0.0286873 0)
(29.2569 0.0402655 0)
(29.0408 0.0563652 0)
(28.7596 0.0797407 0)
(28.4133 0.113084 0)
(27.9697 0.163515 0)
(27.4181 0.238215 0)
(26.6474 0.378176 0)
(25.6927 0.586143 0)
(24.1981 1.01594 0)
(22.2851 1.6418 0)
(19.0766 3.11248 0)
(13.9296 4.4477 0)
(6.90726 7.60012 0)
(29.9989 0.000660964 0)
(29.9854 0.00200507 0)
(29.9566 0.00343335 0)
(29.9125 0.00528785 0)
(29.8551 0.00771651 0)
(29.7814 0.010995 0)
(29.6904 0.0153139 0)
(29.5765 0.0216051 0)
(29.4342 0.0302414 0)
(29.2571 0.0424467 0)
(29.0406 0.0595548 0)
(28.7581 0.0839996 0)
(28.4129 0.119196 0)
(27.9697 0.172219 0)
(27.4182 0.251278 0)
(26.6482 0.397299 0)
(25.6926 0.616771 0)
(24.203 1.06367 0)
(22.31 1.72247 0)
(19.1401 3.26223 0)
(14.1072 4.68957 0)
(7.04026 8.05917 0)
(29.9989 0.000694788 0)
(29.9854 0.00210747 0)
(29.9566 0.00360954 0)
(29.9124 0.00555885 0)
(29.855 0.00811148 0)
(29.7813 0.011558 0)
(29.6902 0.0160988 0)
(29.5764 0.0227116 0)
(29.4342 0.031795 0)
(29.2575 0.0446436 0)
(29.0396 0.0627603 0)
(28.7571 0.0882402 0)
(28.4126 0.12531 0)
(27.9699 0.180934 0)
(27.4184 0.26434 0)
(26.6491 0.416431 0)
(25.6927 0.64737 0)
(24.2077 1.11111 0)
(22.3349 1.80228 0)
(19.2003 3.40918 0)
(14.285 4.93004 0)
(7.17947 8.52529 0)
(29.9988 0.000728595 0)
(29.9854 0.00220982 0)
(29.9566 0.00378577 0)
(29.9125 0.00582983 0)
(29.8551 0.00850641 0)
(29.7815 0.012121 0)
(29.6905 0.0168836 0)
(29.5767 0.0238187 0)
(29.4343 0.033344 0)
(29.2581 0.0469 0)
(29.0376 0.0659332 0)
(28.7565 0.0924853 0)
(28.4126 0.131434 0)
(27.9701 0.189651 0)
(27.4186 0.277398 0)
(26.6502 0.435571 0)
(25.693 0.677951 0)
(24.2128 1.15823 0)
(22.3603 1.88123 0)
(19.2585 3.55334 0)
(14.4636 5.16892 0)
(7.32461 8.99864 0)
(29.9988 0.000762388 0)
(29.9854 0.00231213 0)
(29.9566 0.00396202 0)
(29.9124 0.00610079 0)
(29.855 0.00890124 0)
(29.7814 0.0126838 0)
(29.6903 0.0176683 0)
(29.5766 0.0249257 0)
(29.4343 0.0348906 0)
(29.2586 0.0492001 0)
(29.0359 0.0690841 0)
(28.7561 0.0967522 0)
(28.4126 0.13756 0)
(27.9704 0.19837 0)
(27.419 0.290451 0)
(26.6514 0.454718 0)
(25.694 0.708512 0)
(24.2185 1.205 0)
(22.3866 1.95935 0)
(19.3155 3.69469 0)
(14.644 5.40605 0)
(7.47556 9.47939 0)
(29.9988 0.000796163 0)
(29.9855 0.0024144 0)
(29.9566 0.00413831 0)
(29.9125 0.00637174 0)
(29.8552 0.00929604 0)
(29.7816 0.0132466 0)
(29.6906 0.0184529 0)
(29.5769 0.0260329 0)
(29.4345 0.0364337 0)
(29.2589 0.0515288 0)
(29.0348 0.0721407 0)
(28.756 0.101035 0)
(28.4127 0.14369 0)
(27.9707 0.207086 0)
(27.4195 0.303498 0)
(26.6529 0.473867 0)
(25.6958 0.739042 0)
(24.2251 1.25138 0)
(22.4139 2.03666 0)
(19.3724 3.83322 0)
(14.8271 5.64129 0)
(7.63226 9.96772 0)
(29.9988 0.000829923 0)
(29.9854 0.00251661 0)
(29.9566 0.00431464 0)
(29.9124 0.00664265 0)
(29.855 0.00969075 0)
(29.7815 0.0138093 0)
(29.6904 0.0192372 0)
(29.5767 0.0271401 0)
(29.4345 0.0379736 0)
(29.259 0.0538389 0)
(29.0341 0.0751294 0)
(28.756 0.105327 0)
(28.4129 0.149819 0)
(27.9712 0.215801 0)
(27.4203 0.316538 0)
(26.6549 0.49301 0)
(25.6985 0.769517 0)
(24.2326 1.29737 0)
(22.4424 2.11317 0)
(19.4298 3.9689 0)
(15.0142 5.87452 0)
(7.79475 10.4638 0)
(29.9988 0.000863665 0)
(29.9855 0.00261879 0)
(29.9566 0.004491 0)
(29.9125 0.00691356 0)
(29.8552 0.0100854 0)
(29.7817 0.0143719 0)
(29.6907 0.0200219 0)
(29.577 0.0282458 0)
(29.4349 0.0395288 0)
(29.2587 0.0561288 0)
(29.0337 0.0780886 0)
(28.7561 0.109624 0)
(28.4131 0.155948 0)
(27.9717 0.224511 0)
(27.4212 0.329565 0)
(26.6572 0.512132 0)
(25.7024 0.799909 0)
(24.2412 1.34297 0)
(22.4718 2.18889 0)
(19.4883 4.10168 0)
(15.2065 6.10565 0)
(7.96316 10.968 0)
(29.9988 0.000897393 0)
(29.9855 0.00272091 0)
(29.9566 0.0046674 0)
(29.9124 0.00718443 0)
(29.8551 0.01048 0)
(29.7815 0.0149344 0)
(29.6905 0.0208064 0)
(29.5768 0.0293522 0)
(29.4351 0.0410927 0)
(29.2581 0.0585153 0)
(29.0336 0.0810553 0)
(28.7562 0.113923 0)
(28.4134 0.162074 0)
(27.9723 0.233217 0)
(27.4223 0.342576 0)
(26.66 0.53122 0)
(25.7074 0.830203 0)
(24.2508 1.38819 0)
(22.5023 2.26381 0)
(19.5483 4.23145 0)
(15.4053 6.33458 0)
(8.13771 11.4805 0)
(29.9988 0.000931103 0)
(29.9855 0.00282299 0)
(29.9566 0.00484383 0)
(29.9126 0.00745529 0)
(29.8552 0.0108746 0)
(29.7817 0.0154967 0)
(29.6908 0.0215909 0)
(29.577 0.0304577 0)
(29.4357 0.0426672 0)
(29.257 0.0608621 0)
(29.0336 0.084047 0)
(28.7564 0.118223 0)
(28.4137 0.168198 0)
(27.973 0.241916 0)
(27.4237 0.355564 0)
(26.6634 0.550259 0)
(25.7134 0.860392 0)
(24.2617 1.43305 0)
(22.5336 2.33794 0)
(19.6099 4.35811 0)
(15.6117 6.56123 0)
(8.31866 12.0015 0)
(29.9988 0.000964797 0)
(29.9855 0.00292503 0)
(29.9566 0.00502029 0)
(29.9125 0.0077261 0)
(29.8551 0.0112691 0)
(29.7816 0.0160588 0)
(29.6906 0.0223759 0)
(29.5768 0.0315584 0)
(29.4359 0.0442965 0)
(29.2562 0.0630662 0)
(29.0337 0.0870657 0)
(28.7567 0.122523 0)
(28.4141 0.174318 0)
(27.9737 0.250606 0)
(27.4253 0.368522 0)
(26.6672 0.569238 0)
(25.7203 0.890476 0)
(24.2738 1.47754 0)
(22.5659 2.41125 0)
(19.6733 4.48151 0)
(15.8267 6.78551 0)
(8.50633 12.5315 0)
(29.9988 0.000998475 0)
(29.9855 0.00302703 0)
(29.9567 0.00519679 0)
(29.9126 0.00799691 0)
(29.8553 0.0116636 0)
(29.7818 0.0166208 0)
(29.6909 0.023161 0)
(29.5771 0.0326585 0)
(29.4364 0.0459485 0)
(29.2555 0.065245 0)
(29.0338 0.0901044 0)
(28.757 0.126822 0)
(28.4145 0.180434 0)
(27.9746 0.259284 0)
(27.4272 0.381448 0)
(26.6714 0.588149 0)
(25.7282 0.920449 0)
(24.2871 1.52167 0)
(22.599 2.48375 0)
(19.7384 4.6015 0)
(16.051 7.00733 0)
(8.70106 13.0707 0)
(29.9988 0.00103214 0)
(29.9855 0.00312897 0)
(29.9566 0.00537331 0)
(29.9125 0.00826765 0)
(29.8551 0.012058 0)
(29.7817 0.0171826 0)
(29.6907 0.0239458 0)
(29.5769 0.0337581 0)
(29.4365 0.0476097 0)
(29.2552 0.067414 0)
(29.0341 0.0931545 0)
(28.7573 0.131119 0)
(28.415 0.186546 0)
(27.9756 0.267949 0)
(27.4293 0.394336 0)
(26.6761 0.606987 0)
(25.7369 0.950303 0)
(24.3018 1.56544 0)
(22.6329 2.55543 0)
(19.805 4.71792 0)
(16.2853 7.22659 0)
(8.90323 13.6196 0)
(29.9988 0.00106578 0)
(29.9855 0.00323088 0)
(29.9567 0.00554987 0)
(29.9126 0.0085384 0)
(29.8553 0.0124524 0)
(29.7819 0.0177444 0)
(29.6911 0.0247309 0)
(29.5773 0.0348571 0)
(29.4368 0.0492798 0)
(29.2552 0.0695619 0)
(29.0344 0.0962114 0)
(28.7577 0.135416 0)
(28.4155 0.192653 0)
(27.9766 0.276597 0)
(27.4316 0.407183 0)
(26.6812 0.625746 0)
(25.7465 0.980027 0)
(24.3179 1.60885 0)
(22.6678 2.62629 0)
(19.8729 4.83057 0)
(16.5294 7.44318 0)
(9.11317 14.1785 0)
(29.9988 0.00109942 0)
(29.9855 0.00333275 0)
(29.9566 0.00572645 0)
(29.9125 0.00880908 0)
(29.8551 0.0128466 0)
(29.7817 0.0183059 0)
(29.6908 0.0255155 0)
(29.5771 0.035956 0)
(29.4366 0.0509547 0)
(29.2555 0.0716948 0)
(29.0347 0.0992725 0)
(28.758 0.139711 0)
(28.416 0.198754 0)
(27.9778 0.285229 0)
(27.4341 0.419988 0)
(26.6866 0.64442 0)
(25.7568 1.00961 0)
(24.3354 1.65189 0)
(22.7037 2.69632 0)
(19.9421 4.93931 0)
(16.7835 7.65698 0)
(9.33121 14.7479 0)
(29.9988 0.00113303 0)
(29.9856 0.00343458 0)
(29.9567 0.00590306 0)
(29.9126 0.00907977 0)
(29.8554 0.0132409 0)
(29.782 0.0188675 0)
(29.6912 0.0262997 0)
(29.5776 0.0370556 0)
(29.4367 0.052632 0)
(29.2559 0.0738152 0)
(29.035 0.102337 0)
(28.7585 0.144005 0)
(28.4166 0.204849 0)
(27.979 0.293842 0)
(27.4368 0.432749 0)
(26.6923 0.663004 0)
(25.7679 1.03903 0)
(24.3543 1.69457 0)
(22.7407 2.76555 0)
(20.0125 5.04395 0)
(17.0472 7.86787 0)
(9.55764 15.3281 0)
(29.9988 0.00116664 0)
(29.9855 0.00353636 0)
(29.9566 0.00607968 0)
(29.9125 0.00935039 0)
(29.8552 0.0136349 0)
(29.7818 0.0194291 0)
(29.6909 0.0270833 0)
(29.5775 0.0381515 0)
(29.4363 0.0543086 0)
(29.2564 0.0759262 0)
(29.0354 0.105404 0)
(28.7589 0.148298 0)
(28.4172 0.210937 0)
(27.9803 0.302435 0)
(27.4397 0.445463 0)
(26.6983 0.68149 0)
(25.7798 1.06828 0)
(24.3747 1.73688 0)
(22.7789 2.83396 0)
(20.0841 5.14436 0)
(17.3203 8.07569 0)
(9.79273 15.9195 0)
(29.9988 0.00120023 0)
(29.9856 0.00363812 0)
(29.9567 0.00625633 0)
(29.9127 0.00962099 0)
(29.8554 0.0140291 0)
(29.7821 0.01999 0)
(29.6912 0.0278698 0)
(29.578 0.0392441 0)
(29.4362 0.0559131 0)
(29.2569 0.078029 0)
(29.0358 0.108473 0)
(28.7593 0.152589 0)
(28.4178 0.217018 0)
(27.9817 0.311008 0)
(27.4427 0.458128 0)
(26.7046 0.699873 0)
(25.7923 1.09734 0)
(24.3966 1.77881 0)
(22.8185 2.90156 0)
(20.1572 5.24038 0)
(17.6026 8.28032 0)
(10.0367 16.5227 0)
(29.9988 0.0012338 0)
(29.9855 0.00373983 0)
(29.9566 0.00643298 0)
(29.9125 0.00989156 0)
(29.8552 0.0144228 0)
(29.7819 0.0205523 0)
(29.6909 0.0286476 0)
(29.578 0.0403878 0)
(29.4356 0.0573025 0)
(29.2575 0.0801345 0)
(29.0363 0.111544 0)
(28.7598 0.156878 0)
(28.4185 0.223091 0)
(27.9831 0.319559 0)
(27.4458 0.470743 0)
(26.7112 0.718146 0)
(25.8056 1.12621 0)
(24.4199 1.82035 0)
(22.8596 2.96835 0)
(20.2319 5.33187 0)
(17.8941 8.48159 0)
(10.2898 17.1378 0)
(29.9988 0.00126737 0)
(29.9856 0.00384151 0)
(29.9567 0.00660966 0)
(29.9127 0.0101621 0)
(29.8554 0.0148167 0)
(29.7822 0.0211131 0)
(29.6913 0.0294337 0)
(29.5785 0.0414966 0)
(29.4353 0.0591516 0)
(29.2581 0.0822721 0)
(29.0367 0.114616 0)
(28.7603 0.161166 0)
(28.4192 0.229156 0)
(27.9846 0.328087 0)
(27.4491 0.483306 0)
(26.7181 0.736303 0)
(25.8195 1.15485 0)
(24.4446 1.86149 0)
(22.9026 3.03432 0)
(20.3084 5.41871 0)
(18.195 8.67935 0)
(10.5522 17.7655 0)
(29.9988 0.00130092 0)
(29.9855 0.00394313 0)
(29.9566 0.00678635 0)
(29.9126 0.0104325 0)
(29.8553 0.0152106 0)
(29.782 0.0216736 0)
(29.691 0.0302143 0)
(29.5784 0.0426517 0)
(29.435 0.0609368 0)
(29.2586 0.0844404 0)
(29.0371 0.117689 0)
(28.7608 0.165451 0)
(28.42 0.235213 0)
(27.9862 0.336591 0)
(27.4525 0.495813 0)
(26.7252 0.754338 0)
(25.834 1.18326 0)
(24.4707 1.90221 0)
(22.9476 3.09947 0)
(20.3867 5.50076 0)
(18.5056 8.87346 0)
(10.8242 18.4061 0)
(29.9988 0.00133446 0)
(29.9856 0.00404473 0)
(29.9567 0.00696302 0)
(29.9127 0.0107032 0)
(29.8555 0.0156035 0)
(29.7823 0.0222392 0)
(29.6915 0.0309753 0)
(29.5786 0.0438278 0)
(29.435 0.062441 0)
(29.259 0.0866199 0)
(29.0376 0.120763 0)
(28.7613 0.169734 0)
(28.4207 0.241261 0)
(27.9878 0.345071 0)
(27.4561 0.508265 0)
(26.7326 0.772245 0)
(25.8492 1.21143 0)
(24.4981 1.94249 0)
(22.9951 3.1638 0)
(20.4666 5.57787 0)
(18.8262 9.06374 0)
(11.106 19.06 0)
(29.9988 0.001368 0)
(29.9856 0.00414629 0)
(29.9566 0.00713971 0)
(29.9126 0.0109733 0)
(29.8553 0.0159977 0)
(29.7821 0.0227953 0)
(29.6913 0.031796 0)
(29.5778 0.0447089 0)
(29.4349 0.0638793 0)
(29.2594 0.0887993 0)
(29.038 0.123835 0)
(28.7619 0.174015 0)
(28.4215 0.2473 0)
(27.9894 0.353527 0)
(27.4597 0.520658 0)
(26.7402 0.790019 0)
(25.8649 1.23934 0)
(24.5267 1.9823 0)
(23.0452 3.2273 0)
(20.5477 5.64991 0)
(19.1558 9.25008 0)
(11.3978 19.7276 0)
(29.9988 0.00140152 0)
(29.9856 0.00424788 0)
(29.9567 0.00731647 0)
(29.9127 0.0112438 0)
(29.8556 0.0163911 0)
(29.7822 0.0233572 0)
(29.6923 0.0325923 0)
(29.5757 0.0460247 0)
(29.4348 0.0653486 0)
(29.2597 0.0909762 0)
(29.0384 0.126906 0)
(28.7624 0.178292 0)
(28.4223 0.25333 0)
(27.9911 0.361956 0)
(27.4635 0.53299 0)
(26.7481 0.807656 0)
(25.8811 1.26698 0)
(24.5565 2.02162 0)
(23.0985 3.28998 0)
(20.6292 5.71679 0)
(19.4914 9.43248 0)
(11.6998 20.4103 0)
(29.9988 0.00143488 0)
(29.9856 0.00434934 0)
(29.9567 0.0074933 0)
(29.9126 0.0115141 0)
(29.8554 0.0167855 0)
(29.7819 0.0239168 0)
(29.6924 0.0334033 0)
(29.5739 0.0474205 0)
(29.4347 0.0668548 0)
(29.2599 0.0931533 0)
(29.0388 0.129975 0)
(28.763 0.182567 0)
(28.4231 0.259349 0)
(27.9928 0.37036 0)
(27.4673 0.54526 0)
(26.7561 0.82515 0)
(25.8977 1.29433 0)
(24.5872 2.06038 0)
(23.1553 3.35185 0)
(20.7104 5.7785 0)
(19.8261 9.61062 0)
(12.0117 21.1153 0)
(29.9988 0.00146773 0)
(29.9856 0.00444988 0)
(29.9567 0.00766888 0)
(29.9127 0.0117827 0)
(29.8557 0.0171777 0)
(29.7822 0.0244661 0)
(29.693 0.0342686 0)
(29.5733 0.0485417 0)
(29.4346 0.0683708 0)
(29.26 0.0953266 0)
(29.0391 0.133044 0)
(28.7635 0.186837 0)
(28.424 0.265355 0)
(27.9946 0.378741 0)
(27.4712 0.557467 0)
(26.7644 0.8425 0)
(25.9148 1.32139 0)
(24.6189 2.09853 0)
(23.2162 3.41295 0)
(20.7913 5.8351 0)
(20.1485 9.78249 0)
(12.4196 21.8642 0)
(-0.191135 0.0209809 0)
(-1.66104 0.0266527 0)
(-2.64016 0.00910377 0)
(-2.53335 -0.00652142 0)
(-1.90475 -0.00969478 0)
(-1.39431 -0.00632434 0)
(-1.10089 -0.00256116 0)
(-1.05246 -0.000273051 0)
(-1.06798 -0.000220399 0)
(-1.02389 -0.000306578 0)
(-1.02042 -0.000118158 0)
(-0.995991 -0.000898088 0)
(-0.823861 -0.00216305 0)
(-0.503322 -0.00335657 0)
(0.000215589 -0.00448696 0)
(0.677756 -0.00583692 0)
(1.64086 -0.0077209 0)
(2.99962 -0.00942154 0)
(4.6979 -0.00984593 0)
(6.4688 -0.00901781 0)
(8.18127 -0.00785146 0)
(9.78266 -0.00671587 0)
(11.2488 -0.00569777 0)
(12.6052 -0.00492216 0)
(13.8918 -0.00432468 0)
(15.119 -0.0039554 0)
(16.3835 -0.00379596 0)
(17.7132 -0.00307854 0)
(18.6533 -0.0023093 0)
(19.5094 -0.00862598 0)
(26.2979 -0.0107499 0)
(29.5709 -0.00340381 0)
(29.7185 -0.000111181 0)
(29.6929 -1.67683e-05 0)
(29.7396 -3.79076e-05 0)
(-0.17244 0.0620732 0)
(-1.63555 0.0795399 0)
(-2.60802 0.0271375 0)
(-2.50106 -0.0194064 0)
(-1.87538 -0.0290509 0)
(-1.36657 -0.0189258 0)
(-1.07196 -0.00763323 0)
(-1.02349 -0.000680739 0)
(-1.04526 -0.000460682 0)
(-1.01514 -0.000778171 0)
(-1.02196 -0.000357465 0)
(-0.997557 -0.00272374 0)
(-0.821792 -0.00652096 0)
(-0.496259 -0.0101221 0)
(0.0172265 -0.013462 0)
(0.705218 -0.0172341 0)
(1.65946 -0.0225002 0)
(2.98817 -0.0274241 0)
(4.6549 -0.0288882 0)
(6.41299 -0.0267921 0)
(8.13382 -0.0235152 0)
(9.74989 -0.0201435 0)
(11.2281 -0.0171016 0)
(12.5914 -0.0147741 0)
(13.8788 -0.0129725 0)
(15.1033 -0.0118371 0)
(16.3573 -0.0113638 0)
(17.6855 -0.0093102 0)
(18.6551 -0.00668167 0)
(19.4195 -0.0255302 0)
(26.0183 -0.0325648 0)
(29.5408 -0.010634 0)
(29.7243 -0.000366194 0)
(29.6948 -4.25258e-05 0)
(29.7401 -0.000112261 0)
(-0.148124 0.101955 0)
(-1.60613 0.13214 0)
(-2.57046 0.0449593 0)
(-2.45694 -0.032262 0)
(-1.82917 -0.0484858 0)
(-1.32551 -0.031521 0)
(-1.03253 -0.0127631 0)
(-0.988182 -0.00101318 0)
(-1.01848 -0.000474153 0)
(-1.00167 -0.000904561 0)
(-1.01789 -0.00041712 0)
(-0.991508 -0.00454051 0)
(-0.810769 -0.0109288 0)
(-0.479028 -0.0169621 0)
(0.0467339 -0.0224997 0)
(0.745525 -0.0285044 0)
(1.68797 -0.0368022 0)
(2.98421 -0.0447311 0)
(4.62063 -0.0473927 0)
(6.36974 -0.0443894 0)
(8.10239 -0.0392622 0)
(9.73452 -0.0337207 0)
(11.2244 -0.0285804 0)
(12.5939 -0.0246291 0)
(13.8815 -0.0215832 0)
(15.1027 -0.0196513 0)
(16.346 -0.0188647 0)
(17.6704 -0.0155948 0)
(18.6667 -0.0110088 0)
(19.3534 -0.0415937 0)
(25.7626 -0.0544325 0)
(29.5113 -0.0184242 0)
(29.7298 -0.00069517 0)
(29.6966 -5.88292e-05 0)
(29.7405 -0.00018412 0)
(-0.117999 0.140492 0)
(-1.57332 0.184496 0)
(-2.52676 0.0624191 0)
(-2.39966 -0.0454322 0)
(-1.76743 -0.0678538 0)
(-1.27234 -0.0439506 0)
(-0.984125 -0.0177388 0)
(-0.945718 -0.00114266 0)
(-0.983975 -0.000214832 0)
(-0.979714 -0.000788838 0)
(-1.0063 -0.000406997 0)
(-0.977438 -0.00646649 0)
(-0.790728 -0.0155007 0)
(-0.450853 -0.0240747 0)
(0.0903683 -0.0319284 0)
(0.802235 -0.0400656 0)
(1.73148 -0.0511818 0)
(2.99164 -0.0620537 0)
(4.5962 -0.065989 0)
(6.33905 -0.0621684 0)
(8.08701 -0.0551895 0)
(9.73683 -0.0474296 0)
(11.2388 -0.0401383 0)
(12.614 -0.0345171 0)
(13.9014 -0.0301921 0)
(15.1183 -0.027428 0)
(16.3501 -0.0263264 0)
(17.6682 -0.0219427 0)
(18.6885 -0.0151963 0)
(19.3107 -0.0571373 0)
(25.5304 -0.07629 0)
(29.4822 -0.0267359 0)
(29.7348 -0.00108004 0)
(29.6984 -6.67436e-05 0)
(29.741 -0.000253837 0)
(-0.0816338 0.177468 0)
(-1.53731 0.23655 0)
(-2.47601 0.0793072 0)
(-2.32803 -0.058991 0)
(-1.69056 -0.0870944 0)
(-1.2072 -0.0560891 0)
(-0.927206 -0.0225164 0)
(-0.895742 -0.00108602 0)
(-0.941344 0.000287212 0)
(-0.949172 -0.000417637 0)
(-0.985925 -0.000306657 0)
(-0.953731 -0.00847988 0)
(-0.760052 -0.0202259 0)
(-0.410127 -0.0314202 0)
(0.150591 -0.0416204 0)
(0.880285 -0.0516862 0)
(1.79692 -0.0653188 0)
(3.01636 -0.0790525 0)
(4.58524 -0.0844598 0)
(6.3237 -0.0800455 0)
(8.09043 -0.0712975 0)
(9.75981 -0.0612872 0)
(11.2744 -0.0517779 0)
(12.655 -0.0444291 0)
(13.9411 -0.0387849 0)
(15.1526 -0.035152 0)
(16.3714 -0.0337293 0)
(17.6801 -0.0283302 0)
(18.7217 -0.0193022 0)
(19.2912 -0.0721308 0)
(25.3199 -0.0981095 0)
(29.4537 -0.0355117 0)
(29.7394 -0.00152359 0)
(29.7002 -6.72067e-05 0)
(29.7415 -0.0003214 0)
(-0.0385725 0.212653 0)
(-1.49822 0.288288 0)
(-2.41708 0.0953837 0)
(-2.24039 -0.0730893 0)
(-1.59832 -0.106205 0)
(-1.12975 -0.0678547 0)
(-0.861571 -0.0270415 0)
(-0.837448 -0.000839854 0)
(-0.889839 0.00102043 0)
(-0.909644 0.000197799 0)
(-0.955548 -0.000132594 0)
(-0.9188 -0.0105899 0)
(-0.717373 -0.0250958 0)
(-0.355872 -0.0389925 0)
(0.228597 -0.0515812 0)
(0.983203 -0.0633235 0)
(1.89191 -0.0790648 0)
(3.06753 -0.0955328 0)
(4.59534 -0.102684 0)
(6.32974 -0.0979941 0)
(8.11796 -0.0875916 0)
(9.80892 -0.0752956 0)
(11.337 -0.0634937 0)
(12.7223 -0.0543552 0)
(14.0056 -0.0473496 0)
(15.2094 -0.0428104 0)
(16.4128 -0.0410563 0)
(17.7085 -0.0347392 0)
(18.7681 -0.0233511 0)
(19.2959 -0.0865893 0)
(25.1293 -0.119843 0)
(29.4256 -0.0447018 0)
(29.7436 -0.00202461 0)
(29.702 -6.10637e-05 0)
(29.742 -0.000386877 0)
(0.0116288 0.245806 0)
(-1.45603 0.339686 0)
(-2.34858 0.110379 0)
(-2.13435 -0.0878796 0)
(-1.48985 -0.12514 0)
(-1.03907 -0.0791588 0)
(-0.786376 -0.0312621 0)
(-0.769616 -0.000408411 0)
(-0.828267 0.00197765 0)
(-0.860185 0.00104481 0)
(-0.913809 8.86911e-05 0)
(-0.871004 -0.0128179 0)
(-0.661257 -0.0301274 0)
(-0.286821 -0.0468421 0)
(0.325639 -0.061912 0)
(1.11375 -0.0750887 0)
(2.0241 -0.0924484 0)
(3.15711 -0.111428 0)
(4.63839 -0.120604 0)
(6.36705 -0.116011 0)
(8.17825 -0.104085 0)
(9.89289 -0.0894654 0)
(11.4355 -0.0752846 0)
(12.8248 -0.0642846 0)
(14.1024 -0.0558698 0)
(15.2948 -0.0503844 0)
(16.479 -0.0482857 0)
(17.7569 -0.0411481 0)
(18.8299 -0.0273562 0)
(19.3266 -0.100521 0)
(24.9569 -0.141454 0)
(29.3982 -0.0542648 0)
(29.7473 -0.00258183 0)
(29.7038 -4.91804e-05 0)
(29.7426 -0.000450338 0)
(0.0693644 0.276678 0)
(-1.41063 0.390689 0)
(-2.26875 0.123967 0)
(-2.00693 -0.103495 0)
(-1.36403 -0.143797 0)
(-0.933956 -0.0898979 0)
(-0.700359 -0.0351253 0)
(-0.690704 0.00020023 0)
(-0.755014 0.00315396 0)
(-0.799229 0.00211 0)
(-0.858869 0.000323253 0)
(-0.808191 -0.0151875 0)
(-0.589435 -0.0353494 0)
(-0.200205 -0.0550397 0)
(0.444829 -0.0727466 0)
(1.27599 -0.0871654 0)
(2.20181 -0.105609 0)
(3.29968 -0.126749 0)
(4.73104 -0.138172 0)
(6.45042 -0.134078 0)
(8.28458 -0.120784 0)
(10.0251 -0.103808 0)
(11.5836 -0.0871484 0)
(12.976 -0.0742002 0)
(14.2438 -0.0643187 0)
(15.4186 -0.0578436 0)
(16.5771 -0.0553858 0)
(17.8302 -0.0475286 0)
(18.9108 -0.0313286 0)
(19.3872 -0.11393 0)
(24.8022 -0.162887 0)
(29.3715 -0.064164 0)
(29.7504 -0.00319382 0)
(29.7055 -3.24687e-05 0)
(29.7431 -0.000511857 0)
(0.134933 0.305008 0)
(-1.3618 0.441213 0)
(-2.17551 0.135761 0)
(-1.8551 -0.120048 0)
(-1.2201 -0.162037 0)
(-0.81328 -0.0999693 0)
(-0.602088 -0.0385829 0)
(-0.598961 0.000972322 0)
(-0.668103 0.00454215 0)
(-0.724589 0.0033751 0)
(-0.788143 0.000532183 0)
(-0.727297 -0.0177289 0)
(-0.498242 -0.0407968 0)
(-0.0911192 -0.0636572 0)
(0.592035 -0.0842159 0)
(1.47683 -0.0997585 0)
(2.43543 -0.118756 0)
(3.51286 -0.141582 0)
(4.89551 -0.155363 0)
(6.6012 -0.15216 0)
(8.45676 -0.137685 0)
(10.2255 -0.118338 0)
(11.8018 -0.0990842 0)
(13.1962 -0.0840779 0)
(14.4485 -0.0726538 0)
(15.5956 -0.0651385 0)
(16.7176 -0.0623077 0)
(17.9358 -0.0538403 0)
(19.0155 -0.0352774 0)
(19.4838 -0.126815 0)
(24.6661 -0.184075 0)
(29.3457 -0.0743622 0)
(29.753 -0.0038589 0)
(29.7073 -1.19033e-05 0)
(29.7437 -0.000571517 0)
(0.208494 0.330519 0)
(-1.30918 0.491132 0)
(-2.06641 0.145322 0)
(-1.67661 -0.13762 0)
(-1.05811 -0.179685 0)
(-0.676425 -0.109287 0)
(-0.490209 -0.0415994 0)
(-0.492562 0.00188478 0)
(-0.56529 0.00612643 0)
(-0.633473 0.00481287 0)
(-0.698133 0.000664957 0)
(-0.624093 -0.0204814 0)
(-0.382331 -0.0465192 0)
(0.047726 -0.0727768 0)
(0.776025 -0.0964531 0)
(1.72615 -0.113087 0)
(2.73754 -0.132156 0)
(3.81684 -0.156102 0)
(5.15986 -0.172208 0)
(6.84876 -0.170237 0)
(8.72285 -0.154792 0)
(10.5219 -0.133079 0)
(12.1182 -0.111099 0)
(13.5144 -0.0938906 0)
(14.744 -0.0808133 0)
(15.8485 -0.0721904 0)
(16.9163 -0.068976 0)
(18.0841 -0.0600231 0)
(19.1502 -0.0392081 0)
(19.6253 -0.139164 0)
(24.5514 -0.204931 0)
(29.3212 -0.0848188 0)
(29.755 -0.0045749 0)
(29.709 1.14862e-05 0)
(29.7443 -0.000629412 0)
(0.290003 0.352925 0)
(-1.25228 0.540267 0)
(-1.93871 0.152187 0)
(-1.47106 -0.156239 0)