/*--------------------------------*- C++ -*----------------------------------*\
| =========                 |                                                 |
| \\      /  F ield         | OpenFOAM: The Open Source CFD Toolbox           |
|  \\    /   O peration     | Version:  v1912                                 |
|   \\  /    A nd           | Website:  www.openfoam.com                      |
|    \\/     M anipulation  |                                                 |
\*---------------------------------------------------------------------------*/
FoamFile
{
    version     2.0;
    format      ascii;
    class       volScalarField;
    location    "380";
    object      yPlus;
}
// * * * * * * * * * * * * * * * * * * * * * * * * * * * * * * * * * * * * * //

dimensions      [0 0 0 0 0 0 0];


internalField   uniform 0;

boundaryField
{
    inlet
    {
        type            calculated;
        value           uniform 0;
    }
    outlet
    {
        type            calculated;
        value           uniform 0;
    }
    lowerSymmetry
    {
        type            symmetryPlane;
    }
    obstical
    {
        type            calculated;
        value           nonuniform List<scalar> 
88
(
480.992
483.194
487.593
494.169
502.857
513.568
526.213
540.702
556.948
574.87
594.389
615.427
637.902
661.722
686.793
713.021
740.316
768.597
797.794
827.846
858.705
890.334
922.705
955.8
989.608
1024.13
1059.36
1095.32
1132.02
1169.48
1207.71
1246.75
1286.61
1327.31
1368.87
1411.32
1454.68
1498.97
1544.21
1590.42
1637.63
1685.91
1735.66
1790.81
25.1661
24.2443
23.8899
24.2647
25.478
27.5823
30.5769
34.4304
39.1002
44.5406
50.7012
57.5196
64.9127
72.7676
80.9313
89.2011
97.3169
105.094
112.347
118.891
124.536
129.098
132.395
134.259
134.539
133.111
129.881
124.793
117.834
109.046
98.5414
86.5554
73.5537
60.5463
49.9189
46.41
53.3861
67.9084
86.3187
107.136
130.009
154.894
181.804
211.518
)
;
    }
    obsticalTop
    {
        type            calculated;
        value           nonuniform List<scalar> 
20
(
53.3706
38.7515
47.123
53.2225
56.0739
57.715
58.3239
58.0245
57.0828
55.6309
53.6444
51.0138
47.6445
43.3496
38.0989
31.2498
24.8705
15.3364
13.8502
11.2973
)
;
    }
    top
    {
        type            calculated;
        value           uniform 0;
    }
    defaultFaces
    {
        type            empty;
    }
}


// ************************************************************************* //
