/*--------------------------------*- C++ -*----------------------------------*\
| =========                 |                                                 |
| \\      /  F ield         | OpenFOAM: The Open Source CFD Toolbox           |
|  \\    /   O peration     | Version:  v1912                                 |
|   \\  /    A nd           | Website:  www.openfoam.com                      |
|    \\/     M anipulation  |                                                 |
\*---------------------------------------------------------------------------*/
FoamFile
{
    version     2.0;
    format      ascii;
    class       volScalarField;
    location    "300";
    object      p;
}
// * * * * * * * * * * * * * * * * * * * * * * * * * * * * * * * * * * * * * //

dimensions      [0 2 -2 0 0 0 0];


internalField   nonuniform List<scalar> 
10000
(
0.00215393
0.00215648
0.0021639
0.00217576
0.00219174
0.00221213
0.00223742
0.00226819
0.00230516
0.00234929
0.00240184
0.00246475
0.00254012
0.00263293
0.00274507
0.0028971
0.00307187
0.00340549
0.00365125
0.00603299
0.00215392
0.00215647
0.0021639
0.00217575
0.00219174
0.00221213
0.00223741
0.00226819
0.00230515
0.00234928
0.00240183
0.00246474
0.0025401
0.00263291
0.00274504
0.00289704
0.00307183
0.00340509
0.00365696
0.00536849
0.00215392
0.00215647
0.0021639
0.00217575
0.00219173
0.00221212
0.0022374
0.00226818
0.00230514
0.00234927
0.00240181
0.00246471
0.00254007
0.00263287
0.00274498
0.00289694
0.00307173
0.00340449
0.00365929
0.00514573
0.00215391
0.00215646
0.00216389
0.00217574
0.00219172
0.00221211
0.00223739
0.00226816
0.00230512
0.00234924
0.00240178
0.00246467
0.00254002
0.00263279
0.00274489
0.00289677
0.00307156
0.0034036
0.00365974
0.00513169
0.0021539
0.00215645
0.00216387
0.00217572
0.0021917
0.00221209
0.00223737
0.00226813
0.00230509
0.0023492
0.00240173
0.00246461
0.00253994
0.00263269
0.00274476
0.00289653
0.00307132
0.00340237
0.0036596
0.00511479
0.00215389
0.00215643
0.00216385
0.0021757
0.00219168
0.00221206
0.00223734
0.0022681
0.00230505
0.00234916
0.00240167
0.00246454
0.00253984
0.00263255
0.00274459
0.00289621
0.00307098
0.00340078
0.00365891
0.00507305
0.00215387
0.00215641
0.00216383
0.00217568
0.00219166
0.00221203
0.0022373
0.00226806
0.002305
0.00234909
0.0024016
0.00246444
0.00253972
0.00263238
0.00274437
0.0028958
0.00307054
0.00339881
0.00365758
0.00502346
0.00215385
0.00215638
0.0021638
0.00217565
0.00219162
0.00221199
0.00223726
0.002268
0.00230493
0.00234902
0.0024015
0.00246432
0.00253956
0.00263216
0.00274409
0.00289529
0.00307
0.00339643
0.00365567
0.0049725
0.00215382
0.00215635
0.00216376
0.00217561
0.00219158
0.00221194
0.0022372
0.00226794
0.00230486
0.00234892
0.00240139
0.00246417
0.00253938
0.0026319
0.00274376
0.00289468
0.00306932
0.0033936
0.00365323
0.00492015
0.00215379
0.00215631
0.00216371
0.00217556
0.00219153
0.00221188
0.00223713
0.00226786
0.00230476
0.00234881
0.00240125
0.002464
0.00253916
0.00263159
0.00274337
0.00289396
0.00306851
0.00339029
0.00365028
0.00486588
0.00215375
0.00215626
0.00216366
0.0021755
0.00219146
0.00221181
0.00223705
0.00226777
0.00230466
0.00234868
0.00240109
0.0024638
0.0025389
0.00263123
0.0027429
0.0028931
0.00306754
0.00338647
0.0036468
0.00480965
0.0021537
0.0021562
0.00216359
0.00217543
0.00219139
0.00221173
0.00223696
0.00226766
0.00230453
0.00234853
0.00240091
0.00246356
0.00253861
0.00263081
0.00274236
0.00289211
0.00306639
0.00338208
0.00364274
0.00475156
0.00215364
0.00215614
0.00216352
0.00217535
0.00219131
0.00221164
0.00223685
0.00226753
0.00230438
0.00234836
0.00240069
0.00246329
0.00253826
0.00263033
0.00274174
0.00289097
0.00306506
0.00337709
0.00363807
0.00469172
0.00215357
0.00215605
0.00216343
0.00217526
0.00219121
0.00221153
0.00223673
0.00226739
0.00230421
0.00234815
0.00240045
0.00246298
0.00253786
0.00262977
0.00274101
0.00288966
0.00306351
0.00337146
0.00363273
0.00463022
0.00215349
0.00215596
0.00216332
0.00217516
0.00219109
0.0022114
0.00223658
0.00226722
0.00230402
0.00234792
0.00240016
0.00246262
0.00253741
0.00262914
0.00274019
0.00288816
0.00306172
0.00336514
0.00362664
0.00456717
0.0021534
0.00215585
0.0021632
0.00217503
0.00219096
0.00221125
0.00223641
0.00226703
0.00230379
0.00234765
0.00239984
0.00246221
0.00253689
0.00262841
0.00273924
0.00288646
0.00305965
0.0033581
0.00361971
0.00450269
0.00215329
0.00215573
0.00216306
0.00217489
0.00219081
0.00221108
0.00223622
0.00226681
0.00230354
0.00234735
0.00239947
0.00246175
0.0025363
0.00262759
0.00273816
0.00288454
0.00305729
0.0033503
0.00361185
0.00443694
0.00215316
0.00215558
0.0021629
0.00217472
0.00219063
0.00221089
0.002236
0.00226656
0.00230325
0.002347
0.00239905
0.00246122
0.00253563
0.00262665
0.00273693
0.00288237
0.00305458
0.0033417
0.00360291
0.0043701
0.00215301
0.00215542
0.00216272
0.00217454
0.00219044
0.00221067
0.00223575
0.00226627
0.00230292
0.00234661
0.00239857
0.00246062
0.00253487
0.0026256
0.00273554
0.00287993
0.00305149
0.00333227
0.00359277
0.0043024
0.00215284
0.00215523
0.00216251
0.00217432
0.00219021
0.00221041
0.00223547
0.00226595
0.00230254
0.00234616
0.00239803
0.00245994
0.002534
0.0026244
0.00273395
0.00287719
0.00304796
0.00332198
0.00358127
0.00423411
0.00215264
0.00215501
0.00216227
0.00217408
0.00218995
0.00221013
0.00223515
0.00226559
0.00230212
0.00234566
0.00239742
0.00245918
0.00253303
0.00262306
0.00273216
0.00287413
0.00304395
0.00331081
0.00356824
0.00416552
0.00215241
0.00215477
0.00216201
0.00217381
0.00218966
0.00220981
0.00223479
0.00226518
0.00230164
0.0023451
0.00239674
0.00245832
0.00253194
0.00262155
0.00273014
0.00287073
0.00303939
0.00329873
0.00355349
0.00409696
0.00215214
0.00215449
0.00216171
0.00217349
0.00218933
0.00220945
0.00223438
0.00226471
0.00230111
0.00234446
0.00239597
0.00245736
0.00253071
0.00261987
0.00272787
0.00286695
0.00303422
0.00328573
0.00353687
0.00402875
0.00215184
0.00215417
0.00216136
0.00217314
0.00218896
0.00220904
0.00223393
0.0022642
0.00230051
0.00234375
0.00239511
0.00245628
0.00252933
0.00261798
0.00272531
0.00286277
0.00302839
0.00327179
0.00351823
0.00396115
0.00215149
0.00215381
0.00216098
0.00217274
0.00218854
0.00220858
0.00223341
0.00226361
0.00229983
0.00234295
0.00239414
0.00245507
0.00252778
0.00261587
0.00272245
0.00285815
0.00302183
0.00325687
0.00349749
0.00389438
0.0021511
0.0021534
0.00216054
0.00217229
0.00218806
0.00220806
0.00223283
0.00226295
0.00229907
0.00234205
0.00239305
0.00245371
0.00252604
0.00261351
0.00271923
0.00285302
0.00301446
0.0032409
0.00347457
0.00382858
0.00215065
0.00215293
0.00216005
0.00217177
0.00218752
0.00220747
0.00223217
0.0022622
0.00229821
0.00234103
0.00239182
0.00245217
0.00252407
0.00261085
0.0027156
0.00284734
0.00300619
0.00322384
0.00344945
0.00376379
0.00215013
0.0021524
0.0021595
0.00217119
0.0021869
0.00220679
0.00223142
0.00226136
0.00229723
0.00233988
0.00239043
0.00245044
0.00252186
0.00260787
0.00271153
0.00284104
0.00299695
0.00320561
0.00342217
0.00370002
0.00214955
0.00215181
0.00215887
0.00217054
0.00218621
0.00220604
0.00223058
0.0022604
0.00229613
0.00233858
0.00238886
0.00244849
0.00251937
0.00260453
0.00270696
0.00283407
0.00298666
0.00318616
0.00339278
0.00363724
0.00214889
0.00215113
0.00215816
0.00216979
0.00218542
0.00220518
0.00222962
0.00225932
0.00229488
0.00233711
0.00238708
0.00244629
0.00251656
0.00260079
0.00270184
0.00282636
0.00297526
0.00316546
0.00336139
0.00357542
0.00214814
0.00215036
0.00215736
0.00216895
0.00218452
0.00220421
0.00222854
0.0022581
0.00229347
0.00233545
0.00238509
0.00244381
0.00251342
0.0025966
0.00269613
0.00281786
0.0029627
0.00314346
0.0033281
0.00351449
0.00214729
0.0021495
0.00215646
0.00216801
0.00218352
0.00220311
0.00222732
0.00225672
0.00229189
0.00233359
0.00238284
0.00244103
0.00250989
0.00259193
0.00268976
0.00280851
0.00294893
0.00312014
0.00329302
0.0034544
0.00214633
0.00214853
0.00215545
0.00216694
0.00218238
0.00220187
0.00222595
0.00225517
0.0022901
0.00233149
0.00238032
0.00243792
0.00250594
0.00258672
0.00268269
0.00279824
0.00293388
0.00309548
0.0032563
0.00339511
0.00214525
0.00214743
0.00215431
0.00216574
0.0021811
0.00220048
0.00222441
0.00225343
0.0022881
0.00232914
0.0023775
0.00243444
0.00250153
0.00258093
0.00267487
0.002787
0.00291753
0.00306947
0.00321806
0.00333656
0.00214403
0.00214619
0.00215302
0.00216439
0.00217966
0.00219892
0.00222267
0.00225147
0.00228585
0.0023265
0.00237433
0.00243055
0.00249661
0.0025745
0.00266622
0.00277472
0.00289982
0.0030421
0.00317843
0.00327872
0.00214265
0.0021448
0.00215158
0.00216287
0.00217804
0.00219716
0.00222073
0.00224928
0.00228333
0.00232354
0.00237079
0.0024262
0.00249115
0.00256739
0.00265669
0.00276136
0.00288075
0.00301339
0.00313757
0.00322155
0.00214111
0.00214324
0.00214996
0.00216116
0.00217622
0.00219518
0.00221854
0.00224681
0.0022805
0.00232024
0.00236684
0.00242137
0.00248508
0.00255954
0.00264623
0.00274686
0.00286028
0.00298335
0.0030956
0.00316501
0.00213937
0.00214148
0.00214814
0.00215925
0.00217417
0.00219296
0.00221609
0.00224406
0.00227734
0.00231655
0.00236244
0.00241599
0.00247835
0.00255088
0.00263478
0.00273116
0.0028384
0.00295201
0.00305267
0.00310911
0.00213742
0.00213951
0.0021461
0.0021571
0.00217188
0.00219048
0.00221335
0.00224097
0.00227381
0.00231243
0.00235754
0.00241003
0.00247092
0.00254136
0.00262228
0.00271423
0.00281512
0.00291942
0.0030089
0.00305381
0.00213523
0.00213729
0.00214382
0.0021547
0.00216932
0.0021877
0.00221028
0.00223753
0.00226988
0.00230785
0.00235209
0.00240342
0.00246272
0.00253093
0.00260868
0.00269602
0.00279043
0.00288562
0.00296443
0.00299912
0.00213277
0.00213481
0.00214126
0.00215201
0.00216645
0.00218459
0.00220685
0.00223368
0.00226549
0.00230275
0.00234606
0.00239612
0.0024537
0.00251952
0.00259394
0.00267652
0.00276436
0.00285066
0.00291936
0.00294504
0.00213003
0.00213204
0.0021384
0.002149
0.00216324
0.00218111
0.00220303
0.0022294
0.00226061
0.00229709
0.00233938
0.00238807
0.0024438
0.00250709
0.002578
0.00265569
0.00273694
0.00281463
0.00287381
0.00289157
0.00212695
0.00212893
0.0021352
0.00214564
0.00215966
0.00217724
0.00219876
0.00222463
0.00225519
0.00229082
0.00233199
0.00237922
0.00243297
0.00249357
0.00256082
0.00263353
0.00270819
0.00277759
0.0028279
0.00283871
0.00212352
0.00212547
0.00213162
0.00214189
0.00215566
0.00217292
0.00219402
0.00221934
0.00224918
0.00228389
0.00232386
0.00236949
0.00242114
0.00247891
0.00254238
0.00261003
0.00267816
0.00273961
0.0027817
0.00278647
0.00211968
0.00212159
0.00212763
0.0021377
0.00215121
0.00216811
0.00218875
0.00221346
0.00224253
0.00227624
0.0023149
0.00235884
0.00240826
0.00246308
0.00252265
0.0025852
0.00264691
0.0027008
0.00273532
0.00273486
0.0021154
0.00211727
0.00212319
0.00213304
0.00214625
0.00216276
0.00218289
0.00220695
0.00223518
0.0022678
0.00230508
0.00234721
0.00239428
0.00244603
0.00250161
0.00255906
0.00261449
0.00266122
0.00268884
0.00268389
0.00211063
0.00211246
0.00211824
0.00212786
0.00214074
0.00215683
0.00217641
0.00219975
0.00222707
0.00225853
0.00229432
0.00233454
0.00237915
0.00242773
0.00247926
0.00253162
0.00258096
0.00262096
0.00264232
0.00263354
0.00210532
0.00210711
0.00211273
0.0021221
0.00213463
0.00215025
0.00216923
0.0021918
0.00221814
0.00224836
0.00228256
0.00232078
0.00236282
0.00240815
0.00245559
0.00250293
0.00254641
0.00258012
0.00259583
0.00258382
0.00209942
0.00210115
0.00210661
0.0021157
0.00212785
0.00214297
0.0021613
0.00218305
0.00220833
0.00223722
0.00226976
0.00230586
0.00234525
0.00238726
0.0024306
0.00247303
0.00251089
0.00253877
0.00254943
0.00253472
0.00209287
0.00209454
0.00209983
0.00210861
0.00212034
0.00213492
0.00215255
0.00217341
0.00219758
0.00222507
0.00225584
0.00228976
0.00232642
0.00236506
0.00240433
0.00244196
0.0024745
0.002497
0.00250317
0.00248623
0.0020856
0.00208722
0.00209231
0.00210077
0.00211205
0.00212604
0.00214292
0.00216284
0.00218581
0.00221182
0.00224077
0.00227241
0.00230629
0.00234155
0.00237679
0.00240979
0.0024373
0.00245487
0.00245708
0.00243833
0.00207755
0.0020791
0.00208399
0.0020921
0.00210289
0.00211626
0.00213235
0.00215125
0.00217298
0.00219744
0.00222447
0.00225379
0.00228484
0.00231673
0.00234802
0.00237657
0.00239937
0.00241246
0.00241121
0.00239102
0.00206865
0.00207013
0.00207479
0.00208253
0.00209281
0.00210551
0.00212075
0.00213859
0.002159
0.00218185
0.00220692
0.00223386
0.00226207
0.00229061
0.00231805
0.00234237
0.00236079
0.00236983
0.00236557
0.00234426
0.00205883
0.00206023
0.00206466
0.00207199
0.00208173
0.00209372
0.00210806
0.00212479
0.00214383
0.00216501
0.00218807
0.0022126
0.00223796
0.00226321
0.00228694
0.00230725
0.00232163
0.00232704
0.00232018
0.00229804
0.002048
0.00204932
0.00205349
0.00206041
0.00206956
0.00208081
0.00209422
0.00210978
0.0021274
0.00214686
0.00216787
0.00218998
0.00221253
0.00223456
0.00225473
0.00227128
0.00228195
0.00228413
0.00227506
0.00225232
0.00203608
0.00203732
0.00204123
0.00204769
0.00205624
0.00206671
0.00207914
0.0020935
0.00210966
0.00212737
0.00214631
0.002166
0.00218578
0.00220469
0.00222148
0.00223452
0.00224183
0.00224115
0.0022302
0.00220708
0.002023
0.00202415
0.00202778
0.00203378
0.00204169
0.00205135
0.00206276
0.00207589
0.00209055
0.00210649
0.00212336
0.00214066
0.00215772
0.00217365
0.00218724
0.00219704
0.00220131
0.00219812
0.00218562
0.00216228
0.00200866
0.00200972
0.00201306
0.00201857
0.00202582
0.00203465
0.00204502
0.00205688
0.00207003
0.00208419
0.002099
0.00211395
0.0021284
0.00214147
0.00215207
0.0021589
0.00216044
0.00215508
0.00214129
0.00211789
0.00199298
0.00199395
0.00199699
0.002002
0.00200857
0.00201654
0.00202585
0.00203643
0.00204806
0.00206045
0.00207322
0.00208589
0.00209782
0.0021082
0.00211603
0.00212016
0.00211927
0.00211203
0.00209721
0.00207387
0.00197588
0.00197675
0.00197948
0.00198398
0.00198986
0.00199695
0.0020052
0.00201448
0.0020246
0.00203524
0.00204603
0.0020565
0.00206603
0.00207388
0.00207916
0.00208085
0.00207783
0.002069
0.00205336
0.00203019
0.00195727
0.00195804
0.00196046
0.00196444
0.00196962
0.00197583
0.001983
0.001991
0.00199962
0.00200855
0.00201743
0.00202579
0.00203306
0.00203857
0.00204153
0.00204103
0.00203615
0.00202598
0.00200971
0.0019868
0.00193708
0.00193775
0.00193985
0.0019433
0.00194778
0.00195311
0.00195921
0.00196595
0.00197311
0.00198039
0.00198742
0.00199378
0.00199895
0.00200231
0.00200316
0.00200073
0.00199425
0.00198296
0.00196624
0.00194367
0.00191522
0.00191579
0.00191758
0.00192051
0.00192428
0.00192875
0.0019338
0.00193931
0.00194505
0.00195074
0.00195603
0.00196052
0.00196374
0.00196514
0.0019641
0.00195999
0.00195214
0.00193995
0.00192292
0.00190074
0.00189164
0.00189211
0.00189359
0.00189599
0.00189908
0.0019027
0.00190673
0.00191105
0.00191543
0.00191961
0.00192327
0.00192603
0.00192746
0.00192709
0.00192439
0.00191881
0.00190982
0.00189691
0.00187972
0.00185798
0.00186626
0.00186663
0.00186781
0.00186971
0.00187213
0.00187492
0.00187798
0.00188116
0.00188426
0.00188702
0.00188916
0.00189033
0.00189016
0.00188822
0.00188406
0.00187723
0.00186729
0.00185384
0.00183658
0.00181534
0.00183904
0.00183932
0.0018402
0.00184162
0.0018434
0.00184541
0.00184753
0.00184964
0.00185154
0.00185299
0.00185374
0.00185347
0.00185185
0.00184853
0.00184312
0.00183524
0.00182454
0.0018107
0.00179348
0.00177277
0.00180994
0.00181013
0.00181073
0.00181169
0.00181286
0.00181413
0.00181538
0.00181649
0.00181728
0.00181754
0.00181702
0.00181547
0.00181259
0.00180807
0.00180159
0.00179285
0.00178156
0.00176746
0.00175038
0.00173022
0.00177892
0.00177903
0.00177937
0.0017799
0.0017805
0.00178108
0.00178153
0.00178173
0.00178151
0.00178069
0.00177905
0.00177636
0.00177238
0.00176685
0.00175949
0.00175006
0.00173832
0.00172409
0.00170722
0.00168764
0.00174599
0.00174602
0.00174612
0.00174624
0.00174633
0.00174628
0.001746
0.00174537
0.00174425
0.00174246
0.00173984
0.00173618
0.00173126
0.00172488
0.00171681
0.00170685
0.00169481
0.00168055
0.00166396
0.00164499
0.00171113
0.00171109
0.00171097
0.00171073
0.00171035
0.00170973
0.0017088
0.00170744
0.00170552
0.00170291
0.00169944
0.00169495
0.00168925
0.00168218
0.00167356
0.00166321
0.001651
0.0016368
0.00162055
0.0016022
0.00167436
0.00167426
0.00167394
0.00167339
0.00167258
0.00167147
0.00166997
0.00166797
0.00166537
0.00166204
0.00165787
0.00165269
0.00164637
0.00163876
0.00162972
0.00161912
0.00160684
0.00159281
0.00157695
0.00155924
0.00163572
0.00163556
0.00163507
0.00163424
0.00163307
0.00163153
0.00162954
0.001627
0.00162382
0.00161991
0.00161516
0.00160943
0.00160263
0.00159462
0.0015853
0.00157457
0.00156233
0.00154852
0.0015331
0.00151605
0.00159524
0.00159504
0.0015944
0.00159333
0.00159186
0.00158996
0.00158756
0.00158457
0.00158093
0.00157655
0.00157134
0.0015652
0.00155804
0.00154977
0.00154028
0.00152952
0.00151741
0.00150389
0.00148896
0.00147258
0.00155298
0.00155274
0.00155199
0.00155072
0.001549
0.00154681
0.00154408
0.00154075
0.00153674
0.001532
0.00152645
0.00152002
0.00151262
0.00150419
0.00149466
0.00148396
0.00147205
0.0014589
0.00144448
0.00142879
0.00150901
0.00150875
0.0015079
0.00150648
0.00150457
0.00150215
0.00149917
0.00149557
0.0014913
0.0014863
0.00148052
0.0014739
0.00146638
0.0014579
0.00144841
0.00143787
0.00142623
0.00141349
0.00139961
0.00138461
0.00146342
0.00146313
0.00146221
0.00146068
0.00145863
0.00145605
0.00145289
0.00144911
0.00144466
0.0014395
0.00143359
0.00142688
0.00141933
0.00141089
0.00140153
0.00139121
0.00137992
0.00136762
0.00135432
0.00134002
0.00141629
0.00141598
0.00141502
0.00141341
0.00141126
0.00140858
0.00140531
0.00140142
0.00139687
0.00139164
0.00138568
0.00137898
0.00137148
0.00136317
0.00135401
0.00134399
0.00133307
0.00132127
0.00130856
0.00129497
0.00136772
0.0013674
0.00136641
0.00136476
0.00136256
0.00135982
0.0013565
0.00135257
0.001348
0.00134276
0.00133685
0.00133022
0.00132286
0.00131474
0.00130585
0.00129616
0.00128568
0.00127439
0.0012623
0.00124941
0.00131781
0.00131749
0.00131649
0.00131483
0.00131261
0.00130986
0.00130655
0.00130263
0.00129809
0.00129293
0.00128711
0.00128063
0.00127347
0.0012656
0.00125703
0.00124773
0.00123772
0.00122697
0.0012155
0.00120332
0.00126666
0.00126634
0.00126535
0.0012637
0.0012615
0.00125879
0.00125552
0.00125167
0.00124722
0.00124218
0.00123652
0.00123024
0.00122333
0.00121577
0.00120756
0.00119869
0.00118916
0.00117898
0.00116815
0.00115667
0.00121437
0.00121406
0.00121309
0.00121148
0.00120933
0.00120668
0.00120349
0.00119975
0.00119545
0.00119057
0.00118512
0.00117909
0.00117246
0.00116525
0.00115743
0.00114902
0.00114
0.0011304
0.0011202
0.00110943
0.00116106
0.00116076
0.00115982
0.00115825
0.00115618
0.00115362
0.00115055
0.00114695
0.00114282
0.00113815
0.00113294
0.00112719
0.0011209
0.00111405
0.00110666
0.00109872
0.00109024
0.00108121
0.00107166
0.00106158
0.00110681
0.00110652
0.00110562
0.00110412
0.00110214
0.0010997
0.00109677
0.00109334
0.00108941
0.00108497
0.00108004
0.0010746
0.00106865
0.00106221
0.00105525
0.0010478
0.00103985
0.00103142
0.0010225
0.0010131
0.00105171
0.00105144
0.00105059
0.00104917
0.00104729
0.00104498
0.00104221
0.00103897
0.00103526
0.00103108
0.00102644
0.00102133
0.00101576
0.00100972
0.00100322
0.000996261
0.000988853
0.000980998
0.000972706
0.000963985
0.000995861
0.000995606
0.000994802
0.000993472
0.000991707
0.000989536
0.000986939
0.000983903
0.00098043
0.000976524
0.000972187
0.000967421
0.000962226
0.000956605
0.000950564
0.000944104
0.000937234
0.000929957
0.000922283
0.000914219
0.000939323
0.000939085
0.000938337
0.000937097
0.000935453
0.000933431
0.000931015
0.000928192
0.000924965
0.000921339
0.000917316
0.000912898
0.000908087
0.000902887
0.000897303
0.000891338
0.000884999
0.00087829
0.000871221
0.000863797
0.000882161
0.000881941
0.000881249
0.000880103
0.000878584
0.000876716
0.000874484
0.000871879
0.000868902
0.000865558
0.000861851
0.000857783
0.000853357
0.000848576
0.000843444
0.000837966
0.000832148
0.000825995
0.000819514
0.000812712
0.000824422
0.00082422
0.000823585
0.000822534
0.000821141
0.000819428
0.000817383
0.000814996
0.000812269
0.000809207
0.000805815
0.000802094
0.000798047
0.000793677
0.00078899
0.000783988
0.000778679
0.000773066
0.000767156
0.000760956
0.000766138
0.000765955
0.000765377
0.00076442
0.000763152
0.000761594
0.000759733
0.000757562
0.000755082
0.000752299
0.000749216
0.000745836
0.00074216
0.000738193
0.000733939
0.000729401
0.000724585
0.000719495
0.000714137
0.000708516
0.000707324
0.000707158
0.000706636
0.000705772
0.000704627
0.00070322
0.000701541
0.000699581
0.000697343
0.000694833
0.000692052
0.000689003
0.000685689
0.000682113
0.000678278
0.000674188
0.000669849
0.000665263
0.000660436
0.000655373
0.000647971
0.000647822
0.000647355
0.000646582
0.000645557
0.000644298
0.000642795
0.000641041
0.000639039
0.000636792
0.000634304
0.000631577
0.000628613
0.000625414
0.000621985
0.000618328
0.000614448
0.000610347
0.000606032
0.000601505
0.000588047
0.000587916
0.000587502
0.000586816
0.000585907
0.00058479
0.000583457
0.000581903
0.000580127
0.000578136
0.00057593
0.000573513
0.000570885
0.00056805
0.00056501
0.000561769
0.000558329
0.000554694
0.000550868
0.000546855
0.000527494
0.000527379
0.000527016
0.000526415
0.000525619
0.00052464
0.000523472
0.00052211
0.000520554
0.000518809
0.000516876
0.000514757
0.000512454
0.00050997
0.000507305
0.000504464
0.000501449
0.000498263
0.000494909
0.00049139
0.000466214
0.000466115
0.0004658
0.00046528
0.000464591
0.000463744
0.000462734
0.000461555
0.000460209
0.000458699
0.000457027
0.000455194
0.000453202
0.000451052
0.000448747
0.000446288
0.000443679
0.000440921
0.000438018
0.000434971
0.000404079
0.000403995
0.00040373
0.000403289
0.000402706
0.000401988
0.000401132
0.000400133
0.000398992
0.000397712
0.000396294
0.000394739
0.000393049
0.000391226
0.00038927
0.000387184
0.000384969
0.000382629
0.000380164
0.000377577
0.000340889
0.000340818
0.000340596
0.000340228
0.000339743
0.000339146
0.000338434
0.000337604
0.000336656
0.000335593
0.000334415
0.000333124
0.000331721
0.000330207
0.000328583
0.000326852
0.000325013
0.00032307
0.000321023
0.000318875
0.000276434
0.000276381
0.000276208
0.000275919
0.000275536
0.000275065
0.000274501
0.000273844
0.000273093
0.000272249
0.000271315
0.00027029
0.000269176
0.000267972
0.000266682
0.000265305
0.000263842
0.000262296
0.000260667
0.000258957
0.000210313
0.000210266
0.000210127
0.000209901
0.000209605
0.000209242
0.00020881
0.000208307
0.000207734
0.000207091
0.000206381
0.000205602
0.000204756
0.000203844
0.000202866
0.000201823
0.000200716
0.000199546
0.000198314
0.000197021
0.000142286
0.000142267
0.000142189
0.000142052
0.000141865
0.000141633
0.000141354
0.000141029
0.000140655
0.000140235
0.000139769
0.000139257
0.0001387
0.000138098
0.000137451
0.000136761
0.000136028
0.000135252
0.000134435
0.000133576
7.14308e-05
7.13963e-05
7.13249e-05
7.12285e-05
7.11123e-05
7.09748e-05
7.08142e-05
7.06303e-05
7.04237e-05
7.01949e-05
6.99439e-05
6.96709e-05
6.9376e-05
6.90596e-05
6.87218e-05
6.83629e-05
6.79833e-05
6.75831e-05
6.71627e-05
6.67225e-05
0.00503982
0.00305471
0.00237583
0.0022175
0.00206885
0.00190988
0.00177312
0.0016615
0.00156861
0.0014883
0.00141684
0.00135229
0.0012934
0.0012392
0.00118892
0.001142
0.001098
0.00105656
0.00101739
0.000980247
0.000944926
0.000911251
0.000879069
0.000848251
0.000818683
0.000790264
0.000762906
0.000736532
0.00071107
0.000686461
0.000662646
0.000639577
0.000617206
0.000595494
0.000574402
0.000553896
0.000533945
0.000514519
0.000495592
0.00047714
0.00045914
0.000441571
0.000424414
0.000407652
0.000391269
0.000375246
0.000359573
0.000344236
0.000329225
0.000314524
0.000300128
0.000286027
0.000272214
0.000258677
0.000245414
0.00023242
0.000219691
0.000207219
0.000195006
0.00018305
0.000171353
0.000159912
0.000148736
0.00013783
0.000127204
0.000116864
0.000106837
9.71437e-05
8.78211e-05
7.88981e-05
7.04842e-05
6.25501e-05
5.55811e-05
4.87414e-05
4.54542e-05
3.7109e-05
5.1724e-05
1.1908e-05
0.000145271
-0.000193582
0.00509451
0.0031095
0.00241239
0.00223836
0.00208102
0.00191842
0.00178013
0.00166757
0.00157388
0.00149291
0.0014209
0.00135591
0.00129666
0.00124217
0.00119164
0.00114451
0.00110032
0.00105872
0.00101941
0.000982149
0.000946717
0.000912942
0.000880671
0.000849772
0.000820129
0.000791642
0.000764223
0.000737791
0.000712277
0.000687618
0.000663759
0.000640647
0.000618237
0.000596488
0.000575362
0.000554824
0.000534842
0.000515387
0.000496434
0.000477957
0.000459933
0.000442341
0.000425162
0.00040838
0.000391977
0.000375936
0.000360245
0.000344891
0.000329864
0.000315148
0.000300736
0.000286621
0.000272795
0.000259245
0.000245969
0.000232963
0.000220222
0.000207739
0.000195515
0.00018355
0.000171842
0.000160392
0.000149206
0.000138292
0.000127656
0.000117308
0.000107274
9.75722e-05
8.82421e-05
7.93119e-05
7.0891e-05
6.29502e-05
5.59751e-05
4.91287e-05
4.58376e-05
3.7483e-05
5.21015e-05
1.22769e-05
0.000145659
-0.000193372
0.00507729
0.00311993
0.00242864
0.00225302
0.00209397
0.00192976
0.00178992
0.00167604
0.00158129
0.00149945
0.00142674
0.00136116
0.00130143
0.00124653
0.00119565
0.00114822
0.00110377
0.00106194
0.00102243
0.000984987
0.000949395
0.000915474
0.000883071
0.000852053
0.000822301
0.000793715
0.000766203
0.000739687
0.000714095
0.000689364
0.000665437
0.000642262
0.000619794
0.00059799
0.000576813
0.000556227
0.000536199
0.000516702
0.000497708
0.000479193
0.000461133
0.000443506
0.000426295
0.000409482
0.000393049
0.00037698
0.000361263
0.000345884
0.000330832
0.000316092
0.000301659
0.000287523
0.000273675
0.000260105
0.000246811
0.000233787
0.000221028
0.000208528
0.000196288
0.000184307
0.000172584
0.000161119
0.00014992
0.000138991
0.000128343
0.000117982
0.000107936
9.82222e-05
8.88808e-05
7.99395e-05
7.15082e-05
6.3557e-05
5.65725e-05
4.97155e-05
4.64191e-05
3.80469e-05
5.26796e-05
1.28057e-05
0.000146335
-0.000193174
0.00503975
0.00312458
0.00243804
0.00225957
0.00210095
0.00193791
0.00179833
0.00168399
0.00158851
0.00150596
0.00143263
0.00136652
0.00130633
0.00125104
0.00119983
0.0011521
0.0011074
0.00106534
0.00102562
0.000987997
0.00095224
0.00091817
0.000885632
0.000854491
0.000824626
0.000795936
0.000768329
0.000741724
0.00071605
0.000691243
0.000667245
0.000644004
0.000621474
0.000599612
0.00057838
0.000557743
0.000537667
0.000518124
0.000499088
0.000480531
0.000462433
0.00044477
0.000427525
0.000410678
0.000394214
0.000378115
0.000362369
0.000346962
0.000331884
0.00031712
0.000302662
0.000288503
0.000274634
0.000261043
0.000247728
0.000234684
0.000221907
0.000209388
0.000197131
0.000185133
0.000173394
0.000161913
0.000150698
0.000139755
0.000129092
0.000118718
0.000108658
9.8932e-05
8.95782e-05
8.06249e-05
7.2182e-05
6.42195e-05
5.72245e-05
5.0356e-05
4.70516e-05
3.86636e-05
5.32976e-05
1.33942e-05
0.000147092
-0.000193036
0.00499873
0.00313231
0.002449
0.00226592
0.00210585
0.00194295
0.00180391
0.00168997
0.00159458
0.00151183
0.00143816
0.00137167
0.00131113
0.00125551
0.00120401
0.00115602
0.00111108
0.00106881
0.0010289
0.000991098
0.000955183
0.000920969
0.000888299
0.000857035
0.000827058
0.000798264
0.000770561
0.000743867
0.00071811
0.000693225
0.000669155
0.000645847
0.000623253
0.000601331
0.000580044
0.000559353
0.000539228
0.000519638
0.000500556
0.000481958
0.000463819
0.000446118
0.000428836
0.000411955
0.000395458
0.000379328
0.000363552
0.000348117
0.000333011
0.000318221
0.000303738
0.000289554
0.000275662
0.000262048
0.000248712
0.000235648
0.00022285
0.000210313
0.000198036
0.00018602
0.000174264
0.000162767
0.000151536
0.000140577
0.000129899
0.00011951
0.000109436
9.96966e-05
9.03295e-05
8.13634e-05
7.2908e-05
6.49333e-05
5.79265e-05
5.10462e-05
4.77303e-05
3.93304e-05
5.39468e-05
1.40507e-05
0.000147884
-0.00019289
0.00495622
0.0031396
0.00245908
0.00227191
0.00211045
0.00194709
0.00180784
0.00169398
0.00159883
0.00151629
0.0014427
0.00137618
0.0013155
0.0012597
0.001208
0.00115981
0.00111468
0.00107224
0.00103217
0.000994219
0.000958163
0.000923818
0.000891026
0.000859648
0.000829566
0.000800673
0.000772877
0.000746097
0.000720259
0.000695298
0.000671156
0.00064778
0.000625123
0.000603142
0.000581798
0.000561054
0.000540878
0.00052124
0.000502113
0.000483471
0.000465291
0.000447551
0.000430232
0.000413315
0.000396784
0.000380621
0.000364814
0.000349349
0.000334215
0.000319397
0.000304888
0.00029068
0.000276763
0.000263126
0.000249767
0.000236681
0.000223863
0.000211305
0.000199009
0.000186975
0.0001752
0.000163685
0.000152438
0.000141462
0.000130768
0.000120364
0.000110275
0.000100521
9.11395e-05
8.21597e-05
7.36909e-05
6.57032e-05
5.86833e-05
5.17907e-05
4.84596e-05
4.00519e-05
5.463e-05
1.47843e-05
0.000148692
-0.000192693
0.00491202
0.00314569
0.00246794
0.00227687
0.00211439
0.00195085
0.00181134
0.00169722
0.00160192
0.00151941
0.00144595
0.00137958
0.001319
0.00126323
0.00121151
0.00116325
0.00111802
0.00107547
0.00103529
0.000997229
0.000961065
0.000926615
0.000893723
0.000862249
0.000832075
0.000803096
0.000775217
0.000748359
0.000722446
0.000697415
0.000673206
0.000649767
0.000627049
0.00060501
0.000583611
0.000562816
0.00054259
0.000522905
0.000503733
0.000485049
0.000466828
0.000449049
0.000431693
0.00041474
0.000398175
0.00038198
0.000366141
0.000350646
0.000335483
0.000320638
0.000306102
0.000291868
0.000277926
0.000264266
0.000250884
0.000237776
0.000224936
0.000212357
0.000200042
0.000187987
0.000176194
0.000164661
0.000153396
0.000142403
0.000131693
0.000121273
0.000111168
0.000101398
9.20024e-05
8.30083e-05
7.45254e-05
6.65239e-05
5.94898e-05
5.25846e-05
4.92344e-05
4.08238e-05
5.53401e-05
1.55949e-05
0.000149489
-0.000192415
0.00486623
0.0031513
0.00247629
0.00228117
0.00211766
0.00195407
0.00181446
0.00170015
0.00160462
0.00152192
0.00144838
0.00138202
0.00132154
0.00126589
0.00121427
0.00116607
0.00112087
0.00107831
0.0010381
0.000999985
0.000963762
0.000929248
0.000896288
0.000864746
0.000834504
0.000805457
0.000777512
0.000750589
0.000724614
0.000699522
0.000675255
0.00065176
0.000628988
0.000606898
0.000585449
0.000564605
0.000544334
0.000524605
0.000505391
0.000486665
0.000468406
0.000450589
0.000433197
0.00041621
0.000399612