/*--------------------------------*- C++ -*----------------------------------*\
| =========                 |                                                 |
| \\      /  F ield         | OpenFOAM: The Open Source CFD Toolbox           |
|  \\    /   O peration     | Version:  v1912                                 |
|   \\  /    A nd           | Website:  www.openfoam.com                      |
|    \\/     M anipulation  |                                                 |
\*---------------------------------------------------------------------------*/
FoamFile
{
    version     2.0;
    format      ascii;
    class       surfaceScalarField;
    location    "300";
    object      phi;
}
// * * * * * * * * * * * * * * * * * * * * * * * * * * * * * * * * * * * * * //

dimensions      [0 3 -1 0 0 0 0];
oriented        oriented;


internalField   nonuniform List<scalar> 
19800
(
2.29239e-07
3.80292e-13
2.29238e-07
1.24305e-12
2.29235e-07
2.21659e-12
2.29232e-07
3.19101e-12
2.29228e-07
4.18826e-12
2.29223e-07
5.26716e-12
2.29216e-07
6.46481e-12
2.29208e-07
7.8145e-12
2.29199e-07
9.35773e-12
2.29188e-07
1.11758e-11
2.29175e-07
1.33302e-11
2.29158e-07
1.60814e-11
2.29139e-07
1.93169e-11
2.29115e-07
2.44827e-11
2.29086e-07
2.88903e-11
2.29041e-07
4.52225e-11
2.29005e-07
3.58562e-11
2.28824e-07
1.80594e-10
2.29265e-07
-4.41156e-10
1.28266e-08
2.16439e-07
2.42236e-07
7.86013e-13
2.42234e-07
2.56029e-12
2.42232e-07
4.55858e-12
2.42229e-07
6.56215e-12
2.42224e-07
8.61366e-12
2.42219e-07
1.08328e-11
2.42212e-07
1.32959e-11
2.42204e-07
1.60716e-11
2.42194e-07
1.92457e-11
2.42182e-07
2.29844e-11
2.42168e-07
2.7416e-11
2.42151e-07
3.30713e-11
2.42131e-07
3.97322e-11
2.42105e-07
5.03346e-11
2.42074e-07
5.94578e-11
2.42026e-07
9.28331e-11
2.41988e-07
7.44377e-11
2.41804e-07
3.6403e-10
2.42082e-07
-7.19007e-10
1.25907e-08
2.42318e-07
2.5597e-07
1.21566e-12
2.55968e-07
3.95306e-12
2.55966e-07
7.03323e-12
2.55962e-07
1.01242e-11
2.55958e-07
1.32898e-11
2.55952e-07
1.67138e-11
2.55944e-07
2.05141e-11
2.55936e-07
2.47966e-11
2.55925e-07
2.96937e-11
2.55913e-07
3.54619e-11
2.55898e-07
4.22997e-11
2.5588e-07
5.10228e-11
2.55858e-07
6.1305e-11
2.55831e-07
7.76429e-11
2.55799e-07
9.17788e-11
2.55749e-07
1.43e-10
2.55707e-07
1.16086e-10
2.55523e-07
5.47695e-10
2.55667e-07
-8.62543e-10
1.20367e-08
2.56221e-07
2.70482e-07
1.67075e-12
2.70481e-07
5.42578e-12
2.70478e-07
9.64799e-12
2.70474e-07
1.38878e-11
2.70469e-07
1.82307e-11
2.70463e-07
2.29278e-11
2.70456e-07
2.81411e-11
2.70446e-07
3.40156e-11
2.70435e-07
4.07335e-11
2.70422e-07
4.86456e-11
2.70406e-07
5.80262e-11
2.70387e-07
6.99892e-11
2.70365e-07
8.41005e-11
2.70336e-07
1.06485e-10
2.70302e-07
1.25962e-10
2.70249e-07
1.9579e-10
2.70204e-07
1.61397e-10
2.70022e-07
7.29042e-10
2.70057e-07
-8.97712e-10
1.16458e-08
2.70448e-07
2.85818e-07
2.15293e-12
2.85816e-07
6.98313e-12
2.85813e-07
1.24107e-11
2.85809e-07
1.78643e-11
2.85804e-07
2.34513e-11
2.85797e-07
2.94937e-11
2.85789e-07
3.61998e-11
2.8578e-07
4.37563e-11
2.85768e-07
5.23979e-11
2.85754e-07
6.25751e-11
2.85737e-07
7.46424e-11
2.85717e-07
9.00269e-11
2.85693e-07
1.08187e-10
2.85663e-07
1.36943e-10
2.85627e-07
1.62125e-10
2.85571e-07
2.51263e-10
2.85522e-07
2.10971e-10
2.85344e-07
9.06578e-10
2.85292e-07
-8.4601e-10
1.136e-08
2.85578e-07
3.02022e-07
2.66399e-12
3.02021e-07
8.63012e-12
3.02018e-07
1.53297e-11
3.02014e-07
2.20656e-11
3.02008e-07
2.89672e-11
3.02001e-07
3.6431e-11
3.01993e-07
4.47143e-11
3.01982e-07
5.4048e-11
3.0197e-07
6.47219e-11
3.01955e-07
7.72919e-11
3.01938e-07
9.2198e-11
3.01917e-07
1.11195e-10
3.01891e-07
1.33638e-10
3.01859e-07
1.691e-10
3.01821e-07
2.0039e-10
3.01762e-07
3.09476e-10
3.01708e-07
2.65386e-10
3.01535e-07
1.07953e-09
3.01414e-07
-7.25046e-10
1.1151e-08
3.01623e-07
3.19146e-07
3.2059e-12
3.19144e-07
1.03721e-11
3.19141e-07
1.84137e-11
3.19137e-07
2.65042e-11
3.19131e-07
3.4795e-11
3.19123e-07
4.37606e-11
3.19114e-07
5.37103e-11
3.19104e-07
6.49213e-11
3.19091e-07
7.77423e-11
3.19075e-07
9.28395e-11
3.19056e-07
1.10745e-10
3.19034e-07
1.33555e-10
3.19007e-07
1.60528e-10
3.18973e-07
2.03043e-10
3.18933e-07
2.40891e-10
3.18872e-07
3.70481e-10
3.18812e-07
3.25175e-10
3.18644e-07
1.24771e-09
3.18468e-07
-5.49244e-10
1.1004e-08
3.18615e-07
3.3724e-07
3.7808e-12
3.37238e-07
1.22148e-11
3.37235e-07
2.16719e-11
3.3723e-07
3.11933e-11
3.37224e-07
4.0952e-11
3.37217e-07
5.15043e-11
3.37207e-07
6.32144e-11
3.37196e-07
7.64085e-11
3.37182e-07
9.14977e-11
3.37165e-07
1.09264e-10
3.37146e-07
1.30338e-10
3.37122e-07
1.57172e-10
3.37094e-07
1.88937e-10
3.37058e-07
2.38862e-10
3.37015e-07
2.83766e-10
3.36951e-07
4.34337e-10
3.36886e-07
3.90807e-10
3.36722e-07
1.41145e-09
3.36503e-07
-3.30513e-10
1.09089e-08
3.36598e-07
3.56361e-07
4.39108e-12
3.56359e-07
1.41644e-11
3.56355e-07
2.5114e-11
3.5635e-07
3.61469e-11
3.56344e-07
4.74566e-11
3.56336e-07
5.96852e-11
3.56325e-07
7.3255e-11
3.56313e-07
8.85439e-11
3.56299e-07
1.06029e-10
3.56281e-07
1.26614e-10
3.56261e-07
1.51035e-10
3.56236e-07
1.82114e-10
3.56206e-07
2.1895e-10
3.56168e-07
2.76651e-10
3.56123e-07
3.29162e-10
3.56056e-07
5.01104e-10
3.55984e-07
4.62676e-10
3.55824e-07
1.57148e-09
3.55572e-07
-7.86574e-11
1.08574e-08
3.55624e-07
3.76565e-07
5.03938e-12
3.76563e-07
1.62275e-11
3.76559e-07
2.87501e-11
3.76554e-07
4.13794e-11
3.76547e-07
5.4328e-11
3.76538e-07
6.83275e-11
3.76528e-07
8.38618e-11
3.76515e-07
1.01363e-10
3.765e-07
1.21378e-10
3.76481e-07
1.44939e-10
3.76459e-07
1.72897e-10
3.76433e-07
2.08452e-10
3.76401e-07
2.50653e-10
3.76362e-07
3.16505e-10
3.76313e-07
3.7723e-10
3.76244e-07
5.70852e-10
3.76165e-07
5.41089e-10
3.76008e-07
1.7288e-09
3.75731e-07
1.98425e-10
1.08419e-08
3.75746e-07
3.97915e-07
5.72869e-12
3.97913e-07
1.84114e-11
3.97909e-07
3.2591e-11
3.97903e-07
4.69061e-11
3.97896e-07
6.15865e-11
3.97887e-07
7.74568e-11
3.97876e-07
9.50659e-11
3.97862e-07
1.14904e-10
3.97846e-07
1.37591e-10
3.97826e-07
1.64294e-10
3.97803e-07
1.95985e-10
3.97776e-07
2.36259e-10
3.97742e-07
2.8414e-10
3.977e-07
3.58523e-10
3.97649e-07
4.28128e-10
3.97576e-07
6.43662e-10
3.97491e-07
6.26277e-10
3.97335e-07
1.88453e-09
3.97039e-07
4.94624e-10
1.0855e-08
3.97026e-07
4.20475e-07
6.46239e-12
4.20473e-07
2.07239e-11
4.20469e-07
3.6648e-11
4.20463e-07
5.2743e-11
4.20455e-07
6.92534e-11
4.20445e-07
8.70999e-11
4.20434e-07
1.069e-10
4.20419e-07
1.29205e-10
4.20402e-07
1.54714e-10
4.20382e-07
1.84733e-10
4.20357e-07
2.20368e-10
4.20328e-07
2.65613e-10
4.20293e-07
3.19506e-10
4.20248e-07
4.02806e-10
4.20195e-07
4.82016e-10
4.20119e-07
7.19623e-10
4.20026e-07
7.18405e-10
4.19871e-07
2.03978e-09
4.1956e-07
8.055e-10
1.08897e-08
4.19526e-07
4.44314e-07
7.2443e-12
4.44312e-07
2.31739e-11
4.44308e-07
4.09331e-11
4.44301e-07
5.89069e-11
4.44293e-07
7.7351e-11
4.44283e-07
9.7285e-11
4.44271e-07
1.194e-10
4.44256e-07
1.44309e-10
4.44238e-07
1.72797e-10
4.44216e-07
2.06314e-10
4.4419e-07
2.46113e-10
4.44159e-07
2.96595e-10
4.44122e-07
3.56851e-10
4.44075e-07
4.49457e-10
4.44018e-07
5.39059e-10
4.43939e-07
7.98837e-10
4.4384e-07
8.17596e-10
4.43684e-07
2.19548e-09
4.43361e-07
1.12813e-09
1.09391e-08
4.43312e-07
4.69505e-07
8.0788e-12
4.69503e-07
2.57709e-11
4.69498e-07
4.54585e-11
4.69492e-07
6.54149e-11
4.69483e-07
8.59027e-11
4.69472e-07
1.08042e-10
4.69459e-07
1.326e-10
4.69443e-07
1.60259e-10
4.69424e-07
1.91892e-10
4.69401e-07
2.291e-10
4.69374e-07
2.73294e-10
4.69342e-07
3.29287e-10
4.69302e-07
3.96278e-10
4.69253e-07
4.98583e-10
4.69193e-07
5.99422e-10
4.6911e-07
8.81404e-10
4.69004e-07
9.23958e-10
4.68847e-07
2.35232e-09
4.68514e-07
1.46092e-09
1.09971e-08
4.68456e-07
4.96125e-07
8.97085e-12
4.96122e-07
2.85257e-11
4.96117e-07
5.02377e-11
4.9611e-07
7.22854e-11
4.96101e-07
9.49328e-11
4.9609e-07
1.19401e-10
4.96076e-07
1.46539e-10
4.96059e-07
1.77101e-10
4.96039e-07
2.12053e-10
4.96015e-07
2.53154e-10
4.95986e-07
3.01987e-10
4.95952e-07
3.63777e-10
4.9591e-07
4.37897e-10
4.95858e-07
5.50291e-10
4.95794e-07
6.63274e-10
4.95708e-07
9.67425e-10
4.95595e-07
1.03762e-09
4.95436e-07
2.51065e-09
4.95094e-07
1.80329e-09
1.10587e-08
4.95033e-07
5.24253e-07
9.92599e-12
5.2425e-07
3.14503e-11
5.24245e-07
5.52845e-11
5.24238e-07
7.95367e-11
5.24228e-07
1.04467e-10
5.24216e-07
1.31395e-10
5.24202e-07
1.61257e-10
5.24184e-07
1.94881e-10
5.24163e-07
2.33336e-10
5.24137e-07
2.78541e-10
5.24107e-07
3.32269e-10
5.2407e-07
4.00153e-10
5.24027e-07
4.81817e-10
5.23972e-07
6.04692e-10
5.23905e-07
7.30783e-10
5.23815e-07
1.05698e-09
5.23694e-07
1.15875e-09
5.23534e-07
2.67049e-09
5.23182e-07
2.15542e-09
1.11195e-08
5.23121e-07
5.53976e-07
1.09502e-11
5.53973e-07
3.45579e-11
5.53968e-07
6.06136e-11
5.5396e-07
8.71884e-11
5.5395e-07
1.14532e-10
5.53937e-07
1.44058e-10
5.53922e-07
1.76794e-10
5.53903e-07
2.13651e-10
5.53881e-07
2.55801e-10
5.53854e-07
3.05332e-10
5.53822e-07
3.64224e-10
5.53784e-07
4.38509e-10
5.53737e-07
5.28154e-10
5.5368e-07
6.61897e-10
5.53609e-07
8.02124e-10
5.53516e-07
1.15016e-09
5.53387e-07
1.28758e-09
5.53226e-07
2.8316e-09
5.52863e-07
2.51785e-09
1.11768e-08
5.52806e-07
5.85385e-07
1.20498e-11
5.85381e-07
3.78627e-11
5.85376e-07
6.62409e-11
5.85368e-07
9.52602e-11
5.85357e-07
1.25155e-10
5.85344e-07
1.57426e-10
5.85327e-07
1.93195e-10
5.85307e-07
2.33461e-10
5.85284e-07
2.79508e-10
5.85256e-07
3.33598e-10
5.85222e-07
3.97935e-10
5.85181e-07
4.78939e-10
5.85133e-07
5.77025e-10
5.85072e-07
7.22016e-10
5.84997e-07
8.77467e-10
5.849e-07
1.24698e-09
5.84763e-07
1.42434e-09
5.84602e-07
2.99353e-09
5.84228e-07
2.89116e-09
1.12285e-08
5.84177e-07
6.18574e-07
1.32306e-11
6.1857e-07
4.13794e-11
6.18564e-07
7.21829e-11
6.18556e-07
1.03773e-10
6.18545e-07
1.36364e-10
6.18531e-07
1.71535e-10
6.18513e-07
2.10504e-10
6.18492e-07
2.54364e-10
6.18467e-07
3.04522e-10
6.18438e-07
3.63413e-10
6.18402e-07
4.33489e-10
6.18359e-07
5.21543e-10
6.18308e-07
6.28549e-10
6.18245e-07
7.85164e-10
6.18165e-07
9.56983e-10
6.18065e-07
1.34751e-09
6.1792e-07
1.5693e-09
6.17757e-07
3.15588e-09
6.17373e-07
3.27559e-09
1.12736e-08
6.17328e-07
6.53645e-07
1.44972e-11
6.53641e-07
4.51219e-11
6.53635e-07
7.84572e-11
6.53626e-07
1.12748e-10
6.53614e-07
1.4819e-10
6.53599e-07
1.86423e-10
6.53581e-07
2.28768e-10
6.53559e-07
2.76417e-10
6.53532e-07
3.30907e-10
6.53501e-07
3.94852e-10
6.53463e-07
4.70976e-10
6.53419e-07
5.66419e-10
6.53364e-07
6.82844e-10
6.53298e-07
8.51457e-10
6.53214e-07
1.04083e-09
6.5311e-07
1.4518e-09
6.52957e-07
1.7226e-09
6.52794e-07
3.31844e-09
6.52399e-07
3.67069e-09
1.1312e-08
6.52361e-07
6.90704e-07
1.58526e-11
6.907e-07
4.91022e-11
6.90693e-07
8.50825e-11
6.90684e-07
1.22209e-10
6.90671e-07
1.60664e-10
6.90656e-07
2.02131e-10
6.90637e-07
2.48035e-10
6.90613e-07
2.99677e-10
6.90585e-07
3.58732e-10
6.90552e-07
4.27996e-10
6.90513e-07
5.10487e-10
6.90466e-07
6.13671e-10
6.90408e-07
7.4003e-10
6.90339e-07
9.21016e-10
6.9025e-07
1.12914e-09
6.90142e-07
1.55994e-09
6.89981e-07
1.88422e-09
6.89818e-07
3.48142e-09
6.89414e-07
4.07481e-09
1.13441e-08
6.89381e-07
7.29864e-07
1.72974e-11
7.2986e-07
5.33291e-11
7.29853e-07
9.20779e-11
7.29843e-07
1.32181e-10
7.2983e-07
1.73818e-10
7.29814e-07
2.18699e-10
7.29793e-07
2.68355e-10
7.29769e-07
3.24203e-10
7.29739e-07
3.88065e-10
7.29704e-07
4.62924e-10
7.29663e-07
5.52113e-10
7.29613e-07
6.63403e-10
7.29553e-07
8.00218e-10
7.2948e-07
9.93972e-10
7.29387e-07
1.22201e-09
7.29275e-07
1.67212e-09
7.29105e-07
2.05385e-09
7.28941e-07
3.64562e-09
7.28531e-07
4.48469e-09
1.13715e-08
7.28504e-07
7.71245e-07
1.88303e-11
7.71241e-07
5.78084e-11
7.71233e-07
9.94631e-11
7.71223e-07
1.42692e-10
7.71209e-07
1.87687e-10
7.71191e-07
2.36172e-10
7.7117e-07
2.89781e-10
7.71144e-07
3.50058e-10
7.71113e-07
4.18979e-10
7.71076e-07
4.99721e-10
7.71033e-07
5.95949e-10
7.7098e-07
7.15727e-10
7.70917e-07
8.63519e-10
7.7084e-07
1.07047e-09
7.70743e-07
1.31948e-09
7.70626e-07
1.78864e-09
7.70449e-07
2.23077e-09
7.70283e-07
3.81252e-09
7.69872e-07
4.89489e-09
1.13964e-08
7.69847e-07
8.14972e-07
2.04497e-11
8.14967e-07
6.25443e-11
8.14959e-07
1.07259e-10
8.14948e-07
1.53773e-10
8.14934e-07
2.02309e-10
8.14915e-07
2.54596e-10
8.14893e-07
3.1237e-10
8.14865e-07
3.77308e-10
8.14833e-07
4.51552e-10
8.14794e-07
5.38475e-10
8.14748e-07
6.42094e-10
8.14693e-07
7.70758e-10
8.14626e-07
9.30041e-10
8.14546e-07
1.15069e-09
8.14444e-07
1.42156e-09
8.14323e-07
1.90992e-09
8.1414e-07
2.41392e-09
8.13968e-07
3.98406e-09
8.13565e-07
5.29808e-09
1.14213e-08
8.1354e-07
8.61178e-07
2.21545e-11
8.61173e-07
6.75421e-11
8.61165e-07
1.15486e-10
8.61153e-07
1.65456e-10
8.61137e-07
2.17725e-10
8.61118e-07
2.74021e-10
8.61094e-07
3.36181e-10
8.61065e-07
4.06025e-10
8.61031e-07
4.85867e-10
8.6099e-07
5.79284e-10
8.60942e-07
6.90657e-10
8.60884e-07
8.28625e-10
8.60814e-07
9.99906e-10
8.6073e-07
1.23479e-09
8.60623e-07
1.52825e-09
8.60497e-07
2.03641e-09
8.60309e-07
2.60216e-09
8.60131e-07
4.16201e-09
8.59742e-07
5.68684e-09
1.14484e-08
8.59715e-07
9.10003e-07
2.39455e-11
9.09998e-07
7.28092e-11
9.09989e-07
1.24167e-10
9.09977e-07
1.77775e-10
9.09961e-07
2.33975e-10
9.0994e-07
2.94496e-10
9.09915e-07
3.61275e-10
9.09885e-07
4.36281e-10
9.09849e-07
5.22009e-10
9.09806e-07
6.22247e-10
9.09755e-07
7.41747e-10
9.09694e-07
8.89456e-10
9.09621e-07
1.07324e-09
9.09532e-07
1.32297e-09
9.09421e-07
1.63958e-09
9.09289e-07
2.16845e-09
9.09097e-07
2.79459e-09
9.08911e-07
4.3473e-09
9.08542e-07
6.05612e-09
1.14786e-08
9.08512e-07
9.61597e-07
2.58251e-11
9.61592e-07
7.83557e-11
9.61582e-07
1.33325e-10
9.61569e-07
1.90764e-10
9.61552e-07
2.51103e-10
9.61531e-07
3.16075e-10
9.61504e-07
3.87717e-10
9.61472e-07
4.68152e-10
9.61434e-07
5.60064e-10
9.61389e-07
6.67461e-10
9.61335e-07
7.95477e-10
9.61272e-07
9.53375e-10
9.61195e-07
1.15017e-09
9.61102e-07
1.41536e-09
9.60986e-07
1.7556e-09
9.60848e-07
2.30619e-09
9.60652e-07
2.99061e-09
9.6046e-07
4.53979e-09
9.60112e-07
6.40371e-09
1.15116e-08
9.60079e-07
1.01612e-06
2.7797e-11
1.01611e-06
8.41933e-11
1.0161e-06
1.42982e-10
1.01609e-06
2.04456e-10
1.01607e-06
2.6915e-10
1.01605e-06
3.38809e-10
1.01602e-06
4.15568e-10
1.01598e-06
5.01711e-10
1.01594e-06
6.00117e-10
1.0159e-06
7.15023e-10
1.01584e-06
8.51949e-10
1.01577e-06
1.02049e-09
1.01569e-06
1.23079e-09
1.0156e-06
1.51207e-09
1.01548e-06
1.87633e-09
1.01533e-06
2.44961e-09
1.01513e-06
3.18973e-09
1.01493e-06
4.73863e-09
1.01461e-06
6.72911e-09
1.15461e-08
1.01457e-06
1.07373e-06
2.98656e-11
1.07372e-06
9.03351e-11
1.07371e-06
1.53161e-10
1.0737e-06
2.18886e-10
1.07368e-06
2.88161e-10
1.07365e-06
3.62752e-10
1.07362e-06
4.44893e-10
1.07359e-06
5.37033e-10
1.07355e-06
6.42252e-10
1.0735e-06
7.65028e-10
1.07344e-06
9.11267e-10
1.07337e-06
1.09092e-09
1.07328e-06
1.31522e-09
1.07318e-06
1.61318e-09
1.07305e-06
2.00178e-09
1.07291e-06
2.59862e-09
1.0727e-06
3.39151e-09
1.0725e-06
4.94263e-09
1.0722e-06
7.03252e-09
1.15805e-08
1.07216e-06
1.1346e-06
3.20359e-11
1.1346e-06
9.67948e-11
1.13459e-06
1.63886e-10
1.13457e-06
2.34087e-10
1.13455e-06
3.08179e-10
1.13452e-06
3.87957e-10
1.13449e-06
4.75755e-10
1.13446e-06
5.7419e-10
1.13441e-06
6.86553e-10
1.13436e-06
8.17565e-10
1.1343e-06
9.73526e-10
1.13422e-06
1.16475e-09
1.13414e-06
1.40354e-09
1.13403e-06
1.71875e-09
1.1339e-06
2.1319e-09
1.13375e-06
2.75298e-09
1.13354e-06
3.59544e-09
1.13333e-06
5.15043e-09
1.13305e-06
7.31443e-09
1.16131e-08
1.13302e-06
1.19893e-06
3.43128e-11
1.19892e-06
1.03586e-10
1.19891e-06
1.75181e-10
1.1989e-06
2.50094e-10
1.19888e-06
3.29248e-10
1.19885e-06
4.14477e-10
1.19882e-06
5.08217e-10
1.19878e-06
6.13256e-10
1.19873e-06
7.33102e-10
1.19868e-06
8.72723e-10
1.19861e-06
1.03882e-09
1.19853e-06
1.24208e-09
1.19844e-06
1.4958e-09
1.19833e-06
1.82879e-09
1.1982e-06
2.26662e-09
1.19804e-06
2.91243e-09
1.19783e-06
3.80099e-09
1.19762e-06
5.36058e-09
1.19736e-06
7.57548e-09
1.16423e-08
1.19733e-06
1.26691e-06
3.67017e-11
1.2669e-06
1.10724e-10
1.26689e-06
1.87069e-10
1.26687e-06
2.66941e-10
1.26685e-06
3.51412e-10
1.26682e-06
4.42367e-10
1.26679e-06
5.42342e-10
1.26674e-06
6.54303e-10
1.2667e-06
7.81975e-10
1.26664e-06
9.30586e-10
1.26657e-06
1.10723e-09
1.26649e-06
1.32296e-09
1.26639e-06
1.59206e-09
1.26628e-06
1.94331e-09
1.26614e-06
2.40582e-09
1.26597e-06
3.07659e-09
1.26577e-06
4.00757e-09
1.26556e-06
5.57158e-09
1.26532e-06
7.81635e-09
1.16666e-08
1.26529e-06
1.33873e-06
3.92075e-11
1.33873e-06
1.18223e-10
1.33871e-06
1.99575e-10
1.3387e-06
2.84663e-10
1.33867e-06
3.74714e-10
1.33864e-06
4.71678e-10
1.33861e-06
5.78193e-10
1.33856e-06
6.97399e-10
1.33851e-06
8.33249e-10
1.33845e-06
9.91231e-10
1.33838e-06
1.17882e-09
1.3383e-06
1.40747e-09
1.3382e-06
1.69235e-09
1.33808e-06
2.06224e-09
1.33793e-06
2.54933e-09
1.33777e-06
3.24502e-09
1.33756e-06
4.21453e-09
1.33735e-06
5.78194e-09
1.33713e-06
8.03781e-09
1.16848e-08
1.33711e-06
1.41464e-06
4.18356e-11
1.41463e-06
1.26096e-10
1.41461e-06
2.12721e-10
1.4146e-06
3.03293e-10
1.41457e-06
3.99199e-10
1.41454e-06
5.02462e-10
1.4145e-06
6.15826e-10
1.41446e-06
7.4261e-10
1.4144e-06
8.86992e-10
1.41434e-06
1.05472e-09
1.41427e-06
1.25366e-09
1.41418e-06
1.49564e-09
1.41407e-06
1.79665e-09
1.41395e-06
2.18551e-09
1.4138e-06
2.69691e-09
1.41363e-06
3.41719e-09
1.41342e-06
4.42118e-09
1.41321e-06
5.99018e-09
1.41301e-06
8.24056e-09
1.1696e-08
1.413e-06
1.49484e-06
4.45911e-11
1.49483e-06
1.34358e-10
1.49482e-06
2.26531e-10
1.4948e-06
3.22865e-10
1.49477e-06
4.24907e-10
1.49474e-06
5.34769e-10
1.4947e-06
6.553e-10
1.49465e-06
7.89996e-10
1.4946e-06
9.43267e-10
1.49453e-06
1.12113e-09
1.49445e-06
1.3318e-09
1.49436e-06
1.58749e-09
1.49425e-06
1.90494e-09
1.49412e-06
2.31298e-09
1.49397e-06
2.84828e-09
1.4938e-06
3.59251e-09
1.49359e-06
4.62678e-09
1.49339e-06
6.19484e-09
1.4932e-06
8.42535e-09
1.16991e-08
1.4932e-06
1.57959e-06
4.74787e-11
1.57958e-06
1.43023e-10
1.57957e-06
2.41027e-10
1.57955e-06
3.43408e-10
1.57952e-06
4.51878e-10
1.57949e-06
5.68643e-10
1.57945e-06
6.96664e-10
1.5794e-06
8.39612e-10
1.57934e-06
1.00213e-09
1.57927e-06
1.19048e-09
1.57919e-06
1.41326e-09
1.57909e-06
1.68301e-09
1.57898e-06
2.01713e-09
1.57885e-06
2.44445e-09
1.57869e-06
3.00309e-09
1.57851e-06
3.77029e-09
1.57831e-06
4.83052e-09
1.57811e-06
6.39455e-09
1.57794e-06
8.59284e-09
1.16939e-08
1.57795e-06
1.66915e-06
5.05034e-11
1.66914e-06
1.52105e-10
1.66912e-06
2.5623e-10
1.6691e-06
3.64952e-10
1.66907e-06
4.80148e-10
1.66904e-06
6.04128e-10
1.669e-06
7.39965e-10
1.66894e-06
8.91505e-10
1.66888e-06
1.06361e-09
1.66881e-06
1.26282e-09
1.66873e-06
1.49804e-09
1.66863e-06
1.78216e-09
1.66851e-06
2.13312e-09
1.66837e-06
2.57968e-09
1.66822e-06
3.1609e-09
1.66804e-06
3.9498e-09
1.66784e-06
5.03159e-09
1.66764e-06
6.588e-09
1.66749e-06
8.74367e-09
1.16797e-08
1.66751e-06
1.76378e-06
5.36693e-11
1.76377e-06
1.61614e-10
1.76376e-06
2.72158e-10
1.76374e-06
3.87525e-10
1.76371e-06
5.09751e-10
1.76367e-06
6.41259e-10
1.76362e-06
7.8524e-10
1.76357e-06
9.45709e-10
1.7635e-06
1.12775e-09
1.76343e-06
1.33815e-09
1.76334e-06
1.58612e-09
1.76324e-06
1.88485e-09
1.76312e-06
2.25273e-09
1.76298e-06
2.71837e-09
1.76282e-06
3.32123e-09
1.76264e-06
4.13022e-09
1.76244e-06
5.22912e-09
1.76226e-06
6.774e-09
1.76212e-06
8.87843e-09
1.16565e-08
1.76214e-06
1.86378e-06
5.69804e-11
1.86377e-06
1.71562e-10
1.86376e-06
2.88828e-10
1.86373e-06
4.11147e-10
1.8637e-06
5.40713e-10
1.86366e-06
6.80068e-10
1.86362e-06
8.32518e-10
1.86356e-06
1.00225e-09
1.86349e-06
1.19455e-09
1.86341e-06
1.41645e-09
1.86332e-06
1.67746e-09
1.86322e-06
1.99098e-09
1.86309e-06
2.37576e-09
1.86295e-06
2.86013e-09
1.86279e-06
3.48352e-09
1.86261e-06
4.31068e-09
1.86242e-06
5.42223e-09
1.86224e-06
6.95145e-09
1.86212e-06
8.99765e-09
1.16243e-08
1.86215e-06
1.96945e-06
6.044e-11
1.96944e-06
1.81958e-10
1.96942e-06
3.06255e-10
1.9694e-06
4.35838e-10
1.96937e-06
5.73057e-10
1.96933e-06
7.20574e-10
1.96928e-06
8.81817e-10
1.96922e-06
1.06113e-09
1.96915e-06
1.26401e-09
1.96907e-06
1.4977e-09
1.96897e-06
1.77195e-09
1.96886e-06
2.10038e-09
1.96874e-06
2.50192e-09
1.96859e-06
3.00455e-09
1.96843e-06
3.64713e-09
1.96825e-06
4.49027e-09
1.96806e-06
5.61e-09
1.9679e-06
7.11937e-09
1.96779e-06
9.10181e-09
1.15831e-08
1.96783e-06
2.08111e-06
6.40509e-11
2.0811e-06
1.92809e-10
2.08108e-06
3.24449e-10
2.08106e-06
4.61611e-10
2.08102e-06
6.06795e-10
2.08098e-06
7.62789e-10
2.08093e-06
9.3314e-10
2.08087e-06
1.12234e-09
2.0808e-06
1.33609e-09
2.08071e-06
1.58182e-09
2.08062e-06
1.86948e-09
2.0805e-06
2.21285e-09
2.08037e-06
2.6309e-09
2.08023e-06
3.15109e-09
2.08006e-06
3.81135e-09
2.07989e-06
4.66804e-09
2.0797e-06
5.79155e-09
2.07955e-06
7.2769e-09
2.07946e-06
9.19135e-09
1.15332e-08
2.07951e-06
2.1991e-06
6.78146e-11
2.19909e-06
2.04121e-10
2.19907e-06
3.43415e-10
2.19905e-06
4.88471e-10
2.19901e-06
6.41933e-10
2.19897e-06
8.06712e-10
2.19892e-06
9.86474e-10
2.19885e-06
1.18586e-09
2.19878e-06
1.41073e-09
2.19869e-06
1.6687e-09
2.19859e-06
1.96988e-09
2.19847e-06
2.3281e-09
2.19834e-06
2.76228e-09
2.1982e-06
3.2992e-09
2.19803e-06
3.97542e-09
2.19786e-06
4.843e-09
2.19768e-06
5.96599e-09
2.19754e-06
7.42332e-09
2.19746e-06
9.26669e-09
1.14748e-08
2.19752e-06
2.32379e-06
7.17318e-11
2.32377e-06
2.15893e-10
2.32375e-06
3.63155e-10
2.32373e-06
5.16417e-10
2.32369e-06
6.78463e-10
2.32364e-06
8.52326e-10
2.32359e-06
1.04179e-09
2.32352e-06
1.25162e-09
2.32345e-06
1.48784e-09
2.32336e-06
1.75819e-09
2.32325e-06
2.07292e-09
2.32314e-06
2.44582e-09
2.323e-06
2.89562e-09
2.32285e-06
3.44822e-09
2.32269e-06
4.13852e-09
2.32252e-06
5.01418e-09
2.32235e-06
6.13246e-09
2.32222e-06
7.55802e-09
2.32216e-06
9.32821e-09
1.14084e-08
2.32222e-06
2.45554e-06
7.5802e-11
2.45552e-06
2.28124e-10
2.4555e-06
3.83661e-10
2.45547e-06
5.45437e-10
2.45544e-06
7.16365e-10
2.45539e-06
8.99598e-10
2.45533e-06
1.09903e-09
2.45526e-06
1.31954e-09
2.45518e-06
1.56729e-09
2.45509e-06
1.85013e-09
2.45499e-06
2.17833e-09
2.45487e-06
2.56563e-09
2.45473e-06
3.03037e-09
2.45458e-06
3.59745e-09
2.45442e-06
4.29977e-09
2.45426e-06
5.18056e-09
2.4541e-06
6.29014e-09
2.45398e-06
7.68049e-09
2.45393e-06
9.37629e-09
1.13342e-08
2.454e-06
2.59476e-06
8.00231e-11
2.59474e-06
2.40807e-10
2.59472e-06
4.04921e-10
2.59469e-06
5.75507e-10
2.59465e-06
7.55604e-10
2.5946e-06
9.48475e-10
2.59454e-06
1.15811e-09
2.59447e-06
1.38951e-09
2.59439e-06
1.64892e-09
2.5943e-06
1.94425e-09
2.59419e-06
2.2858e-09
2.59407e-06
2.68707e-09
2.59393e-06
3.16594e-09
2.59379e-06
3.74611e-09
2.59363e-06
4.45827e-09
2.59347e-06
5.34116e-09
2.59332e-06
6.43825e-09
2.59321e-06
7.79036e-09
2.59317e-06
9.4113e-09
1.12527e-08
2.59326e-06
2.74187e-06
8.4391e-11
2.74186e-06
2.53929e-10
2.74183e-06
4.26911e-10
2.7418e-06
6.06593e-10
2.74176e-06
7.96127e-10
2.74171e-06
9.98881e-10
2.74165e-06
1.21894e-09
2.74158e-06
1.46137e-09
2.7415e-06
1.73251e-09
2.7414e-06
2.04029e-09
2.74129e-06
2.39492e-09
2.74117e-06
2.80963e-09
2.74103e-06
3.30166e-09
2.74088e-06
3.89339e-09
2.74073e-06
4.61307e-09
2.74058e-06
5.49504e-09
2.74044e-06
6.57609e-09
2.74034e-06
7.88733e-09
2.74032e-06
9.43361e-09
1.11642e-08
2.74041e-06
2.89732e-06
8.89e-11
2.89731e-06
2.67473e-10
2.89729e-06
4.49599e-10
2.89725e-06
6.38643e-10
2.89721e-06
8.37861e-10
2.89716e-06
1.05071e-09
2.8971e-06
1.28136e-09
2.89702e-06
1.53494e-09
2.89694e-06
1.81781e-09
2.89684e-06
2.1379e-09
2.89673e-06
2.50525e-09
2.89661e-06
2.93273e-09
2.89647e-06
3.43681e-09
2.89633e-06
4.03841e-09
2.89618e-06
4.76322e-09
2.89603e-06
5.64125e-09
2.89591e-06
6.70301e-09
2.89582e-06
7.97123e-09
2.89581e-06
9.44359e-09
1.1069e-08
2.89591e-06
3.06159e-06
9.35418e-11
3.06158e-06
2.81412e-10
3.06155e-06
4.7294e-10
3.06152e-06
6.7159e-10
3.06148e-06
8.80711e-10
3.06142e-06
1.10384e-09
3.06136e-06
1.3452e-09
3.06129e-06
1.60998e-09
3.0612e-06
1.90452e-09
3.0611e-06
2.23667e-09
3.06099e-06
2.61627e-09
3.06087e-06
3.05573e-09
3.06073e-06
3.57062e-09
3.06059e-06
4.18026e-09
3.06045e-06
4.90776e-09
3.06031e-06
5.77893e-09
3.06019e-06
6.81845e-09
3.06012e-06
8.04196e-09
3.06012e-06
9.44161e-09
1.09675e-08
3.06023e-06
3.23517e-06
9.83055e-11
3.23516e-06
2.95714e-10
3.23513e-06
4.96877e-10
3.2351e-06
7.05348e-10
3.23506e-06
9.24556e-10
3.235e-06
1.1581e-09
3.23494e-06
1.41025e-09
3.23486e-06
1.6862e-09
3.23477e-06
1.99226e-09
3.23467e-06
2.33616e-09
3.23456e-06
2.72742e-09
3.23444e-06
3.17792e-09
3.23431e-06
3.70223e-09
3.23417e-06
4.31803e-09
3.23403e-06
5.04576e-09
3.2339e-06
5.90725e-09
3.2338e-06
6.92193e-09
3.23374e-06
8.0995e-09
3.23376e-06
9.42806e-09
1.086e-08
3.23386e-06
3.41859e-06
1.03178e-10
3.41858e-06
3.10336e-10
3.41855e-06
5.21337e-10
3.41852e-06
7.39809e-10
3.41848e-06
9.69247e-10
3.41842e-06
1.2133e-09
3.41835e-06
1.47626e-09
3.41828e-06
1.76329e-09
3.41819e-06
2.08064e-09
3.41809e-06
2.43583e-09
3.41798e-06
2.83807e-09
3.41786e-06
3.29854e-09
3.41773e-06
3.8308e-09
3.4176e-06
4.45078e-09
3.41747e-06
5.17629e-09
3.41735e-06
6.02547e-09
3.41726e-06
7.01306e-09
3.41721e-06
8.14389e-09
3.41724e-06
9.40333e-09
1.07467e-08
3.41735e-06
3.61242e-06
1.08141e-10
3.6124e-06
3.25228e-10
3.61238e-06
5.46232e-10
3.61234e-06
7.74844e-10
3.61229e-06
1.01461e-09
3.61224e-06
1.2692e-09
3.61217e-06
1.54291e-09
3.61209e-06
1.84086e-09
3.61201e-06
2.16916e-09
3.61191e-06
2.53513e-09
3.6118e-06
2.94751e-09
3.61168e-06
3.4168e-09
3.61155e-06
3.95542e-09
3.61143e-06
4.57755e-09
3.61131e-06
5.29849e-09
3.6112e-06
6.13293e-09
3.61112e-06
7.09152e-09
3.61109e-06
8.17526e-09
3.61112e-06
9.3678e-09
1.06278e-08
3.61124e-06
3.81723e-06
1.13175e-10
3.81721e-06
3.40328e-10
3.81719e-06
5.71456e-10
3.81715e-06
8.10297e-10
3.8171e-06
1.06043e-09
3.81705e-06
1.32553e-09
3.81698e-06
1.60987e-09
3.8169e-06
1.91848e-09
3.81682e-06
2.25732e-09
3.81672e-06
2.6334e-09
3.81661e-06
3.055e-09
3.81649e-06
3.53186e-09
3.81637e-06
4.07518e-09
3.81625e-06
4.69744e-09
3.81614e-06
5.41152e-09
3.81605e-06
6.22901e-09
3.81598e-06
7.1571e-09
3.81596e-06
8.19377e-09
3.81601e-06
9.32186e-09
1.05037e-08
3.81613e-06
4.03365e-06
1.18256e-10
4.03363e-06
3.55562e-10
4.03361e-06
5.96884e-10
4.03357e-06
8.45989e-10
4.03353e-06
1.10647e-09
4.03347e-06
1.38198e-09
4.0334e-06
1.67674e-09
4.03333e-06
1.99568e-09
4.03324e-06
2.34453e-09
4.03314e-06
2.72998e-09
4.03304e-06
3.15977e-09
4.03293e-06
3.64283e-09
4.03281e-06
4.18916e-09
4.0327e-06
4.80955e-09
4.0326e-06
5.51463e-09
4.03251e-06
6.31324e-09
4.03246e-06
7.20965e-09
4.03245e-06
8.19964e-09
4.03251e-06
9.26589e-09
1.03744e-08
4.03264e-06
4.26234e-06
1.23356e-10
4.26233e-06
3.70846e-10
4.2623e-06
6.22373e-10
4.26226e-06
8.81713e-10
4.26222e-06
1.15245e-09
4.26216e-06
1.4382e-09
4.2621e-06
1.7431e-09
4.26202e-06
2.07192e-09
4.26193e-06
2.43017e-09
4.26184e-06
2.82414e-09
4.26174e-06
3.261e-09
4.26163e-06
3.74883e-09
4.26153e-06
4.29646e-09
4.26142e-06
4.91304e-09
4.26133e-06
5.60713e-09
4.26126e-06
6.38519e-09
4.26122e-06
7.24911e-09
4.26123e-06
8.19311e-09
4.26129e-06
9.20026e-09
1.02402e-08
4.26142e-06
4.504e-06
1.28442e-10
4.50399e-06
3.86084e-10
4.50396e-06
6.47761e-10
4.50392e-06
9.17236e-10
4.50388e-06
1.19806e-09
4.50382e-06
1.49379e-09
4.50376e-06
1.80845e-09
4.50368e-06
2.14663e-09
4.5036e-06
2.51356e-09
4.50351e-06
2.91511e-09
4.50341e-06
3.35785e-09
4.50331e-06
3.849e-09
4.50321e-06
4.39621e-09
4.50312e-06
5.00711e-09
4.50304e-06
5.68843e-09
4.50298e-06
6.44454e-09
4.50295e-06
7.27549e-09
4.50297e-06
8.17448e-09
4.50304e-06
9.12533e-09
1.01011e-08
4.50318e-06
4.75936e-06
1.33479e-10
4.75935e-06
4.01167e-10
4.75932e-06
6.72866e-10
4.75929e-06
9.52298e-10
4.75924e-06
1.24296e-09
4.75919e-06
1.54833e-09
4.75912e-06
1.87228e-09
4.75905e-06
2.2192e-09
4.75897e-06
2.594e-09
4.75888e-06
3.00211e-09
4.75879e-06
3.44947e-09
4.7587e-06
3.94244e-09
4.75861e-06
4.48756e-09
4.75852e-06
5.09106e-09
4.75845e-06
5.75799e-09
4.75841e-06
6.49106e-09
4.75839e-06
7.28887e-09
4.75842e-06
8.14405e-09
4.75851e-06
9.04144e-09
9.9574e-09
4.75865e-06
5.0292e-06
1.38427e-10
5.02918e-06
4.15977e-10
5.02916e-06
6.97485e-10
5.02913e-06
9.86613e-10
5.02908e-06
1.28678e-09
5.02903e-06
1.60135e-09
5.02897e-06
1.93403e-09
5.0289e-06
2.28897e-09
5.02882e-06
2.67076e-09
5.02874e-06
3.08433e-09
5.02865e-06
3.53501e-09
5.02857e-06
4.02832e-09
5.02848e-06
4.56975e-09
5.02841e-06
5.16423e-09
5.02835e-06
5.81541e-09
5.02832e-06
6.5246e-09
5.02832e-06
7.28938e-09
5.02836e-06
8.10214e-09
5.02845e-06
8.94893e-09
9.80911e-09
5.0286e-06
5.31434e-06
1.43242e-10
5.31432e-06
4.30382e-10
5.3143e-06
7.21402e-10
5.31426e-06
1.01987e-09
5.31422e-06
1.32912e-09
5.31417e-06
1.65236e-09
5.31411e-06
1.99312e-09
5.31405e-06
2.35529e-09
5.31397e-06
2.74309e-09
5.3139e-06
3.16099e-09
5.31382e-06
3.61366e-09
5.31374e-06
4.10585e-09
5.31367e-06
4.64205e-09
5.31361e-06
5.22607e-09
5.31356e-06
5.86036e-09
5.31354e-06
6.54512e-09
5.31355e-06
7.27721e-09
5.31361e-06
8.04911e-09
5.31371e-06
8.84812e-09
9.65635e-09
5.31386e-06
5.61564e-06
1.47879e-10
5.61563e-06
4.44245e-10
5.6156e-06
7.44385e-10
5.61557e-06
1.05176e-09
5.61553e-06
1.36955e-09
5.61548e-06
1.70085e-09
5.61543e-06
2.04896e-09
5.61536e-06
2.41748e-09
5.6153e-06
2.81026e-09
5.61523e-06
3.23129e-09
5.61516e-06
3.68464e-09
5.61509e-06
4.17429e-09
5.61503e-06
4.70384e-09
5.61498e-06
5.27613e-09
5.61494e-06
5.8926e-09
5.61494e-06
6.55261e-09
5.61496e-06
7.2526e-09
5.61502e-06
7.98531e-09
5.61513e-06
8.73931e-09
9.49919e-09
5.61529e-06
5.93403e-06
1.52287e-10
5.93401e-06
4.57418e-10
5.93399e-06
7.66189e-10
5.93396e-06
1.08192e-09
5.93392e-06
1.40766e-09
5.93388e-06
1.7463e-09
5.93383e-06
2.10093e-09
5.93377e-06
2.47485e-09
5.93371e-06
2.87153e-09
5.93364e-06
3.29449e-09
5.93358e-06
3.74721e-09
5.93352e-06
4.23296e-09
5.93347e-06
4.75458e-09
5.93343e-06
5.31404e-09
5.93341e-06
5.91199e-09
5.93342e-06
6.54719e-09
5.93346e-06
7.21583e-09
5.93353e-06
7.91109e-09
5.93365e-06
8.62279e-09
9.33772e-09
5.93381e-06
6.27046e-06
1.56416e-10
6.27045e-06
4.69751e-10
6.27043e-06
7.86566e-10
6.2704e-06
1.11002e-09
6.27037e-06
1.44298e-09
6.27033e-06
1.78817e-09
6.27028e-06
2.14843e-09
6.27023e-06
2.52674e-09
6.27017e-06
2.92621e-09
6.27012e-06
3.34989e-09
6.27006e-06
3.8007e-09
6.27001e-06
4.28131e-09
6.26997e-06
4.79383e-09
6.26995e-06
5.33955e-09
6.26994e-06
5.9185e-09
6.26996e-06
6.529e-09
6.27001e-06
7.16722e-09
6.27009e-06
7.82682e-09
6.27022e-06
8.49885e-09
9.172e-09
6.27038e-06
6.62598e-06
1.60216e-10
6.62596e-06
4.81091e-10
6.62595e-06
8.05262e-10
6.62592e-06