/*--------------------------------*- C++ -*----------------------------------*\
| =========                 |                                                 |
| \\      /  F ield         | OpenFOAM: The Open Source CFD Toolbox           |
|  \\    /   O peration     | Version:  v1912                                 |
|   \\  /    A nd           | Website:  www.openfoam.com                      |
|    \\/     M anipulation  |                                                 |
\*---------------------------------------------------------------------------*/
FoamFile
{
    version     2.0;
    format      ascii;
    class       volVectorField;
    location    "300";
    object      U;
}
// * * * * * * * * * * * * * * * * * * * * * * * * * * * * * * * * * * * * * //

dimensions      [0 1 -1 0 0 0 0];


internalField   nonuniform List<vector> 
10000
(
(1 1.92366e-08 0)
(0.999996 6.24285e-08 0)
(0.999989 1.11158e-07 0)
(0.999977 1.59897e-07 0)
(0.999961 2.09791e-07 0)
(0.999941 2.63788e-07 0)
(0.999915 3.23734e-07 0)
(0.999884 3.91296e-07 0)
(0.999847 4.68556e-07 0)
(0.999802 5.59582e-07 0)
(0.999749 6.67449e-07 0)
(0.999686 8.05221e-07 0)
(0.999609 9.67224e-07 0)
(0.999518 1.22602e-06 0)
(0.999395 1.44657e-06 0)
(0.999266 2.26569e-06 0)
(0.999 1.79181e-06 0)
(0.998956 9.11231e-06 0)
(0.997408 -2.35464e-05 0)
(1.00286 0.000663789 0)
(1 5.86255e-08 0)
(0.999996 1.90556e-07 0)
(0.999989 3.39263e-07 0)
(0.999977 4.88192e-07 0)
(0.999961 6.4067e-07 0)
(0.999941 8.05644e-07 0)
(0.999915 9.88777e-07 0)
(0.999884 1.19516e-06 0)
(0.999847 1.43116e-06 0)
(0.999802 1.70918e-06 0)
(0.999749 2.03869e-06 0)
(0.999686 2.45936e-06 0)
(0.999609 2.95445e-06 0)
(0.999518 3.74386e-06 0)
(0.999395 4.42e-06 0)
(0.999266 6.912e-06 0)
(0.999 5.50165e-06 0)
(0.998952 2.74795e-05 0)
(0.997463 -6.23243e-05 0)
(1.00132 0.00135059 0)
(1 1.00202e-07 0)
(0.999996 3.25807e-07 0)
(0.999989 5.79797e-07 0)
(0.999977 8.34528e-07 0)
(0.999961 1.09539e-06 0)
(0.999941 1.37756e-06 0)
(0.999915 1.69075e-06 0)
(0.999884 2.04369e-06 0)
(0.999847 2.44728e-06 0)
(0.999802 2.92267e-06 0)
(0.999749 3.4862e-06 0)
(0.999686 4.20525e-06 0)
(0.999609 5.05243e-06 0)
(0.999518 6.40007e-06 0)
(0.999395 7.56206e-06 0)
(0.999266 1.17986e-05 0)
(0.999001 9.5e-06 0)
(0.998946 4.58881e-05 0)
(0.997544 -8.29358e-05 0)
(1.00013 0.00135279 0)
(1 1.44435e-07 0)
(0.999996 4.69068e-07 0)
(0.999989 8.34229e-07 0)
(0.999977 1.20076e-06 0)
(0.999961 1.57618e-06 0)
(0.999941 1.98224e-06 0)
(0.999915 2.43293e-06 0)
(0.999884 2.94078e-06 0)
(0.999847 3.52154e-06 0)
(0.999802 4.20557e-06 0)
(0.999749 5.01651e-06 0)
(0.999686 6.05091e-06 0)
(0.999609 7.27057e-06 0)
(0.999518 9.20726e-06 0)
(0.999395 1.08868e-05 0)
(0.999266 1.69471e-05 0)
(0.999003 1.38391e-05 0)
(0.998937 6.41696e-05 0)
(0.997637 -9.05458e-05 0)
(0.999266 0.0012025 0)
(1 1.91346e-07 0)
(0.999996 6.20625e-07 0)
(0.999989 1.10316e-06 0)
(0.999977 1.58782e-06 0)
(0.999961 2.08432e-06 0)
(0.999941 2.6213e-06 0)
(0.999915 3.21728e-06 0)
(0.999884 3.88884e-06 0)
(0.999847 4.65683e-06 0)
(0.999803 5.56133e-06 0)
(0.999749 6.63376e-06 0)
(0.999686 8.00126e-06 0)
(0.999609 9.61485e-06 0)
(0.999518 1.21726e-05 0)
(0.999396 1.44041e-05 0)
(0.999266 2.23628e-05 0)
(0.999004 1.85753e-05 0)
(0.998926 8.21369e-05 0)
(0.997735 -8.89867e-05 0)
(0.99864 0.00113943 0)
(1 2.41058e-07 0)
(0.999996 7.80896e-07 0)
(0.999989 1.38732e-06 0)
(0.999977 1.99678e-06 0)
(0.999961 2.62121e-06 0)
(0.999941 3.29654e-06 0)
(0.999915 4.04603e-06 0)
(0.999884 4.89056e-06 0)
(0.999847 5.85636e-06 0)
(0.999803 6.99377e-06 0)
(0.999749 8.34249e-06 0)
(0.999686 1.00617e-05 0)
(0.999609 1.20919e-05 0)
(0.999518 1.53037e-05 0)
(0.999396 1.81254e-05 0)
(0.999265 2.805e-05 0)
(0.999007 2.3768e-05 0)
(0.998913 9.96692e-05 0)
(0.997831 -7.99305e-05 0)
(0.998195 0.00111899 0)
(1 2.93762e-07 0)
(0.999996 9.50403e-07 0)
(0.999989 1.68754e-06 0)
(0.999977 2.42885e-06 0)
(0.999961 3.18847e-06 0)
(0.999941 4.00997e-06 0)
(0.999915 4.92165e-06 0)
(0.999884 5.94891e-06 0)
(0.999847 7.1237e-06 0)
(0.999803 8.50713e-06 0)
(0.99975 1.01478e-05 0)
(0.999686 1.22383e-05 0)
(0.999609 1.47091e-05 0)
(0.999518 1.86092e-05 0)
(0.999396 2.20637e-05 0)
(0.999265 3.40139e-05 0)
(0.99901 2.94735e-05 0)
(0.998899 0.000116718 0)
(0.997923 -6.47123e-05 0)
(0.997888 0.0011058 0)
(1 3.49673e-07 0)
(0.999996 1.12971e-06 0)
(0.999989 2.00474e-06 0)
(0.999977 2.88533e-06 0)
(0.999961 3.78781e-06 0)
(0.999941 4.76374e-06 0)
(0.999915 5.84677e-06 0)
(0.999884 7.06707e-06 0)
(0.999847 8.46264e-06 0)
(0.999803 1.01059e-05 0)
(0.99975 1.2055e-05 0)
(0.999686 1.45374e-05 0)
(0.999609 1.74744e-05 0)
(0.999518 2.20979e-05 0)
(0.999396 2.62326e-05 0)
(0.999265 4.026e-05 0)
(0.999013 3.57426e-05 0)
(0.998886 0.000133295 0)
(0.998005 -4.4639e-05 0)
(0.997687 0.00109465 0)
(1 4.09025e-07 0)
(0.999996 1.31941e-06 0)
(0.999989 2.33986e-06 0)
(0.999977 3.36758e-06 0)
(0.999961 4.42101e-06 0)
(0.999941 5.5601e-06 0)
(0.999915 6.82415e-06 0)
(0.999884 8.24837e-06 0)
(0.999847 9.87716e-06 0)
(0.999803 1.17949e-05 0)
(0.99975 1.40698e-05 0)
(0.999687 1.69657e-05 0)
(0.99961 2.03958e-05 0)
(0.999518 2.57791e-05 0)
(0.999397 3.06464e-05 0)
(0.999265 4.67943e-05 0)
(0.999017 4.26184e-05 0)
(0.998873 0.000149458 0)
(0.998078 -2.08275e-05 0)
(0.997568 0.00108728 0)
(1 4.72074e-07 0)
(0.999996 1.52016e-06 0)
(0.999989 2.69391e-06 0)
(0.999977 3.87703e-06 0)
(0.999961 5.08996e-06 0)
(0.999941 6.40142e-06 0)
(0.999915 7.85671e-06 0)
(0.999884 9.49631e-06 0)
(0.999847 1.13714e-05 0)
(0.999803 1.35789e-05 0)
(0.99975 1.61981e-05 0)
(0.999687 1.95302e-05 0)
(0.99961 2.34822e-05 0)
(0.999518 2.96622e-05 0)
(0.999397 3.53201e-05 0)
(0.999265 5.36233e-05 0)
(0.999021 5.01362e-05 0)
(0.998861 0.000165297 0)
(0.99814 5.83655e-06 0)
(0.997509 0.00108402 0)
(1 5.39111e-07 0)
(0.999996 1.73266e-06 0)
(0.999989 3.06795e-06 0)
(0.999977 4.41518e-06 0)
(0.999961 5.79664e-06 0)
(0.999941 7.29021e-06 0)
(0.999915 8.94748e-06 0)
(0.999884 1.08146e-05 0)
(0.999847 1.29499e-05 0)
(0.999803 1.54633e-05 0)
(0.99975 1.8446e-05 0)
(0.999687 2.22381e-05 0)
(0.99961 2.67424e-05 0)
(0.999519 3.3757e-05 0)
(0.999398 4.02693e-05 0)
(0.999265 6.07547e-05 0)
(0.999025 5.83227e-05 0)
(0.998851 0.000180922 0)
(0.998192 3.46646e-05 0)
(0.997495 0.0010841 0)
(1 6.10467e-07 0)
(0.999996 1.95767e-06 0)
(0.999989 3.46307e-06 0)
(0.999977 4.9836e-06 0)
(0.999961 6.54315e-06 0)
(0.999941 8.22909e-06 0)
(0.999915 1.00997e-05 0)
(0.999884 1.2207e-05 0)
(0.999847 1.4617e-05 0)
(0.999803 1.74535e-05 0)
(0.99975 2.08202e-05 0)
(0.999687 2.5097e-05 0)
(0.99961 3.01859e-05 0)
(0.999519 3.80736e-05 0)
(0.999399 4.55101e-05 0)
(0.999265 6.81971e-05 0)
(0.99903 6.71974e-05 0)
(0.998844 0.000196447 0)
(0.998235 6.51384e-05 0)
(0.997512 0.00108668 0)
(1 6.86516e-07 0)
(0.999996 2.19603e-06 0)
(0.999989 3.88045e-06 0)
(0.999977 5.58394e-06 0)
(0.999961 7.33167e-06 0)
(0.999941 9.22081e-06 0)
(0.999915 1.13167e-05 0)
(0.999884 1.36777e-05 0)
(0.999847 1.63778e-05 0)
(0.999803 1.95551e-05 0)
(0.99975 2.33273e-05 0)
(0.999687 2.81147e-05 0)
(0.99961 3.38226e-05 0)
(0.999519 4.26222e-05 0)
(0.999399 5.10586e-05 0)
(0.999265 7.59601e-05 0)
(0.999034 7.67742e-05 0)
(0.998838 0.000211976 0)
(0.99827 9.68975e-05 0)
(0.997549 0.00109103 0)
(1 7.67685e-07 0)
(0.999996 2.44866e-06 0)
(0.999989 4.32133e-06 0)
(0.999977 6.21792e-06 0)
(0.999961 8.16451e-06 0)
(0.999941 1.02683e-05 0)
(0.999915 1.26021e-05 0)
(0.999884 1.52309e-05 0)
(0.999847 1.82373e-05 0)
(0.999803 2.17742e-05 0)
(0.99975 2.59745e-05 0)
(0.999687 3.12996e-05 0)
(0.999611 3.76627e-05 0)
(0.99952 4.74134e-05 0)
(0.9994 5.69316e-05 0)
(0.999265 8.4054e-05 0)
(0.999039 8.70642e-05 0)
(0.998835 0.000227594 0)
(0.9983 0.000129724 0)
(0.997599 0.00109651 0)
(1 8.54458e-07 0)
(0.999996 2.71661e-06 0)
(0.999989 4.78698e-06 0)
(0.999977 6.88732e-06 0)
(0.999961 9.04408e-06 0)
(0.999941 1.13746e-05 0)
(0.999915 1.39596e-05 0)
(0.999885 1.68711e-05 0)
(0.999847 2.02008e-05 0)
(0.999803 2.4117e-05 0)
(0.99975 2.87692e-05 0)
(0.999688 3.46601e-05 0)
(0.999611 4.17168e-05 0)
(0.99952 5.24578e-05 0)
(0.999401 6.31457e-05 0)
(0.999266 9.24891e-05 0)
(0.999043 9.80788e-05 0)
(0.998833 0.000243351 0)
(0.998327 0.00016352 0)
(0.997656 0.00110254 0)
(1 9.47371e-07 0)
(0.999996 3.001e-06 0)
(0.999989 5.27875e-06 0)
(0.999977 7.59399e-06 0)
(0.999961 9.97288e-06 0)
(0.999941 1.25428e-05 0)
(0.999915 1.53931e-05 0)
(0.999885 1.86029e-05 0)
(0.999848 2.22738e-05 0)
(0.999803 2.659e-05 0)
(0.999751 3.17192e-05 0)
(0.999688 3.8205e-05 0)
(0.999612 4.59958e-05 0)
(0.999521 5.77665e-05 0)
(0.999402 6.9718e-05 0)
(0.999267 0.000101275 0)
(0.999048 0.000109833 0)
(0.998834 0.000259266 0)
(0.998351 0.000198276 0)
(0.997716 0.00110866 0)
(1 1.04699e-06 0)
(0.999997 3.30308e-06 0)
(0.999989 5.79807e-06 0)
(0.999977 8.3398e-06 0)
(0.999961 1.09535e-05 0)
(0.999941 1.37764e-05 0)
(0.999916 1.69066e-05 0)
(0.999885 2.04312e-05 0)
(0.999848 2.44622e-05 0)
(0.999804 2.92001e-05 0)
(0.999751 3.48325e-05 0)
(0.999688 4.19435e-05 0)
(0.999612 5.05112e-05 0)
(0.999521 6.33504e-05 0)
(0.999404 7.66656e-05 0)
(0.999268 0.000110419 0)
(0.999053 0.000122346 0)
(0.998836 0.000275321 0)
(0.998375 0.000234038 0)
(0.997778 0.0011145 0)
(1 1.15388e-06 0)
(0.999997 3.62422e-06 0)
(0.999989 6.34639e-06 0)
(0.999977 9.12667e-06 0)
(0.999961 1.19886e-05 0)
(0.999941 1.50787e-05 0)
(0.999916 1.85044e-05 0)
(0.999885 2.23611e-05 0)
(0.999848 2.67718e-05 0)
(0.999804 3.19542e-05 0)
(0.999751 3.81174e-05 0)
(0.999689 4.58849e-05 0)
(0.999613 5.52744e-05 0)
(0.999522 6.92207e-05 0)
(0.999405 8.40057e-05 0)
(0.999269 0.000119927 0)
(0.999058 0.000135643 0)
(0.998839 0.00029148 0)
(0.9984 0.000270871 0)
(0.99784 0.00111982 0)
(1 1.26853e-06 0)
(0.999997 3.96578e-06 0)
(0.999989 6.92528e-06 0)
(0.999977 9.95652e-06 0)
(0.999961 1.30809e-05 0)
(0.999941 1.64531e-05 0)
(0.999916 2.01906e-05 0)
(0.999885 2.43976e-05 0)
(0.999848 2.92089e-05 0)
(0.999804 3.48595e-05 0)
(0.999752 4.15822e-05 0)
(0.999689 5.00387e-05 0)
(0.999613 6.0297e-05 0)
(0.999523 7.53882e-05 0)
(0.999407 9.17552e-05 0)
(0.999271 0.000129804 0)
(0.999064 0.00014975 0)
(0.998844 0.000307694 0)
(0.998425 0.000308823 0)
(0.997903 0.00112449 0)
(1 1.39129e-06 0)
(0.999997 4.32911e-06 0)
(0.999989 7.53636e-06 0)
(0.999977 1.08314e-05 0)
(0.999961 1.42333e-05 0)
(0.999941 1.79035e-05 0)
(0.999916 2.19697e-05 0)
(0.999885 2.6546e-05 0)
(0.999848 3.17794e-05 0)
(0.999804 3.79229e-05 0)
(0.999752 4.52353e-05 0)
(0.99969 5.44141e-05 0)
(0.999614 6.55902e-05 0)
(0.999524 8.18634e-05 0)
(0.999408 9.99293e-05 0)
(0.999273 0.00014005 0)
(0.99907 0.000164685 0)
(0.99885 0.000323927 0)
(0.998452 0.000347879 0)
(0.997967 0.00112848 0)
(1 1.52237e-06 0)
(0.999997 4.71538e-06 0)
(0.999989 8.18139e-06 0)
(0.999977 1.17534e-05 0)
(0.999962 1.54487e-05 0)
(0.999941 1.94337e-05 0)
(0.999916 2.38466e-05 0)
(0.999885 2.88119e-05 0)
(0.999849 3.44901e-05 0)
(0.999805 4.11522e-05 0)
(0.999752 4.90852e-05 0)
(0.99969 5.90206e-05 0)
(0.999615 7.11647e-05 0)
(0.999525 8.86565e-05 0)
(0.99941 0.00010854 0)
(0.999275 0.000150671 0)
(0.999076 0.00018045 0)
(0.998857 0.000340173 0)
(0.998479 0.000387916 0)
(0.998032 0.00113188 0)
(1 1.66186e-06 0)
(0.999997 5.12554e-06 0)
(0.999989 8.86224e-06 0)
(0.999978 1.2725e-05 0)
(0.999962 1.67303e-05 0)
(0.999941 2.1048e-05 0)
(0.999916 2.58266e-05 0)
(0.999886 3.12019e-05 0)
(0.999849 3.73488e-05 0)
(0.999805 4.45565e-05 0)
(0.999753 5.31425e-05 0)
(0.999691 6.38698e-05 0)
(0.999616 7.70331e-05 0)
(0.999526 9.57806e-05 0)
(0.999413 0.000117599 0)
(0.999278 0.000161679 0)
(0.999083 0.000197023 0)
(0.998865 0.00035648 0)
(0.998508 0.000428655 0)
(0.998097 0.00113488 0)
(1 1.80983e-06 0)
(0.999997 5.56034e-06 0)
(0.999989 9.58089e-06 0)
(0.999978 1.37488e-05 0)
(0.999962 1.80815e-05 0)
(0.999941 2.27506e-05 0)
(0.999916 2.79149e-05 0)
(0.999886 3.37225e-05 0)
(0.999849 4.03633e-05 0)
(0.999806 4.81454e-05 0)
(0.999754 5.74189e-05 0)
(0.999692 6.89762e-05 0)
(0.999617 8.32116e-05 0)
(0.999528 0.000103256 0)
(0.999415 0.000127121 0)
(0.999281 0.000173108 0)
(0.999091 0.000214363 0)
(0.998875 0.000372983 0)
(0.998539 0.000469654 0)
(0.998163 0.00113779 0)
(1 1.96637e-06 0)
(0.999997 6.0204e-06 0)
(0.999989 1.03393e-05 0)
(0.999978 1.48276e-05 0)
(0.999962 1.95055e-05 0)
(0.999942 2.45453e-05 0)
(0.999917 3.01159e-05 0)
(0.999886 3.63785e-05 0)
(0.99985 4.35392e-05 0)
(0.999806 5.19255e-05 0)
(0.999754 6.19218e-05 0)
(0.999693 7.43492e-05 0)
(0.999619 8.97101e-05 0)
(0.99953 0.0001111 0)
(0.999418 0.000137112 0)
(0.999285 0.000185004 0)
(0.9991 0.000232394 0)
(0.998886 0.000389888 0)
(0.99857 0.000510316 0)
(0.998229 0.00114086 0)
(1 2.13161e-06 0)
(0.999997 6.50635e-06 0)
(0.999989 1.11398e-05 0)
(0.999978 1.59647e-05 0)
(0.999962 2.10062e-05 0)
(0.999942 2.64365e-05 0)
(0.999917 3.24345e-05 0)
(0.999886 3.91755e-05 0)
(0.99985 4.68822e-05 0)
(0.999807 5.59022e-05 0)
(0.999755 6.66559e-05 0)
(0.999694 7.9993e-05 0)
(0.99962 9.65291e-05 0)
(0.999532 0.000119316 0)
(0.999421 0.000147553 0)
(0.999289 0.00019739 0)
(0.999108 0.000250973 0)
(0.998899 0.00040736 0)
(0.998603 0.000549879 0)
(0.998295 0.00114412 0)
(1 2.30568e-06 0)
(0.999997 7.01898e-06 0)
(0.999989 1.19844e-05 0)
(0.999978 1.71637e-05 0)
(0.999962 2.2588e-05 0)
(0.999942 2.84298e-05 0)
(0.999917 3.48777e-05 0)
(0.999887 4.21216e-05 0)
(0.99985 5.04017e-05 0)
(0.999807 6.00867e-05 0)
(0.999756 7.16333e-05 0)
(0.999695 8.59211e-05 0)
(0.999621 0.000103681 0)
(0.999534 0.000127918 0)
(0.999425 0.00015844 0)
(0.999294 0.000210294 0)
(0.999118 0.000269976 0)
(0.998913 0.0004255 0)
(0.998635 0.000587683 0)
(0.998359 0.0011474 0)
(1 2.48875e-06 0)
(0.999997 7.55923e-06 0)
(0.999989 1.28758e-05 0)
(0.999978 1.84282e-05 0)
(0.999962 2.42558e-05 0)
(0.999942 3.05312e-05 0)
(0.999917 3.74529e-05 0)
(0.999887 4.52259e-05 0)
(0.999851 5.4109e-05 0)
(0.999808 6.44923e-05 0)
(0.999757 7.68702e-05 0)
(0.999696 9.21533e-05 0)
(0.999623 0.000111187 0)
(0.999536 0.000136937 0)
(0.999428 0.000169794 0)
(0.999299 0.000223765 0)
(0.999128 0.000289369 0)
(0.998928 0.000444378 0)
(0.998669 0.000623449 0)
(0.998421 0.00115073 0)
(1 2.68108e-06 0)
(0.999997 8.1282e-06 0)
(0.99999 1.38162e-05 0)
(0.999978 1.97619e-05 0)
(0.999962 2.6014e-05 0)
(0.999942 3.27462e-05 0)
(0.999917 4.01668e-05 0)
(0.999887 4.84965e-05 0)
(0.999851 5.80133e-05 0)
(0.999808 6.91298e-05 0)
(0.999757 8.23786e-05 0)
(0.999697 9.87032e-05 0)
(0.999625 0.000119062 0)
(0.999538 0.000146389 0)
(0.999432 0.000181628 0)
(0.999304 0.000237818 0)
(0.999138 0.000309117 0)
(0.998944 0.000463962 0)
(0.998703 0.00065708 0)
(0.998482 0.00115416 0)
(1 2.88299e-06 0)
(0.999997 8.72707e-06 0)
(0.99999 1.48079e-05 0)
(0.999978 2.11678e-05 0)
(0.999962 2.78668e-05 0)
(0.999942 3.50799e-05 0)
(0.999918 4.30255e-05 0)
(0.999888 5.19403e-05 0)
(0.999852 6.21226e-05 0)
(0.999809 7.4008e-05 0)
(0.999759 8.81681e-05 0)
(0.999698 0.000105581 0)
(0.999627 0.000127315 0)
(0.999541 0.000156281 0)
(0.999436 0.000193937 0)
(0.999311 0.000252443 0)
(0.99915 0.000329164 0)
(0.998962 0.000484135 0)
(0.998738 0.000688528 0)
(0.998542 0.0011576 0)
(1 3.09487e-06 0)
(0.999997 9.35711e-06 0)
(0.99999 1.58532e-05 0)
(0.999978 2.26494e-05 0)
(0.999962 2.98183e-05 0)
(0.999943 3.75374e-05 0)
(0.999918 4.6035e-05 0)
(0.999888 5.55646e-05 0)
(0.999852 6.64448e-05 0)
(0.99981 7.91356e-05 0)
(0.99976 9.42477e-05 0)
(0.9997 0.000112795 0)
(0.999629 0.000135954 0)
(0.999544 0.000166617 0)
(0.999441 0.000206719 0)
(0.999318 0.000267619 0)
(0.999162 0.000349456 0)
(0.998982 0.00050476 0)
(0.998774 0.00071781 0)
(0.998601 0.00116091 0)
(1 3.3172e-06 0)
(0.999997 1.00197e-05 0)
(0.99999 1.69542e-05 0)
(0.999978 2.421e-05 0)
(0.999963 3.18729e-05 0)
(0.999943 4.0124e-05 0)
(0.999918 4.92016e-05 0)
(0.999889 5.93763e-05 0)
(0.999853 7.0988e-05 0)
(0.999811 8.45213e-05 0)
(0.999761 0.000100627 0)
(0.999702 0.000120354 0)
(0.999632 0.000144985 0)
(0.999548 0.000177401 0)
(0.999447 0.000219966 0)
(0.999325 0.000283319 0)
(0.999175 0.000369941 0)
(0.999003 0.000525695 0)
(0.998811 0.000744975 0)
(0.99866 0.00116395 0)
(1 3.55046e-06 0)
(0.999997 1.07162e-05 0)
(0.99999 1.81135e-05 0)
(0.999978 2.5853e-05 0)
(0.999963 3.40348e-05 0)
(0.999943 4.28449e-05 0)
(0.999919 5.25315e-05 0)
(0.999889 6.33826e-05 0)
(0.999854 7.576e-05 0)
(0.999812 9.01736e-05 0)
(0.999762 0.000107313 0)
(0.999704 0.000128267 0)
(0.999634 0.000154414 0)
(0.999552 0.000188633 0)
(0.999452 0.000233668 0)
(0.999334 0.00029951 0)
(0.99919 0.00039056 0)
(0.999025 0.00054679 0)
(0.998849 0.000770089 0)
(0.998718 0.00116657 0)
(1 3.79516e-06 0)
(0.999997 1.1448e-05 0)
(0.99999 1.93334e-05 0)
(0.999978 2.75817e-05 0)
(0.999963 3.63084e-05 0)
(0.999943 4.57054e-05 0)
(0.999919 5.6031e-05 0)
(0.99989 6.75906e-05 0)
(0.999855 8.07684e-05 0)
(0.999813 9.61004e-05 0)
(0.999764 0.000114315 0)
(0.999706 0.000136539 0)
(0.999637 0.000164245 0)
(0.999556 0.000200311 0)
(0.999459 0.000247811 0)
(0.999343 0.000316152 0)
(0.999205 0.000411252 0)
(0.999049 0.000567896 0)
(0.998888 0.000793223 0)
(0.998775 0.00116864 0)
(1 4.05181e-06 0)
(0.999997 1.22166e-05 0)
(0.99999 2.06162e-05 0)
(0.999978 2.93996e-05 0)
(0.999963 3.86982e-05 0)
(0.999944 4.87108e-05 0)
(0.99992 5.97059e-05 0)
(0.99989 7.20069e-05 0)
(0.999856 8.60206e-05 0)
(0.999814 0.000102309 0)
(0.999766 0.000121639 0)
(0.999708 0.000145176 0)
(0.999641 0.000174479 0)
(0.999561 0.000212427 0)
(0.999466 0.000262373 0)
(0.999354 0.000333196 0)
(0.999221 0.00043195 0)
(0.999074 0.000588862 0)
(0.998928 0.00081445 0)
(0.998831 0.00117004 0)
(1 4.32094e-06 0)
(0.999997 1.30235e-05 0)
(0.99999 2.19642e-05 0)
(0.999979 3.131e-05 0)
(0.999963 4.12084e-05 0)
(0.999944 5.18659e-05 0)
(0.99992 6.35622e-05 0)
(0.999891 7.6638e-05 0)
(0.999857 9.1523e-05 0)
(0.999816 0.000108806 0)
(0.999768 0.000129291 0)
(0.999711 0.000154181 0)
(0.999645 0.000185113 0)
(0.999566 0.000224971 0)
(0.999474 0.00027733 0)
(0.999365 0.000350585 0)
(0.999239 0.000452581 0)
(0.999101 0.000609542 0)
(0.998968 0.000833842 0)
(0.998886 0.0011707 0)
(1 4.60304e-06 0)
(0.999997 1.38699e-05 0)
(0.99999 2.33797e-05 0)
(0.999979 3.33162e-05 0)
(0.999964 4.38429e-05 0)
(0.999944 5.51758e-05 0)
(0.999921 6.76051e-05 0)
(0.999892 8.14895e-05 0)
(0.999858 9.72816e-05 0)
(0.999817 0.000115596 0)
(0.99977 0.000137274 0)
(0.999714 0.000163553 0)
(0.999649 0.000196142 0)
(0.999572 0.000237925 0)
(0.999482 0.00029265 0)
(0.999377 0.000368257 0)
(0.999257 0.000473068 0)
(0.999129 0.000629793 0)
(0.999009 0.000851468 0)
(0.998941 0.00117053 0)
(1 4.89859e-06 0)
(0.999997 1.47573e-05 0)
(0.99999 2.48649e-05 0)
(0.999979 3.54211e-05 0)
(0.999964 4.66056e-05 0)
(0.999945 5.86446e-05 0)
(0.999921 7.18396e-05 0)
(0.999893 8.65665e-05 0)
(0.999859 0.000103301 0)
(0.999819 0.000122683 0)
(0.999772 0.000145589 0)
(0.999718 0.000173291 0)
(0.999653 0.000207558 0)
(0.999579 0.000251269 0)
(0.999491 0.000308292 0)
(0.999391 0.00038614 0)
(0.999277 0.000493331 0)
(0.999158 0.000649482 0)
(0.99905 0.000867394 0)
(0.998995 0.0011695 0)
(1 5.20803e-06 0)
(0.999997 1.56869e-05 0)
(0.99999 2.64218e-05 0)
(0.999979 3.76275e-05 0)
(0.999964 4.95001e-05 0)
(0.999945 6.22765e-05 0)
(0.999922 7.62698e-05 0)
(0.999894 9.18732e-05 0)
(0.999861 0.000109585 0)
(0.999821 0.00013007 0)
(0.999775 0.000154237 0)
(0.999721 0.000183389 0)
(0.999659 0.000219345 0)
(0.999586 0.000264975 0)
(0.999501 0.000324213 0)
(0.999405 0.000404155 0)
(0.999298 0.000513283 0)
(0.999188 0.000668483 0)
(0.999092 0.000881681 0)
(0.999048 0.00116757 0)
(1 5.53179e-06 0)
(0.999997 1.66599e-05 0)
(0.99999 2.80521e-05 0)
(0.999979 3.99379e-05 0)
(0.999965 5.25293e-05 0)
(0.999946 6.60748e-05 0)
(0.999923 8.08992e-05 0)
(0.999895 9.74125e-05 0)
(0.999862 0.000116134 0)
(0.999823 0.000137755 0)
(0.999778 0.000163212 0)
(0.999725 0.000193836 0)
(0.999664 0.000231485 0)
(0.999593 0.000279008 0)
(0.999512 0.000340358 0)
(0.99942 0.000422219 0)
(0.99932 0.000532838 0)
(0.999219 0.000686681 0)
(0.999135 0.000894384 0)
(0.9991 0.00116474 0)
(1 5.87022e-06 0)
(0.999997 1.76772e-05 0)
(0.99999 2.97574e-05 0)
(0.99998 4.23543e-05 0)
(0.999965 5.56956e-05 0)
(0.999947 7.0042e-05 0)
(0.999924 8.57299e-05 0)
(0.999896 0.000103186 0)
(0.999864 0.000122951 0)
(0.999826 0.000145737 0)
(0.999781 0.000172509 0)
(0.99973 0.00020462 0)
(0.99967 0.000243954 0)
(0.999602 0.00029333 0)
(0.999524 0.000356669 0)
(0.999437 0.000440243 0)
(0.999343 0.000551905 0)
(0.999251 0.000703972 0)
(0.999177 0.000905553 0)
(0.999152 0.00116102 0)
(1 6.22362e-06 0)
(0.999997 1.87398e-05 0)
(0.99999 3.15389e-05 0)
(0.99998 4.48784e-05 0)
(0.999965 5.9001e-05 0)
(0.999947 7.41797e-05 0)
(0.999925 9.07632e-05 0)
(0.999898 0.000109194 0)
(0.999866 0.000130031 0)
(0.999829 0.00015401 0)
(0.999785 0.000182116 0)
(0.999735 0.000215721 0)
(0.999677 0.000256721 0)
(0.999611 0.000307891 0)
(0.999537 0.000373077 0)
(0.999454 0.000458133 0)
(0.999367 0.000570395 0)
(0.999284 0.000720264 0)
(0.99922 0.000915236 0)
(0.999202 0.00115641 0)
(1 6.59219e-06 0)
(0.999997 1.98481e-05 0)
(0.999991 3.33975e-05 0)
(0.99998 4.7511e-05 0)
(0.999966 6.24463e-05 0)
(0.999948 7.84886e-05 0)
(0.999926 9.59986e-05 0)
(0.999899 0.000115434 0)
(0.999868 0.000137371 0)
(0.999832 0.000162565 0)
(0.999789 0.00019202 0)
(0.99974 0.000227115 0)
(0.999684 0.00026975 0)
(0.999621 0.000322638 0)
(0.99955 0.00038951 0)
(0.999473 0.000475792 0)
(0.999393 0.000588217 0)
(0.999318 0.000735478 0)
(0.999263 0.000923473 0)
(0.999252 0.00115095 0)
(1 6.97607e-06 0)
(0.999997 2.10026e-05 0)
(0.999991 3.53335e-05 0)
(0.99998 5.02525e-05 0)
(0.999966 6.60313e-05 0)
(0.999949 8.29677e-05 0)
(0.999927 0.000101434 0)
(0.999901 0.000121901 0)
(0.999871 0.000144964 0)
(0.999835 0.00017139 0)
(0.999793 0.000202199 0)
(0.999746 0.000238774 0)
(0.999692 0.000282999 0)
(0.999632 0.00033751 0)
(0.999564 0.000405887 0)
(0.999492 0.000493121 0)
(0.999419 0.000605284 0)
(0.999352 0.000749546 0)
(0.999306 0.000930307 0)
(0.999301 0.00114467 0)
(1 7.37524e-06 0)
(0.999997 2.2203e-05 0)
(0.999991 3.73465e-05 0)
(0.999981 5.31021e-05 0)
(0.999967 6.97549e-05 0)
(0.99995 8.76146e-05 0)
(0.999928 0.000107065 0)
(0.999903 0.00012859 0)
(0.999873 0.000152797 0)
(0.999838 0.000180468 0)
(0.999798 0.000212631 0)
(0.999753 0.000250661 0)
(0.999701 0.000296416 0)
(0.999643 0.00035244 0)
(0.99958 0.000422125 0)
(0.999513 0.000510021 0)
(0.999446 0.000621511 0)
(0.999387 0.000762414 0)
(0.999348 0.000935774 0)
(0.999348 0.0011376 0)
(1 7.78958e-06 0)
(0.999997 2.34491e-05 0)
(0.999991 3.94357e-05 0)
(0.999981 5.60581e-05 0)
(0.999968 7.36141e-05 0)
(0.999951 9.2425e-05 0)
(0.99993 0.000112885 0)
(0.999905 0.000135489 0)
(0.999876 0.000160857 0)
(0.999842 0.000189779 0)
(0.999803 0.000223284 0)
(0.999759 0.000262735 0)
(0.99971 0.000309947 0)
(0.999655 0.000367352 0)
(0.999596 0.000438133 0)
(0.999534 0.000526392 0)
(0.999474 0.000636819 0)
(0.999422 0.000774036 0)
(0.999391 0.000939913 0)
(0.999395 0.00112977 0)
(1 8.21876e-06 0)
(0.999997 2.47397e-05 0)
(0.999991 4.15993e-05 0)
(0.999981 5.91177e-05 0)
(0.999968 7.76048e-05 0)
(0.999952 9.73925e-05 0)
(0.999932 0.000118885 0)
(0.999907 0.000142586 0)
(0.999879 0.000169125 0)
(0.999846 0.000199296 0)
(0.999809 0.000234124 0)
(0.999767 0.000274948 0)
(0.99972 0.000323527 0)
(0.999668 0.000382167 0)
(0.999613 0.000453818 0)
(0.999556 0.000542137 0)
(0.999502 0.000651132 0)
(0.999457 0.00078438 0)
(0.999433 0.00094276 0)
(0.999441 0.00112123 0)
(1 8.66231e-06 0)
(0.999997 2.60734e-05 0)
(0.999991 4.38344e-05 0)
(0.999982 6.22765e-05 0)
(0.999969 8.17205e-05 0)
(0.999953 0.000102508 0)
(0.999933 0.000125052 0)
(0.99991 0.000149864 0)
(0.999883 0.000177577 0)
(0.999851 0.000208988 0)
(0.999815 0.000245108 0)
(0.999775 0.000287245 0)
(0.99973 0.000337088 0)
(0.999682 0.000396801 0)
(0.999631 0.000469086 0)
(0.999579 0.00055716 0)
(0.999531 0.000664382 0)
(0.999493 0.000793422 0)
(0.999474 0.000944353 0)
(0.999485 0.00111201 0)
(1 9.11951e-06 0)
(0.999997 2.7448e-05 0)
(0.999992 4.61372e-05 0)
(0.999982 6.55286e-05 0)
(0.99997 8.59529e-05 0)
(0.999954 0.00010776 0)
(0.999935 0.000131371 0)
(0.999913 0.000157301 0)
(0.999886 0.000186186 0)
(0.999856 0.000218817 0)
(0.999822 0.000256188 0)
(0.999784 0.000299565 0)
(0.999742 0.000350553 0)
(0.999696 0.000411164 0)
(0.999649 0.00048384 0)
(0.999603 0.000571372 0)
(0.99956 0.00067651 0)
(0.999528 0.000801149 0)
(0.999515 0.00094473 0)
(0.999529 0.00110214 0)
(1 9.58941e-06 0)
(0.999998 2.88606e-05 0)
(0.999992 4.85026e-05 0)
(0.999983 6.88663e-05 0)
(0.999971 9.02912e-05 0)
(0.999956 0.000113135 0)
(0.999937 0.000137822 0)
(0.999916 0.000164872 0)
(0.99989 0.000194918 0)
(0.999861 0.000228741 0)
(0.999829 0.000267311 0)
(0.999793 0.00031184 0)
(0.999753 0.000363841 0)
(0.999712 0.000425165 0)
(0.999669 0.000497987 0)
(0.999627 0.000584688 0)
(0.99959 0.000687463 0)
(0.999564 0.000807554 0)
(0.999555 0.000943929 0)
(0.999571 0.00109166 0)
(1 1.00708e-05 0)
(0.999998 3.03075e-05 0)
(0.999992 5.09241e-05 0)
(0.999983 7.22801e-05 0)
(0.999972 9.4722e-05 0)
(0.999957 0.000118613 0)
(0.99994 0.000144381 0)
(0.999919 0.000172546 0)
(0.999894 0.000203734 0)
(0.999867 0.000238711 0)
(0.999836 0.000278414 0)
(0.999802 0.000323997 0)
(0.999766 0.000376869 0)
(0.999727 0.000438709 0)
(0.999689 0.000511431 0)
(0.999652 0.000597028 0)
(0.99962 0.000697197 0)
(0.999599 0.00081264 0)
(0.999594 0.000941989 0)
(0.999613 0.00108058 0)
(1 1.05621e-05 0)
(0.999998 3.17839e-05 0)
(0.999992 5.33937e-05 0)
(0.999984 7.5758e-05 0)
(0.999973 9.92291e-05 0)
(0.999959 0.000124174 0)
(0.999942 0.000151021 0)
(0.999922 0.000180287 0)
(0.999899 0.00021259 0)
(0.999873 0.000248673 0)
(0.999844 0.000289433 0)
(0.999813 0.000335959 0)
(0.999779 0.000389546 0)
(0.999744 0.000451703 0)
(0.999709 0.000524083 0)
(0.999677 0.000608322 0)
(0.99965 0.000705677 0)
(0.999634 0.000816414 0)
(0.999633 0.000938949 0)
(0.999653 0.00106895 0)
(1 1.10614e-05 0)
(0.999998 3.32842e-05 0)
(0.999993 5.59017e-05 0)
(0.999985 7.92858e-05 0)
(0.999974 0.000103793 0)
(0.999961 0.000129792 0)
(0.999945 0.00015771 0)
(0.999926 0.000188057 0)
(0.999904 0.000221436 0)
(0.999879 0.000258565 0)
(0.999852 0.000300296 0)
(0.999823 0.000347641 0)
(0.999792 0.000401783 0)
(0.999761 0.000464053 0)
(0.99973 0.000535859 0)
(0.999702 0.000618507 0)
(0.99968 0.000712876 0)
(0.999668 0.000818892 0)
(0.99967 0.000934849 0)
(0.999691 0.00105677 0)
(1 1.15666e-05 0)
(0.999998 3.48017e-05 0)
(0.999993 5.84366e-05 0)
(0.999985 8.28468e-05 0)
(0.999975 0.000108391 0)
(0.999963 0.000135438 0)
(0.999947 0.000164411 0)
(0.999929 0.000195808 0)
(0.999909 0.000230217 0)
(0.999886 0.000268322 0)
(0.999861 0.000310925 0)
(0.999834 0.000358959 0)
(0.999806 0.000413487 0)
(0.999778 0.000475669 0)
(0.999751 0.000546678 0)
(0.999727 0.000627527 0)
(0.99971 0.000718776 0)
(0.999701 0.000820092 0)
(0.999707 0.000929725 0)
(0.999729 0.00104407 0)
(1 1.2075e-05 0)
(0.999998 3.63286e-05 0)
(0.999993 6.09849e-05 0)
(0.999986 8.64216e-05 0)
(0.999977 0.000112998 0)
(0.999965 0.000141079 0)
(0.99995 0.000171081 0)
(0.999933 0.000203491 0)
(0.999914 0.000238872 0)
(0.999893 0.000277873 0)
(0.99987 0.000321241 0)
(0.999846 0.000369825 0)
(0.999821 0.000424567 0)
(0.999796 0.000486463 0)
(0.999772 0.000556467 0)
(0.999753 0.000635337 0)
(0.999739 0.000723367 0)
(0.999734 0.000820039 0)
(0.999742 0.000923617 0)
(0.999764 0.00103087 0)
(1 1.25836e-05 0)
(0.999998 3.78557e-05 0)
(0.999994 6.35315e-05 0)
(0.999987 8.99883e-05 0)
(0.999978 0.000117583 0)
(0.999967 0.000146677 0)
(0.999953 0.000177676 0)
(0.999938 0.00021105 0)
(0.99992 0.000247337 0)
(0.999901 0.000287144 0)
(0.99988 0.00033116 0)
(0.999858 0.000380149 0)
(0.999835 0.000434934 0)
(0.999814 0.000496352 0)
(0.999794 0.000565163 0)
(0.999778 0.0006419 0)
(0.999768 0.000726647 0)
(0.999766 0.000818758 0)
(0.999776 0.000916561 0)
(0.999799 0.00101718 0)
(1 1.30891e-05 0)
(0.999998 3.93728e-05 0)
(0.999994 6.60589e-05 0)
(0.999988 9.35221e-05 0)
(0.999979 0.000122115 0)
(0.999969 0.000152192 0)
(0.999956 0.000184145 0)
(0.999942 0.000218426 0)
(0.999926 0.000255541 0)
(0.999908 0.000296057 0)
(0.99989 0.000340598 0)
(0.99987 0.000389843 0)
(0.99985 0.000444502 0)
(0.999832 0.000505262 0)
(0.999815 0.000572709 0)
(0.999803 0.000647188 0)
(0.999796 0.00072862 0)
(0.999797 0.000816281 0)
(0.999808 0.000908593 0)
(0.999832 0.00100302 0)
(1 1.35876e-05 0)
(0.999998 4.08685e-05 0)
(0.999995 6.8548e-05 0)
(0.999989 9.69957e-05 0)
(0.999981 0.000126558 0)
(0.999971 0.000157578 0)
(0.99996 0.000190434 0)
(0.999947 0.000225555 0)
(0.999932 0.000263414 0)
(0.999916 0.000304532 0)
(0.999899 0.00034947 0)
(0.999882 0.000398823 0)
(0.999865 0.000453189 0)
(0.99985 0.000513124 0)
(0.999836 0.000579058 0)
(0.999827 0.000651183 0)
(0.999823 0.000729297 0)
(0.999827 0.00081264 0)
(0.99984 0.000899747 0)
(0.999863 0.000988401 0)
(1 1.4075e-05 0)
(0.999998 4.23304e-05 0)
(0.999995 7.09778e-05 0)
(0.99999 0.000100379 0)
(0.999982 0.000130872 0)
(0.999974 0.000162788 0)
(0.999963 0.000196486 0)
(0.999951 0.000232371 0)
(0.999938 0.000270881 0)
(0.999924 0.000312489 0)
(0.99991 0.000357692 0)
(0.999895 0.000407004 0)
(0.99988 0.000460921 0)
(0.999868 0.000519878 0)
(0.999857 0.000584173 0)
(0.999851 0.000653874 0)
(0.99985 0.000728695 0)
(0.999855 0.000807868 0)
(0.999869 0.000890054 0)
(0.999893 0.000973328 0)
(1 1.45469e-05 0)
(0.999999 4.37449e-05 0)
(0.999996 7.33258e-05 0)
(0.999991 0.000103642 0)
(0.999984 0.000135018 0)
(0.999976 0.000167771 0)
(0.999967 0.000202243 0)
(0.999956 0.000238807 0)
(0.999945 0.000277868 0)
(0.999932 0.000319848 0)
(0.99992 0.000365185 0)
(0.999907 0.000414311 0)
(0.999895 0.000467631 0)
(0.999885 0.000525473 0)
(0.999878 0.000588026 0)
(0.999874 0.000655261 0)
(0.999875 0.000726835 0)
(0.999883 0.000802 0)
(0.999898 0.000879548 0)
(0.999921 0.000957813 0)
(1 1.49984e-05 0)
(0.999999 4.50979e-05 0)
(0.999996 7.55682e-05 0)
(0.999992 0.000106749 0)
(0.999986 0.000138951 0)
(0.999979 0.000172476 0)
(0.99997 0.000207642 0)
(0.999961 0.000244795 0)
(0.999951 0.0002843 0)
(0.999941 0.000326533 0)
(0.99993 0.00037187 0)
(0.99992 0.000420673 0)
(0.99991 0.00047326 0)
(0.999902 0.000529868 0)
(0.999897 0.000590598 0)