/*--------------------------------*- C++ -*----------------------------------*\
| =========                 |                                                 |
| \\      /  F ield         | OpenFOAM: The Open Source CFD Toolbox           |
|  \\    /   O peration     | Version:  v1912                                 |
|   \\  /    A nd           | Website:  www.openfoam.com                      |
|    \\/     M anipulation  |                                                 |
\*---------------------------------------------------------------------------*/
FoamFile
{
    version     2.0;
    format      ascii;
    class       volScalarField;
    location    "460";
    object      epsilon;
}
// * * * * * * * * * * * * * * * * * * * * * * * * * * * * * * * * * * * * * //

dimensions      [0 2 -3 0 0 0 0];


internalField   nonuniform List<scalar> 
12441
(
0.0102964
0.00908494
0.00832705
0.00770259
0.00718362
0.00674892
0.00638219
0.00607078
0.00580478
0.00557641
0.00537881
0.00520531
0.00505025
0.00491651
0.00480699
0.00469022
0.00487784
0.0203679
0.276301
3.04349
20.9536
39.25
0.0101189
0.00892009
0.00818395
0.00757683
0.00707187
0.0066486
0.0062913
0.00598776
0.0057284
0.00550574
0.00531302
0.00514361
0.00499185
0.00486145
0.00475566
0.00464415
0.00480306
0.0201079
0.260146
3.03567
21.2443
40.2318
0.00989686
0.00871732
0.00800026
0.00740903
0.00691742
0.00650547
0.00615786
0.00586272
0.00561073
0.00539465
0.00520789
0.00504395
0.00489738
0.00477226
0.0046719
0.00456355
0.00464545
0.0182126
0.220097
3.00437
21.6238
41.3784
0.00967328
0.00851368
0.00781489
0.00723879
0.00675984
0.00635859
0.00602012
0.00573288
0.00548781
0.00527787
0.00509665
0.00493796
0.00479658
0.00467622
0.00457995
0.00448001
0.00450159
0.0159389
0.181109
2.9812
22.0914
42.5504
0.00942905
0.00828905
0.007609
0.00704853
0.00658276
0.00619275
0.00586396
0.0055852
0.00534763
0.00514446
0.00496948
0.00481667
0.00468097
0.00456659
0.00447661
0.00438131
0.00435134
0.0138941
0.161117
2.98754
22.6092
43.6698
0.00922308
0.00809944
0.00743459
0.00688675
0.00643154
0.00605044
0.00572926
0.00545703
0.00522515
0.00502698
0.00485646
0.00470785
0.00457637
0.00446583
0.00437905
0.0042913
0.00427743
0.0139981
0.180525
3.0941
23.2406
44.7472
0.00900241
0.00789583
0.00724744
0.00671332
0.00626968
0.00589845
0.00558576
0.00532096
0.00509563
0.00490337
0.00473824
0.00459472
0.00446805
0.00436333
0.00428023
0.00419773
0.00602816
0.0230386
0.28627
3.39578
24.0865
45.7945
0.00882396
0.00773118
0.00709562
0.00657211
0.00613731
0.00577348
0.00546705
0.00520758
0.00498683
0.00479852
0.00463685
0.0044965
0.00437326
0.00427127
0.00419554
0.00515929
0.0342595
0.0792179
0.600423
4.03365
25.2727
46.8732
0.00862981
0.00755197
0.00693093
0.00641953
0.00599494
0.00563982
0.00534089
0.00508795
0.00487296
0.00468981
0.00453283
0.00439693
0.00427847
0.00414107
0.00539859
0.0267926
0.172986
0.294818
1.28809
5.16076
26.9324
48.0153
0.00847513
0.00740909
0.00679904
0.00629668
0.00587961
0.00553077
0.0052371
0.00498862
0.00477742
0.00459751
0.00444334
0.00431013
0.00419502
0.0042711
0.0250719
0.145829
0.505754
0.774084
2.36984
6.83656
29.1627
49.2846
0.00830568
0.00725262
0.0066553
0.00616358
0.00575546
0.00541425
0.00512715
0.00488439
0.00467822
0.00450279
0.00435267
0.00422429
0.00408337
0.00948151
0.110908
0.408935
0.970514
1.45177
3.62548
8.95414
31.9901
50.6975
0.00817067
0.00712793
0.00654017
0.00605629
0.00565467
0.00531885
0.00503627
0.00479731
0.00459434
0.00442162
0.00427384
0.00414896
0.00415868
0.0476444
0.301644
0.73774
1.39948
2.11904
4.79597
11.2922
35.3589
52.295
0.00802152
0.00699025
0.00641385
0.00593944
0.00554579
0.00521677
0.00494003
0.00470613
0.00450761
0.00433882
0.00419458
0.00403544
0.00832646
0.15728
0.537034
1.0155
1.71516
2.64632
5.76715
13.6326
39.1564
54.0597
0.00790064
0.00687863
0.00631078
0.00584339
0.00545555
0.00513136
0.00485865
0.00462816
0.00443251
0.00426617
0.00412404
0.00387957
0.0362942
0.314203
0.731914
1.2096
1.92918
3.0262
6.54083
15.8281
43.2432
56.0037
0.00776924
0.00675726
0.00619944
0.00574041
0.0053596
0.0050414
0.00477382
0.00454777
0.004356
0.00419308
0.00405399
0.0042593
0.107325
0.460794
0.870229
1.34059
2.07465
3.2965
7.15761
17.8078
47.4843
58.0812
0.00766018
0.0066566
0.0061065
0.00565381
0.00527824
0.00496439
0.00470047
0.00447749
0.00428833
0.00412762
0.00399052
0.00941462
0.204139
0.572938
0.965341
1.43119
2.17708
3.49422
7.65915
19.5523
51.7631
60.2902
0.00754422
0.00654952
0.00600834
0.00556307
0.00519372
0.00488514
0.00462571
0.0044066
0.00422078
0.004063
0.00392893
0.0315508
0.297078
0.653968
1.03261
1.49658
2.25257
3.64534
8.07808
21.0705
55.9918
62.571
0.00744271
0.00645594
0.00592205
0.00548278
0.00511842
0.00481401
0.0045581
0.00434197
0.00415872
0.00400313
0.00387367
0.077099
0.372378
0.71285
1.08226
1.54596
2.31092
3.76666
8.43778
22.3831
60.1084
64.9213
0.00734008
0.00636103
0.00583498
0.00540221
0.00504328
0.00474345
0.00449143
0.00427863
0.00409824
0.00394515
0.00380987
0.133018
0.429751
0.757161
1.1206
1.58492
2.35819
3.86886
8.75443
23.514
64.0773
67.2818
0.00724546
0.0062739
0.00575469
0.00532757
0.00497336
0.0046775
0.00442884
0.00421893
0.00404101
0.00389008
0.00427659
0.185564
0.473323
0.791911
1.15146
1.61697
2.3983
3.95878
9.03895
24.4864
67.8825
69.6617
0.00715522
0.00619037
0.00567804
0.00525659
0.00490706
0.00461512
0.00436975
0.00416261
0.00398706
0.00383823
0.0098535
0.229892
0.507314
0.820268
1.17727
1.64439
2.43385
4.04077
9.29856
25.3213
71.5275
72.0102
0.00706446
0.00610696
0.00560136
0.00518551
0.00484071
0.00455277
0.00431082
0.00410665
0.00393367
0.00378758
0.0275818
0.265978
0.534803
0.844236
1.19963
1.66875
2.46667
4.11747
9.53793
26.0372
75.0293
74.3523
0.00698515
0.00603334
0.00553363
0.00512259
0.00478173
0.00449706
0.00425784
0.00405593
0.00388488
0.00374252
0.0561314
0.295352
0.557843
0.865131
1.21965
1.69115
2.49807
4.19035
9.76
26.6504
78.4202
76.6493
0.00689867
0.00595396
0.00546075
0.00505517
0.00471893
0.00443821
0.00420239
0.00400345
0.00383499
0.00370271
0.0869964
0.31961
0.577778
0.883851
1.2381
1.71239
2.52891
4.26011
9.96665
27.1755
81.7432
78.9445
0.00683038
0.00589045
0.00540222
0.00500062
0.00466758
0.00438945
0.00415573
0.00395848
0.00379144
0.00368418
0.114849
0.340118
0.595494
0.901033
1.25558
1.73307
2.55968
4.32706
10.1591
27.6251
85.0541
81.212
0.0067447
0.00581209
0.00533058
0.00493468
0.00460654
0.00433263
0.00410257
0.00390854
0.00374434
0.00364501
0.138572
0.357913
0.611595
0.917142
1.27249
1.75357
2.59059
4.39134
10.3384
28.0106
88.4167
83.5114
0.00668553
0.00575674
0.00527929
0.00488656
0.00456091
0.00428897
0.00406047
0.00386768
0.00370452
0.00383816
0.158791
0.373738
0.626505
0.932522
1.28914
1.77414
2.62161
4.45308
10.5051
28.3416
91.9042
85.8273
0.00660183
0.00568033
0.0052096
0.00482263
0.00450194
0.00423432
0.00400959
0.00382012
0.00365997
0.00576542
0.17641
0.388113
0.640528
0.947423
1.30573
1.79488
2.65262
4.51244
10.6602
28.6266
95.5922
88.2307
0.00655214
0.00563359
0.00516602
0.00478141
0.00446249
0.00419615
0.00397239
0.00378359
0.00362439
0.0110432
0.192159
0.401402
0.653891
0.962029
1.32237
1.81581
2.68348
4.56955
10.8042
28.8726
99.5574
90.7106
0.00646806
0.00555717
0.00509668
0.0047182
0.0044046
0.00414292
0.00392323
0.00373803
0.00358296
0.0204977
0.206541
0.413861
0.666759
0.97646
1.33911
1.83687
2.71407
4.62457
10.9378
29.0854
103.87
93.3406
0.00642582
0.005517
0.00505883
0.00468197
0.00436948
0.00410854
0.00388934
0.00370445
0.00355184
0.0339225
0.219877
0.425678
0.679255
0.990796
1.35595
1.858
2.7443
4.67766
11.0619
29.2699
108.591
96.1058
0.00634337
0.00544219
0.00499112
0.00462043
0.00431334
0.00405716
0.00384212
0.00366089
0.00351593
0.050156
0.232374
0.436989
0.691469
1.00508
1.37286
1.87912
2.7741
4.72891
11.1771
29.4308
113.766
99.0732
0.00630966
0.00540981
0.00496023
0.0045904
0.00428372
0.00402761
0.00381248
0.00363102
0.00349486
0.0677997
0.244168
0.447894
0.70346
1.01932
1.38981
1.90016
2.80344
4.77841
11.2841
29.5721
119.431
102.217
0.00622521
0.00533356
0.00489162
0.0045285
0.00422774
0.00397686
0.00376631
0.00358888
0.00347376
0.0856708
0.255355
0.458468
0.715268
1.03352
1.40674
1.92106
2.83227
4.82622
11.3837
29.6981
125.606
105.592
0.00619835
0.00530725
0.00486599
0.00450299
0.00420196
0.0039506
0.00373946
0.00356143
0.00347849
0.10299
0.265999
0.468762
0.726911
1.04765
1.4236
1.94177
2.86059
4.87236
11.4766
29.8128
132.304
109.157
0.00611138
0.00522915
0.00479614
0.00444042
0.00414582
0.00390013
0.00369395
0.00352025
0.0035482
0.119282
0.276146
0.478812
0.738395
1.0617
1.44033
1.96223
2.88834
4.91682
11.5634
29.9198
139.53
112.957
0.00608781
0.00520578
0.00477303
0.00441702
0.00412179
0.0038753
0.0036683
0.00349383
0.00621389
0.134261
0.28582
0.488639
0.749715
1.07563
1.45689
1.98241
2.91551
4.95956
11.645
30.022
147.287
116.938
0.00599584
0.00512378
0.00470019
0.00435224
0.00406412
0.00382387
0.0036223
0.00345255
0.0258762
0.147676
0.295033
0.498251
0.760854
1.08939
1.47323
2.00226
2.94206
5.00052
11.7221
30.1213
155.557
121.137
0.00596751
0.0050963
0.00467351
0.00432569
0.00403731
0.00379659
0.00359452
0.00342484
0.0486012
0.15914
0.303783
0.507648
0.771791
1.10296
1.4893
2.02173
2.96794
5.03963
11.7954
30.2181
164.288
125.495
0.00586285
0.0050034
0.00459136
0.00425299
0.00397292
0.00373949
0.00354378
0.00338453
0.0613289
0.168595
0.312065
0.51682
0.782498
1.11627
1.50505
2.04079
2.99308
5.07679
11.8656
30.3118
173.348
130.045
0.00582124
0.00496394
0.00455382
0.00421657
0.00393711
0.00370404
0.00350865
0.00334424
0.0683393
0.17631
0.319876
0.525748
0.792942
1.12929
1.52043
2.05938
3.01743
5.1119
11.9335
30.4009
182.466
134.727
0.00569962
0.0048564
0.00445876
0.0041322
0.00386201
0.00363705
0.00344874
0.00343504
0.0725597
0.182617
0.327215
0.53441
0.803092
1.14195
1.53538
2.07743
3.04089
5.14491
11.9994
30.4844
191.164
139.588
0.00561731
0.00478986
0.00440427
0.00408605
0.00382149
0.00360018
0.00341403
0.00380449
0.0753021
0.187803
0.334089
0.542776
0.812914
1.1542
1.54984
2.09489
3.06338
5.17574
12.063
30.5624
198.748
144.654
0.0052549
0.00446058
0.0041123
0.00382675
0.00358952
0.00339101
0.00322374
0.00397011
0.0771761
0.192084
0.340504
0.550812
0.822376
1.16597
1.56375
2.11168
3.08479
5.20442
12.1236
30.6365
204.413
150.447
95.0235
44.8986
29.7336
23.6473
23.7639
20.4369
19.7536
17.6414
16.5229
15.8714
15.1629
14.3709
15.3183
17.6666
20.8575
23.6092
25.5704
27.971
31.1951
34.0346
35.982
37.3225
37.9008
37.818
37.6807
37.457
37.1229
36.5054
35.3279
33.6578
34.2082
41.0628
8.35495
3.50735
2.9806
94.6475
44.9101
29.772
23.8765
24.2166
20.7853
20.1018
17.913
16.7704
16.0834
15.2632
14.4478
15.423
17.8338
21.0679
23.8429
25.7552
28.0573
31.3028
34.3454
36.5636
38.0987
38.7536
38.626
38.3799
38.0385
37.6219
36.96
35.7539
34.012
34.5977
41.2907
8.41691
3.50524
2.97737
93.9266
44.9206
29.8461
24.3414
25.1204
21.4863
20.7836
18.4412
17.2528
16.4886
15.4643
14.6073
15.633
18.1494
21.5043
24.357
26.1657
28.2605
31.5195
34.9285
37.6959
39.6662
40.527
40.3419
39.879
39.2796
38.6704
37.8984
36.6249
34.7385
35.3891
40.9593
8.48892
3.50113
2.97091
92.8104
44.9222
29.9611
25.0624
26.463
22.5396
21.7712
19.2056
17.957
17.0802
15.7942
14.8773
15.9683
18.6525
22.2561
25.2839
26.9628
28.7102
31.9163
35.8383
39.4414
42.1198
43.3701
43.1584
42.3727
41.3366
40.3758
39.3933
37.9984
35.8785
36.6146
40.4932
8.58622
3.49516
2.96123
91.3035
44.907
30.1245
26.0542
28.2231
23.9372
23.0382
20.1955
18.8764
17.856
16.2844
15.2893
16.4557
19.3783
23.4064
26.803
28.4139
29.6511
32.6515
37.1943
41.9113
45.6054
47.5078
47.3729
46.1724
44.4657
42.9151
41.5609
39.9615
37.495
38.3259
40.2205
8.72526
3.48759
2.94837
89.3553
44.8678
30.347
27.3347
30.3932
25.6811
24.5759
21.4147
20.0163
18.8245
16.9665
15.8757
17.1157
20.3392
25.0026
29.0925
30.8829
31.4879
34.0179
39.206
45.2843
50.3365
53.2552
53.4155
51.7512
49.0702
46.5684
44.5815
42.6429
39.6792
40.5974
40.3883
8.92385
3.47869
2.93234
87.0012
44.7986
30.6439
28.9323
32.9845
27.7892
26.3974
22.8828
21.3975
20.01
17.8783
16.6716
17.9674
21.5374
27.0643
32.306
34.8126
34.8259
36.5013
42.2154
49.8409
56.6205
61.0386
61.882
59.8071
55.7729
51.7734
48.7297
46.2294
42.5592
43.53
41.2039
9.20186
3.4688
2.91317
84.2135
44.6946
31.0358
30.8858
36.0179
30.2923
28.5328
24.6328
23.0545
21.4542
19.0718
17.725
19.0422
22.9881
29.612
36.5795
40.7078
40.5112
40.8508
46.7526
56.0078
64.8946
71.4154
73.556
71.3279
65.5149
59.2042
54.4203
50.9905
46.313
47.2556
42.8795
9.58214
3.45827
2.89091
81.0699
44.5512
31.5505
33.2357
39.5112
33.2251
31.0232
26.7077
25.0332
23.2139
20.6199
19.1057
20.3962
24.7365
32.6873
42.0221
49.0597
49.6264
48.1472
53.5942
64.4015
75.7516
85.0634
89.3684
87.5994
79.6489
69.8718
62.2683
57.3098
51.1847
51.9417
45.6757
10.0916
3.44745
2.86559
77.574
44.3577
32.2243
36.0125
43.4673
36.6187
33.9149
29.1582
27.3873
25.3603
22.62
20.9133
22.1207
26.8702
36.358
48.6547
60.0456
63.1473
59.7341
63.7523
75.81
89.8862
102.648
110.149
109.955
99.8738
85.1823
73.1432
65.7159
57.5019
57.7935
49.9438
10.7621
3.43667
2.83728
73.8369
44.1029
33.1029
39.2225
47.8676
40.4931
37.2531
32.038
30.1736
27.9736
25.1921
23.2834
24.3528
29.5373
40.7321
56.3231
72.9177
80.6361
76.4484
78.146
90.9521
107.804
124.379
135.9
138.811
127.53
106.703
88.1322
76.8837
65.6848
65.0456
56.1654
11.6303
3.42611
2.80603
69.8857
43.7748
34.2421
42.838
52.6707
44.8542
41.0758
35.3993
33.4453
31.136
28.4722
26.3915
27.2894
32.9655
45.9613
64.627
85.5398
98.3024
96.4335
96.4826
109.746
129.1
149.137
164.539
171.666
161.426
134.985
108.151
91.5134
76.2147
73.9288
64.963
12.7349
3.41578
2.77193
65.8489
43.3604
35.7065
46.7973
57.817
49.6937
45.4074
39.2865
37.2448
34.9163
32.5884
30.4447
31.2
37.4831
52.2339
72.9484
95.1223
110.053
113.534
115.644
130.199
151.547
173.739
191.257
201.713
194.812
166.828
132.743
109.899
89.4933
84.5853
77.0069
14.1091
3.40532
2.73507
61.7626
42.8458
37.5632
51.0189
63.2377
54.9935
50.2574
43.7311
41.5956
39.3551
37.6211
35.6527
36.4246
43.4979
59.6988
80.6184
100.181
113.108
121.736
130.399
148.375
171.313
193.819
210.577
221.015
216.924
193.349
158.138
131
105.477
96.896
92.6407
15.7633
3.39387
2.69553
57.7502
42.2171
39.8706
55.4261
68.8642
60.7344
55.6196
48.744
46.4981
44.4449
43.5576
42.1494
43.3244
51.3876
68.3332
87.2282
101.534
110.247
121.48
137.889
160.951
185.219
206.453
219.939
226.577
221.751
205.006
177.144
151.44
123.044
110.208
111.03
17.6543
3.37994
2.65345
53.8399
41.4616
42.6613
59.9685
74.6406
66.8914
61.4715
54.3209
51.9334
50.1273
50.2611
49.892
52.1289
61.2055
77.7246
92.8304
101.301
105.928
117.768
139.969
167.816
192.852
211.704
220.537
221.26
212.537
200.376
183.878
166.145
139.475
123.085
129.153
19.648
3.3613
2.60894
50.1273
40.5721
45.9281
64.6294
80.5241
73.4253
67.7787
60.447
57.8737
56.3067
57.4748
58.5577
62.5796
72.2773
87.0409
97.8832
101.451
103.069
114.812
140.402
171.323
195.987
211.504
215.102
209.643
196.335
185.806
178.727
171.485
151.06
133.401
142.201
21.5008
3.33512
2.56213
46.6135
39.5542
49.6171
69.3832
86.4929
80.2807
74.4944
67.0996
64.2963
62.8928
64.9196
67.562
73.6689
83.0301
95.2764
102.917
103.247
102.947
114.557
141.851
173.822
196.58
207.77
205.901
195.055
178.377
168.248
166.691
167.806
155.126
139.091
146.443
22.8994
3.29841
2.51318
43.349
38.4382
53.632
74.2066
92.5173
87.375
81.5529
74.2433
71.1886
69.8346
72.4071
76.2711
83.9225
91.8178
101.849
108.308
107.264
105.919
117.437
145.278
176.387
195.619
201.575
194.269
179.299
161.14
151.571
152.635
158.304
151.688
139.189
141.807
23.562
3.24865
2.46227
40.3033
37.2909
57.8096
79.0965
98.5497
94.5926
88.8634
81.8204
78.5443
77.1558
79.948
84.3549
92.3033
98.1283
106.945
114.185
113.531
111.863
123.15
150.402
178.865
193.167
193.31
180.978
163.34
145.465
137.056
139.214
146.317
142.941
134.257
131.057
23.3408
3.18443
2.40957
37.4893
36.2231
61.9808
84.0256
104.525
101.792
96.3087
89.7398
86.3455
84.9087
87.7184
91.9826
98.9831
102.966
111.541
120.641
121.59
120.161
130.806
156.211
180.463
188.884
183.149
166.639
147.812
131.518
124.751
127.293
133.947
131.526
125.835
117.338
22.268
3.10586
2.35529
34.8769
35.3314
66.0279
88.9392
110.365
108.822
103.753
97.8763
94.5475
93.1432
95.9798
99.7442
105.2
108.049
116.94
127.895
130.716
129.721
139.084
161.362
180.298
182.51
171.373
151.883
133.198
119.235
114.291
116.856
122.128
119.393
115.568
102.833
20.5281
3.0145
2.29965
32.4767
34.7112
69.8621
93.7614
115.987
115.544
111.058
106.08
103.068
101.873
104.93
108.336
112.5
115.157
124.54
136.494
140.274
139.218
146.477
164.66
177.822
174.099
158.468
137.339
119.837
108.479
105.256
107.593
111.123
107.611
104.676
88.7343
18.3841
2.91302
2.24289
30.2708
34.4538
73.4236
98.4024
121.313
121.843
118.092
114.199
111.797
111.066
114.667
118.292
122.107
125.734
135.594
147.185
150.125
147.739
151.954
165.444
172.97
164.028
145.043
123.544
107.908
99.0798
97.2807
99.1701
100.925
96.6343
93.8791
75.6201
16.0968
2.80462
2.18524
28.2673
34.6465
76.682
102.768
126.273
127.636
124.75
122.094
120.61
120.642
125.194
129.863
134.715
140.951
151.327
160.821
160.621
155.135
155.288
163.779
166.128
152.863
131.712
110.88
97.437
90.8515
90.0819
91.3311
91.4503
86.5782
83.5251
63.7557
13.8702
2.69246
2.12693
26.4614
35.3706
79.6328
106.774
130.812
132.874
130.952
129.66
129.393
130.517
136.417
143.097
150.537
161.477
172.729
178.058
172.303
161.889
157.044
160.264
157.905
141.213
118.977
99.5442
88.3429
83.6054
83.4515
83.9158
82.6322
77.4121
73.7608
53.2521
11.8332
2.5793
2.0682
24.8623
36.6973
82.2908
110.358
134.898
137.544
136.659
136.834
138.062
140.62
148.27
157.945
169.554
187.553
200.441
199.245
185.45
168.516
157.983
155.709
148.959
129.61
107.186
89.5843
80.4765
77.1643
77.2473
76.8487
74.4292
69.0549
64.646
44.1299
10.0477
2.46729
2.00927
23.4808
38.6814
84.6808
113.494
138.527
141.668
141.868
143.599
146.58
150.925
160.755
174.378
191.682
218.916
234.147
224.038
199.893
175.277
158.76
150.826
139.829
118.453
96.5295
80.9368
73.6619
71.3712
71.3807
70.1154
66.8219
61.4209
56.216
36.3455
8.52749
2.35798
1.95033
22.3333
41.3565
86.828
116.188
141.721
145.298
146.617
149.984
154.953
161.447
173.916
192.368
216.896
255.138
272.552
251.276
214.907
182
159.633
146.102
130.897
108.003
87.065
73.4747
67.7232
66.0969
65.8068
63.7364
59.7987
54.4369
48.5024
29.8062
7.25755
2.25238
1.89158
21.4546
44.7258
88.7524
118.47
144.519
148.502
150.966
156.052
163.238
172.254
187.855
212.006
245.215
295.511
313.284
278.774
229.344
188.283
160.625
141.743
122.363
98.3938
78.7585
67.0431
62.4999
61.2409
60.5117
57.7452
53.3474
48.0479
41.5326
24.386
6.20886
2.15105
1.83319
20.8892
48.7521
90.4676
120.388
146.973
151.356
154.998
161.895
171.531
183.458
202.717
233.432
276.734
339.189
353.536
303.862
241.757
193.507
161.45
137.717
114.303
89.6694
71.52
61.4834
57.855
56.7315
55.5025
52.1722
47.4498
42.2146
35.3212
19.9419
5.34809
2.05421
1.77531
20.7351
53.3467
91.9837
121.996
149.144
153.937
158.805
167.631
179.97
195.239
218.729
256.888
311.639
384.915
390.09
323.823
250.81
197.108
161.772
133.803
106.686
81.8133
65.231
56.6475
53.6765
52.5205
50.7957
47.0358
42.0819
36.9098
29.8627
16.3279
4.64284
1.9619
1.71808
21.1259
58.3649
93.3112
123.35
151.092
156.325
162.492
173.403
188.755
207.865
236.235
282.79
350.331
431.065
419.889
336.632
255.488
198.555
161.138
129.698
99.4535
74.7745
59.7656
52.4046
49.8763
48.5795
46.4093
42.3394
37.2147
32.1129
25.1291
13.4055
4.06427
1.874
1.66161
22.2957
63.6167
94.464
124.505
152.882
158.6
166.176
179.403
198.174
221.766
255.829
311.916
393.474
475.13
439.938
341.014
255.339
197.573
159.249
125.102
92.5301
68.4877
55.0011
48.6433
46.3874
44.8928
42.3559
38.0722
32.8169
27.8054
21.073
11.0501
3.5879
1.79029
1.60602
24.5223
68.8911
95.4604
125.511
154.578
160.848
170.007
185.893
208.671
237.65
278.531
345.665
441.912
513.515
447.904
336.681
250.354
194.018
155.845
119.817
85.8775
62.8816
50.8252
45.2714
43.16
41.4532
38.64
34.2121
28.8565
23.9672
17.6326
9.15395
3.19355
1.71054
1.55138
28.1637
73.9892
96.3218
126.414
156.249
163.171
174.182
193.269
220.969
256.734
306.154
386.444
495.873
541.023
442.198
324.073
240.948
187.988
150.868
113.762
79.4823
57.8855
47.138
42.2146
40.1583
38.256
35.2564
30.73
25.3025
20.5747
14.7386
7.62655
2.86488
1.63451
1.4978
33.4954
78.7522
97.0695
127.257
157.974
165.7
178.986
202.154
236.287
281.135
341.817
437.886
552.866
551.758
422.851
304.458
227.778
179.655
144.305
106.978
73.3641
53.4288
43.8535
39.414
37.3567
35.2968
32.1915
27.5935
22.1247
17.6
12.3199
6.39351
2.58885
1.56196
1.44533
40.701
83.0789
97.7233
128.08
159.848
168.617
184.856
213.581
256.755
314.568
390.636
503.975
604.07
540.752
391.576
279.621
211.729
169.344
136.283
99.5742
67.545
49.4431
40.8993
36.8249
34.7369
32.5685
29.4248
24.7693
19.2947
15.0115
10.3079
5.39467
2.35505
1.49266
1.39405
49.6321
86.9325
98.3005
128.928
162.003
172.197
192.503
229.327
286.158
363.325
459.501
583.827
633.011
506.932
351.935
251.763
193.778
157.416
126.943
91.7034
62.0468
45.8621
38.2164
34.4144
32.286
30.0613
26.9317
22.2258
16.7853
12.775
8.6395
4.58193
2.15524
1.42644
1.34401
59.8743
90.3334
98.8172
129.856
164.627
176.887
203.134
252.561
331.2
436.62
551.762
659.037
622.68
454.251
308.205
223.007
174.967
144.341
116.528
83.5307
56.8742
42.6245
35.7583
32.1599
29.9951
27.7624
24.6848
19.9338
14.5704
10.8548
7.25859
3.91711
1.98288
1.36312
1.29529
70.5911
93.3494
99.2902
130.942
168.028
183.448
218.912
289.076
402.669
540.42
648.013
688.188
568.756
390.892
264.55
195.194
156.258
130.595
105.29
75.2289
52.0225
39.675
33.4898
30.0477
27.8579
25.6572
22.6568
17.8672
12.6246
9.21563
6.11642
3.3701
1.83278
1.30258
1.24793
80.9187
96.0694
99.7395
132.308
172.736
193.288
243.936
349.163
510.306
650.496
690.125
640.81
484.314
325.704
223.942
169.604
138.509
116.705
93.5564
66.9661
47.475
36.966
31.3851
28.071
25.8709
23.7307
20.821
16.0032
10.9234
7.82326
5.17153
2.91718
1.70077
1.24471
1.202
89.3733
98.5937
100.194
134.161
179.756
209.212
286.272
445.987
629.079
689.277
633.563
534.932
390.757
265.455
188.116
147.024
122.378
103.164
81.6523
58.9012
43.2117
34.4571
29.4266
26.2282
24.0331
21.9687
19.1535
14.3217
9.44289
6.64558
4.38912
2.5397
1.58356
1.18941
1.15754
95.1437
101.045
100.703
136.9
191.199
237.291
360.055
564.035
661.223
609.033
510.523
415.48
305.004
213.471
157.565
127.678
108.276
90.4481
69.974
51.18
39.2073
32.1137
27.6017
24.5213
22.3453
20.3596
17.6329
12.8051
8.16014
5.65304
3.74026
2.22295
1.47845
1.13662
1.11462
0.00337789
0.00250556
0.00227904
0.00216826
0.00212818
0.00213191
0.00216394
0.00402175
0.0781704
0.194744
0.344967
0.556498
0.829034
1.17416
1.57342
2.12331
3.09953
5.22401
12.1657
30.6929
206.668
160.17
0.00334448
0.00224263
0.00184291
0.00160759
0.00148714
0.00144987
0.00148233
0.00404989
0.0786602
0.196184
0.347529
0.559644
0.832505
1.17826
1.57813
2.12896
3.10682
5.23427
12.1909
30.7351
207.594
170.309
0.00354052
0.00237581
0.00188219
0.0015448
0.00132342
0.00119322
0.00116289
0.00406987
0.0789814
0.19724
0.349526
0.561931
0.834748
1.18067
1.58073
2.13201
3.1109
5.24071
12.2095
30.7785
207.671
179.987
0.00367089
0.0025174
0.00200375
0.00162962
0.00135799
0.00116696
0.00103227
0.00408357
0.0791581
0.197935
0.350956
0.563344
0.835739
1.18137
1.58118
2.13242
3.11167
5.24315
12.2199
30.8238
206.963
189.074
0.00392264
0.00276388
0.00222615
0.0018217
0.00151375
0.0012796
0.000998004
0.00409225
0.0792042
0.198286
0.351812
0.563872
0.83546
1.18034
1.57945
2.13013
3.10904
5.24141
12.2206
30.8712
205.513
198.029
0.0040603
0.0029297
0.00239826
0.00199162
0.00167459
0.00142452
0.000986684
0.00409669
0.0791278
0.198302
0.352092
0.563506
0.833901
1.17759
1.57553
2.12513
3.10296
5.23534
12.21
30.9209
203.355
207.023
0.00434054
0.00320792
0.00265921
0.00223289
0.00189529
0.00162377
0.00105554
0.00409735
0.0789337
0.19799
0.351794
0.562246
0.831065
1.1731
1.56943
2.11741
3.09336
5.22479
12.1869
30.9725
200.528
216.053
0.00447867
0.00337926
0.00284366
0.00242298
0.00208579
0.00181052
0.00118208
0.00409431
0.0786246
0.197356
0.350922
0.560096
0.826962
1.16692
1.56118
2.10697
3.0802
5.20963
12.15
31.0252
197.081
225.059
0.0047841
0.00368457
0.0031343
0.00269633
0.00234122
0.00204804
0.00130667
0.00408735
0.078202
0.196404
0.349485
0.557071
0.821617
1.15905
1.55079
2.09381
3.06344
5.18974
12.0983
31.0775
193.07
233.968
0.00490879
0.00384887
0.00331929
0.00289417
0.0025462
0.00225554
0.0013971
0.00407606
0.0776666
0.195141
0.347498
0.553191
0.815062
1.14955
1.53834
2.07799
3.04305
5.16502
12.0311
31.1272
188.556
242.698
0.00522944
0.00417117
0.00362972
0.00318988
0.00282629
0.00251998
0.00151108
0.00405995
0.077018
0.193574
0.344979
0.548486
0.807344
1.13847
1.52387
2.05953
3.019
5.13534
11.9477
31.171
183.604
251.137
0.00533939
0.00432472
0.00380966
0.0033886
0.00303792
0.00273968
0.00163071
0.0040383
0.0762551
0.19171
0.341953
0.54299
0.798514
1.12587
1.50746
2.0385
2.99128
5.10059
11.8477
31.2047
178.282
259.153
0.00567213
0.00466085
0.00413642
0.00370277
0.0033383
0.0030261
0.00183505
0.00401031
0.0753749
0.189557
0.338445
0.536748
0.788634
1.11183
1.48922
2.015
2.9599
5.06066
11.7307
31.2231
172.658
266.595
0.00575636
0.00479293
0.00430097
0.00389249
0.00354724
0.00324921
0.00211274
0.00397471
0.0743723
0.187123
0.334481
0.529806
0.777774
1.09643
1.46924
1.98912
2.92488
5.01542
11.5967
31.2199
166.799
273.312
0.00609211
0.00513323
0.004634
0.00421498
0.00385787
0.00354782
0.00251713
0.00393005
0.0732383
0.184412
0.330089
0.522219
0.766009
1.07977
1.44763
1.96098
2.88626
4.96472
11.4456
31.1878
160.77
279.155
0.00615227
0.005243
0.00478
0.00439062
0.00405751
0.00376659
0.00298323
0.00387373
0.0719583
0.181428
0.325295
0.514042
0.753416
1.06193
1.42451
1.93072
2.84414
4.90842
11.2775
31.1189
154.63
283.992
0.00648675
0.00558299
0.0051145
0.00471617
0.00437264
0.00407107
0.00349546
0.00380286
0.07051
0.178166
0.32012
0.505332
0.740079
1.04304
1.40001
1.89849
2.7986
4.84636
11.0927
31.0044
148.435
287.713
0.00651845
0.0056655
0.00523637
0.00487156
0.00455631
0.00427834
0.00389199
0.00371169
0.0688595
0.174613
0.31458
0.496148
0.726085
1.02317
1.37425
1.86445
2.7498
4.7784
10.8916
30.8353
142.232
290.236
0.006839
0.00599236
0.00555953
0.00518761
0.00486376
0.00457698
0.00426868
0.00359959
0.0669565
0.170743
0.308682
0.486543
0.71152
1.00246
1.34738
1.82876
2.69791
4.70438
10.6747
30.6023
136.063
291.503
0.00685359
0.00605579
0.00566219
0.00532464
0.00503061
0.00476947
0.00452409
0.0034754
0.0647278
0.166512
0.302421
0.476566
0.696473
0.980996
1.31952
1.79161
2.64311
4.62418
10.4427
30.2965
129.961
291.481
0.00716008
0.00636932
0.00597351
0.00563026
0.00532885
0.00505995
0.00481924
0.00340462
0.062068
0.161849
0.295774
0.466256
0.681028
0.958896
1.2908
1.75316
2.58564
4.5377
10.1963
29.9098
123.954
290.16
0.00715672
0.00641256
0.00605545
0.00574694
0.00547642
0.00523474
0.00501986
0.00356222
0.0588297
0.156643
0.28869
0.455635
0.665268
0.936266
1.26135
1.71361
2.52574
4.4449
9.93658
29.435
118.062
287.544
0.00744654
0.00670958
0.00635119
0.00603795
0.00576096
0.00551235
0.00528902
0.0040382
0.0548141
0.150735
0.281085
0.444702
0.649264
0.913216
1.2313
1.67312
2.46369
4.34576
9.66435
28.8665
112.301
283.649
0.00743064
0.00673706
0.00641564
0.00613629
0.00589002
0.00566895
0.00546824
0.00463743
0.0497702
0.143895
0.27282
0.433422
0.633073
0.88985
1.20077
1.63187
2.39977
4.24037
9.38074
28.2006
106.679
278.502
0.00770414
0.00701771
0.00669563
0.00641221
0.00616005
0.00593253
0.00572437
0.00523278
0.0434367
0.135803
0.263688
0.421709
0.616724
0.86627
1.16989
1.59004
2.33428
4.12887
9.08681
27.4363
101.201
272.137
0.00767679
0.00703045
0.00674335
0.00649258
0.00627053
0.00607044
0.00588637
0.00561407
0.0356825
0.126032
0.253382
0.409408
0.600208
0.842562
1.13877
1.54778
2.26753
4.01152
8.78367
26.5747
95.868
264.595
0.00793327
0.00729369
0.00700621
0.00675176
0.00652422
0.00631799
0.00612775
0.00592187
0.0268305
0.114064
0.241467
0.396266
0.583454
0.818795
1.10752
1.50527
2.19986
3.88867
8.47235
25.6201
90.6768
255.928
0.00789957
0.00729641
0.00704131
0.00681756
0.00661872
0.00643899
0.00627282
0.00610902
0.0180059
0.0993935
0.227334
0.381891
0.5663
0.794993
1.07624
1.46265
2.1316
3.76082
8.15392
24.5795
85.6207
246.201
0.00814115
0.00754425
0.00728884
0.0070616
0.00685744
0.00667165
0.00649959
0.00633555
0.0111248
0.0818217
0.21018
0.365709
0.548455
0.771115
1.04501
1.42007
2.06312
3.62857
7.82932
23.4626
80.6912
235.491
0.00810339
0.00753941
0.00731378
0.00711517
0.00693813
0.00677767
0.00662895
0.00648693
0.00750244
0.0620193
0.189035
0.346895
0.529448
0.747009
1.01385
1.37766
1.99477
3.49271
7.49956
22.2817
75.8763
223.895
0.0083302
0.00777191
0.00754595
0.007344
0.0071618
0.00699541
0.00684087
0.00669447
0.00654195
0.0420579
0.16298
0.324306
0.508562
0.722358
0.98272
1.33554
1.92693
3.35418
7.16562
21.0507
71.1637
211.526
0.00829267
0.0077638
0.00756482
0.00738912
0.00723207
0.00708939
0.00695687
0.00683055
0.00658749
0.025103
0.13174
0.296447
0.484744
0.69661
0.95145
1.29374
1.85998
3.21408
6.82863
19.7853
66.5392
198.52
0.00850597
0.00798226
0.00778295
0.00760406
0.00744204
0.00729358
0.00715529
0.00702424
0.00684184
0.0139578
0.0967964
0.261619
0.456489
0.668896
0.919667
1.25223
1.79425
3.07369
6.4899
18.5017
61.9906
185.029
0.00847103
0.00797347
0.00779842
0.00764341
0.00750449
0.007378
0.00726028
0.00714795
0.00702018
0.00872986
0.0624
0.218551
0.421728
0.637907
0.886705
1.21079
1.73
2.93441
6.15111
17.2164
57.5085
171.219
0.00867162
0.00817872
0.00800332
0.00784529
0.00770165
0.0075696
0.00744623
0.00732908
0.00720997
0.00713648
0.0346758
0.167903
0.377877
0.601751
0.851508
1.16899
1.66733
2.79769
5.81435
15.9455
53.0901
157.267
0.00864159
0.00817179
0.00801803
0.00788151
0.00775885
0.00764691
0.00754251
0.00744269
0.00734261
0.00695874
0.0177063
0.114338
0.32244
0.557772
0.812478
1.12606
1.60614
2.66495
5.48217
14.7043
48.7406
143.355
0.00883157
0.00836594
0.00821177
0.00807234
0.00794516
0.00782784
0.0077179
0.00761321
0.00751059
0.00720422
0.0102782
0.0668717
0.25489
0.502546
0.767283
1.08077
1.54598
2.53732
5.15753
13.5071
44.4766
129.66
0.00880915
0.00836382
0.00822882
0.00810861
0.00800031
0.0079012
0.00780853