/*--------------------------------*- C++ -*----------------------------------*\
| =========                 |                                                 |
| \\      /  F ield         | OpenFOAM: The Open Source CFD Toolbox           |
|  \\    /   O peration     | Version:  v1912                                 |
|   \\  /    A nd           | Website:  www.openfoam.com                      |
|    \\/     M anipulation  |                                                 |
\*---------------------------------------------------------------------------*/
FoamFile
{
    version     2.0;
    format      ascii;
    class       volScalarField;
    location    "460";
    object      p;
}
// * * * * * * * * * * * * * * * * * * * * * * * * * * * * * * * * * * * * * //

dimensions      [0 2 -2 0 0 0 0];


internalField   nonuniform List<scalar> 
12441
(
8.98694
9.2894
10.1523
11.4922
13.2269
15.4033
18.1166
21.4665
25.6413
30.8075
37.1476
44.944
54.5846
66.2875
81.9526
101.625
129.741
165.121
222.658
285.412
376.264
438.444
8.98693
9.28939
10.1523
11.4922
13.2269
15.4033
18.1166
21.4664
25.6412
30.8073
37.1472
44.9434
54.5837
66.2858
81.9495
101.618
129.724
165.096
222.577
285.336
376.217
438.251
8.98692
9.28937
10.1523
11.4921
13.2268
15.4032
18.1164
21.4662
25.6409
30.8068
37.1465
44.9422
54.5817
66.2824
81.9435
101.603
129.699
165.039
222.409
285.157
376.088
437.903
8.98689
9.28934
10.1522
11.4921
13.2268
15.4031
18.1163
21.4659
25.6404
30.8061
37.1454
44.9404
54.5789
66.2773
81.9345
101.582
129.665
164.952
222.232
284.881
375.852
437.361
8.98686
9.28931
10.1522
11.492
13.2266
15.4029
18.116
21.4655
25.6398
30.8052
37.1439
44.938
54.575
66.2705
81.9225
101.555
129.621
164.844
222.067
284.534
375.52
436.621
8.98682
9.28926
10.1521
11.4919
13.2265
15.4027
18.1157
21.465
25.6391
30.804
37.1421
44.935
54.5702
66.262
81.9075
101.521
129.567
164.715
221.882
284.115
375.097
435.684
8.98677
9.28921
10.152
11.4918
13.2264
15.4025
18.1154
21.4644
25.6382
30.8026
37.1399
44.9314
54.5644
66.2518
81.8896
101.48
129.502
164.565
221.665
283.627
374.587
434.55
8.98672
9.28915
10.152
11.4917
13.2262
15.4022
18.1149
21.4637
25.6371
30.8009
37.1374
44.9271
54.5576
66.2399
81.8688
101.434
129.432
164.394
221.428
283.081
373.994
433.216
8.98666
9.28907
10.1519
11.4916
13.226
15.4019
18.1145
21.4629
25.636
30.7991
37.1345
44.9223
54.5499
66.2264
81.8455
101.383
129.359
164.211
221.192
282.489
373.322
431.678
8.98659
9.28899
10.1518
11.4914
13.2257
15.4015
18.1139
21.462
25.6346
30.7969
37.1312
44.9169
54.5412
66.2114
81.8209
101.332
129.292
164.026
220.982
281.862
372.573
429.93
8.98651
9.2889
10.1516
11.4912
13.2255
15.4011
18.1133
21.461
25.6331
30.7946
37.1276
44.9109
54.5315
66.1951
81.7966
101.287
129.247
163.862
220.83
281.209
371.742
427.964
8.98642
9.2888
10.1515
11.491
13.2252
15.4007
18.1127
21.4599
25.6315
30.792
37.1235
44.9042
54.521
66.1786
81.7766
101.26
129.262
163.756
220.769
280.535
370.825
425.772
8.98633
9.2887
10.1514
11.4908
13.2249
15.4002
18.1119
21.4587
25.6297
30.7892
37.1192
44.897
54.5098
66.1644
81.7716
101.277
129.385
163.76
220.807
279.832
369.812
423.342
8.98622
9.28858
10.1512
11.4906
13.2245
15.3997
18.1112
21.4574
25.6278
30.7861
37.1144
44.8892
54.4987
66.158
81.7999
101.373
129.669
163.915
220.914
279.082
368.693
420.661
8.98611
9.28845
10.1511
11.4903
13.2241
15.3992
18.1103
21.456
25.6257
30.7829
37.1093
44.8809
54.4894
66.1694
81.8824
101.572
130.137
164.225
221.026
278.258
367.46
417.716
8.98599
9.28832
10.1509
11.4901
13.2237
15.3986
18.1094
21.4545
25.6235
30.7793
37.1039
44.8722
54.4853
66.2113
82.036
101.885
130.765
164.634
221.067
277.336
366.103
414.492
8.98587
9.28818
10.1507
11.4898
13.2233
15.3979
18.1084
21.4529
25.6211
30.7756
37.098
44.8638
54.4927
66.2943
82.2646
102.298
131.476
165.034
220.975
276.295
364.615
410.976
8.98573
9.28802
10.1505
11.4895
13.2229
15.3972
18.1074
21.4512
25.6186
30.7715
37.0917
44.857
54.5193
66.4229
82.5586
102.772
132.152
165.311
220.722
275.125
362.991
407.151
8.98559
9.28786
10.1503
11.4892
13.2224
15.3965
18.1063
21.4494
25.616
30.7673
37.0849
44.8541
54.5718
66.5924
82.8933
103.248
132.667
165.385
220.309
273.823
361.226
403.004
8.98544
9.28769
10.1501
11.4888
13.2219
15.3958
18.1052
21.4475
25.6131
30.7628
37.0778
44.8592
54.6521
66.7917
83.236
103.658
132.926
165.243
219.761
272.393
359.318
398.518
8.98528
9.28751
10.1498
11.4885
13.2214
15.395
18.104
21.4455
25.6102
30.758
37.0707
44.8768
54.7568
67.0035
83.5471
103.944
132.897
164.926
219.11
270.841
357.266
393.677
8.98512
9.28732
10.1496
11.4881
13.2208
15.3942
18.1027
21.4434
25.6071
30.753
37.0642
44.9104
54.8778
67.2114
83.7942
104.071
132.615
164.499
218.382
269.175
355.07
388.465
8.98494
9.28713
10.1493
11.4877
13.2202
15.3933
18.1014
21.4412
25.6038
30.7477
37.0591
44.9605
55.0058
67.397
83.952
104.039
132.165
164.022
217.599
267.404
352.733
382.863
8.98476
9.28692
10.149
11.4873
13.2196
15.3924
18.1
21.4389
25.6004
30.7421
37.0575
45.0242
55.1311
67.5484
84.0153
103.873
131.638
163.529
216.769
265.537
350.255
376.853
8.98457
9.2867
10.1488
11.4869
13.219
15.3914
18.0986
21.4365
25.5968
30.7362
37.0615
45.0967
55.2462
67.6548
83.99
103.616
131.109
163.032
215.897
263.584
347.639
370.416
8.98438
9.28648
10.1485
11.4865
13.2183
15.3904
18.0971
21.434
25.593
30.7301
37.073
45.1726
55.3447
67.7161
83.8974
103.314
130.617
162.529
214.985
261.555
344.889
363.53
8.98417
9.28625
10.1482
11.486
13.2177
15.3894
18.0955
21.4314
25.5891
30.7238
37.0929
45.247
55.4235
67.7329
83.7584
103
130.172
162.014
214.033
259.459
342.006
356.172
8.98396
9.286
10.1478
11.4855
13.2169
15.3883
18.0939
21.4288
25.585
30.7176
37.1207
45.3161
55.4802
67.7146
83.5964
102.698
129.767
161.48
213.039
257.304
338.991
348.319
8.98374
9.28575
10.1475
11.485
13.2162
15.3872
18.0922
21.426
25.5808
30.7117
37.1542
45.377
55.5157
67.6675
83.4253
102.416
129.39
160.923
212.004
255.097
335.846
339.943
8.98351
9.28549
10.1472
11.4845
13.2154
15.386
18.0905
21.4231
25.5764
30.7061
37.1911
45.4282
55.5308
67.6028
83.2571
102.154
129.028
160.344
210.926
252.842
332.568
331.017
8.98327
9.28522
10.1468
11.484
13.2147
15.3849
18.0886
21.42
25.5718
30.7013
37.2294
45.4686
55.529
67.5253
83.0947
101.91
128.674
159.742
209.805
250.542
329.151
321.51
8.98303
9.28494
10.1464
11.4835
13.2138
15.3836
18.0868
21.4169
25.567
30.6975
37.2673
45.4982
55.5125
67.4427
82.9416
101.678
128.32
159.118
208.642
248.197
325.591
311.388
8.98278
9.28466
10.1461
11.4829
13.213
15.3824
18.0849
21.4137
25.5621
30.6954
37.3035
45.5172
55.4852
67.3565
82.7953
101.455
127.964
158.474
207.438
245.807
321.877
300.617
8.98252
9.28436
10.1457
11.4823
13.2121
15.381
18.0829
21.4104
25.557
30.6954
37.3371
45.5265
55.4492
67.2711
82.6564
101.236
127.602
157.811
206.191
243.371
317.998
289.16
8.98225
9.28406
10.1453
11.4817
13.2112
15.3797
18.0808
21.407
25.5517
30.6983
37.3673
45.5272
55.4076
67.1855
82.5214
101.02
127.236
157.132
204.903
240.888
313.943
276.976
8.98197
9.28374
10.1449
11.4811
13.2103
15.3783
18.0787
21.4034
25.5463
30.7047
37.394
45.5205
55.3617
67.1025
82.3908
100.804
126.863
156.436
203.575
238.361
309.701
264.024
8.98169
9.28342
10.1444
11.4805
13.2094
15.3769
18.0766
21.3998
25.5408
30.7159
37.4173
45.5078
55.3136
67.0201
82.2614
100.587
126.484
155.726
202.207
235.792
305.258
250.261
8.9814
9.28309
10.144
11.4798
13.2084
15.3754
18.0743
21.396
25.5356
30.734
37.4377
45.4903
55.2636
66.9406
82.1344
100.369
126.1
155.003
200.8
233.184
300.606
235.638
8.9811
9.28275
10.1436
11.4792
13.2074
15.3739
18.072
21.3922
25.5322
30.7605
37.4555
45.4693
55.2133
66.8617
82.0072
100.149
125.71
154.267
199.357
230.544
295.736
220.108
8.98079
9.2824
10.1431
11.4785
13.2064
15.3724
18.0697
21.3882
25.5349
30.7958
37.4712
45.4457
55.1623
66.7857
81.8813
99.9273
125.316
153.519
197.88
227.878
290.643
203.618
8.98048
9.28204
10.1426
11.4778
13.2053
15.3708
18.0673
21.384
25.5502
30.8402
37.4848
45.4203
55.1118
66.7104
81.7546
99.7042
124.918
152.76
196.374
225.189
285.326
186.113
8.98015
9.28167
10.1421
11.4771
13.2042
15.3691
18.0648
21.3801
25.5845
30.8929
37.4962
45.3941
55.0609
66.6385
81.6293
99.4797
124.517
151.989
194.842
222.48
279.782
167.546
8.97982
9.2813
10.1416
11.4763
13.2031
15.3675
18.0623
21.3774
25.6416
30.9525
37.5051
45.3678
55.0102
66.5675
81.5033
99.2549
124.113
151.207
193.29
219.747
273.986
147.83
8.97948
9.28091
10.1411
11.4756
13.202
15.3658
18.0596
21.3805
25.7208
31.0162
37.5111
45.3419
54.959
66.5006
81.3794
99.0299
123.707
150.409
191.724
216.98
267.856
126.219
-19.915
-21.4197
-20.9205
-21.2038
-18.2191
-16.8855
-14.6258
-13.1939
-11.2726
-10.5549
-10.9437
-12.8627
-13.5914
-9.32199
-0.129342
8.26941
11.0938
9.19713
7.31019
8.97507
10.3854
11.1958
10.9932
9.15748
7.67717
6.49938
5.4629
4.48479
3.75215
1.44175
0.673434
-3.79489
-2.93094
1.53441
1.38181
-19.9141
-21.3974
-20.9441
-21.2067
-18.2195
-16.884
-14.6265
-13.1944
-11.2734
-10.5544
-10.9441
-12.8595
-13.5872
-9.31805
-0.125469
8.27568
11.1028
9.20614
7.31566
8.97835
10.3885
11.1986
10.9961
9.16027
7.67952
6.50123
5.46439
4.48615
3.7531
1.44195
0.677663
-3.79603
-2.9426
1.51776
1.3817
-19.9117
-21.375
-20.98
-21.2123
-18.2205
-16.8827
-14.6273
-13.1949
-11.2735
-10.5531
-10.9438
-12.8574
-13.5833
-9.31312
-0.117262
8.29065
11.1247
9.23066
7.33428
8.98871
10.3951
11.2044
11.0015
9.16508
7.68353
6.50446
5.46704
4.48856
3.755
1.44271
0.682905
-3.79826
-2.95243
1.50118
1.38175
-19.908
-21.3596
-21.0267
-21.22
-18.2226
-16.8817
-14.628
-13.1953
-11.2733
-10.5514
-10.9439
-12.8565
-13.5798
-9.30796
-0.107427
8.30949
11.1537
9.26646
7.36514
9.00647
10.4055
11.2132
11.0095
9.17228
7.68959
6.50937
5.47104
4.49216
3.758
1.44412
0.688275
-3.80099
-2.95076
1.48617
1.38186
-19.9032
-21.3558
-21.0817
-21.2291
-18.2253
-16.8806
-14.6283
-13.1955
-11.2727
-10.5495
-10.9444
-12.8564
-13.5779
-9.30481
-0.0996325
8.32601
11.1801
9.30107
7.39812
9.02714
10.4183
11.2242
11.0198
9.18153
7.69751
6.51586
5.47629
4.49682
3.76198
1.44619
0.69375
-3.80187
-2.93877
1.47347
1.38208
-19.8975
-21.3684
-21.1421
-21.2389
-18.2274
-16.8788
-14.6277
-13.1953
-11.2718
-10.5475
-10.9453
-12.8572
-13.5778
-9.30375
-0.0942448
8.33879
11.2007
9.32878
7.42696
9.04735
10.432
11.2363
11.0312
9.19218
7.70689
6.5237
5.48264
4.50239
3.76676
1.44886
0.69938
-3.79931
-2.91737
1.4631
1.38246
-19.8908
-21.4019
-21.2051
-21.249
-18.2285
-16.876
-14.626
-13.1948
-11.2704
-10.5457
-10.9465
-12.8586
-13.5793
-9.30374
-0.0897368
8.34919
11.2163
9.34953
7.44998
9.06553
10.4457
11.2486
11.043
9.20339
7.71713
6.53253
5.48986
4.50869
3.77218
1.45202
0.705196
-3.79254
-2.88665
1.45493
1.383
-19.8835
-21.4593
-21.2683
-21.2588
-18.2288
-16.8724
-14.6234
-13.1941
-11.2687
-10.5441
-10.9481
-12.8606
-13.5818
-9.30366
-0.0846237
8.35875
11.2289
9.36511
7.4679
9.08133
10.4586
11.2602
11.0541
9.21426
7.72748
6.54185
5.49768
4.51549
3.77803
1.45555
0.711182
-3.78137
-2.84674
1.44891
1.38371
-19.8755
-21.5426
-21.3291
-21.2683
-18.2284
-16.8686
-14.6202
-13.1933
-11.2667
-10.5428
-10.9501
-12.8632
-13.5852
-9.30327
-0.0784328
8.36814
11.2394
9.37713
7.48199
9.09487
10.4702
11.2704
11.0637
9.22387
7.73711
6.55103
5.50569
4.52255
3.7841
1.45931
0.717292
-3.76599
-2.79825
1.44499
1.3846
-19.8671
-21.6521
-21.386
-21.2775
-18.2278
-16.8649
-14.6168
-13.1925
-11.2647
-10.5418
-10.9525
-12.8664
-13.5894
-9.30275
-0.0716036
8.37703
11.248
9.38639
7.49318
9.10629
10.4801
11.2784
11.0711
9.23145
7.74519
6.55934
5.51344
4.52959
3.79015
1.46314
0.723465
-3.74696
-2.74238
1.44324
1.38567
-19.8582
-21.7864
-21.4374
-21.2864
-18.2272
-16.8619
-14.6137
-13.1919
-11.2627
-10.541
-10.9552
-12.8703
-13.5944
-9.30257
-0.065001
8.38466
11.2543
9.39309
7.50185
9.11546
10.4877
11.2839
11.0758
9.23646
7.75107
6.56611
5.52038
4.53626
3.79594
1.46688
0.729634
-3.72517
-2.68089
1.44375
1.38693
-19.8491
-21.9421
-21.4826
-21.295
-18.2268
-16.8597
-14.6112
-13.1917
-11.2609
-10.5406
-10.9582
-12.8747
-13.6001
-9.30293
-0.0594093
8.3902
11.2578
9.3972
7.50799
9.12213
10.4928
11.2866
11.0776
9.23873
7.75444
6.57085
5.52603
4.54221
3.80121
1.47034
0.735731
-3.70178
-2.61606
1.44679
1.38838
-19.8401
-22.1138
-21.5212
-21.3035
-18.2267
-16.8588
-14.6097
-13.192
-11.2595
-10.5405
-10.9611
-12.8796
-13.6064
-9.30392
-0.055314
8.39325
11.2587
9.39889
7.51164
9.12612
10.4951
11.2864
11.0767
9.23845
7.75536
6.57341
5.53005
4.54712
3.80569
1.47334
0.741688
-3.67803
-2.55055
1.4527
1.39003
-19.8316
-22.2949
-21.5532
-21.3119
-18.2272
-16.8592
-14.6095
-13.193
-11.2585
-10.5409
-10.9643
-12.8847
-13.6129
-9.30532
-0.0528128
8.39383
11.2571
9.39847
7.51306
9.1276
10.4949
11.2838
11.0735
9.23606
7.7542
6.57396
5.53236
4.55075
3.80917
1.47569
0.747447
-3.65506
-2.48726
1.46207
1.39188
-19.8239
-22.4772
-21.5792
-21.3203
-18.2285
-16.8612
-14.6108
-13.195
-11.2582
-10.5418
-10.9675
-12.8902
-13.6196
-9.307
-0.0517496
8.39242
11.2538
9.39643
7.51272
9.12704
10.4925
11.2789
11.0683
9.23208
7.75152
6.57293
5.53311
4.55304
3.81151
1.47724
0.752974
-3.63365
-2.42907
1.47551
1.39394
-19.8173
-22.6525
-21.6
-21.3284
-18.2307
-16.8651
-14.614
-13.1982
-11.2588
-10.5433
-10.971
-12.896
-13.6259
-9.3087
-0.0517996
8.38958
11.2492
9.39326
7.51119
9.12511
10.4885
11.2723
11.0616
9.22694
7.74785
6.57084
5.53267
4.55413
3.81269
1.47789
0.75827
-3.61402
-2.37864
1.49377
1.39622
-19.8121
-22.8133
-21.6163
-21.3361
-18.2341
-16.8711
-14.6192
-13.2026
-11.2602
-10.5455
-10.9749
-12.9021
-13.6318
-9.31033
-0.0526265
8.38591
11.2441
9.3894
7.50904
9.12246
10.4834
11.2642
11.0534
9.22091
7.74357
6.56813
5.53143
4.55428
3.81283
1.47765
0.76339
-3.5959
-2.33797
1.5173
1.39871
-19.8084
-22.9541
-21.6291
-21.3432
-18.239
-16.8795
-14.6267
-13.2087
-11.2628
-10.5486
-10.9796
-12.9087
-13.6373
-9.31174
-0.0539201
8.38172
11.2387
9.38506
7.50669
9.11964
10.4776
11.2549
11.044
9.21409
7.7389
6.56511
5.52974
4.55381
3.81215
1.47662
0.768427
-3.57867
-2.30805
1.54623
1.40143
-19.8064
-23.0723
-21.6396
-21.3496
-18.2457
-16.8907
-14.6371
-13.2169
-11.2668
-10.5527
-10.9851
-12.9159
-13.6425
-9.31293
-0.0554645
8.37714
11.2329
9.38029
7.50441
9.11696
10.4713
11.2443
11.0332
9.20649
7.73387
6.56191
5.52779
4.55298
3.81087
1.47495
0.773492
-3.56165
-2.28848
1.57995
1.40437
-19.8058
-23.1688
-21.6487
-21.356
-18.2541
-16.9049
-14.6507
-13.2276
-11.2724
-10.558
-10.992
-12.924
-13.6476
-9.3138
-0.0571192
8.37195
11.2263
9.37489
7.50234
9.11456
10.4646
11.2325
11.0212
9.19812
7.7285
6.55856
5.52571
4.55196
3.80918
1.47282
0.778678
-3.54435
-2.27767
1.6174
1.40754
-19.8063
-23.2485
-21.6566
-21.3631
-18.2642
-16.9227
-14.6684
-13.2416
-11.2801
-10.5646
-11.0005
-12.9337
-13.6532
-9.3145
-0.0588245
8.36588
11.2185
9.36859
7.50045
9.11238
10.4574
11.2196
11.0079
9.18898
7.72276
6.55504
5.52353
4.55086
3.80724
1.47034
0.784044
-3.52653
-2.2734
1.65712
1.41094
-19.8073
-23.317
-21.6636
-21.372
-18.2759
-16.9446
-14.691
-13.2597
-11.2903
-10.5727
-11.0112
-12.9457
-13.6603
-9.31525
-0.0606185
8.3585
11.2088
9.36104
7.49866
9.11036
10.4496
11.2053
10.9933
9.17914
7.71668
6.55132
5.52125
4.54974
3.80513
1.46763
0.789618
-3.50815
-2.27355
1.69779
1.41454
-19.8085
-23.3788
-21.6709
-21.3842
-18.2892
-16.9711
-14.7193
-13.2828
-11.3036
-10.5827
-11.0243
-12.961
-13.6702
-9.31682
-0.0627048
8.34952
11.1968
9.35198
7.49682
9.10834
10.441
11.1897
10.9775
9.16863
7.71026
6.54737
5.51887
4.54862
3.8029
1.46474
0.795407
-3.48931
-2.27642
1.73825
1.41835
-19.8091
-23.4373
-21.6799
-21.4012
-18.3044
-17.003
-14.7544
-13.312
-11.3206
-10.5947
-11.0406
-12.9807
-13.6843
-9.32021
-0.0655629
8.33854
11.182
9.34119
7.4948
9.10623
10.4317
11.1728
10.9605
9.15754
7.70353
6.54322
5.51639
4.54749
3.80057
1.46172
0.801405
-3.47016
-2.28079
1.77793
1.42234
-19.8088
-23.4955
-21.6907
-21.4247
-18.3218
-17.0413
-14.7977
-13.3481
-11.3416
-10.6086
-11.0598
-13.0059
-13.7046
-9.32709
-0.0699978
8.32527
11.1643
9.32857
7.49245
9.10393
10.4215
11.1546
10.9424
9.14594
7.69655
6.53886
5.51383
4.54635
3.79815
1.4586
0.80759
-3.45084
-2.28573
1.81648
1.4265
-19.8072
-23.5564
-21.7024
-21.456
-18.3421
-17.087
-14.8504
-13.3922
-11.367
-10.6245
-11.0817
-13.0366
-13.7318
-9.33874
-0.0770946
8.30918
11.1434
9.31401
7.48969
9.10142
10.4106
11.1351
10.9233
9.13391
7.68933
6.53435
5.51119
4.54517
3.7956
1.45542
0.813934
-3.43151
-2.29055
1.85402
1.43084
-19.8041
-23.6223
-21.7131
-21.4958
-18.3658
-17.1411
-14.9135
-13.4442
-11.3963
-10.6412
-11.1049
-13.0729
-13.7665
-9.35602
-0.0878605
8.2898
11.1193
9.29753
7.48638
9.09857
10.3989
11.1146
10.9033
9.12154
7.68193
6.52969
5.50847
4.54393
3.79293
1.45218
0.820386
-3.41233
-2.29463
1.89071
1.43532
-19.7994
-23.6955
-21.7213
-21.5439
-18.3937
-17.204
-14.987
-13.5036
-11.4285
-10.6577
-11.128
-13.1129
-13.8068
-9.37787
-0.102763
8.26647
11.0917
9.27904
7.48244
9.09533
10.3865
11.093
10.8826
9.10889
7.6744
6.52495
5.5057
4.54262
3.79011
1.44892
0.826891
-3.39346
-2.29747
1.92699
1.43997
-19.793
-23.7781
-21.7259
-21.5993
-18.4262
-17.275
-15.0693
-13.5676
-11.4611
-10.6717
-11.1486
-13.155
-13.8506
-9.40215
-0.121241
8.23898
11.0607
9.25856
7.47772
9.09146
10.3733
11.0705
10.8612
9.09602
7.66677
6.52015
5.50286
4.54121
3.78713
1.44564
0.833374
-3.37507
-2.29863
1.96312
1.44476
-19.7847
-23.8727
-21.7279
-21.6603
-18.4635
-17.3522
-15.1571
-13.6325
-11.4911
-10.6808
-11.1645
-13.196
-13.8941
-9.42539
-0.141851
8.20732
11.026
9.23599
7.47209
9.08677
10.3594
11.0472
10.8393
9.08302
7.6591
6.51532
5.49996
4.53966
3.78397
1.44237
0.839765
-3.35734
-2.2978
1.99957
1.4497
-19.7744
-23.9831
-21.7297
-21.7239
-18.5056
-17.432
-15.2447
-13.6925
-11.5138
-10.6821
-11.1733
-13.2339
-13.9341
-9.4449
-0.16281
8.17219
10.9879
9.21142
7.46542
9.08088
10.3444
11.023
10.8169
9.06993
7.65144
6.51051
5.49699
4.53796
3.78062
1.43913
0.845972
-3.34048
-2.29469
2.03658
1.45478
-19.7619
-24.1147
-21.7346
-21.7861
-18.552
-17.5098
-15.3254
-13.7413
-11.5255
-10.6734
-11.1735
-13.2656
-13.9666
-9.45844
-0.182726
8.1344
10.9467
9.1849
7.45769
9.07356
10.3283
10.998
10.7942
9.05684
7.64384
6.50573
5.49395
4.53609
3.77707
1.43593
0.851913
-3.32471
-2.28914
2.07453
1.46002
-19.7468
-24.2757
-21.7447
-21.8421
-18.6015
-17.5796
-15.3914
-13.7725
-11.5219
-10.6527
-11.164
-13.2899
-13.9894
-9.46558
-0.200842
8.0949
10.903
9.15674
7.44896
9.0645
10.3106
10.9722
10.7712
9.04379
7.63635
6.501
5.49082
4.53402
3.77333
1.43281
0.857478
-3.31029
-2.28096
2.11357
1.46541
-19.7287
-24.4771
-21.76
-21.8871
-18.6522
-17.6358
-15.4365
-13.7815
-11.5011
-10.6199
-11.1457
-13.3048
-14.0004
-9.4662
-0.21684
8.05422
10.8573
9.12719
7.43944
9.05368
10.2914
10.9456
10.7479
9.03087
7.62903
6.49636
5.48759
4.53171
3.76935
1.42977
0.862568
-3.2975
-2.2701
2.15402
1.47096
-19.7067
-24.7324
-21.778
-21.9178
-18.7022
-17.6741
-15.4564
-13.7659
-11.4624
-10.5759
-11.1198
-13.3096
-14.0001
-9.46129
-0.230705
8.01277
10.81
9.09665
7.42938
9.04108
10.2703
10.9182
10.7246
9.01813
7.62192
6.49182
5.48426
4.52918
3.76516
1.42685
0.867043
-3.28662
-2.25644
2.19594
1.47667
-19.6798
-25.0577
-21.7936
-21.9337
-18.7494
-17.6925
-15.4505
-13.7269
-11.4081
-10.5237
-11.0887
-13.3037
-13.9899
-9.45119
-0.242463
7.9705
10.7611
9.06524
7.41905
9.02701
10.2476
10.8899
10.7012
9.00566
7.61509
6.48739
5.48081
4.52637
3.76071
1.42408
0.870778
-3.27797
-2.24002
2.2396
1.48254
-19.6464
-25.4689
-21.8007
-21.9373
-18.7926
-17.6917
-15.4213
-13.6681
-11.3417
-10.4668
-11.0547
-13.2888
-13.9731
-9.43667
-0.252377
7.92735
10.7108
9.03311
7.40862
9.01167
10.2232
10.8609
10.6778
8.99352
7.60857
6.48308
5.47724
4.52327
3.75602
1.4215
0.873595
-3.27189
-2.22076
2.28501
1.48857
-19.6052
-25.9757
-21.7929
-21.9326
-18.8309
-17.6749
-15.3742
-13.5954
-11.2686
-10.4097
-11.0202
-13.2678
-13.952
-9.41762
-0.260749
7.88278
10.6586
9.00008
7.3982
8.99548
10.1978
10.8313
10.6545
8.98181
7.60243
6.4789
5.47354
4.51985
3.75102
1.41913
0.875336
-3.26874
-2.19877
2.33244
1.49477
-19.5555
-26.5693
-21.7629
-21.9238
-18.8641
-17.6466
-15.3152
-13.5151
-11.1942
-10.3559
-10.988
-13.246
-13.9283
-9.39456
-0.268326
7.83616
10.604
8.96613
7.38789
8.97869
10.1715
10.8014
10.6315
8.97056
7.59667
6.47483
5.46969
4.5161
3.74576
1.41704
0.875744
-3.26893
-2.17393
2.38197
1.50115
-19.4967
-27.2067
-21.7024
-21.9138
-18.8923
-17.611
-15.2503
-13.4333
-11.1238
-10.3089
-10.962
-13.2267
-13.9015
-9.36761
-0.276246
7.78628
10.5465
8.93139
7.37807
8.96172
10.1448
10.7713
10.6088
8.95979
7.59133
6.47088
5.4657
4.51198
3.74018
1.41527
0.874526
-3.27286
-2.14613
2.43389
1.5077
-19.4195
-27.7988
-21.602
-21.9034
-18.9151
-17.5715
-15.1841
-13.3552
-11.0618
-10.2724
-10.9453
-13.2109
-13.8716
-9.33843
-0.286509
7.73218
10.4865
8.89694
7.36927
8.94449
10.1174
10.7409
10.5863
8.94945
7.5864
6.4671
5.46164
4.50753
3.73431
1.41383
0.871305
-3.28077
-2.11526
2.48789
1.51441
-19.2962
-28.2071
-21.4526
-21.8919
-18.9313
-17.5299
-15.1201
-13.2853
-11.0132
-10.2496
-10.9379
-13.197
-13.8387
-9.30939
-0.30122
7.67378
10.4256
8.86451
7.36171
8.92624
10.0886
10.7098
10.5638
8.93961
7.58208
6.46366
5.45761
4.50272
3.72798
1.41269
0.866351
-3.29245
-2.08288
2.54289
1.52121
-19.1342
-28.2646
-21.2465
-21.8775
-18.939
-17.4868
-15.0602
-13.2285
-10.9817
-10.2395
-10.9368
-13.1842
-13.8063
-9.28491
-0.321255
7.61463
10.3684
8.83612
7.35371
8.904
10.0562
10.6778
10.5419
8.93073
7.57879
6.4608
5.45367
4.49741
3.72101
1.41192
0.860384
-3.30791
-2.05119
2.59777
1.52813
-19.2133
-27.8382
-20.9776
-21.8619
-18.9405
-17.4449
-15.0066
-13.1883
-10.9661
-10.2383
-10.9399
-13.1733
-13.7777
-9.26602
-0.343019
7.56036
10.3183
8.81029
7.34006
8.87282
10.019
10.6461
10.5227
8.9247
7.57761
6.45856
5.44909
4.49056
3.71292
1.41215
0.849943
-3.33285
-2.01123
2.66423
1.53604
8.97921
9.2806
10.1407
11.475
13.2011
15.3644
18.0575
21.3995
25.7954
31.0646
37.512
45.3216
54.9198
66.4508
81.2847
98.8559
123.393
149.774
190.505
214.789
262.793
104.496
8.97902
9.28038
10.1404
11.4745
13.2004
15.3634
18.0559
21.4288
25.8495
31.0938
37.5086
45.3059
54.8912
66.4191
81.2201
98.7303
123.165
149.308
189.623
213.196
258.925
101.546
8.97881
9.28014
10.1401
11.4741
13.1997
15.3623
18.0543
21.4651
25.896
31.1153
37.5018
45.2889
54.8629
66.3849
81.1531
98.6011
122.929
148.823
188.72
211.543
254.897
103.21
8.97859
9.27989
10.1398
11.4736
13.199
15.3612
18.0525
21.5017
25.9341
31.1304
37.4934
45.2712
54.834
66.3514
81.0863
98.4669
122.683
148.318
187.793
209.822
250.756
103.085
8.97835
9.27962
10.1394
11.4731
13.1982
15.36
18.0507
21.5335
25.9647
31.1402
37.4845
45.2532
54.806
66.315
81.0162
98.3276
122.425
147.792
186.838
208.032
246.491
101.276
8.97811
9.27935
10.1391
11.4725
13.1974
15.3588
18.0488
21.5553
25.988
31.1459
37.476
45.2355
54.7781
66.2794
80.9459
98.1819
122.153
147.243
185.849
206.176
242.096
99.2142
8.97785
9.27905
10.1387
11.4719
13.1965
15.3575
18.0468
21.5633
26.0046
31.1481
37.4683
45.2182
54.7515
66.2412
80.8721
98.03
121.866
146.671
184.819
204.254
237.578
97.2942
8.97758
9.27874
10.1383
11.4713
13.1956
15.3561
18.0446
21.5583
26.0148
31.1474
37.4618
45.2015
54.7254
66.2039
80.7978
97.8709
121.561
146.073
183.741
202.268
232.94
95.3533
8.97729
9.27841
10.1378
11.4707
13.1947
15.3546
18.0423
21.5433
26.0188
31.1444
37.4566
45.1857
54.7008
66.1642
80.7198
97.705
121.238
145.45
182.611
200.217
228.189
93.2931
8.97699
9.27807
10.1374
11.47
13.1937
15.353
18.0399
21.5216
26.0168
31.1393
37.4526
45.1708
54.6767
66.1254
80.6408
97.5313
120.894
144.799
181.421
198.101
223.327
91.1378
8.97667
9.2777
10.1369
11.4693
13.1926
15.3513
18.0374
21.4953
26.0084
31.1322
37.4495
45.1568
54.6539
66.0841
80.5578
97.3505
120.53
144.118
180.166
195.92
218.359
88.9225
8.97633
9.27731
10.1364
11.4685
13.1915
15.3496
18.0347
21.4661
25.9934
31.123
37.4472
45.1438
54.6314
66.0435
80.4734
97.1618
120.144
143.407
178.841
193.672
213.292
86.658
8.97597
9.27691
10.1358
11.4678
13.1903
15.3477
18.0318
21.4355
25.971
31.1112
37.4451
45.1318
54.61
66.0001
80.3844
96.9655
119.738
142.662
177.441
191.356
208.128
84.3483
8.97559
9.27647
10.1353
11.4669
13.189
15.3457
18.0288
21.4054
25.9405
31.0962
37.4426
45.1205
54.5885
65.9569
80.2933
96.7608
119.309
141.884
175.962
188.971
202.875
82.0022
8.97519
9.27602
10.1347
11.466
13.1877
15.3436
18.0256
21.3773
25.9011
31.0772
37.4391
45.11
54.5678
65.9105
80.197
96.548
118.859
141.069
174.403
186.516
197.536
79.6317
8.97477
9.27553
10.134
11.4651
13.1862
15.3414
18.0222
21.3526
25.8527
31.053
37.4334
45.0999
54.5467
65.8635
80.0976
96.3259
118.387
140.218
172.759
183.988
192.116
77.25
8.97432
9.27502
10.1333
11.4641
13.1847
15.3391
18.0186
21.3319
25.7955
31.0223
37.4243
45.0899
54.526
65.8128
79.9921
96.0945
117.893
139.328
171.031
181.387
186.62
74.8711
8.97385
9.27448
10.1326
11.463
13.1831
15.3366
18.0148
21.3153
25.7307
30.9837
37.4101
45.0794
54.5047
65.7607
79.8824
95.8526
117.375
138.398
169.216
178.71
181.051
72.5088
8.97334
9.2739
10.1319
11.4619
13.1815
15.3339
18.0107
21.3023
25.6609
30.9355
37.3887
45.0677
54.4835
65.7042
79.7653
95.5999
116.834
137.427
167.314
175.956
175.414
70.176
8.97281
9.2733
10.131
11.4607
13.1797
15.3311
18.0064
21.2919
25.5894
30.8769
37.3575
45.0533
54.4612
65.6455
79.6426
95.3351
116.266
136.414
165.324
173.124
169.713
67.8829
8.97224
9.27265
10.1302
11.4595
13.1778
15.3281
18.0018
21.2832
25.5199
30.8074
37.3134
45.0342
54.4383
65.5816
79.5112
95.0575
115.672
135.356
163.246
170.213
163.953
65.6369
8.97164
9.27197
10.1293
11.4581
13.1758
15.325
17.9969
21.2753
25.4562
30.7281
37.253
45.0076
54.4131
65.5149
79.3726
94.7659
115.049
134.252
161.08
167.22
158.138
63.4407
8.97101
9.27124
10.1283
11.4567
13.1736
15.3216
17.9917
21.2674
25.4011
30.6416
37.1735
44.9692
54.385
65.4423
79.2237
94.4595
114.396
133.101
158.825
164.144
152.274
61.2926
8.97033
9.27047
10.1273
11.4552
13.1714
15.318
17.9861
21.2593
25.3559
30.5519
37.0732
44.9133
54.3505
65.3659
79.066
94.1368
113.712
131.901
156.48
160.984
146.369
59.1857
8.96961
9.26965
10.1262
11.4536
13.169
15.3143
17.9802
21.2508
25.3199
30.4638
36.9528
44.8329
54.306
65.2821
78.8964
93.7973
112.994
130.649
154.046
157.737
140.431
57.1081
8.96885
9.26878
10.1251
11.4519
13.1664
15.3103
17.9739
21.2417
25.2914
30.3818
36.8165
44.7207
54.2439
65.1918
78.7163
93.4393
112.241
129.343
151.521
154.403
134.468
55.0436
8.96804
9.26786
10.1238
11.4501
13.1637
15.306
17.9673
21.2319
25.2679
30.3088
36.6713
44.5713
54.1541
65.0891
78.5221
93.0623
111.453
127.983
148.907
150.98
128.493
52.9722
8.96718
9.26687
10.1225
11.4482
13.1608
15.3015
17.9602
21.2214
25.2472
30.2459
36.526
44.3843
54.0223
64.97
78.3142
92.6647
110.627
126.566
146.202
147.465
122.517
50.8717
8.96626
9.26583
10.1211
11.4462
13.1578
15.2967
17.9527
21.2102
25.2276
30.1924
36.3889
44.1665
53.8342
64.8215
78.0867
92.2454
109.762
125.09
143.408
143.858
116.552
48.7187
8.96529
9.26472
10.1197
11.444
13.1545
15.2916
17.9447
21.1982
25.2079
30.1464
36.2656
43.9316
53.579
64.6293
77.8347
91.8017
108.859
123.554
140.524
140.156
110.613
46.4898
8.96425
9.26354
10.1181
11.4417
13.1511
15.2862
17.9362
21.1855
25.1875
30.1051
36.1583
43.6963
53.258
64.3705
77.5442
91.3302
107.916
121.955
137.552
136.36
104.713
44.1632
8.96314
9.26228
10.1164
11.4392
13.1474
15.2805
17.9272
21.1719
25.1661
30.066
36.0658
43.4758
52.8867
64.0266
77.1978
90.8237
106.93
120.294
134.493
132.468
98.8678
41.72
8.96196
9.26094
10.1146
11.4366
13.1435
15.2743
17.9177
21.1574
25.1432
30.0271
35.9846
43.2791
52.4934
63.5872
76.7677
90.2704
105.9
118.567
131.349
128.481
93.0915
39.1448
8.96071
9.25951
10.1127
11.4338
13.1393
15.2678
17.9075
21.142
25.1189
29.9872
35.9101
43.1078
52.109
63.064
76.2284
89.6514
104.819
116.775
128.121
124.401
87.3988
36.4273
8.95937
9.25799
10.1107
11.4309
13.1348
15.2609
17.8966
21.1256
25.093
29.9454
35.8381
42.958
51.7569
62.4885
75.5624
88.9419
103.679
114.914
124.812
120.23
81.8041
33.5621
8.95795
9.25637
10.1085
11.4277
13.1301
15.2535
17.8851
21.1081
25.0654
29.9012
35.7654
42.8221
51.4467
61.905
74.7782
88.1154
102.463
112.985
121.426
115.972
76.3211
30.5502
8.95642
9.25464
10.1062
11.4243
13.125
15.2457
17.8729
21.0894
25.036
29.8542
35.6898
42.6924
51.1747
61.3517
73.9119
87.1544
101.154
110.984
117.968
111.634
70.9635
27.3982
8.9548
9.2528
10.1038
11.4207
13.1196
15.2373
17.8598
21.0696
25.0047
29.8043
35.6102
42.5625
50.9293
60.8497
73.0198
86.0626
99.7304
108.909
114.445
107.223
65.7441
24.1188
8.95307
9.25083
10.1011
11.4169
13.1139
15.2284
17.8459
21.0484
24.9714
29.7513
35.526
42.428
50.6965
60.3988
72.155
84.8711
98.1817
106.758
110.871
102.75
60.6765
20.7302
8.95122
9.24873
10.0983
11.4128
13.1077
15.2189
17.8311
21.0259
24.9359
29.6949
35.4366
42.2866
50.464
59.9838
71.3492
83.6312
96.5116
104.534
107.264
98.2312
55.7743
17.2557
8.94924
9.24649
10.0953
11.4084
13.1012
15.2087
17.8154
21.0018
24.8981
29.635
35.3417
42.137
50.2237
59.5841
70.6044
82.3951
94.7443
102.241
103.65
93.6873
51.0532
13.723
8.94713
9.24409
10.0921
11.4038
13.0942
15.1979
17.7986
20.9762
24.8579
29.5712
35.2409
41.9786
49.9711
59.1811
69.9002
81.1954
92.9179
99.891
100.061
89.1466
46.5304
10.1639
8.94487
9.24153
10.0887
11.3988
13.0867
15.1864
17.7807
20.9488
24.815
29.5034
35.1338
41.8106
49.7043
58.7625
69.2074
80.037
91.0703
97.4978
96.5339
84.6454
42.226
6.61404
8.94246
9.2388
10.0851
11.3935
13.0787
15.1741
17.7616
20.9197
24.7693
29.4312
35.02
41.6323
49.4222
58.3218
68.5002
78.9013
89.2255
95.07
93.0972
80.2265
38.162
3.11209
8.93988
9.23588
10.0812
11.3878
13.0702
15.161
17.7412
20.8885
24.7206
29.3543
34.899
41.4432
49.1239
57.8566
67.7614
77.7593
87.3888
92.6058
89.7631
75.9348
34.3611
-0.300409
8.93712
9.23275
10.077
11.3817
13.0611
15.147
17.7195
20.8553
24.6687
29.2725
34.7705
41.2425
48.8082
57.3658
66.9835
76.583
85.5478
90.0942
86.5138
71.8081
30.8437
-3.58048
8.93417
9.22941
10.0725
11.3752
13.0513
15.132
17.6963
20.8199
24.6134
29.1855
34.6339
41.0295
48.4741
56.8483
66.1649
75.3543
83.6788
87.5263
83.3
67.8638
27.6233
-6.68558
8.93101
9.22583
10.0678
11.3682
13.0409
15.116
17.6716
20.7821
24.5544
29.0928
34.4887
40.8037
48.1207
56.3025
65.3061
74.0661
81.756
84.899
80.0588
64.0854
24.6996
-9.57657
8.92762
9.222
10.0627
11.3608
13.0298
15.0989
17.6453
20.7417
24.4915
28.9942
34.3345
40.5641
47.7469
55.7271
64.4066
72.7191
79.7624
82.2097