/*--------------------------------*- C++ -*----------------------------------*\
| =========                 |                                                 |
| \\      /  F ield         | OpenFOAM: The Open Source CFD Toolbox           |
|  \\    /   O peration     | Version:  v1912                                 |
|   \\  /    A nd           | Website:  www.openfoam.com                      |
|    \\/     M anipulation  |                                                 |
\*---------------------------------------------------------------------------*/
FoamFile
{
    version     2.0;
    format      ascii;
    class       surfaceScalarField;
    location    "460";
    object      phi;
}
// * * * * * * * * * * * * * * * * * * * * * * * * * * * * * * * * * * * * * //

dimensions      [0 3 -1 0 0 0 0];
oriented        oriented;


internalField   nonuniform List<scalar> 
24588
(
6.81683e-05
1.99067e-08
6.81142e-05
5.46499e-08
6.80291e-05
8.46208e-08
6.79133e-05
1.15698e-07
6.77627e-05
1.50174e-07
6.75731e-05
1.89713e-07
6.73377e-05
2.34899e-07
6.70423e-05
2.95856e-07
6.66764e-05
3.6568e-07
6.62171e-05
4.57564e-07
6.56592e-05
5.59088e-07
6.49758e-05
6.97185e-07
6.40841e-05
8.83457e-07
6.29548e-05
1.14625e-06
6.14323e-05
1.42435e-06
5.91837e-05
2.34046e-06
5.62529e-05
2.92347e-06
5.14327e-05
4.8217e-06
4.47125e-05
6.71971e-06
3.35063e-05
1.12056e-05
1.98844e-05
1.3622e-05
1.98843e-05
6.81686e-05
4.03088e-08
6.81141e-05
1.09903e-07
6.8029e-05
1.69042e-07
6.79134e-05
2.31165e-07
6.77628e-05
3.00139e-07
6.75733e-05
3.79391e-07
6.7338e-05
4.69644e-07
6.70424e-05
5.91916e-07
6.66769e-05
7.30917e-07
6.62171e-05
9.15463e-07
6.56609e-05
1.11669e-06
6.49764e-05
1.39737e-06
6.40851e-05
1.76709e-06
6.29743e-05
2.27637e-06
6.14204e-05
2.87545e-06
5.92562e-05
4.59232e-06
5.6264e-05
5.90287e-06
5.14011e-05
9.6862e-06
4.47601e-05
1.33596e-05
3.34105e-05
2.25542e-05
1.98477e-05
2.7185e-05
3.97317e-05
6.81685e-05
6.07123e-08
6.81141e-05
1.65154e-07
6.8029e-05
2.535e-07
6.79134e-05
3.46675e-07
6.77628e-05
4.50147e-07
6.75732e-05
5.69071e-07
6.73379e-05
7.04459e-07
6.70423e-05
8.87981e-07
6.66768e-05
1.09611e-06
6.62167e-05
1.37362e-06
6.56607e-05
1.67409e-06
6.49771e-05
2.09705e-06
6.40778e-05
2.65605e-06
6.29632e-05
3.40945e-06
6.14149e-05
4.31287e-06
5.92886e-05
6.82303e-06
5.626e-05
8.91571e-06
5.14213e-05
1.45284e-05
4.4737e-05
2.00423e-05
3.34328e-05
3.38573e-05
1.98686e-05
4.07494e-05
5.96001e-05
6.81685e-05
8.11152e-08
6.81141e-05
2.20368e-07
6.8029e-05
3.3791e-07
6.79134e-05
4.6214e-07
6.77628e-05
6.00092e-07
6.75733e-05
7.58733e-07
6.7338e-05
9.39205e-07
6.70424e-05
1.18403e-06
6.66769e-05
1.46137e-06
6.6217e-05
1.83164e-06
6.56604e-05
2.23223e-06
6.49762e-05
2.7969e-06
6.40852e-05
3.53969e-06
6.29718e-05
4.54211e-06
6.14161e-05
5.77058e-06
5.93085e-05
9.01358e-06
5.62832e-05
1.19268e-05
5.1436e-05
1.93776e-05
4.47273e-05
2.6749e-05
3.34626e-05
4.51208e-05
1.9903e-05
5.43091e-05
7.95029e-05
6.81685e-05
1.01514e-07
6.81141e-05
2.7557e-07
6.8029e-05
4.22362e-07
6.79134e-05
5.77662e-07
6.77628e-05
7.50089e-07
6.75732e-05
9.48398e-07
6.73379e-05
1.17404e-06
6.70424e-05
1.48007e-06
6.66768e-05
1.82657e-06
6.62167e-05
2.28979e-06
6.56606e-05
2.78969e-06
6.49775e-05
3.4958e-06
6.40777e-05
4.42817e-06
6.29615e-05
5.67583e-06
6.14129e-05
7.20807e-06
5.93158e-05
1.12151e-05
5.63075e-05
1.49195e-05
5.14375e-05
2.42515e-05
4.47455e-05
3.34393e-05
3.3509e-05
5.63563e-05
1.9952e-05
6.78665e-05
9.94546e-05
6.81685e-05
1.21916e-07
6.81141e-05
3.30741e-07
6.8029e-05
5.06749e-07
6.79135e-05
6.93117e-07
6.77629e-05
8.99996e-07
6.75733e-05
1.13804e-06
6.73381e-05
1.40877e-06
6.70425e-05
1.77608e-06
6.66769e-05
2.19183e-06
6.62172e-05
2.74776e-06
6.56601e-05
3.34828e-06
6.49756e-05
4.19579e-06
6.40858e-05
5.31137e-06
6.29715e-05
6.80935e-06
6.14149e-05
8.67278e-06
5.93157e-05
1.33932e-05
5.63233e-05
1.78979e-05
5.14488e-05
2.91278e-05
4.4777e-05
4.01089e-05
3.35753e-05
6.75568e-05
2.00177e-05
8.14242e-05
0.000119472
6.81685e-05
1.42313e-07
6.81141e-05
3.85899e-07
6.8029e-05
5.91189e-07
6.79134e-05
8.08646e-07
6.77628e-05
1.04996e-06
6.75733e-05
1.32767e-06
6.7338e-05
1.64359e-06
6.70424e-05
2.07208e-06
6.66769e-05
2.55703e-06
6.62169e-05
3.20579e-06
6.5661e-05
3.90555e-06
6.49779e-05
4.89414e-06
6.40771e-05
6.2001e-06
6.29603e-05
7.9417e-06
6.14128e-05
1.01113e-05
5.93082e-05
1.55981e-05
5.63378e-05
2.08555e-05
5.14699e-05
3.39999e-05
4.48252e-05
4.67524e-05
3.36688e-05
7.87124e-05
2.01032e-05
9.49902e-05
0.000139575
6.81685e-05
1.62715e-07
6.81141e-05
4.4103e-07
6.80291e-05
6.75554e-07
6.79135e-05
9.24087e-07
6.77629e-05
1.19983e-06
6.75734e-05
1.51728e-06
6.73382e-05
1.87829e-06
6.70426e-05
2.36806e-06
6.66771e-05
2.92225e-06
6.62175e-05
3.66361e-06
6.566e-05
4.46463e-06
6.49745e-05
5.59491e-06
6.4086e-05
7.08303e-06
6.29714e-05
9.07458e-06
6.14095e-05
1.15892e-05
5.92927e-05
1.77854e-05
5.63563e-05
2.3781e-05
5.15194e-05
3.88376e-05
4.49083e-05
5.33615e-05
3.38018e-05
8.98179e-05
2.02125e-05
0.00010858
0.000159787
6.81685e-05
1.8311e-07
6.81141e-05
4.96148e-07
6.8029e-05
7.59982e-07
6.79134e-05
1.03962e-06
6.77629e-05
1.34977e-06
6.75733e-05
1.70688e-06
6.7338e-05
2.11311e-06
6.70426e-05
2.66401e-06
6.6677e-05
3.28743e-06
6.62173e-05
4.12145e-06
6.56618e-05
5.02147e-06
6.49793e-05
6.29186e-06
6.40754e-05
7.97306e-06
6.29495e-05
1.02131e-05
6.13888e-05
1.3059e-05
5.92856e-05
1.99577e-05
5.6364e-05
2.66972e-05
5.16269e-05
4.35781e-05
4.50485e-05
5.99397e-05
3.39865e-05
0.000100879
2.03502e-05
0.000122216
0.000180137
6.81685e-05
2.0351e-07
6.81141e-05
5.5124e-07
6.80291e-05
8.4433e-07
6.79135e-05
1.15504e-06
6.7763e-05
1.49958e-06
6.75735e-05
1.89645e-06
6.73383e-05
2.34777e-06
6.70428e-05
2.95995e-06
6.66772e-05
3.65263e-06
6.6218e-05
4.57898e-06
6.56599e-05
5.58116e-06
6.49717e-05
6.99501e-06
6.40769e-05
8.86319e-06
6.29409e-05
1.1364e-05
6.13753e-05
1.45748e-05
5.93051e-05
2.20626e-05
5.63806e-05
2.96159e-05
5.17978e-05
4.81604e-05
4.52505e-05
6.64857e-05
3.42276e-05
0.000111902
2.05197e-05
0.000135924
0.000200657
6.81685e-05
2.23903e-07
6.81141e-05
6.06319e-07
6.80291e-05
9.28755e-07
6.79134e-05
1.27057e-06
6.77629e-05
1.64949e-06
6.75734e-05
2.08602e-06
6.73381e-05
2.58256e-06
6.70427e-05
3.25585e-06
6.66772e-05
4.01775e-06
6.62179e-05
5.03638e-06
6.56618e-05
6.1385e-06
6.49788e-05
7.69154e-06
6.40753e-05
9.75104e-06
6.29181e-05
1.25271e-05
6.13672e-05
1.6081e-05
5.9334e-05
2.41236e-05
5.64199e-05
3.25292e-05
5.19996e-05
5.25833e-05
4.5489e-05
7.29965e-05
3.4517e-05
0.000122873
2.07226e-05
0.000149719
0.000221379
6.81685e-05
2.443e-07
6.81141e-05
6.61374e-07
6.80291e-05
1.0131e-06
6.79136e-05
1.38598e-06
6.7763e-05
1.79925e-06
6.75736e-05
2.27556e-06
6.73384e-05
2.81718e-06
6.70429e-05
3.55175e-06
6.66774e-05
4.38293e-06
6.62188e-05
5.49326e-06
6.56596e-05
6.6993e-06
6.49649e-05
8.39987e-06
6.40661e-05
1.06454e-05
6.29138e-05
1.36878e-05
6.1369e-05
1.76132e-05
5.93632e-05
2.61373e-05
5.64702e-05
3.54195e-05
5.2186e-05
5.68665e-05
4.57301e-05
7.94516e-05
3.48381e-05
0.000133765
2.09576e-05
0.000163599
0.000242337
6.81685e-05
2.64687e-07
6.81141e-05
7.16415e-07
6.80291e-05
1.09753e-06
6.79135e-05
1.50151e-06
6.77629e-05
1.94914e-06
6.75735e-05
2.46509e-06
6.73382e-05
3.05195e-06
6.70428e-05
3.84763e-06
6.66773e-05
4.74801e-06
6.62194e-05
5.94935e-06
6.56587e-05
7.26118e-06
6.49588e-05
9.11129e-06
6.40553e-05
1.15333e-05
6.29075e-05
1.48357e-05
6.13725e-05
1.91306e-05
5.9386e-05
2.81332e-05
5.65163e-05
3.829e-05
5.23339e-05
6.10506e-05
4.59529e-05
8.58331e-05
3.51738e-05
0.000144544
2.12211e-05
0.000177552
0.000263558
6.81685e-05
2.85079e-07
6.81141e-05
7.71431e-07
6.80291e-05
1.18186e-06
6.79136e-05
1.6169e-06
6.77631e-05
2.09886e-06
6.75737e-05
2.65458e-06
6.73385e-05
3.28653e-06
6.7043e-05
4.14352e-06
6.66775e-05
5.11319e-06
6.62205e-05
6.40473e-06
6.56543e-05
7.82883e-06
6.49356e-05
9.84063e-06
6.40426e-05
1.24238e-05
6.2903e-05
1.5979e-05
6.13755e-05
2.06591e-05
5.94016e-05
3.01073e-05
5.65523e-05
4.11378e-05
5.24449e-05
6.51569e-05
4.61507e-05
9.21266e-05
3.55119e-05
0.000155182
2.15087e-05
0.000191555
0.000285066
6.81685e-05
3.0546e-07
6.81141e-05
8.26434e-07
6.80291e-05
1.26631e-06
6.79135e-05
1.73243e-06
6.7763e-05
2.24872e-06
6.75735e-05
2.84406e-06
6.73384e-05
3.52126e-06
6.70429e-05
4.43939e-06
6.66774e-05
5.47828e-06
6.62213e-05
6.85899e-06
6.56513e-05
8.39989e-06
6.49228e-05
1.05771e-05
6.40399e-05
1.32981e-05
6.28987e-05
1.71181e-05
6.13779e-05
2.21717e-05
5.94117e-05
3.20782e-05
5.65785e-05
4.39719e-05
5.25284e-05
6.92083e-05
4.63242e-05
9.83313e-05
3.58449e-05
0.000165662
2.18158e-05
0.000205585
0.000306882
6.81685e-05
3.25846e-07
6.81141e-05
8.81412e-07
6.80291e-05
1.35065e-06
6.79136e-05
1.8478e-06
6.77632e-05
2.39841e-06
6.75738e-05
3.03351e-06
6.73387e-05
3.75576e-06
6.70432e-05
4.73527e-06
6.66776e-05
5.84352e-06
6.62226e-05
7.31249e-06
6.56466e-05
8.97712e-06
6.4918e-05
1.13119e-05
6.40362e-05
1.41805e-05
6.28961e-05
1.82605e-05
6.13799e-05
2.36913e-05
5.94181e-05
3.40389e-05
5.6597e-05
4.67918e-05
5.25931e-05
7.32113e-05
4.64766e-05
0.000104447
3.61691e-05
0.000175969
2.21383e-05
0.000219616
0.00032902
6.81685e-05
3.46219e-07
6.81141e-05
9.36377e-07
6.80291e-05
1.43511e-06
6.79135e-05
1.96333e-06
6.7763e-05
2.54825e-06
6.75736e-05
3.22295e-06
6.73385e-05
3.99044e-06
6.70431e-05
5.03112e-06
6.66774e-05
6.20875e-06
6.62239e-05
7.76417e-06
6.56379e-05
9.5641e-06
6.49216e-05
1.20312e-05
6.40331e-05
1.50642e-05
6.28944e-05
1.93974e-05
6.13815e-05
2.51984e-05
5.9422e-05
3.60015e-05
5.66102e-05
4.96044e-05
5.26453e-05
7.71773e-05
4.66119e-05
0.000110481
3.64834e-05
0.000186097
2.24732e-05
0.000233626
0.000351493
6.81685e-05
3.66597e-07
6.81142e-05
9.91317e-07
6.80292e-05
1.51946e-06
6.79137e-05
2.07868e-06
6.77632e-05
2.69789e-06
6.75739e-05
3.41235e-06
6.73389e-05
4.22487e-06
6.70434e-05
5.32693e-06
6.66776e-05
6.5742e-06
6.62254e-05
8.21493e-06
6.56286e-05
1.01621e-05
6.49252e-05
1.27365e-05
6.40304e-05
1.59605e-05
6.28934e-05
2.05363e-05
6.13829e-05
2.67123e-05
5.94244e-05
3.79585e-05
5.66196e-05
5.24083e-05
5.26894e-05
8.11067e-05
4.67341e-05
0.000116436
3.6788e-05
0.000196043
2.28181e-05
0.000247596
0.000374311
6.81685e-05
3.86962e-07
6.81141e-05
1.04624e-06
6.80291e-05
1.60394e-06
6.79135e-05
2.19421e-06
6.77631e-05
2.84771e-06
6.75737e-05
3.60174e-06
6.73387e-05
4.45951e-06
6.70433e-05
5.62266e-06
6.66776e-05
6.93956e-06
6.62255e-05
8.66516e-06
6.56227e-05
1.07656e-05
6.49264e-05
1.34331e-05
6.40286e-05
1.68554e-05
6.28929e-05
2.16705e-05
6.13842e-05
2.82165e-05
5.94259e-05
3.99191e-05
5.66269e-05
5.5208e-05
5.27289e-05
8.50056e-05
4.68466e-05
0.000122319
3.70842e-05
0.000205806
2.31717e-05
0.000261509
0.000397483
6.81685e-05
4.07332e-07
6.81142e-05
1.10114e-06
6.80292e-05
1.68831e-06
6.79137e-05
2.30954e-06
6.77633e-05
2.99731e-06
6.7574e-05
3.79108e-06
6.7339e-05
4.69389e-06
6.70437e-05
5.91834e-06
6.66779e-05
7.30501e-06
6.62219e-05
9.11984e-06
6.56218e-05
1.13665e-05
6.4926e-05
1.41296e-05
6.40275e-05
1.77557e-05
6.28927e-05
2.28068e-05
6.13854e-05
2.9727e-05
5.9427e-05
4.18761e-05
5.66331e-05
5.80012e-05
5.27659e-05
8.8872e-05
4.69525e-05
0.000128132
3.73737e-05
0.000215384
2.35333e-05
0.000275349
0.000421016
6.81685e-05
4.27686e-07
6.81142e-05
1.15603e-06
6.80291e-05
1.77281e-06
6.79135e-05
2.42507e-06
6.77631e-05
3.1471e-06
6.75738e-05
3.98044e-06
6.73388e-05
4.92847e-06
6.70436e-05
6.21395e-06
6.66781e-05
7.67008e-06
6.62125e-05
9.58362e-06
6.56251e-05
1.19542e-05
6.49252e-05
1.48294e-05
6.40268e-05
1.86519e-05
6.28928e-05
2.39394e-05
6.13868e-05
3.12292e-05
5.94282e-05
4.38367e-05
5.66391e-05
6.0791e-05
5.28024e-05
9.27096e-05
4.70543e-05
0.00013388
3.76587e-05
0.00022478
2.39027e-05
0.000289105
0.000444919
6.81685e-05
4.48046e-07
6.81142e-05
1.2109e-06
6.80292e-05
1.85719e-06
6.79137e-05
2.54037e-06
6.77634e-05
3.29666e-06
6.75741e-05
4.16975e-06
6.73392e-05
5.16275e-06
6.7044e-05
6.50959e-06
6.66788e-05
8.03488e-06
6.62022e-05
1.0059e-05
6.56291e-05
1.25277e-05
6.49245e-05
1.55343e-05
6.40264e-05
1.95517e-05
6.28931e-05
2.50741e-05
6.13884e-05
3.27369e-05
5.94299e-05
4.57938e-05
5.66459e-05
6.35743e-05
5.28396e-05
9.65151e-05
4.71541e-05
0.000139565
3.79415e-05
0.000233992
2.42803e-05
0.000302766
0.000469199
6.81685e-05
4.68391e-07
6.81142e-05
1.26575e-06
6.80292e-05
1.94171e-06
6.79136e-05
2.6559e-06
6.77632e-05
3.44642e-06
6.75739e-05
4.35907e-06
6.7339e-05
5.39722e-06
6.70438e-05
6.80519e-06
6.66792e-05
8.39911e-06
6.61946e-05
1.05418e-05
6.56315e-05
1.30907e-05
6.49241e-05
1.62416e-05
6.40264e-05
2.04476e-05
6.28937e-05
2.62054e-05
6.13904e-05
3.42367e-05
5.94325e-05
4.77536e-05
5.66539e-05
6.63535e-05
5.28783e-05
0.000100292
4.72534e-05
0.000145191
3.82242e-05
0.000243022
2.46667e-05
0.000316324
0.000493865
6.81685e-05
4.88742e-07
6.81142e-05
1.32057e-06
6.80292e-05
2.0261e-06
6.79138e-05
2.77118e-06
6.77634e-05
3.59593e-06
6.75742e-05
4.54833e-06
6.73395e-05
5.63138e-06
6.70442e-05
7.1008e-06
6.66798e-05
8.76322e-06
6.61906e-05
1.10299e-05
6.56325e-05
1.36489e-05
6.49239e-05
1.69505e-05
6.40265e-05
2.13465e-05
6.28946e-05
2.73387e-05
6.13928e-05
3.57413e-05
5.94364e-05
4.97087e-05
5.66638e-05
6.91254e-05
5.29191e-05
0.000104036
4.73534e-05
0.000150756
3.85093e-05
0.000251866
2.5063e-05
0.00032977
0.000518928
6.81685e-05
5.09075e-07
6.81142e-05
1.37538e-06
6.80292e-05
2.11065e-06
6.79136e-05
2.8867e-06
6.77633e-05
3.74568e-06
6.7574e-05
4.73761e-06
6.73392e-05
5.8658e-06
6.70442e-05
7.39623e-06
6.66798e-05
9.12715e-06
6.61883e-05
1.15196e-05
6.56329e-05
1.42041e-05
6.49238e-05
1.76594e-05
6.40269e-05
2.22418e-05
6.28958e-05
2.84685e-05
6.13959e-05
3.72379e-05
5.94418e-05
5.16646e-05
5.66759e-05
7.1892e-05
5.2962e-05
0.00010775
4.7455e-05
0.000156263
3.87991e-05
0.000260522
2.54706e-05
0.000343099
0.000544399
6.81685e-05
5.29416e-07
6.81142e-05
1.43016e-06
6.80293e-05
2.19505e-06
6.79138e-05
3.00195e-06
6.77635e-05
3.89514e-06
6.75744e-05
4.9268e-06
6.73397e-05
6.09992e-06
6.70447e-05
7.69151e-06
6.66787e-05
9.49284e-06
6.61879e-05
1.20095e-05
6.56331e-05
1.47591e-05
6.4924e-05
1.83688e-05
6.40275e-05
2.31398e-05
6.28973e-05
2.96e-05
6.13997e-05
3.87383e-05
5.9449e-05
5.3614e-05
5.66903e-05
7.46499e-05
5.30072e-05
0.000111433
4.75588e-05
0.000161711
3.90957e-05
0.000268985
2.58907e-05
0.000356304
0.000570289
6.81685e-05
5.49738e-07
6.81142e-05
1.48494e-06
6.80292e-05
2.27962e-06
6.79136e-05
3.11746e-06
6.77633e-05
4.04486e-06
6.75741e-05
5.116e-06
6.73394e-05
6.33436e-06
6.70449e-05
7.98641e-06
6.66733e-05
9.86397e-06
6.61907e-05
1.24906e-05
6.56333e-05
1.53163e-05
6.49242e-05
1.90777e-05
6.40282e-05
2.40343e-05
6.28992e-05
3.07278e-05
6.14043e-05
4.02299e-05
5.94579e-05
5.55622e-05
5.67071e-05
7.74013e-05
5.30546e-05
0.000115086
4.76652e-05
0.000167101
3.94014e-05
0.000277249
2.6325e-05
0.000369381
0.000596614
6.81685e-05
5.70069e-07
6.81142e-05
1.53968e-06
6.80293e-05
2.36403e-06
6.79139e-05
3.23268e-06
6.77636e-05
4.19429e-06
6.75745e-05
5.30509e-06
6.73398e-05
6.56854e-06
6.70457e-05
8.2809e-06
6.66657e-05
1.02435e-05
6.61954e-05
1.29607e-05
6.56336e-05
1.58782e-05
6.49246e-05
1.97869e-05
6.40292e-05
2.49312e-05
6.29014e-05
3.18568e-05
6.14096e-05
4.17245e-05
5.94685e-05
5.7502e-05
5.67265e-05
8.01425e-05
5.31043e-05
0.000118708
4.77743e-05
0.000172431
3.97177e-05
0.000285305
2.67751e-05
0.000382323
0.000623389
6.81685e-05
5.9038e-07
6.81142e-05
1.59442e-06
6.80292e-05
2.44862e-06
6.79137e-05
3.34817e-06
6.77634e-05
4.344e-06
6.75743e-05
5.49418e-06
6.73395e-05
6.80306e-06
6.70458e-05
8.57492e-06
6.66594e-05
1.06295e-05
6.61989e-05
1.34203e-05
6.5634e-05
1.64431e-05
6.49251e-05
2.04956e-05
6.40302e-05
2.58246e-05
6.29041e-05
3.29817e-05
6.14158e-05
4.32095e-05
5.94808e-05
5.9439e-05
5.67484e-05
8.28755e-05
5.31562e-05
0.000122301
4.78862e-05
0.000177701
4.00462e-05
0.000293145
2.72422e-05
0.000395127
0.000650632
6.81685e-05
6.10701e-07
6.81142e-05
1.64913e-06
6.80293e-05
2.53304e-06
6.79139e-05
3.46337e-06
6.77637e-05
4.49338e-06
6.75747e-05
5.68317e-06
6.734e-05
7.03729e-06
6.70466e-05
8.86864e-06
6.66556e-05
1.10201e-05
6.62013e-05
1.38746e-05
6.56344e-05
1.701e-05
6.49257e-05
2.12045e-05
6.40315e-05
2.67202e-05
6.29071e-05
3.41075e-05
6.14227e-05
4.46966e-05
5.94946e-05
6.13658e-05
5.67728e-05
8.55965e-05
5.32104e-05
0.000125862
4.80007e-05
0.00018291
4.03876e-05
0.000300758
2.77278e-05
0.000407787
0.000678359
6.81685e-05
6.31001e-07
6.81142e-05
1.70383e-06
6.80292e-05
2.61765e-06
6.79137e-05
3.57884e-06
6.77635e-05
4.64306e-06
6.75745e-05
5.87217e-06
6.73397e-05
7.2718e-06
6.70466e-05
9.16209e-06
6.6653e-05
1.14132e-05
6.62029e-05
1.4324e-05
6.56349e-05
1.75779e-05
6.49264e-05
2.19129e-05
6.40329e-05
2.76123e-05
6.29104e-05
3.52287e-05
6.14304e-05
4.61733e-05
5.95098e-05
6.32883e-05
5.67996e-05
8.83073e-05
5.32671e-05
0.000129396
4.81177e-05
0.00018806
4.07424e-05
0.000308133
2.82326e-05
0.000420297
0.000706592
6.81685e-05
6.51312e-07
6.81143e-05
1.75849e-06
6.80293e-05
2.70208e-06
6.7914e-05
3.694e-06
6.77638e-05
4.79239e-06
6.75749e-05
6.06107e-06
6.73403e-05
7.50592e-06
6.70472e-05
9.45548e-06
6.66519e-05
1.18082e-05
6.62044e-05
1.47715e-05
6.56355e-05
1.81469e-05
6.49271e-05
2.26215e-05
6.40345e-05
2.85062e-05
6.29141e-05
3.63505e-05
6.14386e-05
4.76515e-05
5.95264e-05
6.51992e-05
5.6829e-05
9.10039e-05
5.33262e-05
0.000132898
4.82371e-05
0.000193149
4.11104e-05
0.00031526
2.87573e-05
0.00043265
0.000735349
6.81685e-05
6.71602e-07
6.81142e-05
1.81316e-06
6.80293e-05
2.7867e-06
6.79138e-05
3.80946e-06
6.77636e-05
4.94204e-06
6.75746e-05
6.25001e-06
6.734e-05
7.74028e-06
6.7047e-05
9.74886e-06
6.66511e-05
1.22037e-05
6.62056e-05
1.52166e-05
6.56362e-05
1.87163e-05
6.49279e-05
2.33296e-05
6.40362e-05
2.93966e-05
6.2918e-05
3.74673e-05
6.14475e-05
4.91188e-05
5.95442e-05
6.71044e-05
5.68609e-05
9.36879e-05
5.3388e-05
0.000136371
4.83589e-05
0.000198178
4.14916e-05
0.000322127
2.93023e-05
0.00044484
0.000764651
6.81685e-05
6.91902e-07
6.81143e-05
1.86779e-06
6.80294e-05
2.87114e-06
6.7914e-05
3.92458e-06
6.77639e-05
5.09131e-06
6.75751e-05
6.43886e-06
6.73407e-05
7.97415e-06
6.70474e-05
1.00424e-05
6.6651e-05
1.25997e-05
6.62069e-05
1.56607e-05
6.56369e-05
1.92863e-05
6.49288e-05
2.40378e-05
6.40381e-05
3.02887e-05
6.29223e-05
3.85845e-05
6.14569e-05
5.05869e-05
5.95633e-05
6.89965e-05
5.68953e-05
9.63552e-05
5.34525e-05
0.000139813
4.84831e-05
0.000203147
4.18853e-05
0.000328725
2.98678e-05
0.000456857
0.000794519
6.81685e-05
7.12183e-07
6.81142e-05
1.92242e-06
6.80293e-05
2.95577e-06
6.79138e-05
4.04003e-06
6.77637e-05
5.24091e-06
6.75747e-05
6.62778e-06
6.73405e-05
8.20818e-06
6.70471e-05
1.03362e-05
6.66508e-05
1.29956e-05
6.62081e-05
1.61031e-05
6.56376e-05
1.98567e-05
6.49298e-05
2.47456e-05
6.404e-05
3.11772e-05
6.29268e-05
3.96962e-05
6.14668e-05
5.20438e-05
5.95835e-05
7.08818e-05
5.69322e-05
9.90071e-05
5.35201e-05
0.000143226
4.861e-05
0.000208058
4.22912e-05
0.000335044
3.04537e-05
0.000468695
0.000824973
6.81685e-05
7.32475e-07
6.81143e-05
1.97701e-06
6.80294e-05
3.0402e-06
6.79141e-05
4.15512e-06
6.77641e-05
5.39009e-06
6.75752e-05
6.81662e-06
6.73413e-05
8.44162e-06
6.70471e-05
1.06307e-05
6.66512e-05
1.33913e-05
6.62092e-05
1.6545e-05
6.56384e-05
2.04275e-05
6.49308e-05
2.54533e-05
6.40421e-05
3.20672e-05
6.29315e-05
4.08082e-05
6.14771e-05
5.35009e-05
5.96049e-05
7.27526e-05
5.69715e-05
0.00010164
5.35908e-05
0.000146606
4.87399e-05
0.000212909
4.27094e-05
0.000341074
3.10604e-05
0.000480344
0.000856033
6.81685e-05
7.52747e-07
6.81143e-05
2.03162e-06
6.80293e-05
3.12484e-06
6.79139e-05
4.27055e-06
6.77638e-05
5.53962e-06
6.75749e-05
7.00555e-06
6.73412e-05
8.6751e-06
6.70433e-05
1.0929e-05
6.66534e-05
1.3781e-05
6.62103e-05
1.69879e-05
6.56393e-05
2.09985e-05
6.49319e-05
2.61606e-05
6.40443e-05
3.29535e-05
6.29365e-05
4.19145e-05
6.14879e-05
5.49463e-05
5.96273e-05
7.46152e-05
5.70133e-05
0.000104254
5.3665e-05
0.000149955
4.88735e-05
0.0002177
4.31399e-05
0.000346808
3.16881e-05
0.000491796
0.000887721
6.81685e-05
7.7303e-07
6.81143e-05
2.08617e-06
6.80295e-05
3.20926e-06
6.79142e-05
4.3856e-06
6.77642e-05
5.68869e-06
6.75753e-05
7.19444e-06
6.73421e-05
8.90779e-06
6.70324e-05
1.1239e-05
6.66621e-05
1.41511e-05
6.62114e-05
1.74387e-05
6.56401e-05
2.15698e-05
6.4933e-05
2.68679e-05
6.40465e-05
3.38414e-05
6.29416e-05
4.30209e-05
6.14991e-05
5.63916e-05
5.96508e-05
7.64621e-05
5.70574e-05
0.000106847
5.37427e-05
0.000153269
4.90109e-05
0.000222432
4.35831e-05
0.000352235
3.23374e-05
0.000503041
0.000920058
6.81685e-05
7.93293e-07
6.81143e-05
2.14074e-06
6.80294e-05
3.2939e-06
6.79139e-05
4.50102e-06
6.7764e-05
5.83814e-06
6.7575e-05
7.38341e-06
6.7342e-05
9.14063e-06
6.70253e-05
1.1556e-05
6.66677e-05
1.45087e-05
6.62123e-05
1.7894e-05
6.5641e-05
2.21411e-05
6.49342e-05
2.75746e-05
6.40488e-05
3.47254e-05
6.29469e-05
4.41214e-05
6.15107e-05
5.78245e-05
5.96752e-05
7.82996e-05
5.71038e-05
0.000109419
5.38244e-05
0.00015655
4.91527e-05
0.000227104
4.40395e-05
0.000357349
3.30091e-05
0.000514072
0.000953067
6.81685e-05
8.13568e-07
6.81143e-05
2.19525e-06
6.80295e-05
3.37831e-06
6.79142e-05
4.61603e-06
6.77644e-05
5.98712e-06
6.75755e-05
7.57222e-06
6.73426e-05
9.37309e-06
6.70234e-05
1.18754e-05
6.66695e-05
1.48626e-05
6.62132e-05
1.83503e-05
6.56419e-05
2.27126e-05
6.49353e-05
2.82812e-05
6.40512e-05
3.56109e-05
6.29524e-05
4.52219e-05
6.15226e-05
5.92572e-05
5.97005e-05
8.01202e-05
5.71523e-05
0.000111966
5.39102e-05
0.000159791
4.92988e-05
0.000231715
4.4509e-05
0.000362138
3.37034e-05
0.000524877
0.000986771
6.81685e-05
8.33827e-07
6.81143e-05
2.24979e-06
6.80294e-05
3.46294e-06
6.7914e-05
4.73139e-06
6.77641e-05
6.13654e-06
6.75754e-05
7.7609e-06
6.73406e-05
9.60775e-06
6.70228e-05
1.21934e-05
6.66701e-05
1.52154e-05
6.6214e-05
1.88062e-05
6.56427e-05
2.32838e-05
6.49365e-05
2.89873e-05
6.40536e-05
3.64922e-05
6.2958e-05
4.63157e-05
6.15349e-05
6.06762e-05
5.97266e-05
8.19307e-05
5.72028e-05
0.000114491
5.40007e-05
0.000162994
4.94491e-05
0.000236267
4.49902e-05
0.000366597
3.44198e-05
0.000535448
0.00102119
6.81685e-05
8.54094e-07
6.81143e-05
2.30427e-06
6.80295e-05
3.54738e-06
6.79143e-05
4.84634e-06
6.77643e-05
6.28577e-06
6.75766e-05
7.94851e-06
6.73287e-05
9.85526e-06
6.70271e-05
1.2495e-05
6.66703e-05
1.55721e-05
6.62147e-05
1.92619e-05
6.56436e-05
2.3855e-05
6.49377e-05
2.96933e-05
6.40561e-05
3.73754e-05
6.29637e-05
4.741e-05
6.15476e-05
6.20957e-05
5.97535e-05
8.3723e-05
5.72551e-05
0.000116988
5.4096e-05
0.000166152
4.96031e-05
0.000240759
4.54787e-05
0.000370721
3.51553e-05
0.000545771
0.00105635
6.81685e-05
8.74341e-07
6.81143e-05
2.35875e-06
6.80294e-05
3.63204e-06
6.79141e-05
4.96159e-06
6.77639e-05
6.43558e-06
6.7577e-05
8.13539e-06
6.73197e-05
1.01124e-05
6.703e-05
1.27847e-05
6.66705e-05
1.59316e-05
6.62153e-05
1.9717e-05
6.56444e-05
2.44259e-05
6.49389e-05
3.03986e-05
6.40585e-05
3.82541e-05
6.29695e-05
4.84971e-05
6.15605e-05
6.35006e-05
5.97811e-05
8.55046e-05
5.73089e-05
0.000119461
5.41966e-05
0.000169266
4.97605e-05
0.000245196
4.59649e-05
0.000374517
3.59021e-05
0.000555834
0.00109225
6.81684e-05
8.94556e-07
6.81143e-05
2.41318e-06
6.80295e-05
3.71642e-06
6.79145e-05
5.07637e-06
6.77643e-05
6.58485e-06
6.75778e-05
8.32186e-06
6.73175e-05
1.03722e-05
6.70304e-05
1.30718e-05
6.66705e-05
1.62915e-05
6.62157e-05
2.01719e-05
6.56451e-05
2.49965e-05
6.49401e-05
3.11038e-05
6.4061e-05
3.91348e-05
6.29753e-05
4.95845e-05
6.15736e-05
6.49057e-05
5.98092e-05
8.72672e-05
5.73638e-05
0.000121906
5.43036e-05
0.000172325
4.99206e-05
0.000249579
4.64459e-05
0.000377992
3.67396e-05
0.00056554
0.00112899
-4.95443e-07
4.95506e-07
-2.94572e-06
2.4503e-06
-3.92808e-06
9.82378e-07
-3.68715e-06
-2.40896e-07
-2.86227e-06
-8.24606e-07
-2.10781e-06
-7.54429e-07
-1.71633e-06
-3.91424e-07
-1.62111e-06
-9.54611e-08
-1.64159e-06
1.96883e-08
-1.77596e-06
1.32743e-07
-2.01024e-06
2.1513e-07
-2.0203e-06
2.08185e-08
-1.58427e-06
-4.37123e-07
-6.26717e-07
-9.50755e-07
6.97509e-07
-1.31691e-06
2.25564e-06
-1.55496e-06
4.16311e-06
-1.91054e-06
6.66522e-06
-2.5041e-06
9.76071e-06
-3.10388e-06
1.32396e-05
-3.47314e-06
1.68584e-05
-3.6157e-06
2.03977e-05
-3.54147e-06
2.3773e-05
-3.37471e-06
2.69876e-05
-3.21505e-06
3.00581e-05
-3.0704e-06
3.29979e-05
-2.93915e-06
3.58223e-05
-2.82332e-06
3.86583e-05
-2.83687e-06
4.14651e-05
-2.80934e-06
4.34445e-05
-1.97933e-06
4.67392e-05
-3.29303e-06
5.70481e-05
-1.03109e-05
6.63989e-05
-9.35139e-06
6.77652e-05
-1.3656e-06
6.3068e-08
-4.4658e-07
9.42209e-07
-2.90062e-06
4.90437e-06
-3.87373e-06
1.95553e-06
-3.64343e-06
-4.71131e-07
-2.82054e-06
-1.64699e-06
-2.07869e-06
-1.49622e-06
-1.68553e-06
-7.84515e-07
-1.5833e-06
-1.98184e-07
-1.58284e-06
1.76626e-08
-1.70467e-06
2.51208e-07
-1.95092e-06
4.29468e-07
-2.00502e-06
9.08701e-08
-1.64844e-06
-7.95759e-07
-7.28679e-07
-1.85686e-06
6.51756e-07
-2.68259e-06
2.30106e-06
-3.19769e-06
4.24103e-06
-3.8567e-06
6.69935e-06
-4.96653e-06
9.71932e-06
-6.14018e-06
1.31568e-05
-6.89956e-06
1.67759e-05
-7.22863e-06
2.03465e-05
-7.11609e-06
2.37449e-05
-6.77205e-06
2.69659e-05
-6.43681e-06
3.00348e-05
-6.13919e-06
3.29707e-05
-5.87372e-06
3.57889e-05
-5.63958e-06
3.86153e-05
-5.66488e-06
4.14298e-05
-5.62853e-06
4.34494e-05
-3.99884e-06
4.65292e-05
-6.36978e-06
5.66768e-05
-2.04623e-05
6.62655e-05
-1.89412e-05
6.77682e-05
-2.86703e-06
1.22388e-07
-3.92151e-07
1.33447e-06
-2.84854e-06
7.36078e-06
-3.80999e-06
2.91702e-06
-3.57277e-06
-7.08291e-07
-2.75427e-06
-2.46501e-06
-2.02132e-06
-2.22911e-06
-1.62886e-06
-1.17688e-06
-1.51474e-06
-3.12712e-07
-1.49725e-06
-1.17897e-09
-1.62037e-06
3.71533e-07
-1.89395e-06
6.70091e-07
-2.00928e-06
2.23916e-07
-1.72519e-06
-1.08195e-06
-8.09697e-07
-2.75873e-06
6.50874e-07
-4.12823e-06
2.38788e-06
-4.92784e-06
4.34451e-06
-5.82e-06
6.74371e-06
-7.37e-06
9.68725e-06
-9.10089e-06
1.30938e-05
-1.02948e-05
1.67305e-05
-1.08593e-05
2.03333e-05
-1.07231e-05
2.37544e-05
-1.01921e-05
2.69818e-05
-9.66503e-06
3.00474e-05
-9.20458e-06
3.29776e-05
-8.80258e-06
3.57875e-05
-8.44754e-06
3.86023e-05
-8.48127e-06
4.14186e-05
-8.44956e-06
4.34761e-05
-6.05626e-06
4.63688e-05
-9.25935e-06
5.63549e-05
-3.04521e-05
6.61398e-05
-2.87272e-05
6.77704e-05
-4.49646e-06
1.7752e-07
-3.29361e-07
1.66396e-06
-2.78968e-06
9.82113e-06
-3.73164e-06
3.85902e-06
-3.47752e-06
-9.62338e-07
-2.66088e-06
-3.28117e-06
-1.94001e-06
-2.94993e-06
-1.55134e-06
-1.56549e-06
-1.428e-06
-4.36538e-07
-1.39773e-06
-3.29939e-08
-1.52537e-06
4.95795e-07
-1.82775e-06
9.42511e-07
-2.00596e-06
4.15216e-07
-1.79035e-06
-1.29981e-06
-8.70928e-07
-3.66189e-06
6.77008e-07
-5.65823e-06
2.50728e-06
-6.74928e-06
4.48061e-06
-7.80187e-06
6.81491e-06
-9.70996e-06
9.67888e-06
-1.19854e-05
1.30592e-05
-1.36619e-05
1.672e-05
-1.45133e-05
2.03595e-05
-1.43671e-05
2.38048e-05
-1.36363e-05
2.70385e-05
-1.28997e-05
3.00994e-05
-1.22652e-05
3.30213e-05
-1.1723e-05
3.58199e-05
-1.1244e-05
3.86198e-05
-1.1283e-05
4.14333e-05
-1.1268e-05
4.35262e-05
-8.14912e-06
4.62582e-05
-1.19882e-05
5.60804e-05
-4.02782e-05
6.60211e-05
-3.8669e-05
6.77718e-05
-6.24594e-06
2.27873e-07
-2.58116e-07
1.92218e-06
-2.72365e-06
1.22867e-05
-3.63731e-06
4.77273e-06
-3.35741e-06
-1.24217e-06
-2.54133e-06
-4.0968e-06
-1.83636e-06
-3.65485e-06
-1.45497e-06
-1.9468e-06
-1.32454e-06
-5.67342e-07
-1.28483e-06
-7.39562e-08
-1.41793e-06
6.26351e-07
-1.7487e-06
1.24458e-06
-1.99135e-06
6.71426e-07
-1.84066e-06
-1.45275e-06
-9.08721e-07
-4.57806e-06
7.36366e-07
-7.28595e-06
2.67056e-06
-8.67439e-06
4.66504e-06
-9.80591e-06
6.92714e-06
-1.19782e-05
9.70359e-06
-1.47851e-05
1.30591e-05
-1.7003e-05
1.67502e-05
-1.81974e-05
2.04315e-05
-1.80535e-05
2.39037e-05
-1.71074e-05
2.71436e-05
-1.61405e-05
3.01974e-05
-1.53189e-05
3.31075e-05
-1.46315e-05
3.58905e-05
-1.40249e-05
3.86714e-05
-1.40656e-05
4.14766e-05
-1.40783e-05
4.3602e-05
-1.02744e-05
4.61962e-05
-1.45791e-05
5.585e-05
-4.99357e-05
6.59084e-05
-4.87285e-05
6.77723e-05
-8.1087e-06
2.72888e-07
-1.78376e-07
2.10068e-06
-2.64986e-06
1.47582e-05
-3.52522e-06
5.64813e-06
-3.21146e-06
-1.55584e-06
-2.39569e-06
-4.91211e-06
-1.711e-06
-4.33949e-06
-1.34045e-06
-2.31732e-06
-1.20451e-06
-7.03792e-07
-1.15781e-06
-1.22219e-07
-1.29602e-06
7.61051e-07
-1.65359e-06
1.57521e-06
-1.96116e-06
9.8797e-07
-1.87166e-06
-1.54465e-06
-9.1941e-07
-5.51116e-06
8.33339e-07
-9.01758e-06
2.88703e-06
-1.07164e-05
4.91419e-06
-1.18456e-05
7.09901e-06
-1.41718e-05
9.77647e-06
-1.7492e-05
1.31051e-05
-2.03139e-05
1.68312e-05
-2.19149e-05
2.0561e-05
-2.17893e-05
2.4064e-05
-2.0609e-05
2.73098e-05
-1.93874e-05
3.03528e-05
-1.83617e-05
3.32453e-05
-1.75221e-05
3.60067e-05
-1.67839e-05
3.87625e-05
-1.68236e-05
4.1553e-05
-1.68744e-05
4.37072e-05
-1.24286e-05
4.61822e-05
-1.70505e-05
5.56602e-05
-5.94179e-05
6.58013e-05
-5.88707e-05
6.7772e-05
-1.00781e-05
3.12021e-07
-9.02277e-08
2.19101e-06
-2.56748e-06
1.72355e-05
-3.39287e-06
6.47357e-06
-3.03751e-06
-1.91112e-06
-2.22293e-06
-5.72626e-06
-1.56328e-06
-4.99909e-06
-1.20716e-06
-2.67335e-06
-1.06677e-06
-8.44565e-07
-1.01459e-06
-1.75596e-07
-1.1567e-06
9.0056e-07
-1.5387e-06
1.93246e-06
-1.91061e-06
1.36896e-06
-1.87928e-06
-1.57841e-06
-9.00869e-07
-6.47124e-06
9.70269e-07
-1.08689e-05
3.16421e-06
-1.28985e-05
5.24493e-06
-1.39397e-05
7.3535e-06
-1.62901e-05
9.91887e-06
-2.00911e-05
1.32143e-05
-2.35894e-05
1.69794e-05
-2.56713e-05
2.07662e-05
-2.55829e-05
2.43064e-05
-2.41477e-05
2.75579e-05
-2.26403e-05
3.0584e-05
-2.13875e-05
3.34495e-05
-2.03855e-05
3.61794e-05
-1.95111e-05
3.89017e-05
-1.95482e-05
4.16688e-05
-1.96475e-05
4.38471e-05
-1.46067e-05
4.62169e-05
-1.94165e-05
5.55089e-05
-6.87141e-05
6.56992e-05
-6.90622e-05
6.77708e-05
-1.21485e-05
3.44779e-07
6.049e-09
2.18509e-06
-2.47535e-06
1.97169e-05
-3.23715e-06
7.23543e-06
-2.83257e-06
-2.3156e-06
-2.02143e-06
-6.53695e-06
-1.39168e-06
-5.62877e-06
-1.05348e-06
-3.01155e-06
-9.09206e-07
-9.89404e-07
-8.52054e-07
-2.34411e-07
-9.95957e-07
1.04057e-06
-1.39923e-06
2.31103e-06
-1.83433e-06
1.80894e-06
-1.85937e-06
-1.55596e-06
-8.50473e-07
-7.45701e-06
1.15108e-06
-1.28453e-05
3.5118e-06
-1.5244e-05
5.67736e-06
-1.61232e-05
7.71928e-06
-1.83457e-05
1.01593e-05
-2.25748e-05
1.34114e-05
-2.68165e-05
1.72183e-05
-2.94668e-05
2.10739e-05
-2.94468e-05
2.46613e-05