/*--------------------------------*- C++ -*----------------------------------*\
| =========                 |                                                 |
| \\      /  F ield         | OpenFOAM: The Open Source CFD Toolbox           |
|  \\    /   O peration     | Version:  v1912                                 |
|   \\  /    A nd           | Website:  www.openfoam.com                      |
|    \\/     M anipulation  |                                                 |
\*---------------------------------------------------------------------------*/
FoamFile
{
    version     2.0;
    format      ascii;
    class       volVectorField;
    location    "460";
    object      U;
}
// * * * * * * * * * * * * * * * * * * * * * * * * * * * * * * * * * * * * * //

dimensions      [0 1 -1 0 0 0 0];


internalField   nonuniform List<vector> 
12441
(
(29.9988 1.70896e-05 0)
(29.9854 5.18783e-05 0)
(29.9561 8.99951e-05 0)
(29.9115 0.00013833 0)
(29.8532 0.000201757 0)
(29.7789 0.000286546 0)
(29.6869 0.000398257 0)
(29.5714 0.000563999 0)
(29.4279 0.000783729 0)
(29.2503 0.00110118 0)
(29.025 0.00151127 0)
(28.7524 0.00212938 0)
(28.4344 0.00301189 0)
(27.962 0.00440706 0)
(27.4135 0.00612594 0)
(26.6255 0.0113334 0)
(25.5917 0.0150884 0)
(23.9265 0.0314996 0)
(21.5769 0.0528599 0)
(17.8885 0.0912899 0)
(12.1064 0.122147 0)
(5.8078 0.196488 0)
(29.9988 5.07928e-05 0)
(29.9853 0.000154949 0)
(29.956 0.000268254 0)
(29.9115 0.000412571 0)
(29.8533 0.000602185 0)
(29.7788 0.000855184 0)
(29.6869 0.00119075 0)
(29.5714 0.00168694 0)
(29.4279 0.00234256 0)
(29.2507 0.0032994 0)
(29.025 0.00452597 0)
(28.7515 0.00635977 0)
(28.4369 0.00904889 0)
(27.9665 0.0131368 0)
(27.4152 0.0185229 0)
(26.6262 0.033766 0)
(25.5943 0.0478822 0)
(23.9257 0.0903683 0)
(21.5775 0.138074 0)
(17.8875 0.264139 0)
(12.1077 0.358896 0)
(5.81159 0.586834 0)
(29.9988 8.43613e-05 0)
(29.9853 0.000258013 0)
(29.956 0.000445816 0)
(29.9115 0.000685649 0)
(29.8533 0.00100113 0)
(29.7788 0.00142318 0)
(29.6869 0.00198124 0)
(29.5714 0.00280834 0)
(29.4279 0.00389886 0)
(29.2508 0.0054929 0)
(29.0248 0.00753123 0)
(28.7517 0.0106032 0)
(28.4374 0.0150925 0)
(27.9605 0.0218091 0)
(27.4132 0.0310043 0)
(26.6264 0.0552447 0)
(25.5961 0.081468 0)
(23.9301 0.147408 0)
(21.5809 0.220742 0)
(17.8874 0.43467 0)
(12.114 0.592168 0)
(5.8199 0.975245 0)
(29.9988 0.000118359 0)
(29.9853 0.000361808 0)
(29.956 0.000624235 0)
(29.9115 0.000960017 0)
(29.8533 0.00140182 0)
(29.7789 0.00199306 0)
(29.687 0.00277444 0)
(29.5714 0.00393296 0)
(29.428 0.00545897 0)
(29.2508 0.00769365 0)
(29.0251 0.0105441 0)
(28.7515 0.0148533 0)
(28.4371 0.0211464 0)
(27.9674 0.0305197 0)
(27.4158 0.0435086 0)
(26.6276 0.0767936 0)
(25.598 0.114298 0)
(23.9348 0.207435 0)
(21.5897 0.32813 0)
(17.892 0.613231 0)
(12.1265 0.829403 0)
(5.83292 1.36532 0)
(29.9988 0.000152418 0)
(29.9853 0.000465475 0)
(29.956 0.000802458 0)
(29.9115 0.00123416 0)
(29.8533 0.00180214 0)
(29.7789 0.00256237 0)
(29.6869 0.00356697 0)
(29.5714 0.00505675 0)
(29.428 0.00701814 0)
(29.2508 0.0098928 0)
(29.0249 0.013555 0)
(28.7521 0.0191003 0)
(28.4379 0.0271962 0)
(27.9609 0.039213 0)
(27.4146 0.0560003 0)
(26.6283 0.09812 0)
(25.6005 0.146633 0)
(23.9391 0.268212 0)
(21.6005 0.418345 0)
(17.9023 0.787979 0)
(12.1466 1.06642 0)
(5.85096 1.75667 0)
(29.9988 0.000186475 0)
(29.9853 0.000569067 0)
(29.956 0.000980655 0)
(29.9115 0.00150831 0)
(29.8533 0.00220245 0)
(29.7789 0.00313172 0)
(29.687 0.00435961 0)
(29.5715 0.00618064 0)
(29.4281 0.0085774 0)
(29.2509 0.012092 0)
(29.0253 0.0165684 0)
(28.7516 0.0233461 0)
(28.4369 0.0332441 0)
(27.969 0.0479255 0)
(27.4173 0.0685246 0)
(26.6297 0.119351 0)
(25.603 0.178706 0)
(23.9435 0.328465 0)
(21.6132 0.507006 0)
(17.9193 0.961408 0)
(12.1762 1.30314 0)
(5.87442 2.14913 0)
(29.9988 0.000220527 0)
(29.9853 0.000672617 0)
(29.956 0.00115885 0)
(29.9115 0.00178248 0)
(29.8533 0.00260272 0)
(29.7789 0.00370103 0)
(29.687 0.00515221 0)
(29.5715 0.00730444 0)
(29.4281 0.0101368 0)
(29.2509 0.0142911 0)
(29.0252 0.01958 0)
(28.7526 0.0275931 0)
(28.4381 0.0392949 0)
(27.9612 0.0565882 0)
(27.4168 0.0810053 0)
(26.631 0.140438 0)
(25.606 0.210056 0)
(23.9476 0.386175 0)
(21.6304 0.597805 0)
(17.9463 1.13493 0)
(12.2177 1.53995 0)
(5.90381 2.54301 0)
(29.9988 0.000254579 0)
(29.9853 0.000776132 0)
(29.9561 0.00133702 0)
(29.9115 0.00205663 0)
(29.8534 0.00300293 0)
(29.779 0.00427028 0)
(29.6871 0.00594477 0)
(29.5716 0.00842815 0)
(29.4282 0.0116959 0)
(29.251 0.0164894 0)
(29.0257 0.0225945 0)
(28.7516 0.0318374 0)
(28.4363 0.0453399 0)
(27.9708 0.0652629 0)
(27.4203 0.093363 0)
(26.6326 0.16117 0)
(25.6107 0.242982 0)
(23.9537 0.445825 0)
(21.6613 0.689669 0)
(17.9904 1.30794 0)
(12.2744 1.77707 0)
(5.93972 2.93878 0)
(29.9988 0.000288629 0)
(29.9853 0.00087961 0)
(29.9561 0.00151517 0)
(29.9115 0.00233078 0)
(29.8533 0.0034031 0)
(29.7789 0.0048395 0)
(29.687 0.00673731 0)
(29.5716 0.00955178 0)
(29.4282 0.0132552 0)
(29.251 0.0186878 0)
(29.0256 0.0256061 0)
(28.7534 0.0360859 0)
(28.439 0.0513852 0)
(27.9614 0.0740035 0)
(27.4186 0.105806 0)
(26.6322 0.18216 0)
(25.6175 0.274351 0)
(23.9652 0.504877 0)
(21.7181 0.781214 0)
(18.0597 1.48014 0)
(12.3498 2.0148 0)
(5.98282 3.33696 0)
(29.9988 0.000322678 0)
(29.9853 0.000983051 0)
(29.9561 0.00169332 0)
(29.9116 0.00260491 0)
(29.8534 0.00380321 0)
(29.779 0.00540866 0)
(29.6872 0.00752979 0)
(29.5717 0.0106753 0)
(29.4283 0.0148143 0)
(29.2512 0.0208851 0)
(29.0261 0.0286198 0)
(28.7516 0.0403317 0)
(28.4345 0.0574347 0)
(27.9704 0.0825904 0)
(27.4217 0.118943 0)
(26.6328 0.203435 0)
(25.6308 0.306269 0)
(23.9929 0.561989 0)
(21.8034 0.872493 0)
(18.1571 1.65185 0)
(12.4466 2.25357 0)
(6.0338 3.73814 0)
(29.9988 0.000356724 0)
(29.9853 0.00108646 0)
(29.9561 0.00187145 0)
(29.9115 0.00287904 0)
(29.8534 0.00420327 0)
(29.779 0.00597777 0)
(29.6871 0.00832222 0)
(29.5716 0.0117988 0)
(29.4283 0.0163732 0)
(29.2512 0.0230819 0)
(29.0261 0.0316348 0)
(28.7535 0.0445783 0)
(28.4399 0.0634995 0)
(27.9703 0.0911806 0)
(27.4213 0.131438 0)
(26.6329 0.223653 0)
(25.6488 0.339068 0)
(24.0373 0.618264 0)
(21.901 0.963598 0)
(18.2759 1.82306 0)
(12.5652 2.49373 0)
(6.09331 4.14297 0)
(29.9988 0.000390768 0)
(29.9853 0.00118983 0)
(29.9561 0.00204958 0)
(29.9116 0.00315315 0)
(29.8534 0.00460328 0)
(29.7791 0.00654681 0)
(29.6872 0.0091146 0)
(29.5718 0.0129221 0)
(29.4284 0.0179323 0)
(29.2513 0.0252765 0)
(29.0269 0.0346541 0)
(28.7513 0.0488138 0)
(28.4333 0.0694513 0)
(27.9782 0.100105 0)
(27.4201 0.145035 0)
(26.635 0.244098 0)
(25.6665 0.371463 0)
(24.085 0.672711 0)
(21.9916 1.0537 0)
(18.4039 1.99323 0)
(12.7037 2.73543 0)
(6.16189 4.5521 0)
(29.9988 0.000424808 0)
(29.9853 0.00129316 0)
(29.9561 0.00222771 0)
(29.9116 0.00342726 0)
(29.8534 0.00500325 0)
(29.779 0.0071158 0)
(29.6872 0.00990693 0)
(29.5717 0.0140455 0)
(29.4284 0.019491 0)
(29.2514 0.0274686 0)
(29.0274 0.0376812 0)
(28.7512 0.0531397 0)
(28.4337 0.0752908 0)
(27.9767 0.109235 0)
(27.4173 0.15883 0)
(26.6381 0.264023 0)
(25.6801 0.403211 0)
(24.1247 0.725167 0)
(22.0666 1.1424 0)
(18.5302 2.16169 0)
(12.8584 2.97854 0)
(6.23981 4.96614 0)
(29.9988 0.000458843 0)
(29.9853 0.00139646 0)
(29.9561 0.00240585 0)
(29.9116 0.00370135 0)
(29.8535 0.00540316 0)
(29.7791 0.00768472 0)
(29.6873 0.0106992 0)
(29.5719 0.0151688 0)
(29.4286 0.0210499 0)
(29.2515 0.0296582 0)
(29.0284 0.0407327 0)
(28.7494 0.0575022 0)
(28.4246 0.0815083 0)
(27.9731 0.118424 0)
(27.4154 0.172161 0)
(26.641 0.283272 0)
(25.6893 0.43437 0)
(24.154 0.776059 0)
(22.1262 1.22969 0)
(18.6482 2.32803 0)
(13.0251 3.22273 0)
(6.32707 5.3856 0)
(29.9988 0.000492874 0)
(29.9853 0.00149972 0)
(29.9561 0.00258399 0)
(29.9116 0.00397544 0)
(29.8534 0.00580304 0)
(29.7791 0.00825358 0)
(29.6872 0.0114914 0)
(29.5718 0.0162921 0)
(29.4285 0.022609 0)
(29.2515 0.0318407 0)
(29.0291 0.0438158 0)
(28.7504 0.0617835 0)
(28.4202 0.0876754 0)
(27.9693 0.127329 0)
(27.4144 0.185264 0)
(26.6434 0.30231 0)
(25.6951 0.465239 0)
(24.1747 0.825913 0)
(22.1737 1.31569 0)
(18.7553 2.49194 0)
(13.1995 3.46758 0)
(6.42343 5.81092 0)
(29.9988 0.000526899 0)
(29.9853 0.00160295 0)
(29.9561 0.00276215 0)
(29.9116 0.00424951 0)
(29.8535 0.00620287 0)
(29.7792 0.00882237 0)
(29.6874 0.0122835 0)
(29.572 0.0174154 0)
(29.4287 0.0241674 0)
(29.2516 0.0340229 0)
(29.0302 0.046902 0)
(28.7524 0.0661994 0)
(28.4149 0.0938722 0)
(27.9669 0.136066 0)
(27.4139 0.198271 0)
(26.6453 0.32128 0)
(25.6986 0.495955 0)
(24.1893 0.875067 0)
(22.2126 1.4005 0)
(18.8514 2.65326 0)
(13.3784 3.71267 0)
(6.52845 6.24244 0)
(29.9988 0.000560917 0)
(29.9853 0.00170614 0)
(29.9561 0.00294031 0)
(29.9116 0.00452358 0)
(29.8534 0.00660266 0)
(29.7791 0.00939111 0)
(29.6873 0.0130754 0)
(29.572 0.0185387 0)
(29.4286 0.0257269 0)
(29.2515 0.0361947 0)
(29.0314 0.050049 0)
(28.7535 0.0706632 0)
(28.4115 0.0999872 0)
(27.9654 0.14476 0)
(27.4138 0.211248 0)
(26.6467 0.340248 0)
(25.7004 0.526577 0)
(24.1998 0.923719 0)
(22.2457 1.48421 0)
(18.9375 2.81188 0)
(13.5593 3.95758 0)
(6.64159 6.68043 0)
(29.9988 0.000594929 0)
(29.9853 0.00180929 0)
(29.9561 0.00311849 0)
(29.9116 0.00479762 0)
(29.8535 0.00700242 0)
(29.7792 0.00995975 0)
(29.6874 0.0138673 0)
(29.5722 0.0196618 0)
(29.4288 0.0272871 0)
(29.2516 0.0383553 0)
(29.0327 0.0532165 0)
(28.7528 0.0751712 0)
(28.409 0.106073 0)
(27.9646 0.153438 0)
(27.4137 0.224239 0)
(26.6479 0.359211 0)
(25.7013 0.557127 0)
(24.2076 0.971973 0)
(22.275 1.56688 0)
(19.0153 2.96772 0)
(13.7409 4.20196 0)
(6.76231 7.1251 0)
(29.9988 0.000628934 0)
(29.9854 0.00191241 0)
(29.9561 0.00329669 0)
(29.9116 0.00507166 0)
(29.8534 0.00740212 0)
(29.7792 0.0105283 0)
(29.6873 0.0146591 0)
(29.5721 0.0207847 0)
(29.4289 0.0288471 0)
(29.2516 0.0405221 0)
(29.0334 0.0563749 0)
(28.7515 0.0795275 0)
(28.4075 0.112153 0)
(27.964 0.162117 0)
(27.4138 0.237225 0)
(26.6489 0.378183 0)
(25.7016 0.587624 0)
(24.2138 1.01989 0)
(22.302 1.64858 0)
(19.0864 3.12074 0)
(13.9223 4.44548 0)
(6.8901 7.57664 0)
(29.9988 0.000662932 0)
(29.9854 0.00201549 0)
(29.9561 0.00347491 0)
(29.9116 0.00534568 0)
(29.8535 0.00780179 0)
(29.7793 0.0110968 0)
(29.6875 0.0154508 0)
(29.5723 0.0219074 0)
(29.4291 0.0304084 0)
(29.2517 0.0426971 0)
(29.0335 0.0595889 0)
(28.7502 0.0837799 0)
(28.4065 0.118246 0)
(27.9638 0.170804 0)
(27.4139 0.250214 0)
(26.6499 0.397158 0)
(25.7016 0.618077 0)
(24.2191 1.0675 0)
(22.3281 1.72934 0)
(19.1525 3.27092 0)
(14.1035 4.68787 0)
(7.0245 8.03521 0)
(29.9988 0.000696921 0)
(29.9854 0.00211854 0)
(29.9561 0.00365314 0)
(29.9116 0.00561969 0)
(29.8535 0.00820142 0)
(29.7792 0.0116653 0)
(29.6874 0.0162424 0)
(29.5722 0.0230296 0)
(29.429 0.0319697 0)
(29.2519 0.0448893 0)
(29.0321 0.0628148 0)
(28.7493 0.0880127 0)
(28.4059 0.124344 0)
(27.9636 0.179494 0)
(27.4141 0.263195 0)
(26.6509 0.416143 0)
(25.7017 0.648498 0)
(24.2242 1.1148 0)
(22.3539 1.80919 0)
(19.215 3.41826 0)
(14.2848 4.92888 0)
(7.16515 8.50095 0)
(29.9988 0.000730903 0)
(29.9854 0.00222155 0)
(29.9561 0.00383139 0)
(29.9117 0.00589368 0)
(29.8536 0.008601 0)
(29.7793 0.0122336 0)
(29.6876 0.0170339 0)
(29.5725 0.024152 0)
(29.4292 0.0335271 0)
(29.2524 0.0471435 0)
(29.0301 0.0660163 0)
(28.7486 0.0922521 0)
(28.4055 0.130456 0)
(27.9637 0.188187 0)
(27.4144 0.276172 0)
(26.6519 0.435136 0)
(25.7021 0.678897 0)
(24.2295 1.16178 0)
(22.3802 1.88816 0)
(19.2752 3.56275 0)
(14.4667 5.16831 0)
(7.3118 8.97402 0)
(29.9988 0.000764876 0)
(29.9854 0.00232452 0)
(29.9561 0.00400966 0)
(29.9116 0.00616766 0)
(29.8535 0.00900051 0)
(29.7793 0.012802 0)
(29.6875 0.0178251 0)
(29.5724 0.0252743 0)
(29.4292 0.035083 0)
(29.2528 0.049443 0)
(29.0282 0.069193 0)
(28.7483 0.0965148 0)
(28.4053 0.136571 0)
(27.9638 0.196877 0)
(27.4147 0.28914 0)
(26.6532 0.454135 0)
(25.703 0.709273 0)
(24.2355 1.2084 0)
(22.4073 1.96628 0)
(19.3341 3.7044 0)
(14.6501 5.40601 0)
(7.46427 9.4546 0)
(29.9988 0.000798841 0)
(29.9854 0.00242746 0)
(29.9561 0.00418795 0)
(29.9117 0.00644162 0)
(29.8536 0.00939999 0)
(29.7794 0.0133703 0)
(29.6877 0.0186162 0)
(29.5726 0.0263967 0)
(29.4294 0.0366357 0)
(29.2531 0.0517732 0)
(29.027 0.0722685 0)
(28.7481 0.100795 0)
(28.4052 0.142691 0)
(27.964 0.205565 0)
(27.4153 0.302102 0)
(26.6548 0.473137 0)
(25.7048 0.739616 0)
(24.2422 1.25461 0)
(22.4352 2.04356 0)
(19.3926 3.84319 0)
(14.8361 5.64183 0)
(7.62251 9.94286 0)
(29.9988 0.000832798 0)
(29.9854 0.00253036 0)
(29.9561 0.00436625 0)
(29.9116 0.00671556 0)
(29.8535 0.00979941 0)
(29.7794 0.0139385 0)
(29.6875 0.019407 0)
(29.5726 0.0275191 0)
(29.4294 0.0381854 0)
(29.2531 0.0540845 0)
(29.0263 0.0752721 0)
(28.748 0.105086 0)
(28.4052 0.148811 0)
(27.9643 0.214248 0)
(27.416 0.315054 0)
(26.6567 0.492131 0)
(25.7076 0.7699 0)
(24.2499 1.30043 0)
(22.4642 2.12001 0)
(19.4515 3.97909 0)
(15.0259 5.87565 0)
(7.78655 10.439 0)
(29.9988 0.000866745 0)
(29.9854 0.00263323 0)
(29.9562 0.00454458 0)
(29.9117 0.00698948 0)
(29.8536 0.0101988 0)
(29.7795 0.0145066 0)
(29.6878 0.020198 0)
(29.5728 0.0286399 0)
(29.4298 0.0397504 0)
(29.2528 0.0563765 0)
(29.026 0.078246 0)
(28.748 0.109384 0)
(28.4052 0.154931 0)
(27.9647 0.222927 0)
(27.4169 0.327994 0)
(26.659 0.511107 0)
(25.7114 0.800101 0)
(24.2586 1.34584 0)
(22.4941 2.19566 0)
(19.5114 4.11204 0)
(15.2207 6.10736 0)
(7.95652 10.9433 0)
(29.9988 0.000900684 0)
(29.9854 0.00273606 0)
(29.9561 0.00472292 0)
(29.9117 0.00726338 0)
(29.8535 0.0105981 0)
(29.7794 0.0150746 0)
(29.6876 0.0209889 0)
(29.5726 0.0297614 0)
(29.43 0.0413244 0)
(29.2519 0.058763 0)
(29.0258 0.0812267 0)
(28.7481 0.113684 0)
(28.4054 0.161048 0)
(27.9652 0.231599 0)
(27.418 0.340916 0)
(26.6618 0.530047 0)
(25.7163 0.830201 0)
(24.2683 1.39088 0)
(22.5249 2.27049 0)
(19.5726 4.24195 0)
(15.4217 6.33688 0)
(8.13262 11.4559 0)
(29.9988 0.000934614 0)
(29.9854 0.00283885 0)
(29.9562 0.00490128 0)
(29.9117 0.00753725 0)
(29.8537 0.0109975 0)
(29.7795 0.0156424 0)
(29.6879 0.0217797 0)
(29.5728 0.0308819 0)
(29.4306 0.0429089 0)
(29.2507 0.0611142 0)
(29.0258 0.0842318 0)
(28.7482 0.117987 0)
(28.4056 0.167162 0)
(27.9658 0.240264 0)
(27.4193 0.353815 0)
(26.6651 0.548939 0)
(25.7223 0.860195 0)
(24.2792 1.43554 0)
(22.5566 2.3445 0)
(19.6354 4.36872 0)
(15.6303 6.56411 0)
(8.3151 11.9772 0)
(29.9988 0.000968535 0)
(29.9854 0.00294161 0)
(29.9561 0.00507966 0)
(29.9117 0.0078111 0)
(29.8536 0.0113967 0)
(29.7795 0.0162101 0)
(29.6878 0.022571 0)
(29.5727 0.0319977 0)
(29.4309 0.0445484 0)
(29.2496 0.0633263 0)
(29.0259 0.0872628 0)
(28.7484 0.12229 0)
(28.4058 0.173274 0)
(27.9665 0.248918 0)
(27.4209 0.366686 0)
(26.6688 0.56777 0)
(25.7291 0.890082 0)
(24.2914 1.47983 0)
(22.5891 2.41769 0)
(19.6998 4.4922 0)
(15.8473 6.78896 0)
(8.5043 12.5076 0)
(29.9988 0.00100245 0)
(29.9854 0.00304433 0)
(29.9562 0.00525806 0)
(29.9117 0.00808491 0)
(29.8537 0.011796 0)
(29.7796 0.0167776 0)
(29.688 0.0233624 0)
(29.5729 0.0331125 0)
(29.4314 0.0462115 0)
(29.2488 0.0655164 0)
(29.026 0.0903131 0)
(28.7486 0.126593 0)
(28.4061 0.179381 0)
(27.9673 0.257561 0)
(27.4227 0.379522 0)
(26.6729 0.586534 0)
(25.7369 0.919857 0)
(24.3047 1.52375 0)
(22.6224 2.49005 0)
(19.7657 4.61223 0)
(16.0735 7.01134 0)
(8.70054 13.0472 0)
(29.9988 0.00103635 0)
(29.9854 0.00314701 0)
(29.9562 0.00543646 0)
(29.9117 0.0083587 0)
(29.8536 0.0121951 0)
(29.7795 0.0173449 0)
(29.6879 0.0241535 0)
(29.5728 0.034227 0)
(29.4315 0.0478842 0)
(29.2484 0.0676969 0)
(29.0262 0.0933744 0)
(28.7488 0.130895 0)
(28.4064 0.185484 0)
(27.9682 0.26619 0)
(27.4247 0.392322 0)
(26.6775 0.605225 0)
(25.7456 0.949512 0)
(24.3194 1.56731 0)
(22.6565 2.56157 0)
(19.8331 4.72866 0)
(16.3094 7.23116 0)
(8.90419 13.5966 0)
(29.9988 0.00107025 0)
(29.9854 0.00324966 0)
(29.9562 0.00561488 0)
(29.9118 0.00863245 0)
(29.8538 0.0125943 0)
(29.7797 0.0179122 0)
(29.6881 0.0249447 0)
(29.5731 0.0353407 0)
(29.4317 0.0495665 0)
(29.2483 0.0698568 0)
(29.0265 0.0964421 0)
(28.7491 0.135196 0)
(28.4068 0.191582 0)
(27.9691 0.274803 0)
(27.4269 0.405081 0)
(26.6824 0.623838 0)
(25.755 0.979035 0)
(24.3355 1.61051 0)
(22.6915 2.63227 0)
(19.9018 4.84131 0)
(16.5551 7.4483 0)
(9.11559 14.1561 0)
(29.9988 0.00110413 0)
(29.9854 0.00335228 0)
(29.9562 0.00579331 0)
(29.9117 0.00890618 0)
(29.8536 0.0129933 0)
(29.7796 0.0184793 0)
(29.688 0.0257355 0)
(29.573 0.0364545 0)
(29.4316 0.0512538 0)
(29.2485 0.0720017 0)
(29.0267 0.0995141 0)
(28.7494 0.139497 0)
(28.4073 0.197674 0)
(27.9702 0.283399 0)
(27.4292 0.417799 0)
(26.6877 0.642365 0)
(25.7652 1.00841 0)
(24.3529 1.65334 0)
(22.7274 2.70213 0)
(19.9716 4.95 0)
(16.8106 7.66263 0)
(9.33507 14.7261 0)
(29.9988 0.00113801 0)
(29.9854 0.00345486 0)
(29.9562 0.00597175 0)
(29.9118 0.00917987 0)
(29.8538 0.0133924 0)
(29.7798 0.0190464 0)
(29.6882 0.0265256 0)
(29.5734 0.0375688 0)
(29.4316 0.0529441 0)
(29.2488 0.0741343 0)
(29.027 0.102589 0)
(28.7497 0.143797 0)
(28.4077 0.20376 0)
(27.9713 0.291976 0)
(27.4318 0.430472 0)
(26.6932 0.660802 0)
(25.7761 1.03763 0)
(24.3718 1.6958 0)
(22.7644 2.77116 0)
(20.0425 5.05458 0)
(17.0757 7.87403 0)
(9.56291 15.307 0)
(29.9988 0.00117188 0)
(29.9854 0.00355741 0)
(29.9562 0.00615019 0)
(29.9117 0.00945355 0)
(29.8537 0.0137912 0)
(29.7797 0.0196136 0)
(29.6881 0.0273153 0)
(29.5734 0.0386792 0)
(29.4312 0.0546346 0)
(29.2493 0.0762578 0)
(29.0274 0.105668 0)
(28.75 0.148095 0)
(28.4082 0.209839 0)
(27.9725 0.300534 0)
(27.4345 0.443101 0)
(26.699 0.679142 0)
(25.7878 1.06668 0)
(24.3921 1.73789 0)
(22.8025 2.83937 0)
(20.1146 5.1549 0)
(17.3499 8.08236 0)
(9.79939 15.8992 0)
(29.9988 0.00120574 0)
(29.9854 0.00365993 0)
(29.9562 0.00632865 0)
(29.9118 0.00972716 0)
(29.8538 0.0141902 0)
(29.7799 0.0201799 0)
(29.6883 0.028108 0)
(29.5738 0.0397857 0)
(29.431 0.0562446 0)
(29.2498 0.0783735 0)
(29.0277 0.108748 0)
(28.7504 0.152392 0)
(28.4088 0.215911 0)
(27.9737 0.309072 0)
(27.4373 0.455682 0)
(26.7051 0.697379 0)
(25.8001 1.09553 0)
(24.4139 1.7796 0)
(22.8421 2.90677 0)
(20.1881 5.25082 0)
(17.6333 8.28746 0)
(10.0447 16.5032 0)
(29.9988 0.0012396 0)
(29.9855 0.00376242 0)
(29.9562 0.00650708 0)
(29.9118 0.0100008 0)
(29.8537 0.0145887 0)
(29.7798 0.020748 0)
(29.6881 0.0288907 0)
(29.574 0.0409515 0)
(29.4302 0.0576158 0)
(29.2503 0.0804923 0)
(29.028 0.111831 0)
(28.7507 0.156688 0)
(28.4093 0.221976 0)
(27.975 0.317588 0)
(27.4402 0.468213 0)
(26.7115 0.715505 0)
(25.8132 1.12418 0)
(24.4371 1.82092 0)
(22.8832 2.97334 0)
(20.2631 5.34219 0)
(17.9257 8.48919 0)
(10.2991 17.1192 0)
(29.9988 0.00127345 0)
(29.9855 0.00386487 0)
(29.9562 0.00668553 0)
(29.9119 0.0102744 0)
(29.8539 0.0149874 0)
(29.78 0.0213143 0)
(29.6883 0.0296829 0)
(29.5746 0.0420735 0)
(29.4292 0.0595298 0)
(29.2508 0.0826436 0)
(29.0284 0.114915 0)
(28.7511 0.160983 0)
(28.4099 0.228033 0)
(27.9764 0.326083 0)
(27.4433 0.480693 0)
(26.718 0.733516 0)
(25.8268 1.15262 0)
(24.4616 1.86183 0)
(22.9261 3.0391 0)
(20.3399 5.42888 0)
(18.2275 8.6874 0)
(10.5628 17.7478 0)
(29.9988 0.00130729 0)
(29.9855 0.00396728 0)
(29.9562 0.00686398 0)
(29.9118 0.0105479 0)
(29.8537 0.0153861 0)
(29.7799 0.0218806 0)
(29.6881 0.0304681 0)
(29.5746 0.0432517 0)
(29.4286 0.061335 0)
(29.2512 0.0848241 0)
(29.0288 0.118 0)
(28.7515 0.165275 0)
(28.4105 0.234082 0)
(27.9778 0.334556 0)
(27.4465 0.493119 0)
(26.7249 0.751405 0)
(25.841 1.18082 0)
(24.4876 1.90233 0)
(22.971 3.10402 0)
(20.4184 5.51076 0)
(18.539 8.88193 0)
(10.8361 18.3893 0)
(29.9988 0.00134112 0)
(29.9855 0.00406967 0)
(29.9562 0.00704238 0)
(29.9119 0.0108215 0)
(29.8539 0.0157836 0)
(29.7801 0.0224524 0)
(29.6885 0.0312315 0)
(29.5748 0.0444512 0)
(29.4284 0.0628429 0)
(29.2516 0.0870145 0)
(29.0291 0.121085 0)
(28.7519 0.169566 0)
(28.4111 0.240124 0)
(27.9792 0.343005 0)
(27.4498 0.505491 0)
(26.7319 0.769166 0)
(25.8559 1.20877 0)
(24.5147 1.94238 0)
(23.0183 3.16811 0)
(20.4985 5.5877 0)
(18.8602 9.07262 0)
(11.1191 19.0442 0)
(29.9988 0.00137496 0)
(29.9855 0.00417203 0)
(29.9562 0.00722081 0)
(29.9118 0.0110948 0)
(29.8538 0.0161827 0)
(29.78 0.0230139 0)
(29.6885 0.0320617 0)
(29.574 0.0453263 0)
(29.4282 0.0642905 0)
(29.252 0.0892038 0)
(29.0295 0.12417 0)
(28.7523 0.173855 0)
(28.4118 0.246156 0)
(27.9806 0.35143 0)
(27.4531 0.517803 0)
(26.7391 0.786796 0)
(25.8712 1.23647 0)
(24.5431 1.98195 0)
(23.0683 3.23138 0)
(20.5796 5.65955 0)
(19.1904 9.25934 0)
(11.4122 19.7129 0)
(29.9988 0.00140877 0)
(29.9855 0.00427441 0)
(29.9562 0.00739928 0)
(29.9119 0.0113683 0)
(29.854 0.016581 0)
(29.7799 0.0235816 0)
(29.6895 0.0328628 0)
(29.5707 0.0466946 0)
(29.4281 0.0657708 0)
(29.2522 0.0913908 0)
(29.0298 0.127254 0)
(28.7528 0.178142 0)
(28.4124 0.252179 0)
(27.9821 0.359831 0)
(27.4566 0.530058 0)
(26.7466 0.804289 0)
(25.8869 1.26389 0)
(24.5726 2.02103 0)
(23.1215 3.29382 0)
(20.6611 5.72622 0)
(19.5266 9.4421 0)
(11.7153 20.3967 0)
(29.9988 0.00144241 0)
(29.9855 0.00437668 0)
(29.9562 0.00757788 0)
(29.9118 0.0116418 0)
(29.8539 0.0169804 0)
(29.7797 0.0241457 0)
(29.69 0.0336847 0)
(29.5682 0.0481164 0)
(29.4279 0.0672871 0)
(29.2524 0.0935787 0)
(29.0301 0.130338 0)
(28.7532 0.182427 0)
(28.413 0.258194 0)
(27.9836 0.368205 0)
(27.4601 0.542249 0)
(26.7542 0.821641 0)
(25.9031 1.29103 0)
(24.6029 2.05955 0)
(23.1782 3.35544 0)
(20.7422 5.78771 0)
(19.8617 9.62058 0)
(12.0283 21.1029 0)
(29.9988 0.00147561 0)
(29.9855 0.0044779 0)
(29.9563 0.00775502 0)
(29.9119 0.0119135 0)
(29.8542 0.0173789 0)
(29.7799 0.0246984 0)
(29.6905 0.0345669 0)
(29.5674 0.0492486 0)
(29.4278 0.0688117 0)
(29.2525 0.0957638 0)
(29.0303 0.133421 0)
(28.7535 0.186708 0)
(28.4136 0.264204 0)
(27.9851 0.376562 0)
(27.4637 0.554374 0)
(26.762 0.838849 0)
(25.9196 1.31787 0)
(24.6342 2.09744 0)
(23.239 3.41629 0)
(20.8231 5.84408 0)
(20.1844 9.79275 0)
(12.4374 21.8529 0)
(0.429881 0.00524294 0)
(-0.922419 0.0231879 0)
(-1.69973 0.00858794 0)
(-1.7621 -0.00196891 0)
(-1.46657 -0.0061283 0)
(-1.03769 -0.00517425 0)
(-0.806457 -0.00246289 0)
(-0.700822 -0.000526615 0)
(-0.725599 0.000126518 0)
(-0.718992 0.000642527 0)
(-0.849197 0.000916141 0)
(-0.923766 -2.84821e-05 0)
(-0.852509 -0.0018105 0)
(-0.528448 -0.00340757 0)
(-8.7938e-05 -0.00432287 0)
(0.640401 -0.00480851 0)
(1.37318 -0.00559774 0)
(2.32738 -0.00684942 0)
(3.58758 -0.00780036 0)
(5.06115 -0.00793065 0)
(6.65307 -0.0075381 0)
(8.24582 -0.00681384 0)
(9.7647 -0.00599198 0)
(11.2127 -0.00526845 0)
(12.5913 -0.00464383 0)
(13.9125 -0.00410315 0)
(15.176 -0.00364125 0)
(16.3961 -0.0033814 0)
(17.6742 -0.00308496 0)
(18.8621 -0.0019953 0)
(19.3905 -0.00318657 0)
(21.8366 -0.00897173 0)
(28.6368 -0.0073545 0)
(29.8423 -0.000982086 0)
(29.7889 4.29221e-05 0)
(0.452322 0.0149467 0)
(-0.904069 0.0694487 0)
(-1.6775 0.0256302 0)
(-1.73898 -0.0057359 0)
(-1.44756 -0.0183479 0)
(-1.02268 -0.0154567 0)
(-0.794635 -0.00745119 0)
(-0.687076 -0.0016904 0)
(-0.704246 0.000266591 0)
(-0.686495 0.00195974 0)
(-0.818517 0.00298484 0)
(-0.902143 0.000409019 0)
(-0.866558 -0.00497079 0)
(-0.576912 -0.0102637 0)
(-0.0389723 -0.0133482 0)
(0.646242 -0.014636 0)
(1.41068 -0.0165146 0)
(2.3579 -0.0198717 0)
(3.58306 -0.0227131 0)
(5.02666 -0.0234539 0)
(6.61343 -0.0225379 0)
(8.21646 -0.0204058 0)
(9.74913 -0.017954 0)
(11.2034 -0.0157932 0)
(12.5817 -0.0139294 0)
(13.9013 -0.0123118 0)
(15.1632 -0.0109157 0)
(16.3794 -0.0101235 0)
(17.6534 -0.00927032 0)
(18.8518 -0.00604909 0)
(19.4061 -0.00910327 0)
(21.6269 -0.0267057 0)
(28.5239 -0.0225752 0)
(29.8422 -0.00307821 0)
(29.7918 0.000128125 0)
(0.479568 0.0235611 0)
(-0.883575 0.115709 0)
(-1.65207 0.0424956 0)
(-1.70823 -0.00944444 0)
(-1.41592 -0.0305555 0)
(-0.996214 -0.0255902 0)
(-0.770735 -0.012436 0)
(-0.660956 -0.00296298 0)
(-0.669758 0.000123608 0)
(-0.645404 0.00309711 0)
(-0.78554 0.00498706 0)
(-0.88564 0.00119362 0)
(-0.888767 -0.00748392 0)
(-0.623567 -0.0166648 0)
(-0.0624889 -0.0225394 0)
(0.671617 -0.0248265 0)
(1.46297 -0.0274419 0)
(2.39588 -0.0324522 0)
(3.58223 -0.0370871 0)
(4.99812 -0.0386388 0)
(6.58652 -0.0375229 0)
(8.20412 -0.0341677 0)
(9.75037 -0.0300153 0)
(11.2107 -0.0263229 0)
(12.5884 -0.0231741 0)
(13.9056 -0.0204741 0)
(15.1648 -0.0181499 0)
(16.3763 -0.0168314 0)
(17.6449 -0.0154599 0)
(18.8508 -0.0101793 0)
(19.4318 -0.0147205 0)
(21.4522 -0.0441404 0)
(28.4182 -0.0379911 0)
(29.8415 -0.00538745 0)
(29.7947 0.000205577 0)
(0.511927 0.0309729 0)
(-0.86099 0.162085 0)
(-1.62268 0.0591066 0)
(-1.66837 -0.0133636 0)
(-1.37162 -0.0427158 0)
(-0.958579 -0.035592 0)
(-0.737005 -0.0174002 0)
(-0.626364 -0.00436271 0)
(-0.627782 -0.000160995 0)
(-0.599666 0.00431145 0)
(-0.747707 0.00734237 0)
(-0.865925 0.00257326 0)
(-0.907704 -0.0094764 0)
(-0.663233 -0.0232353 0)
(-0.0754019 -0.0325484 0)
(0.710619 -0.03584 0)
(1.53061 -0.0387238 0)
(2.447 -0.0449775 0)
(3.59142 -0.0513221 0)
(4.98043 -0.0538397 0)
(6.57385 -0.0526417 0)
(8.20854 -0.0480626 0)
(9.7695 -0.0421593 0)
(11.2361 -0.036881 0)
(12.6129 -0.0324186 0)
(13.9267 -0.0286289 0)
(15.1821 -0.0253678 0)
(16.3873 -0.0235137 0)
(17.649 -0.0216549 0)
(18.8597 -0.0143879 0)
(19.468 -0.019971 0)
(21.3116 -0.061263 0)
(28.3189 -0.0537626 0)
(29.8402 -0.00787909 0)
(29.7974 0.000277705 0)
(0.549589 0.0370195 0)
(-0.836453 0.208544 0)
(-1.58882 0.0753101 0)
(-1.61872 -0.0176264 0)
(-1.31515 -0.0548235 0)
(-0.91014 -0.0453786 0)
(-0.694507 -0.0222827 0)
(-0.584004 -0.00585499 0)
(-0.578871 -0.00056017 0)
(-0.549164 0.00557977 0)
(-0.703618 0.00999745 0)
(-0.841197 0.00448224 0)
(-0.921775 -0.0109407 0)
(-0.694523 -0.0298681 0)
(-0.0759388 -0.0431945 0)
(0.766748 -0.0475061 0)
(1.62019 -0.0501865 0)
(2.51859 -0.057222 0)
(3.6157 -0.0652379 0)
(4.97667 -0.0689584 0)
(6.5778 -0.0678874 0)
(8.23229 -0.0621205 0)
(9.80972 -0.0544029 0)
(11.2831 -0.0474664 0)
(12.6583 -0.0416483 0)
(13.9673 -0.0367568 0)
(15.2171 -0.0325522 0)
(16.4142 -0.0301575 0)
(17.6672 -0.0278397 0)
(18.8797 -0.0186666 0)
(19.5159 -0.024941 0)
(21.2029 -0.0780968 0)
(28.2254 -0.0697563 0)
(29.8382 -0.0105449 0)
(29.8 0.000342894 0)
(0.592625 0.0415248 0)
(-0.81003 0.255106 0)
(-1.54986 0.0909376 0)
(-1.55833 -0.0223655 0)
(-1.24656 -0.0669216 0)
(-0.85095 -0.0549114 0)
(-0.643731 -0.0270488 0)
(-0.534011 -0.00742029 0)
(-0.523005 -0.0010448 0)
(-0.493238 0.00690462 0)
(-0.652166 0.0129244 0)
(-0.809721 0.00692956 0)
(-0.928854 -0.0118922 0)
(-0.715641 -0.0365795 0)
(-0.0626762 -0.0544682 0)
(0.842378 -0.0598063 0)
(1.73764 -0.0617689 0)
(2.61932 -0.0690457 0)
(3.66274 -0.078709 0)
(4.99238 -0.0839502 0)
(6.60277 -0.0832662 0)
(8.28009 -0.0763544 0)
(9.87659 -0.0667502 0)
(11.3575 -0.0580742 0)
(12.7301 -0.0508519 0)
(14.032 -0.0448427 0)
(15.2734 -0.0396883 0)
(16.4597 -0.0367498 0)
(17.7016 -0.0340003 0)
(18.9124 -0.0230083 0)
(19.5769 -0.0296725 0)
(21.1239 -0.0946454 0)
(28.1371 -0.0859029 0)
(29.8357 -0.0133732 0)
(29.8024 0.000400391 0)
(0.640924 0.0443127 0)
(-0.781704 0.301784 0)
(-1.50504 0.105804 0)
(-1.4858 -0.0277112 0)
(-1.16538 -0.0790211 0)
(-0.780595 -0.0641396 0)
(-0.584523 -0.031657 0)
(-0.475988 -0.00904271 0)
(-0.45957 -0.00159374 0)
(-0.430642 0.00827799 0)
(-0.592015 0.016101 0)
(-0.769543 0.00990309 0)
(-0.92673 -0.0123731 0)
(-0.725347 -0.0434285 0)
(-0.034943 -0.0664404 0)
(0.939021 -0.0728365 0)
(1.88822 -0.0735424 0)
(2.75899 -0.0804173 0)
(3.74294 -0.0916637 0)
(5.03585 -0.0987877 0)
(6.65565 -0.0987923 0)
(8.35935 -0.0907902 0)
(9.97877 -0.0792157 0)
(11.4687 -0.0687032 0)
(12.8371 -0.0600155 0)
(14.1279 -0.052866 0)
(15.3565 -0.0467556 0)
(16.5279 -0.0432738 0)
(17.7553 -0.0401207 0)
(18.9602 -0.0274042 0)
(19.6533 -0.0341964 0)
(21.0729 -0.110886 0)
(28.0535 -0.102151 0)
(29.8326 -0.0163546 0)
(29.8047 0.000449513 0)
(0.694125 0.0452091 0)
(-0.751357 0.348563 0)
(-1.45341 0.119693 0)
(-1.39929 -0.0337892 0)
(-1.07085 -0.0910994 0)
(-0.698376 -0.0729968 0)
(-0.516253 -0.0360623 0)
(-0.409136 -0.0107129 0)
(-0.387486 -0.00219703 0)
(-0.359665 0.0096818 0)
(-0.5213 0.0194986 0)
(-0.718299 0.013396 0)
(-0.913107 -0.0124134 0)
(-0.722434 -0.0504705 0)
(0.00842641 -0.0792163 0)
(1.05919 -0.0867672 0)
(2.07811 -0.0856724 0)
(2.94932 -0.0913725 0)
(3.8698 -0.104042 0)
(5.11856 -0.113428 0)
(6.74645 -0.114475 0)
(8.48097 -0.105462 0)
(10.129 -0.0918219 0)
(11.6309 -0.0793525 0)
(12.9931 -0.0691175 0)
(14.2667 -0.0607945 0)
(15.4751 -0.0537226 0)
(16.6251 -0.0497049 0)
(17.8331 -0.0461799 0)
(19.0266 -0.0318428 0)
(19.748 -0.0385346 0)
(21.0499 -0.126794 0)
(27.9747 -0.118451 0)
(29.8289 -0.0194804 0)
(29.8068 0.000489615 0)
(0.751541 0.0440716 0)
(-0.718759 0.395391 0)
(-1.39385 0.132347 0)
(-1.29683 -0.0407202 0)
(-0.962347 -0.103108 0)
(-0.60359 -0.0814135 0)
(-0.438034 -0.0402207 0)
(-0.332392 -0.0124271 0)
(-0.305352 -0.00285517 0)
(-0.278246 0.0110895 0)
(-0.437549 0.0230874 0)
(-0.653089 0.0174002 0)
(-0.88528 -0.0120219 0)
(-0.704811 -0.0577413 0)
(0.0703499 -0.0929061 0)
(1.20815 -0.101812 0)
(2.31696 -0.0984024 0)
(3.20604 -0.102016 0)
(4.06106 -0.1158 0)
(5.25608 -0.127809 0)
(6.88924 -0.130317 0)
(8.6602 -0.120417 0)
(10.3453 -0.104607 0)
(11.8649 -0.0900265 0)
(13.2193 -0.0781262 0)
(14.4663 -0.0685766 0)
(15.6421 -0.0605385 0)
(16.7601 -0.0560049 0)
(17.9413 -0.052148 0)
(19.1163 -0.036308 0)
(19.8649 -0.0427021 0)
(21.0565 -0.142342 0)
(27.9007 -0.13475 0)
(29.8247 -0.0227424 0)
(29.8087 0.000520109 0)
(0.81254 0.0407344 0)
(-0.683671 0.442186 0)
(-1.32504 0.143478 0)
(-1.17675 -0.048614 0)
(-0.839642 -0.114975 0)
(-0.495817 -0.0893289 0)
(-0.348932 -0.044096 0)
(-0.244572 -0.0141897 0)
(-0.211582 -0.00358155 0)
(-0.184057 0.0124592 0)
(-0.337733 0.0268187 0)
(-0.570411 0.0219073 0)
(-0.839765 -0.0111997 0)
(-0.66886 -0.0652689 0)
(0.156144 -0.107627 0)
(1.39447 -0.118226 0)
(2.61894 -0.112057 0)
(3.55098 -0.11252 0)
(4.34065 -0.126906 0)
(5.46923 -0.141851 0)
(7.10314 -0.146325 0)
(8.91747 -0.135727 0)
(10.6511 -0.117641 0)
(12.1983 -0.100749 0)
(13.5459 -0.0870034 0)
(14.754 -0.0761333 0)
(15.8775 -0.0671218 0)
(16.946 -0.0621142 0)
(18.0892 -0.0579823 0)
(19.2357 -0.0407759 0)
(20.0089 -0.0467089 0)
(21.097 -0.157493 0)
(27.8321 -0.150989 0)
(29.82 -0.0261314 0)
(29.8105 0.000540479 0)
(0.876216 0.0350568 0)
(-0.645756 0.488813 0)
(-1.24547 0.152772 0)
(-1.0381 -0.0575564 0)