/*--------------------------------*- C++ -*----------------------------------*\
| =========                 |                                                 |
| \\      /  F ield         | OpenFOAM: The Open Source CFD Toolbox           |
|  \\    /   O peration     | Version:  v1912                                 |
|   \\  /    A nd           | Website:  www.openfoam.com                      |
|    \\/     M anipulation  |                                                 |
\*---------------------------------------------------------------------------*/
FoamFile
{
    version     2.0;
    format      ascii;
    class       volScalarField;
    location    "460";
    object      yPlus;
}
// * * * * * * * * * * * * * * * * * * * * * * * * * * * * * * * * * * * * * //

dimensions      [0 0 0 0 0 0 0];


internalField   uniform 0;

boundaryField
{
    inlet
    {
        type            calculated;
        value           uniform 0;
    }
    outlet
    {
        type            calculated;
        value           uniform 0;
    }
    lowerSymmetry
    {
        type            symmetryPlane;
    }
    obstical
    {
        type            calculated;
        value           nonuniform List<scalar> 
88
(
479.039
481.247
485.65
492.224
500.902
511.598
524.222
538.687
554.908
572.803
592.298
613.318
635.78
659.597
684.673
710.915
738.232
766.542
795.775
825.869
856.775
888.457
920.884
954.039
987.911
1022.5
1057.8
1093.83
1130.61
1168.14
1206.46
1245.58
1285.52
1326.3
1367.96
1410.5
1453.95
1498.32
1543.66
1589.97
1637.27
1685.65
1735.49
1790.74
48.2057
50.3103
52.8563
55.8554
59.3093
63.2106
67.5376
72.2493
77.2797
82.5711
88.0455
93.599
99.1015
104.399
109.319
113.676
117.284
119.967
121.573
121.985
121.129
118.974
115.535
110.875
105.1
98.371
90.9096
83.0263
75.1685
68.0015
62.4894
59.8233
60.9562
65.9787
74.1611
84.5936
96.6329
109.983
124.632
140.748
158.693
178.816
201.427
227.346
)
;
    }
    obsticalTop
    {
        type            calculated;
        value           nonuniform List<scalar> 
20
(
53.3959
38.8063
47.1559
53.2399
56.0807
57.712
58.3118
58.0005
57.0468
55.5818
53.5802
50.9302
47.5357
43.2063
37.9122
31.0119
24.6027
15.06
13.5499
11.3024
)
;
    }
    top
    {
        type            calculated;
        value           uniform 0;
    }
    defaultFaces
    {
        type            empty;
    }
}


// ************************************************************************* //
