/*--------------------------------*- C++ -*----------------------------------*\
| =========                 |                                                 |
| \\      /  F ield         | OpenFOAM: The Open Source CFD Toolbox           |
|  \\    /   O peration     | Version:  v1912                                 |
|   \\  /    A nd           | Website:  www.openfoam.com                      |
|    \\/     M anipulation  |                                                 |
\*---------------------------------------------------------------------------*/
FoamFile
{
    version     2.0;
    format      ascii;
    class       volVectorField;
    location    "800";
    object      U;
}
// * * * * * * * * * * * * * * * * * * * * * * * * * * * * * * * * * * * * * //

dimensions      [0 1 -1 0 0 0 0];


internalField   nonuniform List<vector> 
10000
(
(1 2.15217e-08 0)
(0.999996 6.75545e-08 0)
(0.999988 1.16627e-07 0)
(0.999976 1.66182e-07 0)
(0.999959 2.18365e-07 0)
(0.999937 2.74984e-07 0)
(0.999911 3.37168e-07 0)
(0.999879 4.07137e-07 0)
(0.99984 4.86746e-07 0)
(0.999794 5.81055e-07 0)
(0.999739 6.90156e-07 0)
(0.999673 8.33806e-07 0)
(0.999593 9.93741e-07 0)
(0.9995 1.26642e-06 0)
(0.999372 1.47469e-06 0)
(0.999243 2.30955e-06 0)
(0.998967 1.93032e-06 0)
(0.998911 8.56559e-06 0)
(0.997466 -1.35378e-05 0)
(1.00109 0.000715586 0)
(1 6.58196e-08 0)
(0.999996 2.06491e-07 0)
(0.999988 3.56366e-07 0)
(0.999976 5.0792e-07 0)
(0.999959 6.6738e-07 0)
(0.999937 8.40534e-07 0)
(0.999911 1.03107e-06 0)
(0.999879 1.24553e-06 0)
(0.99984 1.48645e-06 0)
(0.999794 1.77575e-06 0)
(0.999739 2.11131e-06 0)
(0.999673 2.5518e-06 0)
(0.999593 3.03482e-06 0)
(0.9995 3.86991e-06 0)
(0.999372 4.5222e-06 0)
(0.999244 7.07266e-06 0)
(0.998968 5.86834e-06 0)
(0.998909 2.59133e-05 0)
(0.997503 -3.59052e-05 0)
(1.00052 0.000593356 0)
(1 1.12567e-07 0)
(0.999996 3.53167e-07 0)
(0.999988 6.09324e-07 0)
(0.999976 8.68603e-07 0)
(0.999959 1.14152e-06 0)
(0.999937 1.43766e-06 0)
(0.999911 1.76347e-06 0)
(0.999879 2.12976e-06 0)
(0.99984 2.5434e-06 0)
(0.999794 3.03747e-06 0)
(0.999739 3.61105e-06 0)
(0.999673 4.36216e-06 0)
(0.999593 5.19391e-06 0)
(0.9995 6.61548e-06 0)
(0.999372 7.73785e-06 0)
(0.999244 1.20541e-05 0)
(0.998969 1.01524e-05 0)
(0.998904 4.3578e-05 0)
(0.997555 -5.1401e-05 0)
(0.99989 0.000914881 0)
(1 1.6218e-07 0)
(0.999996 5.08372e-07 0)
(0.999988 8.76767e-07 0)
(0.999976 1.24991e-06 0)
(0.999959 1.6427e-06 0)
(0.999937 2.06885e-06 0)
(0.999911 2.53776e-06 0)
(0.999879 3.0647e-06 0)
(0.99984 3.66015e-06 0)
(0.999794 4.37093e-06 0)
(0.999739 5.19674e-06 0)
(0.999673 6.27647e-06 0)
(0.999593 7.47538e-06 0)
(0.9995 9.51627e-06 0)
(0.999372 1.11438e-05 0)
(0.999243 1.73089e-05 0)
(0.99897 1.47559e-05 0)
(0.998897 6.13952e-05 0)
(0.997626 -5.93719e-05 0)
(0.999301 0.001002 0)
(1 2.14717e-07 0)
(0.999996 6.72474e-07 0)
(0.999988 1.1594e-06 0)
(0.999976 1.65287e-06 0)
(0.999959 2.17234e-06 0)
(0.999938 2.73586e-06 0)
(0.999911 3.35602e-06 0)
(0.999879 4.0527e-06 0)
(0.99984 4.84017e-06 0)
(0.999794 5.77994e-06 0)
(0.999739 6.87246e-06 0)
(0.999674 8.29914e-06 0)
(0.999593 9.88638e-06 0)
(0.9995 1.25799e-05 0)
(0.999372 1.47474e-05 0)
(0.999243 2.28372e-05 0)
(0.998972 1.97449e-05 0)
(0.998888 7.915e-05 0)
(0.997705 -6.01224e-05 0)
(0.998786 0.00103274 0)
(1 2.70308e-07 0)
(0.999996 8.45923e-07 0)
(0.999988 1.45801e-06 0)
(0.999976 2.07863e-06 0)
(0.999959 2.73194e-06 0)
(0.999938 3.44062e-06 0)
(0.999911 4.22055e-06 0)
(0.999879 5.09654e-06 0)
(0.99984 6.08701e-06 0)
(0.999794 7.26866e-06 0)
(0.999739 8.64295e-06 0)
(0.999674 1.04357e-05 0)
(0.999593 1.24342e-05 0)
(0.9995 1.58144e-05 0)
(0.999373 1.85599e-05 0)
(0.999243 2.86438e-05 0)
(0.998974 2.51778e-05 0)
(0.998877 9.66776e-05 0)
(0.997789 -5.40616e-05 0)
(0.998362 0.00104818 0)
(1 3.29172e-07 0)
(0.999996 1.02931e-06 0)
(0.999988 1.77355e-06 0)
(0.999976 2.52854e-06 0)
(0.999959 3.32327e-06 0)
(0.999938 4.18533e-06 0)
(0.999911 5.13413e-06 0)
(0.999879 6.19959e-06 0)
(0.99984 7.40431e-06 0)
(0.999794 8.84156e-06 0)
(0.999739 1.05137e-05 0)
(0.999674 1.2693e-05 0)
(0.999593 1.51263e-05 0)
(0.9995 1.92289e-05 0)
(0.999373 2.25949e-05 0)
(0.999243 3.47358e-05 0)
(0.998977 3.1105e-05 0)
(0.998866 0.00011388 0)
(0.997872 -4.18969e-05 0)
(0.998031 0.00105654 0)
(1 3.91485e-07 0)
(0.999996 1.22317e-06 0)
(0.999988 2.10691e-06 0)
(0.999976 3.0039e-06 0)
(0.999959 3.94805e-06 0)
(0.999938 4.97216e-06 0)
(0.999911 6.09936e-06 0)
(0.999879 7.36499e-06 0)
(0.99984 8.79606e-06 0)
(0.999794 1.05033e-05 0)
(0.999739 1.24903e-05 0)
(0.999674 1.50773e-05 0)
(0.999593 1.79709e-05 0)
(0.999501 2.28325e-05 0)
(0.999373 2.6866e-05 0)
(0.999243 4.11204e-05 0)
(0.99898 3.75771e-05 0)
(0.998854 0.000130727 0)
(0.997949 -2.44359e-05 0)
(0.997788 0.0010596 0)
(1 4.57471e-07 0)
(0.999996 1.42811e-06 0)
(0.999988 2.45912e-06 0)
(0.999976 3.50616e-06 0)
(0.999959 4.60817e-06 0)
(0.999938 5.80352e-06 0)
(0.999911 7.11918e-06 0)
(0.999879 8.59627e-06 0)
(0.99984 1.02664e-05 0)
(0.999794 1.22589e-05 0)
(0.999739 1.45785e-05 0)
(0.999674 1.75955e-05 0)
(0.999594 2.09764e-05 0)
(0.999501 2.6635e-05 0)
(0.999373 3.13872e-05 0)
(0.999243 4.7805e-05 0)
(0.998984 4.46361e-05 0)
(0.998843 0.000147239 0)
(0.99802 -2.57074e-06 0)
(0.997622 0.00106136 0)
(1 5.2734e-07 0)
(0.999996 1.64476e-06 0)
(0.999988 2.8312e-06 0)
(0.999976 4.03679e-06 0)
(0.999959 5.30559e-06 0)
(0.999938 6.68183e-06 0)
(0.999911 8.19659e-06 0)
(0.999879 9.89703e-06 0)
(0.99984 1.18197e-05 0)
(0.999794 1.41134e-05 0)
(0.999739 1.67846e-05 0)
(0.999674 2.0255e-05 0)
(0.999594 2.41517e-05 0)
(0.999501 3.06462e-05 0)
(0.999374 3.61739e-05 0)
(0.999243 5.47992e-05 0)
(0.998987 5.23162e-05 0)
(0.998833 0.000163479 0)
(0.998082 2.28562e-05 0)
(0.99752 0.00106269 0)
(1 6.01366e-07 0)
(0.999996 1.87385e-06 0)
(0.999988 3.22435e-06 0)
(0.999976 4.59748e-06 0)
(0.999959 6.04247e-06 0)
(0.999938 7.60985e-06 0)
(0.999911 9.33493e-06 0)
(0.999879 1.12714e-05 0)
(0.99984 1.34605e-05 0)
(0.999794 1.60725e-05 0)
(0.999739 1.9115e-05 0)
(0.999674 2.30637e-05 0)
(0.999594 2.75062e-05 0)
(0.999501 3.48769e-05 0)
(0.999374 4.12404e-05 0)
(0.999243 6.21114e-05 0)
(0.998991 6.06434e-05 0)
(0.998824 0.00017953 0)
(0.998136 5.10642e-05 0)
(0.99747 0.00106546 0)
(1 6.79772e-07 0)
(0.999996 2.11604e-06 0)
(0.999988 3.63966e-06 0)
(0.999976 5.18983e-06 0)
(0.999959 6.82093e-06 0)
(0.999938 8.59023e-06 0)
(0.999911 1.05375e-05 0)
(0.999879 1.27232e-05 0)
(0.99984 1.51937e-05 0)
(0.999794 1.81417e-05 0)
(0.999739 2.15767e-05 0)
(0.999674 2.60292e-05 0)
(0.999594 3.10497e-05 0)
(0.999501 3.93376e-05 0)
(0.999375 4.66039e-05 0)
(0.999243 6.97547e-05 0)
(0.998995 6.96365e-05 0)
(0.998817 0.0001955 0)
(0.998181 8.14168e-05 0)
(0.997458 0.00106915 0)
(1 7.62845e-07 0)
(0.999996 2.3721e-06 0)
(0.999988 4.07838e-06 0)
(0.999976 5.81561e-06 0)
(0.999959 7.6433e-06 0)
(0.999938 9.62591e-06 0)
(0.999911 1.18078e-05 0)
(0.999879 1.42568e-05 0)
(0.99984 1.70243e-05 0)
(0.999794 2.03272e-05 0)
(0.999739 2.41766e-05 0)
(0.999674 2.916e-05 0)
(0.999594 3.47924e-05 0)
(0.999502 4.40397e-05 0)
(0.999376 5.2279e-05 0)
(0.999243 7.77398e-05 0)
(0.999 7.93122e-05 0)
(0.998811 0.000211493 0)
(0.99822 0.000113394 0)
(0.997474 0.0010744 0)
(1 8.50853e-07 0)
(0.999996 2.6428e-06 0)
(0.999988 4.54177e-06 0)
(0.999976 6.47663e-06 0)
(0.999959 8.51199e-06 0)
(0.999938 1.07199e-05 0)
(0.999911 1.31496e-05 0)
(0.999879 1.58766e-05 0)
(0.99984 1.89577e-05 0)
(0.999794 2.2635e-05 0)
(0.999739 2.69225e-05 0)
(0.999674 3.24648e-05 0)
(0.999595 3.8745e-05 0)
(0.999502 4.89945e-05 0)
(0.999377 5.8284e-05 0)
(0.999243 8.60827e-05 0)
(0.999004 8.96763e-05 0)
(0.998808 0.00022761 0)
(0.998253 0.000146593 0)
(0.997509 0.00108035 0)
(1 9.44136e-07 0)
(0.999996 2.92906e-06 0)
(0.999988 5.0313e-06 0)
(0.999976 7.17498e-06 0)
(0.999959 9.42962e-06 0)
(0.999938 1.18755e-05 0)
(0.999911 1.45669e-05 0)
(0.999879 1.75875e-05 0)
(0.99984 2.09995e-05 0)
(0.999794 2.50722e-05 0)
(0.999739 2.98217e-05 0)
(0.999675 3.59527e-05 0)
(0.999595 4.29186e-05 0)
(0.999502 5.42145e-05 0)
(0.999377 6.46324e-05 0)
(0.999244 9.47939e-05 0)
(0.999008 0.000100739 0)
(0.998806 0.000243925 0)
(0.998282 0.000180715 0)
(0.997556 0.00108737 0)
(1 1.04299e-06 0)
(0.999996 3.23171e-06 0)
(0.999988 5.54832e-06 0)
(0.999976 7.91259e-06 0)
(0.999959 1.03988e-05 0)
(0.999938 1.30961e-05 0)
(0.999911 1.60637e-05 0)
(0.999879 1.93943e-05 0)
(0.99984 2.31555e-05 0)
(0.999795 2.76453e-05 0)
(0.99974 3.2883e-05 0)
(0.999675 3.96332e-05 0)
(0.999595 4.73247e-05 0)
(0.999503 5.97117e-05 0)
(0.999379 7.13441e-05 0)
(0.999245 0.000103892 0)
(0.999013 0.000112502 0)
(0.998806 0.000260503 0)
(0.998309 0.000215551 0)
(0.997611 0.0010946 0)
(1 1.14776e-06 0)
(0.999996 3.55168e-06 0)
(0.999988 6.09433e-06 0)
(0.999976 8.69163e-06 0)
(0.999959 1.14224e-05 0)
(0.999938 1.43851e-05 0)
(0.999911 1.76443e-05 0)
(0.999879 2.13021e-05 0)
(0.999841 2.5432e-05 0)
(0.999795 3.03616e-05 0)
(0.99974 3.61143e-05 0)
(0.999675 4.35157e-05 0)
(0.999596 5.19756e-05 0)
(0.999503 6.54986e-05 0)
(0.99938 7.84337e-05 0)
(0.999246 0.000113388 0)
(0.999018 0.00012498 0)
(0.998808 0.000277385 0)
(0.998334 0.000250965 0)
(0.99767 0.00110228 0)
(1 1.2588e-06 0)
(0.999996 3.88994e-06 0)
(0.999988 6.67091e-06 0)
(0.999976 9.51432e-06 0)
(0.999959 1.25034e-05 0)
(0.999938 1.57462e-05 0)
(0.999911 1.93133e-05 0)
(0.999879 2.33165e-05 0)
(0.999841 2.78352e-05 0)
(0.999795 3.32286e-05 0)
(0.99974 3.95251e-05 0)
(0.999676 4.76108e-05 0)
(0.999596 5.68834e-05 0)
(0.999504 7.15883e-05 0)
(0.999381 8.59209e-05 0)
(0.999247 0.000123299 0)
(0.999023 0.00013817 0)
(0.998811 0.000294594 0)
(0.998359 0.000286829 0)
(0.997731 0.00110976 0)
(1 1.37651e-06 0)
(0.999996 4.24762e-06 0)
(0.999988 7.27977e-06 0)
(0.999976 1.03831e-05 0)
(0.999959 1.36448e-05 0)
(0.999938 1.71835e-05 0)
(0.999911 2.10753e-05 0)
(0.999879 2.54429e-05 0)
(0.999841 3.03721e-05 0)
(0.999795 3.62543e-05 0)
(0.99974 4.31238e-05 0)
(0.999676 5.19284e-05 0)
(0.999597 6.20611e-05 0)
(0.999505 7.79937e-05 0)
(0.999383 9.38184e-05 0)
(0.999248 0.000133632 0)
(0.999028 0.00015209 0)
(0.998815 0.000312132 0)
(0.998384 0.00032306 0)
(0.997794 0.00111739 0)
(1 1.50127e-06 0)
(0.999996 4.62574e-06 0)
(0.999988 7.92262e-06 0)
(0.999976 1.13005e-05 0)
(0.999959 1.48499e-05 0)
(0.999938 1.87009e-05 0)
(0.999912 2.29355e-05 0)
(0.99988 2.76875e-05 0)
(0.999841 3.30494e-05 0)
(0.999795 3.94465e-05 0)
(0.999741 4.69208e-05 0)
(0.999676 5.648e-05 0)
(0.999598 6.75214e-05 0)
(0.999506 8.47283e-05 0)
(0.999384 0.000102147 0)
(0.99925 0.000144406 0)
(0.999034 0.000166735 0)
(0.998821 0.00033 0)
(0.99841 0.000359535 0)
(0.997857 0.00112464 0)
(1 1.6335e-06 0)
(0.999996 5.02543e-06 0)
(0.999988 8.60123e-06 0)
(0.999976 1.22689e-05 0)
(0.999959 1.61221e-05 0)
(0.999938 2.03026e-05 0)
(0.999912 2.48986e-05 0)
(0.99988 3.00559e-05 0)
(0.999841 3.58748e-05 0)
(0.999796 4.28138e-05 0)
(0.999741 5.09252e-05 0)
(0.999677 6.12755e-05 0)
(0.999598 7.32782e-05 0)
(0.999507 9.18048e-05 0)
(0.999386 0.000110921 0)
(0.999252 0.000155624 0)
(0.99904 0.000182119 0)
(0.998827 0.000348187 0)
(0.998437 0.000396177 0)
(0.997921 0.00113182 0)
(1 1.77361e-06 0)
(0.999996 5.4479e-06 0)
(0.999988 9.31753e-06 0)
(0.999976 1.3291e-05 0)
(0.999959 1.74649e-05 0)
(0.999938 2.1993e-05 0)
(0.999912 2.69703e-05 0)
(0.99988 3.25549e-05 0)
(0.999842 3.88554e-05 0)
(0.999796 4.63648e-05 0)
(0.999742 5.51479e-05 0)
(0.999678 6.63274e-05 0)
(0.999599 7.93445e-05 0)
(0.999508 9.92373e-05 0)
(0.999388 0.000120158 0)
(0.999255 0.000167304 0)
(0.999047 0.000198233 0)
(0.998835 0.00036668 0)
(0.998464 0.000432827 0)
(0.997985 0.00113853 0)
(1 1.92208e-06 0)
(0.999996 5.89443e-06 0)
(0.999988 1.00735e-05 0)
(0.999976 1.43698e-05 0)
(0.999959 1.88821e-05 0)
(0.999938 2.37766e-05 0)
(0.999912 2.91559e-05 0)
(0.99988 3.51907e-05 0)
(0.999842 4.19997e-05 0)
(0.999796 5.01084e-05 0)
(0.999742 5.95984e-05 0)
(0.999678 7.16457e-05 0)
(0.9996 8.57348e-05 0)
(0.999509 0.000107038 0)
(0.999391 0.00012987 0)
(0.999258 0.000179444 0)
(0.999055 0.000215082 0)
(0.998844 0.000385462 0)
(0.998493 0.000469392 0)
(0.99805 0.00114516 0)
(1 2.07934e-06 0)
(0.999996 6.36631e-06 0)
(0.999988 1.08712e-05 0)
(0.999976 1.5508e-05 0)
(0.999959 2.03775e-05 0)
(0.999938 2.56584e-05 0)
(0.999912 3.14615e-05 0)
(0.99988 3.79706e-05 0)
(0.999842 4.53152e-05 0)
(0.999797 5.40539e-05 0)
(0.999743 6.42883e-05 0)
(0.999679 7.72436e-05 0)
(0.999601 9.24614e-05 0)
(0.999511 0.000115221 0)
(0.999393 0.000140073 0)
(0.999261 0.00019206 0)
(0.999063 0.000232641 0)
(0.998855 0.000404519 0)
(0.998523 0.000505665 0)
(0.998115 0.00115132 0)
(1 2.24588e-06 0)
(0.999996 6.86484e-06 0)
(0.999988 1.17128e-05 0)
(0.999976 1.67086e-05 0)
(0.999959 2.19549e-05 0)
(0.999938 2.76431e-05 0)
(0.999912 3.38927e-05 0)
(0.999881 4.09009e-05 0)
(0.999842 4.88107e-05 0)
(0.999797 5.82106e-05 0)
(0.999743 6.92275e-05 0)
(0.99968 8.31313e-05 0)
(0.999603 9.95389e-05 0)
(0.999512 0.000123797 0)
(0.999396 0.000150776 0)
(0.999265 0.000205152 0)
(0.999071 0.000250899 0)
(0.998866 0.00042384 0)
(0.998554 0.000541533 0)
(0.998181 0.0011573 0)
(1 2.42217e-06 0)
(0.999996 7.39148e-06 0)
(0.999988 1.26005e-05 0)
(0.999976 1.79749e-05 0)
(0.99996 2.36186e-05 0)
(0.999939 2.97358e-05 0)
(0.999912 3.64561e-05 0)
(0.999881 4.39896e-05 0)
(0.999843 5.2494e-05 0)
(0.999798 6.25882e-05 0)
(0.999744 7.44277e-05 0)
(0.999681 8.93224e-05 0)
(0.999604 0.000106979 0)
(0.999514 0.000132781 0)
(0.9994 0.000161992 0)
(0.999269 0.000218732 0)
(0.999081 0.000269813 0)
(0.998879 0.000443408 0)
(0.998586 0.000576762 0)
(0.998246 0.00116279 0)
(1 2.6087e-06 0)
(0.999996 7.94765e-06 0)
(0.999988 1.35367e-05 0)
(0.999976 1.93099e-05 0)
(0.99996 2.53729e-05 0)
(0.999939 3.19417e-05 0)
(0.999913 3.91575e-05 0)
(0.999881 4.7243e-05 0)
(0.999843 5.6375e-05 0)
(0.999798 6.71961e-05 0)
(0.999745 7.98991e-05 0)
(0.999682 9.5826e-05 0)
(0.999606 0.000114795 0)
(0.999517 0.000142182 0)
(0.999403 0.000173722 0)
(0.999274 0.000232794 0)
(0.999091 0.000289356 0)
(0.998894 0.00046321 0)
(0.998619 0.000611246 0)
(0.998311 0.00116811 0)
(1 2.80597e-06 0)
(0.999996 8.53491e-06 0)
(0.999988 1.45237e-05 0)
(0.999976 2.07171e-05 0)
(0.99996 2.7222e-05 0)
(0.999939 3.42664e-05 0)
(0.999913 4.20038e-05 0)
(0.999881 5.06699e-05 0)
(0.999844 6.04612e-05 0)
(0.999799 7.20444e-05 0)
(0.999746 8.56531e-05 0)
(0.999683 0.000102656 0)
(0.999608 0.000122998 0)
(0.999519 0.000152012 0)
(0.999408 0.000185974 0)
(0.99928 0.000247347 0)
(0.999102 0.000309464 0)
(0.99891 0.000483222 0)
(0.998653 0.000644727 0)
(0.998376 0.00117293 0)
(1 3.01448e-06 0)
(0.999996 9.15469e-06 0)
(0.999988 1.55639e-05 0)
(0.999976 2.21997e-05 0)
(0.99996 2.91704e-05 0)
(0.999939 3.67152e-05 0)
(0.999913 4.50011e-05 0)
(0.999882 5.42768e-05 0)
(0.999844 6.47623e-05 0)
(0.9998 7.71427e-05 0)
(0.999747 9.16997e-05 0)
(0.999685 0.000109822 0)
(0.99961 0.000131599 0)
(0.999522 0.00016228 0)
(0.999412 0.000198743 0)
(0.999286 0.000262387 0)
(0.999114 0.000330084 0)
(0.998927 0.000503427 0)
(0.998689 0.000677095 0)
(0.998441 0.00117747 0)
(1 3.23473e-06 0)
(0.999996 9.80863e-06 0)
(0.999988 1.66601e-05 0)
(0.999976 2.37614e-05 0)
(0.99996 3.12227e-05 0)
(0.999939 3.92938e-05 0)
(0.999914 4.81566e-05 0)
(0.999882 5.80727e-05 0)
(0.999845 6.9286e-05 0)
(0.999801 8.25011e-05 0)
(0.999748 9.80497e-05 0)
(0.999686 0.000117337 0)
(0.999612 0.000140605 0)
(0.999525 0.000172996 0)
(0.999417 0.000212028 0)
(0.999293 0.000277911 0)
(0.999127 0.000351137 0)
(0.998946 0.000523791 0)
(0.998725 0.000708114 0)
(0.998505 0.00118148 0)
(1 3.46718e-06 0)
(0.999996 1.04982e-05 0)
(0.999988 1.78146e-05 0)
(0.999976 2.54054e-05 0)
(0.99996 3.33834e-05 0)
(0.99994 4.20075e-05 0)
(0.999914 5.14765e-05 0)
(0.999883 6.20636e-05 0)
(0.999846 7.40426e-05 0)
(0.999802 8.81282e-05 0)
(0.999749 0.000104713 0)
(0.999688 0.000125207 0)
(0.999615 0.000150026 0)
(0.999529 0.000184161 0)
(0.999423 0.000225817 0)
(0.9993 0.000293907 0)
(0.999141 0.000372555 0)
(0.998967 0.000544282 0)
(0.998762 0.000737719 0)
(0.998569 0.00118516 0)
(1 3.71235e-06 0)
(0.999996 1.12251e-05 0)
(0.999989 1.90302e-05 0)
(0.999977 2.71356e-05 0)
(0.99996 3.56572e-05 0)
(0.99994 4.48625e-05 0)
(0.999914 5.49679e-05 0)
(0.999883 6.62588e-05 0)
(0.999846 7.90389e-05 0)
(0.999803 9.4034e-05 0)
(0.999751 0.000111698 0)
(0.99969 0.000133444 0)
(0.999618 0.000159866 0)
(0.999533 0.000195782 0)
(0.999429 0.000240098 0)
(0.999309 0.000310363 0)
(0.999156 0.000394242 0)
(0.998989 0.00056484 0)
(0.9988 0.00076569 0)
(0.998632 0.00118825 0)
(1 3.97072e-06 0)
(0.999996 1.19909e-05 0)
(0.999989 2.03094e-05 0)
(0.999977 2.89554e-05 0)
(0.999961 3.80486e-05 0)
(0.99994 4.78641e-05 0)
(0.999915 5.86367e-05 0)
(0.999884 7.06648e-05 0)
(0.999847 8.42838e-05 0)
(0.999804 0.000100227 0)
(0.999753 0.000119012 0)
(0.999692 0.000142055 0)
(0.999621 0.000170128 0)
(0.999537 0.000207859 0)
(0.999436 0.000254848 0)
(0.999318 0.000327257 0)
(0.999172 0.000416107 0)
(0.999012 0.000585414 0)
(0.99884 0.000791984 0)
(0.998693 0.00119087 0)
(1 4.24278e-06 0)
(0.999996 1.27971e-05 0)
(0.999989 2.16551e-05 0)
(0.999977 3.08686e-05 0)
(0.999961 4.05623e-05 0)
(0.99994 5.10183e-05 0)
(0.999915 6.24901e-05 0)
(0.999885 7.52899e-05 0)
(0.999848 8.97843e-05 0)
(0.999805 0.000106715 0)
(0.999754 0.000126665 0)
(0.999695 0.000151047 0)
(0.999624 0.000180812 0)
(0.999542 0.000220389 0)
(0.999443 0.000270047 0)
(0.999329 0.00034456 0)
(0.999189 0.000438051 0)
(0.999037 0.000605918 0)
(0.99888 0.000816447 0)
(0.998754 0.00119281 0)
(1 4.52893e-06 0)
(0.999996 1.36452e-05 0)
(0.999989 2.30697e-05 0)
(0.999977 3.28783e-05 0)
(0.999961 4.32027e-05 0)
(0.999941 5.43295e-05 0)
(0.999916 6.65337e-05 0)
(0.999886 8.01391e-05 0)
(0.999849 9.55487e-05 0)
(0.999807 0.000113504 0)
(0.999757 0.000134661 0)
(0.999698 0.000160421 0)
(0.999628 0.000191918 0)
(0.999547 0.000233359 0)
(0.999451 0.000285664 0)
(0.99934 0.000362232 0)
(0.999207 0.000459984 0)
(0.999064 0.000626279 0)
(0.998921 0.000839113 0)
(0.998814 0.00119418 0)
(1 4.82968e-06 0)
(0.999996 1.45369e-05 0)
(0.999989 2.4556e-05 0)
(0.999977 3.49885e-05 0)
(0.999961 4.5974e-05 0)
(0.999941 5.78041e-05 0)
(0.999916 7.07738e-05 0)
(0.999886 8.52207e-05 0)
(0.999851 0.000101582 0)
(0.999808 0.000120602 0)
(0.999759 0.000143003 0)
(0.999701 0.000170182 0)
(0.999633 0.000203437 0)
(0.999553 0.000246763 0)
(0.99946 0.000301662 0)
(0.999352 0.000380227 0)
(0.999226 0.000481791 0)
(0.999092 0.000646378 0)
(0.998962 0.000859856 0)
(0.998873 0.00119477 0)
(1 5.14544e-06 0)
(0.999996 1.54737e-05 0)
(0.999989 2.61164e-05 0)
(0.999977 3.72026e-05 0)
(0.999962 4.88804e-05 0)
(0.999942 6.14464e-05 0)
(0.999917 7.5215e-05 0)
(0.999887 9.05395e-05 0)
(0.999852 0.000107889 0)
(0.99981 0.000128013 0)
(0.999761 0.000151693 0)
(0.999704 0.000180327 0)
(0.999637 0.000215357 0)
(0.99956 0.000260577 0)
(0.999469 0.000317991 0)
(0.999366 0.000398482 0)
(0.999246 0.000503367 0)
(0.999121 0.000666114 0)
(0.999004 0.000878727 0)
(0.998931 0.00119462 0)
(1 5.47664e-06 0)
(0.999997 1.64569e-05 0)
(0.999989 2.77534e-05 0)
(0.999978 3.95236e-05 0)
(0.999962 5.19257e-05 0)
(0.999942 6.52613e-05 0)
(0.999918 7.98627e-05 0)
(0.999888 9.61011e-05 0)
(0.999854 0.000114473 0)
(0.999812 0.000135738 0)
(0.999764 0.000160731 0)
(0.999708 0.000190852 0)
(0.999643 0.000227666 0)
(0.999567 0.00027478 0)
(0.999479 0.000334611 0)
(0.99938 0.000416932 0)
(0.999267 0.000524615 0)
(0.999151 0.000685356 0)
(0.999047 0.000895684 0)
(0.998988 0.0011936 0)
(1 5.82356e-06 0)
(0.999997 1.74873e-05 0)
(0.999989 2.94685e-05 0)
(0.999978 4.19542e-05 0)
(0.999962 5.51124e-05 0)
(0.999943 6.92517e-05 0)
(0.999919 8.4719e-05 0)
(0.99989 0.000101908 0)
(0.999855 0.000121337 0)
(0.999815 0.000143779 0)
(0.999767 0.000170112 0)
(0.999712 0.000201746 0)
(0.999649 0.000240341 0)
(0.999575 0.000289335 0)
(0.999491 0.000351461 0)
(0.999395 0.000435499 0)
(0.99929 0.000545436 0)
(0.999183 0.000704004 0)
(0.99909 0.000910841 0)
(0.999043 0.00119179 0)
(1 6.18657e-06 0)
(0.999997 1.85662e-05 0)
(0.999989 3.1264e-05 0)
(0.999978 4.44968e-05 0)
(0.999963 5.84438e-05 0)
(0.999944 7.34209e-05 0)
(0.99992 8.97881e-05 0)
(0.999891 0.000107962 0)
(0.999857 0.000128481 0)
(0.999817 0.000152133 0)
(0.999771 0.000179831 0)
(0.999717 0.000212999 0)
(0.999655 0.000253361 0)
(0.999584 0.000304208 0)
(0.999503 0.000368488 0)
(0.999412 0.000454095 0)
(0.999313 0.00056574 0)
(0.999215 0.000721918 0)
(0.999134 0.000924191 0)
(0.999097 0.00118907 0)
(1 6.56579e-06 0)
(0.999997 1.9694e-05 0)
(0.99999 3.3141e-05 0)
(0.999978 4.7153e-05 0)
(0.999963 6.19216e-05 0)
(0.999944 7.777e-05 0)
(0.999921 9.50705e-05 0)
(0.999893 0.000114263 0)
(0.999859 0.000135903 0)
(0.99982 0.000160794 0)
(0.999775 0.000189876 0)
(0.999722 0.000224587 0)
(0.999662 0.000266695 0)
(0.999593 0.000319346 0)
(0.999515 0.000385625 0)
(0.99943 0.000472625 0)
(0.999338 0.000585438 0)
(0.999249 0.000738998 0)
(0.999178 0.000935857 0)
(0.99915 0.00118553 0)
(1 6.96149e-06 0)
(0.999997 2.08715e-05 0)
(0.99999 3.51006e-05 0)
(0.999979 4.99241e-05 0)
(0.999964 6.55471e-05 0)
(0.999945 8.23002e-05 0)
(0.999922 0.000100567 0)
(0.999894 0.00012081 0)
(0.999861 0.0001436 0)
(0.999823 0.000169755 0)
(0.999779 0.000200236 0)
(0.999728 0.000236491 0)
(0.999669 0.00028031 0)
(0.999603 0.0003347 0)
(0.999529 0.000402803 0)
(0.999448 0.000490987 0)
(0.999364 0.000604446 0)
(0.999283 0.000755121 0)
(0.999222 0.000945863 0)
(0.999202 0.0011811 0)
(1 7.37356e-06 0)
(0.999997 2.20983e-05 0)
(0.99999 3.71426e-05 0)
(0.999979 5.28102e-05 0)
(0.999964 6.93195e-05 0)
(0.999946 8.70101e-05 0)
(0.999923 0.000106274 0)
(0.999896 0.000127598 0)
(0.999864 0.000151562 0)
(0.999826 0.000179001 0)
(0.999783 0.000210888 0)
(0.999734 0.000248679 0)
(0.999677 0.000294159 0)
(0.999614 0.000350209 0)
(0.999544 0.000419944 0)
(0.999468 0.000509089 0)
(0.99939 0.000622682 0)
(0.999318 0.000770221 0)
(0.999266 0.00095434 0)
(0.999253 0.0011759 0)
(1 7.80207e-06 0)
(0.999997 2.33746e-05 0)
(0.99999 3.92674e-05 0)
(0.999979 5.58111e-05 0)
(0.999965 7.32386e-05 0)
(0.999947 9.18978e-05 0)
(0.999925 0.00011219 0)
(0.999898 0.00013462 0)
(0.999867 0.000159781 0)
(0.99983 0.000188518 0)
(0.999788 0.000221812 0)
(0.99974 0.000261116 0)
(0.999686 0.000308198 0)
(0.999626 0.000365804 0)
(0.999559 0.000436968 0)
(0.999489 0.000526815 0)
(0.999418 0.000640071 0)
(0.999353 0.000784193 0)
(0.999309 0.000961314 0)
(0.999303 0.00116988 0)
(1 8.24663e-06 0)
(0.999997 2.46991e-05 0)
(0.99999 4.14732e-05 0)
(0.99998 5.89245e-05 0)
(0.999966 7.73009e-05 0)
(0.999948 9.69581e-05 0)
(0.999926 0.000118306 0)
(0.9999 0.000141866 0)
(0.99987 0.000168241 0)
(0.999834 0.000198283 0)
(0.999794 0.000232976 0)
(0.999747 0.000273761 0)
(0.999696 0.000322372 0)
(0.999638 0.000381412 0)
(0.999576 0.000453792 0)
(0.999511 0.000544072 0)
(0.999446 0.000656544 0)
(0.999389 0.000796998 0)
(0.999353 0.000966909 0)
(0.999352 0.00116316 0)
(1 8.70706e-06 0)
(0.999997 2.60713e-05 0)
(0.999991 4.37588e-05 0)
(0.99998 6.21482e-05 0)
(0.999966 8.15029e-05 0)
(0.999949 0.000102185 0)
(0.999928 0.000124614 0)
(0.999902 0.000149324 0)
(0.999873 0.000176925 0)
(0.999838 0.000208271 0)
(0.999799 0.000244346 0)
(0.999755 0.000286565 0)
(0.999706 0.000336618 0)
(0.999652 0.000396952 0)
(0.999593 0.00047032 0)
(0.999533 0.000560744 0)
(0.999475 0.000672025 0)
(0.999426 0.000808555 0)
(0.999396 0.000971136 0)
(0.999399 0.00115571 0)
(1 9.18262e-06 0)
(0.999997 2.7489e-05 0)
(0.999991 4.61208e-05 0)
(0.999981 6.54774e-05 0)
(0.999967 8.58377e-05 0)
(0.99995 0.00010757 0)
(0.99993 0.000131101 0)
(0.999905 0.000156974 0)
(0.999876 0.000185808 0)
(0.999843 0.000218449 0)
(0.999806 0.000255879 0)
(0.999763 0.000299474 0)
(0.999717 0.000350867 0)
(0.999666 0.000412341 0)
(0.999612 0.000486462 0)
(0.999557 0.000576743 0)
(0.999505 0.000686455 0)
(0.999462 0.000818854 0)
(0.999439 0.000974095 0)
(0.999445 0.00114763 0)
(1 9.67274e-06 0)
(0.999997 2.89504e-05 0)
(0.999991 4.85557e-05 0)
(0.999981 6.89069e-05 0)
(0.999968 9.02977e-05 0)
(0.999952 0.000113102 0)
(0.999932 0.000137753 0)
(0.999908 0.000164798 0)
(0.99988 0.000194863 0)
(0.999848 0.000228783 0)
(0.999812 0.000267528 0)
(0.999772 0.000312426 0)
(0.999728 0.000365043 0)
(0.99968 0.000427486 0)
(0.999631 0.000502115 0)
(0.999581 0.000591957 0)
(0.999535 0.000699764 0)
(0.999499 0.000827839 0)
(0.999481 0.000975788 0)
(0.999491 0.00113888 0)
(1 1.01762e-05 0)
(0.999997 3.04518e-05 0)
(0.999991 5.10578e-05 0)
(0.999982 7.24283e-05 0)
(0.999969 9.48714e-05 0)
(0.999953 0.000118765 0)
(0.999934 0.000144547 0)
(0.999911 0.000172768 0)
(0.999884 0.000204056 0)
(0.999854 0.000239227 0)
(0.99982 0.000279238 0)
(0.999782 0.000325355 0)
(0.99974 0.000379066 0)
(0.999696 0.000442297 0)
(0.99965 0.000517188 0)
(0.999605 0.00060631 0)
(0.999565 0.000711905 0)
(0.999535 0.000835519 0)
(0.999522 0.000976298 0)
(0.999535 0.00112954 0)
(1 1.0692e-05 0)
(0.999997 3.19901e-05 0)
(0.999992 5.36209e-05 0)
(0.999982 7.60325e-05 0)
(0.99997 9.95458e-05 0)
(0.999955 0.000124541 0)
(0.999936 0.000151463 0)
(0.999914 0.000180856 0)
(0.999889 0.000213348 0)
(0.99986 0.000249734 0)
(0.999827 0.000290947 0)
(0.999792 0.000338184 0)
(0.999753 0.000392846 0)
(0.999712 0.000456674 0)
(0.999671 0.000531574 0)
(0.999631 0.000619699 0)
(0.999596 0.000722821 0)
(0.999571 0.00084186 0)
(0.999563 0.000975628 0)
(0.999578 0.0011196 0)
(1 1.12184e-05 0)
(0.999997 3.35597e-05 0)
(0.999992 5.62362e-05 0)
(0.999983 7.97069e-05 0)
(0.999971 0.000104304 0)
(0.999956 0.00013041 0)
(0.999939 0.000158469 0)
(0.999918 0.000189023 0)
(0.999893 0.000222693 0)
(0.999866 0.000260247 0)
(0.999835 0.000302587 0)
(0.999802 0.000350836 0)
(0.999766 0.000406295 0)
(0.999729 0.000470522 0)
(0.999692 0.000545189 0)
(0.999656 0.000632061 0)
(0.999627 0.000732481 0)
(0.999607 0.000846886 0)
(0.999603 0.000973845 0)
(0.999619 0.00110911 0)
(1 1.17534e-05 0)
(0.999998 3.51555e-05 0)
(0.999992 5.88942e-05 0)
(0.999984 8.34376e-05 0)
(0.999972 0.000109127 0)
(0.999958 0.000136345 0)
(0.999941 0.000165535 0)
(0.999921 0.00019723 0)
(0.999898 0.00023204 0)
(0.999873 0.000270705 0)
(0.999844 0.000314085 0)
(0.999813 0.000363225 0)
(0.99978 0.000419318 0)
(0.999746 0.000483741 0)
(0.999713 0.000557933 0)
(0.999682 0.000643311 0)
(0.999658 0.000740842 0)
(0.999642 0.000850582 0)
(0.999642 0.000970959 0)
(0.99966 0.00109805 0)
(1 1.22948e-05 0)
(0.999998 3.67699e-05 0)
(0.999993 6.15827e-05 0)
(0.999984 8.72069e-05 0)
(0.999974 0.000113991 0)
(0.99996 0.000142316 0)
(0.999944 0.000172622 0)
(0.999925 0.00020543 0)
(0.999904 0.000241335 0)
(0.99988 0.000281041 0)
(0.999853 0.000325363 0)
(0.999824 0.000375263 0)
(0.999795 0.000431822 0)
(0.999764 0.000496239 0)
(0.999735 0.00056973 0)
(0.999709 0.0006534 0)
(0.999688 0.000747892 0)
(0.999677 0.000852981 0)
(0.999679 0.000967024 0)
(0.999699 0.00108646 0)
(1 1.284e-05 0)
(0.999998 3.83955e-05 0)
(0.999993 6.42882e-05 0)
(0.999985 9.09953e-05 0)
(0.999975 0.000118869 0)
(0.999962 0.000148289 0)
(0.999947 0.000179688 0)
(0.999929 0.00021357 0)
(0.999909 0.000250513 0)
(0.999887 0.000291181 0)
(0.999862 0.000336338 0)
(0.999836 0.000386859 0)
(0.999809 0.000443708 0)
(0.999782 0.000507919 0)
(0.999757 0.000580492 0)
(0.999735 0.000662263 0)
(0.999719 0.000753605 0)
(0.999711 0.000854084 0)
(0.999716 0.000962055 0)
(0.999736 0.00107432 0)
(1 1.33857e-05 0)
(0.999998 4.00222e-05 0)
(0.999993 6.69946e-05 0)
(0.999986 9.47798e-05 0)
(0.999976 0.000123732 0)
(0.999965 0.000154226 0)
(0.99995 0.000186685 0)
(0.999934 0.000221595 0)
(0.999915 0.000259508 0)
(0.999895 0.00030105 0)
(0.999872 0.000346924 0)
(0.999849 0.000397921 0)
(0.999825 0.000454888 0)
(0.999801 0.000518699 0)
(0.999779 0.000590157 0)
(0.999761 0.000669867 0)
(0.999748 0.00075798 0)
(0.999744 0.000853924 0)
(0.999752 0.000956096 0)
(0.999772 0.00106166 0)
(1 1.39284e-05 0)
(0.999998 4.16401e-05 0)
(0.999994 6.96843e-05 0)
(0.999987 9.85352e-05 0)
(0.999978 0.000128547 0)
(0.999967 0.000160085 0)
(0.999954 0.000193562 0)
(0.999938 0.000229443 0)
(0.999921 0.00026825 0)
(0.999902 0.000310566 0)
(0.999882 0.000357034 0)
(0.999861 0.000408355 0)
(0.99984 0.000465267 0)
(0.99982 0.000528491 0)
(0.999801 0.000598656 0)
(0.999787 0.000676168 0)
(0.999778 0.000761009 0)
(0.999777 0.000852515 0)
(0.999786 0.000949165 0)
(0.999807 0.00104846 0)
(1 1.44644e-05 0)
(0.999998 4.3237e-05 0)
(0.999994 7.23372e-05 0)
(0.999988 0.000102233 0)
(0.99998 0.000133275 0)
(0.999969 0.00016582 0)
(0.999957 0.000200263 0)
(0.999943 0.000237048 0)
(0.999928 0.000276664 0)
(0.999911 0.000319647 0)
(0.999893 0.000366578 0)
(0.999874 0.000418074 0)
(0.999856 0.000474761 0)
(0.999838 0.000537225 0)
(0.999823 0.00060594 0)
(0.999812 0.000681149 0)
(0.999806 0.000762702 0)
(0.999808 0.000849892 0)
(0.999819 0.000941298 0)
(0.99984 0.00103473 0)
(1 1.49891e-05 0)
(0.999998 4.48001e-05 0)
(0.999995 7.49317e-05 0)
(0.999989 0.000105842 0)
(0.999981 0.000137877 0)
(0.999972 0.00017138 0)
(0.999961 0.000206729 0)
(0.999948 0.000244341 0)
(0.999934 0.000284672 0)
(0.999919 0.000328209 0)
(0.999903 0.000375469 0)
(0.999887 0.000426988 0)
(0.999871 0.000483287 0)
(0.999857 0.000544832 0)
(0.999845 0.000611961 0)
(0.999837 0.000684786 0)
(0.999834 0.000763064 0)
(0.999838 0.000846075 0)
(0.99985 0.000932514 0)
(0.999872 0.00102048 0)
(1 1.5498e-05 0)
(0.999998 4.63155e-05 0)
(0.999995 7.74444e-05 0)
(0.99999 0.000109331 0)
(0.999983 0.00014231 0)
(0.999974 0.000176714 0)
(0.999964 0.000212898 0)
(0.999953 0.000251253 0)
(0.999941 0.000292197 0)
(0.999927 0.000336168 0)
(0.999914 0.000383622 0)
(0.9999 0.000435015 0)
(0.999887 0.000490774 0)
(0.999875 0.000551257 0)
(0.999866 0.000616687 0)
(0.999861 0.000687075 0)
(0.99986 0.000762115 0)
(0.999866 0.000841097 0)
(0.99988 0.000922842 0)
(0.999902 0.0010057 0)
(1 1.5986e-05 0)
(0.999999 4.77682e-05 0)
(0.999996 7.98503e-05 0)
(0.999991 0.000112663 0)
(0.999985 0.00014653 0)
(0.999977 0.000181768 0)
(0.999968 0.000218708 0)
(0.999958 0.000257712 0)
(0.999947 0.00029916 0)
(0.999936 0.000343443 0)
(0.999924 0.000390956 0)
(0.999913 0.000442079 0)
(0.999902 0.000497156 0)
(0.999893 0.000556449 0)
(0.999887 0.00062009 0)