# Region type : patch inlet
# Faces       : 30
# Area        : 5.000000e-05
# Scale factor: 1.000000e+00
# Time        	areaAverage(p)
81            	2.043494e-01
