/*--------------------------------*- C++ -*----------------------------------*\
| =========                 |                                                 |
| \\      /  F ield         | OpenFOAM: The Open Source CFD Toolbox           |
|  \\    /   O peration     | Version:  v1912                                 |
|   \\  /    A nd           | Website:  www.openfoam.com                      |
|    \\/     M anipulation  |                                                 |
\*---------------------------------------------------------------------------*/
FoamFile
{
    version     2.0;
    format      ascii;
    class       volScalarField;
    location    "3500";
    object      p;
}
// * * * * * * * * * * * * * * * * * * * * * * * * * * * * * * * * * * * * * //

dimensions      [0 2 -2 0 0 0 0];


internalField   nonuniform List<scalar> 
3101
(
279.812
334.225
405.375
458.153
279.499
333.643
404.554
456.584
278.938
332.531
403.037
453.73
278.093
330.838
400.738
449.288
276.967
328.581
397.657
443.136
275.566
325.776
393.8
435.166
273.896
322.435
389.155
425.202
271.963
318.57
383.704
413.001
269.774
314.198
377.424
398.268
267.338
309.342
370.288
380.639
264.665
304.03
362.263
359.672
261.766
298.297
353.305
334.818
258.654
292.187
343.359
305.403
255.345
285.756
332.352
270.59
251.855
279.071
320.226
229.321
248.308
272.412
307.246
183.836
244.7
265.838
293.633
165.354
240.915
259.187
280.007
162.205
236.972
252.52
266.764
159.148
232.885
245.863
253.921
153.419
228.672
239.232
241.518
147.394
224.35
232.648
229.649
142.129
219.935
226.127
218.388
137.278
215.446
219.682
207.762
132.499
210.898
213.32
197.772
127.767
206.308
207.048
188.407
123.136
201.691
200.872
179.648
118.615
197.063
194.8
171.469
114.191
192.436
188.838
163.836
109.867
187.822
182.992
156.715
105.664
183.233
177.271
150.07
101.605
178.68
171.68
143.865
97.703
174.17
166.225
138.066
93.9707
160.912
132.641
90.4321
155.746
127.559
87.1042
150.728
122.791
83.9929
145.863
118.313
81.096
141.152
114.101
78.4066
136.595
110.132
75.9138
132.191
106.387
73.6044
127.941
102.847
71.4635
123.843
99.4966
69.4761
119.893
96.3196
67.6271
116.09
93.3031
65.9022
112.43
90.4349
64.288
108.909
87.7043
62.772
105.524
85.1014
61.3427
102.269
82.6172
59.99
99.1411
80.2437
58.7044
96.1346
77.9736
57.4779
93.245
75.8001
56.3034
90.4673
73.7172
55.1744
87.7968
71.719
54.0858
85.2287
69.8003
53.0327
82.7582
67.9562
52.0113
80.3807
66.1822
51.0181
78.0917
64.474
50.0503
75.8869
62.8276
49.1052
73.7621
61.2392
48.1809
71.7132
59.7054
47.2754
69.7364
58.2228
46.3872
67.828
56.7883
45.5149
65.9845
55.399
44.6573
64.2025
54.0522
43.8132
62.4788
52.7453
42.9818
60.8104
51.4759
42.1621
59.1943
50.2417
41.3534
57.628
49.0407
40.5549
56.1087
47.8707
39.766
54.6341
46.7301
38.9861
53.2019
45.6169
38.2145
51.8097
44.5297
37.4509
50.4556
43.4669
36.6946
49.1376
42.4271
35.9453
47.8539
41.409
35.2026
46.6026
40.4113
34.466
45.3822
39.4329
33.7353
44.1911
38.4728
33.0101
43.0278
37.5299
32.2902
41.891
36.6034
31.5752
40.7794
35.6924
30.865
39.6917
34.7961
30.1595
38.6269
33.9139
29.4583
37.5838
33.045
28.7615
36.5615
32.1888
28.0688
35.5591
31.3449
27.3802
34.5757
30.5127
26.6957
33.6105
29.6918
26.0153
32.6627
28.8817
25.3388
31.7317
28.0821
24.6664
30.817
27.2927
23.998
29.9177
26.5132
23.3337
29.0336
25.7433
22.6737
28.1641
24.983
22.0179
27.3087
24.2319
21.3666
26.4672
23.49
20.7198
25.6391
22.7572
20.0778
24.8241
22.0333
19.4406
24.022
21.3185
18.8086
23.2326
20.6125
18.1818
22.4557
19.9155
17.5605
21.6911
19.2275
16.945
20.9386
18.5486
16.3355
20.1983
17.8788
15.7322
19.47
17.2182
15.1355
18.7537
16.5669
14.5456
18.0493
15.9252
13.9628
17.357
15.293
13.3873
16.6766
14.6707
12.8196
16.0083
14.0584
12.2599
15.3521
13.4563
11.7086
14.7081
12.8645
11.1659
14.0764
12.2834
10.6321
13.4571
11.7131
10.1077
12.8503
11.1538
9.59295
12.2562
10.6058
9.08813
11.6749
10.0692
8.59359
11.1066
9.54448
8.10965
10.5513
9.0317
7.63662
10.0093
8.53113
7.17481
9.48076
8.04301
6.72452
8.96575
7.56756
6.28604
8.46447
7.105
5.85966
7.97708
6.65556
5.44565
7.50372
6.21943
5.04427
7.04454
5.79682
4.65576
6.59968
5.3879
4.28037
6.16926
4.99287
3.91829
5.7534
4.61188
3.56975
5.35222
4.24507
3.23491
4.9658
3.89258
2.91395
4.59424
3.55452
2.60701
4.23759
3.231
2.31422
3.8959
2.92209
2.03568
3.56922
2.62785
1.77149
3.25756
2.34833
1.52169
2.96092
2.08355
1.28634
2.67927
1.8335
1.06545
2.41257
1.59816
0.859011
2.16077
1.37748
0.666996
1.92376
1.1714
0.48935
1.70146
0.979817
0.325995
1.49371
0.802623
0.176827
1.30038
0.639671
0.0417165
1.12127
0.490796
-0.0794909
0.956184
0.355803
-0.186975
0.804884
0.234474
-0.280944
0.667112
0.126561
-0.36163
0.542578
0.0317913
-0.429295
0.430966
-0.0501391
-0.484226
0.331926
-0.119562
-0.526742
0.24508
-0.176841
-0.557188
0.170012
-0.222372
-0.575945
0.106274
-0.256583
-0.583421
0.0533777
-0.279942
-0.580062
0.0107958
-0.29295
-0.566347
-0.0220479
-0.296162
-0.542809
-0.0457584
-0.290141
-0.509967
-0.0610708
-0.275627
-0.46858
-0.0685175
-0.253019
-0.418896
-0.0694728
-0.223881
-0.362687
-0.0633432
-0.187115
-0.298359
-0.0544534
-0.147834
-0.231734
-0.0368557
-0.0987216
-0.154382
-0.0249234
-0.0559166
-0.0835862
-285.508
-142.502
-98.6019
-108.328
-116.126
-116.756
-113.821
-107.494
-97.735
-85.7237
-73.1131
-61.4422
-51.6943
-44.3538
-39.0257
-35.6265
-33.0086
-267.466
-139.049
-97.6031
-108.486
-116.066
-116.483
-113.488
-107.146
-97.4107
-85.4657
-72.9445
-61.3629
-51.6869
-44.3942
-39.0888
-35.6973
-33.0754
-243.8
-135.444
-96.2528
-108.295
-115.738
-115.955
-112.955
-106.657
-96.9935
-85.1455
-72.7298
-61.2445
-51.6443
-44.4056
-39.1295
-35.7557
-33.133
-218.371
-131.232
-94.1184
-107.323
-114.93
-115.036
-112.117
-105.973
-96.4687
-84.7765
-72.4944
-61.1099
-51.5794
-44.3894
-39.1416
-35.7916
-33.1721
-192.702
-125.75
-90.9562
-105.318
-113.471
-113.604
-110.854
-104.984
-95.7552
-84.3096
-72.2202
-60.9623
-51.5045
-44.3579
-39.1339
-35.8098
-33.1958
-167.655
-119.108
-86.9802
-102.287
-111.272
-111.595
-109.1
-103.616
-94.7823
-83.6906
-71.8767
-60.7938
-51.4258
-44.3214
-39.1156
-35.8147
-33.206
-143.935
-111.695
-82.5322
-98.4319
-108.378
-109.025
-106.85
-101.843
-93.5092
-82.8767
-71.431
-60.5883
-51.3423
-44.2866
-39.094
-35.8115
-33.2032
-121.996
-103.817
-77.8616
-94.0107
-104.921
-105.985
-104.16
-99.6822
-91.928
-81.8428
-70.854
-60.3245
-51.246
-44.256
-39.0753
-35.8069
-33.1883
-102.014
-95.6855
-73.1217
-89.2529
-101.056
-102.599
-101.129
-97.1937
-90.0622
-80.5857
-70.1262
-59.9804
-51.1226
-44.2262
-39.0645
-35.8067
-33.1644
-83.9957
-87.4774
-68.4107
-84.3367
-96.92
-98.9825
-97.861
-94.457
-87.9607
-79.1246
-69.2436
-59.5398
-50.9552
-44.188
-39.0621
-35.8159
-33.1374
-67.881
-79.3483
-63.793
-79.3951
-92.6209
-95.2309
-94.4521
-91.5537
-85.6837
-77.4951
-68.2177
-58.9963
-50.7296
-44.1285
-39.0627
-35.8364
-33.1114
-53.5739
-71.4271
-59.3089
-74.526
-88.2439
-91.4148
-90.9764
-88.5537
-83.2898
-75.7398
-67.0716
-58.355
-50.438
-44.0346
-39.0565
-35.8658
-33.0897
-40.9483
-63.8087
-54.9815
-69.7999
-83.8555
-87.5864
-87.4889
-85.5118
-80.8286
-73.8994
-65.8332
-57.6295
-50.0811
-43.8979
-39.0321
-35.897
-33.0762
-29.8631
-56.5485
-50.8251
-65.2618
-79.5057
-83.783
-84.0285
-82.4681
-78.3379
-72.0078
-64.5292
-56.8373
-49.6669
-43.7166
-38.9798
-35.9197
-33.0707
-20.1757
-49.6685
-46.8531
-60.9328
-75.2308
-80.0301
-80.621
-79.4508
-75.8455
-70.0908
-63.1816
-55.9953
-49.207
-43.4957
-38.8955
-35.9235
-33.0682
-11.7405
-43.1717
-43.0699
-56.8161
-71.0558
-76.344
-77.2824
-76.4787
-73.3703
-68.167
-61.8072
-55.1171
-48.713
-43.2444
-38.7818
-35.9018
-33.061
-4.41688
-37.0656
-39.4658
-52.9044
-66.9969
-72.7343
-74.0209
-73.5631
-70.9249
-66.2493
-60.4176
-54.212
-48.1936
-42.9731
-38.6463
-35.8538
-33.0424
1.92823
-31.3603
-36.0231
-49.186
-63.0639
-69.2058
-70.8395
-70.71
-68.5165
-64.3459
-59.0212
-53.2865
-47.6539
-42.6895
-38.4997
-35.7856
-33.0098
7.41634
-26.0552
-32.7252
-45.6483
-59.2617
-65.7607
-67.7383
-67.922
-66.149
-62.4617
-57.6234
-52.3444
-47.0958
-42.3976
-38.3515
-35.7075
-32.9656
12.1504
-21.1419
-29.5598
-42.2782
-55.5927
-62.4004
-64.7158
-65.1993
-63.8241
-60.5991
-56.2275
-51.3884
-46.5192
-42.0976
-38.2077
-35.6313
-32.9172
16.2203
-16.6068
-26.5186
-39.0634
-52.0575
-59.1255
-61.7698
-62.5415
-61.5423
-58.7593
-54.8358
-50.4204
-45.9234
-41.7865
-38.0697
-35.5668
-32.8748
19.7061
-12.4333
-23.5965
-35.9935
-48.6561
-55.9374
-58.8987
-59.9477
-59.3035
-56.9428
-53.4494
-49.4418
-45.3079
-41.4602
-37.9345
-35.519
-32.8481
22.68
-8.60338
-20.7909
-33.0593
-45.3878
-52.8372
-56.1013
-57.4169
-57.1078
-55.1498
-52.0691
-48.454
-44.6726
-41.1145
-37.7959
-35.4875
-32.8438
25.207
-5.09833
-18.101
-30.2532
-42.2512
-49.8264
-53.3766
-54.9485
-54.9553
-53.3806
-50.6956
-47.4579
-44.0181
-40.7467
-37.6465
-35.4671
-32.8638
27.345
-1.89875
-15.5264
-27.5688
-39.2442
-46.9068
-50.7243
-52.542
-52.8463
-51.6357
-49.3297
-46.4547
-43.3452
-40.3552
-37.4795
-35.449
-32.9052
29.1458
1.01499
-13.0674
-25.0007
-36.3641
-44.08
-48.1442
-50.1969
-50.7812
-49.9157
-47.9722
-45.4454
-42.655
-39.9396
-37.2899
-35.4227
-32.9609
30.6549
3.66254
-10.7241
-22.5445
-33.6078
-41.3473
-45.6361
-47.9128
-48.7606
-48.2215
-46.6241
-44.4315
-41.9488
-39.5005
-37.0746
-35.3789
-33.0208
31.912
6.06331
-8.49624
-20.1962
-30.972
-38.7095
-43.2001
-45.6896
-46.7849
-46.5538
-45.2865
-43.4141
-41.2281
-39.0391
-36.8327
-35.3103
-33.0744
32.9517
8.23615
-6.38317
-17.9524
-28.4532
-36.1671
-40.8363
-43.5267
-44.8546
-44.9136
-43.9604
-42.3946
-40.4943
-38.5567
-36.5648
-35.2123
-33.1122
33.8037
10.1992
-4.38372
-15.8101
-26.0479
-33.72
-38.5449
-41.4241
-42.9701
-43.3019
-42.6471
-41.3745
-39.7489
-38.0547
-36.272
-35.0834
-33.1275
34.4936
11.9695
-2.49626
-13.7666
-23.7525
-31.3676
-36.3261
-39.3812
-41.1318
-41.7194
-41.3476
-40.3551
-38.9934
-37.5345
-35.956
-34.9239
-33.1168
35.0435
13.5634
-0.718707
-11.8195
-21.5636
-29.1091
-34.18
-37.398
-39.3398
-40.1671
-40.063
-39.3377
-38.2293
-36.9977
-35.6184
-34.7356
-33.0799
35.4722
14.9957
0.951433
-9.96673
-19.4777
-26.9433
-32.1064
-35.4742
-37.5945
-38.6458
-38.7946
-38.3237
-37.4581
-36.4456
-35.2608
-34.5205
-33.0187
35.7958
16.2802
2.51699
-8.20602
-17.4918
-24.8689
-30.1054
-33.6095
-35.896
-37.1563
-37.5434
-37.3144
-36.6812
-35.8797
-34.8846
-34.2809
-32.9358
36.0282
17.4299
3.9811
-6.53534
-15.6024
-22.8843
-28.1767
-31.8037
-34.2444
-35.6993
-36.3104
-36.3111
-35.9002
-35.3014
-34.4914
-34.0189
-32.8339
36.181
18.4561
5.3471
-4.95263
-13.8068
-20.9877
-26.3199
-30.0566
-32.6399
-34.2756
-35.0969
-35.3151
-35.1165
-34.7124
-34.0825
-33.7365
-32.7149
36.2643
19.3697
6.61852
-3.45583
-12.1018
-19.1772
-24.5345
-28.368
-31.0825
-32.8857
-33.9037
-34.3278
-34.3314
-34.1141
-33.6593
-33.4356
-32.58
36.2866
20.1801
7.79901
-2.04281
-10.4847
-17.451
-22.8198
-26.7376
-29.5721
-31.5303
-32.732
-33.3503
-33.5465
-33.508
-33.2231
-33.1181
-32.4297
36.255
20.8962
8.89227
-0.711427
-8.9527
-15.807
-21.1751
-25.165
-28.1089
-30.2098
-31.5826
-32.3839
-32.7632
-32.8957
-32.7754
-32.7859
-32.264
36.1759
21.5257
9.90203
0.540542
-7.5032
-14.2433
-19.5994
-23.6501
-26.6928
-28.9248
-30.4566
-31.4298
-31.9828
-32.2786
-32.3174
-32.4407
-32.0828
36.0544
22.0758
10.832
1.71535
-6.13357
-12.7576
-18.0917
-22.1923
-25.3236
-27.6756
-29.3547
-30.4891
-31.2066
-31.6582
-31.8505
-32.0842
-31.8862
35.8951
22.5529
11.6858
2.81531
-4.84136
-11.3479
-16.651
-20.7912
-24.0012
-26.4626
-28.2778
-29.563
-30.4359
-31.0361
-31.376
-31.7182
-31.6744
35.7019
22.9626
12.467
3.84273
-3.62415
-10.0119
-15.2763
-19.4463
-22.7255
-25.2861
-27.2266
-28.6526
-29.672
-30.4135
-30.8952
-31.3441
-31.4482
35.4781
23.3103
13.1791
4.79998
-2.47955
-8.74757
-13.9664
-18.1569
-21.4962
-24.1463
-26.2019
-27.7588
-28.9162
-29.7919
-30.4093
-30.9632
-31.2084
35.2266
23.6005
13.8255
5.68942
-1.40521
-7.55267
-12.7201
-16.9225
-20.3131
-23.0435
-25.2042
-26.8826
-28.1696
-29.1727
-29.9196
-30.5767
-30.956
34.9499
23.8374
14.4094
6.51346
-0.398836
-6.42517
-11.5361
-15.7423
-19.1758
-21.9777
-24.2342
-26.025
-27.4333
-28.557
-29.4275
-30.1859
-30.6922
34.6502
24.025
14.9338
7.27445
0.541848
-5.36302
-10.4131
-14.6155
-18.0841
-20.949
-23.2924
-25.1868
-26.7084
-27.9461
-28.9341
-29.7917
-30.4183
34.3296
24.1665
15.4019
7.97476
1.41907
-4.36423
-9.3495
-13.5414
-17.0375
-19.9575
-22.3792
-24.3688
-25.9959
-27.3412
-28.4406
-29.3951
-30.1357
33.9897
24.2652
15.8163
8.61672
2.23503
-3.42681
-8.34399
-12.5192
-16.0356
-19.0032
-21.495
-23.5718
-25.2968
-26.7433
-27.9482
-28.997
-29.8455
33.632
24.3238
16.1798
9.20263
2.99188
-2.54883
-7.39506
-11.5479
-15.078
-18.0859
-20.6402
-22.7963
-24.612
-26.1535
-27.4581
-28.5983
-29.549
33.2579
24.345
16.4949
9.73474
3.69173
-1.72838
-6.50124
-10.6265
-14.1641
-17.2055
-19.815
-22.0431
-23.9424
-25.5728
-26.9713
-28.1998
-29.2475
32.8687
24.3311
16.7642
10.2153
4.33668
-0.963571
-5.66104
-9.75417
-13.2934
-16.3619
-19.0196
-21.3126
-23.2887
-25.0021
-26.489
-27.8024
-28.9419
32.4654
24.2844
16.9899
10.6464
4.92876
-0.252553
-4.87295
-8.92977
-12.4652
-15.5549
-18.2542
-20.6053
-22.6517
-24.4423
-26.012
-27.4068
-28.6335
32.049
24.2068
17.1742
11.0301
5.46997
0.406499
-4.13548
-8.15227
-11.6789
-14.784
-17.5188
-19.9216
-22.032
-23.8941
-25.5414
-27.0139
-28.3232
31.6204
24.1001
17.3192
11.3686
5.96228
1.01538
-3.44713
-7.42059
-10.9339
-14.0491
-16.8135
-19.2619
-21.4303
-23.3583
-25.0779
-26.6242
-28.012
31.1805
23.9662
17.427
11.6638
6.4076
1.57586
-2.80641
-6.73363
-10.2294
-13.3497
-16.1382
-18.6265
-20.847
-22.8357
-24.6225
-26.2387
-27.7006
30.7299
23.8066
17.4994
11.9175
6.80781
2.08967
-2.21183
-6.09026
-9.56458
-12.6855
-15.4929
-18.0155
-20.2826
-22.3267
-24.1759
-25.8579
-27.3899
30.2695
23.6229
17.5382
12.1318
7.16473
2.55852
-1.66191
-5.48933
-8.93873
-12.0559
-14.8773
-17.429
-19.7375
-21.832
-23.7387
-25.4826
-27.0807
29.7998
23.4163
17.5451
12.3083
7.48016
2.98408
-1.15519
-4.92968
-8.35099
-11.4604
-14.2913
-16.8673
-19.212
-21.3521
-23.3116
-25.1132
-26.7737
29.3214
23.1883
17.5218
12.4488
7.75582
3.36801
-0.690201
-4.41013
-7.8005
-10.8985
-13.7347
-16.3302
-18.7064
-20.8874
-22.8952
-24.7505
-26.4694
28.8349
22.94
17.4698
12.5551
7.99343
3.71191
-0.265505
-3.92952
-7.28638
-10.3696
-13.207
-15.8177
-18.2209
-20.4382
-22.4899
-24.395
-26.1685
28.3408
22.6726
17.3907
12.6286
8.19463
4.01738
0.120329
-3.48664
-6.8077
-9.87308
-12.7081
-15.3298
-17.7556
-20.0048
-22.0963
-24.0471
-25.8714
27.8395
22.3873
17.2859
12.6711
8.36103
4.28597
0.468719
-3.08031
-6.36354
-9.40822
-12.2373
-14.8663
-17.3105
-19.5876
-21.7146
-23.7073
-25.5788
27.3317
22.0851
17.1567
12.6839
8.4942
4.5192
0.781066
-2.70932
-5.95293
-8.97433
-11.7944
-14.4269
-16.8857
-19.1867
-21.3453
-23.376
-25.2909
26.8177
21.7669
17.0044
12.6687
8.59567
4.71857
1.05875
-2.37248
-5.57491
-8.57068
-11.3788
-14.0115
-16.4812
-18.8021
-20.9885
-23.0535
-25.0084
26.298
21.4338
16.8304
12.6267
8.66692
4.88554
1.30315
-2.06857
-5.22847
-8.1965
-10.9899
-13.6196
-16.0967
-18.434
-20.6445
-22.7401
-24.7313
25.7729
21.0867
16.6358
12.5594
8.70939
5.02155
1.51561
-1.79642
-4.91261
-7.85099
-10.6272
-13.251
-15.7322
-18.0824
-20.3134
-22.4361
-24.4602
25.243
20.7263
16.4217
12.4681
8.7245
5.12799
1.69746
-1.5548
-4.62631
-7.53333
-10.29
-12.9051
-15.3873
-17.7471
-19.9952
-22.1416
-24.1951
24.7085
20.3537
16.1894
12.3542
8.71362
5.20626
1.85001
-1.34253
-4.36854
-7.24268
-9.97775
-12.5816
-15.0619
-17.4282
-19.6901
-21.8568
-23.9364
24.17
19.9696
15.94
12.2188
8.67807
5.25769
1.97456
-1.1584
-4.13826
-6.97816
-9.6897
-12.2799
-14.7556
-17.1254
-19.3979
-21.5817
-23.6842
23.6277
19.5747
15.6744
12.0631
8.61916
5.28361
2.0724
-1.00125
-3.93443
-6.73889
-9.42516
-11.9995
-14.4681
-16.8384
-19.1187
-21.3164
-23.4386
23.0822
19.1699
15.3936
11.8884
8.53816
5.28531
2.1448
-0.869901
-3.75598
-6.52395
-9.18335
-11.7398
-14.1988
-16.5671
-18.8522
-21.0608
-23.1996
22.5337
18.7559
15.0988
11.6957
8.43631
5.26406
2.19301
-0.76319
-3.60186
-6.33242
-8.96353
-11.5002
-13.9474
-16.3112
-18.5982
-20.8149
-22.9673
21.9826
18.3335
14.7908
11.4863
8.3148
5.22109
2.21825
-0.679958
-3.47101
-6.16336
-8.76487
-11.2801
-13.7133
-16.0702
-18.3566
-20.5786
-22.7416
21.4295
17.9032
14.4705
11.2611
8.17481
5.15762
2.22175
-0.619053
-3.36236
-6.01581
-8.58657
-11.0787
-13.4961
-15.8437
-18.1271
-20.3517
-22.5225
20.8745
17.4659
14.1389
11.0213
8.01749
5.07485
2.20468
-0.579327
-3.27486
-5.88883
-8.42778
-10.8954
-13.295
-15.6313
-17.9093
-20.1339
-22.3099
20.3182
17.0222
13.7969
10.7678
7.84397
4.97395
2.16821
-0.559647
-3.20743
-5.78145
-8.28765
-10.7293
-13.1096
-15.4326
-17.7029
-19.9251
-22.1036
19.761
16.5727
13.4453
10.5017
7.65534
4.85606
2.11351
-0.558887
-3.15903
-5.69268
-8.1653
-10.5799
-12.9392
-15.247
-17.5075
-19.7249
-21.9033
19.2031
16.1182
13.085
10.2239
7.45267
4.72231
2.0417
-0.575935
-3.12858
-5.62155
-8.05985
-10.4462
-12.783
-15.0739
-17.3226
-19.533
-21.709
18.6451
15.6592
12.7167
9.93543
7.23701
4.57379
1.95391
-0.609689
-3.11505
-5.56708
-7.9704
-10.3275
-12.6406
-14.9128
-17.1478
-19.349
-21.5202
18.0873
15.1964
12.3414
9.63719
7.00939
4.41159
1.85122
-0.65906
-3.11737
-5.52828
-7.89606
-10.2229
-12.511
-14.763
-16.9825
-19.1726
-21.3367
17.5301
14.7305
11.9597
9.33009
6.77081
4.23677
1.73473
-0.722973
-3.13452
-5.50417
-7.8359
-10.1317
-12.3936
-14.6241
-16.8263
-19.0033
-21.1582
16.974
14.262
11.5725
9.01504
6.52225
4.05037
1.6055
-0.800367
-3.16545
-5.49377
-7.78902
-10.0531
-12.2876
-14.4951
-16.6785
-18.8406
-20.9843
16.4194
13.7915
11.1806
8.69291
6.26468
3.8534
1.46457
-0.890192
-3.20916
-5.4961
-7.75448
-9.98603
-12.1923
-14.3756
-16.5387
-18.6841
-20.8147
15.8666
13.3197
10.7846
8.36455
5.99904
3.64687
1.31297
-0.991417
-3.26461
-5.51019
-7.73139
-9.92982
-12.1069
-14.2649
-16.4061
-18.5332
-20.6488
15.3161
12.8472
10.3853
8.03082
5.72625
3.43176
1.15171
-1.10302
-3.33081
-5.53506
-7.71881
-9.88356
-12.0307
-14.1621
-16.2803
-18.3875
-20.4862
14.7684
12.3745
9.98352
7.69254
5.44723
3.20902
0.981787
-1.22401
-3.40678
-5.56976
-7.71584
-9.84641
-11.9627
-14.0667
-16.1605
-18.2463
-20.3266
14.2238
11.9023
9.57985
7.35052
5.16285
2.9796
0.804169
-1.35339
-3.49153
-5.61334
-7.72157
-9.8175
-11.9023
-13.9778
-16.0461
-18.1092
-20.1695
13.6829
11.4311
9.17503
7.00554
4.87398
2.74442
0.619812
-1.4902
-3.5841
-5.66486
-7.73508
-9.79598
-11.8487
-13.8949
-15.9365
-17.9756
-20.0143
13.1459
10.9615
8.76975
6.6584
4.58147
2.50438
0.429653
-1.63348
-3.68355
-5.72339
-7.75549
-9.781
-11.801
-13.817
-15.831
-17.8448
-19.8606
12.6134
10.494
8.36468
6.30984
4.28616
2.26037
0.234607
-1.78231
-3.78894
-5.78802
-7.78191
-9.77172
-11.7585
-13.7436
-15.729
-17.7164
-19.7079
12.0859
10.0293
7.96048
5.96062
3.98886
2.01325
0.0355717
-1.93576
-3.89936
-5.85785
-7.81348
-9.76731
-11.7203
-13.6739
-15.6298
-17.5897
-19.5556
11.5636
9.56784
7.55782
5.61147
3.69036
1.76386
-0.166576
-2.09295
-4.01391
-5.93198
-7.84932
-9.76694
-11.6858
-13.6072
-15.5328
-17.4642
-19.4033
11.0472
9.11024
7.15733
5.2631
3.39144
1.51303
-0.370979
-2.253
-4.13172
-6.00957
-7.8886
-9.76981
-11.6541
-13.5427
-15.4372
-17.3392
-19.2505
10.5369
8.65701
6.75963
4.91621
3.09287
1.26157
-0.576801
-2.41506
-4.25192
-6.08974
-7.93049
-9.77511
-11.6244
-13.4798
-15.3425
-17.2142
-19.0966
10.0333
8.20869
6.36535
4.57149
2.79537
1.01026
-0.78323
-2.57829
-4.37369
-6.17169
-7.97418
-9.78206
-11.5962
-13.4177
-15.248
-17.0886
-18.9411
9.53673
7.76581
5.97509
4.2296
2.49968
0.759853
-0.98947
-2.74188
-4.4962
-6.2546
-8.01887
-9.7899
-11.5685
-13.3558
-15.1531
-16.9619
-18.7837
9.04769
7.32889
5.58943
3.8912
2.20649
0.511105
-1.19475
-2.90506
-4.61867
-6.33767
-8.06379
-9.79788
-11.5407
-13.2934
-15.0572
-16.8334
-18.6236
8.56658
6.89842
5.20895
3.55691
1.91648
0.26473
-1.39833
-3.06705
-4.74032
-6.42015
-8.1082
-9.80528
-11.5121
-13.2298
-14.9596
-16.7027
-18.4606
8.09382
6.47492
4.83422
3.22735
1.63032
0.0214282
-1.59948
-3.22711
-4.86041
-6.5013
-8.15136
-9.81138
-11.4821
-13.1645
-14.8598
-16.5692
-18.2941
7.62981
6.05886
4.46577
2.90312
1.34865
-0.218126
-1.7975
-3.38453
-4.97822
-6.58039
-8.19257
-9.81552
-11.45
-13.0968
-14.7573
-16.4324
-18.1237
7.17496
5.65072
4.10414
2.58479
1.07209
-0.45328
-1.99171
-3.53862
-5.09304
-6.65674
-8.23115
-9.81703
-11.415
-13.0261
-14.6514
-16.2918
-17.9489
6.72967
5.25096
3.74985
2.27293
0.801226
-0.683404
-2.18147
-3.68871
-5.20422
-6.72968
-8.26645
-9.81527
-11.3768
-12.9519
-14.5416
-16.147
-17.7693
6.29433
4.86004
3.40339
1.96808
0.536646
-0.907894
-2.36615
-3.83416
-5.31111
-6.79857
-8.29784
-9.80963
-11.3346
-12.8735
-14.4275
-15.9974
-17.5845
5.8693
4.47837
3.06523
1.67075
0.2789
-1.12617
-2.54514
-3.97437
-5.41309
-6.86279
-8.32471
-9.79954
-11.2879
-12.7906
-14.3085
-15.8426
-17.3941
5.45496
4.10638
2.73585
1.38144
0.0285174
-1.33768
-2.71788
-4.10875
-5.50958
-6.92177
-8.3465
-9.78443
-11.2362
-12.7024
-14.1842
-15.6823
-17.1978
5.05166
3.74447
2.41568
1.10063
-0.213996
-1.54188
-2.88381
-4.23675
-5.60001
-6.97494
-8.36265
-9.76378
-11.1789
-12.6087
-14.0542
-15.516
-16.9953
4.65973
3.39303
2.10514
0.828774
-0.448158
-1.73828
-3.04243
-4.35782
-5.68386
-7.02178
-8.37266
-9.73709
-11.1156
-12.509
-13.9179
-15.3433
-16.7861
4.2795
3.05242
1.80464
0.5663
-0.673511
-1.92641
-3.19323
-4.47149
-5.76061
-7.06179
-8.37602
-9.70388
-11.0459
-12.4027
-13.7752
-15.1639
-16.57
3.91127
2.723
1.51456
0.313617
-0.889624
-2.1058
-3.33576
-4.57727
-5.82981
-7.09451
-8.37229
-9.66371
-10.9693
-12.2896
-13.6255
-14.9776
-16.3468
3.55534
2.40509
1.23526
0.071111
-1.09609
-2.27603
-3.46957
-4.67472
-5.89101
-7.11949
-8.36103
-9.61616
-10.8854
-12.1693
-13.4686
-14.7839
-16.1161
3.21199
2.09899
0.967073
-0.160858
-1.29253
-2.43671
-3.59427
-4.76342
-5.94379
-7.13632
-8.34184
-9.56086
-10.7939
-12.0414
-13.3041
-14.5826
-15.8777
2.88146
1.80501
0.710313
-0.381954
-1.47859
-2.58747
-3.70947
-4.84301
-5.98776
-7.14463
-8.31436
-9.49744
-10.6943
-11.9056
-13.1318
-14.3735
-15.6315
2.56399
1.5234
0.465273
-0.591867
-1.65393
-2.72797
-3.81481
-4.91311
-6.02258
-7.14405
-8.27823
-9.42558
-10.5865
-11.7616
-12.9514
-14.1563
-15.3772
2.2598
1.25441
0.232219
-0.790311
-1.81827
-2.85789
-3.90999
-4.97341
-6.04792
-7.13428
-8.23316
-9.34498
-10.4702
-11.6092
-12.7626
-13.9309
-15.1147
1.96909
0.998269
0.0113948
-0.977025
-1.97132
-2.97695
-3.9947
-5.0236
-6.06348
-7.11503
-8.17885
-9.25537
-10.345
-11.4481
-12.5653
-13.697
-14.8438
1.69202
0.755165
-0.196981
-1.15178
-2.11283
-3.08489
-4.06868
-5.06343
-6.06899
-7.08602
-8.11506
-9.1565
-10.2107
-11.2782
-12.3593
-13.4545
-14.5645
1.42876
0.525277
-0.392717
-1.31436
-2.24259
-3.18148
-4.1317
-5.09265
-6.06422
-7.04702
-8.04155
-9.04817
-10.0673
-11.0992
-12.1444
-13.2033
-14.2765
1.17942
0.308756
-0.575642
-1.46458
-2.36041
-3.26651
-4.18355
-5.11104
-6.04896
-6.99784
-7.95812
-8.93018
-9.91434
-10.911
-11.9205
-12.9433
-13.9799
0.944117
0.105729
-0.745615
-1.6023
-2.46611
-3.33982
-4.22404
-5.11844
-6.02303
-6.93828
-7.86462
-8.80237
-9.75187
-10.7134
-11.6875
-12.6743
-13.6745
0.722933
-0.0837024
-0.902518
-1.72738
-2.55956
-3.40125
-4.25302
-5.11468
-5.98626
-6.8682
-7.76088
-8.66461
-9.5797
-10.5065
-11.4453
-12.3964
-13.3603
0.515923
-0.259462
-1.04626
-1.83972
-2.64064
-3.45069
-4.27038
-5.09963
-5.93854
-6.78748
-7.6468
-8.51679
-9.39774
-10.2899
-11.1937
-12.1094
-13.0373
0.323122
-0.421497
-1.17677
-1.93923
-2.70926
-3.48803
-4.276
-5.0732
-5.87975
-6.69601
-7.52228
-8.35881
-9.2059
-10.0638
-10.9329
-11.8133
-12.7056
0.144538
-0.569782
-1.29402
-2.02588
-2.76538
-3.51322
-4.26981
-5.0353
-5.80984
-6.59373
-7.38724
-8.19062
-9.00414
-9.82807
-10.6627
-11.5081
-12.3649
-0.0198429
-0.704315
-1.39798
-2.09963
-2.80894
-3.5262
-4.25178
-4.98589
-5.72873
-6.48057
-7.24163
-8.01217
-8.79242
-9.58264
-10.3831
-11.1939
-12.0155
-0.170063
-0.825121
-1.48866
-2.16048
-2.83995
-3.52697
-4.22187
-4.92494
-5.63641
-6.35651
-7.08544
-7.82344
-8.57073
-9.32753
-10.0941
-10.8706
-11.6573
-0.306189
-0.932251
-1.56611
-2.20846
-2.85841
-3.51553
-4.18008
-4.85244
-5.53286
-6.22154
-6.91866
-7.62442
-8.33905
-9.06275
-9.79575
-10.5382
-11.2904
-0.428312
-1.02578
-1.63038
-2.24362
-2.86437
-3.49191
-4.12645
-4.76842
-5.41811
-6.07569
-6.7413
-7.41514
-8.09742
-8.78833
-9.48807
-10.1968
-10.9148
-11.6416
-0.53655
-1.1058
-1.68156
-2.26603
-2.8579
-3.45616
-4.06101
-4.67292
-5.2922
-5.91897
-6.55339
-7.19562
-7.84586
-8.5043
-9.17111
-9.8464
-10.5305
-11.223
-0.631046
-1.17246
-1.71976
-2.27579
-2.83907
-3.40838
-3.98385
-4.566
-5.15517
-5.75146
-6.35499
-6.96591
-7.58443
-8.2107
-8.8449
-9.48711
-10.1376
-10.7961
-0.711967
-1.22588
-1.74512
-2.27302
-2.80801
-3.34865
-3.89504
-4.44775
-5.00711
-5.57321
-6.14615
-6.72609
-7.31319
-7.90761
-8.50951
-9.11897
-9.73626
-10.361
-0.779511
-1.26627
-1.75779
-2.25787
-2.76484
-3.2771
-3.79471
-4.31827
-4.84811
-5.38432
-5.92697
-6.47621
-7.0322
-7.59508
-8.165
-8.74203
-9.32642
-9.91778
-0.833897
-1.29381
-1.75796
-2.23051
-2.70973
-3.19388
-3.68299
-4.17767
-4.67828
-5.18489
-5.69754
-6.21638
-6.74155
-7.2732
-7.81146
-8.35637
-8.90819
-9.46653
-0.875374
-1.30873
-1.74584
-2.19114
-2.64285
-3.09914
-3.56002
-4.02611
-4.49776
-4.97503
-5.45797
-5.94669
-6.44134
-6.94206
-7.44894
-7.96207
-8.48163
-9.00728
-0.904218
-1.31129
-1.72166
-2.13996
-2.5644
-2.99308
-3.42599
-3.86374
-4.30669
-4.75489
-5.20838
-5.66725
-6.13167
-6.60173
-7.07755
-7.55917
-8.0468
-8.54009
-0.92073
-1.30177
-1.68569
-2.07723
-2.47461
-2.87591
-3.28107
-3.69073
-4.10523
-4.52461
-4.94889
-5.37819
-5.81263
-6.25232
-6.69735
-7.14777
-7.60377
-8.06501
-0.925242
-1.28048
-1.6382
-2.0032
-2.37373
-2.74785
-3.12549
-3.50728
-3.89355
-4.28434
-4.67967
-5.07963
-5.48434
-5.89391
-6.30843
-6.72793
-7.15257
-7.58206
-0.918115
-1.24775
-1.57951
-1.91816
-2.26202
-2.60914
-2.95946
-3.31359
-3.67185
-4.03426
-4.40085
-4.77171
-5.14693
-5.52663
-5.91087
-6.2997
-6.69327
-7.09129
-0.899742
-1.20395
-1.50995
-1.82243
-2.13976
-2.46006
-2.78324
-3.10989
-3.44031
-3.77455
-4.1126
-4.45455
-4.8005
-5.15054
-5.50474
-5.86314
-6.22587
-6.59267
-0.870546
-1.14948
-1.4299
-1.71635
-2.00729
-2.30091
-2.5971
-2.89643
-3.19919
-3.50542
-3.81511
-4.12834
-4.4452
-4.76579
-5.09016
-5.41834
-5.75046
-6.08628
-0.830982
-1.08475
-1.33974
-1.60028
-1.86493
-2.13196
-2.40128
-2.67342
-2.94866
-3.22701
-3.50848
-3.79314
-4.08109
-4.37238
-4.66708
-4.96523
-5.26693
-5.57197
-0.781565
-1.01025
-1.23992
-1.47465
-1.71309
-1.95364
-2.1962
-2.44126
-2.68909
-2.93969
-3.19308
-3.44931
-3.70847
-3.97062
-4.23582
-4.50409
-4.77554
-5.04996
-0.722768
-0.926404
-1.13082
-1.33975
-1.552
-1.7661
-1.98194
-2.19998
-2.42045
-2.64337
-2.86874
-3.09661
-3.32707
-3.56017
-3.79596
-4.03446
-4.27577
-4.5197
-0.655365
-0.833986
-1.01321
-1.1964
-1.38251
-1.5702
-1.75938
-1.95045
-2.14364
-2.33894
-2.53637
-2.73598
-2.93782
-3.14196
-3.34843
-3.55727
-3.76853
-3.98207
-0.579467
-0.73297
-0.886928
-1.04429
-1.20416
-1.36536
-1.52782
-1.69187
-1.85772
-2.02538
-2.19485
-2.36616
-2.53938
-2.71456
-2.89172
-3.07089
-3.25213
-3.43531
-0.497007
-0.625404
-0.754127
-0.885677
-1.01929
-1.15401
-1.28974
-1.42679
-1.56532
-1.70533
-1.84685
-1.98988
-2.1345
-2.28072
-2.4286
-2.57813
-2.72937
-2.88221
-0.406032
-0.509046
-0.612307
-0.71781
-0.824954
-0.932965
-1.04179
-1.15165
-1.26269
-1.37492
-1.48833
-1.60296
-1.71883
-1.83599
-1.95446
-2.07423
-2.19536
-2.31775
-0.312736
-0.390288
-0.468009
-0.547376
-0.627955
-0.709179
-0.791006
-0.873609
-0.957085
-1.04145
-1.12669
-1.21285
-1.29994
-1.38798
-1.477
-1.567
-1.65799
-1.74989
-0.208263
-0.260051
-0.311906
-0.364782
-0.418447
-0.472552
-0.527061
-0.582079
-0.637672
-0.693846
-0.750606
-0.807965
-0.865941
-0.924544
-0.983782
-1.04365
-1.10417
-1.16528
-0.109997
-0.135685
-0.1614
-0.187549
-0.214082
-0.240861
-0.267866
-0.295138
-0.322708
-0.350584
-0.378766
-0.407265
-0.436086
-0.465236
-0.49471
-0.524493
-0.554563
-0.584842
)
;

boundaryField
{
    inlet
    {
        type            freestreamPressure;
        freestreamValue nonuniform 0();
        value           nonuniform 0();
    }
    outlet
    {
        type            freestreamPressure;
        freestreamValue nonuniform 0();
        value           nonuniform 0();
    }
    lowerSymmetry
    {
        type            symmetryPlane;
    }
    obstical
    {
        type            zeroGradient;
    }
    top
    {
        type            freestreamPressure;
        freestreamValue uniform 0;
        value           nonuniform List<scalar> 
21
(
-0.0120585
-0.0270543
-0.0404433
-0.0532253
-0.0656598
-0.0781109
-0.0907753
-0.10363
-0.11661
-0.129704
-0.142934
-0.156316
-0.169854
-0.18355
-0.197409
-0.211435
-0.225631
-0.239997
-0.254526
-0.269208
-0.284007
)
;
    }
    defaultFaces
    {
        type            empty;
    }
    procBoundary1to0
    {
        type            processor;
        value           nonuniform List<scalar> 
166
(
231.585
231.418
231.105
230.632
230.002
229.219
228.286
227.209
225.992
224.64
223.159
221.556
219.839
218.014
216.091
214.133
212.14
210.041
207.839
205.539
203.143
200.657
198.086
195.434
192.706
189.909
187.047
184.126
181.152
178.13
175.066
171.966
168.835
169.712
169.712
165.313
160.979
156.715
152.525
148.414
144.384
140.439
136.58
132.809
129.127
125.536
122.034
118.623
115.302
112.07
108.927
105.872
102.903
100.02
97.2201
94.5022
91.8645
89.305
86.8217
84.4127
82.0759
79.8091
77.6102
75.4769
73.4072
71.3988
69.4496
67.5575
65.7202
63.9358
62.2022
60.5175
58.8796
57.2867
55.7369
54.2285
52.7598
51.3291
49.9348
48.5754
47.2493
45.9553
44.6919
43.458
42.2522
41.0734
39.9205
38.7925
37.6884
36.6073
35.5482
34.5105
33.4933
32.4959
31.5177
30.558
29.6163
28.6921
27.7849
26.8942
26.0196
25.1609
24.3177
23.4896
22.6765
21.8782
21.0943
20.3249
19.5698
18.8289
18.102
17.3892
16.6904
16.0056
15.3348
14.678
14.0353
13.4067
12.7923
12.1921
11.6063
11.0348
10.4778
9.93542
9.4077
8.89474
8.39664
7.91347
7.44532
6.99226
6.55437
6.13169
5.72427
5.33215
4.95535
4.59387
4.24771
3.91684
3.60121
3.30076
3.01541
2.74506
2.48959
2.24883
2.02263
1.81079
1.61308
1.42926
1.25906
1.10217
0.958254
0.826954
0.707868
0.600564
0.504572
0.419381
0.344437
0.279141
0.222847
0.174814
0.134399