/*--------------------------------*- C++ -*----------------------------------*\
| =========                 |                                                 |
| \\      /  F ield         | OpenFOAM: The Open Source CFD Toolbox           |
|  \\    /   O peration     | Version:  v1912                                 |
|   \\  /    A nd           | Website:  www.openfoam.com                      |
|    \\/     M anipulation  |                                                 |
\*---------------------------------------------------------------------------*/
FoamFile
{
    version     2.0;
    format      ascii;
    class       surfaceScalarField;
    location    "3500";
    object      phi;
}
// * * * * * * * * * * * * * * * * * * * * * * * * * * * * * * * * * * * * * //

dimensions      [0 3 -1 0 0 0 0];
oriented        oriented;


internalField   nonuniform List<scalar> 
6015
(
0.000120406
1.85039e-05
9.20069e-05
2.83994e-05
5.41144e-05
3.78925e-05
5.41144e-05
0.00012063
3.68349e-05
9.19321e-05
5.7097e-05
5.40265e-05
7.5798e-05
0.000108141
0.000120845
5.508e-05
9.23807e-05
8.55613e-05
5.47468e-05
0.000113432
0.000162888
0.000121185
7.31798e-05
9.30298e-05
0.000113716
5.57051e-05
0.000150757
0.000218593
0.000121645
9.10787e-05
9.38838e-05
0.000141477
5.69216e-05
0.000187719
0.000275514
0.000122224
0.000108723
9.49495e-05
0.000168751
5.84143e-05
0.000224254
0.000333929
0.000122917
0.000126062
9.62358e-05
0.000195433
6.0205e-05
0.000260285
0.000394134
0.000123723
0.000143045
9.77534e-05
0.000221402
6.23196e-05
0.000295719
0.000456453
0.000124636
0.000159625
9.95156e-05
0.000246522
6.4789e-05
0.000330445
0.000521242
0.000125653
0.000175757
0.000101538
0.000270637
6.76488e-05
0.000364334
0.000588891
0.000126768
0.0001914
0.000103838
0.000293567
7.09405e-05
0.000397232
0.000659832
0.000127973
0.000206514
0.000106437
0.000315104
7.4713e-05
0.000428955
0.000734545
0.000129262
0.000221068
0.000109359
0.000335007
7.90191e-05
0.000459295
0.000813564
0.000130623
0.000235035
0.000112631
0.000352998
8.39651e-05
0.000487961
0.000897529
0.000132041
0.000248398
0.000116296
0.000368744
8.92507e-05
0.000515006
0.000986779
0.000126031
0.00026047
0.000113545
0.00038123
9.09925e-05
0.000537558
0.00100411
7.3658e-05
0.000129754
0.000272151
0.000119364
0.00039162
0.000102929
0.000553993
0.000996475
0.000110567
0.000133665
0.000283358
0.000125118
0.000400167
0.000113905
0.000565207
0.000976666
0.000133715
0.000137765
0.000294007
0.000130645
0.000407287
0.000124078
0.000571773
0.000950372
0.000150372
0.000142044
0.000304021
0.000136013
0.000413318
0.000133568
0.000574219
0.000920674
0.000163267
0.000146493
0.000313331
0.000141323
0.000418487
0.000142368
0.000573174
0.000889034
0.000174008
0.000151096
0.000321885
0.00014663
0.000422953
0.000150483
0.000569321
0.000856194
0.000183323
0.000155836
0.000329649
0.000151969
0.000426819
0.000157974
0.000563317
0.000822683
0.000191485
0.000160695
0.000336607
0.000157372
0.000430142
0.000164925
0.000555764
0.000788993
0.000198615
0.000165656
0.000342765
0.000162868
0.000432931
0.000171434
0.000547198
0.000755605
0.000204822
0.000170705
0.000348145
0.000168473
0.000435162
0.000177605
0.000538066
0.000722974
0.000210235
0.000175828
0.000352784
0.000174194
0.000436796
0.000183546
0.000528714
0.000691502
0.000215018
0.000181018
0.00035673
0.000180024
0.00043779
0.000189355
0.000519383
0.000661506
0.000219351
0.00018627
0.000360039
0.00018595
0.00043811
0.000195116
0.000510217
0.000633206
0.000223417
0.000191583
0.000362765
0.000191953
0.00043774
0.000200891
0.000501279
0.000606721
0.000227375
0.00019696
0.000364965
0.000198015
0.000436684
0.000206718
0.000492577
0.000582125
0.000231314
0.000202404
0.000366687
0.000204116
0.000434972
0.000212617
0.000484076
0.000559388
0.000235354
0.000207921
0.000210244
0.000432649
0.000218592
0.000475728
0.000538385
0.000239595
0.00021639
0.000429777
0.000224633
0.000467485
0.000518962
0.000244055
0.000222551
0.000426423
0.000230728
0.000459308
0.000500963
0.000248727
0.000228731
0.000422657
0.000236864
0.000451175
0.000484237
0.00025359
0.000234934
0.000418546
0.000243033
0.000443076
0.000468648
0.000258622
0.000241168
0.000414151
0.000249229
0.000435015
0.000454076
0.000263801
0.000247441
0.000409526
0.000255453
0.000427003
0.000440417
0.000269111
0.000253762
0.000404715
0.000261708
0.000419058
0.000427585
0.000274541
0.000260138
0.000399757
0.000268002
0.000411193
0.0004155
0.000280087
0.000266573
0.000394685
0.000274341
0.000403426
0.000404095
0.000285745
0.000273074
0.000389525
0.000280731
0.000395769
0.000393309
0.000291517
0.000279644
0.000384303
0.00028718
0.000388233
0.000383088
0.000297402
0.000286288
0.000379037
0.000293694
0.000380827
0.000373381
0.0003034
0.000293009
0.000373748
0.000300278
0.000373558
0.000364146
0.000309513
0.000299811
0.000368451
0.000306937
0.000366432
0.000355342
0.00031574
0.000306697
0.000363159
0.000313676
0.000359453
0.000346935
0.000322083
0.000313673
0.000357884
0.0003205
0.000352625
0.000338893
0.000328542
0.00032074
0.000352637
0.000327414
0.000345951
0.000331188
0.000335119
0.000327903
0.000347425
0.000334423
0.000339431
0.000323796
0.000341815
0.000335165
0.000342257
0.00034153
0.000333067
0.000316694
0.000348631
0.00034253
0.000337138
0.000348741
0.000326857
0.000309864
0.000355571
0.000350001
0.000332074
0.000356058
0.0003208
0.000303288
0.000362635
0.000357582
0.000327068
0.000363487
0.000314894
0.00029695
0.000369826
0.000365275
0.000322125
0.000371032
0.000309137
0.000290835
0.000377146
0.000373084
0.000317248
0.000378695
0.000303527
0.000284933
0.000384598
0.000381013
0.000312438
0.00038648
0.00029806
0.000279229
0.000392184
0.000389065
0.000307699
0.000394392
0.000292733
0.000273715
0.000399906
0.000397243
0.000303031
0.000402434
0.000287541
0.00026838
0.000407769
0.00040555
0.000298435
0.000410609
0.000282483
0.000263216
0.000415773
0.000413991
0.000293913
0.000418921
0.000277553
0.000258214
0.000423923
0.000422568
0.000289465
0.000427373
0.000272748
0.000253366
0.000432221
0.000431286
0.000285092
0.000435969
0.000268065
0.000248666
0.00044067
0.000440146
0.000280792
0.000444712
0.000263499
0.000244106
0.000449272
0.000449154
0.000276567
0.000453606
0.000259046
0.000239681
0.000458032
0.000458312
0.000272416
0.000462655
0.000254704
0.000235384
0.000466952
0.000467625
0.000268338
0.000471861
0.000250469
0.000231209
0.000476035
0.000477095
0.000264333
0.000481228
0.000246336
0.000227152
0.000485285
0.000486726
0.000260399
0.00049076
0.000242302
0.000223207
0.000494705
0.000496523
0.000256536
0.00050046
0.000238365
0.000219369
0.000504298
0.000506488
0.000252742
0.000510333
0.000234521
0.000215635
0.000514067
0.000516626
0.000249018
0.000520381
0.000230766
0.000211999
0.000524017
0.00052694
0.00024536
0.000530609
0.000227097
0.000208457
0.000534151
0.000537434
0.000241768
0.00054102
0.000223512
0.000205005
0.000544471
0.000548113
0.000238241
0.000551618
0.000220007
0.00020164
0.000554983
0.000558979
0.000234777
0.000562406
0.000216579
0.000198357
0.000565689
0.000570037
0.000231374
0.00057339
0.000213226
0.000195154
0.000576593
0.00058129
0.000228032
0.000584572
0.000209945
0.000192026
0.000587699
0.000592744
0.000224747
0.000595956
0.000206733
0.000188971
0.000599011
0.000604401
0.00022152
0.000607547
0.000203587
0.000185986
0.000610532
0.000616267
0.000218348
0.000619348
0.000200505
0.000183066
0.000622268
0.000628344
0.000215229
0.000631364
0.000197485
0.000180211
0.00063422
0.000640638
0.000212163
0.000643599
0.000194524
0.000177415
0.000646394
0.000653152
0.000209146
0.000656057
0.000191619
0.000174678
0.000658794
0.000665892
0.000206179
0.000668742
0.000188769
0.000171997
0.000671423
0.00067886
0.000203258
0.000681658
0.000185971
0.000169368
0.000684287
0.000692062
0.000200383
0.00069481
0.000183223
0.000166791
0.000697388
0.000705503
0.000197552
0.000708203
0.000180523
0.000164261
0.000710732
0.000719185
0.000194763
0.000721839
0.000177869
0.000161778
0.000724323
0.000733115
0.000192014
0.000735725
0.000175258
0.000159338
0.000738164
0.000747296
0.000189305
0.000749864
0.00017269
0.000156941
0.000752261
0.000761733
0.000186634
0.000764261
0.000170162
0.000154583
0.000766619
0.000776431
0.000183999
0.000778921
0.000167673
0.000152264
0.00078124
0.000791395
0.000181399
0.000793848
0.00016522
0.000149981
0.00079613
0.000806629
0.000178832
0.000809046
0.000162803
0.000147733
0.000811294
0.000822138
0.000176297
0.000824522
0.000160419
0.000145518
0.000826737
0.000837927
0.000173793
0.000840278
0.000158067
0.000143335
0.000842462
0.000854
0.000171318
0.000856321
0.000155746
0.000141181
0.000858475
0.000870363
0.000168872
0.000872655
0.000153454
0.000139057
0.00087478
0.000887021
0.000166453
0.000889285
0.000151191
0.000136959
0.000891382
0.000903979
0.00016406
0.000906216
0.000148953
0.000134888
0.000908287
0.000921241
0.000161691
0.000923452
0.000146742
0.000132841
0.000925499
0.000938813
0.000159347
0.000941
0.000144555
0.000130819
0.000943022
0.000956699
0.000157026
0.000958863
0.000142391
0.000128819
0.000960863
0.000974906
0.000154726
0.000977047
0.000140249
0.00012684
0.000979026
0.000993438
0.000152448
0.000995558
0.000138129
0.000124883
0.000997516
0.0010123
0.00015019
0.0010144
0.00013603
0.000122946
0.00101634
0.0010315
0.000147952
0.00103358
0.000133951
0.000121027
0.0010355
0.00105104
0.000145732
0.0010531
0.000131891
0.000119128
0.001055
0.00107093
0.000143532
0.00107297
0.000129849
0.000117246
0.00107485
0.00109116
0.000141349
0.00109319
0.000127825
0.000115382
0.00109505
0.00111176
0.000139183
0.00111377
0.000125819
0.000113534
0.00111561
0.00113272
0.000137035
0.00113471
0.00012383
0.000111703
0.00113654
0.00115405
0.000134903
0.00115602
0.000121857
0.000109888
0.00115784
0.00117575
0.000132788
0.00117771
0.000119901
0.000108088
0.00117951
0.00119783
0.000130688
0.00119977
0.000117961
0.000106305
0.00120156
0.0012203
0.000128605
0.00122223
0.000116037
0.000104536
0.00122399
0.00124316
0.000126538
0.00124507
0.000114129
0.000102783
0.00124682
0.00126642
0.000124487
0.00126831
0.000112236
0.000101045
0.00127005
0.00129008
0.000122452
0.00129195
0.00011036
9.93224e-05
0.00129368
0.00131415
0.000120434
0.00131601
0.000108499
9.76151e-05
0.00131772
0.00133863
0.000118432
0.00134048
0.000106655
9.59233e-05
0.00134217
0.00136354
0.000116446
0.00136537
0.000104827
9.42473e-05
0.00136704
0.00138887
0.000114478
0.00139068
0.000103016
9.25872e-05
0.00139234
0.00141464
0.000112528
0.00141643
0.000101223
9.09435e-05
0.00141808
0.00144085
0.000110595
0.00144263
9.94462e-05
8.93165e-05
0.00144425
0.0014675
0.000108682
0.00146926
9.7688e-05
8.77066e-05
0.00147087
0.00149461
0.000106787
0.00149635
9.59483e-05
8.61145e-05
0.00149794
0.00152218
0.000104913
0.0015239
9.4228e-05
8.45406e-05
0.00152547
0.00155021
0.000103059
0.00155191
9.25275e-05
8.29856e-05
0.00155346
0.00157871
0.000101227
0.00158039
9.08478e-05
8.14501e-05
0.00158193
0.0016077
9.94181e-05
0.00160936
8.91895e-05
7.99348e-05
0.00161087
0.00163717
9.76322e-05
0.00163881
8.75537e-05
7.84406e-05
0.0016403
0.00166713
9.58709e-05
0.00166875
8.59411e-05
7.69683e-05
0.00167022
0.0016976
9.41353e-05
0.00169919
8.43528e-05
7.55187e-05
0.00170064
0.00172857
9.24266e-05
0.00173014
8.27898e-05
7.40928e-05
0.00173156
0.00176006
9.07459e-05
0.0017616
8.12532e-05
7.26916e-05
0.001763
0.00179207
8.90945e-05
0.00179358
7.97442e-05
7.1316e-05
0.00179496
0.00182461
8.7474e-05
0.00182609
7.8264e-05
6.99672e-05
0.00182744
0.00185769
8.58856e-05
0.00185914
7.68138e-05
6.86463e-05
0.00186046
0.00189132
8.43308e-05
0.00189274
7.5395e-05
6.73545e-05
0.00189403
0.0019255
8.28113e-05
0.00192688
7.4009e-05
6.6093e-05
0.00192814
0.00196024
8.13287e-05
0.00196159
7.26572e-05
6.48632e-05
0.00196282
0.00199555
7.98846e-05
0.00199687
7.13411e-05
6.36662e-05
0.00199806
0.00203144
7.84809e-05
0.00203272
7.00624e-05
6.25037e-05
0.00203388
0.00206792
7.71194e-05
0.00206916
6.88226e-05
6.1377e-05
0.00207029
0.00210499
7.58021e-05
0.00210619
6.76235e-05
6.02876e-05
0.00210728
0.00214267
7.4531e-05
0.00214383
6.64669e-05
5.92372e-05
0.00214488
0.00218097
7.33081e-05
0.00218208
6.53546e-05
5.82274e-05
0.00218309
0.00221989
7.21359e-05
0.00222096
6.42887e-05
5.72599e-05
0.00222192
0.00225944
7.10164e-05
0.00226046
6.32712e-05
5.63367e-05
0.00226138
0.00229964
6.99523e-05
0.00230061
6.23042e-05
5.54595e-05
0.00230149
0.00234049
6.8946e-05
0.00234141
6.13901e-05
5.46305e-05
0.00234224
0.00238201
6.80002e-05
0.00238287
6.05312e-05
5.38517e-05
0.00238365
0.0024242
6.71179e-05
0.002425
5.973e-05
5.31255e-05
0.00242573
0.00246707
6.63019e-05
0.00246782
5.89892e-05
5.24541e-05
0.00246849
0.00251065
6.55555e-05
0.00251132
5.83117e-05
5.18401e-05
0.00251194
0.00255493
6.48819e-05
0.00255554
5.77004e-05
5.12862e-05
0.00255609
0.00259993
6.4285e-05
0.00260047
5.71586e-05
5.07953e-05
0.00260096
0.00264566
6.37682e-05
0.00264613
5.66895e-05
5.03702e-05
0.00264656
0.00269214
6.33362e-05
0.00269253
5.62973e-05
5.00147e-05
0.00269288
0.00273937
6.29921e-05
0.00273969
5.59848e-05
4.97316e-05
0.00273997
0.00278737
6.27423e-05
0.0027876
5.57574e-05
4.95248e-05
0.00278781
0.00283597
0.0028361
0.00283621
1.77681e-05
5.58899e-05
1.38803e-05
3.88783e-06
1.65079e-05
-2.62765e-06
1.71123e-05
-6.0431e-07
1.58113e-05
1.30101e-06
1.3877e-05
1.93427e-06
1.15151e-05
2.36187e-06
8.80299e-06
2.71213e-06
6.00604e-06
2.79695e-06
3.42731e-06
2.57873e-06
1.30992e-06
2.1174e-06
-2.12549e-07
1.52247e-06
-1.12563e-06
9.13086e-07
-1.55609e-06
4.30461e-07
-1.62115e-06
6.50598e-08
-1.54582e-06
-7.53266e-08
-2.5973e-07
6.84953e-05
9.79619e-05
5.32735e-05
1.91097e-05
5.03525e-05
2.93409e-07
5.03669e-05
-6.18755e-07
4.78088e-05
3.85913e-06
4.31188e-05
6.62428e-06
3.70091e-05
8.47158e-06
2.97895e-05
9.93173e-06
2.19886e-05
1.05979e-05
1.43588e-05
1.02085e-05
7.65238e-06
8.82385e-06
2.42469e-06
6.75018e-06
-1.09847e-06
4.43625e-06
-3.08549e-06
2.41748e-06
-3.86958e-06
8.49156e-07
-3.98427e-06
3.93657e-08
-7.01516e-07
0.000111749
0.000119928
9.58829e-05
3.49756e-05
8.71133e-05
9.06299e-06
8.4074e-05
2.42061e-06
8.02101e-05
7.72297e-06
7.37091e-05
1.31253e-05
6.48929e-05
1.72878e-05
5.41278e-05
2.06968e-05
4.20182e-05
2.27075e-05
2.95728e-05
2.26538e-05
1.80046e-05
2.03921e-05
8.40858e-06
1.63462e-05
1.43534e-06
1.14095e-05
-2.89802e-06
6.75084e-06
-5.0396e-06
2.99075e-06
-5.76997e-06
7.69735e-07
-1.01325e-06
0.000142969
0.000127331
0.000133341
4.46031e-05
0.000123541
1.88634e-05
0.00011772
8.2416e-06
0.000112293
1.31495e-05
0.000104577
2.08414e-05
9.40889e-05
2.7776e-05
8.08959e-05
3.38899e-05
6.54529e-05
3.81505e-05
4.879e-05
3.93167e-05
3.24224e-05
3.67598e-05
1.80027e-05
3.07659e-05
6.79718e-06
2.2615e-05
-7.28426e-07
1.42765e-05
-4.93737e-06
7.1997e-06
-6.79551e-06
2.62788e-06
-8.58614e-07
0.000165026
0.000125572
0.000162287
4.73416e-05
0.000155208
2.59428e-05
0.000148912
1.4537e-05
0.000142721
1.93412e-05
0.000134451
2.91109e-05
0.000123251
3.89759e-05
0.000108812
4.83289e-05
9.12486e-05
5.57141e-05
7.1358e-05
5.92074e-05
5.07007e-05
5.74171e-05
3.13594e-05
5.01071e-05
1.53163e-05
3.86581e-05
3.74969e-06
2.58431e-05
-3.32825e-06
1.42776e-05
-6.91264e-06
6.21227e-06
1.65973e-07
0.000181051
0.000118528
0.000183367
4.50255e-05
0.00018014
2.91701e-05
0.000175323
1.93534e-05
0.000169728
2.49367e-05
0.00016188
3.69585e-05
0.000150955
4.99015e-05
0.00013644
6.28438e-05
0.000118084
7.40699e-05
9.62667e-05
8.10248e-05
7.22972e-05
8.13866e-05
4.84168e-05
7.39875e-05
2.72576e-05
5.98174e-05
1.09049e-05
4.21958e-05
9.28341e-08
2.50897e-05
-5.92445e-06
1.22296e-05
2.55255e-06
0.000193382
0.000108469
0.000198729
3.96789e-05
0.000198819
2.90798e-05
0.000196167
2.2006e-05
0.00019211
2.89936e-05
0.000185603
4.3465e-05
0.000175892
5.96132e-05
0.000162387
7.6349e-05
0.000144544
9.19123e-05
0.000122257
0.000103312
9.63322e-05
0.000107311
6.88139e-05
0.000101506
4.27266e-05
8.59046e-05
2.10982e-05
6.38242e-05
5.69745e-06
4.04904e-05
-3.57052e-06
2.14975e-05
6.90365e-06
0.000203378
9.65755e-05
0.000210355
3.27023e-05
0.000212771
2.66634e-05
0.00021206
2.27169e-05
0.000209744
3.13104e-05
0.00020503
4.81792e-05
0.000197169
6.7474e-05
0.000185519
8.79987e-05
0.000169316
0.000108115
0.000147981
0.000124648
0.000121665
0.000133627
9.186e-05
0.000131311
6.15762e-05
0.000116189
3.45922e-05
9.08082e-05
1.38979e-05
6.11847e-05
4.87362e-07
3.49081e-05
1.39557e-05
0.000211703
8.3488e-05
0.000219523
2.48815e-05
0.000223443
2.27434e-05
0.000224167
2.19933e-05
0.000223314
3.2163e-05
0.000220341
5.11531e-05
0.000214514
7.33004e-05
0.000205167
9.73459e-05
0.000191386
0.000121896
0.00017219
0.000143843
0.000147033
0.000158785
0.000116577
0.000161766
8.33462e-05
0.000149419
5.14588e-05
0.000122696
2.50856e-05
8.75579e-05
6.65741e-06
5.33363e-05
2.45846e-05
0.00021868
6.963e-05
0.000226933
1.66278e-05
0.000231826
1.78503e-05
0.000233549
2.0271e-05
0.000233767
3.19452e-05
0.000232208
5.27118e-05
0.000228226
7.72818e-05
0.000221202
0.00010437
0.000210182
0.000132916
0.000193916
0.00016011
0.000171226
0.000181475
0.000141808
0.000191184
0.000107266
0.000183961
7.14952e-05
0.000158467
3.95255e-05
0.000119528
1.53817e-05
7.74801e-05
3.97445e-05
0.00022453
5.5335e-05
0.000232987
8.17091e-06
0.000238533
1.23047e-05
0.000240968
1.78356e-05
0.000241937
3.09766e-05
0.000241428
5.32201e-05
0.00023893
7.97803e-05
0.000233944
0.000109356
0.00022561
0.00014125
0.000212589
0.000173131
0.000193257
0.000200807
0.000166373
0.000218068
0.000132325
0.000218009
9.41848e-05
0.000196606
5.72721e-05
0.00015644
2.70688e-05
0.000107683
6.03652e-05
0.000229475
4.08777e-05
0.000237988
-3.42405e-07
0.00024398
6.31363e-06
0.000246949
1.48666e-05
0.000248455
2.94703e-05
0.000248703
5.29717e-05
0.00024732
8.11638e-05
0.000243963
0.000112713
0.000237957
0.000147256
0.000228069
0.000183019
0.000212485
0.00021639
0.000189232
0.000241321
0.000157396
0.000249845
0.000118721
0.000235282
7.80963e-05
0.000197065
4.20008e-05
0.000143779
8.71776e-05
0.00023373
2.64985e-05
0.000242243
-8.8549e-06
0.000248509
4.72856e-08
0.000251886
1.14893e-05
0.000253791
2.75661e-05
0.000254585
5.21776e-05
0.000254016
8.17325e-05
0.000251885
0.000114844
0.000247737
0.000151404
0.000240574
0.000190182
0.000228663
0.000228302
0.000209623
0.00026036
0.000181394
0.000278075
0.000144093
0.000272582
0.00010146
0.000239699
6.02434e-05
0.000184996
0.000120513
0.000237537
1.23781e-05
0.000246032
-1.73491e-05
0.000252421
-6.3421e-06
0.000256115
7.79543e-06
0.000258316
2.53652e-05
0.000259502
5.09915e-05
0.000259521
8.17138e-05
0.00025828
0.000116085
0.000255527
0.000154157
0.00025055
0.000195159
0.000241892
0.00023696
0.000227133
0.000275119
0.000203412
0.000301796
0.000169213
0.000306781
0.00012655
0.000282362
8.1575e-05
0.000229971
0.00016016
0.000241146
-1.39251e-06
0.000249574
-2.57776e-05
0.000255988
-1.27561e-05
0.000259921
3.86277e-06
0.000262339
2.29477e-05
0.000263798
4.95319e-05
0.000264231
8.12805e-05
0.000263621
0.000116695
0.000261871
0.000155907
0.000258537
0.000198492
0.000252531
0.000242966
0.000241697
0.000285953
0.000222834
0.000320658
0.000193061
0.000336554
0.000152367
0.000323056
0.000105467
0.00027687
0.000205285
0.000244806
-1.48843e-05
0.000253059
-3.40304e-05
0.000259436
-1.91334e-05
0.000263538
-2.38634e-07
0.000266108
2.03775e-05
0.000267748
4.78912e-05
0.000268463
8.05658e-05
0.000268285
0.000116874
0.000267228
0.000156964
0.000265065
0.000200655
0.000261072
0.000246958
0.000253541
0.000293484
0.000239375
0.000334824
0.000214809
0.00036112
0.00017785
0.000360015
0.000131122
0.000323598
0.000254448
0.000248598
-2.8129e-05
0.00025662
-4.20525e-05
0.00026292
-2.54327e-05
0.000267135
-4.45396e-06
0.00026981
1.77029e-05
0.000271563
4.61383e-05
0.000272458
7.96702e-05
0.000272562
0.00011677
0.000271965
0.000157561
0.000270597
0.000202023
0.00026804
0.000249516
0.00026308
0.000298444
0.000253065
0.000344839
0.000233914
0.000380272
0.000202009
0.00039192
0.000157555
0.000368052
0.000305723
0.000252517
-4.10504e-05
0.000260339
-4.98749e-05
0.000266536
-3.16299e-05
0.000270823
-8.74072e-06
0.000273569
1.49574e-05
0.000275387
4.43199e-05
0.000276393
7.86644e-05
0.000276672
0.00011649
0.000276365
0.000157869
0.000275509
0.000202879
0.000273914
0.000251111
0.000270818
0.00030154
0.000264183
0.000351475
0.000250144
0.000394311
0.000224044
0.000418019
0.000183718
0.000408379
0.000356907
0.000256605
-5.35998e-05
0.000264251
-5.75208e-05
0.000270333
-3.77122e-05
0.000274659
-1.30664e-05
0.000277454
1.21621e-05
0.00027931
4.24639e-05
0.000280382
7.75927e-05
0.000280766
0.000116106
0.000280631
0.000158004
0.000280087
0.000203423
0.000279099
0.000252098
0.00027726
0.000303379
0.000273169
0.000355565
0.000263563
0.000403917
0.000243425
0.000438157
0.000208622
0.000443181
0.000405771
0.000260873
-6.57461e-05
0.000268359
-6.50069e-05
0.000274321
-4.3674e-05
0.000278661
-1.74068e-05
0.000281494
9.32926e-06
0.000283375
4.05834e-05
0.000284489
7.64786e-05
0.000284938
0.000115657
0.000284902
0.00015804
0.000284536
0.00020379
0.000283905
0.000252728
0.000282852
0.000304433
0.000280531
0.000357886
0.00027447
0.000409978
0.000259921
0.000452707
0.000231452
0.00047165
0.000450317
0.000265314
-7.74703e-05
0.000272651
-7.23439e-05
0.000278491
-4.95135e-05
0.000282828
-2.17435e-05
0.000285691
6.46597e-06
0.000287592
3.86822e-05
0.00028874
7.53308e-05
0.000289237
0.00011516
0.000289262
0.000158016
0.000288993
0.000204059
0.000288556
0.000253165
0.000287953
0.000305035
0.000286761
0.000359078
0.000283312
0.000413427
0.000273588
0.000462431
0.000251644
0.000493593
0.000489002
0.000269913
-8.87614e-05
0.000277107
-7.95378e-05
0.000282825
-5.52315e-05
0.000287144
-2.60624e-05
0.000290033
3.57683e-06
0.000291956
3.67592e-05
0.000293137
7.41498e-05
0.000293678
0.000114618
0.000293751
0.000157943
0.000293538
0.000204271
0.0002932
0.000253503
0.00029283
0.000305405
0.000292289
0.000359619
0.0002906
0.000415116
0.000284717
0.000468315
0.000268927
0.000509383
0.000520872
0.000274654
-9.96146e-05
0.000281707
-8.6591e-05
0.000287305
-6.08295e-05
0.000291595
-3.03522e-05
0.000294506
6.65908e-07
0.000296454
3.48116e-05
0.000297671
7.29328e-05
0.00029826
0.000114029
0.00029838
0.000157823
0.000298212
0.000204439
0.000297925
0.000253789
0.000297662
0.000305669
0.00029745
0.000359831
0.00029683
0.000415736
0.000293752
0.000471393
0.000283315
0.000519821
0.000545625
0.000279527
-0.00011003
0.000286439
-9.3503e-05
0.000291919
-6.63095e-05
0.000296169
-3.4603e-05
0.0002991
-2.26426e-06
0.000301073
3.28381e-05
0.000302329
7.16767e-05
0.000302971
0.000113387
0.000303146
0.000157649
0.000303025
0.00020456
0.000302775
0.000254039
0.000302556
0.000305888
0.000302482
0.000359905
0.000302427
0.00041579
0.00030121
0.00047261
0.000295065
0.000525966
0.000563564
0.000284524
-0.000120013
0.000291293
-0.000100272
0.000296657
-7.16737e-05
0.00030086
-3.8806e-05
0.000303806
-5.21061e-06
0.000305806
3.08384e-05
0.000307103
7.03797e-05
0.000307803
0.000112687
0.000308039
0.000157412
0.000307973
0.000204626
0.000307763
0.00025425
0.000307568
0.000306083
0.000307535
0.000359938
0.000307724
0.000415602
0.000307598
0.000472736
0.00030461
0.000528954
0.000575484
0.000289645
-0.000129572
0.000296267
-0.000106894
0.000301517
-7.69237e-05
0.000305666
-4.29546e-05
0.000308623
-8.16735e-06
0.000310648
2.8813e-05
0.000311986
6.90414e-05
0.000312745
0.000111928
0.000313049
0.000157109
0.000313048
0.000204627
0.000312888
0.000254409
0.000312719
0.000306252
0.000312693
0.000359964
0.000312947
0.000415348
0.000313358
0.000472325
0.000312466
0.000529846
0.000582498
0.000294889
-0.000138715
0.000301361
-0.000113366
0.000306498
-8.20607e-05
0.000310587
-4.70438e-05
0.000313548
-1.1128e-05
0.000315598
2.67628e-05
0.000316977
6.76625e-05
0.000317796
0.000111109
0.00031817
0.000156735
0.00031824
0.000204558
0.000318141
0.000254508
0.000318011
0.000306383
0.000317989
0.000359985
0.000318233
0.000415104
0.000318833
0.000471725
0.000319161
0.000529518
0.000585847
0.000300259
-0.000147457
0.000306576
-0.000119683
0.000311601
-8.70854e-05
0.000315626
-5.1069e-05
0.000318584
-1.40862e-05
0.000320657
2.46898e-05
0.000322075
6.62445e-05
0.000322952
0.000110232
0.000323397
0.00015629
0.000323542
0.000204413
0.000323514
0.000254536
0.000323435
0.000306462
0.000323433
0.000359987
0.000323652
0.000414886
0.000324259
0.000471117
0.000325167
0.00052861
0.000586726
0.000305755
-0.00015581
0.000311913
-0.000125842
0.000316826
-9.19982e-05
0.000320784
-5.50267e-05
0.000323733
-1.70361e-05
0.000325827
2.25964e-05
0.000327282
6.47892e-05
0.000328216
0.000109298
0.000328731
0.000155775
0.000328952
0.000204192
0.000328998
0.00025449
0.000328982
0.000306478
0.000329016
0.000359953
0.000329226
0.000414676
0.000329774
0.000470569
0.000330857
0.000527527
0.000586152
0.000311379
-0.000163789
0.000317374
-0.000131837
0.000322175
-9.67989e-05
0.000326062
-5.89139e-05
0.000328998
-1.9972e-05
0.000331109
2.04854e-05
0.0003326
6.32986e-05
0.000333588
0.00010831
0.000334172
0.000155191
0.000334468
0.000203896
0.000334591
0.000254367
0.000334645
0.000306424
0.00033473
0.000359868
0.000334953
0.000414454
0.000335443
0.000470078
0.000336491
0.000526479
0.000584887
0.000317132
-0.000171408
0.000322961
-0.000137666
0.000327649
-0.000101487
0.000331463
-6.27283e-05
0.000334381
-2.28892e-05
0.000336506
1.83597e-05
0.00033803
6.17746e-05
0.000339071
0.000107269
0.000339722
0.000154541
0.000340092
0.000203525
0.000340293
0.000254167
0.00034042
0.000306296
0.000340566
0.000359722
0.000340822
0.000414197
0.000341284
0.000469617
0.000342225
0.000525538
0.000583426
0.000323014
-0.000178682
0.000328674
-0.000143325
0.000333249
-0.000106062
0.000336989
-6.64679e-05
0.000339883
-2.57831e-05
0.00034202
1.62222e-05
0.000343575
6.02192e-05
0.000344666
0.000106178
0.000345382
0.000153825
0.000345826
0.000203081
0.000346102
0.00025389
0.000346305
0.000306094
0.000346517
0.00035951
0.000346822
0.000413892
0.000347288
0.00046915
0.00034813
0.000524696
0.000582031
0.000329026
-0.000185625
0.000334515
-0.000148814
0.000338976
-0.000110524
0.000342639
-7.01313e-05
0.000345506
-2.86498e-05
0.000347652
1.40761e-05
0.000349237
5.86346e-05
0.000350375
0.00010504
0.000351154
0.000153047
0.00035167
0.000202565
0.000352022
0.000253538
0.000352299
0.000305817
0.000352581
0.000359229
0.000352943
0.000413529
0.00035344
0.000468653
0.000354224
0.000523913
0.000580788
0.000335168
-0.000192251
0.000340484
-0.00015413
0.000344831
-0.000114871
0.000348417
-7.37173e-05
0.000351253
-3.14858e-05
0.000353405
1.19244e-05
0.000355017
5.70228e-05
0.000356201
0.000103855
0.000357041
0.000152207
0.000357627
0.000201979
0.000358054
0.000253111
0.000358406
0.000305465
0.000358758
0.000358877
0.000359182
0.000413104
0.000359726
0.00046811
0.000360495
0.000523143
0.000579682
0.000341441
-0.000198573
0.000346584
-0.000159272
0.000350816
-0.000119103
0.000354324
-7.72251e-05
0.000357126
-3.4288e-05
0.00035928
9.77017e-06
0.000360917
5.5386e-05
0.000362145
0.000102628
0.000363043
0.000151309
0.000363698
0.000201324
0.000364199
0.000252611
0.000364625
0.000305039
0.000365048
0.000358454
0.000365536
0.000412616
0.000366135
0.000467511
0.000366922
0.000522357
0.000578649
0.000347847
-0.000204605
0.000352816
-0.000164242
0.000356933
-0.00012322
0.000360362
-8.06538e-05
0.000363127
-3.70535e-05
0.000365281
7.61655e-06
0.00036694
5.37266e-05
0.000368209
0.000101359
0.000369164
0.000150354
0.000369886
0.000200601
0.000370459
0.000252038
0.000370959
0.000304539
0.000371454
0.000357959
0.000372007
0.000412063
0.000372665
0.000466853
0.000373486
0.000521535
0.000577626
0.000354385
-0.000210358
0.000359182
-0.00016904
0.000363183
-0.00012722
0.000366532
-8.4003e-05
0.000369259
-3.97801e-05
0.000371409
5.46645e-06
0.000373089
5.20469e-05
0.000374396
0.000100052
0.000375406
0.000149344
0.000376193
0.000199814
0.000376837
0.000251394
0.00037741
0.000303965
0.000377977
0.000357393
0.000378596
0.000411444
0.000379315
0.000466134
0.000380178
0.000520672
0.000576564
0.000361058
-0.000215845
0.000365684
-0.000173666
0.000369569
-0.000131105
0.000372838
-8.72721e-05
0.000375523
-4.24656e-05
0.000377667
3.32279e-06
0.000379365
5.03492e-05
0.000380708
9.87079e-05
0.00038177
0.000148282
0.000382621
0.000198963
0.000383335
0.00025068
0.00038398
0.00030332
0.000384618
0.000356755
0.000385304
0.000410758
0.000386086
0.000465353
0.000386994
0.000519763
0.00057544
0.000367866
-0.000221077
0.000372323
-0.000178123
0.000376091
-0.000134873
0.00037928
-9.04608e-05
0.000381923
-4.51082e-05
0.000384057
1.18839e-06
0.00038577
4.86358e-05
0.000387148
9.73299e-05
0.00038826
0.000147171
0.000389172
0.000198051
0.000389954
0.000249898
0.000390671
0.000302603
0.000391381
0.000356045
0.000392134
0.000410004
0.000392979
0.000464508
0.000393935
0.000518808
0.000574248
0.000374812
-0.000226064
0.000379102
-0.000182412
0.000382754
-0.000138525
0.000385862
-9.35688e-05
0.00038846
-4.77062e-05
0.000390582
-9.3442e-07
0.000392309
4.69092e-05
0.000393719
9.59201e-05
0.000394878
0.000146012
0.000395849
0.00019708
0.000396697
0.00024905
0.000397485
0.000301815
0.000398266
0.000355264
0.000399087
0.000409183
0.000399998
0.000463597
0.000401003
0.000517803
0.000572993
0.000381897
-0.000230815
0.000386021
-0.000186536
0.000389557
-0.000142061
0.000392585
-9.6596e-05
0.000395136
-5.02577e-05
0.000397246
-3.04383e-06
0.000398983
4.51721e-05
0.000400422
9.44809e-05
0.000401626
0.000144808
0.000402654
0.000196052
0.000403568
0.000248136
0.000404424
0.000300959
0.000405276
0.000354413
0.000406166
0.000408293
0.000407144
0.000462619
0.000408201
0.000516746
0.000571684
0.000389123
-0.000235341
0.000393085
-0.000190498
0.000396505
-0.000145481
0.000399451
-9.95421e-05
0.000401955
-5.27614e-05
0.000404049
-5.13773e-06
0.000405794
4.34268e-05
0.000407261
9.30146e-05
0.000408507
0.000143561
0.000409591
0.000194968
0.000410567
0.000247159
0.000411492
0.000300034
0.000412414
0.000353491
0.000413372
0.000407334
0.000414417
0.000461574
0.000415533
0.00051563
0.000570327
0.000396492
-0.00023965
0.000400294
-0.0001943
0.000403599
-0.000148787
0.000406465
-0.000102407
0.000408919
-5.52163e-05
0.000410995
-7.21374e-06
0.000412747
4.16756e-05
0.000414238
9.15235e-05
0.000415525
0.000142274
0.000416661
0.000193832
0.000417699
0.000246121
0.00041869
0.000299043
0.000419681