/*--------------------------------*- C++ -*----------------------------------*\
| =========                 |                                                 |
| \\      /  F ield         | OpenFOAM: The Open Source CFD Toolbox           |
|  \\    /   O peration     | Version:  v1912                                 |
|   \\  /    A nd           | Website:  www.openfoam.com                      |
|    \\/     M anipulation  |                                                 |
\*---------------------------------------------------------------------------*/
FoamFile
{
    version     2.0;
    format      ascii;
    class       volVectorField;
    location    "3500";
    object      U;
}
// * * * * * * * * * * * * * * * * * * * * * * * * * * * * * * * * * * * * * //

dimensions      [0 1 -1 0 0 0 0];


internalField   nonuniform List<vector> 
3101
(
(19.7885 0.129464 0)
(16.4573 0.223623 0)
(11.5982 0.334759 0)
(5.28429 0.537362 0)
(19.8028 0.384174 0)
(16.4779 0.666996 0)
(11.6345 0.996749 0)
(5.31317 1.59766 0)
(19.8303 0.634853 0)
(16.5196 1.10731 0)
(11.7153 1.6517 0)
(5.37765 2.65545 0)
(19.8715 0.885589 0)
(16.5822 1.54706 0)
(11.8402 2.3061 0)
(5.47746 3.73711 0)
(19.9262 1.13445 0)
(16.6654 1.98201 0)
(12.0099 2.95581 0)
(5.61369 4.84366 0)
(19.9942 1.3801 0)
(16.7688 2.40987 0)
(12.2262 3.5983 0)
(5.78786 5.97632 0)
(20.0754 1.62181 0)
(16.8922 2.82924 0)
(12.4916 4.23246 0)
(6.00201 7.14032 0)
(20.1693 1.85894 0)
(17.0353 3.23852 0)
(12.8096 4.85707 0)
(6.25884 8.34235 0)
(20.2756 2.09083 0)
(17.1976 3.63575 0)
(13.1845 5.47039 0)
(6.56173 9.58929 0)
(20.3937 2.31683 0)
(17.3788 4.01864 0)
(13.6216 6.07032 0)
(6.91473 10.8884 0)
(20.5231 2.53634 0)
(17.578 4.38459 0)
(14.1269 6.65441 0)
(7.32261 12.2478 0)
(20.663 2.74881 0)
(17.7946 4.7306 0)
(14.7079 7.21972 0)
(7.791 13.6764 0)
(20.8126 2.95374 0)
(18.0275 5.05321 0)
(15.3733 7.76303 0)
(8.32531 15.1841 0)
(20.9709 3.15069 0)
(18.2753 5.34847 0)
(16.1331 8.27884 0)
(8.94447 16.7825 0)
(21.1364 3.3393 0)
(18.5363 5.61137 0)
(17.0006 8.76559 0)
(9.5509 18.4418 0)
(21.3027 3.51485 0)
(18.8037 5.83054 0)
(17.9118 9.19983 0)
(11.7111 19.7166 0)
(21.4688 3.67916 0)
(19.0831 6.00803 0)
(18.7383 9.54637 0)
(13.9181 19.9152 0)
(21.6387 3.83752 0)
(19.3865 6.15415 0)
(19.4305 9.7944 0)
(15.9559 19.4826 0)
(21.8105 3.98871 0)
(19.713 6.27451 0)
(19.9942 9.94788 0)
(17.7718 18.9189 0)
(21.9829 4.1316 0)
(20.0598 6.37544 0)
(20.4638 10.0223 0)
(19.3637 18.3617 0)
(22.155 4.2652 0)
(20.4228 6.46162 0)
(20.8661 10.0312 0)
(20.7363 17.7753 0)
(22.3263 4.38867 0)
(20.7966 6.53598 0)
(21.2195 9.98594 0)
(21.8961 17.1434 0)
(22.4966 4.5014 0)
(21.1751 6.60042 0)
(21.5411 9.89742 0)
(22.854 16.4854 0)
(22.6663 4.60305 0)
(21.5523 6.65613 0)
(21.8465 9.77661 0)
(23.6268 15.8212 0)
(22.8358 4.69354 0)
(21.9227 6.7036 0)
(22.1483 9.63372 0)
(24.2372 15.1606 0)
(23.0056 4.77308 0)
(22.2814 6.74268 0)
(22.4546 9.47751 0)
(24.7121 14.5108 0)
(23.1762 4.84209 0)
(22.6247 6.77282 0)
(22.7695 9.31491 0)
(25.0802 13.8796 0)
(23.3482 4.90117 0)
(22.9504 6.79334 0)
(23.0932 9.151 0)
(25.3692 13.2746 0)
(23.5218 4.95106 0)
(23.2571 6.8036 0)
(23.4232 8.98908 0)
(25.6041 12.7014 0)
(23.697 4.99253 0)
(23.545 6.80318 0)
(23.7547 8.83089 0)
(25.8052 12.1633 0)
(23.8736 5.02636 0)
(23.815 6.792 0)
(24.0823 8.67695 0)
(25.9874 11.6618 0)
(24.0513 5.05327 0)
(24.0686 6.77033 0)
(24.4006 8.52692 0)
(26.1607 11.1975 0)
(24.2294 5.07391 0)
(24.3079 6.73876 0)
(24.7051 8.38001 0)
(26.33 10.7689 0)
(24.5347 6.69814 0)
(24.9927 8.23531 0)
(26.4969 10.373 0)
(24.751 6.6495 0)
(25.2618 8.09204 0)
(26.6608 10.0066 0)
(24.9584 6.59394 0)
(25.5119 7.94966 0)
(26.8201 9.66654 0)
(25.1578 6.53252 0)
(25.7438 7.80789 0)
(26.9731 9.35002 0)
(25.3503 6.46625 0)
(25.9588 7.66672 0)
(27.1184 9.05454 0)
(25.5361 6.39602 0)
(26.1586 7.52629 0)
(27.2553 8.77791 0)
(25.7155 6.32259 0)
(26.3449 7.38686 0)
(27.3838 8.51828 0)
(25.8886 6.24661 0)
(26.5192 7.24872 0)
(27.5042 8.27404 0)
(26.0555 6.16861 0)
(26.6828 7.11215 0)
(27.617 8.04376 0)
(26.2162 6.08907 0)
(26.8367 6.9774 0)
(27.7231 7.82619 0)
(26.3709 6.00837 0)
(26.9818 6.84468 0)
(27.823 7.62021 0)
(26.5196 5.92686 0)
(27.1188 6.71417 0)
(27.9174 7.42479 0)
(26.6626 5.84485 0)
(27.2484 6.58599 0)
(28.0066 7.23903 0)
(26.8 5.76259 0)
(27.3711 6.46027 0)
(28.0913 7.06211 0)
(26.932 5.68032 0)
(27.4874 6.33709 0)
(28.1717 6.89329 0)
(27.0589 5.59823 0)
(27.5979 6.21653 0)
(28.2482 6.73193 0)
(27.1807 5.5165 0)
(27.703 6.09863 0)
(28.3212 6.57744 0)
(27.2978 5.43526 0)
(27.803 5.98342 0)
(28.3908 6.42933 0)
(27.4102 5.35464 0)
(27.8984 5.87093 0)
(28.4574 6.28713 0)
(27.5183 5.27474 0)
(27.9895 5.76114 0)
(28.5212 6.15044 0)
(27.6221 5.19566 0)
(28.0765 5.65404 0)
(28.5824 6.01889 0)
(27.7219 5.11746 0)
(28.1598 5.5496 0)
(28.6412 5.89217 0)
(27.8178 5.0402 0)
(28.2396 5.44779 0)
(28.6978 5.76998 0)
(27.9101 4.96394 0)
(28.316 5.34855 0)
(28.7524 5.65205 0)
(27.9989 4.88871 0)
(28.3894 5.25185 0)
(28.805 5.53816 0)
(28.0843 4.81456 0)
(28.4599 5.15762 0)
(28.8559 5.42807 0)
(28.1665 4.74151 0)
(28.5277 5.06579 0)
(28.9051 5.3216 0)
(28.2457 4.66958 0)
(28.5929 4.97632 0)
(28.9527 5.21856 0)
(28.3221 4.59878 0)
(28.6557 4.88913 0)
(28.9988 5.11879 0)
(28.3957 4.52914 0)
(28.7163 4.80415 0)
(29.0436 5.02212 0)
(28.4666 4.46064 0)
(28.7747 4.72133 0)
(29.0871 4.92841 0)
(28.5351 4.3933 0)
(28.8311 4.64058 0)
(29.1293 4.83753 0)
(28.6013 4.32712 0)
(28.8856 4.56186 0)
(29.1704 4.74934 0)
(28.6652 4.26208 0)
(28.9384 4.48509 0)
(29.2104 4.66373 0)
(28.7269 4.19819 0)
(28.9894 4.41022 0)
(29.2493 4.58059 0)
(28.7866 4.13543 0)
(29.0388 4.33717 0)
(29.2873 4.49979 0)
(28.8444 4.07379 0)
(29.0867 4.26588 0)
(29.3244 4.42125 0)
(28.9004 4.01326 0)
(29.1332 4.19631 0)
(29.3605 4.34487 0)
(28.9545 3.95381 0)
(29.1783 4.12838 0)
(29.3959 4.27055 0)
(29.007 3.89545 0)
(29.2221 4.06204 0)
(29.4304 4.1982 0)
(29.058 3.83813 0)
(29.2647 3.99724 0)
(29.4642 4.12775 0)
(29.1073 3.78185 0)
(29.3062 3.93392 0)
(29.4973 4.0591 0)
(29.1553 3.72658 0)
(29.3465 3.87203 0)
(29.5297 3.99219 0)
(29.2018 3.67231 0)
(29.3857 3.81151 0)
(29.5615 3.92694 0)
(29.2471 3.619 0)
(29.424 3.75232 0)
(29.5926 3.86328 0)
(29.291 3.56663 0)
(29.4613 3.69441 0)
(29.6231 3.80114 0)
(29.3338 3.51518 0)
(29.4977 3.63773 0)
(29.653 3.74045 0)
(29.3753 3.46463 0)
(29.5332 3.58223 0)
(29.6824 3.68115 0)
(29.4158 3.41495 0)
(29.5678 3.52787 0)
(29.7113 3.62319 0)
(29.4552 3.36612 0)
(29.6016 3.4746 0)
(29.7396 3.56651 0)
(29.4935 3.3181 0)
(29.6347 3.42239 0)
(29.7674 3.51104 0)
(29.5309 3.27087 0)
(29.667 3.37118 0)
(29.7947 3.45674 0)
(29.5673 3.22442 0)
(29.6986 3.32095 0)
(29.8216 3.40355 0)
(29.6028 3.17871 0)
(29.7295 3.27164 0)
(29.8479 3.35143 0)
(29.6374 3.13372 0)
(29.7597 3.22323 0)
(29.8739 3.30032 0)
(29.6712 3.08942 0)
(29.7892 3.17567 0)
(29.8993 3.25018 0)
(29.7041 3.04579 0)
(29.8181 3.12893 0)
(29.9243 3.20097 0)
(29.7362 3.0028 0)
(29.8463 3.08297 0)
(29.9489 3.15265 0)
(29.7675 2.96043 0)
(29.874 3.03777 0)
(29.973 3.10517 0)
(29.798 2.91866 0)
(29.901 2.99328 0)
(29.9967 3.05849 0)
(29.8278 2.87747 0)
(29.9274 2.94949 0)
(30.02 3.01259 0)
(29.8568 2.83683 0)
(29.9533 2.90634 0)
(30.0428 2.96741 0)
(29.8851 2.79671 0)
(29.9785 2.86383 0)
(30.0652 2.92293 0)
(29.9127 2.75711 0)
(30.0032 2.82192 0)
(30.0871 2.87912 0)
(29.9396 2.71799 0)
(30.0273 2.78058 0)
(30.1086 2.83594 0)
(29.9658 2.67934 0)
(30.0508 2.73978 0)
(30.1296 2.79337 0)
(29.9914 2.64114 0)
(30.0738 2.69951 0)
(30.1501 2.75137 0)
(30.0162 2.60337 0)
(30.0962 2.65974 0)
(30.1702 2.70992 0)
(30.0404 2.56601 0)
(30.118 2.62045 0)
(30.1899 2.669 0)
(30.0639 2.52904 0)
(30.1392 2.58161 0)
(30.209 2.62857 0)
(30.0867 2.49245 0)
(30.1599 2.5432 0)
(30.2277 2.58862 0)
(30.1088 2.45623 0)
(30.18 2.50522 0)
(30.2458 2.54913 0)
(30.1303 2.42036 0)
(30.1995 2.46763 0)
(30.2635 2.51007 0)
(30.1511 2.38482 0)
(30.2184 2.43043 0)
(30.2806 2.47143 0)
(30.1713 2.3496 0)
(30.2367 2.3936 0)
(30.2972 2.43319 0)
(30.1908 2.31469 0)
(30.2543 2.35711 0)
(30.3132 2.39534 0)
(30.2095 2.28009 0)
(30.2714 2.32097 0)
(30.3287 2.35786 0)
(30.2276 2.24577 0)
(30.2878 2.28516 0)
(30.3436 2.32073 0)
(30.245 2.21174 0)
(30.3037 2.24967 0)
(30.358 2.28395 0)
(30.2618 2.17798 0)
(30.3188 2.21448 0)
(30.3717 2.24751 0)
(30.2778 2.14448 0)
(30.3333 2.1796 0)
(30.3848 2.21139 0)
(30.2931 2.11125 0)
(30.3472 2.14501 0)
(30.3973 2.17559 0)
(30.3076 2.07827 0)
(30.3603 2.11071 0)
(30.4092 2.1401 0)
(30.3215 2.04555 0)
(30.3728 2.07669 0)
(30.4204 2.10492 0)
(30.3346 2.01308 0)
(30.3846 2.04295 0)
(30.431 2.07004 0)
(30.347 1.98086 0)
(30.3957 2.00949 0)
(30.4408 2.03546 0)
(30.3586 1.94888 0)
(30.406 1.97631 0)
(30.45 2.00119 0)
(30.3695 1.91716 0)
(30.4156 1.9434 0)
(30.4585 1.96721 0)
(30.3796 1.88569 0)
(30.4245 1.91077 0)
(30.4663 1.93353 0)
(30.3889 1.85447 0)
(30.4326 1.87843 0)
(30.4733 1.90015 0)
(30.3974 1.82351 0)
(30.44 1.84637 0)
(30.4796 1.86709 0)
(30.4051 1.79281 0)
(30.4466 1.81459 0)
(30.4851 1.83433 0)
(30.4121 1.76239 0)
(30.4524 1.78312 0)
(30.4898 1.80189 0)
(30.4182 1.73224 0)
(30.4574 1.75194 0)
(30.4938 1.76977 0)
(30.4235 1.70237 0)
(30.4616 1.72108 0)
(30.497 1.73799 0)
(30.428 1.6728 0)
(30.465 1.69054 0)
(30.4994 1.70655 0)
(30.4316 1.64354 0)
(30.4676 1.66032 0)
(30.501 1.67546 0)
(30.4344 1.61459 0)
(30.4693 1.63045 0)
(30.5018 1.64473 0)
(30.4364 1.58597 0)
(30.4702 1.60094 0)
(30.5017 1.61438 0)
(30.4375 1.5577 0)
(30.4703 1.57179 0)
(30.5008 1.58443 0)
(30.4377 1.52978 0)
(30.4695 1.54302 0)
(30.4991 1.55487 0)
(30.4371 1.50224 0)
(30.4679 1.51466 0)
(30.4966 1.52574 0)
(30.4356 1.47508 0)
(30.4654 1.48671 0)
(30.4931 1.49705 0)
(30.4333 1.44834 0)
(30.4621 1.45919 0)
(30.4889 1.46881 0)
(30.4301 1.42202 0)
(30.4579 1.43212 0)
(30.4838 1.44105 0)
(30.426 1.39614 0)
(30.4528 1.40552 0)
(30.4778 1.41378 0)
(30.4211 1.37073 0)
(30.4469 1.37942 0)
(30.471 1.38703 0)
(30.4153 1.34581 0)
(30.4401 1.35383 0)
(30.4633 1.36081 0)
(30.4086 1.32141 0)
(30.4325 1.32878 0)
(30.4547 1.33515 0)
(30.4011 1.29753 0)
(30.424 1.30428 0)
(30.4453 1.31008 0)
(30.3927 1.27422 0)
(30.4146 1.28037 0)
(30.435 1.28561 0)
(30.3835 1.25149 0)
(30.4044 1.25707 0)
(30.4239 1.26178 0)
(30.3734 1.22937 0)
(30.3933 1.23441 0)
(30.412 1.23861 0)
(30.3624 1.2079 0)
(30.3814 1.21242 0)
(30.3992 1.21612 0)
(30.3506 1.18709 0)
(30.3687 1.19112 0)
(30.3856 1.19436 0)
(30.338 1.16699 0)
(30.3551 1.17054 0)
(30.3711 1.17334 0)
(30.3245 1.14762 0)
(30.3407 1.15073 0)
(30.3558 1.15311 0)
(30.3103 1.12902 0)
(30.3255 1.13171 0)
(30.3397 1.13369 0)
(30.2952 1.11122 0)
(30.3095 1.11351 0)
(30.3228 1.11512 0)
(30.2794 1.09426 0)
(30.2927 1.09617 0)
(30.3051 1.09744 0)
(30.2627 1.07818 0)
(30.2751 1.07974 0)
(30.2866 1.08068 0)
(30.2453 1.06302 0)
(30.2567 1.06426 0)
(30.2673 1.06488 0)
(30.2271 1.04881 0)
(30.2376 1.04975 0)
(30.2473 1.0501 0)
(30.2082 1.03562 0)
(30.2177 1.03628 0)
(30.2265 1.03637 0)
(30.1886 1.02348 0)
(30.1971 1.02389 0)
(30.205 1.02374 0)
(30.1682 1.01245 0)
(30.1758 1.01263 0)
(30.1828 1.01226 0)
(30.1472 1.00258 0)
(30.1537 1.00256 0)
(30.1598 1.00201 0)
(30.1254 0.993896 0)
(30.131 0.99369 0)
(30.1362 0.992961 0)
(30.1031 0.986592 0)
(30.1076 0.986245 0)
(30.1119 0.985385 0)
(30.0801 0.980384 0)
(30.0837 0.979888 0)
(30.087 0.97889 0)
(30.0565 0.976126 0)
(30.059 0.975558 0)
(30.0614 0.974491 0)
(30.0304 0.972291 0)
(30.0318 0.971617 0)
(30.0331 0.970456 0)
(7.94239 4.21184 1.4778e-14)
(1.97092 0.828673 4.86666e-20)
(2.15217 0.657922 5.92188e-15)
(2.76396 0.705155 0)
(2.70888 0.593644 0)
(2.41721 0.437646 3.58105e-15)
(2.0689 0.29664 0)
(1.65749 0.176409 -1.9599e-19)
(1.20272 0.0832239 1.54099e-15)
(0.756166 0.0233444 0)
(0.366475 -0.00385802 0)
(0.0657027 -0.00531823 1.11123e-19)
(-0.130673 0.00808139 1.66152e-15)
(-0.236294 0.0266642 2.56595e-19)
(-0.267125 0.0415032 -1.24391e-15)
(-0.264219 0.0530632 0)
(-0.228944 0.0550663 2.07551e-15)
(16.7295 8.49013 -1.45468e-14)
(9.06886 3.37102 1.0085e-14)
(7.38244 2.17168 0)
(7.98138 2.04949 0)
(7.90617 1.78077 5.67799e-19)
(7.27519 1.37472 -4.71864e-15)
(6.41023 0.979285 -2.77425e-19)
(5.35134 0.634017 -4.50514e-15)
(4.13729 0.355465 -2.11244e-15)
(2.87924 0.160496 0)
(1.70953 0.0527906 4.186e-16)
(0.738618 0.0192727 -1.62905e-19)
(0.0397934 0.0343982 -4.96052e-15)
(-0.392189 0.0726655 2.13131e-15)
(-0.587352 0.108401 -2.48218e-18)
(-0.651042 0.140028 -1.99023e-19)
(-0.601533 0.146988 1.97439e-19)
(21.689 10.9415 2.42702e-14)
(16.1427 6.16672 -2.46871e-16)
(13.3284 4.11756 0)
(13.1734 3.43601 -7.78964e-15)
(12.905 2.94113 -1.70057e-20)
(12.0844 2.3488 5.16178e-19)
(10.8883 1.74966 0)
(9.3648 1.20737 4.07299e-15)
(7.55664 0.751428 -1.90627e-15)
(5.59453 0.407651 0)
(3.66868 0.189252 -7.84005e-16)
(1.97253 0.0873984 -1.55903e-19)
(0.663043 0.0721167 2.44124e-15)
(-0.216955 0.1077 -4.28235e-15)
(-0.685554 0.152925 -1.27735e-18)
(-0.894725 0.200853 2.01418e-19)
(-0.888834 0.213911 -1.10523e-20)
(24.5606 12.2945 -1.0774e-14)
(21.5155 8.32984 -7.5922e-15)
(18.9121 6.04257 0)
(18.218 4.85819 9.72745e-17)
(17.6547 4.07669 0)
(16.6894 3.31414 0)
(15.3174 2.55775 0)
(13.52 1.85771 0)
(11.3094 1.24753 1.7146e-15)
(8.7988 0.758204 0)
(6.19814 0.412989 7.14462e-16)
(3.7684 0.214262 1.287e-15)
(1.76487 0.138056 2.64149e-19)
(0.318558 0.14612 4.22712e-15)
(-0.539077 0.185953 3.80508e-15)
(-0.9815 0.242863 0)
(-1.08136 0.260485 0)
(26.3087 12.9929 0)
(25.1079 9.69711 0)
(23.3167 7.55972 5.10834e-15)
(22.6233 6.14275 1.51275e-16)
(21.9432 5.13865 0)
(20.9156 4.22924 3.41384e-15)
(19.4949 3.35253 4.1792e-19)
(17.6013 2.53596 -1.89686e-19)
(15.1921 1.8056 -1.51598e-15)
(12.3303 1.19033 3.49403e-16)
(9.20122 0.719255 -3.20604e-16)
(6.09668 0.407656 -2.90031e-18)
(3.36268 0.245555 -1.43954e-19)
(1.24954 0.201369 -2.02526e-15)
(-0.117816 0.218351 -8.69667e-19)
(-0.892015 0.27408 0)
(-1.16712 0.292069 3.24317e-15)
(27.4601 13.3149 1.96486e-19)
(27.3975 10.4662 9.93336e-20)
(26.4082 8.58606 -2.29158e-16)
(26.0345 7.1427 1.94112e-16)
(25.4916 6.03601 0)
(24.5576 5.04009 -3.16889e-15)
(23.223 4.08767 -3.78296e-19)
(21.3942 3.19686 2.90105e-15)
(18.9833 2.38584 2.72273e-15)
(15.9878 1.676 -3.13019e-16)
(12.5311 1.09563 -6.40394e-20)
(8.88506 0.669406 -2.09115e-15)
(5.45185 0.404747 -1.96019e-15)
(2.60901 0.285574 -1.88574e-15)
(0.617 0.260248 -1.8374e-15)
(-0.599461 0.302064 0)
(-1.13007 0.313715 -3.29205e-15)
(28.2727 13.421 1.75767e-19)
(28.8696 10.8682 -5.52537e-15)
(28.4533 9.21514 -8.68994e-15)
(28.4421 7.8328 1.06222e-14)
(28.1684 6.7127 -5.7456e-15)
(27.4606 5.697 -3.4975e-19)
(26.3382 4.72061 -2.76805e-15)
(24.7142 3.79994 -2.68151e-15)
(22.4752 2.94975 -1.84901e-17)
(19.5585 2.18324 -7.24077e-20)
(16.0036 1.52225 -2.51458e-16)
(12.014 0.994033 9.29112e-16)
(7.99157 0.62133 1.75445e-15)
(4.41606 0.409274 1.71929e-15)
(1.70888 0.321858 -1.72316e-15)
(-0.0680156 0.334073 -3.44919e-15)
(-0.948194 0.330732 -3.32126e-15)
(28.8563 13.392 0)
(29.8438 11.055 5.51949e-15)
(29.7862 9.5718 2.44176e-16)
(30.0487 8.26826 -5.05906e-15)
(30.0406 7.17437 5.5511e-15)
(29.6013 6.18171 2.6526e-15)
(28.7608 5.22372 2.62607e-15)
(27.4374 4.31326 0)
(25.5028 3.46313 -1.12751e-15)
(22.8461 2.67919 0)
(19.4203 1.97346 4.50693e-16)
(15.3244 1.36835 -9.28392e-20)
(10.8964 0.895044 1.03198e-19)
(6.66191 0.580345 0)
(3.19588 0.412721 1.58121e-15)
(0.747902 0.377861 2.24574e-19)
(-0.592131 0.349065 3.32917e-15)
(29.2561 13.2637 0)
(30.4896 11.1056 2.65546e-19)
(30.653 9.75024 3.8919e-15)
(31.088 8.52151 0)
(31.2808 7.46337 3.16369e-19)
(31.0772 6.50968 -2.57592e-15)
(30.5166 5.59301 -2.89919e-19)
(29.5251 4.72006 2.82189e-19)
(27.9671 3.90086 0)
(25.6984 3.13444 0)
(22.5948 2.42133 -2.33289e-18)
(18.6352 1.77273 0)
(14.0381 1.21879 0)
(9.29822 0.80252 0)
(5.09822 0.541282 1.42184e-15)
(1.89862 0.441046 3.07865e-15)
(-0.0242904 0.375307 0)
(29.4981 13.0547 0)
(30.8917 11.0595 0)
(31.2001 9.80796 0)
(31.7368 8.64945 2.83901e-19)
(32.0645 7.62714 2.25274e-20)
(32.0369 6.71347 -2.89637e-19)
(31.7082 5.84436 0)
(31.0217 5.02091 -2.09156e-15)
(29.8474 4.25078 0)
(28.0264 3.52734 0)
(25.3788 2.83976 -1.86742e-16)
(21.7681 2.18386 -4.36262e-20)
(17.2577 1.57897 -1.22068e-15)
(12.2329 1.07412 1.2036e-15)
(7.40478 0.713629 -1.26185e-15)
(3.42489 0.531648 1.78245e-19)
(0.804705 0.415643 0)
(29.6075 12.7816 1.08827e-19)
(31.1019 10.9406 -1.1846e-19)
(31.5127 9.77893 0)
(32.1095 8.6891 0)
(32.5257 7.70278 0)
(32.6208 6.82618 0)
(32.4646 6.00251 -2.60034e-19)
(32.0248 5.22932 2.03932e-15)
(31.191 4.51389 0)
(29.8115 3.84681 0)
(27.6806 3.20837 0)
(24.5721 2.57821 0)
(20.3864 1.95713 1.10066e-15)
(15.3359 1.38755 -1.06739e-15)
(10.0639 0.932284 1.11199e-15)
(5.34754 0.656883 -1.26317e-20)
(1.94693 0.477157 -3.51543e-19)
(29.6132 12.4619 0)
(31.1639 10.7679 2.13861e-19)
(31.6498 9.68608 -2.09117e-19)
(32.2822 8.66458 0)
(32.7576 7.71592 0)
(32.9379 6.87403 2.64823e-19)
(32.904 6.09171 -3.94876e-21)
(32.6482 5.36434 -1.87576e-15)
(32.0873 4.70074 -9.96311e-20)
(31.0948 4.09236 9.55091e-20)
(29.4719 3.51517 1.58919e-16)
(26.9434 2.93564 0)
(23.2688 2.33255 -1.14038e-19)
(18.4539 1.7298 9.50678e-16)
(12.9818 1.19516 -9.79634e-16)
(7.6551 0.82214 -1.40118e-19)
(3.44755 0.56588 1.53871e-19)
(29.5458 12.1135 8.18209e-20)
(31.119 10.5578 3.22009e-15)
(31.6607 9.54797 2.01748e-19)
(32.3126 8.59376 -1.9614e-19)
(32.8276 7.68464 -5.20999e-19)
(33.0681 6.87615 7.49922e-19)
(33.1195 6.13158 -2.40372e-19)
(32.9953 5.44466 1.85446e-15)
(32.6382 4.82631 9.5282e-20)
(31.9555 4.27153 -9.05786e-20)
(30.7807 3.75704 -3.03159e-16)
(28.8349 3.24213 -5.16776e-16)
(25.784 2.68538 -1.20524e-19)
(21.4313 2.08397 -8.60607e-16)
(16.0309 1.49511 2.03354e-19)
(10.296 1.02986 -1.95445e-20)
(5.3315 0.68755 2.25723e-15)
(29.4349 11.7522 0)
(31.0062 10.3249 -3.16063e-15)
(31.5888 9.38092 2.01534e-19)
(32.2487 8.49132 -8.25562e-19)
(32.7886 7.62279 -3.86269e-15)
(33.0712 6.84668 1.9422e-15)
(33.182 6.13696 4.57381e-19)
(33.1496 5.48581 -7.34341e-21)
(32.938 4.90573 -1.95783e-19)
(32.4868 4.3962 0)
(31.6737 3.93831 1.46068e-16)
(30.2541 3.49116 9.84539e-16)
(27.8592 2.99951 -8.52409e-16)
(24.1312 2.43164 7.83476e-16)
(19.0653 1.82029 -1.81989e-19)
(13.1787 1.27854 2.15899e-19)
(7.59116 0.846581 -3.95103e-15)
(29.3057 11.39 -8.68438e-16)
(30.8578 10.081 -2.39534e-15)
(31.4708 9.19844 0)
(32.13 8.3693 -3.07963e-15)
(32.6832 7.54145 7.54633e-15)
(32.9942 6.79657 -3.8027e-15)
(33.1449 6.11907 -2.18692e-19)
(33.175 5.49986 2.05794e-19)
(33.0641 4.95206 -8.81735e-20)
(32.7773 4.47916 8.29199e-20)
(32.2358 4.06809 6.39561e-20)
(31.2506 3.68327 -4.74036e-16)
(29.4738 3.26453 8.12541e-16)
(26.4528 2.75548 -7.29627e-16)
(21.9397 2.15548 7.00865e-16)
(16.1804 1.56219 1.90824e-19)
(10.1795 1.0452 1.72252e-15)
(29.178 11.0346 8.65841e-16)
(30.6986 9.8359 4.38814e-15)
(31.3343 9.01062 -2.1293e-15)
(31.9869 8.23696 2.1166e-16)
(32.5441 7.44918 -2.0781e-16)
(32.8729 6.73426 8.72593e-17)
(33.0492 6.08648 0)
(33.1199 5.49594 0)
(33.0764 4.97562 8.51011e-20)
(32.9016 4.53199 -7.9777e-20)
(32.5523 4.15741 0)
(31.8987 3.82444 4.4938e-16)
(30.6528 3.4765 0)
(28.3411 3.04164 -1.58203e-19)
(24.5293 2.48405 -6.44514e-16)
(19.1617 1.87052 -3.27685e-19)
(13.0106 1.28254 1.91679e-19)
(29.0649 10.6912 6.68796e-17)
(30.5448 9.59699 -1.99993e-15)
(31.1979 8.82427 2.10111e-15)
(31.8401 8.10087 2.0099e-16)
(32.3945 7.35211 -3.49401e-15)
(32.7335 6.66591 8.47706e-17)
(32.9247 6.04556 2.01701e-19)
(33.0204 5.48092 1.51388e-15)
(33.0198 4.98427 -9.09804e-20)
(32.9182 4.5641 -7.69034e-20)
(32.6981 4.21697 -6.01877e-20)
(32.2807 3.92379 -4.42771e-16)
(31.4544 3.63734 -7.39999e-16)
(29.7884 3.28133 0)
(26.7439 2.79019 5.97723e-16)
(21.9848 2.18995 -1.54029e-19)
(15.9682 1.55394 -1.32567e-15)
(28.9729 10.3624 1.72025e-16)
(30.406 9.3675 0)
(31.0721 8.64297 0)
(31.7017 7.96511 1.88931e-16)
(32.2489 7.25415 3.48257e-19)
(32.5926 6.5956 1.69835e-15)
(32.7919 6.00075 -1.93588e-19)
(32.9015 5.45972 -1.5123e-15)
(32.9268 4.98377 -7.94474e-20)
(32.8708 4.58269 7.42079e-20)
(32.7331 4.25596 5.86222e-20)
(32.4735 3.99133 -5.49589e-20)
(31.9539 3.75336 7.2679e-16)
(30.8267 3.47144 0)
(28.5364 3.06106 -5.65407e-16)
(24.531 2.50524 1.30764e-19)
(18.9191 1.85074 1.07905e-18)
(28.9037 10.0491 -2.30488e-16)
(30.2859 9.14809 -2.70902e-20)
(30.9611 8.46816 1.54364e-15)
(31.5772 7.83172 2.44888e-15)
(32.1142 7.1573 0)
(32.4593 6.52562 1.53672e-15)
(32.6627 5.95476 3.6536e-19)
(32.7795 5.43562 0)
(32.8194 4.97817 0)
(32.7903 4.59299 0)
(32.7024 4.28153 0)
(32.5416 4.03641 0)
(32.2296 3.83331 -8.18232e-20)
(31.5163 3.61406 7.80522e-20)
(29.9026 3.28823 -5.37807e-16)
(26.7137 2.80145 1.31316e-19)
(21.7305 2.16092 1.06636e-15)
(28.8554 9.75165 6.84136e-16)
(30.1842 8.93825 0)
(30.8651 8.29998 -1.52244e-15)
(31.4672 7.70141 2.07871e-15)
(31.9924 7.06229 -6.75765e-19)
(32.3371 6.45693 -3.00031e-15)
(32.5426 5.90898 0)
(32.6632 5.41049 1.64795e-19)
(32.7113 4.97005 6.11761e-16)
(32.6972 4.5986 0)
(32.6374 4.29888 0)
(32.5345 4.06669 -9.47569e-20)
(32.3525 3.88651 6.87093e-16)
(31.9314 3.71521 -5.90025e-16)
(30.8754 3.46835 5.21234e-16)
(28.4858 3.0659 -1.23837e-19)
(24.285 2.4704 0)
(28.8245 9.46912 1.77906e-16)
(30.0986 8.73687 0)
(30.7818 8.13782 1.92739e-19)
(31.3701 7.57411 -2.05601e-15)
(31.8826 6.96906 6.35751e-19)
(32.226 6.38964 1.46287e-15)
(32.433 5.86383 -1.60809e-19)
(32.556 5.38517 -1.58584e-19)
(32.6093 4.96084 -6.10636e-16)
(32.6037 4.60175 -6.66723e-20)
(32.559 4.31153 0)
(32.4874 4.08793 -3.94599e-16)
(32.3799 3.92148 -1.35787e-15)
(32.1476 3.78318 5.83581e-16)
(31.5136 3.6029 1.29719e-19)
(29.8411 3.28966 9.35691e-16)
(26.4945 2.76477 -1.11886e-19)
(28.8074 9.20041 1.48362e-16)
(30.0263 8.54271 0)
(30.7085 7.98087 0)
(31.2832 7.44946 2.57916e-19)
(31.7828 6.87726 2.43098e-15)
(32.1242 6.32345 0)
(32.3329 5.81923 0)
(32.4583 5.35984 0)
(32.5158 4.95112 6.89642e-20)
(32.516 4.60367 -6.426e-20)
(32.4794 4.32167 -5.30255e-20)
(32.4234 4.10405 3.93524e-16)
(32.3544 3.94507 6.72e-16)
(32.2321 3.82684 0)
(31.8898 3.69724 -1.17534e-19)
(30.8086 3.46841 -1.81163e-15)
(28.3069 3.03118 0)
(28.8005 8.94434 1.2336e-16)
(29.9644 8.35473 0)
(30.6427 7.82833 0)
(31.2042 7.32708 -2.36254e-19)
(31.6908 6.78647 -2.43866e-15)
(32.0299 6.25796 -3.20747e-19)
(32.2405 5.77488 2.97991e-19)
(32.3687 5.33433 0)
(32.4305 4.94095 6.64361e-20)
(32.4361 4.60485 -6.18838e-20)
(32.4048 4.33048 0)
(32.356 4.1175 0)
(32.3044 3.96224 0)
(32.2384 3.85434 1.32563e-19)
(32.0777 3.75908 -1.25043e-19)
(31.4438 3.60248 8.85109e-16)
(29.709 3.25986 -8.17244e-16)
(28.8012 8.69994 -1.04825e-15)
(29.9109 8.1722 0)
(30.5826 7.67963 1.36339e-19)
(31.1311 7.20668 1.41125e-15)
(31.6048 6.69637 -2.90736e-19)
(31.9412 6.19279 2.71221e-19)
(32.1538 5.73045 -2.96082e-19)
(32.2853 5.30834 2.74969e-19)
(32.3521 4.93013 0)
(32.3634 4.60531 1.18227e-16)
(32.3371 4.33844 1.04975e-16)
(32.2924 4.12957 0)
(32.2473 3.97617 1.51579e-19)
(32.2051 3.87221 -1.4197e-19)
(32.1433 3.79703 4.84734e-16)
(31.8166 3.6961 0)
(30.7227 3.44519 7.90256e-16)
(28.8076 8.46639 -3.35195e-20)
(29.8643 7.99462 3.41985e-20)
(30.5271 7.53438 -6.52751e-16)
(31.0628 7.08815 -1.39481e-15)
(31.5238 6.6068 -1.94031e-15)
(31.857 6.12773 1.09847e-15)
(32.0717 5.68572 2.66545e-19)
(32.2066 5.28164 -1.06617e-15)
(32.2788 4.91842 0)
(32.2966 4.60488 -1.17853e-16)
(32.2761 4.3456 -1.04639e-16)
(32.235 4.14083 0)
(32.1922 3.98864 0)
(32.1568 3.88512 5.49671e-16)
(32.1392 3.81915 -9.63498e-16)
(32 3.75629 -8.62043e-16)
(31.3974 3.58608 -9.62879e-20)
(28.8185 8.24309 -1.25432e-15)
(29.8238 7.82176 0)
(30.4756 7.39236 6.44185e-16)
(30.9986 6.97146 -1.10535e-19)
(31.447 6.51771 1.92081e-15)
(31.7766 6.06266 -1.09934e-15)
(31.9931 5.64053 2.51452e-19)
(32.1317 5.25405 2.07948e-15)
(32.2093 4.9056 0)
(32.2341 4.60334 0)
(32.2202 4.35183 0)
(32.1838 4.15139 0)
(32.1425 4.00044 -6.164e-16)
(32.1071 3.89593 -5.48228e-16)
(32.1024 3.8321 4.79451e-16)
(32.0605 3.79131 8.56706e-16)
(31.7993 3.68553 9.64542e-20)
(28.833 8.0295 1.22929e-15)
(29.7887 7.65346 -4.46082e-20)
(30.4278 7.25345 0)
(30.9381 6.85663 -1.00647e-15)
(31.3742 6.42912 0)
(31.6997 5.99753 -9.66655e-16)
(31.9177 5.59484 0)
(32.0598 5.22548 -1.01326e-15)
(32.1428 4.89155 0)
(32.1748 4.60051 0)
(32.1683 4.3569 -4.61837e-20)
(32.1376 4.16111 4.31331e-20)
(32.099 4.01176 1.03626e-17)
(32.0622 3.9061 -1.27305e-19)
(32.056 3.84067 1.19577e-19)
(32.0519 3.80935 0)
(32.0007 3.74969 7.5613e-16)
(28.8506 7.82514 1.30786e-15)
(29.7586 7.48965 -5.45813e-20)
(30.3835 7.11758 3.26538e-16)
(30.8812 6.74369 9.94365e-16)
(31.3051 6.34113 -1.47802e-15)
(31.6262 5.93235 9.66429e-16)
(31.8453 5.54863 -2.22595e-19)
(31.9906 5.19592 9.19103e-16)
(32.0788 4.87619 4.37708e-16)
(32.1178 4.59627 0)
(32.1189 4.36065 0)
(32.095 4.16981 -7.99044e-20)
(32.0605 4.0225 1.0604e-17)
(32.0236 3.91612 0)
(32.0119 3.8478 -4.685e-16)
(32.0125 3.81745 8.4765e-16)
(32.0695 3.78654 -7.51218e-16)
(28.8707 7.62955 3.74755e-17)
(29.7332 7.33028 3.78611e-16)
(30.3426 6.98468 -3.22122e-16)
(30.8277 6.63269 7.75835e-16)
(31.2397 6.25382 1.46192e-15)
(31.5559 5.86714 2.2661e-19)
(31.7758 5.50191 1.99832e-20)
(31.924 5.16538 -9.16727e-16)
(32.0171 4.85952 -4.36233e-16)
(32.0628 4.59056 0)
(32.0715 4.36295 0)
(32.0548 4.17729 -7.79619e-20)
(32.0257 4.03246 5.89589e-16)
(31.9906 3.92597 1.30671e-19)
(31.9745 3.85492 4.67497e-16)
(31.966 3.82087 -8.46171e-16)
(32.0626 3.80449 -1.88033e-19)
(28.8929 7.44225 -1.2975e-15)
(29.712 7.17528 -3.73041e-16)
(30.305 6.85472 1.47198e-16)
(30.7774 6.52363 -9.48716e-17)
(31.1779 6.16726 -1.24125e-19)
(31.4888 5.80193 0)
(31.709 5.45472 0)
(31.8598 5.13389 0)
(31.9575 4.84156 -4.99582e-20)
(32.0096 4.5834 9.37723e-17)
(32.0256 4.36377 4.21363e-20)
(32.0162 4.18343 -3.93648e-20)
(31.9933 4.04143 0)
(31.9617 3.9354 0)
(31.944 3.86242 -4.58722e-16)
(31.9244 3.82298 0)
(32.0214 3.81114 -7.48859e-16)
(28.9169 7.26277 0)
(29.6947 7.02459 -5.09367e-16)
(30.2704 6.72762 -1.45264e-16)
(30.7303 6.41652 -6.63042e-16)
(31.1193 6.08153 -1.09023e-15)
(31.4249 5.73675 -7.27794e-16)
(31.6449 5.40708 7.80177e-16)
(31.7981 5.10149 0)
(31.9 4.82234 0)
(31.958 4.57477 -9.33606e-17)
(31.9811 4.36308 8.16221e-20)
(31.9788 4.18816 -7.62596e-20)
(31.9624 4.04925 0)
(31.9355 3.94413 5.01393e-16)
(31.9189 3.87014 4.57391e-16)
(31.8914 3.82546 8.32444e-16)
(31.9724 3.81247 7.47396e-16)
(28.9423 7.09068 0)
(29.6809 6.87811 5.02023e-16)
(30.2389 6.60335 0)
(30.686 6.31136 -4.8267e-16)
(31.064 5.99666 1.07755e-15)
(31.3639 5.67165 5.313e-17)
(31.5835 5.359 -4.65504e-17)
(31.7387 5.0682 3.7074e-16)
(31.8444 4.80188 0)
(31.908 4.56472 0)
(31.9377 4.36089 -8.03557e-17)
(31.9424 4.19145 -2.95767e-16)
(31.9325 4.05584 2.7006e-16)
(31.9109 3.95197 -9.92107e-16)
(31.8971 3.8777 1.11908e-19)
(31.8664 3.82882 -4.80663e-18)
(31.9287 3.81247 -9.27976e-20)
(28.9687 6.92553 1.31707e-15)
(29.6701 6.73576 0)
(30.2101 6.48186 -7.07705e-17)
(30.6446 6.20813 4.76729e-16)
(31.0118 5.91271 0)
(31.3058 5.60666 6.71931e-16)
(31.5246 5.31052 -7.29248e-16)
(31.6816 5.03406 -3.69619e-16)
(31.7908 4.78021 -3.44599e-16)
(31.8596 4.55326 0)
(31.8956 4.35722 8.0022e-17)
(31.9069 4.1933 2.94706e-16)
(31.9033 4.06113 -5.7613e-18)
(31.8873 3.95877 4.90691e-16)
(31.8773 3.88477 -2.14379e-19)
(31.8472 3.83287 -8.22935e-16)
(31.8948 3.81325 -7.41449e-16)
(28.9959 6.76692 -1.2964e-15)
(29.6621 6.59746 0)
(30.1839 6.3631 6.98246e-17)
(30.6057 6.10682 2.97336e-20)
(30.9624 5.82971 7.69008e-16)
(31.2506 5.54182 -5.71401e-16)
(31.4681 5.26166 0)
(31.6266 4.99911 0)
(31.739 4.75737 3.43369e-16)
(31.8127 4.54042 0)
(31.8546 4.35209 7.47003e-17)
(31.8722 4.1937 -6.90232e-20)
(31.8748 4.06512 -2.62468e-16)
(31.8644 3.96448 -4.73587e-16)
(31.8585 3.89107 -4.35159e-16)
(31.8314 3.83717 -8.09563e-16)
(31.8696 3.81541 7.39707e-16)
(29.0236 6.61447 1.29364e-15)
(29.6565 6.46312 -1.23335e-19)
(30.1602 6.24703 0)
(30.5695 6.00741 -1.15082e-19)
(30.9158 5.7477 -1.43484e-15)
(31.198 5.47716 5.69887e-16)
(31.4141 5.21245 5.95653e-16)
(31.5737 4.96337 -1.62214e-19)
(31.689 4.7334 1.50012e-19)
(31.7672 4.52624 7.55657e-17)
(31.8147 4.34552 -7.43022e-17)
(31.8383 4.19268 0)
(31.8468 4.0678 -2.50395e-16)
(31.8419 3.96907 7.73726e-18)
(31.8401 3.89648 4.33733e-16)
(31.8173 3.84129 8.06827e-16)
(31.8505 3.81863 0)
(29.0517 6.46782 4.17848e-18)
(29.6532 6.33263 0)
(30.1388 6.13362 0)
(30.5356 5.90988 -1.7744e-16)
(30.8719 5.66669 6.67006e-16)
(31.1481 5.41272 0)
(31.3623 5.16292 -5.93485e-16)
(31.5228 4.92688 1.53354e-19)
(31.6407 4.70833 -1.41781e-19)
(31.7231 4.51073 -1.47433e-16)
(31.7758 4.33753 0)
(31.8052 4.19025 2.60809e-16)
(31.8192 4.06915 2.49359e-16)
(31.8198 3.97251 4.62361e-16)
(31.8221 3.90093 4.21786e-16)
(31.804 3.84494 -1.9105e-19)
(31.8344 3.82221 -7.2808e-16)
(29.0801 6.32666 -1.25997e-15)
(29.6519 6.2059 -7.25636e-16)
(30.1197 6.02283 -2.8042e-16)
(30.5041 5.81421 1.7524e-16)
(30.8306 5.58672 1.70876e-19)
(31.1007 5.34856 -1.80864e-19)
(31.3129 5.11311 0)
(31.474 4.88968 1.44793e-19)
(31.5942 4.6822 -1.33836e-19)
(31.6803 4.49393 7.1874e-17)
(31.7379 4.32815 6.64397e-17)
(31.7727 4.18642 -5.11988e-16)
(31.7922 4.06918 1.1684e-19)
(31.7981 3.9748 4.4468e-16)
(31.8043 3.90439 -4.20428e-16)
(31.7912 3.848 1.92256e-19)
(31.8194 3.82543 7.26043e-16)
(29.1086 6.19066 1.24382e-15)
(29.6524 6.08284 7.15914e-16)
(30.1026 5.91462 2.76915e-16)
(30.4748 5.72037 5.69431e-17)
(30.7918 5.5078 4.30217e-16)
(31.0558 5.28469 3.92892e-16)
(31.2657 5.06305 0)
(31.4271 4.85181 -2.57818e-16)
(31.5493 4.65506 0)
(31.6389 4.47588 0)
(31.701 4.3174 -6.6195e-17)
(31.741 4.18121 2.51253e-16)
(31.7656 4.0679 0)
(31.7766 3.97593 -8.77979e-16)
(31.7867 3.90683 -2.00171e-19)
(31.7786 3.85043 1.89433e-19)
(31.8048 3.82779 0)
(29.1371 6.05956 -1.22661e-15)
(29.6544 5.96334 0)
(30.0875 5.80894 0)
(30.4477 5.62836 -5.61254e-17)
(30.7553 5.42993 -4.25042e-16)
(31.0133 5.22117 -3.77336e-17)
(31.2207 5.01277 0)
(31.3821 4.81331 4.98092e-16)
(31.5061 4.62693 -1.188e-19)
(31.5988 4.45662 6.26837e-17)
(31.6652 4.30532 -6.13389e-17)
(31.7099 4.17463 -2.3582e-16)
(31.7395 4.0653 1.10244e-19)
(31.7554 3.97589 8.01952e-18)
(31.7693 3.90824 0)
(31.7662 3.8522 -7.59987e-16)
(31.7904 3.82909 -1.75454e-19)
(29.1656 5.93308 -1.2047e-15)
(29.6579 5.8473 -1.24417e-19)
(30.0743 5.70576 -4.7959e-20)
(30.4227 5.53813 5.12802e-20)