/*--------------------------------*- C++ -*----------------------------------*\
| =========                 |                                                 |
| \\      /  F ield         | OpenFOAM: The Open Source CFD Toolbox           |
|  \\    /   O peration     | Version:  v1912                                 |
|   \\  /    A nd           | Website:  www.openfoam.com                      |
|    \\/     M anipulation  |                                                 |
\*---------------------------------------------------------------------------*/
FoamFile
{
    version     2.0;
    format      ascii;
    class       volScalarField;
    location    "400";
    object      nut;
}
// * * * * * * * * * * * * * * * * * * * * * * * * * * * * * * * * * * * * * //

dimensions      [0 2 -1 0 0 0 0];


internalField   nonuniform List<scalar> 
12441
(
5.82192e-24
1.7905e-20
8.10485e-20
3.32539e-19
1.0683e-18
3.88833e-18
1.01057e-17
2.50057e-17
6.13854e-17
1.27538e-16
3.05673e-16
7.71894e-16
2.17526e-15
7.40066e-15
1.03633e-13
1.89242e-11
0.000194293
0.000944936
0.00303866
0.00262657
0.00364661
0.00775321
6.34192e-24
3.03345e-20
1.1173e-19
4.23942e-19
1.30208e-18
4.8073e-18
1.21986e-17
3.00109e-17
7.36114e-17
1.54463e-16
3.79823e-16
1.02984e-15
2.82003e-15
9.37054e-15
1.13033e-13
3.89457e-11
5.77783e-05
0.00114549
0.00347978
0.00285978
0.0040091
0.00781733
6.36468e-24
3.58949e-20
1.20776e-19
4.48124e-19
1.37772e-18
4.90671e-18
1.2929e-17
3.20417e-17
8.05156e-17
1.71782e-16
4.17909e-16
1.11818e-15
2.77629e-15
7.66261e-15
5.35129e-14
6.5639e-12
1.10985e-05
0.000840808
0.00138826
0.00269828
0.0041622
0.0078909
6.31914e-24
3.7691e-20
1.18532e-19
4.29302e-19
1.32533e-18
4.71352e-18
1.25134e-17
3.13273e-17
7.8495e-17
1.73683e-16
4.23776e-16
1.1547e-15
2.60287e-15
8.46983e-15
3.84902e-14
1.54079e-12
1.62408e-06
0.000586845
0.00103576
0.00262184
0.00432487
0.0079647
6.28511e-24
4.38823e-20
1.29776e-19
4.58306e-19
1.40266e-18
4.77927e-18
1.30908e-17
3.2795e-17
8.42981e-17
1.87534e-16
4.54183e-16
1.28547e-15
3.00959e-15
4.07066e-14
2.47166e-13
2.29422e-12
1.39511e-07
0.000414799
0.0010173
0.00260939
0.00446518
0.00803394
6.23493e-24
4.12872e-20
1.20537e-19
4.2918e-19
1.34269e-18
4.622e-18
1.27502e-17
3.23932e-17
8.2894e-17
1.92696e-16
4.76963e-16
1.44642e-15
4.5198e-15
1.32823e-12
1.18926e-11
5.09575e-11
4.5813e-07
0.000382297
0.00108522
0.00266626
0.00459143
0.00809948
6.20004e-24
5.0263e-20
1.37793e-19
4.75758e-19
1.46011e-18
4.79237e-18
1.35929e-17
3.44536e-17
9.07021e-17
2.11134e-16
5.20861e-16
2.00129e-15
2.49454e-14
4.14434e-11
6.57763e-10
9.36204e-09
1.87399e-05
0.000403047
0.00127341
0.00284985
0.0047362
0.00816218
6.15025e-24
4.34514e-20
1.23169e-19
4.40148e-19
1.40813e-18
4.72269e-18
1.3512e-17
3.48448e-17
9.13188e-17
2.23857e-16
5.72528e-16
5.43922e-15
6.08099e-13
2.25177e-09
8.41172e-08
4.97494e-06
0.00019608
0.000466128
0.00172644
0.00322356
0.00492514
0.00822577
6.11747e-24
5.57032e-20
1.46128e-19
4.99666e-19
1.55408e-18
4.95854e-18
1.46115e-17
3.75703e-17
1.02073e-16
2.50956e-16
6.45367e-16
6.1386e-14
2.58241e-11
7.42013e-08
1.0442e-05
0.000155198
0.000812004
0.000838076
0.00266425
0.00385989
0.00519022
0.00829204
6.07061e-24
4.43488e-20
1.25433e-19
4.5662e-19
1.5075e-18
4.95351e-18
1.47471e-17
3.8725e-17
1.04877e-16
2.75132e-16
7.48641e-16
1.68296e-12
1.08064e-09
4.43531e-06
0.000193085
0.000629615
0.00175623
0.00160659
0.00439859
0.00483664
0.00554457
0.00836448
6.04146e-24
6.02591e-20
1.53431e-19
5.25895e-19
1.67267e-18
5.20582e-18
1.60247e-17
4.20342e-17
1.19293e-16
3.17381e-16
8.92099e-16
5.23376e-11
5.49191e-08
8.25783e-05
0.000741203
0.00179595
0.00395075
0.00325866
0.00739685
0.00625532
0.00600138
0.00844366
5.99603e-24
4.46281e-20
1.27733e-19
4.76931e-19
1.63365e-18
5.28082e-18
1.64018e-17
4.40645e-17
1.25498e-16
3.64643e-16
1.15863e-15
1.45748e-09
3.24268e-06
0.000353864
0.00167453
0.00416481
0.00847595
0.00664164
0.0121417
0.00816251
0.00654985
0.00853143
5.97044e-24
6.41484e-20
1.60447e-19
5.53797e-19
1.81491e-18
5.54177e-18
1.7908e-17
4.82213e-17
1.46701e-16
4.44742e-16
1.69459e-15
3.52339e-08
7.27995e-05
0.00113557
0.00427241
0.00949677
0.0172468
0.0129258
0.01881
0.0105418
0.00718115
0.00862633
5.92645e-24
4.43246e-20
1.29667e-19
4.99302e-19
1.78315e-18
5.69176e-18
1.8532e-17
5.13831e-17
1.59849e-16
5.59172e-16
3.60143e-15
7.96837e-07
0.000353178
0.00303285
0.00976517
0.0194191
0.0319773
0.0231109
0.02709
0.0132692
0.00786357
0.00872852
5.90409e-24
6.75147e-20
1.66651e-19
5.82608e-19
1.97794e-18
5.93997e-18
2.02685e-17
5.67817e-17
1.96052e-16
7.78732e-16
1.65174e-14
1.52067e-05
0.00118305
0.00736837
0.0198613
0.0353318
0.0534367
0.0373246
0.0361743
0.016188
0.00857743
0.00883515
5.86039e-24
4.39582e-20
1.31995e-19
5.24794e-19
1.95775e-18
6.18539e-18
2.12016e-17
6.16781e-17
2.28164e-16
1.21631e-15
3.02165e-13
0.000138581
0.00303781
0.0155181
0.0358824
0.0576968
0.0808177
0.0543341
0.0450687
0.0190997
0.00928655
0.00894576
5.84132e-24
7.05395e-20
1.73502e-19
6.1511e-19
2.17055e-18
6.43938e-18
2.33101e-17
6.93772e-17
3.08228e-16
2.30501e-15
1.26026e-11
0.000537511
0.00712815
0.0286921
0.0578986
0.0857742
0.111442
0.0717705
0.0528949
0.0218658
0.0099765
0.00905718
5.79735e-24
4.35016e-20
1.34491e-19
5.53128e-19
2.16062e-18
6.77144e-18
2.46178e-17
7.72289e-17
4.08461e-16
5.44577e-15
5.47996e-10
0.00141591
0.0146063
0.0474676
0.0853317
0.117373
0.141191
0.0869723
0.0592024
0.0243638
0.0106202
0.00916919
5.78101e-24
7.32633e-20
1.80286e-19
6.49125e-19
2.38797e-18
7.01153e-18
2.71821e-17
8.90702e-17
6.6172e-16
1.69235e-14
4.4087e-08
0.00354456
0.0266081
0.0710607
0.115983
0.149254
0.165651
0.0981157
0.06394
0.0265607
0.0112175
0.00927899
5.73646e-24
4.30528e-20
1.3687e-19
5.82398e-19
2.38684e-18
7.43805e-18
2.90069e-17
1.02315e-16
1.08041e-15
7.52734e-14
8.56127e-06
0.00771185
0.0433917
0.0982849
0.147473
0.177655
0.181497
0.104788
0.0674011
0.0284265
0.0117544
0.00938714
5.72342e-24
7.57293e-20
1.86801e-19
6.83176e-19
2.62924e-18
7.67298e-18
3.23039e-17
1.22245e-16
2.19375e-15
7.80213e-13
0.000169222
0.0150588
0.064311
0.126957
0.176449
0.199435
0.187598
0.107907
0.0699587
0.0299975
0.0122442
0.00949146
5.67804e-24
4.2434e-20
1.38571e-19
6.10923e-19
2.6351e-18
8.19322e-18
3.49395e-17
1.46463e-16
4.34012e-15
1.34062e-11
0.000676606
0.0262981
0.0880249
0.155265
0.200533
0.212722
0.185221
0.108959
0.0719843
0.0312861
0.0126842
0.00959327
5.66769e-24
7.80228e-20
1.9247e-19
7.15483e-19
2.88987e-18
8.41828e-18
3.9433e-17
1.83583e-16
1.02757e-14
1.66105e-10
0.00183374
0.0414426
0.112903
0.180961
0.217585
0.217503
0.177311
0.109278
0.0737127
0.0323535
0.0130988
0.00969106
5.62177e-24
4.19643e-20
1.39792e-19
6.38002e-19
2.9026e-18
9.03756e-18
4.35008e-17
2.31491e-16
2.24201e-14
1.55806e-09
0.00432739
0.0598979
0.137387
0.202691
0.227343
0.215254
0.167176
0.109618
0.0752988
0.0332301
0.0134953
0.00978684
5.61495e-24
8.02758e-20
1.97579e-19
7.4582e-19
3.17121e-18
9.26739e-18
5.02645e-17
3.06429e-16
5.64403e-14
1.37804e-08
0.0088871
0.0804315
0.160184
0.219235
0.230264
0.208417
0.157375
0.110216
0.0767931
0.0339918
0.0139066
0.00987966
5.56724e-24
4.17922e-20
1.40764e-19
6.63871e-19
3.19203e-18
9.99246e-18
5.7152e-17
4.08459e-16
1.3048e-13
3.18959e-07
0.0161447
0.101845
0.180335
0.230545
0.228135
0.199439
0.149243
0.110996
0.0782209
0.0346839
0.0143463
0.00997203
5.56293e-24
8.24847e-20
2.02099e-19
7.74024e-19
3.47292e-18
1.02324e-17
6.84608e-17
5.73363e-16
3.9254e-13
1.87396e-05
0.0261712
0.122895
0.197233
0.236836
0.222623
0.190264
0.143088
0.111802
0.0795628
0.035389
0.014851
0.0100634
5.51407e-24
4.18599e-20
1.41223e-19
6.87527e-19
3.50154e-18
1.10689e-17
8.13286e-17
8.10391e-16
1.82993e-12
0.000213284
0.0386998
0.14275
0.210614
0.239138
0.215584
0.182017
0.138648
0.112488
0.0808061
0.0361494
0.0154332
0.0101564
5.51313e-24
8.46766e-20
2.058e-19
7.99228e-19
3.7963e-18
1.13444e-17
1.02514e-16
1.20441e-15
1.28015e-11
0.000724231
0.0530181
0.160726
0.220524
0.238354
0.208142
0.175167
0.135483
0.112974
0.081918
0.0370289
0.0161231
0.0102507
5.46202e-24
4.2035e-20
1.40968e-19
7.08422e-19
3.83364e-18
1.23048e-17
1.28828e-16
1.79575e-15
7.40911e-11
0.00149492
0.0684945
0.176476
0.227258
0.235638
0.201184
0.169723
0.133188
0.113224
0.0828799
0.0380394
0.0169207
0.0103488
5.46311e-24
8.68079e-20
2.08981e-19
8.21816e-19
4.14327e-18
1.26534e-17
1.7248e-16
2.80963e-15
3.56403e-10
0.00268177
0.0844025
0.18976
0.231268
0.231732
0.194987
0.165497
0.131458
0.113243
0.0836605
0.0392034
0.017839
0.01045
5.41093e-24
4.22471e-20
1.39901e-19
7.26617e-19
4.19089e-18
1.37417e-17
2.30134e-16
4.38964e-15
1.38686e-09
0.004466
0.100242
0.200587
0.233079
0.227367
0.189732
0.162229
0.130093
0.113052
0.0842436
0.0404916
0.0188574
0.0105565
5.41513e-24
8.89198e-20
2.11418e-19
8.424e-19
4.52274e-18
1.41936e-17
3.26406e-16
7.08373e-15
4.74641e-09
0.00709702
0.115498
0.20903
0.233214
0.222881
0.185306
0.15969
0.128969
0.112685
0.084603
0.0418906
0.019968
0.010667
5.35948e-24
4.22797e-20
1.37811e-19
7.42888e-19
4.585e-18
1.54539e-17
4.5826e-16
1.12958e-14
1.44518e-08
0.0108215
0.129899
0.215328
0.232144
0.218606
0.181655
0.157684
0.128018
0.112175
0.0847267
0.0433482
0.02113
0.0107831
5.36562e-24
8.84593e-20
2.10343e-19
8.57255e-19
4.93671e-18
1.60484e-17
6.77998e-16
1.85077e-14
4.28045e-08
0.0158935
0.143213
0.219727
0.230271
0.214609
0.178601
0.156072
0.127205
0.111558
0.0845944
0.0448441
0.0223227
0.0109032
5.30593e-24
4.14869e-20
1.32578e-19
7.51634e-19
5.01021e-18
1.7463e-17
9.80489e-16
2.9919e-14
2.1975e-07
0.0226486
0.155449
0.222565
0.227907
0.211017
0.176073
0.15475
0.12652
0.110867
0.0842003
0.0463373
0.0234982
0.0110282
5.31245e-24
8.52653e-20
2.0383e-19
8.62089e-19
5.38123e-18
1.81872e-17
1.47475e-15
5.74606e-14
1.15423e-05
0.0315312
0.166647
0.224131
0.225298
0.207788
0.173932
0.153654
0.125963
0.110136
0.0835325
0.0478348
0.0246375
0.0111563
5.24599e-24
4.1616e-20
1.27328e-19
7.57711e-19
5.48276e-18
1.98575e-17
2.1424e-15
4.6504e-13
0.000228134
0.0432404
0.177006
0.224752
0.222617
0.204983
0.172146
0.152741
0.125546
0.109397
0.0825959
0.0493333
0.0257032
0.0112883
5.24941e-24
5.37913e-20
1.54726e-19
7.99508e-19
5.76902e-18
2.06397e-17
3.20163e-15
2.31297e-11
0.0018406
0.058636
0.186668
0.224681
0.219989
0.202544
0.170624
0.151993
0.125284
0.108682
0.0813933
0.0508791
0.0266984
0.011422
5.17259e-24
4.32817e-20
1.14475e-19
7.24288e-19
5.94046e-18
2.35452e-17
4.66273e-15
1.03289e-09
0.00782961
0.0782895
0.195804
0.224182
0.217489
0.200532
0.169375
0.151404
0.125198
0.108018
0.0799484
0.0524967
0.0276149
0.0115584
5.16599e-24
1.93957e-21
1.12095e-20
4.00662e-19
5.44926e-18
2.44387e-17
7.20736e-15
1.84345e-07
0.0221039
0.102181
0.204423
0.223441
0.215159
0.198902
0.168347
0.150986
0.125311
0.107432
0.0782882
0.0542247
0.0284906
0.0116955
5.07782e-24
1.7117e-20
4.47743e-20
4.1739e-19
5.46236e-18
3.6208e-17
1.80061e-14
5.35486e-05
0.0480716
0.129871
0.212503
0.222658
0.213001
0.197741
0.167587
0.150753
0.125641
0.10694
0.0764661
0.0560066
0.0293395
0.0118345
5.03905e-24
6.72039e-22
8.45947e-23
2.35251e-19
5.06646e-18
8.28198e-17
3.70793e-13
0.00133423
0.088082
0.160588
0.219851
0.221963
0.210991
0.197008
0.167059
0.150742
0.126208
0.106551
0.0745418
0.0576711
0.0301619
0.011976
4.83829e-24
2.10331e-19
4.58154e-19
1.02957e-18
7.26078e-18
9.13586e-16
7.18226e-12
0.00871152
0.143121
0.193869
0.226616
0.221606
0.209103
0.196787
0.166812
0.150969
0.12701
0.106202
0.0725893
0.0587823
0.0306527
0.0121338
0.00987657
0.0303136
0.0317671
0.0120486
0.00925758
0.00922593
0.00938485
0.00977243
0.00976359
0.0103976
0.0152149
0.0147583
0.0137151
0.0134226
0.0138197
0.0151599
0.0170568
0.0185022
0.0179506
0.0149787
0.0128334
0.0122972
0.0122554
0.0124052
0.0127721
0.0132924
0.0139698
0.0148513
0.0154149
0.0148588
0.0116365
0.0720568
0.133257
0.148574
0.167114
0.00986353
0.0308565
0.0308778
0.0117117
0.00915061
0.00911064
0.00946335
0.00987901
0.00978769
0.0104104
0.0148837
0.0143687
0.0133707
0.0130656
0.0134636
0.014831
0.0168772
0.018568
0.0181521
0.0150142
0.0126885
0.012107
0.0120577
0.0121968
0.0125506
0.0130572
0.0137296
0.0146239
0.0152208
0.0146667
0.011436
0.0715331
0.133139
0.148492
0.167051
0.00983842
0.0313551
0.0293291
0.0111306
0.00907763
0.00898691
0.00967225
0.0101095
0.00987708
0.010467
0.0137592
0.0131104
0.0123637
0.012019
0.0120619
0.0129299
0.014614
0.0163308
0.0165047
0.0140742
0.0121195
0.011642
0.0116283
0.0117692
0.0121057
0.0125872
0.013248
0.0141642
0.0148258
0.014275
0.0115942
0.0708222
0.132846
0.14827
0.166869
0.00979929
0.0317996
0.0273527
0.0105738
0.00909176
0.00894434
0.00998029
0.0103483
0.0100141
0.0105856
0.012538
0.0117212
0.0112037
0.0109363
0.0106892
0.0109266
0.0119218
0.0133105
0.0139498
0.0125237
0.0112033
0.0109172
0.0109733
0.011131
0.0114521
0.0119014
0.012541
0.0134788
0.0142342
0.0136904
0.0118895
0.069837
0.132374
0.147908
0.166567
0.00974597
0.032065
0.0250861
0.0100273
0.00909599
0.00890715
0.0102609
0.0104927
0.0101039
0.0106624
0.0114872
0.0105307
0.0102369
0.0101444
0.00971668
0.00938299
0.00962231
0.0104491
0.0112212
0.0106786
0.0100205
0.0099587
0.0101092
0.0103014
0.0106156
0.0110312
0.0116384
0.0125873
0.0134577
0.0129285
0.0121537
0.0684855
0.131731
0.14742
0.166161
0.00967615
0.0320418
0.0226401
0.00943027
0.00901717
0.00880338
0.0104126
0.0104832
0.0100683
0.0105877
0.0105822
0.00955174
0.00946313
0.00955376
0.00904859
0.00830205
0.00790415
0.0081317
0.00875148
0.00877987
0.00865785
0.00880632
0.00906363
0.00930852
0.00962991
0.0100165
0.0105817
0.0115217
0.0125159
0.0120138
0.0122636
0.0666869
0.130933
0.14683
0.165672
0.00959042
0.0316566
0.0201307
0.00877115
0.00884553
0.00861587
0.0103966
0.0103089
0.00987834
0.0103104
0.00972778
0.0086801
0.00874127
0.00895071
0.0084481
0.00747784
0.00664547
0.00637841
0.00670778
0.00698707
0.00720643
0.00751631
0.00787718
0.00818863
0.00853389
0.00890215
0.00941976
0.0103252
0.0114359
0.0109788
0.0121351
0.0643816
0.129998
0.146167
0.165129
0.00948687
0.0308532
0.0176744
0.00808653
0.00861551
0.00836824
0.0102281
0.00999487
0.00954765
0.00984047
0.00886234
0.00783481
0.00796753
0.0082072
0.00775438
0.00672328
0.00565984
0.00505868
0.00509163
0.00539418
0.00576389
0.00616452
0.00660637
0.00698784
0.0073712
0.00773497
0.00820511
0.00904984
0.0102529
0.00986251
0.0117211
0.0615359
0.12895
0.145464
0.164566
0.00936733
0.0296203
0.0153702
0.00743274
0.0083764
0.00810119
0.00995091
0.00958334
0.00911266
0.00922555
0.00797985
0.00699027
0.00712177
0.00732026
0.00693466
0.00595326
0.00481889
0.00403988
0.0038466
0.00405864
0.00443348
0.00484715
0.00532695
0.00576463
0.00619101
0.00656274
0.00699086
0.00775332
0.00900968
0.00870901
0.0110095
0.0581463
0.127811
0.144757
0.164016
0.0092307
0.0279642
0.0132916
0.00686302
0.00817498
0.00785687
0.00961889
0.00912273
0.0086196
0.00852813
0.0071068
0.00615796
0.00623572
0.00635387
0.00603379
0.00516229
0.00406771
0.0032401
0.00291943
0.00301758
0.00331412
0.00367232
0.00413239
0.0045916
0.00504986
0.00543439
0.00582818
0.00649512
0.00775578
0.00756493
0.0100239
0.0542446
0.126606
0.144082
0.163514
0.00908003
0.0259349
0.0114832
0.00641811
0.00804889
0.00767198
0.00928456
0.00865952
0.00811387
0.00781046
0.0062811
0.00536487
0.00535696
0.0053859
0.0051235
0.00438595
0.00340138
0.00262226
0.00226959
0.0022838
0.0024772
0.00273769
0.00312157
0.00355183
0.00401173
0.00440072
0.00476527
0.00533258
0.00654519
0.00647679
0.0088237
0.0499055
0.125359
0.143474
0.163095
0.00891508
0.0235959
0.00996898
0.0061251
0.00802719
0.00757607
0.00899503
0.00823604
0.00763724
0.00712699
0.00553895
0.00464014
0.00452946
0.00448003
0.00426815
0.00366908
0.00283498
0.00216715
0.00185201
0.00182946
0.00193831
0.00209597
0.00237101
0.0027235
0.00314213
0.00351265
0.00384611
0.0043172
0.00543315
0.00548808
0.00750219
0.0452553
0.124098
0.142966
0.16279
0.00874002
0.0210485
0.0087564
0.00599999
0.00813312
0.00759218
0.00879002
0.00788798
0.00722486
0.00652115
0.00490854
0.00401039
0.00379012
0.00368026
0.00351646
0.00305159
0.00238411
0.00185348
0.00160814
0.00158704
0.00164896
0.00173056
0.00190171
0.00215264
0.00249227
0.00281397
0.0031071
0.0034903
0.00447149
0.00463607
0.00617838
0.0404783
0.122855
0.142591
0.16263
0.00855535
0.0184008
0.00784446
0.00605121
0.00838767
0.0077391
0.00870218
0.00764435
0.00690565
0.00602458
0.00440842
0.00349602
0.00316772
0.00301431
0.00289945
0.00255914
0.00205184
0.00165088
0.00147576
0.00147572
0.00152583
0.00157028
0.00167088
0.00183076
0.00207802
0.00232789
0.00256977
0.00287727
0.00370222
0.00394851
0.0049799
0.0358151
0.121671
0.142376
0.162643
0.00836592
0.0157825
0.00722553
0.00628343
0.00881292
0.00803493
0.00875802
0.00752733
0.00670123
0.00565866
0.00404822
0.00311029
0.00268169
0.00249771
0.00243102
0.00219874
0.0018253
0.00152515
0.00140401
0.00142933
0.00149034
0.00153203
0.00160299
0.00170363
0.001872
0.00204582
0.00223275
0.00248144
0.00314995
0.0034402
0.00401613
0.0315436
0.1206
0.142349
0.162852
0.00817267
0.0133168
0.00689013
0.00670192
0.00943577
0.00850134
0.0089816
0.0075562
0.00662829
0.00543608
0.0038317
0.00285777
0.00233946
0.00213229
0.00210688
0.00195766
0.00167963
0.00144553
0.00135977
0.00140748
0.00148958
0.0015507
0.001626
0.00170308
0.0018203
0.00193123
0.00207123
0.00228307
0.00281596
0.00311056
0.00334972
0.0279372
0.119718
0.142531
0.163279
0.00798033
0.0111215
0.00683321
0.00731712
0.0102898
0.00917266
0.00939974
0.0077498
0.00670025
0.00536374
0.00375775
0.00273675
0.00213664
0.00190558
0.00190641
0.0018092
0.0015867
0.00138961
0.00132624
0.0013931
0.00149884
0.0015891
0.0016892
0.00177085
0.00186624
0.00193659
0.00204752
0.0022476
0.00267921
0.00294398
0.0029838
0.0252034
0.119113
0.142942
0.16394
0.00778933
0.00929053
0.007066
0.00815231
0.0114193
0.0100985
0.0100474
0.00813232
0.00693161
0.00544678
0.0038246
0.00274045
0.00205923
0.00179381
0.00179925
0.00172205
0.00152234
0.00134401
0.00129744
0.0013832
0.00151298
0.00163403
0.00176626
0.00186814
0.00196469
0.00201864
0.00212395
0.00233754
0.00270497
0.00291418
0.00287699
0.0234382
0.118879
0.143601
0.164851
0.00760307
0.00787846
0.00762563
0.00924558
0.0128819
0.0113469
0.0109714
0.00873767
0.00734133
0.00569283
0.00403334
0.00286219
0.00208969
0.001769
0.00175341
0.00166834
0.00147038
0.00130307
0.00127306
0.00138033
0.00153544
0.00168598
0.00184919
0.0019755
0.00208715
0.00214625
0.00227084
0.00252042
0.00285504
0.00299104
0.0029742
0.0226354
0.119098
0.14452
0.166023
0.00742066
0.0068869
0.00859059
0.0106468
0.0147497
0.0130037
0.0122313
0.00961211
0.00795631
0.00611577
0.00439218
0.00309783
0.0022118
0.00180538
0.00174184
0.00162855
0.00142289
0.00126609
0.00125478
0.00138753
0.00157077
0.00174956
0.00193918
0.00208713
0.00222041
0.00230199
0.00246887
0.00277151
0.00309444
0.0031471
0.00323103
0.0227422
0.119827
0.145712
0.167467
0.00724378
0.00627167
0.0100806
0.0124229
0.0171074
0.0151673
0.0138961
0.0108125
0.00881143
0.00673741
0.0049192
0.00345201
0.00241682
0.00188455
0.00174575
0.00159226
0.00137844
0.00123504
0.00124463
0.00140686
0.0016219
0.00182849
0.0020396
0.00220408
0.00236188
0.00247973
0.00270796
0.00307343
0.0033948
0.00336216
0.00362448
0.0237101
0.121089
0.147185
0.169188
0.00707145
0.00598221
0.0122476
0.0146642
0.0200534
0.0179441
0.016041
0.0124019
0.00994801
0.00758631
0.00564197
0.00393961
0.00270706
0.00199874
0.00175622
0.00155714
0.00133945
0.00121283
0.00124442
0.00143922
0.00168982
0.00192409
0.00215266
0.00232951
0.00251474
0.00268064
0.00298432
0.00341456
0.00373574
0.0036255
0.00415407
0.0255162
0.122872
0.148947
0.171192
0.00690537
0.00597559
0.0152671
0.0174985
0.0237084
0.0214507
0.0187466
0.014444
0.011409
0.0086926
0.00659083
0.00458659
0.00309935
0.00215373
0.00177361
0.00152623
0.00131009
0.00120272
0.00125599
0.00148486
0.00177424
0.00203582
0.00227887
0.00246658
0.00268454
0.00290952
0.00329755
0.00378732
0.00410506
0.00393649
0.0048386
0.0281603
0.125142
0.151003
0.173482
0.00674534
0.00622704
0.0193166
0.0211127
0.0282301
0.0258243
0.0221029
0.0169999
0.0132337
0.0100796
0.00778579
0.0054184
0.00361921
0.00236938
0.00180677
0.00150594
0.00129507
0.00120814
0.00128141
0.00154342
0.00187386
0.00216193
0.00241774
0.00261814
0.00287743
0.00317213
0.00364825
0.00418697
0.00449843
0.00430399
0.00571219
0.0316532
0.127851
0.153355
0.17606
0.00659312
0.0067244
0.0245432
0.0257708
0.0338215
0.0312248
0.0262076
0.0201215
0.0154489
0.0117529
0.00922057
0.00644483
0.00428698
0.0026756
0.00187153
0.00150417
0.0012992
0.00123297
0.00132357
0.00161448
0.0019867
0.00230022
0.00256866
0.00278711
0.0030994
0.00347373
0.00403674
0.00461109
0.00491875
0.00474531
0.00682131
0.0360029
0.130945
0.156004
0.178925
0.00644962
0.00746364
0.0310348
0.0318119
0.0407152
0.0378077
0.0311437
0.0238341
0.0180544
0.0136879
0.0108496
0.00763907
0.00509382
0.00309601
0.00198871
0.00153018
0.00132757
0.00128153
0.00138622
0.00169768
0.00211018
0.00244855
0.00273169
0.00297686
0.00335603
0.0038182
0.00446257
0.00505955
0.00537558
0.00528521
0.00822259
0.041202
0.134371
0.158951
0.182074
0.00631698
0.00843698
0.0388004
0.0396148
0.0491237
0.0456573
0.0369286
0.0281023
0.0209996
0.0158165
0.0125827
0.00893086
0.00598853
0.00362294
0.00217627
0.00159382
0.00138582
0.00135883
0.00147428
0.00179368
0.00224175
0.00260532
0.00290796
0.00319149
0.0036523
0.00420782
0.00492456
0.00553464
0.00588442
0.00595496
0.009981
0.0472193
0.138082
0.162192
0.185503
0.00619775
0.00963576
0.0478046
0.0495403
0.0591659
0.054696
0.0434471
0.0327892
0.0241608
0.0180175
0.0142881
0.0102082
0.0068797
0.00420142
0.00243516
0.00170405
0.00148033
0.00147046
0.00159353
0.00190463
0.00237948
0.00276998
0.00309992
0.00343573
0.00399244
0.00464319
0.00542128
0.00604146
0.00646639
0.00679184
0.0121677
0.0539958
0.142039
0.165724
0.189207
0.00609509
0.0110513
0.0580428
0.0618694
0.0707879
0.0646078
0.0503972
0.0376278
0.0273273
0.0201169
0.0158053
0.0113358
0.00765657
0.00474267
0.00273601
0.00186373
0.00161734
0.00162245
0.00175044
0.00203533
0.00252311
0.00294345
0.00331133
0.0037147
0.00437962
0.00512349
0.00595163
0.00658806
0.00714776
0.00783878
0.0148571
0.0614449
0.146208
0.169543
0.193178
0.00601408
0.0126942
0.0696192
0.0767307
0.0836893
0.0748068
0.0572774
0.0422246
0.030212
0.021902
0.0169634
0.0121733
0.00821007
0.00515322
0.00302565
0.00206464
0.00180062
0.0018199
0.00195104
0.002193
0.00267486
0.00312845
0.00354707
0.00403354
0.00481581
0.00564676
0.0065154
0.00718568
0.00795998
0.00914417
0.018123
0.0694583
0.150566
0.173641
0.197406
0.00596079
0.0146011
0.0827289
0.0939584
0.097241
0.084452
0.0634231
0.0460954
0.0324811
0.0231468
0.0176036
0.012599
0.0084542
0.00536209
0.0032496
0.00228701
0.00202839
0.00206505
0.00219959
0.0023873
0.00284033
0.00332974
0.00381293
0.00439692
0.00530159
0.0062104
0.00711367
0.00784879
0.00893962
0.0107616
0.0220337
0.0779139
0.155093
0.178014
0.201883
0.00594609
0.016851
0.0975509
0.112863
0.11042
0.0925186
0.068092
0.0487348
0.0338056
0.0236463
0.0176026
0.0125264
0.00833864
0.0053345
0.00337399
0.00250722
0.00229175
0.00235433
0.00249569
0.00262794
0.00302855
0.00355407
0.00411517
0.00480861
0.0058362
0.00681149
0.00774911
0.00859521
0.0101287
0.0127494
0.0266475
0.0866854
0.159775
0.182655
0.206597
0.00598322
0.019553
0.114008
0.132018
0.121833
0.097942
0.0705913
0.0497052
0.0339198
0.0232545
0.0168966
0.0119228
0.00786018
0.00507935
0.00339387
0.00270686
0.00257619
0.00267719
0.00283237
0.00292254
0.00325186
0.00381012
0.00446006
0.00527097
0.00641756
0.00744722
0.00842601
0.00944614
0.0115752
0.01517
0.0320078
0.0956516
0.164605
0.187558
0.211541
0.00609167
0.0228489
0.131528
0.149303
0.129931
0.099842
0.0704311
0.0487358
0.0326833
0.0219199
0.0154998
0.0108188
0.0070665
0.00464639
0.00333007
0.0028781
0.00286537
0.00301673
0.00319485
0.00327215
0.00352437
0.00410783
0.00485329
0.00578455
0.00704244
0.00811502
0.00915025
0.0104264
0.0133334
0.018089
0.0381402
0.104705
0.169579
0.192722
0.216709
0.00628805
0.0268763
0.148911
0.162344
0.133384
0.0977599
0.0674562
0.0457988
0.0301224
0.0197093
0.0135169
0.00931762
0.00605757
0.00411813
0.00321909
0.00302292
0.0031449
0.00335368
0.00356337
0.00366958
0.00385986
0.0044578
0.00529928
0.00634769
0.00770663
0.00881267
0.00992913
0.0115647
0.0154647
0.0215739
0.0450507
0.113758
0.174699
0.198149
0.222097
0.00658505
0.0317696
0.164549
0.169235
0.131493
0.0918116
0.0619079
0.0411369
0.0264442
0.0168111
0.0111408
0.00759008
0.00497445
0.00358851
0.00310027
0.00314881
0.00340391
0.00366974
0.00391692
0.00409822
0.00426789
0.00486954
0.0058003
0.00695623
0.00840508
0.00953815
0.0107712
0.012894
0.0180381
0.025693
0.0527279
0.122748
0.179975
0.203849
0.22771
0.00697682
0.0375764
0.176819
0.169109
0.124387
0.0826651
0.0543723
0.0352187
0.0220058
0.0135172
0.00863681
0.00585981
0.00397443
0.00313818
0.00300528
0.00326379
0.00363542
0.00395151
0.00423898
0.00453711
0.00475015
0.00534959
0.00635572
0.0076034
0.009132
0.0102895
0.0116861
0.0144519
0.0211311
0.0305146
0.0611453
0.131638
0.185422
0.20984
0.233557
0.00744499
0.044201
0.18446
0.162251
0.112946
0.071354
0.0456401
0.0286408
0.0172553
0.0101846
0.00630617
0.00435819
0.00318427
0.00281224
0.0029516
0.0033723
0.00383476
0.00419069
0.00451932
0.00496477
0.00529716
0.00589864
0.00696112
0.00827998
0.00988103
0.0110649
0.0126845
0.0162821
0.0248304
0.0361065
0.0702684
0.14042
0.191065
0.216148
0.23966
0.00795396
0.0511544
0.186599
0.14975
0.0984715
0.0590113
0.0365291
0.0220109
0.0126588
0.00718204
0.00442171
0.00325176
0.00265721
0.00261765
0.00294147
0.00347379
0.00399939
0.00438508
0.00475618
0.00536648
0.00588901
0.00650947
0.00760806
0.00897491
0.0106456
0.0118622
0.013778
0.0184342
0.0292325
0.0425371
0.0800618
0.149115
0.19694
0.222813
0.246046
0.00846726
0.0574691
0.18268
0.133033
0.082341
0.0466458
0.0277453
0.0158596
0.00863662
0.00481534
0.00313103
0.00257198
0.00236779
0.00253188
0.00296382
0.00356312
0.00412746
0.00453577
0.00495336
0.00573417
0.00649854
0.00716577
0.0082845
0.00967648
0.0114191
0.0126795
0.0149796
0.0209658
0.0344444
0.0498765
0.0904976
0.15777
0.203088
0.229884
0.252757
0.00894498
0.0616287
0.172358
0.113516
0.065754
0.0350177
0.0198119
0.0105922
0.00550355
0.00322737
0.00239147
0.00222862
0.00224721
0.00251657
0.00300004
0.00363323
0.00421832
0.00464697
0.00511967
0.00606923
0.00709798
0.00784443
0.0089764
0.010374
0.0121962
0.0135154
0.0163032
0.0239427
0.0405846
0.0581997
0.101564
0.166457
0.209564
0.237421
0.259841
0.0093615
0.062067
0.155594
0.0925155
0.0496674
0.0246401
0.013078
0.00648249
0.00340013
0.0023299
0.00202987
0.00208738
0.00221528
0.00252815
0.00303051
0.00367719
0.00427106
0.00472267
0.00526467
0.00637766
0.00766426
0.00851953
0.00967025
0.0110598
0.0129733
0.0143697
0.017764
0.0274396
0.0477835
0.0675906
0.113271
0.175272
0.216425
0.245492
0.267355
0.0096768
0.0574273
0.132704
0.0712797
0.0348783
0.0158687
0.00777524
0.00366662
0.0022151
0.00188058
0.00186309
0.00202592
0.00220085
0.00253115
0.00304172
0.00369039
0.0042852
0.00476731
0.00539909
0.00667118
0.00818438
0.00916903
0.0103561
0.011731
0.0137497
0.0152437
0.0193786
0.03154
0.0561834
0.0781453
0.12566
0.184327
0.223737
0.254168
0.27536
0.00988074
0.0475613
0.10476
0.0509662
0.0220709
0.00895165
0.00403834
0.00205866
0.00161885
0.00163902
0.00174538
0.0019478
0.00214829
0.00249871
0.00302282
0.00366521
0.00425498
0.00477952
0.00553026
0.00696215
0.00865622
0.00977819
0.0110298
0.012391
0.0145284
0.0161409
0.0211643
0.0363347
0.0659373
0.0899769
0.138802
0.193752
0.231563
0.263519
0.283919
4.88243e-24
3.15178e-19
1.14117e-18
4.30946e-18
2.49856e-17
3.15258e-14
9.03098e-11
0.0326344
0.195196
0.219761
0.23109
0.22163
0.207783
0.197032
0.166866
0.151407
0.127872
0.105837
0.0711403
0.0589623
0.0302737
0.0121407
4.99611e-24
7.39401e-20
8.3511e-20
6.24291e-18
6.23993e-17
2.4571e-13
9.23157e-10
0.061957
0.230735
0.235441
0.2331
0.221556
0.206996
0.197434
0.167173
0.151917
0.128723
0.10564
0.0704302
0.0587249
0.0298444
0.0121891
5.10225e-24
2.76624e-19
8.778e-19
8.89785e-18
1.22175e-16
9.27568e-13
9.3132e-09
0.0970004
0.262523
0.248319
0.234367
0.221444
0.20639
0.198001
0.167707
0.152604
0.129784
0.105539
0.07009
0.0581149
0.029314
0.0123472
5.06198e-24
5.72598e-20
2.14772e-20
6.84931e-18
1.92211e-16
2.27705e-12
1.69545e-07
0.133984
0.289928
0.258738
0.235368
0.22142
0.206044
0.198784
0.168512
0.153447
0.131018
0.105541
0.0701086
0.0571647
0.0287166
0.012604
5.16587e-24
2.21311e-19
6.32215e-19
7.22985e-18
2.88112e-16
3.60814e-12
6.55264e-06
0.167167
0.312845
0.267063
0.236438
0.221577
0.20603
0.199766
0.169561
0.154434
0.13238
0.105649
0.0704535
0.0559457
0.0280979
0.0129508
5.11403e-24
4.59241e-20
1.20673e-20
4.61502e-18
4.09646e-16
4.86921e-12
1.8642e-05
0.190308
0.331391
0.273705
0.237857
0.222022
0.20641
0.201008
0.170901
0.155549
0.133825
0.105858
0.0710895
0.0545163
0.0274681
0.0134049
5.22937e-24
1.78692e-19
4.73363e-19
4.6364e-18
5.80212e-16
5.05898e-12
3.44698e-05
0.200395
0.34585
0.279001
0.23978
0.222824
0.207232
0.202494
0.172503
0.156796
0.13531
0.106166
0.0719625
0.0529591
0.0268528
0.0139799
5.17021e-24
3.80407e-20
7.88055e-21
2.77974e-18
7.72003e-16
4.37416e-12
2.57835e-05
0.1983
0.356453
0.283272
0.242329
0.224061
0.208534
0.20429
0.174421
0.158178
0.136798
0.10656
0.0730245
0.0513302
0.0262498
0.0146937
5.29806e-24
1.4666e-19
3.69549e-19
2.86111e-18
9.85643e-16
2.87908e-12
2.73998e-05
0.187183
0.363403
0.286722
0.245531
0.225777
0.210341
0.206378
0.176629
0.159715
0.138269
0.107031
0.0742157
0.0497034
0.0256784
0.0155498
5.22353e-24
3.24415e-20
5.88748e-21
1.68671e-18
1.14757e-15
1.68819e-12
3.52723e-05
0.170033
0.366712
0.289506
0.249404
0.228021
0.212665
0.208821
0.179183
0.161429
0.139714
0.107567
0.0754919
0.0481198
0.0251297
0.016552
5.35784e-24
1.21932e-19
2.97384e-19
1.84202e-18
1.2519e-15
8.52081e-13
4.0112e-05
0.148804
0.366283
0.291644
0.253885
0.230812
0.215516
0.211589
0.182055
0.163356
0.141147
0.108157
0.0768013
0.046637
0.0246189
0.0176858
5.27116e-24
2.84276e-20
4.6918e-21
1.08045e-18
1.23848e-15
4.16302e-13
4.10742e-05
0.125298
0.361802
0.293093
0.258915
0.234179
0.218891
0.214737
0.185301
0.165525
0.142595
0.108791
0.0781146
0.0452787
0.0241331
0.018936
5.41228e-24
1.02865e-19