/*--------------------------------*- C++ -*----------------------------------*\
| =========                 |                                                 |
| \\      /  F ield         | OpenFOAM: The Open Source CFD Toolbox           |
|  \\    /   O peration     | Version:  v1912                                 |
|   \\  /    A nd           | Website:  www.openfoam.com                      |
|    \\/     M anipulation  |                                                 |
\*---------------------------------------------------------------------------*/
FoamFile
{
    version     2.0;
    format      ascii;
    class       volScalarField;
    location    "400";
    object      p;
}
// * * * * * * * * * * * * * * * * * * * * * * * * * * * * * * * * * * * * * //

dimensions      [0 2 -2 0 0 0 0];


internalField   nonuniform List<scalar> 
12441
(
8.88159
9.18109
10.0361
11.3667
13.0904
15.2553
17.9513
21.2902
25.4441
30.5782
36.9158
44.6797
54.3096
66.3345
81.9297
101.47
129.651
164.887
222.092
284.704
375.671
438.236
8.88158
9.18108
10.0361
11.3667
13.0903
15.2553
17.9512
21.2901
25.444
30.578
36.9154
44.6791
54.3086
66.3327
81.9266
101.463
129.635
164.862
222.011
284.629
375.623
438.042
8.88156
9.18107
10.036
11.3666
13.0903
15.2552
17.9511
21.2899
25.4437
30.5775
36.9147
44.6779
54.3066
66.3292
81.9206
101.449
129.61
164.806
221.843
284.449
375.493
437.691
8.88154
9.18104
10.036
11.3666
13.0902
15.2551
17.9509
21.2896
25.4432
30.5768
36.9136
44.6761
54.3037
66.324
81.9116
101.429
129.576
164.719
221.665
284.172
375.255
437.146
8.88151
9.181
10.036
11.3665
13.0901
15.2549
17.9507
21.2892
25.4426
30.5758
36.9121
44.6738
54.2998
66.317
81.8997
101.402
129.533
164.611
221.5
283.825
374.921
436.401
8.88147
9.18096
10.0359
11.3664
13.09
15.2547
17.9504
21.2887
25.4419
30.5747
36.9103
44.6708
54.2949
66.3083
81.8848
101.368
129.479
164.483
221.314
283.405
374.495
435.459
8.88142
9.1809
10.0358
11.3663
13.0898
15.2545
17.95
21.2881
25.441
30.5732
36.9081
44.6672
54.289
66.2977
81.8669
101.328
129.416
164.333
221.096
282.916
373.982
434.318
8.88137
9.18084
10.0358
11.3662
13.0896
15.2542
17.9496
21.2875
25.44
30.5716
36.9055
44.6631
54.2822
66.2855
81.8462
101.282
129.346
164.163
220.859
282.37
373.385
432.976
8.88131
9.18077
10.0357
11.3661
13.0894
15.2539
17.9491
21.2867
25.4388
30.5697
36.9026
44.6584
54.2743
66.2716
81.823
101.232
129.275
163.98
220.622
281.777
372.71
431.429
8.88123
9.18069
10.0356
11.3659
13.0892
15.2535
17.9485
21.2858
25.4374
30.5676
36.8993
44.653
54.2655
66.256
81.7985
101.182
129.208
163.796
220.412
281.15
371.956
429.67
8.88116
9.1806
10.0354
11.3657
13.0889
15.2532
17.9479
21.2848
25.4359
30.5652
36.8956
44.6471
54.2557
66.2392
81.7744
101.137
129.162
163.63
220.258
280.498
371.121
427.694
8.88107
9.1805
10.0353
11.3655
13.0886
15.2527
17.9473
21.2837
25.4343
30.5626
36.8916
44.6406
54.2451
66.222
81.7542
101.11
129.171
163.519
220.193
279.825
370.199
425.489
8.88097
9.1804
10.0352
11.3653
13.0883
15.2522
17.9466
21.2825
25.4325
30.5598
36.8872
44.6335
54.2337
66.2068
81.7482
101.124
129.282
163.513
220.225
279.122
369.181
423.046
8.88087
9.18028
10.035
11.3651
13.088
15.2517
17.9458
21.2812
25.4306
30.5567
36.8824
44.6258
54.2225
66.1986
81.7729
101.209
129.543
163.651
220.324
278.373
368.057
420.351
8.88076
9.18016
10.0349
11.3649
13.0876
15.2512
17.9449
21.2798
25.4285
30.5534
36.8772
44.6176
54.2129
66.2067
81.8474
101.39
129.975
163.937
220.427
277.55
366.819
417.391
8.88064
9.18002
10.0347
11.3646
13.0872
15.2506
17.944
21.2784
25.4262
30.5499
36.8717
44.609
54.2082
66.2424
81.9864
101.676
130.556
164.316
220.458
276.629
365.458
414.152
8.88052
9.17988
10.0345
11.3643
13.0868
15.2499
17.9431
21.2768
25.4238
30.5461
36.8657
44.6008
54.2142
66.3153
82.1935
102.053
131.213
164.686
220.359
275.588
363.965
410.62
8.88038
9.17973
10.0343
11.364
13.0863
15.2493
17.9421
21.2751
25.4213
30.542
36.8594
44.594
54.2378
66.4291
82.4589
102.485
131.836
164.935
220.099
274.419
362.335
406.779
8.88024
9.17957
10.0341
11.3637
13.0859
15.2485
17.941
21.2733
25.4186
30.5377
36.8526
44.5909
54.2848
66.5796
82.7604
102.917
132.306
164.99
219.682
273.118
360.565
402.616
8.88009
9.1794
10.0339
11.3634
13.0854
15.2478
17.9398
21.2714
25.4158
30.5332
36.8455
44.5952
54.3571
66.7557
83.0668
103.287
132.534
164.836
219.131
271.689
358.652
398.113
8.87994
9.17922
10.0336
11.363
13.0848
15.247
17.9386
21.2694
25.4128
30.5284
36.8384
44.6108
54.4509
66.9429
83.3437
103.541
132.491
164.513
218.478
270.137
356.596
393.256
8.87977
9.17903
10.0334
11.3626
13.0843
15.2462
17.9374
21.2674
25.4097
30.5234
36.8317
44.641
54.5593
67.1246
83.5596
103.648
132.21
164.085
217.75
268.473
354.396
388.028
8.8796
9.17884
10.0331
11.3623
13.0837
15.2453
17.936
21.2652
25.4064
30.5181
36.8265
44.6857
54.6731
67.2861
83.694
103.606
131.77
163.608
216.966
266.704
352.054
382.41
8.87942
9.17863
10.0329
11.3619
13.0831
15.2444
17.9347
21.2629
25.4029
30.5124
36.8244
44.7425
54.7841
67.4145
83.7401
103.441
131.259
163.115
216.136
264.839
349.572
376.384
8.87923
9.17842
10.0326
11.3614
13.0825
15.2434
17.9332
21.2605
25.3993
30.5065
36.8274
44.8066
54.885
67.5029
83.7061
103.192
130.746
162.618
215.265
262.889
346.952
369.932
8.87903
9.1782
10.0323
11.361
13.0818
15.2424
17.9317
21.2581
25.3956
30.5004
36.8373
44.8733
54.971
67.5485
83.6094
102.9
130.267
162.115
214.354
260.862
344.198
363.031
8.87883
9.17797
10.032
11.3605
13.0812
15.2414
17.9301
21.2555
25.3916
30.4941
36.8545
44.9381
55.0382
67.5549
83.4713
102.599
129.831
161.599
213.403
258.769
341.312
355.659
8.87862
9.17773
10.0317
11.3601
13.0804
15.2403
17.9285
21.2528
25.3875
30.4879
36.8785
44.9976
55.0859
67.5279
83.3112
102.307
129.432
161.064
212.411
256.617
338.296
347.793
8.8784
9.17748
10.0314
11.3596
13.0797
15.2392
17.9268
21.2501
25.3833
30.4819
36.9074
45.0494
55.1135
67.4762
83.1439
102.033
129.059
160.508
211.377
254.413
335.148
339.404
8.87817
9.17722
10.031
11.3591
13.079
15.2381
17.9251
21.2472
25.3788
30.4763
36.9391
45.092
55.1233
67.4071
82.9781
101.779
128.701
159.929
210.301
252.163
331.868
330.467
8.87793
9.17695
10.0307
11.3585
13.0782
15.2369
17.9233
21.2442
25.3742
30.4713
36.9715
45.1248
55.117
67.3278
82.8186
101.539
128.347
159.328
209.183
249.867
328.451
320.948
8.87769
9.17668
10.0303
11.358
13.0774
15.2356
17.9214
21.2411
25.3694
30.4673
37.0033
45.1476
55.0982
67.2424
82.6664
101.311
127.994
158.705
208.023
247.526
324.89
310.817
8.87744
9.17639
10.03
11.3574
13.0765
15.2344
17.9195
21.2379
25.3645
30.4647
37.0332
45.1608
55.069
67.1551
82.5212
101.09
127.638
158.063
206.821
245.141
321.176
300.038
8.87718
9.1761
10.0296
11.3569
13.0757
15.2331
17.9175
21.2347
25.3594
30.464
37.0603
45.1652
55.0325
67.067
82.3815
100.873
127.277
157.403
205.578
242.709
317.298
288.573
8.87691
9.1758
10.0292
11.3563
13.0748
15.2317
17.9155
21.2313
25.3541
30.4656
37.0842
45.1619
54.9904
66.9801
82.2462
100.657
126.91
156.725
204.295
240.232
313.244
276.383
8.87664
9.17549
10.0288
11.3557
13.0738
15.2303
17.9134
21.2278
25.3487
30.4702
37.1048
45.152
54.9449
66.894
82.1136
100.442
126.536
156.032
202.971
237.71
309.003
263.427
8.87636
9.17517
10.0284
11.355
13.0729
15.2289
17.9112
21.2242
25.3431
30.4788
37.1221
45.1367
54.8968
66.8097
81.9829
100.225
126.157
155.324
201.608
235.146
304.562
249.66
8.87607
9.17484
10.0279
11.3544
13.0719
15.2274
17.909
21.2204
25.3379
30.4933
37.1367
45.1172
54.8477
66.7264
81.8532
100.006
125.771
154.603
200.207
232.545
299.913
235.036
8.87577
9.1745
10.0275
11.3537
13.0709
15.2259
17.9067
21.2166
25.3342
30.5148
37.1489
45.0945
54.7975
66.6449
81.7239
99.7858
125.381
153.869
198.77
229.911
295.046
219.507
8.87546
9.17416
10.027
11.3531
13.0699
15.2244
17.9043
21.2127
25.3358
30.5438
37.1592
45.0695
54.7473
66.5645
81.5947
99.5633
124.985
153.124
197.3
227.251
289.957
203.018
8.87515
9.1738
10.0266
11.3524
13.0689
15.2228
17.9019
21.2086
25.3481
30.5803
37.1675
45.043
54.6968
66.4861
81.4655
99.3389
124.585
152.367
195.8
224.569
284.644
185.517
8.87483
9.17344
10.0261
11.3516
13.0678
15.2211
17.8995
21.2047
25.3766
30.6237
37.1738
45.0157
54.6465
66.4089
81.3362
99.113
124.181
151.599
194.275
221.867
279.106
166.956
8.8745
9.17306
10.0256
11.3509
13.0667
15.2195
17.8969
21.2019
25.4246
30.6727
37.1779
44.9883
54.5957
66.3341
81.2069
98.886
123.774
150.819
192.729
219.142
273.316
147.248
8.87416
9.17268
10.0251
11.3502
13.0656
15.2178
17.8943
21.2044
25.4911
30.7251
37.1794
44.9613
54.5452
66.261
81.0779
98.6586
123.364
150.023
191.17
216.383
267.193
125.648
-19.5471
-21.6994
-22.8435
-22.1572
-19.1454
-17.4252
-15.3439
-13.591
-11.0319
-8.42263
-6.95502
-6.8362
-7.42518
-7.29857
-4.80449
0.278655
5.97952
10.6703
13.467
14.2638
13.734
12.6173
10.9556
9.47081
7.9622
6.37303
4.8348
3.58132
1.72726
2.66373
-2.6044
-3.3843
4.71741
3.00275
1.30764
-19.5472
-21.6822
-22.8688
-22.1599
-19.1446
-17.4229
-15.3439
-13.591
-11.0324
-8.42281
-6.95583
-6.83583
-7.42321
-7.29458
-4.79839
0.287187
5.98974
10.6796
13.4726
14.2674
13.7371
12.6199
10.9577
9.47252
7.96377
6.37459
4.83645
3.58254
1.72779
2.6703
-2.60534
-3.41294
4.70461
3.00319
1.30797
-19.5469
-21.6655
-22.9083
-22.1643
-19.1442
-17.4206
-15.3441
-13.5913
-11.0329
-8.42229
-6.95607
-6.83477
-7.42016
-7.28912
-4.78866
0.303972
6.01434
10.7076
13.4938
14.2789
13.7437
12.6248
10.9615
9.47586
7.96683
6.37754
4.83939
3.58478
1.72891
2.67798
-2.60912
-3.43881
4.69189
3.00375
1.30831
-19.5464
-21.6564
-22.9609
-22.1708
-19.145
-17.4185
-15.3444
-13.5918
-11.0334
-8.42154
-6.95651
-6.83368
-7.41693
-7.28362
-4.77826
0.324051
6.04727
10.7496
13.53
14.2991
13.7544
12.6324
10.9675
9.48097
7.97148
6.38195
4.84376
3.58833
1.73056
2.68624
-2.61604
-3.44966
4.67976
3.00431
1.30865
-19.5458
-21.6594
-23.0234
-22.1792
-19.1461
-17.4162
-15.3442
-13.5922
-11.0338
-8.42062
-6.95713
-6.83258
-7.41436
-7.27986
-4.7709
0.340294
6.0769
10.7913
13.5702
14.3238
13.7683
12.6424
10.9755
9.48765
7.9775
6.38763
4.84939
3.59311
1.73288
2.69477
-2.62255
-3.44595
4.66889
3.0049
1.30899
-19.5449
-21.679
-23.0925
-22.1885
-19.1461
-17.413
-15.3432
-13.5927
-11.0339
-8.41957
-6.95777
-6.83154
-7.41252
-7.27775
-4.76672
0.351223
6.09902
10.8251
13.6066
14.3491
13.7841
12.6543
10.9849
9.49558
7.98457
6.39426
4.856
3.59891
1.73587
2.70349
-2.62566
-3.42912
4.65942
3.00552
1.30931
-19.5438
-21.7193
-23.1654
-22.1978
-19.1447
-17.4087
-15.3412
-13.5933
-11.0338
-8.41837
-6.95838
-6.83044
-7.41105
-7.2763
-4.76408
0.358471
6.11453
10.8502
13.6365
14.373
13.8009
12.6675
10.9956
9.5044
7.99233
6.40148
4.86325
3.60549
1.73943
2.71247
-2.62356
-3.39994
4.65127
3.0062
1.30962
-19.5423
-21.7827
-23.2391
-22.207
-19.142
-17.4037
-15.3385
-13.594
-11.0333
-8.41707
-6.95899
-6.82934
-7.40971
-7.27473
-4.76147
0.364058
6.12562
10.8684
13.6596
14.394
13.8176
12.6812
11.0068
9.51369
8.00044
6.40894
4.87079
3.61253
1.74343
2.72172
-2.61551
-3.35888
4.64442
3.00693
1.30992
-19.5406
-21.8706
-23.3109
-22.2161
-19.1387
-17.3984
-15.3353
-13.5949
-11.0328
-8.41574
-6.95957
-6.82824
-7.40849
-7.27291
-4.75833
0.369115
6.13392
10.8812
13.6766
14.4112
13.8327
12.6942
11.0178
9.52295
8.00849
6.41628
4.87825
3.6197
1.74772
2.73121
-2.60146
-3.30658
4.6388
3.00771
1.31022
-19.5385
-21.9828
-23.3787
-22.2254
-19.1351
-17.3934
-15.3321
-13.5962
-11.0323
-8.41456
-6.9602
-6.82725
-7.40751
-7.271
-4.75473
0.373992
6.14025
10.8898
13.6879
14.4238
13.8449
12.7056
11.0279
9.53158
8.01606
6.42316
4.88527
3.62661
1.75212
2.74085
-2.58194
-3.24406
4.63448
3.00855
1.3105
-19.5362
-22.1175
-23.4407
-22.2347
-19.1315
-17.3891
-15.3295
-13.5979
-11.032
-8.41365
-6.96082
-6.8264
-7.40687
-7.2693
-4.75108
0.378498
6.14486
10.8948
13.6942
14.4314
13.8532
12.714
11.0359
9.53889
8.02267
6.42922
4.89151
3.63286
1.75641
2.75054
-2.55802
-3.17286
4.63151
3.00944
1.31078
-19.5339
-22.2711
-23.4955
-22.2444
-19.1283
-17.386
-15.3277
-13.6003
-11.0323
-8.41325
-6.96158
-6.82578
-7.40662
-7.26793
-4.7477
0.382335
6.14776
10.8968
13.6961
14.4341
13.8571
12.7188
11.0413
9.54424
8.02785
6.43411
4.89666
3.63812
1.76036
2.76017
-2.53123
-3.09515
4.63012
3.0104
1.31105
-19.5317
-22.4383
-23.5426
-22.2541
-19.1256
-17.3843
-15.3271
-13.6036
-11.0332
-8.41351
-6.9625
-6.8254
-7.40676
-7.26695
-4.74492
0.385165
6.14897
10.8962
13.6944
14.4326
13.8567
12.7198
11.0436
9.54723
8.03124
6.43757
4.9005
3.6421
1.76372
2.76963
-2.50339
-3.01374
4.63058
3.01142
1.31131
-19.5299
-22.6121
-23.5819
-22.2639
-19.1238
-17.3843
-15.3281
-13.6078
-11.035
-8.41463
-6.96381
-6.82538
-7.40727
-7.26628
-4.74284
0.386817
6.14859
10.8936
13.6902
14.428
13.8529
12.7175
11.0429
9.54779
8.03269
6.43946
4.90294
3.64468
1.76628
2.77886
-2.47631
-2.93219
4.63342
3.01249
1.31156
-19.5287
-22.7845
-23.6138
-22.2732
-19.1231
-17.3862
-15.331
-13.6132
-11.0379
-8.41672
-6.96563
-6.82577
-7.40808
-7.26586
-4.74152
0.387219
6.14677
10.8896
13.6843
14.4213
13.8467
12.7128
11.0399
9.54624
8.03231
6.43984
4.90403
3.64588
1.76789
2.78784
-2.45138
-2.85453
4.6392
3.01362
1.3118
-19.5283
-22.9472
-23.639
-22.2816
-19.1238
-17.3903
-15.336
-13.6201
-11.042
-8.41999
-6.96821
-6.82671
-7.40915
-7.26556
-4.7408
0.386524
6.14375
10.8843
13.6771
14.4131
13.8391
12.7066
11.0354
9.54308
8.03044
6.43892
4.90395
3.64585
1.76852
2.79657
-2.42922
-2.785
4.64867
3.0148
1.31203
-19.5287
-23.0929
-23.6586
-22.2883
-19.1261
-17.397
-15.3435
-13.6287
-11.0476
-8.42451
-6.97165
-6.82826
-7.41045
-7.2653
-4.74055
0.384947
6.13978
10.878
13.6687
14.4038
13.8303
12.6993
11.0298
9.53887
8.02749
6.43701
4.90298
3.64484
1.76828
2.80511
-2.40961
-2.7273
4.66234
3.01605
1.31225
-19.53
-23.2164
-23.6735
-22.2927
-19.1303
-17.4064
-15.3537
-13.6394
-11.0549
-8.43049
-6.97622
-6.83056
-7.41205
-7.26501
-4.74048
0.382843
6.13511
10.8708
13.659
14.3931
13.8206
12.6913
11.0236
9.53399
8.02383
6.43443
4.90139
3.64311
1.76736
2.81357
-2.39174
-2.68376
4.68048
3.01735
1.31246
-19.5324
-23.3154
-23.685
-22.2945
-19.1367
-17.4191
-15.3671
-13.6528
-11.0642
-8.43803
-6.98201
-6.83371
-7.41406
-7.26473
-4.74045
0.380472
6.12989
10.8625
13.6479
14.381
13.8097
12.6826
11.0169
9.52868
8.01973
6.43141
4.89939
3.64088
1.76596
2.82213
-2.37466
-2.65451
4.70274
3.01871
1.31265
-19.5359
-23.3914
-23.6942
-22.2943
-19.145
-17.4352
-15.3845
-13.6694
-11.076
-8.44746
-6.9894
-6.83798
-7.41674
-7.2645
-4.74022
0.378121
6.12421
10.8531
13.6352
14.3674
13.7975
12.673
11.0098
9.52303
8.01533
6.42812
4.89715
3.6383
1.76423
2.83097
-2.35763
-2.63754
4.72835
3.02013
1.31283
-19.5402
-23.4491
-23.7007
-22.2931
-19.1552
-17.4554
-15.4067
-13.6904
-11.0909
-8.45906
-6.99864
-6.84364
-7.42042
-7.26453
-4.73976
0.375883
6.11803
10.8424
13.6209
14.352
13.7841
12.6625
11.0021
9.51704
8.01069
6.42465
4.89475
3.6355
1.76229
2.8402
-2.34026
-2.6296
4.75616
3.02162
1.313
-19.545
-23.4953
-23.703
-22.2923
-19.1667
-17.4801
-15.4345
-13.7167
-11.1098
-8.47339
-7.01034
-6.85126
-7.42565
-7.26506
-4.73901
0.373853
6.11125
10.8303
13.6046
14.3349
13.7692
12.651
10.9938
9.51069
8.00584
6.42104
4.89226
3.63253
1.76019
2.84988
-2.32247
-2.62731
4.7851
3.02316
1.31314
-19.5496
-23.5352
-23.6996
-22.2933
-19.1796
-17.51
-15.4691
-13.7498
-11.1335
-8.49084
-7.02485
-6.86136
-7.43316
-7.26667
-4.73818
0.371906
6.10368
10.8165
13.5863
14.316
13.753
12.6387
10.9849
9.50396
8.00075
6.4173
4.88971
3.62944
1.75799
2.86
-2.30437
-2.6279
4.81426
3.02477
1.31327
-19.5534
-23.5725
-23.6888
-22.2972
-19.1938
-17.5459
-15.5119
-13.791
-11.1631
-8.51199
-7.04271
-6.87464
-7.44392
-7.27019
-4.73756
0.369911
6.09512
10.8008
13.5659
14.2953
13.7355
12.6254
10.9755
9.49687
7.99543
6.41343
4.8871
3.62623
1.75574
2.8705
-2.28614
-2.62941
4.84317
3.02643
1.31337
-19.5557
-23.6107
-23.6686
-22.305
-19.2093
-17.5889
-15.5645
-13.8419
-11.1995
-8.53694
-7.06366
-6.89133
-7.45884
-7.27693
-4.73799
0.367458
6.08527
10.7829
13.5432
14.2728
13.7168
12.6112
10.9656
9.4894
7.98987
6.40944
4.88443
3.62293
1.75348
2.88129
-2.26799
-2.63047
4.87155
3.02815
1.31345
-19.5563
-23.6531
-23.6366
-22.3168
-19.2267
-17.6402
-15.6285
-13.904
-11.2434
-8.56584
-7.08738
-6.91139
-7.47841
-7.28816
-4.74044
0.364057
6.07383
10.7627
13.518
14.2484
13.6969
12.5963
10.9551
9.48158
7.98406
6.4053
4.88171
3.61954
1.75127
2.89224
-2.25009
-2.63014
4.8995
3.02992
1.3135
-19.5549
-23.7028
-23.5917
-22.3322
-19.2462
-17.701
-15.7053
-13.9779
-11.2948
-8.59781
-7.11231
-6.93377
-7.50231
-7.30481
-4.74628
0.358854
6.06037
10.7399
13.4903
14.2223
13.6758
12.5806
10.9441
9.47341
7.97801
6.40103
4.87894
3.61609
1.74913
2.90323
-2.23264
-2.62766
4.92715
3.03176
1.31352
-19.5517
-23.7631
-23.5344
-22.3499
-19.2685
-17.7719
-15.7954
-14.0635
-11.353
-8.63175
-7.13694
-6.95706
-7.52929
-7.32643
-4.75616
0.351088
6.04446
10.7142
13.46
14.1943
13.6536
12.5642
10.9327
9.46491
7.97171
6.39661
4.87611
3.61262
1.74711
2.91407
-2.21582
-2.62247
4.95483
3.03364
1.31351
-19.547
-23.8369
-23.4674
-22.3681
-19.2941
-17.8527
-15.8974
-14.1586
-11.4158
-8.66512
-7.15846
-6.97893
-7.5574
-7.35143
-4.77001
0.340073
6.02569
10.6857
13.427
14.1645
13.6304
12.5471
10.9208
9.45607
7.96516
6.39206
4.87325
3.60914
1.74523
2.9246
-2.19985
-2.61405
4.98275
3.03559
1.31346
-19.5412
-23.9271
-23.3948
-22.3842
-19.3236
-17.9417
-16.008
-14.2591
-11.4795
-8.69527
-7.17469
-6.99726
-7.58432
-7.37691
-4.78622
0.325926
6.00384
10.6543
13.3914
14.1328
13.6061
12.5294
10.9086
9.44689
7.95834
6.38737
4.87036
3.60574
1.74351
2.9346
-2.18496
-2.60208
5.01127
3.03759
1.31338
-19.5347
-24.0375
-23.3212
-22.396
-19.3579
-18.0357
-16.1215
-14.359
-11.539
-8.71838
-7.18262
-7.00964
-7.60773
-7.39994
-4.80277
0.309268
5.97908
10.6201
13.3533
14.0993
13.5808
12.5111
10.8959
9.43736
7.95126
6.38254
4.86746
3.60244
1.74197
2.94389
-2.17141
-2.58624
5.04055
3.03968
1.31326
-19.5275
-24.173
-23.2513
-22.4012
-19.3973
-18.13
-16.2304
-14.4506
-11.5889
-8.73136
-7.18065
-7.0146
-7.62556
-7.41766
-4.81727
0.291479
5.95197
10.5836
13.3131
14.0639
13.5544
12.4922
10.8829
9.42747
7.9439
6.37758
4.86459
3.59931
1.74063
2.95219
-2.1595
-2.5664
5.07091
3.04182
1.3131
-19.5198
-24.3407
-23.1885
-22.3991
-19.4425
-18.2187
-16.3261
-14.5262
-11.6237
-8.73095
-7.16708
-7.01099
-7.63621
-7.42852
-4.82847
0.273767
5.92334
10.5452
13.2711
14.0269
13.527
12.4727
10.8694
9.41721
7.93626
6.37249
4.86177
3.59642
1.7395
2.95928
-2.14953
-2.54237
5.10245
3.04405
1.31289
-19.5111
-24.5507
-23.1342
-22.391
-19.4931
-18.2956
-16.4011
-14.5791
-11.6391
-8.71584
-7.14243
-6.99903
-7.63888
-7.43203
-4.83556
0.257367
5.89409
10.5055
13.2277
13.9885
13.4985
12.4526
10.8555
9.40654
7.9283
6.36728
4.85904
3.59382
1.73863
2.96483
-2.14186
-2.51417
5.13544
3.04635
1.31265
-19.5009
-24.816
-23.0871
-22.3807
-19.5485
-18.3556
-16.4496
-14.6049
-11.633
-8.68579
-7.1079
-6.97952
-7.63407
-7.42948
-4.83886
0.242738
5.86491
10.4652
13.1835
13.9489
13.4689
12.4318
10.8411
9.39546
7.92004
6.36196
4.85643
3.59157
1.73804
2.96853
-2.13681
-2.48172
5.16992
3.04875
1.31235
-19.4876
-25.1522
-23.0438
-22.3735
-19.6074
-18.3957
-16.4697
-14.603
-11.6058
-8.64321
-7.06695
-6.95475
-7.62391
-7.42271
-4.83862
0.230231
5.83619
10.4245
13.1389
13.9085
13.4382
12.4104
10.8263
9.38393
7.91145
6.35655
4.85401
3.58977
1.73783
2.96996
-2.13472
-2.44513
5.20611
3.05122
1.31201
-19.4693
-25.5751
-22.9994
-22.375
-19.6681
-18.416
-16.4633
-14.576
-11.5605
-8.59196
-7.02362
-6.92801
-7.61192
-7.41389
-4.83569
0.219489
5.80801
10.3837
13.0941
13.8678
13.4068
12.3883
10.8109
9.37195
7.90254
6.35106
4.85181
3.58846
1.73803
2.96875
-2.13592
-2.40437
5.24404
3.05381
1.31162
-19.4435
-26.0944
-22.9483
-22.3891
-19.7286
-18.4186
-16.4351
-14.5292
-11.5025
-8.53773
-6.98329
-6.90408
-7.60152
-7.40414
-4.83042
0.210348
5.78031
10.3428
13.0492
13.827
13.3746
12.3655
10.795
9.35948
7.89331
6.34552
4.84988
3.58777
1.73877
2.96435
-2.14075
-2.35958
5.28395
3.05648
1.31117
-19.4091
-26.701
-22.8841
-22.4174
-19.7873
-18.4075
-16.3915
-14.4692
-11.4382
-8.48657
-6.95126
-6.88736
-7.59466
-7.39417
-4.82355
0.202209
5.75287
10.3018
13.0042
13.7863
13.3421
12.3421
10.7786
9.34657
7.8838
6.33997
4.84829
3.58777
1.74008
2.95625
-2.14953
-2.31063
5.32588
3.05926
1.31066
-19.3657
-27.3482
-22.7998
-22.4586
-19.8424
-18.3869
-16.3388
-14.4024
-11.3747
-8.44482
-6.93218
-6.88021
-7.5914
-7.38384
-4.8152
0.194878
5.7254
10.2603
12.9589
13.7457
13.3093
12.3181
10.7616
9.33323
7.87403
6.33444
4.84707
3.58861
1.74212
2.9437
-2.16253
-2.25739
5.3701
3.06213
1.31009
-19.307
-27.9388
-22.6876
-22.5098
-19.8921
-18.3601
-16.282
-14.3348
-11.319
-8.4175
-6.92717
-6.88174
-7.59066
-7.373
-4.80596
0.187619
5.6974
10.218
12.9132
13.7053
13.2767
12.2938
10.7443
9.31955
7.86404
6.32891
4.84622
3.59034
1.74484
2.92619
-2.17975
-2.19989
5.41628
3.0651
1.30946
-19.208
-28.3243
-22.5393
-22.5652
-19.9336
-18.3287
-16.2244
-14.2718
-11.2779
-8.40608
-6.93359
-6.88923
-7.59084
-7.36119
-4.79618
0.179782
5.66831
10.1749
12.867
13.6652
13.2445
12.2695
10.7267
9.30549
7.85371
6.32328
4.84571
3.59314
1.74862
2.90403
-2.20093
-2.14046
5.46351
3.06815
1.3088
-19.073
-28.3326
-22.3459
-22.6187
-19.9635
-18.2933
-16.1678
-14.2203
-11.2541
-8.40653
-6.94616
-6.89896
-7.59049
-7.34917
-4.78779
0.16987
5.63786
10.1314
12.8211
13.6257
13.2132
12.2453
10.7086
9.29087
7.84286
6.31747
4.84559
3.5973
1.75391
2.87835
-2.22639
-2.08209
5.51107
3.07141
1.3081
-19.16
-27.8288
-22.1008
-22.6692
-19.9839
-18.2563
-16.1155
-14.1853
-11.2438
-8.41338
-6.96131
-6.90926
-7.59012
-7.33869
-4.78222
0.157873
5.60722
10.089
12.7766
13.5872
13.1823
12.2206
10.6892
9.27495
7.8312
6.31172
4.84657
3.60409
1.76105
2.84076
-2.26228
-2.01041
5.56975
3.0752
1.30707
8.87389
9.17238
10.0247
11.3496
13.0647
15.2164
17.8922
21.2211
25.5539
30.7652
37.1777
44.9406
54.5066
66.207
80.9793
98.4827
123.046
149.391
189.956
214.198
262.136
103.936
8.87369
9.17215
10.0244
11.3491
13.064
15.2154
17.8906
21.2471
25.5996
30.7896
37.1733
44.9254
54.4803
66.1689
80.9091
98.3563
122.816
148.927
189.077
212.61
258.272
100.995
8.87349
9.17192
10.0241
11.3487
13.0633
15.2143
17.8889
21.2792
25.6387
30.8076
37.166
44.9092
54.4534
66.1308
80.8381
98.2262
122.578
148.444
188.177
210.962
254.249
102.665
8.87327
9.17167
10.0238
11.3482
13.0626
15.2132
17.8872
21.3115
25.6708
30.8201
37.1573
44.8923
54.4269
66.0912
80.7654
98.0912
122.329
147.941
187.253
209.246
250.113
102.546
8.87304
9.17141
10.0234
11.3477
13.0618
15.212
17.8854
21.3394
25.6963
30.8283
37.1483
44.8753
54.4001
66.0511
80.6913
97.9509
122.069
147.417
186.301
207.462
245.853
100.743
8.87279
9.17113
10.023
11.3471
13.061
15.2108
17.8835
21.3582
25.7159
30.8329
37.1397
44.8583
54.3741
66.0097
80.6152
97.8046
121.796
146.871
185.313
205.611
241.464
98.6866
8.87253
9.17084
10.0227
11.3466
13.0602
15.2094
17.8815
21.3645
25.7298
30.8346
37.1318
44.8418
54.3484
65.9679
80.5375
97.6518
121.507
146.301
184.286
203.695
236.952
96.7717
8.87226
9.17053
10.0223
11.3459
13.0593
15.208
17.8793
21.359
25.7382
30.834
37.1249
44.8258
54.3238
65.9249
80.4574
97.4922
121.201
145.707
183.211
201.714
232.321
94.8355
8.87198
9.1702
10.0218
11.3453
13.0583
15.2066
17.877
21.3446
25.7415
30.8313
37.1192
44.8104
54.2995
65.8815
80.3753
97.3255
120.876
145.087
182.083
199.669
227.575
92.7799
8.87168
9.16986
10.0214
11.3446
13.0573
15.205
17.8746
21.3242
25.7396
30.8269
37.1144
44.7959
54.2764
65.8368
80.2906
97.1514
120.532
144.439
180.896
197.559
222.72
90.6291
8.87136
9.1695
10.0209
11.3439
13.0562
15.2033
17.8721
21.2996
25.7324
30.8209
37.1106
44.7821
54.2535
65.7916
80.2033
96.9697
120.168
143.762
179.645
195.384
217.759
88.4179
8.87102
9.16912
10.0204
11.3432
13.0551
15.2016
17.8694
21.2725
25.7195
30.813
37.1073
44.7692
54.2315
65.745
80.113
96.7804
119.783
143.054
178.323
193.143
212.698
86.1575
8.87066
9.16871
10.0199
11.3424
13.0539
15.1997
17.8666
21.2442
25.7003
30.803
37.1043
44.757
54.2095
65.6975
80.0196
96.5831
119.377
142.313
176.928
190.833
207.542
83.8516
8.87029
9.16828
10.0193
11.3416
13.0526
15.1977
17.8636
21.2163
25.6741
30.7902
37.101
44.7454
54.1881
65.6482
79.9225
96.3775
118.95
141.539
175.455
188.455
202.296
81.5091
8.86989
9.16783
10.0187
11.3407
13.0513
15.1956
17.8604
21.1903
25.6402
30.7739
37.0967
44.7344
54.1664
65.5975
79.8216
96.1634
118.501
140.729
173.901
186.006
196.965
79.1422
8.86947
9.16735
10.0181
11.3397
13.0499
15.1934
17.857
21.1673
25.5984
30.7531
37.0907
44.7237
54.145
65.5444
79.7162
95.9401
118.03
139.882
172.265
183.485
191.552
76.7638
8.86902
9.16684
10.0174
11.3387
13.0484
15.191
17.8534
21.1479
25.5489
30.7267
37.0816
44.7131
54.123
65.4893
79.606
95.707
117.537
138.996
170.544
180.89
186.064
74.3881
8.86855
9.1663
10.0167
11.3377
13.0468
15.1885
17.8496
21.1322
25.4926
30.6932
37.0682
44.702
54.101
65.4311
79.4902
95.4635
117.021
138.071
168.738
178.22
180.503
72.029
8.86804
9.16574
10.016
11.3366
13.0451
15.1859
17.8456
21.1198
25.4316
30.6515
37.0484
44.6897
54.0783
65.3702
79.3684
95.2089
116.48
137.104
166.845
175.473
174.874
69.699
8.86751
9.16513
10.0152
11.3354
13.0434
15.1831
17.8413
21.1097
25.3688
30.6003
37.0201
44.675
54.0551
65.3054
79.2398
94.942
115.914
136.095
164.865
172.648
169.181
67.4087
8.86695
9.16449
10.0143
11.3342
13.0415
15.1801
17.8368
21.1012
25.3074
30.5395
36.9804
44.6562
54.0305
65.2371
79.1038
94.6622
115.321
135.042
162.797
169.744
163.429
65.1652
8.86635
9.16381
10.0134
11.3328
13.0395
15.177
17.8319
21.0933
25.2507
30.4698
36.9264
44.6306
54.0043
65.1643
78.9594
94.3684
114.699
133.942
160.641
166.758
157.622
62.9713
8.86572
9.16309
10.0125
11.3314
13.0374
15.1736
17.8267
21.0856
25.2012
30.3933
36.8554
44.5945
53.9746
65.0874
78.8063
94.0595
114.047
132.795
158.397
163.69
151.767
60.8251
8.86505
9.16233
10.0115
11.3299
13.0351
15.1701
17.8212
21.0775
25.1601
30.3134
36.7658
44.5427
53.9396
65.005
78.6432
93.7346
113.363
131.598
156.064
160.537
145.871
58.7196
8.86433
9.16152
10.0104
11.3283
13.0327
15.1663
17.8154
21.069
25.1268
30.2344
36.6581
44.4691
53.895
64.9171
78.4697
93.3925
112.646
130.35
153.642
157.298
139.941
56.643
8.86357
9.16066
10.0092
11.3267
13.0302
15.1623
17.8092
21.06
25.0999
30.1601
36.5357
44.3669
53.8348
64.8213
78.2846
93.0321
111.894
129.049
151.13
153.972
133.988
54.579
8.86277
9.15974
10.008
11.3249
13.0275
15.158
17.8026
21.0503
25.0772
30.0931
36.4047
44.2311
53.749
64.7151
78.0871
92.6525
111.106
127.692
148.528
150.556
128.022
52.5076
8.86191
9.15877
10.0067
11.323
13.0246
15.1535
17.7956
21.0399
25.0568
30.0346
36.2727
44.0612
53.6256
64.5922
77.8748
92.2524
110.28
126.278
145.836
147.05
122.055
50.4064
8.861
9.15773
10.0054
11.321
13.0216
15.1487
17.7881
21.0288
25.0373
29.9839
36.147
43.8627
53.4506
64.4435
77.6449
91.8305
109.415
124.805
143.054
143.45
116.1
48.2521
8.86003
9.15663
10.0039
11.3188
13.0184
15.1437
17.7802
21.017
25.0176
29.9396
36.0326
43.6476
53.2147
64.2533
77.3906
91.3846
108.512
123.271
140.183
139.757
110.17
46.0213
8.85899
9.15546
10.0024
11.3165
13.0149
15.1383
17.7718
21.0043
24.9972
29.8992
35.9316
43.4307
52.9178
64.003
77.1011
90.9111
107.568
121.675
137.223
135.969
104.28
43.6923
8.8579
9.15421
10.0007
11.3141
13.0112
15.1325
17.7629
20.9909
24.9757
29.8605
35.8431
43.2255
52.574
63.6735
76.7582
90.4035
106.581
120.016
134.176
132.086
98.4451
41.2462
8.85672
9.15288
9.99894
11.3115
13.0073
15.1264
17.7534
20.9765
24.9529
29.8219
35.7642
43.0402
52.2079
63.2564
76.3383
89.8507
105.55
118.291
131.043
128.108
92.6789
38.6678
8.85548
9.15146
9.99706
11.3087
13.0032
15.1199
17.7433
20.9612
24.9286
29.7822
35.6909
42.8765
51.8474
62.7605
75.8159
89.2353
104.468
116.5
127.827
124.037
86.9965
35.9467
8.85415
9.14996
9.99506
11.3058
12.9987
15.113
17.7325
20.945
24.9027
29.7405
35.6195
42.7311
51.5138
62.2147
75.1757
88.5339
103.328
114.641
124.529
119.875
81.4119
33.078
8.85273
9.14835
9.99293
11.3026
12.994
15.1056
17.7211
20.9276
24.8751
29.6965
35.547
42.5975
51.2159
61.6583
74.4238
87.7216
102.113
112.712
121.153
115.627
75.9389
30.0625
8.85122
9.14663
9.99065
11.2993
12.989
15.0978
17.7089
20.9091
24.8458
29.6497
35.4717
42.4688
50.9512
61.1266
73.5933
86.7817
100.808
110.712
117.703
111.298
70.5906
26.9073
8.8496
9.14481
9.98822
11.2957
12.9836
15.0894
17.696
20.8894
24.8146
29.5999
35.3924
42.3392
50.7092
60.6389
72.7348
85.7169
99.3928
108.637
114.189
106.895
65.3802
23.6251
8.84788
9.14285
9.98562
11.2919
12.9779
15.0805
17.6822
20.8684
24.7813
29.5471
35.3085
42.205
50.4775
60.1956
71.8975
84.5551
97.8566
106.488
110.622
102.431
60.3205
20.2343
8.84604
9.14077
9.98285
11.2879
12.9718
15.071
17.6675
20.846
24.7459
29.4909
35.2194
42.0638
50.2452
59.7833
71.1104
83.3434
96.2027
104.264
107.02
97.92
55.4251
16.7584
8.84408
9.13855
9.97989
11.2835
12.9653
15.0609
17.6518
20.8222
24.7081
29.4312
35.1248
41.9145
50.0047
59.3834
70.3761
82.1301
94.4533
101.973
103.408
93.3825
50.7093
13.2253
8.84198
9.13617
9.97673
11.2789
12.9583
15.0502
17.6351
20.7967
24.668
29.3676
35.0244
41.7564
49.752
58.979
69.6761
80.9459
92.6436
99.6248
99.8193
88.8464
46.1901
9.66685
8.83973
9.13364
9.97335
11.2739
12.9509
15.0386
17.6174
20.7695
24.6252
29.3
34.9176
41.5887
49.4851
58.5588
68.984
79.7956
90.8089
97.2324
96.2876
84.3476
41.8873
6.11852
8.83734
9.13092
9.96974
11.2687
12.9429
15.0264
17.5984
20.7406
24.5796
29.228
34.8041
41.4107
49.2029
58.1165
68.276
78.6625
88.9721
94.8042
92.8426
79.9282
37.8228
2.6191
8.83477
9.12802
9.96588
11.263
12.9344
15.0133
17.5782
20.7097
24.5309
29.1513
34.6835
41.2218
48.9044
57.6498
67.5362
77.5197
87.1384
92.338
89.4966
75.6327
34.0191
-0.790082
8.83203
9.12492
9.96175
11.257
12.9254
14.9993
17.5566
20.6767
24.4791
29.0698
34.5553
41.0214
48.5885
57.1576
66.7574
76.3416
85.2966
89.8236
86.2327
71.4986
30.4967
-4.06621
8.8291
9.12161
9.95733
11.2505
12.9157
14.9844
17.5335
20.6414
24.4239
28.983
34.419
40.8087
48.2543
56.6387
65.938
75.1109
83.4244
87.2523
83.0039
67.5433
27.2691
-7.16698
8.82596
9.11806
9.9526
11.2436
12.9053
14.9684
17.509
20.6038
24.3651
28.8906
34.2742
40.5831
47.9007
56.0915
65.0784
73.8213
81.4978
84.6213
79.7499
63.7514
24.3364
-10.0534
8.8226
9.11427
9.94754
11.2362
12.8942
14.9514
17.4827
20.5637
24.3023
28.7922
34.1204
40.3438
47.5268
55.5147
64.1782
72.4731
79.501
81.9277
76.4266
60.0721
21.6771
-12.694
8.819
9.1102
9.94212
11.2283