/*--------------------------------*- C++ -*----------------------------------*\
| =========                 |                                                 |
| \\      /  F ield         | OpenFOAM: The Open Source CFD Toolbox           |
|  \\    /   O peration     | Version:  v1912                                 |
|   \\  /    A nd           | Website:  www.openfoam.com                      |
|    \\/     M anipulation  |                                                 |
\*---------------------------------------------------------------------------*/
FoamFile
{
    version     2.0;
    format      ascii;
    class       surfaceScalarField;
    location    "400";
    object      phi;
}
// * * * * * * * * * * * * * * * * * * * * * * * * * * * * * * * * * * * * * //

dimensions      [0 3 -1 0 0 0 0];
oriented        oriented;


internalField   nonuniform List<scalar> 
24588
(
6.81683e-05
1.98325e-08
6.81147e-05
5.43877e-08
6.80303e-05
8.39085e-08
6.79154e-05
1.14753e-07
6.77656e-05
1.49107e-07
6.75773e-05
1.88491e-07
6.73429e-05
2.34105e-07
6.70489e-05
2.94582e-07
6.66843e-05
3.63806e-07
6.62319e-05
4.5333e-07
6.56699e-05
5.61378e-07
6.49744e-05
7.04637e-07
6.40735e-05
8.61018e-07
6.29383e-05
1.17089e-06
6.15035e-05
1.45624e-06
5.91666e-05
2.30847e-06
5.62556e-05
2.9127e-06
5.14653e-05
4.79006e-06
4.47731e-05
6.6924e-06
3.35818e-05
1.11912e-05
1.99414e-05
1.36404e-05
1.99414e-05
6.81685e-05
4.01958e-08
6.81145e-05
1.09478e-07
6.80301e-05
1.67579e-07
6.79155e-05
2.29231e-07
6.77658e-05
2.97928e-07
6.75775e-05
3.76975e-07
6.73432e-05
4.67976e-07
6.70491e-05
5.89446e-07
6.66844e-05
7.27545e-07
6.62325e-05
9.06286e-07
6.56694e-05
1.12377e-06
6.49779e-05
1.40629e-06
6.40646e-05
1.72983e-06
6.29349e-05
2.33512e-06
6.15048e-05
2.9089e-06
5.92284e-05
4.55748e-06
5.6273e-05
5.8712e-06
5.14334e-05
9.62947e-06
4.48179e-05
1.33081e-05
3.34854e-05
2.25237e-05
1.99036e-05
2.72222e-05
3.98451e-05
6.81685e-05
6.05599e-08
6.81145e-05
1.64561e-07
6.80301e-05
2.51282e-07
6.79154e-05
3.4375e-07
6.77657e-05
4.46793e-07
6.75775e-05
5.65466e-07
6.73431e-05
7.0189e-07
6.7049e-05
8.84311e-07
6.66843e-05
1.09131e-06
6.62324e-05
1.35921e-06
6.56694e-05
1.68608e-06
6.49775e-05
2.10898e-06
6.40669e-05
2.59416e-06
6.29377e-05
3.50652e-06
6.15021e-05
4.36852e-06
5.92617e-05
6.76557e-06
5.62705e-05
8.86613e-06
5.14541e-05
1.44454e-05
4.47941e-05
1.99686e-05
3.35067e-05
3.38111e-05
1.99241e-05
4.08048e-05
5.97692e-05
6.81685e-05
8.09222e-08
6.81145e-05
2.19605e-07
6.80301e-05
3.34944e-07
6.79155e-05
4.58226e-07
6.77658e-05
5.95583e-07
6.75776e-05
7.53929e-07
6.73432e-05
9.35761e-07
6.70492e-05
1.17915e-06
6.66844e-05
1.45506e-06
6.62325e-05
1.81217e-06
6.56693e-05
2.24848e-06
6.49773e-05
2.81124e-06
6.40639e-05
3.46357e-06
6.29337e-05
4.66959e-06
6.14959e-05
5.82772e-06
5.92793e-05
8.95641e-06
5.6294e-05
1.18548e-05
5.14689e-05
1.92703e-05
4.47837e-05
2.66542e-05
3.35359e-05
4.50589e-05
1.99582e-05
5.43825e-05
7.97275e-05
6.81685e-05
1.01277e-07
6.81145e-05
2.74622e-07
6.80301e-05
4.18637e-07
6.79155e-05
5.72756e-07
6.77658e-05
7.44427e-07
6.75775e-05
9.42399e-07
6.73432e-05
1.16968e-06
6.70491e-05
1.47398e-06
6.66844e-05
1.81883e-06
6.62324e-05
2.26514e-06
6.56693e-05
2.81089e-06
6.49766e-05
3.51445e-06
6.40664e-05
4.3276e-06
6.2937e-05
5.84162e-06
6.14946e-05
7.29406e-06
5.9289e-05
1.11297e-05
5.63192e-05
1.48282e-05
5.14709e-05
2.41181e-05
4.48022e-05
3.33234e-05
3.35821e-05
5.62789e-05
2.0007e-05
6.79575e-05
9.97346e-05
6.81685e-05
1.21636e-07
6.81145e-05
3.29612e-07
6.80302e-05
5.02275e-07
6.79155e-05
6.87221e-07
6.77659e-05
8.93168e-07
6.75777e-05
1.13083e-06
6.73433e-05
1.40354e-06
6.70493e-05
1.76878e-06
6.66845e-05
2.18257e-06
6.62325e-05
2.71811e-06
6.56694e-05
3.3732e-06
6.49773e-05
4.21672e-06
6.40636e-05
5.19847e-06
6.29332e-05
7.0027e-06
6.14899e-05
8.75722e-06
5.92876e-05
1.33076e-05
5.63343e-05
1.77848e-05
5.14818e-05
2.89704e-05
4.48338e-05
3.99719e-05
3.36481e-05
6.74647e-05
2.00725e-05
8.15331e-05
0.000119807
6.81685e-05
1.41985e-07
6.81145e-05
3.84572e-07
6.80302e-05
5.8595e-07
6.79155e-05
8.01754e-07
6.77658e-05
1.04197e-06
6.75776e-05
1.31927e-06
6.73432e-05
1.63745e-06
6.70492e-05
2.06357e-06
6.66845e-05
2.5463e-06
6.62324e-05
3.1711e-06
6.56692e-05
3.93568e-06
6.49763e-05
4.91995e-06
6.40669e-05
6.06212e-06
6.29373e-05
8.17612e-06
6.14888e-05
1.02286e-05
5.92834e-05
1.54818e-05
5.63495e-05
2.07218e-05
5.15029e-05
3.38165e-05
4.4882e-05
4.6593e-05
3.37412e-05
7.86054e-05
2.01578e-05
9.51164e-05
0.000139965
6.81685e-05
1.6234e-07
6.81145e-05
4.39514e-07
6.80302e-05
6.69566e-07
6.79156e-05
9.16202e-07
6.77659e-05
1.19065e-06
6.75777e-05
1.50767e-06
6.73434e-05
1.87128e-06
6.70494e-05
2.35833e-06
6.66847e-05
2.91001e-06
6.62327e-05
3.62403e-06
6.56698e-05
4.49774e-06
6.4978e-05
5.62186e-06
6.40638e-05
6.93546e-06
6.2932e-05
9.33626e-06
6.14758e-05
1.17021e-05
5.92689e-05
1.76667e-05
5.63664e-05
2.36268e-05
5.15505e-05
3.86324e-05
4.49635e-05
5.31804e-05
3.38729e-05
8.96961e-05
2.02666e-05
0.000108723
0.000160232
6.81685e-05
1.82685e-07
6.81145e-05
4.94422e-07
6.80302e-05
7.53225e-07
6.79155e-05
1.03073e-06
6.77659e-05
1.33941e-06
6.75777e-05
1.69608e-06
6.73433e-05
2.10517e-06
6.70493e-05
2.65306e-06
6.66846e-05
3.27369e-06
6.62326e-05
4.077e-06
6.56693e-05
5.06033e-06
6.49756e-05
6.32539e-06
6.40659e-05
7.79965e-06
6.29343e-05
1.05117e-05
6.14529e-05
1.32027e-05
5.92705e-05
1.98275e-05
5.63743e-05
2.65244e-05
5.16545e-05
4.33517e-05
4.50992e-05
5.97359e-05
3.40547e-05
0.000100741
2.04034e-05
0.000122374
0.000180635
6.81685e-05
2.03036e-07
6.81145e-05
5.49319e-07
6.80302e-05
8.36826e-07
6.79156e-05
1.14516e-06
6.7766e-05
1.48803e-06
6.75778e-05
1.88444e-06
6.73435e-05
2.33897e-06
6.70495e-05
2.94777e-06
6.66849e-05
3.63734e-06
6.62329e-05
4.52983e-06
6.56705e-05
5.62194e-06
6.49792e-05
7.02658e-06
6.40603e-05
8.68147e-06
6.29185e-05
1.16796e-05
6.14197e-05
1.47102e-05
5.92933e-05
2.19427e-05
5.63864e-05
2.94326e-05
5.18166e-05
4.79216e-05
4.52925e-05
6.62602e-05
3.4291e-05
0.000111742
2.05716e-05
0.000136093
0.000201207
6.81685e-05
2.23374e-07
6.81146e-05
6.04178e-07
6.80302e-05
9.20481e-07
6.79156e-05
1.25969e-06
6.7766e-05
1.63674e-06
6.75778e-05
2.07281e-06
6.73435e-05
2.57283e-06
6.70495e-05
3.24245e-06
6.66848e-05
4.00096e-06
6.62329e-05
4.98266e-06
6.56697e-05
6.18448e-06
6.49733e-05
7.73216e-06
6.40507e-05
9.56152e-06
6.29078e-05
1.28591e-05
6.13966e-05
1.62312e-05
5.93255e-05
2.40051e-05
5.64192e-05
3.23391e-05
5.2007e-05
5.23335e-05
4.552e-05
7.27473e-05
3.45737e-05
0.000122688
2.07725e-05
0.000149894
0.000221979
6.81685e-05
2.43719e-07
6.81146e-05
6.59032e-07
6.80302e-05
1.00408e-06
6.79156e-05
1.3741e-06
6.77661e-05
1.78531e-06
6.75779e-05
2.26113e-06
6.73437e-05
2.8066e-06
6.70497e-05
3.53711e-06
6.66851e-05
4.36457e-06
6.62333e-05
5.43528e-06
6.56711e-05
6.74587e-06
6.49754e-05
8.43696e-06
6.40379e-05
1.04691e-05
6.29001e-05
1.40128e-05
6.13854e-05
1.77467e-05
5.93557e-05
2.60318e-05
5.6463e-05
3.52325e-05
5.21833e-05
5.66134e-05
4.57502e-05
7.91805e-05
3.4887e-05
0.000133552
2.10048e-05
0.000163777
0.000242984
6.81685e-05
2.64048e-07
6.81146e-05
7.13845e-07
6.80302e-05
1.08774e-06
6.79156e-05
1.48862e-06
6.7766e-05
1.93399e-06
6.75779e-05
2.44946e-06
6.73436e-05
3.04043e-06
6.70496e-05
3.83175e-06
6.6685e-05
4.72812e-06
6.62334e-05
5.88778e-06
6.56701e-05
7.3085e-06
6.49677e-05
9.14749e-06
6.40257e-05
1.13795e-05
6.2902e-05
1.51534e-05
6.13826e-05
1.9271e-05
5.93789e-05
2.80326e-05
5.65043e-05
3.81069e-05
5.23238e-05
6.07937e-05
4.59635e-05
8.55407e-05
3.52147e-05
0.0001443
2.12651e-05
0.000177726
0.000264249
6.81685e-05
2.84385e-07
6.81146e-05
7.68656e-07
6.80303e-05
1.17134e-06
6.79157e-05
1.60301e-06
6.77661e-05
2.08251e-06
6.7578e-05
2.63775e-06
6.73438e-05
3.27415e-06
6.70499e-05
4.12637e-06
6.66853e-05
5.09166e-06
6.62337e-05
6.34021e-06
6.56693e-05
7.87221e-06
6.49616e-05
9.86213e-06
6.40302e-05
1.22967e-05
6.29033e-05
1.62836e-05
6.13828e-05
2.07899e-05
5.93943e-05
3.00208e-05
5.65372e-05
4.09644e-05
5.24295e-05
6.49015e-05
4.61534e-05
9.18169e-05
3.55448e-05
0.000154909
2.15491e-05
0.000191722
0.000285799
6.81685e-05
3.04704e-07
6.81146e-05
8.23421e-07
6.80303e-05
1.25501e-06
6.79156e-05
1.71754e-06
6.77661e-05
2.23116e-06
6.75779e-05
2.82604e-06
6.73437e-05
3.50794e-06
6.70498e-05
4.42098e-06
6.66853e-05
5.45512e-06
6.62335e-05
6.79292e-06
6.56656e-05
8.43941e-06
6.49491e-05
1.05844e-05
6.40358e-05
1.31973e-05
6.29032e-05
1.74231e-05
6.13839e-05
2.2312e-05
5.9404e-05
3.19993e-05
5.65613e-05
4.3807e-05
5.25093e-05
6.89533e-05
4.63202e-05
9.8006e-05
3.58701e-05
0.000165359
2.18523e-05
0.00020574
0.000307651
6.81685e-05
3.2503e-07
6.81146e-05
8.78189e-07
6.80303e-05
1.33862e-06
6.79157e-05
1.83191e-06
6.77662e-05
2.37963e-06
6.75781e-05
3.01428e-06
6.7344e-05
3.7416e-06
6.70501e-05
4.71554e-06
6.66855e-05
5.81862e-06
6.62331e-05
7.24623e-06
6.56586e-05
9.01315e-06
6.49431e-05
1.1304e-05
6.40388e-05
1.40989e-05
6.29024e-05
1.85588e-05
6.13851e-05
2.38275e-05
5.94101e-05
3.39746e-05
5.65784e-05
4.66389e-05
5.25711e-05
7.29608e-05
4.6467e-05
0.00010411
3.61871e-05
0.000175639
2.21708e-05
0.000219756
0.000329822
6.81685e-05
3.45336e-07
6.81146e-05
9.32908e-07
6.80303e-05
1.42232e-06
6.79156e-05
1.94643e-06
6.77661e-05
2.52825e-06
6.7578e-05
3.20253e-06
6.73439e-05
3.97535e-06
6.705e-05
5.01005e-06
6.66854e-05
6.18217e-06
6.62326e-05
7.69992e-06
6.56475e-05
9.59763e-06
6.49415e-05
1.20124e-05
6.40387e-05
1.49967e-05
6.29018e-05
1.96993e-05
6.13862e-05
2.53452e-05
5.94137e-05
3.59462e-05
5.65906e-05
4.94618e-05
5.2621e-05
7.69302e-05
4.65975e-05
0.000110134
3.64947e-05
0.000185742
2.25015e-05
0.000233749
0.000352323
6.81685e-05
3.65651e-07
6.81146e-05
9.87635e-07
6.80303e-05
1.50595e-06
6.79157e-05
2.06079e-06
6.77663e-05
2.67668e-06
6.75782e-05
3.39072e-06
6.73441e-05
4.20896e-06
6.70503e-05
5.30448e-06
6.66856e-05
6.54589e-06
6.62328e-05
8.15356e-06
6.56373e-05
1.01925e-05
6.49415e-05
1.27094e-05
6.40379e-05
1.59005e-05
6.29014e-05
2.08342e-05
6.13872e-05
2.68579e-05
5.94159e-05
3.79178e-05
5.65993e-05
5.22786e-05
5.26634e-05
8.08663e-05
4.67156e-05
0.000116081
3.67931e-05
0.000195664
2.28423e-05
0.0002477
0.000375166
6.81685e-05
3.85942e-07
6.81146e-05
1.04231e-06
6.80303e-05
1.58967e-06
6.79157e-05
2.1753e-06
6.77662e-05
2.82527e-06
6.75781e-05
3.57893e-06
6.7344e-05
4.44266e-06
6.70503e-05
5.59884e-06
6.66855e-05
6.90965e-06
6.62323e-05
8.60763e-06
6.56312e-05
1.07932e-05
6.49407e-05
1.34004e-05
6.40372e-05
1.68015e-05
6.29014e-05
2.19726e-05
6.13882e-05
2.83729e-05
5.94172e-05
3.98882e-05
5.6606e-05
5.50896e-05
5.27012e-05
8.47709e-05
4.68245e-05
0.000121958
3.70835e-05
0.000205405
2.31918e-05
0.000261592
0.000398357
6.81685e-05
4.06245e-07
6.81146e-05
1.09699e-06
6.80303e-05
1.67331e-06
6.79158e-05
2.28964e-06
6.77663e-05
2.97366e-06
6.75783e-05
3.76707e-06
6.73443e-05
4.67622e-06
6.70506e-05
5.89313e-06
6.66859e-05
7.27338e-06
6.62287e-05
9.06557e-06
6.56309e-05
1.13905e-05
6.49396e-05
1.40921e-05
6.40367e-05
1.77054e-05
6.29015e-05
2.31063e-05
6.13892e-05
2.98836e-05
5.94182e-05
4.18595e-05
5.66118e-05
5.78962e-05
5.2737e-05
8.86458e-05
4.69272e-05
0.000127768
3.73678e-05
0.000214965
2.35493e-05
0.00027541
0.000421907
6.81685e-05
4.26522e-07
6.81146e-05
1.15162e-06
6.80303e-05
1.75706e-06
6.79157e-05
2.40415e-06
6.77662e-05
3.12223e-06
6.75782e-05
3.95523e-06
6.73442e-05
4.90987e-06
6.70505e-05
6.1874e-06
6.66862e-05
7.63676e-06
6.62201e-05
9.53239e-06
6.56357e-05
1.19748e-05
6.49386e-05
1.47892e-05
6.40366e-05
1.86056e-05
6.29018e-05
2.42431e-05
6.13905e-05
3.13965e-05
5.94193e-05
4.38301e-05
5.66175e-05
6.06979e-05
5.27724e-05
9.24908e-05
4.70263e-05
0.000133514
3.76479e-05
0.000224343
2.39148e-05
0.000289143
0.000445822
6.81685e-05
4.46811e-07
6.81146e-05
1.20626e-06
6.80303e-05
1.84073e-06
6.79158e-05
2.51847e-06
6.77664e-05
3.27057e-06
6.75784e-05
4.14332e-06
6.73445e-05
5.14335e-06
6.70508e-05
6.48169e-06
6.66869e-05
7.99964e-06
6.62107e-05
1.00094e-05
6.56412e-05
1.25442e-05
6.4938e-05
1.54925e-05
6.40367e-05
1.95079e-05
6.29023e-05
2.53759e-05
6.1392e-05
3.29055e-05
5.9421e-05
4.58015e-05
5.6624e-05
6.3495e-05
5.28086e-05
9.63063e-05
4.71236e-05
0.000139199
3.79261e-05
0.00023354
2.42885e-05
0.000302781
0.00047011
6.81685e-05
4.67072e-07
6.81147e-05
1.26084e-06
6.80303e-05
1.9245e-06
6.79157e-05
2.63298e-06
6.77663e-05
3.41911e-06
6.75783e-05
4.33144e-06
6.73444e-05
5.3769e-06
6.70507e-05
6.77598e-06
6.66874e-05
8.362e-06
6.62038e-05
1.04938e-05
6.56447e-05
1.31032e-05
6.49376e-05
1.61997e-05
6.4037e-05
2.04071e-05
6.29031e-05
2.65116e-05
6.13939e-05
3.44162e-05
5.94235e-05
4.77713e-05
5.66319e-05
6.62866e-05
5.28465e-05
0.000100092
4.72207e-05
0.000144825
3.82047e-05
0.000242556
2.46713e-05
0.000316314
0.000494781
6.81685e-05
4.87348e-07
6.81146e-05
1.31544e-06
6.80304e-05
2.00819e-06
6.79158e-05
2.74727e-06
6.77665e-05
3.5674e-06
6.75786e-05
4.51949e-06
6.73447e-05
5.61028e-06
6.70511e-05
7.07025e-06
6.6688e-05
8.72408e-06
6.62e-05
1.09825e-05
6.56463e-05
1.36568e-05
6.49375e-05
1.69086e-05
6.40375e-05
2.13082e-05
6.29041e-05
2.76435e-05
6.13963e-05
3.59227e-05
5.94274e-05
4.97405e-05
5.66416e-05
6.90726e-05
5.28865e-05
0.000103847
4.73187e-05
0.000150393
3.84859e-05
0.000251389
2.5064e-05
0.000329736
0.000519845
6.81685e-05
5.07593e-07
6.81147e-05
1.36998e-06
6.80304e-05
2.09199e-06
6.79157e-05
2.86177e-06
6.77664e-05
3.71592e-06
6.75784e-05
4.70755e-06
6.73446e-05
5.84378e-06
6.7051e-05
7.36439e-06
6.6688e-05
9.08613e-06
6.61979e-05
1.14733e-05
6.5647e-05
1.42077e-05
6.49376e-05
1.7618e-05
6.40381e-05
2.22064e-05
6.29054e-05
2.87779e-05
6.13994e-05
3.74301e-05
5.94329e-05
5.17066e-05
5.66535e-05
7.18518e-05
5.29289e-05
0.000107571
4.74186e-05
0.000155903
3.87721e-05
0.000260036
2.54681e-05
0.00034304
0.000545314
6.81685e-05
5.27854e-07
6.81147e-05
1.42454e-06
6.80304e-05
2.1757e-06
6.79159e-05
2.97604e-06
6.77666e-05
3.86417e-06
6.75787e-05
4.89552e-06
6.73449e-05
6.07713e-06
6.70515e-05
7.65833e-06
6.6687e-05
9.44976e-06
6.61978e-05
1.1963e-05
6.56474e-05
1.4758e-05
6.49379e-05
1.83276e-05
6.40389e-05
2.31063e-05
6.29071e-05
2.99083e-05
6.14032e-05
3.89328e-05
5.944e-05
5.36701e-05
5.66679e-05
7.46241e-05
5.29736e-05
0.000111266
4.75209e-05
0.000161356
3.90655e-05
0.000268491
2.5885e-05
0.00035622
0.000571199
6.81686e-05
5.48083e-07
6.81147e-05
1.47903e-06
6.80304e-05
2.25953e-06
6.79158e-05
3.09053e-06
6.77664e-05
4.01267e-06
6.75786e-05
5.08351e-06
6.73447e-05
6.31065e-06
6.70517e-05
7.95196e-06
6.66816e-05
9.81894e-06
6.6201e-05
1.24441e-05
6.56478e-05
1.53113e-05
6.49383e-05
1.90371e-05
6.40399e-05
2.40035e-05
6.29091e-05
3.10408e-05
6.14078e-05
4.04354e-05
5.9449e-05
5.56284e-05
5.66847e-05
7.73883e-05
5.30206e-05
0.00011493
4.76258e-05
0.00016675
3.9368e-05
0.000276749
2.63161e-05
0.000369272
0.000597515
6.81685e-05
5.6833e-07
6.81147e-05
1.53354e-06
6.80304e-05
2.34325e-06
6.79159e-05
3.20477e-06
6.77667e-05
4.16088e-06
6.75789e-05
5.27138e-06
6.7345e-05
6.54406e-06
6.70524e-05
8.2452e-06
6.66742e-05
1.01962e-05
6.62062e-05
1.29124e-05
6.56481e-05
1.58694e-05
6.49388e-05
1.97465e-05
6.40411e-05
2.49021e-05
6.29115e-05
3.2169e-05
6.14133e-05
4.19323e-05
5.94597e-05
5.75823e-05
5.67041e-05
8.01441e-05
5.30699e-05
0.000118564
4.77337e-05
0.000172087
3.96816e-05
0.000284801
2.67632e-05
0.000382191
0.000624278
6.81686e-05
5.88544e-07
6.81147e-05
1.58799e-06
6.80304e-05
2.42711e-06
6.79158e-05
3.31925e-06
6.77665e-05
4.30937e-06
6.75787e-05
5.45926e-06
6.73448e-05
6.77765e-06
6.70526e-05
8.53804e-06
6.66682e-05
1.05797e-05
6.62103e-05
1.33704e-05
6.56486e-05
1.64312e-05
6.49394e-05
2.04556e-05
6.40424e-05
2.5798e-05
6.29143e-05
3.32987e-05
6.14196e-05
4.34283e-05
5.94721e-05
5.95292e-05
5.6726e-05
8.28901e-05
5.31216e-05
0.000122168
4.78445e-05
0.000177364
4.00075e-05
0.000292638
2.72274e-05
0.000394971
0.000651505
6.81685e-05
6.08776e-07
6.81147e-05
1.64247e-06
6.80304e-05
2.51086e-06
6.7916e-05
3.43346e-06
6.77668e-05
4.45754e-06
6.75791e-05
5.64703e-06
6.73452e-05
7.01109e-06
6.70532e-05
8.83061e-06
6.66645e-05
1.09676e-05
6.62131e-05
1.38219e-05
6.56491e-05
1.69951e-05
6.49401e-05
2.11646e-05
6.40439e-05
2.66952e-05
6.29174e-05
3.44237e-05
6.14267e-05
4.49179e-05
5.94861e-05
6.14702e-05
5.67504e-05
8.56259e-05
5.31756e-05
0.000125743
4.79581e-05
0.000182581
4.03465e-05
0.00030025
2.77102e-05
0.000407607
0.000679216
6.81686e-05
6.28974e-07
6.81147e-05
1.69687e-06
6.80304e-05
2.59474e-06
6.79159e-05
3.54792e-06
6.77666e-05
4.60599e-06
6.75789e-05
5.83482e-06
6.7345e-05
7.24466e-06
6.70532e-05
9.12298e-06
6.66622e-05
1.13578e-05
6.62151e-05
1.42691e-05
6.56497e-05
1.75605e-05
6.49409e-05
2.18734e-05
6.40455e-05
2.75895e-05
6.2921e-05
3.55499e-05
6.14345e-05
4.64057e-05
5.95015e-05
6.34026e-05
5.67774e-05
8.83499e-05
5.32322e-05
0.000129288
4.80743e-05
0.000187739
4.06991e-05
0.000307625
2.82124e-05
0.000420094
0.000707428
6.81685e-05
6.49193e-07
6.81147e-05
1.75131e-06
6.80305e-05
2.6785e-06
6.7916e-05
3.6621e-06
6.77669e-05
4.75411e-06
6.75792e-05
6.0225e-06
6.73455e-05
7.478e-06
6.70537e-05
9.41531e-06
6.66611e-05
1.17497e-05
6.62168e-05
1.47135e-05
6.56504e-05
1.81269e-05
6.49418e-05
2.2582e-05
6.40473e-05
2.8485e-05
6.29248e-05
3.66709e-05
6.1443e-05
4.78863e-05
5.95183e-05
6.53276e-05
5.68069e-05
9.10615e-05
5.32912e-05
0.000132804
4.8193e-05
0.000192837
4.10653e-05
0.000314753
2.87347e-05
0.000432424
0.000736163
6.81686e-05
6.69375e-07
6.81148e-05
1.80568e-06
6.80305e-05
2.7624e-06
6.79159e-05
3.77655e-06
6.77667e-05
4.90253e-06
6.7579e-05
6.21024e-06
6.73454e-05
7.71139e-06
6.70536e-05
9.70764e-06
6.66605e-05
1.2142e-05
6.62183e-05
1.51558e-05
6.56511e-05
1.86941e-05
6.49428e-05
2.32903e-05
6.40493e-05
2.93775e-05
6.2929e-05
3.77928e-05
6.14521e-05
4.93647e-05
5.95364e-05
6.72427e-05
5.68389e-05
9.37589e-05
5.3353e-05
0.00013629
4.83142e-05
0.000197876
4.14446e-05
0.000321622
2.92773e-05
0.000444592
0.00076544
6.81685e-05
6.89582e-07
6.81147e-05
1.86008e-06
6.80305e-05
2.84617e-06
6.79161e-05
3.89069e-06
6.7767e-05
5.05059e-06
6.75794e-05
6.39788e-06
6.73459e-05
7.94449e-06
6.70539e-05
1.00002e-05
6.66605e-05
1.25347e-05
6.62197e-05
1.55966e-05
6.56519e-05
1.92619e-05
6.49439e-05
2.39983e-05
6.40513e-05
3.02709e-05
6.29335e-05
3.89091e-05
6.14617e-05
5.08353e-05
5.95558e-05
6.9149e-05
5.68735e-05
9.64413e-05
5.34176e-05
0.000139746
4.84379e-05
0.000202856
4.18367e-05
0.000328224
2.98405e-05
0.000456588
0.000795281
6.81686e-05
7.09751e-07
6.81148e-05
1.9144e-06
6.80305e-05
2.93009e-06
6.79159e-05
4.00512e-06
6.77668e-05
5.19897e-06
6.75792e-05
6.58558e-06
6.73459e-05
8.17756e-06
6.70537e-05
1.02929e-05
6.66605e-05
1.29272e-05
6.62211e-05
1.6036e-05
6.56528e-05
1.98302e-05
6.4945e-05
2.47061e-05
6.40536e-05
3.11614e-05
6.29383e-05
4.00261e-05
6.14719e-05
5.2303e-05
5.95764e-05
7.1044e-05
5.69107e-05
9.9107e-05
5.34853e-05
0.000143171
4.85644e-05
0.000207777
4.22412e-05
0.000334547
3.04243e-05
0.000468405
0.000825705
6.81685e-05
7.29946e-07
6.81147e-05
1.96877e-06
6.80305e-05
3.01387e-06
6.79162e-05
4.11923e-06
6.77671e-05
5.34695e-06
6.75795e-05
6.7732e-06
6.73465e-05
8.41026e-06
6.70536e-05
1.05863e-05
6.66609e-05
1.33192e-05
6.62224e-05
1.64746e-05
6.56537e-05
2.03989e-05
6.49462e-05
2.54135e-05
6.40559e-05
3.20525e-05
6.29433e-05
4.11372e-05
6.14826e-05
5.37625e-05
5.95981e-05
7.29289e-05
5.69503e-05
0.000101755
5.35561e-05
0.000146566
4.86941e-05
0.000212639
4.26581e-05
0.000340583
3.10289e-05
0.000480034
0.000856734
6.81686e-05
7.50103e-07
6.81148e-05
2.02306e-06
6.80305e-05
3.09779e-06
6.7916e-05
4.23365e-06
6.77669e-05
5.49524e-06
6.75793e-05
6.9609e-06
6.73465e-05
8.64286e-06
6.70502e-05
1.08831e-05
6.66634e-05
1.37055e-05
6.62236e-05
1.69144e-05
6.56546e-05
2.0968e-05
6.49475e-05
2.61206e-05
6.40584e-05
3.29407e-05
6.29486e-05
4.22487e-05
6.14938e-05
5.52187e-05
5.9621e-05
7.48012e-05
5.69924e-05
0.000104383
5.36304e-05
0.000149927
4.88274e-05
0.000217442
4.30874e-05
0.000346323
3.16547e-05
0.000491466
0.000888389
6.81685e-05
7.70287e-07
6.81148e-05
2.07739e-06
6.80306e-05
3.18157e-06
6.79162e-05
4.34772e-06
6.77673e-05
5.64313e-06
6.75797e-05
7.14852e-06
6.73471e-05
8.87506e-06
6.70403e-05
1.11905e-05
6.66727e-05
1.4073e-05
6.62248e-05
1.73622e-05
6.56556e-05
2.15372e-05
6.49488e-05
2.68274e-05
6.40609e-05
3.38294e-05
6.29541e-05
4.3354e-05
6.15054e-05
5.66661e-05
5.96449e-05
7.6662e-05
5.70369e-05
0.000106991
5.37084e-05
0.000153256
4.89647e-05
0.000222186
4.35296e-05
0.000351758
3.23023e-05
0.000502694
0.000920691
6.81686e-05
7.90429e-07
6.81148e-05
2.13163e-06
6.80306e-05
3.26551e-06
6.79161e-05
4.46212e-06
6.77671e-05
5.79136e-06
6.75795e-05
7.33618e-06
6.7347e-05
9.10735e-06
6.70336e-05
1.15043e-05
6.66791e-05
1.44275e-05
6.6226e-05
1.78154e-05
6.56566e-05
2.21066e-05
6.49502e-05
2.75338e-05
6.40636e-05
3.47151e-05
6.29598e-05
4.44596e-05
6.15174e-05
5.81099e-05
5.96698e-05
7.85092e-05
5.70838e-05
0.000109577
5.37903e-05
0.000156549
4.91064e-05
0.00022687
4.39851e-05
0.000356879
3.29721e-05
0.000513707
0.000953663
6.81685e-05
8.10603e-07
6.81148e-05
2.18592e-06
6.80306e-05
3.34928e-06
6.79163e-05
4.57615e-06
6.77674e-05
5.93918e-06
6.75799e-05
7.52366e-06
6.73474e-05
9.33955e-06
6.70318e-05
1.18204e-05
6.66813e-05
1.4778e-05
6.6227e-05
1.82697e-05
6.56576e-05
2.2676e-05
6.49516e-05
2.82398e-05
6.40663e-05
3.56013e-05
6.29656e-05
4.55585e-05
6.15299e-05
5.95442e-05
5.96957e-05
8.03437e-05
5.71328e-05
0.00011214
5.38765e-05
0.000159806
4.92525e-05
0.000231494
4.44539e-05
0.000361678
3.36648e-05
0.000524496
0.000987328
6.81686e-05
8.30741e-07
6.81148e-05
2.24013e-06
6.80306e-05
3.43321e-06
6.79162e-05
4.69049e-06
6.77672e-05
6.08737e-06
6.75799e-05
7.71103e-06
6.73457e-05
9.57357e-06
6.70315e-05
1.21348e-05
6.66821e-05
1.51273e-05
6.62279e-05
1.8724e-05
6.56586e-05
2.32453e-05
6.4953e-05
2.89453e-05
6.40691e-05
3.6484e-05
6.29717e-05
4.6658e-05
6.15427e-05
6.0975e-05
5.97225e-05
8.21634e-05
5.71838e-05
0.000114679
5.39672e-05
0.000163022
4.94028e-05
0.000236058
4.49345e-05
0.000366146
3.43798e-05
0.00053505
0.00102171
6.81685e-05
8.50902e-07
6.81148e-05
2.29438e-06
6.80306e-05
3.51701e-06
6.79164e-05
4.80446e-06
6.77674e-05
6.23535e-06
6.75808e-05
7.89759e-06
6.7335e-05
9.81907e-06
6.70366e-05
1.24333e-05
6.66825e-05
1.54814e-05
6.62286e-05
1.91779e-05
6.56595e-05
2.38144e-05
6.49545e-05
2.96503e-05
6.40719e-05
3.73676e-05
6.29778e-05
4.77502e-05
6.15559e-05
6.23953e-05
5.97501e-05
8.39696e-05
5.72368e-05
0.000117192
5.4063e-05
0.000166196
4.95569e-05
0.000240564
4.54225e-05
0.00037028
3.51138e-05
0.000545359
0.00105682
6.81686e-05
8.71021e-07
6.81149e-05
2.34853e-06
6.80306e-05
3.60097e-06
6.79163e-05
4.91873e-06
6.77671e-05
6.38382e-06
6.75811e-05
8.08365e-06
6.73267e-05
1.00733e-05
6.70405e-05
1.27195e-05
6.66828e-05
1.58392e-05
6.62293e-05
1.96313e-05
6.56605e-05
2.43832e-05
6.4956e-05
3.03548e-05
6.40748e-05
3.82475e-05
6.29842e-05
4.8843e-05
6.15695e-05
6.38118e-05
5.97785e-05
8.57601e-05
5.72914e-05
0.000119679
5.4164e-05
0.000169323
4.97145e-05
0.000245014
4.59084e-05
0.000374086
3.58593e-05
0.000555408
0.00109268
6.81684e-05
8.91147e-07
6.81148e-05
2.40275e-06
6.80307e-05
3.6847e-06
6.79166e-05
5.03252e-06
6.77675e-05
6.53171e-06
6.75817e-05
8.26941e-06
6.73246e-05
1.033e-05
6.70412e-05
1.30029e-05
6.66829e-05
1.61975e-05
6.62298e-05
2.00844e-05
6.56614e-05
2.49516e-05
6.49574e-05
3.10588e-05
6.40777e-05
3.91283e-05
6.29905e-05
4.99283e-05
6.15833e-05
6.52175e-05
5.98076e-05
8.75361e-05
5.73472e-05
0.00012214
5.42716e-05
0.000172399
4.98748e-05
0.000249411
4.63891e-05
0.000377572
3.66955e-05
0.000565102
0.00112938
-1.63997e-06
1.64e-06
-4.32189e-06
2.68194e-06
-5.37662e-06
1.05473e-06
-4.76264e-06
-6.13907e-07
-3.60164e-06
-1.16119e-06
-2.71218e-06
-8.89162e-07
-2.26833e-06
-4.43613e-07
-2.12332e-06
-1.44593e-07
-2.00728e-06
-1.13221e-07
-1.99348e-06
-1.06328e-08
-2.10057e-06
1.18958e-07
-2.04748e-06
-7.29674e-08
-1.68071e-06
-3.71687e-07
-8.53623e-07
-8.26675e-07
5.39814e-07
-1.39009e-06
2.50852e-06
-1.96575e-06
5.07902e-06
-2.56915e-06
8.25148e-06
-3.17228e-06
1.18185e-05
-3.56645e-06
1.55022e-05
-3.68536e-06
1.91675e-05
-3.66683e-06
2.27271e-05
-3.55882e-06
2.60938e-05
-3.36681e-06
2.92422e-05
-3.14846e-06
3.22048e-05
-2.96247e-06
3.50368e-05
-2.83282e-06
3.79006e-05
-2.8647e-06
4.07067e-05
-2.8055e-06
4.26243e-05
-1.91225e-06
4.73072e-05
-4.68556e-06
5.85029e-05
-1.11953e-05
6.67082e-05
-8.2065e-06
6.76055e-05
-8.96767e-07
6.75691e-05
3.60597e-08
-3.11813e-08
-1.58634e-06
3.22642e-06
-4.25662e-06
5.35225e-06
-5.30142e-06
2.09955e-06
-4.69616e-06
-1.21901e-06
-3.54616e-06
-2.31152e-06
-2.6766e-06
-1.75817e-06
-2.24553e-06
-8.74213e-07
-2.11136e-06
-2.77954e-07
-1.98927e-06
-2.30046e-07
-1.95158e-06
-4.23177e-08
-2.03807e-06
2.23932e-07
-1.97926e-06
-1.65531e-07
-1.63239e-06
-7.28181e-07
-8.47436e-07
-1.61091e-06
5.09347e-07
-2.74022e-06
2.46791e-06
-3.91827e-06
5.04493e-06
-5.14341e-06
8.22182e-06
-6.34882e-06
1.17872e-05
-7.13083e-06
1.54619e-05
-7.36323e-06
1.91146e-05
-7.32258e-06
2.26633e-05
-7.10599e-06
2.60273e-05
-6.73097e-06
2.91806e-05
-6.30188e-06
3.21515e-05
-5.93313e-06
3.49896e-05
-5.67241e-06
3.78508e-05
-5.72754e-06
4.06686e-05
-5.6222e-06
4.2611e-05
-3.84477e-06
4.69528e-05
-9.03233e-06
5.80109e-05
-2.22528e-05
6.65976e-05
-1.67954e-05
6.76129e-05
-1.91103e-06
6.75736e-05
7.46738e-08
-5.91809e-08
-1.5241e-06
4.75058e-06
-4.18299e-06
8.01116e-06
-5.21284e-06
3.1294e-06
-4.60325e-06
-1.82845e-06
-3.46697e-06
-3.44814e-06
-2.61827e-06
-2.60632e-06
-2.20121e-06
-1.29087e-06
-2.07105e-06
-4.07396e-07
-1.93415e-06
-3.62098e-07
-1.8785e-06
-9.23734e-08
-1.95558e-06
3.19795e-07
-1.90209e-06
-2.54004e-07
-1.58539e-06
-1.05456e-06
-8.38616e-07
-2.35683e-06
4.93565e-07
-4.06559e-06
2.44939e-06
-5.86773e-06
5.03409e-06
-7.72517e-06
8.21536e-06
-9.5297e-06
1.17817e-05
-1.06959e-05
1.54538e-05
-1.10386e-05
1.90977e-05
-1.09695e-05
2.26372e-05
-1.0644e-05
2.5998e-05
-1.0092e-05
2.91543e-05
-9.4582e-06
3.21316e-05
-8.91033e-06
3.49737e-05
-8.51599e-06
3.78307e-05
-8.58616e-06
4.0656e-05
-8.44639e-06
4.26264e-05
-5.80511e-06
4.66689e-05
-1.30799e-05
5.75864e-05
-3.31696e-05
6.64928e-05
-2.57039e-05
6.76193e-05
-3.03656e-06
6.7578e-05
1.15347e-07
-8.41338e-08
-1.45182e-06
6.20248e-06
-4.1004e-06
1.06598e-05
-5.10578e-06
4.13481e-06
-4.48164e-06
-2.45241e-06
-3.3578e-06
-4.5723e-06
-2.53337e-06
-3.43018e-06
-2.13197e-06
-1.69182e-06
-2.00548e-06
-5.33083e-07
-1.85528e-06
-5.07299e-07
-1.7856e-06
-1.5613e-07
-1.85521e-06
4.04407e-07
-1.80879e-06
-3.33543e-07
-1.52284e-06
-1.35163e-06
-8.1107e-07
-3.06776e-06
4.99882e-07
-5.36855e-06
2.45349e-06
-7.81333e-06
5.04559e-06
-1.03135e-05
8.23256e-06
-1.27162e-05
1.18046e-05
-1.42667e-05
1.54812e-05
-1.4719e-05
1.91211e-05
-1.46129e-05
2.26523e-05
-1.41734e-05
2.60087e-05
-1.34487e-05
2.91657e-05
-1.26152e-05
3.21471e-05
-1.18916e-05
3.49912e-05
-1.13618e-05
3.78421e-05
-1.14389e-05
4.06715e-05
-1.12745e-05
4.267e-05
-7.79319e-06
4.64582e-05
-1.68735e-05
5.72291e-05
-4.39399e-05
6.63933e-05
-3.48705e-05
6.76247e-05
-4.26689e-06
6.75823e-05
1.57082e-07
-1.0619e-07
-1.36909e-06
7.57163e-06
-4.00797e-06
1.32987e-05
-4.97784e-06
5.10469e-06
-4.32997e-06
-3.10013e-06
-3.21864e-06
-5.68393e-06
-2.42266e-06
-4.22563e-06
-2.03942e-06
-2.07469e-06
-1.9165e-06
-6.55328e-07
-1.75476e-06
-6.64536e-07
-1.67256e-06
-2.32785e-07
-1.73355e-06
4.78591e-07
-1.6952e-06
-4.03854e-07
-1.44074e-06
-1.61697e-06
-7.60225e-07
-3.74723e-06
5.35351e-07
-6.65633e-06
2.4899e-06
-9.75959e-06
5.09032e-06
-1.29097e-05
8.28424e-06
-1.59095e-05
1.18661e-05
-1.78468e-05
1.55532e-05
-1.84105e-05
1.91928e-05
-1.8256e-05
2.27154e-05
-1.76942e-05
2.60652e-05
-1.67987e-05
2.922e-05
-1.57701e-05
3.22026e-05
-1.4874e-05
3.50462e-05
-1.42072e-05
3.7889e-05
-1.42835e-05
4.07184e-05
-1.41026e-05
4.27445e-05
-9.80854e-06
4.63169e-05
-2.04516e-05
5.69332e-05
-5.45556e-05
6.62986e-05
-4.42382e-05
6.7629e-05
-5.59637e-06
6.75865e-05
1.99033e-07
-1.25508e-07
-1.27536e-06
8.84707e-06
-3.90456e-06
1.59279e-05
-4.82601e-06
6.02616e-06
-4.14594e-06
-3.77999e-06
-3.04855e-06
-6.78162e-06
-2.28598e-06
-4.98762e-06
-1.92397e-06
-2.43626e-06
-1.8047e-06
-7.73762e-07
-1.63337e-06
-8.30949e-07
-1.53881e-06
-3.21239e-07
-1.58832e-06
5.38203e-07
-1.55834e-06
-4.65234e-07
-1.33593e-06
-1.85222e-06
-6.82177e-07
-4.40003e-06
6.06862e-07
-7.93615e-06
2.57075e-06
-1.17131e-05
5.18503e-06
-1.55186e-05
8.38906e-06
-1.91127e-05
1.19841e-05
-2.14399e-05
1.56856e-05
-2.21174e-05
1.9326e-05
-2.19008e-05
2.28379e-05
-2.1204e-05
2.61774e-05
-2.01384e-05
2.9326e-05
-1.89188e-05
3.2306e-05
-1.78537e-05
3.5146e-05
-1.70493e-05
3.79774e-05
-1.7117e-05
4.08016e-05
-1.69253e-05
4.28541e-05
-1.18492e-05
4.62404e-05
-2.38444e-05
5.66909e-05
-6.50055e-05
6.62083e-05
-5.37581e-05
6.76323e-05
-7.01935e-06
6.75905e-05
2.40159e-07
-1.42268e-07
-1.17005e-06
1.00172e-05
-3.78863e-06
1.85465e-05
-4.64629e-06
6.88382e-06
-3.92589e-06
-4.50022e-06
-2.84543e-06
-7.86238e-06
-2.12191e-06
-5.71057e-06
-1.7847e-06
-2.77313e-06
-1.66927e-06
-8.88478e-07
-1.49013e-06
-1.00566e-06
-1.38259e-06
-4.2288e-07
-1.41691e-06
5.80034e-07
-1.39488e-06
-5.16258e-07
-1.2046e-06
-2.05485e-06
-5.72914e-07
-5.03048e-06
7.20222e-07
-9.22056e-06
2.70795e-06
-1.36905e-05
5.35042e-06
-1.81556e-05
8.57421e-06
-2.23356e-05
1.2187e-05
-2.50499e-05
1.59038e-05
-2.58408e-05
1.95426e-05
-2.55445e-05
2.30385e-05
-2.46974e-05
2.63611e-05
-2.34613e-05
2.94975e-05
-2.20552e-05
3.24694e-05
-2.08255e-05
3.53014e-05
-1.98836e-05
3.81171e-05
-1.9935e-05
4.09292e-05
-1.97356e-05
4.30051e-05
-1.39125e-05
4.62266e-05
-2.70727e-05
5.64962e-05
-7.52745e-05
6.6122e-05
-6.33864e-05
6.76345e-05
-8.53101e-06
6.75944e-05
2.79657e-07
-1.56657e-07
-1.05254e-06
1.10698e-05
-3.65828e-06
2.11523e-05
-4.4338e-06
7.65936e-06
-3.66527e-06
-5.26853e-06
-2.60668e-06
-8.92125e-06
-1.92819e-06
-6.38843e-06
-1.61954e-06
-3.08132e-06
-1.50808e-06
-9.99019e-07
-1.32245e-06
-1.18618e-06
-1.20049e-06
-5.38116e-07
-1.21516e-06
5.99966e-07
-1.19966e-06
-5.62038e-07
-1.04074e-06
-2.22887e-06
-4.26393e-07
-5.6437e-06
8.82205e-07
-1.05184e-05
2.91347e-06
-1.57088e-05
5.60992e-06
-2.08449e-05
8.87591e-06
-2.56004e-05
1.25169e-05
-2.86878e-05
1.62478e-05
-2.95804e-05
1.98775e-05