/*--------------------------------*- C++ -*----------------------------------*\
| =========                 |                                                 |
| \\      /  F ield         | OpenFOAM: The Open Source CFD Toolbox           |
|  \\    /   O peration     | Version:  v1912                                 |
|   \\  /    A nd           | Website:  www.openfoam.com                      |
|    \\/     M anipulation  |                                                 |
\*---------------------------------------------------------------------------*/
FoamFile
{
    version     2.0;
    format      ascii;
    class       volVectorField;
    location    "400";
    object      U;
}
// * * * * * * * * * * * * * * * * * * * * * * * * * * * * * * * * * * * * * //

dimensions      [0 1 -1 0 0 0 0];


internalField   nonuniform List<vector> 
12441
(
(29.9988 1.70317e-05 0)
(29.9854 5.16049e-05 0)
(29.9564 8.91764e-05 0)
(29.9122 0.000137204 0)
(29.8544 0.000200362 0)
(29.7804 0.000284747 0)
(29.6889 0.000396942 0)
(29.574 0.000561506 0)
(29.4311 0.000779928 0)
(29.2533 0.00109234 0)
(29.0341 0.00151985 0)
(28.7623 0.00213876 0)
(28.4059 0.00295548 0)
(27.9795 0.00450019 0)
(27.4201 0.00625112 0)
(26.6348 0.0112064 0)
(25.5882 0.0150076 0)
(23.9321 0.0313099 0)
(21.597 0.0526521 0)
(17.9208 0.0911668 0)
(12.14 0.122319 0)
(5.82661 0.197057 0)
(29.9988 5.06383e-05 0)
(29.9853 0.000154295 0)
(29.9563 0.000265966 0)
(29.9122 0.000409177 0)
(29.8544 0.000597851 0)
(29.7804 0.000849776 0)
(29.689 0.00118666 0)
(29.574 0.00168008 0)
(29.4311 0.00233112 0)
(29.2532 0.00326575 0)
(29.0345 0.0045515 0)
(28.7636 0.00640924 0)
(28.4031 0.00883865 0)
(27.9779 0.0134682 0)
(27.421 0.0188068 0)
(26.6358 0.0334129 0)
(25.5899 0.0476722 0)
(23.9323 0.0898171 0)
(21.5968 0.137518 0)
(17.9188 0.263791 0)
(12.141 0.359386 0)
(5.83034 0.588517 0)
(29.9989 8.41389e-05 0)
(29.9853 0.000257057 0)
(29.9563 0.000441941 0)
(29.9121 0.000679893 0)
(29.8544 0.000993705 0)
(29.7804 0.00141413 0)
(29.689 0.00197408 0)
(29.574 0.00279661 0)
(29.4311 0.00388135 0)
(29.2532 0.00543642 0)
(29.0346 0.00758195 0)
(28.7638 0.0106676 0)
(28.4031 0.0147545 0)
(27.9803 0.0224103 0)
(27.4218 0.0313902 0)
(26.6372 0.0547977 0)
(25.5916 0.0810246 0)
(23.9372 0.146552 0)
(21.6001 0.219878 0)
(17.9183 0.434076 0)
(12.1468 0.592974 0)
(5.8385 0.978019 0)
(29.9988 0.00011807 0)
(29.9853 0.000360537 0)
(29.9563 0.000618771 0)
(29.9122 0.000951899 0)
(29.8544 0.00139132 0)
(29.7804 0.00198043 0)
(29.689 0.00276428 0)
(29.5741 0.00391674 0)
(29.4312 0.00543526 0)
(29.2533 0.00761229 0)
(29.0347 0.01062 0)
(28.7638 0.0149346 0)
(28.4035 0.0206737 0)
(27.978 0.0313769 0)
(27.4213 0.0439923 0)
(26.6364 0.0762355 0)
(25.5932 0.113636 0)
(23.9421 0.206272 0)
(21.6086 0.326978 0)
(17.9228 0.612393 0)
(12.1591 0.830525 0)
(5.8514 1.36918 0)
(29.9988 0.000152059 0)
(29.9853 0.00046387 0)
(29.9564 0.0007954 0)
(29.9122 0.00122369 0)
(29.8544 0.00178857 0)
(29.7804 0.00254616 0)
(29.689 0.00355381 0)
(29.5741 0.00503594 0)
(29.4312 0.00698813 0)
(29.2533 0.00978681 0)
(29.0347 0.0136562 0)
(28.7638 0.0192004 0)
(28.4034 0.0265929 0)
(27.9808 0.0403453 0)
(27.4223 0.0566226 0)
(26.638 0.0974321 0)
(25.596 0.145752 0)
(23.9467 0.26675 0)
(21.6197 0.416895 0)
(17.9332 0.786896 0)
(12.1791 1.06786 0)
(5.86934 1.76163 0)
(29.9988 0.000186042 0)
(29.9853 0.000567119 0)
(29.9564 0.000972004 0)
(29.9122 0.00149549 0)
(29.8545 0.00218578 0)
(29.7805 0.00311191 0)
(29.6891 0.00434342 0)
(29.5742 0.00615523 0)
(29.4313 0.00854112 0)
(29.2534 0.0119616 0)
(29.0348 0.0166927 0)
(28.764 0.0234678 0)
(28.4043 0.0325137 0)
(27.9781 0.0492953 0)
(27.4223 0.0692555 0)
(26.6376 0.118518 0)
(25.5981 0.1776 0)
(23.9509 0.326681 0)
(21.6325 0.505251 0)
(17.9502 0.960088 0)
(12.2085 1.30488 0)
(5.8927 2.15517 0)
(29.9988 0.000220018 0)
(29.9853 0.000670313 0)
(29.9564 0.0011486 0)
(29.9122 0.0017673 0)
(29.8544 0.00258294 0)
(29.7805 0.00367762 0)
(29.6891 0.00513302 0)
(29.5741 0.00727443 0)
(29.4313 0.0100941 0)
(29.2535 0.0141365 0)
(29.0348 0.019729 0)
(28.7639 0.027734 0)
(28.404 0.0384373 0)
(27.9816 0.0582427 0)
(27.4234 0.0818831 0)
(26.6396 0.139456 0)
(25.6019 0.208753 0)
(23.9553 0.384096 0)
(21.6498 0.595749 0)
(17.977 1.13338 0)
(12.2498 1.542 0)
(5.922 2.55013 0)
(29.9988 0.000253991 0)
(29.9853 0.000773465 0)
(29.9564 0.00132517 0)
(29.9122 0.00203909 0)
(29.8545 0.00298001 0)
(29.7805 0.00424326 0)
(29.6892 0.00592256 0)
(29.5742 0.00839352 0)
(29.4314 0.0116469 0)
(29.2536 0.0163111 0)
(29.035 0.0227651 0)
(28.7643 0.0319993 0)
(28.4055 0.0443651 0)
(27.9784 0.0671555 0)
(27.4234 0.0943449 0)
(26.6387 0.160018 0)
(25.6066 0.241461 0)
(23.961 0.44346 0)
(21.6799 0.687322 0)
(18.0204 1.30617 0)
(12.3061 1.77943 0)
(5.95781 2.94697 0)
(29.9988 0.000287961 0)
(29.9853 0.000876569 0)
(29.9564 0.00150172 0)
(29.9122 0.00231087 0)
(29.8545 0.00337703 0)
(29.7805 0.00480887 0)
(29.6891 0.00671208 0)
(29.5742 0.00951253 0)
(29.4314 0.0131997 0)
(29.2536 0.0184859 0)
(29.035 0.0258011 0)
(28.764 0.0362663 0)
(28.4044 0.0502831 0)
(27.9832 0.0761775 0)
(27.4258 0.106928 0)
(26.639 0.18099 0)
(25.6151 0.272619 0)
(23.9724 0.502248 0)
(21.7345 0.778585 0)
(18.0879 1.47813 0)
(12.3807 2.01744 0)
(6.0008 3.34621 0)
(29.9988 0.000321926 0)
(29.9853 0.000979631 0)
(29.9564 0.00167827 0)
(29.9122 0.00258263 0)
(29.8545 0.00377397 0)
(29.7806 0.0053744 0)
(29.6892 0.00750154 0)
(29.5743 0.0106314 0)
(29.4315 0.0147523 0)
(29.2538 0.0206603 0)
(29.0353 0.0288357 0)
(28.7649 0.0405304 0)
(28.4071 0.0562261 0)
(27.9805 0.0849515 0)
(27.4258 0.120167 0)
(26.6365 0.202295 0)
(25.6282 0.30431 0)
(23.9976 0.559125 0)
(21.8152 0.869556 0)
(18.1821 1.64956 0)
(12.4763 2.25644 0)
(6.05162 3.74844 0)
(29.9988 0.000355887 0)
(29.9853 0.00108265 0)
(29.9564 0.0018548 0)
(29.9122 0.00285439 0)
(29.8545 0.00417085 0)
(29.7806 0.0059399 0)
(29.6892 0.00829096 0)
(29.5743 0.0117503 0)
(29.4315 0.0163048 0)
(29.2538 0.0228347 0)
(29.0353 0.0318712 0)
(28.7642 0.0447939 0)
(28.4045 0.0622142 0)
(27.9819 0.0937019 0)
(27.425 0.132742 0)
(26.6355 0.222507 0)
(25.6455 0.336959 0)
(24.038 0.615227 0)
(21.9073 0.96032 0)
(18.2966 1.82041 0)
(12.5931 2.49676 0)
(6.11092 4.15427 0)
(29.9988 0.000389842 0)
(29.9853 0.00118562 0)
(29.9564 0.00203133 0)
(29.9122 0.00312613 0)
(29.8546 0.00456766 0)
(29.7807 0.00650532 0)
(29.6893 0.00908032 0)
(29.5744 0.0128689 0)
(29.4317 0.0178572 0)
(29.254 0.0250077 0)
(29.0357 0.0349077 0)
(28.7654 0.0490533 0)
(28.4091 0.0681972 0)
(27.9787 0.10265 0)
(27.4223 0.146262 0)
(26.6365 0.242984 0)
(25.6622 0.369344 0)
(24.0818 0.669586 0)
(21.993 1.0501 0)
(18.4198 1.99014 0)
(12.7294 2.73854 0)
(6.17921 4.56436 0)
(29.9988 0.00042379 0)
(29.9853 0.00128855 0)
(29.9564 0.00220787 0)
(29.9122 0.00339786 0)
(29.8545 0.00496442 0)
(29.7806 0.0070707 0)
(29.6893 0.00986962 0)
(29.5744 0.0139876 0)
(29.4317 0.0194094 0)
(29.254 0.0271808 0)
(29.0358 0.037937 0)
(28.7652 0.0533636 0)
(28.4102 0.0741425 0)
(27.9768 0.111689 0)
(27.42 0.160015 0)
(26.639 0.262981 0)
(25.6751 0.401151 0)
(24.1186 0.722003 0)
(22.0641 1.13849 0)
(18.5415 2.15815 0)
(12.8816 2.98162 0)
(6.25674 4.9793 0)
(29.9988 0.000457731 0)
(29.9853 0.00139144 0)
(29.9564 0.00238441 0)
(29.9123 0.00366957 0)
(29.8546 0.00536112 0)
(29.7807 0.00763601 0)
(29.6894 0.0106589 0)
(29.5746 0.0151061 0)
(29.4318 0.0209615 0)
(29.2542 0.0293544 0)
(29.036 0.0409814 0)
(28.7663 0.0576771 0)
(28.4163 0.0805455 0)
(27.9737 0.120776 0)
(27.4188 0.173301 0)
(26.6415 0.282348 0)
(25.6837 0.432408 0)
(24.1459 0.772898 0)
(22.1209 1.22552 0)
(18.6554 2.32401 0)
(13.0453 3.22571 0)
(6.34351 5.3996 0)
(29.9988 0.000491663 0)
(29.9854 0.00149429 0)
(29.9564 0.00256096 0)
(29.9122 0.00394128 0)
(29.8546 0.00575777 0)
(29.7807 0.00820127 0)
(29.6893 0.011448 0)
(29.5745 0.0162246 0)
(29.4318 0.0225137 0)
(29.2542 0.0315263 0)
(29.0358 0.0440403 0)
(28.7664 0.0618815 0)
(28.4165 0.0869077 0)
(27.9713 0.129656 0)
(27.4182 0.18643 0)
(26.6436 0.301492 0)
(25.6891 0.463383 0)
(24.1654 0.822767 0)
(22.1663 1.31129 0)
(18.7588 2.48746 0)
(13.2167 3.4704 0)
(6.43927 5.82568 0)
(29.9988 0.000525586 0)
(29.9854 0.0015971 0)
(29.9564 0.00273753 0)
(29.9123 0.00421297 0)
(29.8546 0.00615436 0)
(29.7808 0.00876646 0)
(29.6894 0.0122371 0)
(29.5747 0.0173431 0)
(29.4319 0.0240649 0)
(29.2544 0.0337044 0)
(29.0355 0.0471043 0)
(28.7659 0.0662187 0)
(28.4157 0.0932593 0)
(27.9695 0.138369 0)
(27.418 0.199448 0)
(26.6451 0.320583 0)
(25.6923 0.494217 0)
(24.1791 0.871958 0)
(22.2036 1.39592 0)
(18.8516 2.64835 0)
(13.3925 3.71526 0)
(6.54358 6.25788 0)
(29.9988 0.000559499 0)
(29.9854 0.00169986 0)
(29.9564 0.00291412 0)
(29.9123 0.00448465 0)
(29.8546 0.00655091 0)
(29.7807 0.0093316 0)
(29.6894 0.013026 0)
(29.5747 0.0184613 0)
(29.4319 0.025617 0)
(29.2543 0.0358809 0)
(29.0352 0.0502349 0)
(28.764 0.0706001 0)
(28.4139 0.0994861 0)
(27.9685 0.147065 0)
(27.4179 0.21247 0)
(26.6464 0.339663 0)
(25.6941 0.524961 0)
(24.189 0.920659 0)
(22.2353 1.47947 0)
(18.9349 2.80655 0)
(13.5705 3.95989 0)
(6.65593 6.69647 0)
(29.9988 0.000593401 0)
(29.9854 0.00180258 0)
(29.9564 0.00309073 0)
(29.9123 0.00475631 0)
(29.8546 0.00694742 0)
(29.7808 0.00989665 0)
(29.6895 0.0138149 0)
(29.5748 0.0195792 0)
(29.4321 0.0271699 0)
(29.2544 0.0380538 0)
(29.0354 0.0533892 0)
(28.7613 0.0750287 0)
(28.4125 0.105639 0)
(27.9679 0.155737 0)
(27.4178 0.225493 0)
(26.6474 0.358747 0)
(25.6948 0.55564 0)
(24.1963 0.968977 0)
(22.2634 1.56202 0)
(19.0102 2.96201 0)
(13.7491 4.20395 0)
(6.77577 7.14166 0)
(29.9988 0.000627293 0)
(29.9854 0.00190526 0)
(29.9564 0.00326736 0)
(29.9123 0.00502797 0)
(29.8546 0.00734387 0)
(29.7808 0.0104616 0)
(29.6894 0.0146037 0)
(29.5748 0.0206969 0)
(29.4322 0.0287227 0)
(29.2543 0.0402371 0)
(29.0357 0.0565338 0)
(28.759 0.0793344 0)
(28.4115 0.111766 0)
(27.9677 0.164423 0)
(27.4179 0.238528 0)
(26.6483 0.377834 0)
(25.695 0.586268 0)
(24.2021 1.01697 0)
(22.2895 1.64363 0)
(19.0792 3.11468 0)
(13.9277 4.44712 0)
(6.90261 7.59364 0)
(29.9988 0.000661173 0)
(29.9854 0.0020079 0)
(29.9564 0.00344401 0)
(29.9123 0.00529961 0)
(29.8547 0.00774028 0)
(29.7809 0.0110265 0)
(29.6896 0.0153925 0)
(29.5749 0.0218143 0)
(29.4324 0.030277 0)
(29.2545 0.0424291 0)
(29.036 0.0597343 0)
(28.7573 0.0835541 0)
(28.4109 0.11789 0)
(27.9676 0.173113 0)
(27.418 0.251561 0)
(26.6492 0.396928 0)
(25.695 0.616856 0)
(24.2071 1.06467 0)
(22.3148 1.72433 0)
(19.1434 3.26454 0)
(14.1062 4.68913 0)
(7.036 8.05256 0)
(29.9988 0.000695042 0)
(29.9854 0.0021105 0)
(29.9565 0.00362069 0)
(29.9123 0.00557124 0)
(29.8546 0.00813665 0)
(29.7808 0.0115914 0)
(29.6895 0.0161812 0)
(29.5749 0.0229313 0)
(29.4323 0.031831 0)
(29.2548 0.0446365 0)
(29.0355 0.0629453 0)
(28.7562 0.087768 0)
(28.4106 0.124015 0)
(27.9677 0.181812 0)
(27.4181 0.264593 0)
(26.6501 0.41603 0)
(25.6951 0.647416 0)
(24.212 1.11207 0)
(22.3399 1.80415 0)
(19.2042 3.4116 0)
(14.2849 4.92974 0)
(7.17561 8.51858 0)
(29.9988 0.000728899 0)
(29.9854 0.00221306 0)
(29.9565 0.00379739 0)
(29.9123 0.00584285 0)
(29.8547 0.00853297 0)
(29.7809 0.0121561 0)
(29.6897 0.0169697 0)
(29.5751 0.0240486 0)
(29.4325 0.0333807 0)
(29.2554 0.046902 0)
(29.0345 0.0661203 0)
(28.7555 0.0919973 0)
(28.4104 0.130148 0)
(27.9679 0.190512 0)
(27.4184 0.27762 0)
(26.6511 0.435141 0)
(25.6954 0.677955 0)
(24.2171 1.15916 0)
(22.3656 1.8831 0)
(19.2628 3.55584 0)
(14.4644 5.16877 0)
(7.32117 8.99186 0)
(29.9988 0.000762744 0)
(29.9854 0.00231557 0)
(29.9565 0.00397412 0)
(29.9123 0.00611445 0)
(29.8546 0.00892924 0)
(29.7809 0.0127209 0)
(29.6896 0.017758 0)
(29.5751 0.0251659 0)
(29.4324 0.0349284 0)
(29.2559 0.0492092 0)
(29.0334 0.0692683 0)
(28.7551 0.0962574 0)
(28.4103 0.136283 0)
(27.9682 0.199213 0)
(27.4188 0.290642 0)
(26.6524 0.454258 0)
(25.6964 0.708474 0)
(24.2229 1.20588 0)
(22.3921 1.96122 0)
(19.3204 3.69727 0)
(14.6456 5.40605 0)
(7.47253 9.47256 0)
(29.9988 0.000796577 0)
(29.9854 0.00241805 0)
(29.9565 0.00415088 0)
(29.9123 0.00638603 0)
(29.8547 0.00932546 0)
(29.781 0.0132855 0)
(29.6897 0.0185463 0)
(29.5753 0.0262832 0)
(29.4326 0.0364729 0)
(29.2562 0.0515443 0)
(29.0326 0.0723183 0)
(28.7549 0.100538 0)
(28.4104 0.142422 0)
(27.9685 0.207911 0)
(27.4193 0.303658 0)
(26.6539 0.473377 0)
(25.6982 0.738961 0)
(24.2295 1.25222 0)
(22.4196 2.03852 0)
(19.3777 3.83587 0)
(14.8295 5.64145 0)
(7.62965 9.96087 0)
(29.9988 0.000830397 0)
(29.9854 0.00252048 0)
(29.9565 0.00432766 0)
(29.9123 0.0066576 0)
(29.8547 0.00972162 0)
(29.781 0.0138501 0)
(29.6897 0.0193342 0)
(29.5752 0.0274006 0)
(29.4327 0.0380142 0)
(29.2562 0.053859 0)
(29.0321 0.0752985 0)
(28.7548 0.104832 0)
(28.4105 0.148559 0)
(27.9689 0.216606 0)
(27.42 0.316666 0)
(26.6558 0.49249 0)
(25.701 0.769392 0)
(24.2371 1.29817 0)
(22.4481 2.11502 0)
(19.4356 3.97161 0)
(15.0173 5.87483 0)
(7.79256 10.457 0)
(29.9988 0.000864204 0)
(29.9854 0.00262288 0)
(29.9565 0.00450446 0)
(29.9124 0.00692914 0)
(29.8548 0.0101178 0)
(29.7811 0.0144145 0)
(29.6898 0.0201223 0)
(29.5754 0.0285164 0)
(29.433 0.039571 0)
(29.256 0.0561528 0)
(29.0318 0.0782493 0)
(28.7548 0.109132 0)
(28.4107 0.154695 0)
(27.9695 0.225298 0)
(27.4209 0.329663 0)
(26.6582 0.511583 0)
(25.7048 0.79974 0)
(24.2457 1.34372 0)
(22.4777 2.19071 0)
(19.4944 4.10442 0)
(15.2103 6.10612 0)
(7.9614 10.9612 0)
(29.9988 0.000897999 0)
(29.9855 0.00272523 0)
(29.9565 0.0046813 0)
(29.9123 0.00720066 0)
(29.8547 0.0105138 0)
(29.781 0.0149788 0)
(29.6898 0.0209105 0)
(29.5753 0.029633 0)
(29.4333 0.0411362 0)
(29.2553 0.0585421 0)
(29.0318 0.0812081 0)
(28.7549 0.113436 0)
(28.4109 0.160828 0)
(27.9701 0.233984 0)
(27.422 0.342642 0)
(26.661 0.530641 0)
(25.7098 0.829989 0)
(24.2554 1.38889 0)
(22.5083 2.26561 0)
(19.5547 4.23423 0)
(15.4097 6.3352 0)
(8.13636 11.4737 0)
(29.9988 0.000931781 0)
(29.9854 0.00282754 0)
(29.9565 0.00485815 0)
(29.9124 0.00747216 0)
(29.8548 0.0109099 0)
(29.7811 0.015543 0)
(29.69 0.0216983 0)
(29.5754 0.0307487 0)
(29.4338 0.0427116 0)
(29.2546 0.0608906 0)
(29.0318 0.0841929 0)
(28.755 0.117741 0)
(28.4112 0.166958 0)
(27.9707 0.242664 0)
(27.4234 0.355599 0)
(26.6643 0.549649 0)
(25.7157 0.860133 0)
(24.2663 1.43369 0)
(22.5397 2.3397 0)
(19.6167 4.36092 0)
(15.6166 6.562 0)
(8.31772 11.9948 0)
(29.9988 0.00096555 0)
(29.9855 0.00292982 0)
(29.9565 0.00503503 0)
(29.9124 0.00774363 0)
(29.8547 0.0113059 0)
(29.7811 0.016107 0)
(29.6899 0.0224868 0)
(29.5753 0.0318598 0)
(29.434 0.0443411 0)
(29.2538 0.0630944 0)
(29.0319 0.0872061 0)
(28.7552 0.122046 0)
(28.4116 0.173084 0)
(27.9715 0.251334 0)
(27.425 0.368527 0)
(26.6681 0.568598 0)
(25.7227 0.89017 0)
(24.2784 1.47813 0)
(22.572 2.41299 0)
(19.6803 4.48434 0)
(15.8321 6.78643 0)
(8.5058 12.5249 0)
(29.9988 0.000999307 0)
(29.9855 0.00303205 0)
(29.9565 0.00521193 0)
(29.9124 0.00801507 0)
(29.8548 0.0117019 0)
(29.7812 0.0166709 0)
(29.6901 0.0232753 0)
(29.5755 0.0329703 0)
(29.4344 0.0459932 0)
(29.2533 0.0652716 0)
(29.0321 0.0902402 0)
(28.7555 0.12635 0)
(28.4119 0.179205 0)
(27.9724 0.259992 0)
(27.4268 0.381423 0)
(26.6723 0.587479 0)
(25.7306 0.920097 0)
(24.2917 1.52221 0)
(22.6051 2.48545 0)
(19.7456 4.60435 0)
(16.057 7.0084 0)
(8.70094 13.0642 0)
(29.9988 0.00103305 0)
(29.9855 0.00313424 0)
(29.9565 0.00538886 0)
(29.9124 0.00828649 0)
(29.8548 0.0120978 0)
(29.7812 0.0172346 0)
(29.69 0.0240635 0)
(29.5755 0.0340805 0)
(29.4346 0.047654 0)
(29.253 0.067439 0)
(29.0323 0.0932868 0)
(28.7557 0.130654 0)
(28.4124 0.185321 0)
(27.9734 0.268637 0)
(27.4289 0.39428 0)
(26.677 0.606287 0)
(25.7393 0.949905 0)
(24.3064 1.56592 0)
(22.6391 2.55708 0)
(19.8124 4.72076 0)
(16.2917 7.22781 0)
(8.90351 13.6133 0)
(29.9988 0.00106678 0)
(29.9855 0.0032364 0)
(29.9565 0.0055658 0)
(29.9124 0.00855788 0)
(29.8549 0.0124937 0)
(29.7813 0.0177982 0)
(29.6902 0.0248517 0)
(29.5757 0.0351902 0)
(29.4348 0.0493235 0)
(29.2531 0.0695848 0)
(29.0326 0.0963409 0)
(28.756 0.134956 0)
(28.4129 0.191432 0)
(27.9744 0.277266 0)
(27.4312 0.407099 0)
(26.682 0.625016 0)
(25.7488 0.979582 0)
(24.3225 1.60928 0)
(22.674 2.6279 0)
(19.8806 4.83342 0)
(16.5363 7.44455 0)
(9.11384 14.1723 0)
(29.9988 0.00110051 0)
(29.9855 0.00333852 0)
(29.9565 0.00574276 0)
(29.9124 0.00882924 0)
(29.8548 0.0128895 0)
(29.7812 0.0183617 0)
(29.6901 0.0256396 0)
(29.5757 0.0363 0)
(29.4346 0.0509975 0)
(29.2534 0.0717156 0)
(29.0329 0.0994001 0)
(28.7563 0.139257 0)
(28.4134 0.197536 0)
(27.9756 0.285878 0)
(27.4337 0.419875 0)
(26.6873 0.643661 0)
(25.7591 1.00911 0)
(24.34 1.65226 0)
(22.7099 2.69789 0)
(19.9499 4.94214 0)
(16.7907 7.65849 0)
(9.33226 14.7419 0)
(29.9988 0.00113421 0)
(29.9855 0.0034406 0)
(29.9565 0.00591974 0)
(29.9125 0.00910057 0)
(29.8549 0.0132853 0)
(29.7814 0.0189252 0)
(29.6903 0.0264268 0)
(29.576 0.0374103 0)
(29.4346 0.0526738 0)
(29.2539 0.0738335 0)
(29.0332 0.102463 0)
(28.7567 0.143557 0)
(28.414 0.203634 0)
(27.9768 0.294472 0)
(27.4363 0.432607 0)
(26.693 0.662214 0)
(25.7702 1.03849 0)
(24.3589 1.69489 0)
(22.7469 2.76706 0)
(20.0204 5.04677 0)
(17.0548 7.86951 0)
(9.55907 15.3223 0)
(29.9988 0.00116791 0)
(29.9855 0.00354265 0)
(29.9565 0.00609673 0)
(29.9124 0.00937189 0)
(29.8548 0.0136809 0)
(29.7813 0.0194887 0)
(29.6902 0.0272136 0)
(29.5761 0.038517 0)
(29.4343 0.0543493 0)
(29.2545 0.0759422 0)
(29.0336 0.10553 0)
(28.7571 0.147855 0)
(28.4146 0.209724 0)
(27.9781 0.303047 0)
(27.4391 0.445293 0)
(26.699 0.68067 0)
(25.782 1.06769 0)
(24.3793 1.73714 0)
(22.7851 2.83542 0)
(20.0922 5.14715 0)
(17.3282 8.07747 0)
(9.79452 15.9139 0)
(29.9988 0.0012016 0)
(29.9855 0.00364467 0)
(29.9565 0.00627374 0)
(29.9125 0.00964313 0)
(29.855 0.0140766 0)
(29.7815 0.0200515 0)
(29.6904 0.028003 0)
(29.5764 0.0396204 0)
(29.4341 0.0559488 0)
(29.2551 0.0780425 0)
(29.034 0.108599 0)
(28.7575 0.152152 0)
(28.4152 0.215807 0)
(27.9795 0.311601 0)
(27.4421 0.45793 0)
(26.7053 0.699022 0)
(25.7945 1.0967 0)
(24.4011 1.77901 0)
(22.8247 2.90296 0)
(20.1654 5.24314 0)
(17.6107 8.28222 0)
(10.0389 16.5172 0)
(29.9988 0.00123528 0)
(29.9855 0.00374665 0)
(29.9565 0.00645074 0)
(29.9125 0.0099144 0)
(29.8549 0.0144719 0)
(29.7814 0.0206158 0)
(29.6902 0.0287836 0)
(29.5766 0.0407772 0)
(29.4335 0.0573295 0)
(29.2557 0.080146 0)
(29.0344 0.111671 0)
(28.7579 0.156446 0)
(28.4159 0.221882 0)
(27.9809 0.320134 0)
(27.4452 0.470518 0)
(26.7118 0.717264 0)
(25.8077 1.12552 0)
(24.4244 1.8205 0)
(22.8659 2.96969 0)
(20.2402 5.3346 0)
(17.9025 8.48361 0)
(10.2923 17.1326 0)
(29.9988 0.00126895 0)
(29.9855 0.0038486 0)
(29.9565 0.00662775 0)
(29.9125 0.0101856 0)
(29.855 0.0148673 0)
(29.7816 0.0211785 0)
(29.6904 0.0295727 0)
(29.577 0.0418952 0)
(29.4332 0.059196 0)
(29.2563 0.0822825 0)
(29.0348 0.114744 0)
(28.7583 0.160739 0)
(28.4166 0.227949 0)
(27.9824 0.328645 0)
(27.4484 0.483054 0)
(26.7186 0.73539 0)
(25.8215 1.15411 0)
(24.4491 1.86158 0)
(22.9088 3.03561 0)
(20.3167 5.42141 0)
(18.2036 8.68149 0)
(10.5551 17.7605 0)
(29.9988 0.00130261 0)
(29.9855 0.0039505 0)
(29.9565 0.00680479 0)
(29.9125 0.0104567 0)
(29.8549 0.0152628 0)
(29.7815 0.0217409 0)
(29.6903 0.0303565 0)
(29.5769 0.0430619 0)
(29.4332 0.0609832 0)
(29.2568 0.084451 0)
(29.0352 0.117818 0)
(28.7588 0.165029 0)
(28.4173 0.234007 0)
(27.9839 0.337133 0)
(27.4518 0.495537 0)
(26.7256 0.753393 0)
(25.836 1.18247 0)
(24.4752 1.90224 0)
(22.9538 3.1007 0)
(20.3951 5.50341 0)
(18.5144 8.87571 0)
(10.8274 18.4014 0)
(29.9988 0.00133626 0)
(29.9855 0.00405236 0)
(29.9565 0.00698177 0)
(29.9125 0.010728 0)
(29.8551 0.0156572 0)
(29.7817 0.0223083 0)
(29.6906 0.0311201 0)
(29.577 0.0442498 0)
(29.4332 0.0624814 0)
(29.2572 0.0866316 0)
(29.0356 0.120893 0)
(28.7593 0.169317 0)
(28.4181 0.240056 0)
(27.9855 0.345597 0)
(27.4552 0.507963 0)
(26.7329 0.771269 0)
(25.8511 1.21059 0)
(24.5026 1.94246 0)
(23.0012 3.16497 0)
(20.4751 5.58047 0)
(18.8352 9.0661 0)
(11.1095 19.0556 0)
(29.9988 0.00136991 0)
(29.9855 0.00415421 0)
(29.9566 0.00715879 0)
(29.9125 0.0109989 0)
(29.855 0.0160531 0)
(29.7816 0.0228663 0)
(29.6907 0.0319448 0)
(29.5764 0.0451359 0)
(29.4332 0.0639179 0)
(29.2576 0.0888126 0)
(29.036 0.123968 0)
(28.7597 0.173602 0)
(28.4188 0.246095 0)
(27.9872 0.354037 0)
(27.4588 0.520332 0)
(26.7404 0.789012 0)
(25.8667 1.23844 0)
(24.5312 1.98222 0)
(23.0513 3.2284 0)
(20.5561 5.65246 0)
(19.1649 9.25254 0)
(11.4016 19.7235 0)
(29.9988 0.00140353 0)
(29.9855 0.00425607 0)
(29.9566 0.00733585 0)
(29.9126 0.01127 0)
(29.8552 0.0164481 0)
(29.7816 0.02343 0)
(29.6915 0.0327437 0)
(29.5741 0.0464622 0)
(29.4331 0.0653876 0)
(29.2579 0.0909913 0)
(29.0363 0.127041 0)
(28.7602 0.177884 0)
(28.4196 0.252125 0)
(27.9888 0.362451 0)
(27.4624 0.532642 0)
(26.7481 0.806616 0)
(25.8828 1.26603 0)
(24.5609 2.02147 0)
(23.1046 3.29102 0)
(20.6376 5.71929 0)
(19.5007 9.43503 0)
(11.704 20.4064 0)
(29.9988 0.00143699 0)
(29.9856 0.00435782 0)
(29.9566 0.00751306 0)
(29.9125 0.0115412 0)
(29.8551 0.0168439 0)
(29.7814 0.0239912 0)
(29.6918 0.0335585 0)
(29.5724 0.0478642 0)
(29.433 0.0668951 0)
(29.2581 0.0931708 0)
(29.0367 0.130113 0)
(28.7607 0.182164 0)
(28.4204 0.258144 0)
(27.9905 0.37084 0)
(27.4662 0.54489 0)
(26.7561 0.824078 0)
(25.8994 1.29333 0)
(24.5916 2.06017 0)
(23.1614 3.35284 0)
(20.7188 5.78094 0)
(19.8355 9.61326 0)
(12.0161 21.1118 0)
(29.9988 0.00146999 0)
(29.9855 0.0044588 0)
(29.9566 0.00768915 0)
(29.9126 0.0118108 0)
(29.8553 0.0172391 0)
(29.7816 0.0245422 0)
(29.6922 0.0344297 0)
(29.5718 0.0489888 0)
(29.4329 0.0684128 0)
(29.2582 0.0953474 0)
(29.037 0.133185 0)
(28.7612 0.186443 0)
(28.4212 0.264151 0)
(27.9922 0.379201 0)
(27.47 0.557075 0)
(26.7642 0.841392 0)
(25.9163 1.32033 0)
(24.6232 2.09825 0)
(23.2223 3.41387 0)
(20.7997 5.83748 0)
(20.158 9.78521 0)
(12.4243 21.861 0)
(-0.0459686 0.0169785 0)
(-1.45663 0.0254205 0)
(-2.38369 0.00920401 0)
(-2.34742 -0.00501694 0)
(-1.81927 -0.0086601 0)
(-1.33258 -0.0061277 0)
(-1.04196 -0.0028137 0)
(-0.951483 -0.000823217 0)
(-0.914994 -0.000556553 0)
(-0.848063 -1.52037e-05 0)
(-0.908891 0.000556417 0)
(-0.941201 -0.000366054 0)
(-0.857786 -0.00154019 0)
(-0.611977 -0.00306898 0)
(-0.11951 -0.00472483 0)
(0.62488 -0.00618439 0)
(1.6227 -0.00751339 0)
(2.89766 -0.00859832 0)
(4.42435 -0.00889373 0)
(6.04009 -0.00840952 0)
(7.66644 -0.00766163 0)
(9.2645 -0.00684106 0)
(10.7961 -0.00596944 0)
(12.2232 -0.00515319 0)
(13.5633 -0.00447854 0)
(14.8272 -0.00395894 0)
(16.054 -0.00370014 0)
(17.3503 -0.00333417 0)
(18.5178 -0.00209666 0)
(19.0121 -0.00489141 0)
(22.7667 -0.0105413 0)
(28.9628 -0.00694405 0)
(29.7728 -0.000694913 0)
(29.7177 2.50695e-05 0)
(29.7441 -2.18965e-05 0)
(-0.0255884 0.0499999 0)
(-1.43142 0.0759278 0)
(-2.3513 0.0275392 0)
(-2.31455 -0.0147308 0)
(-1.79115 -0.0257987 0)
(-1.31359 -0.0182058 0)
(-1.02965 -0.00840309 0)
(-0.945531 -0.00251244 0)
(-0.91117 -0.00184393 0)
(-0.833742 -0.000206612 0)
(-0.88459 0.00161302 0)
(-0.909322 -0.000969041 0)
(-0.829942 -0.00433843 0)
(-0.600588 -0.00889739 0)
(-0.127844 -0.0138837 0)
(0.60684 -0.0182412 0)
(1.60654 -0.022107 0)
(2.88469 -0.0252527 0)
(4.41135 -0.0262207 0)
(6.025 -0.0249662 0)
(7.64588 -0.0228871 0)
(9.23784 -0.0204981 0)
(10.7666 -0.0179087 0)
(12.1945 -0.0154661 0)
(13.5378 -0.0134367 0)
(14.8061 -0.0118615 0)
(16.0335 -0.0110714 0)
(17.3269 -0.010027 0)
(18.5074 -0.0063121 0)
(19.0123 -0.0140263 0)
(22.4403 -0.0313113 0)
(28.8661 -0.0215625 0)
(29.7761 -0.00219789 0)
(29.721 8.15153e-05 0)
(29.7447 -6.25523e-05 0)
(0.00106156 0.0818317 0)
(-1.40313 0.126136 0)
(-2.31463 0.0456072 0)
(-2.27305 -0.0244719 0)
(-1.75083 -0.0428393 0)
(-1.2847 -0.0300139 0)
(-1.00751 -0.0137651 0)
(-0.928828 -0.00401566 0)
(-0.89234 -0.00315992 0)
(-0.80363 -0.000631652 0)
(-0.85011 0.00251772 0)
(-0.870988 -0.00179787 0)
(-0.800804 -0.0070457 0)
(-0.589307 -0.0144094 0)
(-0.132153 -0.022718 0)
(0.597151 -0.0300769 0)
(1.60029 -0.0365048 0)
(2.88162 -0.0416457 0)
(4.40871 -0.0432659 0)
(6.0227 -0.0413239 0)
(7.64087 -0.0379861 0)
(9.22767 -0.0340517 0)
(10.7536 -0.0297996 0)
(12.1817 -0.0257743 0)
(13.5275 -0.0224131 0)
(14.7991 -0.0197842 0)
(16.0266 -0.0184359 0)
(17.316 -0.0167273 0)
(18.5076 -0.0105854 0)
(19.0262 -0.0225586 0)
(22.1651 -0.0520638 0)
(28.7751 -0.0366236 0)
(29.7786 -0.00391123 0)
(29.7242 0.00013946 0)
(29.7453 -9.85813e-05 0)
(0.0337152 0.112277 0)
(-1.37217 0.1762 0)
(-2.27268 0.0633788 0)
(-2.2203 -0.0343762 0)
(-1.69639 -0.0596619 0)
(-1.2436 -0.0415177 0)
(-0.974232 -0.0189563 0)
(-0.901351 -0.00550915 0)
(-0.862026 -0.00466581 0)
(-0.7642 -0.00120992 0)
(-0.807512 0.00335276 0)
(-0.825023 -0.00251438 0)
(-0.765195 -0.00950605 0)
(-0.570865 -0.0197197 0)
(-0.127126 -0.0315848 0)
(0.597608 -0.042205 0)
(1.60392 -0.0513164 0)
(2.88842 -0.0584317 0)
(4.41706 -0.0606027 0)
(6.0345 -0.0578326 0)
(7.65318 -0.0531093 0)
(9.2358 -0.047599 0)
(10.7586 -0.0416949 0)
(12.1861 -0.0360995 0)
(13.5332 -0.0314117 0)
(14.8071 -0.0277175 0)
(16.0339 -0.0257893 0)
(17.3185 -0.0234484 0)
(18.519 -0.014919 0)
(19.054 -0.0304973 0)
(21.9419 -0.0723575 0)
(28.6894 -0.0522778 0)
(29.7803 -0.0057923 0)
(29.7272 0.000200596 0)
(29.7459 -0.00013057 0)
(0.0727982 0.141147 0)
(-1.33865 0.226071 0)
(-2.22452 0.0806372 0)
(-2.15507 -0.0445729 0)
(-1.6279 -0.0762548 0)
(-1.19023 -0.0526325 0)
(-0.930584 -0.0239238 0)
(-0.863754 -0.00695933 0)
(-0.821195 -0.0063034 0)
(-0.716309 -0.00191362 0)
(-0.75561 0.004094 0)
(-0.769597 -0.00315691 0)
(-0.721254 -0.0117288 0)
(-0.543546 -0.0247891 0)
(-0.11035 -0.0403251 0)
(0.612004 -0.0543561 0)
(1.62212 -0.0662597 0)
(2.91001 -0.0753664 0)
(4.441 -0.0780686 0)
(6.06468 -0.0744201 0)
(7.68645 -0.0682346 0)
(9.2654 -0.0611155 0)
(10.7844 -0.053572 0)
(12.2099 -0.0464237 0)
(13.5571 -0.0404203 0)
(14.832 -0.0356562 0)
(16.0574 -0.0331276 0)
(17.3361 -0.0301768 0)
(18.5429 -0.0193141 0)
(19.0965 -0.0379586 0)
(21.7662 -0.0923504 0)
(28.6083 -0.0683357 0)
(29.7813 -0.007838 0)
(29.7302 0.000262696 0)
(29.7465 -0.00015869 0)
(0.118756 0.16822 0)
(-1.30257 0.275759 0)
(-2.16909 0.0971695 0)
(-2.0758 -0.0552069 0)
(-1.54493 -0.0926482 0)
(-1.12422 -0.063317 0)
(-0.876818 -0.0286425 0)
(-0.816169 -0.00836813 0)
(-0.770275 -0.00805485 0)
(-0.660182 -0.00273532 0)
(-0.693641 0.00471998 0)
(-0.703462 -0.00371737 0)
(-0.6676 -0.0136935 0)
(-0.505926 -0.0296146 0)
(-0.0797632 -0.0489257 0)
(0.644433 -0.0664536 0)
(1.66152 -0.0812062 0)
(2.95457 -0.0923262 0)
(4.48879 -0.0955887 0)
(6.12074 -0.0910647 0)
(7.74698 -0.0833591 0)
(9.32184 -0.0745908 0)
(10.8356 -0.065417 0)
(12.2574 -0.0567334 0)
(13.6029 -0.0494266 0)
(14.8772 -0.0435902 0)
(16.0999 -0.0404418 0)
(17.3711 -0.0368993 0)
(18.5811 -0.023769 0)
(19.1557 -0.0450134 0)
(21.6319 -0.112061 0)
(28.5317 -0.0846924 0)
(29.7815 -0.0100381 0)
(29.733 0.000324324 0)
(29.7472 -0.000183193 0)
(0.172001 0.193262 0)
(-1.26385 0.325259 0)
(-2.10506 0.112735 0)
(-1.98024 -0.0664261 0)
(-1.4465 -0.108831 0)
(-1.04472 -0.0735128 0)
(-0.812558 -0.033074 0)
(-0.758153 -0.00973293 0)
(-0.708988 -0.00989975 0)
(-0.595214 -0.00367792 0)
(-0.620639 0.0051962 0)
(-0.625283 -0.00419164 0)
(-0.602619 -0.0154048 0)
(-0.456292 -0.034246 0)
(-0.0335696 -0.0574758 0)
(0.698334 -0.078577 0)
(1.72929 -0.0961859 0)
(3.03328 -0.109305 0)
(4.57327 -0.113158 0)
(6.21469 -0.107771 0)
(7.84508 -0.0984793 0)
(9.41393 -0.0880093 0)
(10.9196 -0.077211 0)
(12.3348 -0.0670116 0)
(13.6762 -0.0584164 0)
(14.9477 -0.051509 0)
(16.166 -0.0477225 0)
(17.4277 -0.0436017 0)
(18.6367 -0.0282772 0)
(19.2343 -0.051717 0)
(21.534 -0.131461 0)
(28.4592 -0.101268 0)
(29.7809 -0.0123837 0)
(29.7357 0.000384121 0)
(29.7479 -0.000204336 0)
(0.232863 0.216031 0)
(-1.22232 0.374546 0)
(-2.03087 0.127043 0)
(-1.86565 -0.0783645 0)
(-1.33145 -0.124745 0)
(-0.950595 -0.0831389 0)
(-0.736931 -0.0371702 0)
(-0.688766 -0.0110509 0)
(-0.636405 -0.0118197 0)
(-0.520037 -0.00475131 0)
(-0.534953 0.00549305 0)
(-0.53301 -0.00459584 0)
(-0.5238 -0.0168754 0)
(-0.391933 -0.0387371 0)
(0.0307833 -0.0660832 0)
(0.777199 -0.0908731 0)
(1.83269 -0.111334 0)
(3.15978 -0.126377 0)
(4.71292 -0.130797 0)
(6.36519 -0.12454 0)
(7.99728 -0.113578 0)
(9.55585 -0.101342 0)
(11.0483 -0.0889237 0)
(12.4522 -0.0772321 0)
(13.7853 -0.0673693 0)
(15.0509 -0.0593978 0)
(16.2624 -0.0549567 0)
(17.5116 -0.0502646 0)
(18.7138 -0.0328297 0)
(19.3361 -0.0581054 0)
(21.4696 -0.150508 0)
(28.3907 -0.117995 0)
(29.7795 -0.0148668 0)
(29.7382 0.00044074 0)
(29.7486 -0.000222392 0)
(0.301528 0.236273 0)
(-1.17769 0.42356 0)
(-1.94464 0.139748 0)
(-1.72918 -0.0911418 0)
(-1.19889 -0.140294 0)
(-0.840771 -0.0921095 0)
(-0.648785 -0.0408813 0)
(-0.606698 -0.0123217 0)
(-0.55108 -0.0138034 0)
(-0.432637 -0.00597404 0)
(-0.434068 0.00556278 0)
(-0.423596 -0.00494636 0)
(-0.427438 -0.0181191 0)
(-0.308707 -0.0431275 0)
(0.11752 -0.0748382 0)
(0.886011 -0.103503 0)
(1.97996 -0.126862 0)
(3.34991 -0.143721 0)
(4.9326 -0.148587 0)
(6.6001 -0.141375 0)
(8.22967 -0.128624 0)
(9.77029 -0.114539 0)
(11.2405 -0.100504 0)
(12.6247 -0.0873528 0)
(13.9429 -0.0762535 0)
(15.1975 -0.0672348 0)
(16.3989 -0.0621258 0)
(17.6314 -0.0568602 0)
(18.8184 -0.0374112 0)
(19.4665 -0.0641987 0)
(21.4384 -0.169155 0)
(28.3263 -0.134805 0)
(29.7774 -0.0174794 0)
(29.7405 0.000492862 0)
(29.7493 -0.000237655 0)
(0.377973 0.253721 0)
(-1.12957 0.472204 0)
(-1.84422 0.150456 0)
(-1.56857 -0.104855 0)
(-1.04866 -0.155351 0)
(-0.714576 -0.10035 0)
(-0.546926 -0.0441652 0)
(-0.510422 -0.0135505 0)
(-0.45119 -0.0158489 0)
(-0.330464 -0.00737934 0)
(-0.314623 0.00535054 0)
(-0.292967 -0.00528232 0)
(-0.308547 -0.0191593 0)
(-0.200787 -0.0474555 0)
(0.233085 -0.0838223 0)
(1.0323 -0.116632 0)
(2.18166 -0.14304 0)
(3.62154 -0.161642 0)
(5.26214 -0.166722 0)
(6.95708 -0.158319 0)
(8.5806 -0.143574 0)
(10.092 -0.127525 0)
(11.5251 -0.111873 0)
(12.8755 -0.0973053 0)
(14.1675 -0.0850178 0)
(15.4029 -0.0749864 0)
(16.5891 -0.0692031 0)
(17.7994 -0.0633494 0)
(18.9592 -0.0419961 0)
(19.6327 -0.0700034 0)
(21.4434 -0.187344 0)
(28.2664 -0.15163 0)
(29.7746 -0.0202133 0)
(29.7427 0.000539185 0)
(29.75 -0.000250446 0)
(0.461887 0.268105 0)
(-1.07743 0.520331 0)
(-1.72723 0.158745 0)
(-1.38295 -0.119557 0)
(-0.881635 -0.169767 0)