/*--------------------------------*- C++ -*----------------------------------*\
| =========                 |                                                 |
| \\      /  F ield         | OpenFOAM: The Open Source CFD Toolbox           |
|  \\    /   O peration     | Version:  v1912                                 |
|   \\  /    A nd           | Website:  www.openfoam.com                      |
|    \\/     M anipulation  |                                                 |
\*---------------------------------------------------------------------------*/
FoamFile
{
    version     2.0;
    format      ascii;
    class       volScalarField;
    location    "400";
    object      yPlus;
}
// * * * * * * * * * * * * * * * * * * * * * * * * * * * * * * * * * * * * * //

dimensions      [0 0 0 0 0 0 0];


internalField   uniform 0;

boundaryField
{
    inlet
    {
        type            calculated;
        value           uniform 0;
    }
    outlet
    {
        type            calculated;
        value           uniform 0;
    }
    lowerSymmetry
    {
        type            symmetryPlane;
    }
    obstical
    {
        type            calculated;
        value           nonuniform List<scalar> 
88
(
480.424
482.631
487.032
493.608
502.295
513.004
525.645
540.13
556.372
574.289
593.803
614.839
637.313
661.134
686.208
712.441
739.743
768.033
797.24
827.304
858.177
889.82
922.207
955.318
989.144
1023.68
1058.93
1094.91
1131.63
1169.11
1207.37
1246.43
1286.3
1327.03
1368.62
1411.09
1454.47
1498.78
1544.05
1590.29
1637.53
1685.83
1735.6
1790.78
9.64227
10.4938
13.4328
17.3146
21.7163
26.5515
31.8274
37.5731
43.8135
50.5572
57.7869
65.4523
73.4621
81.6767
89.9015
97.9426
105.627
112.768
119.17
124.638
128.982
132.026
133.615
133.616
131.933
128.51
123.339
116.46
107.973
98.0605
87.0332
75.4439
64.3488
55.8097
53.0417
58.1184
69.551
84.7774
102.357
121.82
143.133
166.322
191.555
219.659
)
;
    }
    obsticalTop
    {
        type            calculated;
        value           nonuniform List<scalar> 
20
(
53.3772
38.7663
47.1318
53.227
56.0754
57.7136
58.3199
58.0169
57.0716
55.6158
53.6248
50.9883
47.6115
43.3064
38.0429
31.1803
24.7905
15.2658
13.7617
11.3867
)
;
    }
    top
    {
        type            calculated;
        value           uniform 0;
    }
    defaultFaces
    {
        type            empty;
    }
}


// ************************************************************************* //
