/*--------------------------------*- C++ -*----------------------------------*\
| =========                 |                                                 |
| \\      /  F ield         | OpenFOAM: The Open Source CFD Toolbox           |
|  \\    /   O peration     | Version:  v1912                                 |
|   \\  /    A nd           | Website:  www.openfoam.com                      |
|    \\/     M anipulation  |                                                 |
\*---------------------------------------------------------------------------*/
FoamFile
{
    version     2.0;
    format      ascii;
    class       surfaceScalarField;
    location    "500";
    object      phi;
}
// * * * * * * * * * * * * * * * * * * * * * * * * * * * * * * * * * * * * * //

dimensions      [0 3 -1 0 0 0 0];
oriented        oriented;


internalField   nonuniform List<scalar> 
19800
(
2.29239e-07
4.28509e-13
2.29237e-07
1.34897e-12
2.29235e-07
2.33031e-12
2.29232e-07
3.32184e-12
2.29227e-07
4.36475e-12
2.29222e-07
5.49759e-12
2.29215e-07
6.74395e-12
2.29207e-07
8.14702e-12
2.29197e-07
9.72296e-12
2.29186e-07
1.16151e-11
2.29172e-07
1.38078e-11
2.29155e-07
1.66904e-11
2.29135e-07
1.98481e-11
2.2911e-07
2.53174e-11
2.29081e-07
2.95447e-11
2.29034e-07
4.62839e-11
2.28996e-07
3.83179e-11
2.28825e-07
1.70197e-10
2.29071e-07
-2.45164e-10
5.91502e-09
2.23179e-07
2.42236e-07
8.83663e-13
2.42234e-07
2.77591e-12
2.42232e-07
4.79088e-12
2.42228e-07
6.82996e-12
2.42224e-07
8.97647e-12
2.42218e-07
1.13053e-11
2.42211e-07
1.38655e-11
2.42202e-07
1.67462e-11
2.42192e-07
2.00043e-11
2.4218e-07
2.38891e-11
2.42165e-07
2.83926e-11
2.42147e-07
3.43008e-11
2.42126e-07
4.08476e-11
2.421e-07
5.20326e-11
2.42068e-07
6.08092e-11
2.4202e-07
9.48382e-11
2.41978e-07
7.96638e-11
2.41804e-07
3.44769e-10
2.41993e-07
-4.3333e-10
8.35605e-09
2.39679e-07
2.5597e-07
1.36653e-12
2.55968e-07
4.28603e-12
2.55965e-07
7.39343e-12
2.55962e-07
1.054e-11
2.55957e-07
1.38517e-11
2.55951e-07
1.74455e-11
2.55943e-07
2.14016e-11
2.55934e-07
2.58464e-11
2.55923e-07
3.08593e-11
2.5591e-07
3.68554e-11
2.55895e-07
4.38245e-11
2.55876e-07
5.29353e-11
2.55854e-07
6.30232e-11
2.55826e-07
8.02542e-11
2.55793e-07
9.39633e-11
2.55742e-07
1.46112e-10
2.55697e-07
1.23808e-10
2.55519e-07
5.22318e-10
2.55639e-07
-5.51969e-10
9.49416e-09
2.54517e-07
2.70482e-07
1.87595e-12
2.70481e-07
5.88006e-12
2.70478e-07
1.014e-11
2.70474e-07
1.44563e-11
2.70469e-07
1.90004e-11
2.70462e-07
2.39293e-11
2.70454e-07
2.93512e-11
2.70445e-07
3.54448e-11
2.70433e-07
4.23402e-11
2.70419e-07
5.0559e-11
2.70403e-07
6.01061e-11
2.70384e-07
7.25871e-11
2.7036e-07
8.64779e-11
2.7033e-07
1.10051e-10
2.70295e-07
1.28926e-10
2.70242e-07
1.99921e-10
2.70193e-07
1.71881e-10
2.70015e-07
7.00265e-10
2.70062e-07
-5.97357e-10
1.01344e-08
2.69512e-07
2.85817e-07
2.41691e-12
2.85816e-07
7.56771e-12
2.85813e-07
1.30458e-11
2.85809e-07
1.85989e-11
2.85803e-07
2.44439e-11
2.85796e-07
3.07853e-11
2.85788e-07
3.77668e-11
2.85778e-07
4.56064e-11
2.85766e-07
5.44582e-11
2.85751e-07
6.50342e-11
2.85734e-07
7.73388e-11
2.85713e-07
9.33882e-11
2.85689e-07
1.1124e-10
2.85657e-07
1.41521e-10
2.8562e-07
1.66041e-10
2.85564e-07
2.56638e-10
2.85511e-07
2.23723e-10
2.85335e-07
8.76691e-10
2.85311e-07
-5.72384e-10
1.03857e-08
2.85052e-07
3.02022e-07
2.98733e-12
3.0202e-07
9.34844e-12
3.02017e-07
1.61113e-11
3.02013e-07
2.29706e-11
3.02007e-07
3.01918e-11
3.02e-07
3.80233e-11
3.01991e-07
4.664e-11
3.0198e-07
5.63192e-11
3.01968e-07
6.72767e-11
3.01952e-07
8.03323e-11
3.01934e-07
9.55126e-11
3.01912e-07
1.15314e-10
3.01886e-07
1.37433e-10
3.01853e-07
1.74734e-10
3.01814e-07
2.05171e-10
3.01754e-07
3.15991e-10
3.01697e-07
2.80695e-10
3.01523e-07
1.05039e-09
3.01435e-07
-4.81539e-10
1.05537e-08
3.01323e-07
3.19146e-07
3.59394e-12
3.19144e-07
1.12353e-11
3.19141e-07
1.93564e-11
3.19136e-07
2.7597e-11
3.1913e-07
3.62701e-11
3.19122e-07
4.56794e-11
3.19113e-07
5.60388e-11
3.19102e-07
6.76681e-11
3.19088e-07
8.08021e-11
3.19072e-07
9.64906e-11
3.19053e-07
1.14755e-10
3.1903e-07
1.38534e-10
3.19002e-07
1.65078e-10
3.18967e-07
2.09805e-10
3.18925e-07
2.46753e-10
3.18863e-07
3.78438e-10
3.18801e-07
3.42334e-10
3.1863e-07
1.22064e-09
3.18485e-07
-3.34837e-10
1.05758e-08
3.18444e-07
3.3724e-07
4.23307e-12
3.37238e-07
1.32249e-11
3.37235e-07
2.27777e-11
3.3723e-07
3.24767e-11
3.37223e-07
4.26864e-11
3.37215e-07
5.37588e-11
3.37205e-07
6.59425e-11
3.37194e-07
7.96243e-11
3.37179e-07
9.51116e-11
3.37162e-07
1.13566e-10
3.37142e-07
1.3504e-10
3.37117e-07
1.62993e-10
3.37088e-07
1.94324e-10
3.37051e-07
2.46797e-10
3.37007e-07
2.90585e-10
3.36942e-07
4.43623e-10
3.36874e-07
4.10214e-10
3.36707e-07
1.38754e-09
3.36513e-07
-1.37826e-10
1.06262e-08
3.36499e-07
3.5636e-07
4.91332e-12
3.56358e-07
1.5334e-11
3.56355e-07
2.64004e-11
3.5635e-07
3.7642e-11
3.56343e-07
4.9472e-11
3.56334e-07
6.23061e-11
3.56324e-07
7.64356e-11
3.56311e-07
9.22945e-11
3.56296e-07
1.10206e-10
3.56278e-07
1.316e-10
3.56257e-07
1.5652e-10
3.56231e-07
1.889e-10
3.562e-07
2.25183e-10
3.56161e-07
2.85847e-10
3.56114e-07
3.37186e-10
3.56046e-07
5.12097e-10
3.55972e-07
4.83478e-10
3.55808e-07
1.55125e-09
3.55574e-07
9.70478e-11
1.06125e-08
3.55564e-07
3.76565e-07
5.62978e-12
3.76563e-07
1.75568e-11
3.76559e-07
3.0218e-11
3.76553e-07
4.30878e-11
3.76546e-07
5.66336e-11
3.76537e-07
7.13233e-11
3.76526e-07
8.74879e-11
3.76513e-07
1.05636e-10
3.76497e-07
1.26177e-10
3.76478e-07
1.50655e-10
3.76455e-07
1.79156e-10
3.76428e-07
2.16174e-10
3.76395e-07
2.5783e-10
3.76354e-07
3.2701e-10
3.76305e-07
3.86306e-10
3.76234e-07
5.83449e-10
3.76153e-07
5.63797e-10
3.75991e-07
1.71283e-09
3.75725e-07
3.66252e-10
1.06567e-08
3.75707e-07
3.97915e-07
6.39332e-12
3.97912e-07
1.99156e-11
3.97908e-07
3.4263e-11
3.97902e-07
4.88557e-11
3.97895e-07
6.42089e-11
3.97885e-07
8.08662e-11
3.97874e-07
9.92029e-11
3.9786e-07
1.19783e-10
3.97843e-07
1.43019e-10
3.97823e-07
1.70779e-10
3.97799e-07
2.03128e-10
3.9777e-07
2.45073e-10
3.97735e-07
2.92265e-10
3.97692e-07
3.70451e-10
3.9764e-07
4.3852e-10
3.97566e-07
6.58315e-10
3.97478e-07
6.49881e-10
3.97318e-07
1.8728e-09
3.97027e-07
6.57154e-10
1.06647e-08
3.96995e-07
4.20475e-07
7.19701e-12
4.20472e-07
2.23993e-11
4.20468e-07
3.85225e-11
4.20462e-07
5.49327e-11
4.20454e-07
7.22011e-11
4.20444e-07
9.09286e-11
4.20432e-07
1.11536e-10
4.20417e-07
1.34668e-10
4.20399e-07
1.6084e-10
4.20378e-07
1.92036e-10
4.20352e-07
2.28384e-10
4.20322e-07
2.75475e-10
4.20286e-07
3.28696e-10
4.2024e-07
4.16209e-10
4.20185e-07
4.93554e-10
4.20107e-07
7.36266e-10
4.20013e-07
7.4357e-10
4.19853e-07
2.0328e-09
4.19543e-07
9.70428e-10
1.07306e-08
4.19498e-07
4.44314e-07
8.05407e-12
4.44312e-07
2.50365e-11
4.44307e-07
4.30369e-11
4.44301e-07
6.13709e-11
4.44292e-07
8.06554e-11
4.44282e-07
1.01579e-10
4.44269e-07
1.24609e-10
4.44253e-07
1.50455e-10
4.44234e-07
1.79627e-10
4.44212e-07
2.14484e-10
4.44185e-07
2.55125e-10
4.44153e-07
3.07688e-10
4.44114e-07
3.67109e-10
4.44066e-07
4.6448e-10
4.44008e-07
5.5202e-10
4.43927e-07
8.17996e-10
4.43826e-07
8.43188e-10
4.43665e-07
2.19313e-09
4.4334e-07
1.2941e-09
1.0765e-08
4.43283e-07
4.69505e-07
8.95604e-12
4.69502e-07
2.78116e-11
4.69498e-07
4.77883e-11
4.69491e-07
6.81506e-11
4.69482e-07
8.95727e-11
4.69471e-07
1.12805e-10
4.69457e-07
1.38367e-10
4.6944e-07
1.67057e-10
4.6942e-07
1.99507e-10
4.69397e-07
2.3819e-10
4.69369e-07
2.83292e-10
4.69335e-07
3.41557e-10
4.69294e-07
4.07743e-10
4.69243e-07
5.15286e-10
4.69182e-07
6.13624e-10
4.69097e-07
9.03076e-10
4.68989e-07
9.50725e-10
4.68827e-07
2.35553e-09
4.68491e-07
1.63291e-09
1.08493e-08
4.68425e-07
4.96124e-07
9.91873e-12
4.96121e-07
3.07613e-11
4.96116e-07
5.28268e-11
4.96109e-07
7.53375e-11
4.961e-07
9.90068e-11
4.96088e-07
1.24691e-10
4.96073e-07
1.52954e-10
4.96056e-07
1.84675e-10
4.96035e-07
2.20458e-10
4.9601e-07
2.63223e-10
4.9598e-07
3.13107e-10
4.95944e-07
3.77445e-10
4.95901e-07
4.50568e-10
4.95848e-07
5.68864e-10
4.95783e-07
6.78975e-10
4.95694e-07
9.92194e-10
4.95579e-07
1.06421e-09
4.95415e-07
2.51967e-09
4.95071e-07
1.97498e-09
1.09015e-08
4.94998e-07
5.24253e-07
1.09316e-11
5.2425e-07
3.38623e-11
5.24244e-07
5.81259e-11
5.24237e-07
8.28996e-11
5.24227e-07
1.08954e-10
5.24214e-07
1.37212e-10
5.24199e-07
1.68299e-10
5.2418e-07
2.03186e-10
5.24158e-07
2.42624e-10
5.24132e-07
2.89646e-10
5.241e-07
3.44507e-10
5.24063e-07
4.15151e-10
5.24017e-07
4.95858e-10
5.23961e-07
6.25204e-10
5.23892e-07
7.4782e-10
5.238e-07
1.08499e-09
5.23677e-07
1.18586e-09
5.23511e-07
2.6873e-09
5.2316e-07
2.32899e-09
1.0994e-08
5.23083e-07
5.53976e-07
1.20129e-11
5.53973e-07
3.71601e-11
5.53967e-07
6.37463e-11
5.53959e-07
9.09176e-11
5.53949e-07
1.19477e-10
5.53935e-07
1.50471e-10
5.53919e-07
1.84566e-10
5.539e-07
2.22832e-10
5.53876e-07
2.6598e-10
5.53848e-07
3.17544e-10
5.53815e-07
3.77729e-10
5.53775e-07
4.55092e-10
5.53728e-07
5.43568e-10
5.53668e-07
6.84583e-10
5.53596e-07
8.20741e-10
5.53499e-07
1.18207e-09
5.5337e-07
1.31351e-09
5.532e-07
2.85733e-09
5.52843e-07
2.68224e-09
1.10522e-08
5.52766e-07
5.85384e-07
1.31505e-11
5.85381e-07
4.06248e-11
5.85375e-07
6.96542e-11
5.85367e-07
9.93492e-11
5.85355e-07
1.30569e-10
5.85341e-07
1.6443e-10
5.85324e-07
2.01672e-10
5.85304e-07
2.43463e-10
5.85279e-07
2.90685e-10
5.8525e-07
3.46977e-10
5.85215e-07
4.12711e-10
5.85173e-07
4.97034e-10
5.85122e-07
5.94002e-10
5.8506e-07
7.46966e-10
5.84983e-07
8.97515e-10
5.84883e-07
1.28316e-09
5.84746e-07
1.44955e-09
5.84573e-07
3.03152e-09
5.84212e-07
3.04601e-09
1.11443e-08
5.84134e-07
6.18574e-07
1.43653e-11
6.1857e-07
4.43129e-11
6.18564e-07
7.59225e-11
6.18555e-07
1.08293e-10
6.18543e-07
1.42303e-10
6.18528e-07
1.79215e-10
6.1851e-07
2.19804e-10
6.18488e-07
2.6536e-10
6.18462e-07
3.1671e-10
6.18431e-07
3.7805e-10
6.18394e-07
4.49697e-10
6.1835e-07
5.41437e-10
6.18297e-07
6.47099e-10
6.18231e-07
8.12667e-10
6.1815e-07
9.78652e-10
6.18046e-07
1.38867e-09
6.17901e-07
1.59165e-09
6.17725e-07
3.20801e-09
6.17361e-07
3.40593e-09
1.12029e-08
6.17285e-07
6.53644e-07
1.56433e-11
6.5364e-07
4.81839e-11
6.53634e-07
8.2507e-11
6.53624e-07
1.17691e-10
6.53612e-07
1.54667e-10
6.53597e-07
1.94771e-10
6.53577e-07
2.38866e-10
6.53554e-07
2.88343e-10
6.53527e-07
3.44227e-10
6.53494e-07
4.10812e-10
6.53455e-07
4.88635e-10
6.53409e-07
5.8804e-10
6.53352e-07
7.03191e-10
6.53284e-07
8.81619e-10
6.53198e-07
1.06403e-09
6.53089e-07
1.49855e-09
6.52937e-07
1.7423e-09
6.52758e-07
3.38886e-09
6.52392e-07
3.77533e-09
1.12902e-08
6.52318e-07
6.90704e-07
1.70075e-11
6.90699e-07
5.23056e-11
6.90693e-07
8.94933e-11
6.90683e-07
1.27659e-10
6.9067e-07
1.67745e-10
6.90653e-07
2.11246e-10
6.90633e-07
2.59064e-10
6.90609e-07
3.12728e-10
6.9058e-07
3.73207e-10
6.90545e-07
4.45387e-10
6.90504e-07
5.29774e-10
6.90455e-07
6.37338e-10
6.90396e-07
7.62208e-10
6.90323e-07
9.54168e-10
6.90233e-07
1.15407e-09
6.9012e-07
1.61296e-09
6.89961e-07
1.89908e-09
6.89778e-07
3.5716e-09
6.89411e-07
4.13783e-09
1.1345e-08
6.8934e-07
7.29864e-07
1.84428e-11
7.2986e-07
5.66291e-11
7.29852e-07
9.68281e-11
7.29842e-07
1.38128e-10
7.29828e-07
1.81518e-10
7.29811e-07
2.2857e-10
7.29789e-07
2.80291e-10
7.29764e-07
3.3831e-10
7.29733e-07
4.03833e-10
7.29697e-07
4.81817e-10
7.29653e-07
5.7307e-10
7.29602e-07
6.8905e-10
7.29539e-07
8.24493e-10
7.29464e-07
1.03022e-09
7.29369e-07
1.2487e-09
7.29251e-07
1.73207e-09
7.29084e-07
2.06439e-09
7.28899e-07
3.75873e-09
7.28532e-07
4.50815e-09
1.14255e-08
7.28464e-07
7.71244e-07
1.99739e-11
7.7124e-07
6.12347e-11
7.71232e-07
1.04611e-10
7.71221e-07
1.49232e-10
7.71207e-07
1.96084e-10
7.71188e-07
2.46917e-10
7.71166e-07
3.02773e-10
7.71139e-07
3.6544e-10
7.71107e-07
4.3608e-10
7.71068e-07
5.20249e-10
7.71023e-07
6.1877e-10
7.70968e-07
7.43687e-10
7.70902e-07
8.89976e-10
7.70823e-07
1.11014e-09
7.70723e-07
1.34822e-09
7.70601e-07
1.85566e-09
7.70427e-07
2.23575e-09
7.70239e-07
3.94711e-09
7.69874e-07
4.86819e-09
1.14762e-08
7.69808e-07
8.14971e-07
2.15848e-11
8.14966e-07
6.60618e-11
8.14958e-07
1.12777e-10
8.14947e-07
1.60885e-10
8.14931e-07
2.11417e-10
8.14912e-07
2.66196e-10
8.14888e-07
3.26392e-10
8.1486e-07
3.93892e-10
8.14826e-07
4.70132e-10
8.14785e-07
5.60709e-10
8.14737e-07
6.66844e-10
8.1468e-07
8.00974e-10
8.14611e-07
9.58994e-10
8.14527e-07
1.19382e-09
8.14423e-07
1.45267e-09
8.14295e-07
1.98432e-09
8.14115e-07
2.41533e-09
8.13924e-07
4.13991e-09
8.13562e-07
5.23347e-09
1.15493e-08
8.135e-07
8.61177e-07
2.33012e-11
8.61172e-07
7.12033e-11
8.61163e-07
1.2144e-10
8.61151e-07
1.73242e-10
8.61135e-07
2.27629e-10
8.61114e-07
2.86605e-10
8.6109e-07
3.51392e-10
8.6106e-07
4.24041e-10
8.61024e-07
5.05975e-10
8.60981e-07
6.03369e-10
8.6093e-07
7.17535e-10
8.6087e-07
8.61419e-10
8.60798e-07
1.03148e-09
8.6071e-07
1.28163e-09
8.60601e-07
1.56219e-09
8.60468e-07
2.11738e-09
8.60281e-07
2.60056e-09
8.60087e-07
4.33339e-09
8.59731e-07
5.58467e-09
1.15944e-08
8.59672e-07
9.10003e-07
2.51067e-11
9.09997e-07
7.6589e-11
9.09988e-07
1.30525e-10
9.09975e-07
1.86203e-10
9.09958e-07
2.44683e-10
9.09937e-07
3.0804e-10
9.0991e-07
3.77645e-10
9.09879e-07
4.55648e-10
9.09841e-07
5.43786e-10
9.09796e-07
6.48238e-10
9.09743e-07
7.70819e-10
9.0968e-07
9.24756e-10
9.09603e-07
1.10775e-09
9.09512e-07
1.37343e-09
9.09397e-07
1.67688e-09
9.0926e-07
2.25584e-09
9.09066e-07
2.79333e-09
9.0887e-07
4.53132e-09
9.08521e-07
5.93804e-09
1.16596e-08
9.08466e-07
9.61596e-07
2.70278e-11
9.61591e-07
8.23241e-11
9.61581e-07
1.40159e-10
9.61567e-07
1.99937e-10
9.61549e-07
2.62708e-10
9.61527e-07
3.30717e-10
9.61499e-07
4.05412e-10
9.61466e-07
4.89101e-10
9.61426e-07
5.83576e-10
9.61379e-07
6.95508e-10
9.61323e-07
8.26938e-10
9.61256e-07
9.91459e-10
9.61176e-07
1.18776e-09
9.6108e-07
1.46958e-09
9.60961e-07
1.79667e-09
9.60818e-07
2.39849e-09
9.60619e-07
2.99105e-09
9.60421e-07
4.72925e-09
9.6008e-07
6.27366e-09
1.16994e-08
9.60029e-07
1.01612e-06
2.9048e-11
1.01611e-06
8.83277e-11
1.0161e-06
1.50258e-10
1.01608e-06
2.14337e-10
1.01607e-06
2.81656e-10
1.01604e-06
3.54521e-10
1.01601e-06
4.34555e-10
1.01598e-06
5.24165e-10
1.01594e-06
6.25493e-10
1.01589e-06
7.45178e-10
1.01583e-06
8.85866e-10
1.01576e-06
1.06131e-09
1.01567e-06
1.27175e-09
1.01557e-06
1.56996e-09
1.01545e-06
1.92178e-09
1.0153e-06
2.54682e-09
1.0151e-06
3.19516e-09
1.0149e-06
4.93156e-09
1.01457e-06
6.60777e-09
1.1756e-08
1.01452e-06
1.07373e-06
3.11937e-11
1.07372e-06
9.47165e-11
1.07371e-06
1.6096e-10
1.07369e-06
2.29584e-10
1.07367e-06
3.01669e-10
1.07365e-06
3.79684e-10
1.07362e-06
4.6535e-10
1.07358e-06
5.61229e-10
1.07354e-06
6.69576e-10
1.07348e-06
7.97453e-10
1.07342e-06
9.47838e-10
1.07335e-06
1.13474e-09
1.07326e-06
1.3597e-09
1.07316e-06
1.67487e-09
1.07303e-06
2.0519e-09
1.07287e-06
2.69911e-09
1.07267e-06
3.40306e-09
1.07246e-06
5.13311e-09
1.07215e-06
6.92057e-09
1.17888e-08
1.0721e-06
1.1346e-06
3.34485e-11
1.13459e-06
1.01399e-10
1.13458e-06
1.72173e-10
1.13457e-06
2.45561e-10
1.13455e-06
3.22688e-10
1.13452e-06
4.06079e-10
1.13449e-06
4.97646e-10
1.13445e-06
6.00059e-10
1.1344e-06
7.15946e-10
1.13435e-06
8.52313e-10
1.13428e-06
1.01282e-09
1.13421e-06
1.21155e-09
1.13411e-06
1.4518e-09
1.13401e-06
1.78418e-09
1.13387e-06
2.18733e-09
1.13371e-06
2.85721e-09
1.1335e-06
3.6159e-09
1.1333e-06
5.33874e-09
1.13299e-06
7.22847e-09
1.18359e-08
1.13295e-06
1.19893e-06
3.58384e-11
1.19892e-06
1.08504e-10
1.19891e-06
1.84046e-10
1.19889e-06
2.62457e-10
1.19887e-06
3.44875e-10
1.19884e-06
4.33948e-10
1.19881e-06
5.31735e-10
1.19877e-06
6.4103e-10
1.19872e-06
7.64681e-10
1.19866e-06
9.09965e-10
1.19859e-06
1.08106e-09
1.19851e-06
1.29209e-09
1.19842e-06
1.54805e-09
1.1983e-06
1.89808e-09
1.19816e-06
2.3275e-09
1.198e-06
3.01883e-09
1.19779e-06
3.83105e-09
1.19758e-06
5.54256e-09
1.19729e-06
7.51247e-09
1.18612e-08
1.19726e-06
1.2669e-06
3.83479e-11
1.2669e-06
1.1593e-10
1.26688e-06
1.96476e-10
1.26687e-06
2.80154e-10
1.26684e-06
3.68151e-10
1.26681e-06
4.63161e-10
1.26678e-06
5.67452e-10
1.26674e-06
6.83936e-10
1.26668e-06
8.15843e-10
1.26662e-06
9.70389e-10
1.26655e-06
1.15248e-09
1.26647e-06
1.37623e-09
1.26637e-06
1.64851e-09
1.26625e-06
2.0165e-09
1.26611e-06
2.47279e-09
1.26594e-06
3.18618e-09
1.26572e-06
4.04932e-09
1.26552e-06
5.74969e-09
1.26524e-06
7.78834e-09
1.18973e-08
1.26521e-06
1.33873e-06
4.1002e-11
1.33873e-06
1.23815e-10
1.33871e-06
2.09625e-10
1.33869e-06
2.98846e-10
1.33867e-06
3.92692e-10
1.33864e-06
4.93967e-10
1.3386e-06
6.05096e-10
1.33856e-06
7.29129e-10
1.3385e-06
8.69549e-10
1.33844e-06
1.03379e-09
1.33836e-06
1.2273e-09
1.33828e-06
1.46424e-09
1.33817e-06
1.75319e-09
1.33805e-06
2.13949e-09
1.3379e-06
2.62231e-09
1.33773e-06
3.35647e-09
1.33751e-06
4.268e-09
1.33731e-06
5.95358e-09
1.33705e-06
8.03837e-09
1.19125e-08
1.33703e-06
1.41463e-06
4.37855e-11
1.41463e-06
1.32048e-10
1.41461e-06
2.2338e-10
1.41459e-06
3.18406e-10
1.41457e-06
4.18407e-10
1.41453e-06
5.26224e-10
1.4145e-06
6.44493e-10
1.41445e-06
7.76407e-10
1.41439e-06
9.25815e-10
1.41433e-06
1.10011e-09
1.41425e-06
1.30546e-09
1.41416e-06
1.556e-09
1.41405e-06
1.86208e-09
1.41392e-06
2.26697e-09
1.41377e-06
2.77659e-09
1.41359e-06
3.53204e-09
1.41337e-06
4.48792e-09
1.41317e-06
6.15944e-09
1.41293e-06
8.27815e-09
1.19357e-08
1.41292e-06
1.49484e-06
4.6722e-11
1.49483e-06
1.40772e-10
1.49482e-06
2.3791e-10
1.4948e-06
3.39029e-10
1.49477e-06
4.45487e-10
1.49473e-06
5.60174e-10
1.49469e-06
6.85948e-10
1.49464e-06
8.26082e-10
1.49458e-06
9.84799e-10
1.49452e-06
1.16952e-09
1.49443e-06
1.38715e-09
1.49434e-06
1.65163e-09
1.49423e-06
1.9752e-09
1.49409e-06
2.39875e-09
1.49394e-06
2.93443e-09
1.49376e-06
3.70963e-09
1.49354e-06
4.70634e-09
1.49334e-06
6.36023e-09
1.49312e-06
8.49185e-09
1.19392e-08
1.49311e-06
1.57959e-06
4.97981e-11
1.57958e-06
1.49874e-10
1.57957e-06
2.53096e-10
1.57954e-06
3.60598e-10
1.57952e-06
4.73816e-10
1.57948e-06
5.95691e-10
1.57944e-06
7.29265e-10
1.57939e-06
8.78004e-10
1.57932e-06
1.04643e-09
1.57925e-06
1.24201e-09
1.57917e-06
1.47224e-09
1.57907e-06
1.75113e-09
1.57895e-06
2.09234e-09
1.57881e-06
2.5349e-09
1.57865e-06
3.09634e-09
1.57847e-06
3.8917e-09
1.57826e-06
4.92379e-09
1.57806e-06
6.56103e-09
1.57786e-06
8.69355e-09
1.19472e-08
1.57786e-06
1.66915e-06
5.30351e-11
1.66914e-06
1.59502e-10
1.66912e-06
2.69111e-10
1.6691e-06
3.83298e-10
1.66907e-06
5.03599e-10
1.66903e-06
6.33e-10
1.66899e-06
7.74745e-10
1.66893e-06
9.32422e-10
1.66887e-06
1.11089e-09
1.66879e-06
1.31766e-09
1.6687e-06
1.56087e-09
1.6686e-06
1.85441e-09
1.66848e-06
2.21346e-09
1.66834e-06
2.67484e-09
1.66818e-06
3.26078e-09
1.66799e-06
4.07439e-09
1.66778e-06
5.13756e-09
1.66759e-06
6.75435e-09
1.66741e-06
8.86945e-09
1.19359e-08
1.66741e-06
1.76378e-06
5.64207e-11
1.76377e-06
1.6953e-10
1.76376e-06
2.85824e-10
1.76373e-06
4.07004e-10
1.7637e-06
5.34699e-10
1.76366e-06
6.7196e-10
1.76361e-06
8.22181e-10
1.76356e-06
9.89191e-10
1.76349e-06
1.17807e-09
1.76341e-06
1.39645e-09
1.76332e-06
1.65291e-09
1.76321e-06
1.96152e-09
1.76309e-06
2.33837e-09
1.76295e-06
2.81877e-09
1.76278e-06
3.4285e-09
1.76259e-06
4.26039e-09
1.76238e-06
5.3485e-09
1.76219e-06
6.94545e-09
1.76203e-06
9.03318e-09
1.19268e-08
1.76204e-06
1.86378e-06
5.9973e-11
1.86377e-06
1.80106e-10
1.86375e-06
3.03405e-10
1.86373e-06
4.31895e-10
1.8637e-06
5.67314e-10
1.86366e-06
7.12781e-10
1.86361e-06
8.71836e-10
1.86355e-06
1.04851e-09
1.86348e-06
1.2481e-09
1.8634e-06
1.4784e-09
1.8633e-06
1.74838e-09
1.86319e-06
2.07217e-09
1.86306e-06
2.46679e-09
1.86292e-06
2.96572e-09
1.86275e-06
3.59751e-09
1.86256e-06
4.44536e-09
1.86235e-06
5.55366e-09
1.86217e-06
7.12676e-09
1.86203e-06
9.17275e-09
1.18997e-08
1.86205e-06
1.96945e-06
6.36811e-11
1.96944e-06
1.91101e-10
1.96942e-06
3.21721e-10
1.9694e-06
4.57838e-10
1.96936e-06
6.01303e-10
1.96932e-06
7.55311e-10
1.96927e-06
9.2352e-10
1.96921e-06
1.11023e-09
1.96913e-06
1.32088e-09
1.96905e-06
1.56346e-09
1.96895e-06
1.84718e-09
1.96884e-06
2.18643e-09
1.96871e-06
2.5986e-09
1.96856e-06
3.11602e-09
1.96838e-06
3.76879e-09
1.9682e-06
4.63198e-09
1.968e-06
5.75433e-09
1.96782e-06
7.30337e-09
1.9677e-06
9.30053e-09
1.18728e-08
1.96773e-06
2.08111e-06
6.75588e-11
2.0811e-06
2.02658e-10
2.08108e-06
3.40932e-10
2.08105e-06
4.85001e-10
2.08102e-06
6.36842e-10
2.08098e-06
7.99728e-10
2.08092e-06
9.77437e-10
2.08086e-06
1.17447e-09
2.08078e-06
1.39646e-09
2.08069e-06
1.65152e-09
2.08059e-06
1.94916e-09
2.08047e-06
2.30378e-09
2.08034e-06
2.73325e-09
2.08019e-06
3.26821e-09
2.08002e-06
3.93993e-09
2.07983e-06
4.81553e-09
2.07964e-06
5.9473e-09
2.07947e-06
7.46789e-09
2.07936e-06
9.40622e-09
1.18292e-08
2.0794e-06
2.1991e-06
7.15968e-11
2.19909e-06
2.14643e-10
2.19907e-06
3.60899e-10
2.19904e-06
5.13239e-10
2.19901e-06
6.73782e-10
2.19896e-06
8.45872e-10
2.19891e-06
1.0334e-09
2.19884e-06
1.2411e-09
2.19876e-06
1.47473e-09
2.19867e-06
1.74255e-09
2.19856e-06
2.05424e-09
2.19844e-06
2.42433e-09
2.19831e-06
2.87069e-09
2.19815e-06
3.42284e-09
2.19798e-06
4.11205e-09
2.1978e-06
4.99887e-09
2.19761e-06
6.13424e-09
2.19746e-06
7.62557e-09
2.19736e-06
9.50093e-09
1.17847e-08
2.19741e-06
2.32379e-06
7.58036e-11
2.32377e-06
2.27188e-10
2.32375e-06
3.81757e-10
2.32372e-06
5.42699e-10
2.32368e-06
7.12257e-10
2.32364e-06
8.93881e-10
2.32358e-06
1.09152e-09
2.32351e-06
1.31015e-09
2.32343e-06
1.55561e-09
2.32334e-06
1.83633e-09
2.32323e-06
2.16205e-09
2.3231e-06
2.54734e-09
2.32296e-06
3.00998e-09
2.32281e-06
3.57807e-09
2.32264e-06
4.2824e-09
2.32246e-06
5.17715e-09
2.32228e-06
6.31169e-09
2.32214e-06
7.76958e-09
2.32206e-06
9.5759e-09
1.17257e-08
2.32211e-06
2.45554e-06
8.01707e-11
2.45552e-06
2.40161e-10
2.4555e-06
4.03376e-10
2.45547e-06
5.73229e-10
2.45543e-06
7.52125e-10
2.45538e-06
9.43573e-10
2.45532e-06
1.15164e-09
2.45525e-06
1.38146e-09
2.45517e-06
1.639e-09
2.45507e-06
1.93275e-09
2.45496e-06
2.27255e-09
2.45483e-06
2.67288e-09
2.45469e-06
3.15124e-09
2.45454e-06
3.73444e-09
2.45437e-06
4.45221e-09
2.45419e-06
5.35302e-09
2.45402e-06
6.48177e-09
2.45389e-06
7.90486e-09
2.45383e-06
9.64067e-09
1.16649e-08
2.45389e-06
2.59476e-06
8.47005e-11
2.59474e-06
2.53672e-10
2.59472e-06
4.25854e-10
2.59469e-06
6.04936e-10
2.59465e-06
7.93459e-10
2.5946e-06
9.95026e-10
2.59453e-06
1.21376e-09
2.59446e-06
1.45497e-09
2.59437e-06
1.72469e-09
2.59428e-06
2.03147e-09
2.59416e-06
2.38513e-09
2.59404e-06
2.8e-09
2.59389e-06
3.29317e-09
2.59374e-06
3.88989e-09
2.59357e-06
4.61851e-09
2.5934e-06
5.52189e-09
2.59324e-06
6.64087e-09
2.59312e-06
8.02551e-09
2.59307e-06
9.68802e-09
1.15919e-08
2.59314e-06
2.74187e-06
8.93851e-11
2.74185e-06
2.67598e-10
2.74183e-06
4.49067e-10
2.7418e-06
6.37668e-10
2.74176e-06
8.36115e-10
2.7417e-06
1.04805e-09
2.74164e-06
1.27772e-09
2.74156e-06
1.53049e-09
2.74148e-06
1.81254e-09
2.74138e-06
2.13234e-09
2.74126e-06
2.49975e-09
2.74113e-06
2.92871e-09
2.74099e-06
3.43588e-09
2.74084e-06
4.0449e-09
2.74067e-06
4.78241e-09
2.74051e-06
5.6861e-09
2.74036e-06
6.79117e-09
2.74025e-06
8.13599e-09
2.74021e-06
9.7255e-09
1.15164e-08
2.74029e-06
2.89732e-06
9.42198e-11
2.89731e-06
2.82017e-10
2.89728e-06
4.73069e-10
2.89725e-06
6.71479e-10
2.89721e-06
8.80098e-10
2.89715e-06
1.10264e-09
2.89709e-06
1.34341e-09
2.89701e-06
1.60786e-09
2.89692e-06
1.9022e-09
2.89682e-06
2.23486e-09
2.8967e-06
2.61558e-09
2.89657e-06
3.0579e-09
2.89643e-06
3.57784e-09
2.89628e-06
4.19731e-09
2.89612e-06
4.94099e-09
2.89596e-06
5.84152e-09
2.89582e-06
6.92926e-09
2.89573e-06
8.23148e-09
2.8957e-06
9.7475e-09
1.14307e-08
2.89579e-06
3.06159e-06
9.91956e-11
3.06157e-06
2.96817e-10
3.06155e-06
4.97739e-10
3.06152e-06
7.06213e-10
3.06147e-06
9.25251e-10
3.06141e-06
1.1586e-09
3.06135e-06
1.41063e-09
3.06127e-06
1.68683e-09
3.06118e-06
1.99347e-09
3.06107e-06
2.3388e-09
3.06096e-06
2.73248e-09
3.06083e-06
3.18747e-09
3.06069e-06
3.71907e-09
3.06054e-06
4.34745e-09
3.06038e-06
5.09512e-09
3.06024e-06
5.99008e-09
3.06011e-06
7.05718e-09
3.06003e-06
8.31577e-09
3.06001e-06
9.75972e-09
1.13419e-08
3.0601e-06
3.23517e-06
1.043e-10
3.23516e-06
3.12035e-10
3.23513e-06
5.2308e-10
3.23509e-06
7.41855e-10
3.23505e-06
9.71498e-10
3.23499e-06
1.2158e-09
3.23492e-06
1.47918e-09
3.23484e-06
1.76711e-09
3.23475e-06
2.08587e-09
3.23465e-06
2.44352e-09
3.23453e-06
2.84951e-09
3.2344e-06
3.31616e-09
3.23426e-06
3.85794e-09
3.23412e-06
4.49316e-09
3.23397e-06
5.24209e-09
3.23383e-06
6.12829e-09
3.23371e-06
7.17197e-09
3.23364e-06
8.38519e-09
3.23364e-06
9.75808e-09
1.12446e-08
3.23374e-06
3.41859e-06
1.09522e-10
3.41858e-06
3.27571e-10
3.41855e-06
5.48968e-10
3.41852e-06
7.78242e-10
3.41847e-06
1.01866e-09
3.41841e-06
1.27403e-09
3.41834e-06
1.5488e-09
3.41826e-06
1.84841e-09
3.41817e-06
2.1791e-09
3.41806e-06
2.54869e-09
3.41794e-06
2.96637e-09
3.41782e-06
3.44374e-09
3.41768e-06
3.99432e-09
3.41754e-06
4.63462e-09
3.4174e-06
5.38252e-09
3.41727e-06
6.25762e-09
3.41717e-06
7.27542e-09
3.41711e-06
8.44279e-09
3.41712e-06
9.74671e-09
1.11436e-08
3.41723e-06
3.61241e-06
1.1484e-10
3.6124e-06
3.43415e-10
3.61237e-06
5.75348e-10
3.61234e-06
8.15281e-10
3.61229e-06
1.06657e-09
3.61223e-06
1.33305e-09
3.61216e-06
1.61917e-09
3.61208e-06
1.93028e-09
3.61198e-06
2.27255e-09
3.61188e-06
2.65353e-09
3.61176e-06
3.08202e-09
3.61164e-06
3.56888e-09
3.61151e-06
4.12658e-09
3.61137e-06
4.76979e-09
3.61124e-06
5.51408e-09
3.61112e-06
6.37533e-09
3.61103e-06
7.36517e-09
3.61099e-06
8.48595e-09
3.61101e-06
9.72286e-09
1.10352e-08
3.61112e-06
3.81723e-06
1.20236e-10
3.81721e-06
3.59474e-10
3.81718e-06
6.02089e-10
3.81715e-06
8.52787e-10
3.8171e-06
1.11502e-09
3.81704e-06
1.3926e-09
3.81697e-06
1.68996e-09
3.81688e-06
2.01235e-09
3.81679e-06
2.36582e-09
3.81669e-06
2.75758e-09
3.81657e-06
3.19602e-09
3.81645e-06
3.69118e-09
3.81632e-06
4.25443e-09
3.8162e-06
4.89866e-09
3.81607e-06
5.63714e-09
3.81597e-06
6.48247e-09
3.81589e-06
7.44269e-09
3.81586e-06
8.517e-09
3.81589e-06
9.68941e-09
1.09227e-08
3.81601e-06
4.03365e-06
1.25684e-10
4.03363e-06
3.75689e-10
4.0336e-06
6.29073e-10
4.03357e-06
8.9059e-10
4.03352e-06
1.16374e-09
4.03346e-06
1.45233e-09
4.03339e-06
1.76073e-09
4.03331e-06
2.09406e-09
4.03321e-06
2.45818e-09
4.03311e-06
2.85996e-09
4.033e-06
3.30727e-09
4.03288e-06
3.80931e-09
4.03276e-06
4.37632e-09
4.03264e-06
5.01945e-09
4.03253e-06
5.74979e-09
4.03243e-06
6.57703e-09
4.03237e-06
7.50629e-09
4.03235e-06
8.53426e-09
4.0324e-06
9.64463e-09
1.08038e-08
4.03251e-06
4.26234e-06
1.31154e-10
4.26232e-06
3.91968e-10
4.2623e-06
6.56151e-10
4.26226e-06
9.28475e-10
4.26221e-06
1.21248e-09
4.26215e-06
1.51192e-09
4.26208e-06
1.83109e-09
4.262e-06
2.17494e-09
4.26191e-06
2.54913e-09
4.26181e-06
2.9601e-09
4.2617e-06
3.4152e-09
4.26159e-06
3.92276e-09
4.26147e-06
4.49185e-09
4.26136e-06
5.13198e-09
4.26126e-06
5.8522e-09
4.26118e-06
6.6597e-09
4.26113e-06
7.55709e-09
4.26112e-06
8.5394e-09
4.26118e-06
9.59047e-09
1.06802e-08
4.2613e-06
4.504e-06
1.36615e-10
4.50398e-06
4.08207e-10
4.50396e-06
6.83148e-10
4.50392e-06
9.66193e-10
4.50387e-06
1.26088e-09
4.50381e-06
1.57092e-09
4.50374e-06
1.90048e-09
4.50366e-06
2.25433e-09
4.50357e-06
2.63784e-09
4.50348e-06
3.05704e-09
4.50337e-06
3.51869e-09
4.50327e-06
4.03025e-09
4.50316e-06
4.59963e-09
4.50306e-06
5.23481e-09
4.50297e-06
5.94297e-09
4.5029e-06
6.72914e-09
4.50286e-06
7.59403e-09
4.50287e-06
8.53147e-09
4.50293e-06
9.52594e-09
1.05508e-08
4.50306e-06
4.75936e-06
1.42027e-10
4.75934e-06
4.24306e-10
4.75932e-06
7.09889e-10
4.75928e-06
1.00349e-09
4.75923e-06
1.30863e-09
4.75917e-06
1.62893e-09
4.75911e-06
1.96842e-09
4.75903e-06
2.33165e-09
4.75894e-06
2.72369e-09
4.75885e-06
3.15013e-09
4.75875e-06
3.61708e-09
4.75865e-06
4.13116e-09
4.75855e-06
4.69915e-09
4.75846e-06
5.32763e-09
4.75838e-06
6.0221e-09
4.75832e-06
6.7858e-09
4.7583e-06
7.61792e-09
4.75832e-06
8.51163e-09
4.75839e-06
9.4523e-09
1.04165e-08
4.75853e-06
5.0292e-06
1.47353e-10
5.02918e-06
4.40126e-10
5.02916e-06
7.36149e-10
5.02912e-06
1.04005e-09
5.02907e-06
1.35531e-09
5.02902e-06
1.68544e-09
5.02895e-06
2.0343e-09
5.02888e-06
2.40619e-09
5.02879e-06
2.80585e-09
5.02871e-06
3.23839e-09
5.02861e-06
3.7093e-09
5.02852e-06
4.22436e-09
5.02843e-06
4.78929e-09
5.02835e-06
5.40937e-09
5.02828e-06
6.08865e-09
5.02824e-06
6.82891e-09
5.02823e-06
7.62822e-09
5.02826e-06
8.47946e-09
5.02834e-06
9.36908e-09
1.02767e-08
5.02848e-06
5.31434e-06
1.52541e-10
5.31432e-06
4.55549e-10
5.3143e-06
7.6172e-10
5.31426e-06
1.07558e-09
5.31421e-06
1.40054e-09
5.31416e-06
1.73997e-09
5.3141e-06
2.09754e-09
5.31403e-06
2.47729e-09
5.31395e-06
2.8836e-09
5.31387e-06
3.32109e-09
5.31378e-06
3.79464e-09
5.3137e-06
4.30919e-09
5.31362e-06
4.8695e-09
5.31355e-06
5.47969e-09
5.31349e-06
6.14257e-09
5.31346e-06
6.85874e-09
5.31346e-06
7.62551e-09
5.31351e-06
8.43573e-09
5.3136e-06
9.27705e-09
1.01318e-08
5.31375e-06
5.61564e-06
1.5755e-10
5.61562e-06
4.70413e-10
5.6156e-06
7.86342e-10
5.61557e-06
1.10972e-09
5.61552e-06
1.44385e-09
5.61547e-06
1.79195e-09
5.61541e-06
2.15749e-09
5.61534e-06
2.54421e-09
5.61527e-06
2.9561e-09
5.6152e-06
3.39734e-09
5.61512e-06
3.87215e-09
5.61504e-06
4.38473e-09
5.61497e-06
4.93893e-09
5.61491e-06
5.53786e-09
5.61487e-06
6.1833e-09
5.61486e-06
6.87496e-09
5.61487e-06
7.60963e-09
5.61493e-06
8.3804e-09
5.61503e-06
9.17609e-09
9.98146e-09
5.61518e-06
5.93403e-06
1.62321e-10
5.93401e-06
4.84581e-10
5.93399e-06
8.09779e-10
5.93396e-06
1.14212e-09
5.93391e-06
1.4848e-09
5.93387e-06
1.84087e-09
5.93381e-06
2.21353e-09
5.93375e-06
2.60626e-09
5.93368e-06
3.02265e-09
5.93361e-06
3.46638e-09
5.93354e-06
3.94112e-09
5.93348e-06
4.45034e-09
5.93342e-06
4.99708e-09
5.93337e-06
5.58358e-09
5.93335e-06
6.2108e-09
5.93334e-06
6.87778e-09
5.93337e-06
7.58102e-09
5.93344e-06
8.31397e-09
5.93355e-06
9.06667e-09
9.82601e-09
5.9337e-06
6.27046e-06
1.66809e-10
6.27045e-06
4.97884e-10
6.27043e-06
8.31752e-10
6.2704e-06
1.17242e-09
6.27036e-06
1.52293e-09
6.27031e-06
1.88614e-09
6.27026e-06
2.26502e-09
6.27021e-06
2.66272e-09
6.27015e-06
3.08246e-09
6.27009e-06
3.52745e-09
6.27003e-06
4.00079e-09
6.26997e-06
4.50532e-09
6.26993e-06
5.04337e-09
6.26989e-06
5.61646e-09
6.26988e-06
6.22487e-09
6.26989e-06
6.86718e-09
6.26993e-06
7.53981e-09
6.27001e-06
8.23663e-09
6.27012e-06
8.94886e-09
9.66529e-09
6.27029e-06
6.62598e-06
1.7095e-10
6.62596e-06
5.10168e-10
6.62594e-06
8.5201e-10
6.62592e-06
1.20026e-09
6.62588e-06