/*--------------------------------*- C++ -*----------------------------------*\
| =========                 |                                                 |
| \\      /  F ield         | OpenFOAM: The Open Source CFD Toolbox           |
|  \\    /   O peration     | Version:  v1912                                 |
|   \\  /    A nd           | Website:  www.openfoam.com                      |
|    \\/     M anipulation  |                                                 |
\*---------------------------------------------------------------------------*/
FoamFile
{
    version     2.0;
    format      ascii;
    class       volScalarField;
    location    "900";
    object      k;
}
// * * * * * * * * * * * * * * * * * * * * * * * * * * * * * * * * * * * * * //

dimensions      [0 2 -2 0 0 0 0];


internalField   nonuniform List<scalar> 
10000
(
1e-15
1e-15
1e-15
1.01024e-15
1.15751e-15
1.28339e-15
1.84202e-15
2.15156e-15
3.29973e-15
3.99283e-15
6.41595e-15
8.0291e-15
1.32292e-14
1.67798e-14
2.87494e-14
3.73083e-14
6.45535e-14
8.67805e-14
9.61851e-13
1.61365e-07
1e-15
1e-15
1.035e-15
1.08631e-15
1.49653e-15
1.70496e-15
2.6911e-15
3.23772e-15
5.16767e-15
6.23802e-15
1.02474e-14
1.33491e-14
2.0895e-14
2.43458e-14
4.22407e-14
5.96606e-14
9.85315e-14
1.23487e-13
3.23626e-13
1.62088e-08
1e-15
1e-15
1e-15
1e-15
1e-15
1e-15
1e-15
1e-15
1e-15
1e-15
1e-15
1.08348e-15
1.27176e-15
1.94282e-15
3.13706e-15
5.27885e-15
1.99358e-14
3.17988e-14
1.01812e-13
2.21512e-07
1e-15
1e-15
1e-15
1e-15
1e-15
1e-15
1e-15
1e-15
1e-15
1e-15
1e-15
1e-15
1e-15
1e-15
1.02124e-15
1e-15
1.14673e-15
1.55649e-15
8.53758e-14
1.55553e-15
1e-15
1e-15
1e-15
1e-15
1e-15
1e-15
1e-15
1e-15
1e-15
1e-15
1e-15
1e-15
1e-15
1e-15
1.01093e-15
1e-15
1e-15
1e-15
1.12948e-12
2.24436e-12
1e-15
1e-15
1e-15
1e-15
1e-15
1e-15
1e-15
1.00489e-15
1e-15
1e-15
1e-15
1e-15
1e-15
1e-15
1e-15
1.00983e-15
1e-15
1e-15
7.4353e-14
9.45939e-12
1e-15
1e-15
1e-15
1e-15
1e-15
1e-15
1.00096e-15
1e-15
1e-15
1e-15
1e-15
1e-15
1e-15
1e-15
1e-15
1e-15
1e-15
1e-15
2.78034e-15
2.50085e-12
1e-15
1e-15
1e-15
1e-15
1e-15
1e-15
1e-15
1.00762e-15
1e-15
1e-15
1e-15
1e-15
1e-15
1.00305e-15
1e-15
1e-15
1e-15
1e-15
8.40387e-14
1.05394e-13
1e-15
1e-15
1e-15
1e-15
1e-15
1e-15
1e-15
1e-15
1e-15
1e-15
1e-15
1e-15
1e-15
1e-15
1.0128e-15
1e-15
1e-15
1e-15
2.20911e-15
7.15232e-14
1e-15
1e-15
1e-15
1e-15
1e-15
1e-15
1e-15
1e-15
1e-15
1.01246e-15
1e-15
1e-15
1e-15
1e-15
1e-15
1e-15
1e-15
1e-15
1e-15
1e-15
1e-15
1e-15
1e-15
1e-15
1e-15
1e-15
1e-15
1e-15
1e-15
1e-15
1.01355e-15
1e-15
1e-15
1e-15
1e-15
1e-15
1e-15
1e-15
1e-15
1e-15
1e-15
1e-15
1e-15
1e-15
1e-15
1e-15
1e-15
1e-15
1e-15
1e-15
1e-15
1e-15
1e-15
1e-15
1e-15
1e-15
1e-15
1e-15
1e-15
1e-15
1e-15
1e-15
1e-15
1e-15
1e-15
1e-15
1e-15
1e-15
1e-15
1e-15
1e-15
1e-15
1e-15
1e-15
1e-15
1e-15
1e-15
1e-15
1e-15
1e-15
1e-15
1e-15
1e-15
1e-15
1e-15
1e-15
1e-15
1e-15
1e-15
1e-15
1.01362e-15
1e-15
1e-15
1e-15
1e-15
1e-15
1e-15
1e-15
1e-15
1e-15
1e-15
1e-15
1e-15
1e-15
1e-15
1e-15
1e-15
1e-15
1e-15
1.01436e-15
1e-15
1e-15
1e-15
1e-15
1e-15
1e-15
1e-15
1e-15
1e-15
1e-15
1e-15
1e-15
1e-15
1e-15
1e-15
1e-15
1e-15
1e-15
1.01367e-15
1e-15
1e-15
1e-15
1e-15
1e-15
1e-15
1.01242e-15
1e-15
1e-15
1e-15
1e-15
1e-15
1e-15
1e-15
1e-15
1e-15
1e-15
1e-15
1.01158e-15
1e-15
1e-15
1e-15
1e-15
1e-15
1e-15
1.01243e-15
1e-15
1e-15
1e-15
1e-15
1e-15
1e-15
1e-15
1e-15
1e-15
1e-15
1e-15
1.00737e-15
1e-15
1e-15
1e-15
1e-15
1e-15
1.0048e-15
1e-15
1e-15
1e-15
1e-15
1e-15
1e-15
1e-15
1e-15
1e-15
1e-15
1e-15
1e-15
1e-15
1e-15
1e-15
1e-15
1e-15
1e-15
1.00336e-15
1e-15
1e-15
1e-15
1e-15
1e-15
1e-15
1e-15
1e-15
1e-15
1e-15
1e-15
1e-15
1e-15
1e-15
1e-15
1e-15
1e-15
1e-15
1.00155e-15
1e-15
1e-15
1e-15
1e-15
1e-15
1e-15
1e-15
1.01494e-15
1e-15
1e-15
1e-15
1e-15
1e-15
1e-15
1e-15
1e-15
1e-15
1e-15
1.01596e-15
1e-15
1e-15
1e-15
1e-15
1e-15
1e-15
1e-15
1.01469e-15
1e-15
1e-15
1e-15
1e-15
1e-15
1e-15
1e-15
1e-15
1e-15
1e-15
1e-15
1e-15
1.00205e-15
1e-15
1e-15
1e-15
1e-15
1e-15
1.00836e-15
1e-15
1e-15
1e-15
1e-15
1e-15
1e-15
1e-15
1e-15
1.00002e-15
1e-15
1e-15
1e-15
1e-15
1e-15
1.00449e-15
1e-15
1e-15
1e-15
1e-15
1e-15
1.00897e-15
1e-15
1e-15
1e-15
1e-15
1e-15
1e-15
1e-15
1e-15
1.00914e-15
1e-15
1e-15
1e-15
1e-15
1e-15
1.00611e-15
1e-15
1e-15
1e-15
1e-15
1e-15
1.00893e-15
1e-15
1e-15
1e-15
1e-15
1e-15
1e-15
1e-15
1.00944e-15
1e-15
1e-15
1e-15
1e-15
1e-15
1e-15
1.01425e-15
1e-15
1e-15
1e-15
1e-15
1e-15
1.00936e-15
1e-15
1e-15
1e-15
1e-15
1e-15
1e-15
1e-15
1e-15
1e-15
1e-15
1e-15
1e-15
1.01695e-15
1e-15
1e-15
1e-15
1e-15
1e-15
1.00854e-15
1e-15
1e-15
1e-15
1e-15
1e-15
1e-15
1e-15
1.00954e-15
1e-15
1e-15
1e-15
1e-15
1e-15
1e-15
1.01423e-15
1e-15
1e-15
1e-15
1.01474e-15
1e-15
1e-15
1e-15
1e-15
1e-15
1e-15
1e-15
1e-15
1e-15
1e-15
1e-15
1e-15
1e-15
1.01737e-15
1e-15
1e-15
1e-15
1e-15
1e-15
1e-15
1.0141e-15
1e-15
1e-15
1e-15
1e-15
1e-15
1e-15
1e-15
1e-15
1e-15
1e-15
1e-15
1e-15
1e-15
1e-15
1e-15
1e-15
1.01617e-15
1e-15
1e-15
1e-15
1e-15
1e-15
1e-15
1e-15
1e-15
1e-15
1e-15
1e-15
1e-15
1.00896e-15
1e-15
1e-15
1e-15
1e-15
1e-15
1.01745e-15
1e-15
1e-15
1e-15
1e-15
1e-15
1e-15
1e-15
1e-15
1e-15
1e-15
1e-15
1e-15
1e-15
1e-15
1e-15
1e-15
1e-15
1e-15
1.00313e-15
1e-15
1e-15
1e-15
1e-15
1e-15
1.01017e-15
1e-15
1e-15
1e-15
1e-15
1e-15
1e-15
1e-15
1e-15
1.01649e-15
1e-15
1e-15
1e-15
1e-15
1e-15
1.00806e-15
1e-15
1e-15
1e-15
1e-15
1e-15
1e-15
1e-15
1e-15
1e-15
1e-15
1e-15
1e-15
1e-15
1e-15
1e-15
1e-15
1e-15
1e-15
1e-15
1e-15
1e-15
1e-15
1e-15
1.01562e-15
1e-15
1e-15
1e-15
1e-15
1e-15
1e-15
1e-15
1e-15
1e-15
1.01655e-15
1e-15
1e-15
1e-15
1e-15
1e-15
1.00824e-15
1e-15
1e-15
1e-15
1e-15
1e-15
1e-15
1e-15
1e-15
1e-15
1e-15
1e-15
1e-15
1e-15
1e-15
1e-15
1e-15
1e-15
1e-15
1e-15
1e-15
1.00889e-15
1e-15
1e-15
1e-15
1.01444e-15
1e-15
1e-15
1e-15
1e-15
1e-15
1e-15
1e-15
1e-15
1e-15
1e-15
1e-15
1e-15
1e-15
1.017e-15
1e-15
1e-15
1e-15
1e-15
1e-15
1.01571e-15
1e-15
1e-15
1e-15
1e-15
1e-15
1e-15
1.01025e-15
1e-15
1e-15
1e-15
1e-15
1e-15
1.0069e-15
1e-15
1e-15
1e-15
1e-15
1e-15
1.00931e-15
1e-15
1e-15
1e-15
1e-15
1e-15
1e-15
1e-15
1.01038e-15
1e-15
1e-15
1e-15
1e-15
1e-15
1.00704e-15
1e-15
1e-15
1e-15
1e-15
1e-15
1.01006e-15
1e-15
1e-15
1e-15
1e-15
1e-15
1e-15
1e-15
1.01037e-15
1e-15
1e-15
1e-15
1e-15
1e-15
1.0069e-15
1e-15
1e-15
1e-15
1e-15
1e-15
1.00961e-15
1e-15
1e-15
1e-15
1e-15
1e-15
1e-15
1e-15
1e-15
1e-15
1e-15
1e-15
1e-15
1e-15
1e-15
1e-15
1e-15
1.01621e-15
1e-15
1e-15
1e-15
1.01379e-15
1e-15
1e-15
1e-15
1e-15
1e-15
1e-15
1e-15
1e-15
1.01684e-15
1e-15
1e-15
1e-15
1e-15
1e-15
1.00818e-15
1e-15
1e-15
1e-15
1e-15
1e-15
1e-15
1e-15
1e-15
1e-15
1e-15
1e-15
1e-15
1.01474e-15
1e-15
1e-15
1e-15
1e-15
1e-15
1.01774e-15
1e-15
1e-15
1e-15
1e-15
1e-15
1.00917e-15
1e-15
1e-15
1e-15
1e-15
1e-15
1e-15
1.01044e-15
1e-15
1e-15
1e-15
1e-15
1e-15
1.00693e-15
1e-15
1e-15
1e-15
1e-15
1e-15
1.00947e-15
1e-15
1e-15
1e-15
1e-15
1e-15
1e-15
1e-15
1e-15
1.01484e-15
1e-15
1e-15
1e-15
1.01453e-15
1e-15
1e-15
1e-15
1e-15
1e-15
1.00946e-15
1e-15
1e-15
1e-15
1e-15
1e-15
1e-15
1e-15
1e-15
1e-15
1e-15
1e-15
1e-15
1e-15
1e-15
1.01789e-15
1e-15
1e-15
1e-15
1e-15
1e-15
1.00911e-15
1e-15
1e-15
1e-15
1e-15
1e-15
1e-15
1e-15
1e-15
1e-15
1e-15
1e-15
1e-15
1e-15
1e-15
1.01752e-15
1e-15
1e-15
1e-15
1e-15
1e-15
1.00917e-15
1e-15
1e-15
1e-15
1e-15
1e-15
1e-15
1e-15
1e-15
1.01688e-15
1e-15
1e-15
1e-15
1e-15
1e-15
1.0083e-15
1e-15
1e-15
1e-15
1e-15
1e-15
1e-15
1e-15
1e-15
1e-15
1e-15
1e-15
1e-15
1e-15
1e-15
1.01773e-15
1e-15
1e-15
1e-15
1e-15
1e-15
1.00872e-15
1e-15
1e-15
1e-15
1e-15
1e-15
1e-15
1e-15
1e-15
1e-15
1e-15
1e-15
1e-15
1.01691e-15
1e-15
1e-15
1e-15
1e-15
1e-15
1.00843e-15
1e-15
1e-15
1e-15
1e-15
1e-15
1e-15
1e-15
1e-15
1e-15
1e-15
1e-15
1e-15
1e-15
1e-15
1.01773e-15
1e-15
1e-15
1e-15
1e-15
1e-15
1.00878e-15
1e-15
1e-15
1e-15
1e-15
1e-15
1e-15
1e-15
1e-15
1e-15
1e-15
1e-15
1e-15
1.01692e-15
1e-15
1e-15
1e-15
1e-15
1e-15
1.00841e-15
1e-15
1e-15
1e-15
1e-15
1e-15
1e-15
1e-15
1e-15
1e-15
1e-15
1e-15
1e-15
1e-15
1.01693e-15
1e-15
1e-15
1e-15
1e-15
1e-15
1.00838e-15
1e-15
1e-15
1e-15
1e-15
1e-15
1e-15
1e-15
1e-15
1e-15
1e-15
1e-15
1e-15
1.01483e-15
1e-15
1e-15
1e-15
1e-15
1e-15
1.0078e-15
1e-15
1e-15
1e-15
1e-15
1e-15
1.00957e-15
1e-15
1e-15
1e-15
1e-15
1e-15
1e-15
1e-15
1e-15
1.01687e-15
1e-15
1e-15
1e-15
1e-15
1e-15
1.00832e-15
1e-15
1e-15
1e-15
1e-15
1e-15
1e-15
1e-15
1e-15
1e-15
1e-15
1e-15
1e-15
1e-15
1e-15
1.01771e-15
1e-15
1e-15
1e-15
1e-15
1e-15
1.00873e-15
1e-15
1e-15
1e-15
1e-15
1e-15
1e-15
1e-15
1e-15
1e-15
1e-15
1e-15
1e-15
1.01691e-15
1e-15
1e-15
1e-15
1e-15
1e-15
1.00838e-15
1e-15
1e-15
1e-15
1e-15
1e-15
1e-15
1e-15
1e-15
1e-15
1e-15
1e-15
1.0105e-15
1e-15
1e-15
1e-15
1e-15
1e-15
1e-15
1e-15
1.01688e-15
1e-15
1e-15
1e-15
1e-15
1e-15
1e-15
1e-15
1e-15
1e-15
1e-15
1e-15
1e-15
1e-15
1e-15
1e-15
1e-15
1.00518e-15
1e-15
1e-15
1.00791e-15
1e-15
1e-15
1e-15
1e-15
1e-15
1e-15
1e-15
1e-15
1e-15
1e-15
1e-15
1e-15
1e-15
1e-15
1e-15
1.00336e-15
1e-15
1e-15
1e-15
1e-15
1e-15
1e-15
1e-15
1e-15
1e-15
1e-15
1e-15
1e-15
1e-15
1e-15
1e-15
1e-15
1e-15
1e-15
1.01174e-15
1e-15
1e-15
1e-15
1e-15
1e-15
1e-15
1e-15
1e-15
1e-15
1.01537e-15
1e-15
1e-15
1e-15
1e-15
1e-15
1e-15
1e-15
1e-15
1.01696e-15
1e-15
1e-15
1e-15
1e-15
1e-15
1.00833e-15
1e-15
1e-15
1e-15
1e-15
1e-15
1e-15
1e-15
1e-15
1e-15
1e-15
1e-15
1e-15
1.01487e-15
1e-15
1e-15
1e-15
1e-15
1e-15
1.01351e-15
1e-15
1e-15
1e-15
1e-15
1e-15
1.00983e-15
1e-15
1e-15
1e-15
1e-15
1e-15
1e-15
1.01054e-15
1e-15
1e-15
1e-15
1e-15
1e-15
1.00705e-15
1e-15
1e-15
1e-15
1e-15
1e-15
1.00969e-15
1e-15
1e-15
1e-15
1e-15
1e-15
1e-15
1e-15
1e-15
1.01354e-15
1e-15
1e-15
1e-15
1e-15
1e-15
1.00775e-15
1e-15
1e-15
1e-15
1e-15
1e-15
1.00965e-15
1e-15
1e-15
1e-15
1e-15
1e-15
1e-15
1e-15
1e-15
1.01689e-15
1e-15
1e-15
1e-15
1e-15
1e-15
1.00833e-15
1e-15
1e-15
1e-15
1e-15
1e-15
1e-15
1e-15
1e-15
1e-15
1e-15
1e-15
1e-15
1e-15
1e-15
1.01739e-15
1e-15
1e-15
1e-15
1e-15
1e-15
1.00865e-15
1e-15
1e-15
1e-15
1e-15
1e-15
1e-15
1e-15
1e-15
1e-15
1e-15
1e-15
1e-15
1e-15
1e-15
1.00337e-15
1e-15
1e-15
1e-15
1e-15
1e-15
1.00931e-15
1e-15
1e-15
1e-15
1e-15
1e-15
1e-15
1e-15
1e-15
1e-15
1e-15
1e-15
1e-15
1e-15
1e-15
1.01783e-15
1e-15
1e-15
1e-15
1e-15
1e-15
1e-15
1e-15
1e-15
1e-15
1e-15
1e-15
1e-15
1e-15
1e-15
1.01049e-15
1e-15
1e-15
1e-15
1e-15
1e-15
1.00698e-15
1e-15
1e-15
1e-15
1e-15
1e-15
1.00957e-15
1e-15
1e-15
1e-15
1e-15
1e-15
1e-15
1e-15
1e-15
1.01489e-15
1e-15
1e-15
1e-15
1.01454e-15
1e-15
1e-15
1e-15
1e-15
1e-15
1e-15
1.01434e-15
1e-15
1e-15
1e-15
1e-15
1e-15
1e-15
1e-15
1e-15
1e-15
1e-15
1e-15
1.00339e-15
1e-15
1e-15
1e-15
1e-15
1e-15
1.00931e-15
1e-15
1e-15
1.00948e-15
1e-15
1e-15
1e-15
1e-15
1e-15
1.00175e-15
1e-15
1e-15
1e-15
1.01242e-15
1e-15
1e-15
1e-15
1e-15
1e-15
1.00918e-15
1e-15
1e-15
1e-15
1e-15
1e-15
1e-15
1e-15
1e-15
1e-15
1e-15
1e-15
1e-15
1.01691e-15
1e-15
1e-15
1e-15
1e-15
1e-15
1.00837e-15
1e-15
1e-15
1e-15
1e-15
1e-15
1e-15
1e-15
1e-15
1e-15
1e-15
1e-15
1e-15
1e-15
1e-15
1e-15
1e-15
1e-15
1e-15
1.01077e-15
1e-15
1e-15
1e-15
1e-15
1e-15
1.00987e-15
1e-15
1e-15
1e-15
1e-15
1e-15
1e-15
1e-15
1e-15
1e-15
1e-15
1e-15
1e-15
1e-15
1.00817e-15
1e-15
1e-15
1e-15
1e-15
1e-15
1.00979e-15
1e-15
1e-15
1e-15
1e-15
1e-15
1e-15
1.00795e-15
1e-15
1e-15
1e-15
1e-15
1e-15
1.00679e-15
1e-15
1e-15
1e-15
1e-15
1e-15
1.00961e-15
1e-15
1e-15
1e-15
1e-15
1e-15
1e-15
1e-15
1.01054e-15
1e-15
1e-15
1e-15
1e-15
1e-15
1.007e-15
1e-15
1e-15
1e-15
1e-15
1e-15
1.00962e-15
1e-15
1e-15
1e-15
1e-15
1e-15
1e-15
1e-15
1e-15
1e-15
1e-15
1e-15
1e-15
1e-15
1e-15
1.0172e-15
1e-15
1e-15
1e-15
1e-15
1e-15
1.00909e-15
1e-15
1e-15
1e-15
1e-15
1e-15
1e-15
1e-15
1e-15
1.01692e-15
1e-15
1e-15
1e-15
1e-15
1e-15
1.00832e-15
1e-15
1e-15
1e-15
1e-15
1e-15
1e-15
1e-15
1e-15
1e-15
1e-15
1e-15
1e-15
1e-15
1e-15
1e-15
1e-15
1e-15
1e-15
1e-15
1.01712e-15
1e-15
1e-15
1e-15
1e-15
1e-15
1e-15
1e-15
1e-15
1e-15
1e-15
1e-15
1e-15
1e-15
1e-15
1e-15
1.00339e-15
1e-15
1e-15
1e-15
1e-15
1e-15
1.0093e-15
1e-15
1e-15
1e-15
1e-15
1e-15
1e-15
1e-15
1e-15
1.00175e-15
1e-15
1e-15
1e-15
1e-15
1e-15
1e-15
1e-15
1e-15
1e-15
1.01684e-15
1e-15
1e-15
1e-15
1e-15
1e-15
1e-15
1e-15
1e-15
1e-15
1e-15
1e-15
1e-15
1e-15
1e-15
1.00338e-15
1e-15
1e-15
1e-15
1.01546e-15
1e-15
1e-15
1e-15
1e-15
1e-15
1e-15
1e-15
1e-15
1e-15
1e-15
1e-15
1e-15
1e-15
1e-15
1.01773e-15
1e-15
1e-15
1e-15
1e-15
1e-15
1.00872e-15
1e-15
1e-15
1e-15
1e-15
1e-15
1e-15
1e-15
1e-15
1e-15
1e-15
1e-15
1e-15
1e-15
1e-15
1.00339e-15
1e-15
1e-15
1e-15
1e-15
1e-15
1.00932e-15
1e-15
1e-15
1e-15
1e-15
1e-15
1e-15
1e-15
1e-15
1e-15
1e-15
1e-15
1e-15
1e-15
1e-15
1e-15
1e-15
1e-15
1e-15
1.00894e-15
1e-15
1e-15
1e-15
1e-15
1e-15
1e-15
1e-15
1e-15
1e-15
1e-15
1e-15
1e-15
1.0097e-15
1e-15
1e-15
1e-15
1e-15
1e-15
1.00872e-15
1e-15
1e-15
1e-15
1e-15
1e-15
1e-15
1e-15
1e-15
1e-15
1e-15
1e-15
1e-15
1e-15
1e-15
1e-15
1e-15
1e-15
1e-15
1.01719e-15
1e-15
1e-15
1e-15
1e-15
1e-15
1.00908e-15
1e-15
1e-15
1e-15
1e-15
1e-15
1e-15
1.01052e-15
1e-15
1e-15
1e-15
1e-15
1e-15
1.00698e-15
1e-15
1e-15
1e-15
1e-15
1e-15
1.00961e-15
1e-15
1e-15
1e-15
1e-15
1e-15
1e-15
1e-15
1e-15
1.01488e-15
1e-15
1e-15
1e-15
1e-15
1e-15
1.01785e-15
1e-15
1e-15
1e-15
1e-15
1e-15
1.00929e-15
1e-15
1e-15
1e-15
1e-15
1e-15
1e-15
1e-15
1.01489e-15
1e-15
1e-15
1e-15
1e-15
1e-15
1.00785e-15
1e-15
1e-15
1e-15
1e-15
1e-15
1.00964e-15
1e-15
1e-15
1e-15
1e-15
1e-15
1e-15
1e-15
1e-15
1.0097e-15
1e-15
1e-15
1e-15
1e-15
1e-15
1.00873e-15
1e-15
1e-15
1e-15
1e-15
1e-15
1e-15
1e-15
1e-15
1e-15
1e-15
1e-15
1e-15
1e-15
1e-15
1e-15
1e-15
1e-15
1e-15
1e-15
1e-15
1.00894e-15
1e-15
1e-15
1e-15
1e-15
1e-15
1e-15
1e-15
1e-15
1e-15
1e-15
1e-15
1e-15
1e-15
1e-15
1.00257e-15
1e-15
1e-15
1e-15
1e-15
1e-15
1.00924e-15
1e-15
1e-15
1e-15
1e-15
1e-15
1e-15
1e-15
1e-15
1.00175e-15
1e-15
1e-15
1e-15
1e-15
1e-15
1.01827e-15
1e-15
1e-15
1e-15
1e-15
1e-15
1.00924e-15
1e-15
1e-15
1e-15
1e-15
1e-15
1e-15
1e-15
1e-15
1e-15
1e-15
1e-15
1e-15
1.00338e-15
1e-15
1e-15
1e-15
1e-15
1e-15
1.00931e-15
1e-15
1e-15
1e-15
1e-15
1e-15
1e-15
1e-15
1e-15
1e-15
1e-15
1e-15
1e-15
1e-15
1e-15
1.01781e-15
1e-15
1e-15
1e-15
1e-15
1e-15
1e-15
1e-15
1e-15
1e-15
1e-15
1e-15
1e-15
1e-15
1e-15
1e-15
1e-15
1e-15
1e-15
1.00338e-15
1e-15
1e-15
1e-15
1e-15
1e-15
1.00931e-15
1e-15
1e-15
1e-15
1e-15
1e-15
1e-15
1e-15
1e-15
1e-15
1e-15
1e-15
1e-15
1e-15
1e-15
1e-15
1e-15
1e-15
1e-15
1.00894e-15
1e-15
1e-15
1e-15
1e-15
1e-15
1e-15
1e-15
1e-15
1e-15
1e-15
1e-15
1e-15
1.0097e-15
1e-15
1e-15
1e-15
1e-15
1e-15
1.00872e-15
1e-15
1e-15
1e-15
1e-15
1e-15
0.00790758
0.00792195
0.00689317
0.00615088
0.00588327
0.00575519
0.00570509
0.00565168
0.00560465
0.00553428
0.0054678
0.00539467
0.00532921
0.00526007
0.00520231
0.00514146
0.00509287
0.00503924
0.00499724
0.00494924
0.00491233
0.00486956
0.00483737
0.00479906
0.0047705
0.00473538
0.00470977
0.00467749
0.00465458
0.00462479
0.0046043
0.00457671
0.00455816
0.00453221
0.00451525
0.00449084
0.00447541
0.0044524
0.00443835
0.00441662
0.0044038
0.00438307
0.00437128
0.00435144
0.00434059
0.00432162
0.00431165
0.00429347
0.00428432
0.0042668
0.00425836
0.00424145
0.00423359
0.00421734
0.00420999
0.00419434
0.00418751
0.00417241
0.00416604
0.00415141
0.00414546
0.00413125
0.0041257
0.00411188
0.00410673
0.00409327
0.00408849
0.00407538
0.00407096
0.00405813
0.00405405
0.00404147
0.00403771
0.00402534
0.00402189
0.00400972
0.00400663
0.00399457
0.00399195
0.0039793
0.000736848
0.00161295
0.00338301
0.00520292
0.00605303
0.00639536
0.00653976
0.00652162
0.00646877
0.00636515
0.00628254
0.00619552
0.0061219
0.00605019
0.00599434
0.00593664
0.00589098
0.00583784
0.00579756
0.00574873
0.00571353
0.00567041
0.00563989
0.0056003
0.00557189
0.00553487
0.00550924
0.005475
0.00545202
0.00542043
0.00539986
0.00537002
0.00535085
0.00532239
0.00530484
0.00527804
0.00526208
0.00523678
0.00522228
0.00519821
0.00518473
0.00516154
0.00514908
0.00512681
0.00511536
0.00509402
0.00508352
0.00506309
0.00505332
0.00503357
0.00502431
0.00500544
0.00499661
0.00497861
0.0049702
0.00495302
0.00494502
0.00492855
0.0049209
0.00490496
0.00489767
0.00488224
0.00487533
0.00486041
0.00485389
0.00483944
0.00483328
0.00481923
0.00481341
0.00479966
0.00479425
0.00478063
0.00477583
0.00476215
0.00475796
0.00474434
0.00474058
0.00472731
0.00472352
0.00471021
3.48506e-05
0.000218093
0.000470648
0.00121887
0.00233737
0.0034346
0.0041729
0.00456338
0.00477857
0.00485988
0.00490994
0.00492288
0.00492533
0.00492029
0.00491623
0.00490505
0.00489729
0.00487988
0.00486982
0.00484951
0.00483905
0.00481988
0.00480925
0.00478962
0.00477749
0.00475771
0.00474587
0.00472665
0.00471554
0.0046972
0.00468678
0.00466849
0.00465804
0.00463985
0.00462995
0.00461247
0.00460324
0.00458647
0.00457791
0.00456161
0.00455332
0.00453726
0.00452938
0.00451376
0.00450634
0.00449129
0.00448431
0.00446988
0.00446315
0.00444904
0.00444252
0.00442885
0.00442258
0.00440942
0.0044034
0.00439078
0.00438498
0.00437278
0.00436714
0.00435523
0.00434978
0.00433819
0.00433296
0.00432172
0.00431673
0.00430583
0.00430106
0.00429043
0.00428585
0.0042754
0.00427105
0.00426071
0.00425668
0.00424642
0.00424272
0.00423258
0.00422914
0.00421928
0.00421583
0.00420575
8.88298e-06
2.52019e-05
3.81373e-05
0.000192879
0.000421014
0.000971336
0.0019357
0.0027405
0.00327901
0.0036266
0.00385706
0.0039873
0.00407877
0.00414182
0.00419248
0.00422482
0.00425679
0.00427302
0.00429258
0.00429889
0.00431165
0.00431405
0.00432088
0.00431935
0.0043213
0.00431722
0.00431706
0.0043114
0.00431013
0.00430347
0.00430118
0.00429304
0.00428953
0.00428029
0.00427646
0.00426698
0.00426301
0.0042535
0.00424945
0.00423973
0.00423532
0.00422526
0.00422079
0.00421069
0.00420628
0.00419632
0.00419203
0.00418227
0.00417791
0.0041681
0.00416374
0.00415403
0.00414974
0.00414025
0.00413607
0.00412684
0.00412274
0.00411369
0.0041096
0.00410061
0.00409659
0.00408775
0.00408384
0.0040752
0.00407142
0.00406301
0.00405933
0.00405106
0.00404747
0.00403927
0.00403579
0.00402766
0.00402434
0.00401628
0.00401316
0.0040052
0.00400225
0.00399446
0.00399155
0.00398347
3.47537e-09
5.00277e-07
4.52762e-06
1.6252e-05
2.71632e-05
0.000161057
0.000374491
0.000883276
0.00161066
0.00222822
0.00267107
0.00298619
0.00322142
0.0033867
0.00351637
0.00361178
0.00369217
0.00374697
0.00379983
0.00383551
0.00387358
0.00389765
0.00392472
0.00394054
0.00396021
0.00396988
0.00398447
0.00399004
0.00400131
0.00400442
0.00401215
0.00401282
0.00401743
0.00401654
0.00401944
0.0040175
0.00401923
0.00401653
0.00401728
0.0040137
0.00401337
0.00400906
0.00400811
0.00400326
0.00400194
0.00399677
0.00399524
0.00398981
0.00398789
0.00398206
0.0039799
0.00397388
0.00397158
0.00396552
0.00396316
0.00395709
0.00395465
0.00394848
0.00394591
0.0039396
0.00393699
0.00393065
0.00392805
0.00392176
0.00391919
0.00391299
0.00391042
0.00390422
0.00390164
0.00389539
0.00389284
0.00388658
0.00388409
0.00387784
0.00387546
0.00386924
0.00386698
0.00386082
0.00385861
0.00385224
9.3387e-11
1.25102e-07
4.81844e-08
8.68165e-07
2.9003e-06
1.17026e-05
2.26621e-05
0.000138676
0.000328741
0.000731491
0.00129394
0.00178873
0.0021749
0.00247202
0.00271875
0.00290659
0.00306064
0.00317504
0.00327751
0.00335441
0.00342635
0.00347941
0.00353183
0.00356879
0.00360799
0.00363387
0.00366441
0.0036832
0.00370782
0.00372147
0.00374079
0.0037504
0.00376566
0.00377221
0.00378439
0.00378881
0.00379844
0.00380146
0.00380896
0.0038105
0.00381597
0.00381651
0.00382052
0.00382033
0.00382318
0.00382238
0.00382446
0.00382301
0.00382423
0.0038222
0.00382279
0.00382036
0.00382046
0.0038178
0.00381756
0.00381464
0.00381409
0.00381081
0.00380996
0.00380637
0.00380532
0.00380155
0.00380037
0.00379649
0.00379523
0.00379128
0.00378989
0.00378582
0.00378431
0.00378007
0.0037785
0.00377414
0.00377256
0.00376813
0.00376659
0.00376209
0.00376061
0.00375606
0.00375459
0.00374998
3.95442e-10
5.46787e-11
5.14973e-09
4.24067e-08
1.75075e-07
6.00083e-07
1.93118e-06
9.2476e-06
1.98622e-05
0.000110623
0.000251585
0.000561003
0.000977441
0.00139195
0.00174858
0.00202919
0.00227672
0.00247742
0.00264956
0.00278422
0.00290471
0.00299982
0.00308864
0.0031563
0.00322194
0.00327066
0.00332206
0.0033586
0.00339959
0.00342706
0.00345968
0.00348013
0.00350694
0.0035224
0.00354445
0.0035563
0.00357468
0.0035839
0.00359925
0.00360611
0.00361882
0.00362397
0.00363454
0.00363844
0.00364709
0.00364997
0.0036571
0.00365904
0.00366472
0.00366594
0.00367044
0.0036711
0.00367465
0.0036749
0.00367771
0.00367757
0.00367965
0.00367902
0.00368051
0.00367948
0.00368053
0.00367921
0.0036799
0.00367836
0.00367876
0.00367704
0.00367712
0.00367519
0.00367497
0.00367278
0.0036724
0.00367001
0.00366951
0.00366694
0.0036664
0.00366367
0.0036631
0.00366022
0.00365955
0.00365685
8.36848e-11
5.01007e-11
1.29144e-09
1.38134e-09
8.92284e-09
2.89049e-08
1.24666e-07
4.34453e-07
1.50783e-06
7.1241e-06
1.45056e-05
7.62172e-05
0.000170186
0.000383887
0.000684261
0.00103321
0.00136063
0.00163406
0.00187056
0.00207382
0.00225909
0.00241136
0.00254874
0.002659
0.00276224
0.00284395
0.00292414
0.00298544
0.0030483
0.00309506
0.00314587
0.00318148
0.00322286
0.0032503
0.00328454
0.00330631
0.0033351
0.00335249
0.00337656
0.00338996
0.00341049
0.00342124
0.0034389
0.0034475
0.0034626
0.00346944
0.00348248
0.00348795
0.0034991
0.0035035
0.00351293
0.00351647
0.00352449
0.00352737
0.00353422
0.00353648
0.00354221
0.00354386
0.0035486
0.0035498
0.00355377
0.0035546
0.0035579
0.00355842
0.00356116
0.00356139
0.00356356
0.00356351
0.00356515
0.00356483
0.00356613
0.00356555
0.00356657
0.00356577
0.00356658
0.00356556
0.00356618
0.00356497
0.00356524
0.00356463
5.18761e-12
2.08587e-11
3.99034e-13
2.5413e-11
2.22417e-09
1.23438e-09
3.11766e-08
2.62493e-08
8.44845e-08
3.0751e-07
1.06857e-06
4.61339e-06
9.34117e-06
4.59954e-05
9.7686e-05
0.000225502
0.000444484
0.000703752
0.000997816
0.00126128
0.00149658
0.0016951
0.0018817
0.00204255
0.00219485
0.00231843
0.00243604
0.00253101
0.00262434
0.00269833
0.00277406
0.00283092
0.00289192
0.00293622
0.00298672
0.00302212
0.00306427
0.00309266
0.00312801
0.00315055
0.00318074
0.00319907
0.00322511
0.00324
0.00326256
0.00327478
0.00329445
0.0033043
0.00332143
0.00332953
0.00334452
0.00335123
0.00336441
0.00337006
0.00338159
0.00338635
0.00339638
0.00340037
0.00340908
0.00341247
0.00342006
0.00342291
0.00342951
0.00343192
0.00343767
0.00343966
0.0034446
0.00344621
0.00345043
0.00345171
0.00345534
0.00345634
0.00345945
0.00346021
0.00346289
0.00346341
0.00346563
0.00346609
0.00346741
0.0034692
1.29553e-12
1.15693e-12
1.45585e-14
3.3953e-13
3.16589e-13
3.44476e-11
7.01721e-11
1.91422e-09
8.3526e-09
1.50936e-08
6.1251e-08
1.97915e-07
3.45875e-07
2.69446e-06
4.31984e-06
2.17251e-05
4.82618e-05
0.000119419
0.00024459
0.000434133
0.000664801
0.000902014
0.00113864
0.00133669
0.00152356
0.00168165
0.00183863
0.00197261
0.00210363
0.00221028
0.0023168
0.00240166
0.00248904
0.00255676
0.00262925
0.00268345
0.00274359
0.00278728
0.00283787
0.00287325
0.00291613
0.00294488
0.00298159
0.00300509
0.003037
0.00305649
0.0030844
0.00310036
0.00312465
0.00313787
0.00315933
0.00317043
0.00318948
0.00319887
0.00321578
0.00322367
0.0032386
0.00324523
0.00325852
0.00326427
0.00327604
0.00328103
0.00329146
0.00329581
0.00330508
0.0033089
0.00331712
0.00332045
0.00332772
0.00333062
0.00333705
0.00333959
0.00334528
0.00334752
0.0033525
0.00335456
0.0033587
0.00336107
0.00336345
0.00336802
1e-15
2.86585e-13
1e-15
8.46376e-14
6.52179e-15
5.78159e-13
6.29949e-12
6.37749e-11
4.44157e-10
7.97475e-10
1.37664e-09
6.8007e-09
8.67282e-08
1.21425e-07
2.66528e-07
9.43068e-07
1.5521e-06
9.47844e-06
1.89915e-05
5.44301e-05
0.000114097
0.00022038
0.000388917
0.000578989
0.00078611
0.000987549
0.00117692
0.00133666
0.00149386
0.00162661
0.00176379
0.00187955
0.00199757
0.0020925
0.00219101
0.00226875
0.00235203
0.00241606
0.00248669
0.00253943
0.00259913
0.00264224
0.00269322
0.00272881
0.0027731
0.00280265
0.00284121
0.00286563
0.0028991
0.00291947
0.00294902
0.00296617
0.00299239
0.00300688
0.00303021
0.00304248
0.00306327
0.00307366
0.00309225
0.00310122
0.00311786
0.00312562
0.00314057
0.00314734
0.00316081
0.00316672
0.00317874
0.00318395
0.00319472
0.00319936
0.00320903
0.00321319
0.00322185
0.00322567
0.00323326
0.00323713
0.0032432
0.00324789
0.00325145
0.0032591
1e-15
1e-15
1e-15
1e-15
1e-15
1.44972e-13
1.68322e-13
2.56465e-12
2.0661e-11
3.9758e-11
7.15694e-11
4.06228e-10
2.10752e-10
2.15888e-09
1.82543e-09
2.97794e-08
4.2405e-08
3.25354e-07
3.67476e-07
3.22447e-06
6.00128e-06
1.99982e-05
4.28999e-05
9.11233e-05
0.000181375
0.000309507
0.000477671
0.000648173
0.000830458
0.00099783
0.00115794
0.00129293
0.00143061
0.00154627
0.00166853
0.00177082
0.00187944
0.00196635
0.0020592
0.00213225
0.00221241
0.00227384
0.0023431
0.00239464
0.00245485
0.0024978
0.00255016
0.00258616
0.00263178
0.00266213
0.00270225
0.0027278
0.00276322
0.00278479
0.00281628
0.0028347
0.00286282
0.00287849
0.0029036
0.00291703
0.00293953
0.00295116
0.00297146
0.00298161
0.00300001
0.00300886
0.00302539
0.00303313
0.00304805
0.00305494
0.00306843
0.00307469
0.00308676
0.00309269
0.00310312
0.00310923
0.00311751
0.00312474
0.00312978
0.00314083
1e-15
1e-15
1e-15
1e-15
1e-15
1.04855e-15
5.56492e-15
2.46595e-13
1.11467e-12
2.12549e-12
2.49212e-12
1.38152e-11
4.80178e-11
9.84192e-11
1.55563e-10
8.27093e-10
1.05746e-08
1.23996e-08
9.38809e-09
1.32857e-07
2.95087e-07
8.01083e-07
1.47439e-06
6.00752e-06
1.21548e-05
3.255e-05
6.71983e-05
0.000127857
0.000228278
0.000355039
0.00051057
0.000660325
0.000819767
0.000962132
0.00110349
0.00122145
0.00134463
0.00144803
0.00155833
0.00165059
0.00175162
0.00183268
0.00192161
0.00199062
0.00206886
0.00212797
0.0021971
0.0022477
0.00230855
0.00235179
0.00240528
0.00244196
0.00248923
0.00252046
0.00256256
0.00258939
0.00262692
0.00264988
0.0026833
0.00270298
0.00273292
0.00274999
0.00277699
0.00279187
0.00281629
0.0028293
0.00285127
0.00286266
0.00288248
0.00289266
0.00291053
0.00291984
0.00293575
0.00294464
0.00295829
0.00296747
0.00297822
0.00298882
0.00299557
0.00301074
1e-15
1e-15
1e-15
1e-15
1e-15
1.08562e-15
8.63687e-15
1.83197e-14
1.1421e-13
2.92156e-13
3.84083e-13
6.3085e-13
1.59095e-12
5.07826e-12
3.85794e-11
2.84134e-11
1.65958e-11
2.82703e-10
4.56598e-10
4.94476e-09
1.15052e-08
2.77718e-08
6.02473e-08
1.5849e-07
2.58412e-07
1.53344e-06
2.84485e-06
8.79366e-06
1.83567e-05
4.12451e-05
8.36857e-05
0.000145221
0.000243964
0.00035851
0.000498707
0.00063101
0.000772192
0.000895853
0.00102493
0.00113028
0.00124274
0.00133604
0.0014384
0.00152142
0.00161611
0.00169167
0.0017779
0.00184389
0.0019207
0.0019781
0.00204685
0.00209688
0.00215844
0.00220178
0.00225689
0.00229441
0.0023436
0.00237607
0.00242002
0.00244814
0.00248761
0.00251212
0.00254761
0.00256901
0.00260094
0.00261975
0.00264845
0.00266509
0.00269092
0.00270586
0.00272897
0.00274271
0.00276307
0.00277623
0.00279356
0.00280706
0.00282066
0.00283572
0.00284461
0.00286492
1e-15
1e-15
1e-15
1e-15
1e-15
1e-15
1.15133e-15
2.05296e-15
7.19055e-15
2.0089e-14
1.26891e-14
1.5632e-13
8.7887e-14
1.78814e-13
1.41416e-13
7.05977e-13
1.16191e-12
6.81094e-12
1.49297e-11
2.05906e-10
4.5396e-10
9.42741e-10
2.11821e-09
3.00005e-09
9.56636e-09
2.42325e-08
2.29965e-08
3.259e-07
5.37096e-07
2.06423e-06
3.99192e-06
1.02089e-05
2.11911e-05
4.29728e-05
8.6222e-05
0.000140084
0.000231588
0.000328302
0.000454701
0.000571491
0.000699552
0.000808888
0.000927348
0.00102444
0.00112885
0.00121377
0.00130984
0.0013865
0.00147491
0.00154481
0.00162799
0.00169146
0.00176741
0.00182319
0.00189191
0.00194117
0.00200352
0.00204722
0.00210359
0.00214208
0.00219299
0.00222686
0.00227264
0.00230255
0.00234371
0.00237031
0.00240732
0.0024312
0.00246433
0.00248598
0.00251534
0.00253542
0.00256098
0.00258029
0.00260187
0.00262145
0.00263843
0.00265942
0.00267106
0.00269797
1e-15
1.00812e-15
1e-15
1e-15
1e-15
1e-15
1e-15
1e-15
1.09171e-15
1.60022e-15
1.5726e-15
1.01127e-15
1.33197e-15
7.47773e-15
8.7262e-15
1.41874e-14
2.8699e-13
1.97936e-13
3.7263e-12
6.33035e-12
2.56959e-11
4.24794e-11
7.06758e-11
4.00545e-11
3.27315e-10
4.64384e-10
5.63857e-09
1.04814e-09
1.63353e-08
5.35936e-08
7.81933e-08
3.73115e-07
6.35499e-07
2.06321e-06
4.11523e-06
9.73184e-06
2.01346e-05
3.88319e-05
7.59339e-05
0.00011927
0.000197629
0.000277884
0.000386673
0.000490262
0.000607563
0.000706596
0.000816022
0.000905128
0.00100516
0.0010836
0.00117424
0.00124545
0.00133015
0.00139453
0.00147373
0.00153364
0.00160835
0.00166319
0.00173166
0.00178071
0.00184315
0.0018873
0.00194427
0.00198429
0.00203589
0.00207214
0.00211861
0.0021517
0.00219315
0.00222364
0.00226017
0.00228886
0.00232044
0.00234821
0.00237474
0.00240251
0.00242357
0.00245224
0.00246745
0.00250284
1.01019e-15
1e-15
1e-15
1e-15
1e-15
1e-15
1e-15
1e-15
1e-15
1e-15
1e-15
1e-15
1e-15
1e-15
1.05398e-15
1.25532e-15
1.01564e-15
1.93657e-15
1.98339e-15
7.50027e-14
5.02832e-13
1.0277e-12
1.2311e-12
9.86275e-12
7.33832e-12
3.71992e-11
2.77047e-11
4.51625e-12
3.49699e-10
1.60242e-09
2.97937e-09
5.73438e-09
5.00367e-09
5.78085e-08
8.68843e-08
3.10908e-07
6.24691e-07
1.21832e-06
3.68671e-06
6.79324e-06
1.62307e-05
2.79034e-05
5.88469e-05
8.93093e-05
0.000152764
0.00021416
0.000306603
0.000391991
0.000499998
0.000590775
0.00069421
0.000776503
0.000871315
0.000945986
0.00103279
0.00109968
0.00118012
0.00124193
0.00131725
0.00137392
0.00144465
0.00149843
0.00156513
0.00161549
0.00167646
0.00172295
0.00177808
0.00182151
0.00187108
0.00191226
0.00195614
0.00199556
0.0020335
0.0020719
0.00210378
0.00214178
0.00216753
0.00220579
0.00222542
0.00227138
1e-15
1.00414e-15
1e-15
1e-15
1e-15
1.01178e-15
1e-15
1e-15
1e-15
1e-15
1e-15
1e-15
1e-15
1e-15
1e-15
1e-15
1e-15
1e-15
1e-15
1e-15
8.828e-15
2.42638e-14
4.62823e-14
1.62604e-15
1.7926e-12
7.92622e-13
6.27117e-13
1.20842e-12
7.44997e-12
3.10688e-11
6.31939e-11
1.39497e-09
1.76905e-10
1.03834e-09
1.64366e-09
7.57259e-08
1.81103e-08
2.36993e-08
1.06496e-07
1.6663e-07
5.59104e-07
9.21187e-07
2.62461e-06
4.50942e-06
1.07575e-05
1.84888e-05
3.85906e-05
5.86569e-05
0.000105379
0.000147841
0.000221862
0.000289918
0.000381834
0.000463568
0.000560885
0.000639927
0.000730117
0.000801259
0.000883983
0.000949793
0.00102568
0.0010864
0.00115654
0.00121408
0.00127902
0.00133362
0.00139344
0.00144683
0.00150231
0.00155467