/*--------------------------------*- C++ -*----------------------------------*\
| =========                 |                                                 |
| \\      /  F ield         | OpenFOAM: The Open Source CFD Toolbox           |
|  \\    /   O peration     | Version:  v1912                                 |
|   \\  /    A nd           | Website:  www.openfoam.com                      |
|    \\/     M anipulation  |                                                 |
\*---------------------------------------------------------------------------*/
FoamFile
{
    version     2.0;
    format      ascii;
    class       volScalarField;
    location    "900";
    object      omega;
}
// * * * * * * * * * * * * * * * * * * * * * * * * * * * * * * * * * * * * * //

dimensions      [0 0 -1 0 0 0 0];


internalField   nonuniform List<scalar> 
10000
(
615.5
438.587
378.287
316.348
303.109
282.619
284.489
278.202
286.136
283.98
294.987
294.923
308.511
308.619
324.02
327.766
342.519
346.961
361.642
370.572
629.42
465.315
408.614
354.526
347.804
325.503
328.171
323.156
330.07
327.763
336.742
335.703
345.802
345.384
356.184
356.144
367.476
367.696
379.45
379.825
597.59
418.705
317.809
259.994
216.637
190.871
166.822
153.211
138.082
129.848
119.744
114.007
107.206
102.568
98.1939
93.9834
91.4359
87.533
86.417
83.2462
596.815
413.664
313.306
251.104
209.042
178.855
156.311
138.597
124.806
113.08
103.982
95.5244
89.2574
82.7486
78.3346
73.0647
70.0071
65.5407
63.1865
59.1356
596.791
413.567
313.268
250.94
208.917
178.615
156.056
138.266
124.384
112.642
103.373
94.9441
88.4686
81.977
77.3399
72.0861
68.5808
63.9933
60.671
55.6627
596.783
413.571
313.26
250.952
208.894
178.638
156.011
138.302
124.312
112.691
103.265
95.0214
88.2956
82.1057
77.1225
72.2232
68.4705
64.3408
61.3461
57.7336
596.78
413.579
313.258
250.968
208.881
178.665
155.983
138.344
124.265
112.753
103.194
95.1054
88.1997
82.2142
76.9949
72.3805
68.3122
64.6185
61.3341
58.3132
596.786
413.591
313.261
250.982
208.876
178.686
155.968
138.376
124.236
112.799
103.149
95.1672
88.1368
82.2941
76.9088
72.4906
68.1945
64.7766
61.2253
58.5423
596.8
413.603
313.269
250.988
208.882
178.688
155.973
138.375
124.242
112.795
103.157
95.1594
88.1479
82.2813
76.9242
72.4715
68.2164
64.7524
61.2592
58.5226
596.796
413.606
313.275
250.987
208.891
178.683
155.987
138.363
124.262
112.774
103.186
95.1279
88.1876
82.237
76.9763
72.4137
68.282
64.6791
61.3458
58.4278
596.792
413.608
313.28
250.988
208.899
178.68
155.997
138.357
124.276
112.763
103.204
95.111
88.2118
82.2132
77.0078
72.3817
68.3211
64.6398
61.391
58.3827
596.793
413.615
313.286
250.994
208.903
178.685
156
138.361
124.279
112.767
103.206
95.1156
88.2117
82.2186
77.0063
72.388
68.318
64.648
61.3852
58.3945
596.795
413.622
313.291
250.999
208.907
178.69
156.003
138.365
124.28
112.772
103.206
95.1206
88.2108
82.2243
77.0041
72.3947
68.3145
64.6556
61.3801
58.4035
596.796
413.629
313.297
251.004
208.912
178.693
156.007
138.368
124.284
112.774
103.209
95.1218
88.2141
82.2247
77.0077
72.3942
68.3184
64.6543
61.3846
58.4013
596.794
413.634
313.302
251.009
208.916
178.697
156.01
138.371
124.287
112.776
103.212
95.1239
88.2165
82.2264
77.01
72.3956
68.3207
64.6552
61.3869
58.402
596.792
413.639
313.306
251.014
208.92
178.701
156.013
138.375
124.288
112.78
103.212
95.1282
88.2162
82.2312
77.0087
72.401
68.3183
64.6616
61.3833
58.4095
596.791
413.645
313.311
251.019
208.924
178.706
156.016
138.379
124.29
112.784
103.214
95.1324
88.2164
82.2356
77.008
72.406
68.3167
64.6671
61.3807
58.4159
596.79
413.651
313.316
251.023
208.928
178.71
156.019
138.382
124.293
112.787
103.216
95.1345
88.2188
82.2375
77.0102
72.4075
68.3188
64.6685
61.3827
58.4171
596.792
413.657
313.322
251.028
208.933
178.713
156.023
138.385
124.297
112.789
103.22
95.1353
88.223
82.2374
77.0148
72.4066
68.3238
64.6666
61.3884
58.4144
596.795
413.664
313.328
251.034
208.938
178.717
156.027
138.388
124.301
112.791
103.223
95.1374
88.2258
82.2391
77.0174
72.4079
68.3264
64.6679
61.391
58.4157
596.804
413.675
313.336
251.04
208.943
178.722
156.032
138.392
124.304
112.794
103.226
95.1403
88.2282
82.2419
77.0195
72.4107
68.3282
64.6705
61.3924
58.4185
596.816
413.686
313.345
251.047
208.95
178.727
156.037
138.396
124.309
112.798
103.23
95.1437
88.2325
82.2451
77.0237
72.4137
68.3325
64.6737
61.3968
58.422
596.854
413.71
313.36
251.058
208.958
178.734
156.041
138.4
124.311
112.801
103.232
95.1461
88.2331
82.2468
77.0237
72.4152
68.3318
64.6747
61.3957
58.4229
596.843
413.708
313.36
251.06
208.959
178.737
156.043
138.404
124.312
112.805
103.233
95.1507
88.2333
82.2521
77.0235
72.4209
68.3314
64.6811
61.3954
58.4295
596.789
413.684
313.348
251.054
208.955
178.735
156.042
138.405
124.313
112.807
103.234
95.1535
88.235
82.2555
77.0255
72.4251
68.3336
64.6859
61.3979
58.4348
596.748
413.665
313.337
251.047
208.951
178.731
156.039
138.402
124.31
112.804
103.232
95.15
88.2329
82.2517
77.0232
72.4207
68.3312
64.6812
61.3952
58.43
596.73
413.658
313.334
251.045
208.95
178.73
156.039
138.401
124.31
112.803
103.232
95.1486
88.2329
82.25
77.0233
72.4187
68.3312
64.6787
61.3952
58.4274
596.725
413.656
313.335
251.045
208.951
178.731
156.04
138.401
124.311
112.804
103.233
95.149
88.2338
82.2502
77.0241
72.4188
68.3321
64.6788
61.3961
58.4276
596.723
413.657
313.336
251.047
208.952
178.732
156.041
138.402
124.313
112.805
103.234
95.1499
88.2348
82.2509
77.0251
72.4195
68.3329
64.6794
61.397
58.4283
596.722
413.658
313.338
251.048
208.954
178.734
156.042
138.404
124.314
112.805
103.235
95.1507
88.2356
82.2517
77.0258
72.4201
68.3337
64.6801
61.3978
58.4292
596.721
413.659
313.339
251.05
208.955
178.735
156.043
138.405
124.315
112.806
103.235
95.1515
88.2363
82.2525
77.0265
72.4209
68.3344
64.6809
61.3986
58.43
596.72
413.659
313.34
251.051
208.956
178.736
156.045
138.406
124.316
112.807
103.236
95.1523
88.2371
82.2531
77.0272
72.4215
68.3351
64.6815
61.3994
58.4308
596.72
413.66
313.342
251.052
208.957
178.737
156.046
138.407
124.316
112.808
103.237
95.153
88.2378
82.2538
77.0279
72.4222
68.3357
64.6822
61.4001
58.4316
596.719
413.66
313.343
251.053
208.958
178.738
156.046
138.408
124.317
112.809
103.238
95.1537
88.2384
82.2545
77.0285
72.4228
68.3363
64.6829
61.4008
58.4325
596.719
413.661
313.344
251.054
208.959
178.739
156.047
138.408
124.318
112.81
103.238
95.1543
88.239
82.2551
77.029
72.4234
68.3369
64.6836
61.4015
58.4333
596.718
413.661
313.345
251.055
208.96
178.74
156.048
138.409
124.319
112.81
103.239
95.1549
88.2396
82.2556
77.0296
72.424
68.3375
64.6842
61.4022
58.4341
596.718
413.661
313.345
251.056
208.961
178.741
156.049
138.41
124.319
112.811
103.24
95.1555
88.2401
82.2562
77.0301
72.4246
68.3381
64.6848
61.4029
58.4349
596.718
413.661
313.346
251.057
208.962
178.741
156.049
138.41
124.32
112.811
103.24
95.156
88.2406
82.2567
77.0306
72.425
68.3386
64.6854
61.4036
58.4356
596.717
413.661
313.347
251.057
208.962
178.742
156.05
138.411
124.32
112.812
103.241
95.1565
88.2411
82.2572
77.0311
72.4256
68.3392
64.686
61.4043
58.4364
596.717
413.661
313.347
251.058
208.963
178.743
156.051
138.411
124.321
112.812
103.241
95.1569
88.2415
82.2576
77.0316
72.4261
68.3397
64.6866
61.4049
58.4371
596.717
413.661
313.347
251.059
208.963
178.743
156.051
138.412
124.321
112.813
103.241
95.1574
88.242
82.2581
77.032
72.4266
68.3402
64.6872
61.4056
58.4379
596.717
413.661
313.348
251.059
208.964
178.744
156.051
138.412
124.322
112.813
103.242
95.1578
88.2423
82.2585
77.0325
72.427
68.3408
64.6878
61.4063
58.4387
596.717
413.661
313.348
251.059
208.964
178.744
156.052
138.413
124.322
112.814
103.242
95.1582
88.2428
82.2589
77.033
72.4275
68.3414
64.6883
61.407
58.4393
596.717
413.662
313.348
251.06
208.965
178.744
156.052
138.413
124.322
112.814
103.243
95.1585
88.2432
82.2593
77.0334
72.428
68.3419
64.6889
61.4077
58.4401
596.717
413.661
313.348
251.06
208.965
178.745
156.053
138.413
124.323
112.814
103.243
95.1589
88.2435
82.2597
77.0338
72.4285
68.3424
64.6896
61.4083
58.4409
596.717
413.661
313.349
251.06
208.965
178.745
156.053
138.414
124.323
112.815
103.243
95.1593
88.2439
82.2601
77.0343
72.429
68.3429
64.6902
61.409
58.4417
596.717
413.661
313.349
251.061
208.966
178.745
156.053
138.414
124.323
112.815
103.244
95.1596
88.2443
82.2606
77.0347
72.4295
68.3435
64.6908
61.4097
58.4424
596.717
413.661
313.349
251.061
208.966
178.746
156.053
138.414
124.324
112.815
103.244
95.16
88.2447
82.2609
77.0352
72.4299
68.344
64.6914
61.4104
58.4432
596.717
413.661
313.349
251.061
208.966
178.746
156.054
138.415
124.324
112.816
103.244
95.1603
88.2451
82.2614
77.0356
72.4305
68.3446
64.692
61.4111
58.4439
596.717
413.661
313.349
251.061
208.966
178.746
156.054
138.415
124.324
112.816
103.245
95.1606
88.2455
82.2617
77.0361
72.4309
68.3452
64.6926
61.4118
58.4446
596.716
413.661
313.349
251.061
208.966
178.746
156.054
138.415
124.325
112.816
103.245
95.161
88.2458
82.2622
77.0366
72.4315
68.3458
64.6933
61.4125
58.4454
596.716
413.661
313.349
251.061
208.967
178.746
156.054
138.415
124.325
112.816
103.245
95.1614
88.2462
82.2626
77.037
72.432
68.3464
64.6939
61.4132
58.4462
596.716
413.661
313.349
251.061
208.967
178.747
156.055
138.416
124.325
112.817
103.246
95.1617
88.2466
82.2631
77.0375
72.4326
68.3469
64.6946
61.4139
58.4469
596.716
413.661
313.349
251.061
208.967
178.747
156.055
138.416
124.325
112.817
103.246
95.1621
88.247
82.2635
77.038
72.4331
68.3475
64.6952
61.4145
58.4476
596.716
413.661
313.349
251.062
208.967
178.747
156.055
138.416
124.326
112.817
103.246
95.1624
88.2474
82.2639
77.0386
72.4336
68.3482
64.6958
61.4153
58.4483
596.716
413.661
313.349
251.062
208.967
178.747
156.055
138.416
124.326
112.818
103.247
95.1628
88.2479
82.2644
77.0391
72.4341
68.3488
64.6964
61.416
58.4489
596.716
413.661
313.349
251.062
208.967
178.747
156.055
138.416
124.326
112.818
103.247
95.1631
88.2483
82.2648
77.0396
72.4347
68.3494
64.6971
61.4166
58.4496
596.716
413.661
313.349
251.062
208.967
178.747
156.056
138.417
124.326
112.818
103.247
95.1635
88.2487
82.2653
77.04
72.4352
68.3499
64.6977
61.4173
58.4503
596.716
413.661
313.349
251.062
208.967
178.747
156.056
138.417
124.327
112.818
103.248
95.1638
88.2491
82.2657
77.0405
72.4357
68.3505
64.6983
61.4179
58.451
596.716
413.661
313.349
251.062
208.967
178.748
156.056
138.417
124.327
112.819
103.248
95.1642
88.2495
82.2661
77.041
72.4362
68.3511
64.6988
61.4185
58.4516
596.716
413.661
313.349
251.062
208.967
178.748
156.056
138.417
124.327
112.819
103.248
95.1646
88.2499
82.2666
77.0415
72.4367
68.3516
64.6994
61.4191
58.4522
596.716
413.661
313.349
251.062
208.968
178.748
156.056
138.417
124.327
112.819
103.248
95.1649
88.2503
82.267
77.0419
72.4372
68.3521
64.6999
61.4197
58.4527
596.716
413.661
313.349
251.062
208.968
178.748
156.056
138.418
124.327
112.819
103.249
95.1653
88.2506
82.2674
77.0423
72.4377
68.3525
64.7005
61.4201
58.4534
596.716
413.661
313.349
251.062
208.968
178.748
156.056
138.418
124.328
112.82
103.249
95.1656
88.251
82.2678
77.0428
72.4381
68.3531
64.701
61.4207
58.4538
596.716
413.661
313.349
251.062
208.968
178.748
156.057
138.418
124.328
112.82
103.249
95.1659
88.2513
82.2682
77.0432
72.4385
68.3535
64.7014
61.4211
58.4542
596.716
413.661
313.349
251.062
208.968
178.748
156.057
138.418
124.328
112.82
103.25
95.1662
88.2516
82.2685
77.0436
72.4389
68.3539
64.7018
61.4216
58.4547
596.716
413.661
313.349
251.062
208.968
178.748
156.057
138.418
124.328
112.82
103.25
95.1665
88.2519
82.2689
77.0438
72.4393
68.3542
64.7022
61.4219
58.4551
596.716
413.661
313.349
251.062
208.968
178.748
156.057
138.418
124.328
112.821
103.25
95.1667
88.2522
82.2691
77.0442
72.4396
68.3546
64.7025
61.4223
58.4554
596.716
413.661
313.349
251.062
208.968
178.749
156.057
138.419
124.329
112.821
103.25
95.1669
88.2524
82.2694
77.0445
72.4399
68.3549
64.7028
61.4226
58.4557
596.716
413.661
313.349
251.062
208.968
178.749
156.057
138.419
124.329
112.821
103.25
95.1671
88.2527
82.2696
77.0447
72.4401
68.3551
64.7031
61.4228
58.4559
596.716
413.661
313.349
251.062
208.968
178.749
156.057
138.419
124.329
112.821
103.251
95.1673
88.2528
82.2698
77.0449
72.4403
68.3554
64.7033
61.4231
58.4562
596.716
413.661
313.349
251.062
208.968
178.749
156.057
138.419
124.329
112.821
103.251
95.1674
88.253
82.2699
77.0451
72.4405
68.3555
64.7035
61.4232
58.4563
596.716
413.661
313.349
251.062
208.968
178.749
156.057
138.419
124.329
112.821
103.251
95.1675
88.2531
82.2701
77.0452
72.4407
68.3557
64.7036
61.4234
58.4565
596.716
413.661
313.349
251.062
208.968
178.749
156.057
138.419
124.329
112.821
103.251
95.1677
88.2532
82.2702
77.0453
72.4408
68.3557
64.7038
61.4234
58.4566
596.716
413.661
313.349
251.062
208.968
178.749
156.058
138.419
124.329
112.821
103.251
95.1677
88.2533
82.2703
77.0454
72.4408
68.3559
64.7038
61.4235
58.4566
596.716
413.661
313.349
251.062
208.968
178.749
156.058
138.419
124.329
112.822
103.251
95.1678
88.2533
82.2704
77.0454
72.4409
68.3558
64.7039
61.4235
58.4567
596.716
413.661
313.349
251.062
208.968
178.749
156.058
138.419
124.329
112.822
103.251
95.1678
88.2534
82.2703
77.0455
72.4409
68.3559
64.7038
61.4236
58.4567
596.716
413.661
313.35
251.062
208.968
178.749
156.058
138.419
124.329
112.822
103.251
95.1678
88.2534
82.2703
77.0455
72.4409
68.3559
64.7038
61.4236
58.4566
596.716
413.661
313.35
251.062
208.968
178.749
156.058
138.419
124.329
112.822
103.251
95.1678
88.2534
82.2703
77.0455
72.4409
68.3559
64.7038
61.4235
58.4566
596.716
413.661
313.35
251.062
208.968
178.749
156.058
138.419
124.329
112.822
103.251
95.1678
88.2534
82.2703
77.0454
72.4409
68.3559
64.7038
61.4235
58.4565
596.716
413.661
313.35
251.062
208.968
178.749
156.058
138.419
124.329
112.822
103.251
95.1678
88.2533
82.2703
77.0454
72.4408
68.3558
64.7037
61.4234
58.4565
596.716
413.661
313.35
251.062
208.968
178.749
156.058
138.419
124.329
112.821
103.251
95.1677
88.2533
82.2702
77.0453
72.4408
68.3557
64.7036
61.4233
58.4564
596.716
413.661
313.35
251.062
208.968
178.749
156.058
138.419
124.329
112.821
103.251
95.1677
88.2532
82.2702
77.0453
72.4407
68.3557
64.7035
61.4232
58.4563
596.716
413.661
313.35
251.062
208.968
178.749
156.058
138.419
124.329
112.821
103.251
95.1676
88.2532
82.2701
77.0452
72.4406
68.3556
64.7035
61.4232
58.4562
596.716
413.661
313.35
251.062
208.968
178.749
156.058
138.419
124.329
112.821
103.251
95.1676
88.2531
82.2701
77.0451
72.4405
68.3555
64.7034
61.4231
58.4561
596.716
413.661
313.35
251.062
208.968
178.749
156.058
138.419
124.329
112.821
103.251
95.1675
88.2531
82.27
77.0451
72.4405
68.3554
64.7033
61.423
58.456
596.716
413.661
313.35
251.062
208.968
178.749
156.057
138.419
124.329
112.821
103.251
95.1675
88.253
82.2699
77.045
72.4404
68.3553
64.7032
61.4229
58.4559
596.716
413.661
313.35
251.062
208.968
178.749
156.057
138.419
124.329
112.821
103.251
95.1674
88.253
82.2699
77.0449
72.4403
68.3552
64.7031
61.4228
58.4558
596.716
413.661
313.35
251.062
208.968
178.749
156.057
138.419
124.329
112.821
103.251
95.1674
88.2529
82.2698
77.0449
72.4402
68.3552
64.703
61.4227
58.4556
596.716
413.661
313.35
251.062
208.968
178.749
156.057
138.419
124.329
112.821
103.251
95.1673
88.2529
82.2697
77.0448
72.4402
68.3551
64.7029
61.4226
58.4556
596.716
413.661
313.35
251.062
208.968
178.749
156.057
138.419
124.329
112.821
103.251
95.1673
88.2528
82.2697
77.0447
72.4401
68.355
64.7028
61.4225
58.4555
596.716
413.661
313.35
251.062
208.968
178.749
156.057
138.419
124.329
112.821
103.251
95.1673
88.2528
82.2696
77.0447
72.44
68.3549
64.7028
61.4224
58.4554
596.716
413.661
313.35
251.062
208.968
178.749
156.057
138.419
124.329
112.821
103.251
95.1672
88.2527
82.2696
77.0446
72.44
68.3549
64.7027
61.4223
58.4553
596.716
413.661
313.35
251.062
208.968
178.749
156.057
138.419
124.329
112.821
103.251
95.1672
88.2526
82.2696
77.0445
72.44
68.3547
64.7027
61.4222
58.4553
596.716
413.661
313.35
251.062
208.968
178.749
156.057
138.419
124.329
112.821
103.251
95.1672
88.2526
82.2695
77.0445
72.4399
68.3547
64.7025
61.4222
58.4551
596.717
413.661
313.35
251.063
208.968
178.749
156.057
138.419
124.329
112.821
103.251
95.1671
88.2526
82.2695
77.0445
72.4398
68.3547
64.7025
61.4221
58.4551
596.717
413.661
313.35
251.063
208.968
178.749
156.057
138.419
124.329
112.821
103.25
95.1671
88.2526
82.2694
77.0444
72.4397
68.3546
64.7024
61.422
58.455
596.717
413.662
313.35
251.063
208.968
178.749
156.057
138.419
124.329
112.821
103.25
95.1671
88.2525
82.2694
77.0443
72.4398
68.3545
64.7024
61.4219
58.455
596.717
413.662
313.35
251.063
208.968
178.749
156.057
138.419
124.329
112.821
103.25
95.1671
88.2525
82.2694
77.0443
72.4397
68.3545
64.7024
61.4218
58.4549
596.717
413.662
313.35
251.063
208.968
178.749
156.057
138.419
124.329
112.821
103.25
95.167
88.2525
82.2693
77.0443
72.4396
68.3545
64.7023
61.4219
58.4548
3488.02
3491.45
3261.76
3085.56
3019.6
2987.13
2974.45
2960.93
2948.95
2930.94
2913.79
2894.8
2877.68
2859.49
2844.2
2828.01
2815.01
2800.6
2789.26
2776.24
2766.19
2754.49
2745.66
2735.11
2727.22
2717.48
2710.36
2701.36
2694.95
2686.59
2680.83
2673.06
2667.81
2660.46
2655.64
2648.7
2644.3
2637.72
2633.7
2627.47
2623.78
2617.81
2614.41
2608.68
2605.54
2600.04
2597.14
2591.85
2589.19
2584.08
2581.61
2576.66
2574.36
2569.59
2567.44
2562.82
2560.82
2556.35
2554.49
2550.14
2548.41
2544.17
2542.55
2538.42
2536.91
2532.88
2531.49
2527.54
2526.26
2522.38
2521.2
2517.39
2516.29
2512.55
2511.54
2507.87
2506.95
2503.3
2502.52
2498.7
1179.95
1569.07
1691.57
1760.55
1717.9
1599.58
1503.47
1422.37
1362.85
1318.64
1286.83
1260.7
1240.49
1222.71
1208.62
1195.4
1184.4
1173.46
1164.46
1155.23
1147.79
1139.87
1133.63
1126.63
1121.21
1114.98
1110.28
1104.68
1100.57
1095.5
1091.88
1087.22
1083.97
1079.69
1076.79
1072.82
1070.23
1066.53
1064.2
1060.72
1058.61
1055.32
1053.41
1050.29
1048.57
1045.59
1044.06
1041.2
1039.81
1037.06
1035.83
1033.15
1032.06
1029.45
1028.5
1025.94
1025.13
1022.61
1021.92
1019.44
1018.86
1016.41
1015.95
1013.51
1013.16
1010.74
1010.5
1008.09
1007.95
1005.53
1005.47
1003.11
1003.02
1000.83
1000.69
998.619
998.451
996.49
996.272
994.459
257.808
541.462
763.063
965.254
1027.69
1001.16
917.307
865.12
825.245
790.56
764.54
743.28
726.743
712.772
701.643
691.499
683.054
675.004
668.361
661.751
656.419
650.88
646.502
641.638
637.876
633.594
630.374
626.565
623.781
620.374
617.953
614.826
612.664
609.797
607.888
605.25
603.559
601.111
599.611
597.315
595.957
593.794
592.573
590.531
589.439
587.503
586.528
584.688
583.801
582.046
581.238
579.559
578.826
577.219
576.555
575.012
574.411
572.924
572.378
570.938
570.445
569.048
568.607
567.249
566.858
565.533
565.191
563.893
563.597
562.319
562.06
560.815
560.573
559.382
559.152
558.007
557.786
556.69
556.474
555.359
81.2271
117.041
239.236
373.197
542.157
661.042
677.032
659.295
625.732
596.581
573.388
552.343
535.5
521.284
509.445
498.757
490.12
482.219
475.658
469.354
464.22
459.047
454.848
450.382
446.864
443.021
440.056
436.685
434.158
431.176
428.996
426.271
424.353
421.878
420.205
417.946
416.477
414.396
413.105
411.162
410.001
408.18
407.144
405.438
404.516
402.913
402.091
400.579
399.83
398.398
397.713
396.357
395.73
394.447
393.873
392.657
392.129
390.971
390.48
389.374
388.918
387.86
387.439
386.425
386.037
385.065
384.706
383.768
383.437
382.527
382.222
381.341
381.058
380.21
379.948
379.129
378.883
378.095
377.875
377.012
54.6413
51.1531
82.7949
99.7358
181.397
273.668
405.849
484.97
502.396
496.504
479.111
460.338
445.02
430.635
417.818
406.344
396.89
388.158
380.835
374.002
368.331
362.739
358.089
353.453
349.714
345.808
342.688
339.306
336.68
333.715
331.449
328.782
326.824
324.436
322.743
320.581
319.101
317.126
315.83
313.997
312.843
311.14
310.116
308.534
307.627
306.15
305.343
303.957
303.224
301.918
301.251
300.022
299.416
298.259
297.705
296.615
296.106
295.074
294.6
293.62
293.179
292.249
291.84
290.956
290.576
289.736
289.38
288.577
288.243
287.473
287.16
286.42
286.129
285.418
285.147
284.462
284.211
283.55
283.328
282.581
54.8244
50.6161
50.6117
51.4113
62.9784
73.053
140.778
215.744
315.753
378.766
398.362
396.745
388.376
376.442
365.451
355.212
345.65
336.333
328.457
321.105
314.77
308.59
303.347
298.289
294.082
289.809
286.31
282.655
279.736
276.542
274.04
271.259
269.135
266.68
264.847
262.639
261.041
259.042
257.64
255.808
254.572
252.888
251.798
250.246
249.281
247.841
246.981
245.635
244.859
243.599
242.899
241.719
241.087
239.979
239.406
238.365
237.84
236.856
236.372
235.441
234.994
234.113
233.701
232.866
232.484
231.694
231.337
230.586
230.25
229.533
229.218
228.534
228.24
227.586
227.312
226.684
226.43
225.825
225.597
224.911
55.4519
52.7727
49.9854
48.1371
46.262
45.9108
52.6865
61.0847
112.239
168.058
247.634
301.375
324.616
327.552
324.532
317.793
310.021
302.441
295.525
288.458
281.957
275.645
270.154
264.805
260.138
255.474
251.578
247.594
244.314
240.811
237.989
234.969
232.59
229.934
227.873
225.501
223.709
221.58
220.016
218.103
216.737
214.999
213.799
212.21
211.143
209.678
208.725
207.364
206.513
205.25
204.486
203.309
202.621
201.521
200.9
199.868
199.302
198.328
197.81
196.892
196.418
195.552
195.118
194.298
193.899
193.123
192.753
192.015
191.67
190.969
190.646
189.98
189.679
189.044
188.764
188.157
187.895
187.314
187.076
186.415
55.4793
53.3683
50.599
48.871
46.3
44.9005
42.7162
42.0747
46.0596
51.264
85.6148
126.875
189.031
238.096
265.709
275.905
275.523
273.078
268.046
262.522
257.358
252.224
247.307
242.264
237.578
232.93
228.91
224.787
221.242
217.535
214.467
211.211
208.57
205.67
203.363
200.785
198.779
196.476
194.71
192.644
191.107
189.245
187.897
186.203
185.002
183.447
182.374
180.953
180.005
178.696
177.849
176.635
175.873
174.743
174.055
172.999
172.374
171.382
170.815
169.884
169.369
168.493
168.024
167.196
166.766
165.982
165.586
164.842
164.477
163.771
163.433
162.763
162.449
161.812
161.52
160.913
160.64
160.06
159.811
159.152
55.5532
53.371
50.8072
49.0237
46.7756
45.1612
43.1475
41.7034
39.5656
37.1389
40.4221
42.9853
64.8826
90.911
136.525
182.694
214.167
231.34
236.672
236.253
234.228
230.795
226.939
223.096
219.429
215.588
211.989
208.174
204.722
201.154
198.113
194.816
192.045
189.01
186.554
183.839
181.668
179.216
177.271
175.044
173.336
171.328
169.821
167.992
166.646
164.974
163.772
162.247
161.185
159.784
158.834
157.541
156.687
155.49
154.719
153.604
152.908
151.872
151.246
150.277
149.711
148.801
148.286
147.427
146.957
146.145
145.716
144.948
144.555
143.827
143.467
142.777
142.444
141.789
141.481
140.857
140.57
139.975
139.713
139.038
55.6756
53.2698
50.9745
48.9413
47.0149
45.2089
43.59
41.9157
40.4292
38.8205
37.324
35.3938
36.3785
37.1001
48.776
62.4691
93.7374
130.598
165.173
188.791
200.947
205.56
205.303
204.035
201.777
198.866
196.104
193.178
190.473
187.539
184.917
181.933
179.347
176.473
174.116
171.444
169.255
166.76
164.75
162.455
160.649
158.543
156.915
154.975
153.512
151.738
150.427
148.792
147.615
146.107
145.051
143.661
142.713
141.427
140.57
139.374
138.6
137.489
136.795
135.76
135.133
134.162
133.593
132.679
132.16
131.299
130.831
130.02
129.595
128.828
128.441
127.714
127.358
126.669
126.341
125.686
125.381
124.758
124.479
123.775
55.731
53.2221
51.0361
48.9012
47.0733
45.2217
43.678
42.0321
40.7144
39.2003
38.011
36.5381
35.3553
34.0065
33.3835
32.8203
38.1896
43.7271
60.2111
86.2319
116.735
144.537
164.308
175.136
179.961
180.3
179.637
178.024
176.226
173.935
171.949
169.634
167.657
165.315
163.357
160.984
159.028
156.712
154.859
152.682
150.931
148.849
147.205
145.245
143.75
141.931
140.568
138.865
137.611
136.023
134.889
133.419
132.393
131.026
130.094
128.817
127.971
126.778
126.016
124.903
124.214
123.168
122.543
121.559
120.992
120.065
119.554
118.68
118.22
117.392
116.975
116.19
115.81
115.067
114.715
114.014
113.687
113.024
112.725
111.98
55.7215
53.2432
51.016
48.9334
47.0444
45.2695
43.6442
42.1153
40.6942
39.3705
38.096
36.9251
35.7719
34.6515
33.5686
32.5794
31.5549
30.2761
31.929
33.3412
41.3701
52.4463
74.2479
99.0856
122.783
141.122
152.309
157.714
159.579
159.308
158.511
156.988
155.668
153.884
152.417
150.55
149.1
147.221
145.745
143.874
142.365
140.49
139.013
137.203
135.822
134.073
132.759
131.078
129.835
128.245
127.099
125.6
124.542
123.125
122.151
120.818
119.929
118.674
117.863
116.681
115.942
114.827
114.156
113.104
112.498
111.501
110.953
110.006
109.512
108.613
108.167
107.315
106.909
106.103
105.727
104.968
104.619
103.903
103.582
102.783
55.7151
53.2522
51.0115
48.9403
47.0431
45.2743
43.6484
42.1176
40.7091
39.3718
38.1377
36.9566
35.8694
34.7997
33.836
32.851
31.9505
31.0082
30.1471
29.3097
28.8365
28.6102
31.5825
34.9047
44.4925
59.6764
80.2919
100.652
118.233
130.737
137.873
141.12
142
141.715
141.025
139.766
138.774
137.382
136.261
134.781
133.67
132.184
131.048
129.538
128.405
126.859
125.729
124.201
123.105
121.633
120.58
119.14
118.131
116.735
115.789
114.459
113.58
112.308
111.489
110.271
109.513
108.353
107.661
106.558
105.931
104.877
104.306
103.295
102.778
101.814
101.347
100.432
100.003
99.1387
98.7397
97.9232
97.5527
96.7815
96.4379
95.5789
55.7208
53.2474
51.0198
48.9325
47.054
45.2639
43.6621
42.1056
40.7271
39.3583
38.1628
36.9449
35.9038
34.8064
33.8947
32.8986
32.0899
31.1696
30.4462
29.5613
28.9244
28.0884
27.5278
26.6975
26.9683
27.3652
31.0305
35.845
46.57
61.3237
78.9151
95.4675
109.036
118.551
123.887
126.434
127.074
126.897
126.378
125.383
124.612
123.505
122.685
121.463
120.629
119.408
118.579
117.326
116.485
115.224
114.361
113.081
112.224
110.953
110.133
108.894
108.102
106.883
106.12
104.927
104.209
103.056
102.39
101.274
100.659
99.5779
99.0092
97.9643
97.4434
96.4408
95.9631
95.0064
94.5606
93.6539
93.2366
92.3765
91.987
91.1742
90.8088
89.8978
55.7236
53.2482
51.0218
48.934
47.0547
45.2665
43.6608
42.1097
40.7238
39.3643
38.1571
36.9546
35.8949
34.8225
33.8854
32.9227
32.0878
31.2182
30.4669
29.6776
28.9947
28.2653
27.6442
26.9542
26.3804
25.8149
25.3045
24.641
25.4846
26.1092
29.593
34.8864
45.0898
58.0353
72.7748
86.6477
97.9799
106.099
110.947
113.406
114.273
114.176
113.93
113.141
112.574
111.651
111.052
110.081
109.454
108.429
107.813
106.784
106.164
105.103
104.482
103.402
102.766
101.677
101.046
99.9599
99.355
98.2823
97.7003
96.6345
96.0758
95.0257
94.4977
93.4742
92.9794
91.9878
91.5174
90.5627
90.1147
89.1973
88.7743
87.899
87.5002
86.6677
86.289
85.3467
55.7188
53.2578
51.0142
48.946
47.0442
45.2816
43.6471
42.128
40.7068
39.3856
38.137
36.9792
35.8716
34.8506
33.8598
32.9541
32.0612
31.2547
30.4418
29.7234
28.9768
28.3327
27.6454
27.0633
26.4214
25.9012
25.2925
24.8222
24.2609
23.8737
23.4206
23.2606
23.6871
24.3888
27.498
32.0242
40.8539
51.4309
63.9061
75.7949
86.0874
93.7551
98.7674
101.64
102.97
103.18
103.066
102.654
102.227
101.446
100.988
100.185
99.7508
98.8787
98.4341
97.5486
97.1112
96.2254
95.7743
94.8659
94.4122
93.4878
93.0242
92.086
91.6231
90.6858
90.2346
89.3134
88.8715
87.9603
87.5263
86.6274
86.2062
85.3295
84.926
84.0795
83.6921
82.8744
82.4991
81.56
55.7153
53.2647
51.0106
48.9529
47.0405
45.2882
43.6435
42.1342
40.7036
39.3912
38.1344
36.984
35.8698
34.8545
33.8588
32.9571
32.0611
31.2561
30.444
29.7224
28.982
28.3316
27.6541
27.0648
26.441
25.9063
25.3291
24.8397
24.3054
23.8563
23.3623
22.9524
22.4995
22.1475
21.7908
21.6238
21.6962
22.8324
24.6733
28.1366
34.9405
43.2609
53.5205
63.8817
73.3971
81.3094
86.835
90.5068
92.514
93.4135
93.5427
93.3893
93.1403
92.5598
92.2267
91.5325
91.1948
90.5006
90.161
89.4341
89.0897
88.3562
88.0153
87.2812
86.9315
86.1735
85.8232
85.0543
84.6967
83.9121
83.553
82.7632
82.4085
81.6288
81.2797
80.5107
80.1638
79.4043
79.0614
78.1643
55.7175
53.2652
51.0133
48.9524
47.0437
45.2866
43.6476
42.1314
40.7089
39.3869
38.1411
36.9779
35.8784
34.8462
33.8695
32.9466
32.0742
31.2429
30.4601
29.7062
29.0014
28.3132
27.6765
27.0446
26.468
25.8842
25.3611
24.8188
24.3437
23.8362
23.4054
22.9262
22.5364
22.0847
21.7291
21.3027
20.9817
20.5692
20.3024
20.0443
20.0339
20.8328
21.885
24.3612
28.8055
34.5491
42.847
51.3755
60.2402
68.1084
74.5737
79.2035
82.2762
84.0012
84.9187
85.046
84.9857
84.7064
84.4731
83.9377
83.6622
83.0746
82.8116
82.2134
81.9552
81.3382
81.0791
80.4544
80.2012
79.5791
79.3197
78.6818
78.4163
77.7747
77.4986
76.8485
76.562
75.9094
75.6287
74.8135
55.7242
53.2615
51.0212
48.9474
47.0529
45.2802
43.658
42.1237
40.7204
39.3781
38.1536
36.9679
35.8918
34.8353
33.8838
32.9348
32.0892
31.2303
30.4758
29.693
29.0174
28.2994
27.693
27.0301
26.4848
25.8692
25.3783
24.8033
24.3612
23.8211
23.4234
22.9129
22.5555
22.0711
21.75
21.2869
21.0003
20.5538
20.2989
19.8693
19.643
19.2429
19.0741
18.7495
18.7197
18.8273
19.505
20.4535
23.4422
26.7492
32.744
39.2118
46.9153
54.2684
61.1942
66.9545
71.3181
74.2382
76.1904
77.1033
77.5906
77.539
77.4743
77.1126
76.9462
76.4742
76.2688
75.7597
75.5501
75.0503
74.8459
74.3407
74.1267
73.6161
73.4007
72.9005
72.6776
72.177
71.9651
71.2784
55.7268
53.2633
51.023
48.9495
47.0539
45.2828
43.6581
42.1269
40.7195
39.3821
38.1516
36.9731
35.8885
34.8417
33.8789
32.9428
32.0825
31.2403
30.467
29.7053
29.0062
28.3142
27.679
27.0479
26.4677
25.8904
25.3577
24.8283
24.3367
23.8505
23.3942
22.9473
22.5215
22.1107
21.7108
21.3338
20.9553
20.6107
20.2493
19.9343
19.5884
19.3014
18.9688
18.7097
18.391
18.1603
17.8677
17.6815
17.4529
17.4289
17.6185
17.9522
19.297
20.9068
24.6454
28.4905
34.5466
40.4532
47.2416
53.119
58.8481
62.998
66.5021
68.4386
70.0234
70.5669
70.9612
70.8947
70.8168
70.541
70.3892
70.0079
69.8287
69.4114
69.2185
68.8076
68.6141
68.2292
68.0613
67.4811
55.7281
53.2665
51.0239
48.9528
47.0545
45.2862
43.6585
42.1305
40.7197
39.3859
38.1517
36.977
35.8885
34.8458
33.879
32.9468
32.0828
31.2441
30.4677
29.7086
29.0075
28.317
27.6812
27.0497
26.471
25.8908
25.3624
24.827
24.3433
23.8469
23.4032
22.941
22.5335
22.1011
21.7265
21.3201
20.9758
20.592
20.2759
19.9113
19.6218
19.2735
19.0093
18.6746
18.4339
18.1111
17.8933
17.5809
17.3849
17.0836
16.9121
16.6294
16.4959
16.2722
16.2309
16.2897
16.6691
17.1964
18.9095
20.7156
24.4181
28.3352
33.7616
38.936
44.7663
49.6682
54.4945
57.9681
60.962
62.6411
64.0788
64.5697
65.0155
64.9779
64.9533
64.7303
64.5945
64.3111
64.1939
63.6865
55.7325
53.2708
51.0284
48.9569
47.0591
45.2901
43.6633
42.1343
40.7247
39.3894