/*--------------------------------*- C++ -*----------------------------------*\
| =========                 |                                                 |
| \\      /  F ield         | OpenFOAM: The Open Source CFD Toolbox           |
|  \\    /   O peration     | Version:  v1912                                 |
|   \\  /    A nd           | Website:  www.openfoam.com                      |
|    \\/     M anipulation  |                                                 |
\*---------------------------------------------------------------------------*/
FoamFile
{
    version     2.0;
    format      ascii;
    class       volScalarField;
    location    "900";
    object      p;
}
// * * * * * * * * * * * * * * * * * * * * * * * * * * * * * * * * * * * * * //

dimensions      [0 2 -2 0 0 0 0];


internalField   nonuniform List<scalar> 
10000
(
0.00141753
0.00263969
0.00236626
0.00222276
0.00221454
0.00225229
0.00226338
0.00230189
0.00232158
0.0023807
0.00241402
0.00249761
0.0025473
0.00267029
0.00274689
0.00294469
0.00307652
0.00346894
0.00377498
0.00509683
0.00143348
0.00262334
0.002364
0.00222215
0.00221419
0.00225214
0.00226323
0.00230187
0.00232146
0.00238075
0.00241387
0.00249773
0.00254709
0.00267052
0.00274653
0.00294511
0.00307588
0.00346945
0.0037747
0.00507447
0.00145459
0.0026012
0.00236307
0.00222238
0.00221447
0.00225219
0.00226347
0.00230181
0.00232169
0.00238058
0.00241415
0.00249743
0.00254748
0.00267002
0.00274713
0.00294424
0.00307692
0.00346736
0.0037777
0.00502971
0.00147719
0.00257921
0.00236273
0.00222285
0.00221435
0.00225228
0.00226325
0.00230194
0.00232142
0.00238077
0.00241381
0.0024977
0.00254704
0.00267039
0.00274656
0.00294465
0.00307622
0.00346714
0.00377695
0.00498173
0.00150066
0.00255669
0.00236201
0.00222278
0.00221432
0.00225202
0.00226338
0.00230172
0.00232162
0.00238052
0.00241406
0.00249739
0.00254732
0.00267
0.00274683
0.00294416
0.00307636
0.00346595
0.00377521
0.00493479
0.00152475
0.00253381
0.00236077
0.0022231
0.00221415
0.00225214
0.00226327
0.00230186
0.00232148
0.00238063
0.00241389
0.00249745
0.00254717
0.00266994
0.00274674
0.00294376
0.00307648
0.0034639
0.00377377
0.00488664
0.00154958
0.00251032
0.00235946
0.0022233
0.00221416
0.00225196
0.00226333
0.00230171
0.00232152
0.00238047
0.00241392
0.00249729
0.00254715
0.00266975
0.00274666
0.00294334
0.00307642
0.00346157
0.00377198
0.00483684
0.00157501
0.00248659
0.0023577
0.00222368
0.00221398
0.00225191
0.00226325
0.0023017
0.00232148
0.00238041
0.00241388
0.00249716
0.00254713
0.00266948
0.00274664
0.00294273
0.00307638
0.00345874
0.00376957
0.00478579
0.0016011
0.00246249
0.00235567
0.00222401
0.00221388
0.00225176
0.00226324
0.00230162
0.00232145
0.0023803
0.00241384
0.00249699
0.00254706
0.00266917
0.00274657
0.00294197
0.00307635
0.00345527
0.00376662
0.0047336
0.00162762
0.00243827
0.00235323
0.00222445
0.00221372
0.00225162
0.0022632
0.00230153
0.00232142
0.00238017
0.00241379
0.00249678
0.002547
0.00266879
0.00274648
0.00294107
0.00307625
0.00345118
0.00376308
0.0046803
0.00165459
0.00241395
0.00235043
0.00222492
0.00221355
0.00225144
0.00226315
0.00230143
0.00232137
0.00238001
0.00241373
0.00249653
0.00254693
0.00266833
0.00274638
0.00293997
0.0030761
0.0034464
0.00375884
0.00462593
0.00168195
0.00238962
0.0023472
0.00222543
0.00221337
0.00225122
0.00226309
0.0023013
0.00232132
0.00237983
0.00241366
0.00249623
0.00254683
0.00266779
0.00274625
0.00293868
0.00307588
0.0034409
0.00375382
0.00457061
0.00170963
0.00236537
0.00234353
0.00222598
0.00221316
0.00225097
0.00226302
0.00230115
0.00232126
0.0023796
0.00241358
0.00249587
0.00254672
0.00266714
0.00274609
0.00293715
0.00307557
0.00343461
0.00374795
0.0045144
0.00173751
0.00234133
0.00233942
0.00222656
0.00221295
0.00225067
0.00226293
0.00230096
0.00232118
0.00237934
0.00241348
0.00249545
0.00254659
0.00266638
0.0027459
0.00293538
0.00307514
0.0034275
0.00374114
0.0044574
0.00176547
0.00231762
0.00233486
0.00222716
0.00221271
0.00225032
0.00226283
0.00230075
0.00232109
0.00237903
0.00241336
0.00249497
0.00254643
0.0026655
0.00274566
0.00293333
0.00307456
0.00341952
0.00373329
0.00439972
0.00179341
0.00229437
0.00232982
0.00222777
0.00221247
0.00224993
0.0022627
0.0023005
0.00232098
0.00237867
0.00241322
0.0024944
0.00254625
0.00266448
0.00274537
0.00293096
0.00307379
0.00341063
0.00372429
0.00434146
0.00182123
0.0022717
0.00232433
0.00222836
0.00221222
0.00224947
0.00226256
0.00230022
0.00232086
0.00237825
0.00241306
0.00249375
0.00254602
0.0026633
0.00274502
0.00292827
0.00307281
0.00340078
0.00371405
0.00428275
0.00184878
0.00224972
0.00231837
0.00222893
0.00221195
0.00224896
0.00226239
0.00229988
0.00232071
0.00237777
0.00241287
0.00249299
0.00254576
0.00266195
0.00274458
0.0029252
0.00307155
0.00338995
0.00370247
0.00422369
0.00187593
0.00222859
0.00231197
0.00222945
0.00221169
0.00224838
0.00226218
0.00229949
0.00232054
0.00237722
0.00241265
0.00249213
0.00254545
0.0026604
0.00274406
0.00292174
0.00306998
0.0033781
0.00368942
0.0041644
0.00190247
0.0022085
0.00230516
0.00222989
0.00221142
0.00224772
0.00226195
0.00229904
0.00232035
0.00237659
0.00241239
0.00249115
0.00254509
0.00265865
0.00274342
0.00291785
0.00306803
0.0033652
0.00367482
0.004105
0.00192816
0.00218967
0.00229797
0.00223024
0.00221115
0.00224699
0.00226167
0.00229853
0.00232012
0.00237586
0.00241209
0.00249003
0.00254465
0.00265666
0.00274264
0.00291348
0.00306564
0.00335124
0.00365854
0.0040456
0.00195257
0.00217244
0.00229041
0.00223046
0.00221089
0.00224618
0.00226135
0.00229794
0.00231986
0.00237504
0.00241174
0.00248876
0.00254414
0.00265443
0.00274171
0.00290863
0.00306272
0.00333619
0.0036405
0.00398631
0.00197517
0.00215757
0.00228253
0.00223047
0.00221062
0.00224527
0.00226098
0.00229727
0.00231954
0.00237411
0.00241132
0.00248732
0.00254353
0.00265191
0.00274057
0.00290325
0.00305921
0.00332006
0.0036206
0.00392722
0.00199436
0.00214613
0.0022746
0.00223031
0.00221036
0.00224428
0.00226055
0.0022965
0.00231919
0.00237305
0.00241085
0.00248571
0.00254282
0.0026491
0.00273921
0.0028973
0.00305502
0.00330283
0.00359877
0.00386841
0.00200982
0.00213838
0.00226673
0.00222996
0.00221012
0.0022432
0.00226006
0.00229564
0.00231877
0.00237186
0.00241029
0.0024839
0.00254197
0.00264597
0.00273757
0.00289077
0.00305006
0.00328452
0.0035749
0.00381002
0.00202284
0.00213329
0.00225876
0.00222932
0.00220985
0.00224201
0.00225949
0.00229466
0.00231829
0.00237052
0.00240964
0.00248187
0.00254098
0.00264249
0.00273561
0.00288363
0.0030442
0.00326514
0.00354893
0.00375213
0.00203462
0.00212968
0.00225067
0.00222838
0.00220958
0.00224071
0.00225884
0.00229356
0.00231773
0.00236903
0.00240888
0.00247961
0.0025398
0.00263864
0.00273327
0.00287584
0.00303738
0.00324471
0.00352083
0.00369475
0.00204559
0.00212693
0.00224256
0.00222714
0.00220928
0.00223931
0.00225809
0.00229231
0.00231709
0.00236735
0.002408
0.0024771
0.00253841
0.0026344
0.0027305
0.00286738
0.00302946
0.00322322
0.00349059
0.00363791
0.00205587
0.00212487
0.00223456
0.0022256
0.00220895
0.00223779
0.00225725
0.00229092
0.00231634
0.00236548
0.00240696
0.00247431
0.00253676
0.00262974
0.00272722
0.00285822
0.00302035
0.00320072
0.00345821
0.00358163
0.00206541
0.00212344
0.00222671
0.00222372
0.00220856
0.00223614
0.00225628
0.00228936
0.00231547
0.00236341
0.00240576
0.00247123
0.00253484
0.00262464
0.00272337
0.00284835
0.00300995
0.00317719
0.00342371
0.00352591
0.00207422
0.00212257
0.00221907
0.00222151
0.00220809
0.00223437
0.00225519
0.00228762
0.00231446
0.0023611
0.00240435
0.00246784
0.00253257
0.00261907
0.00271886
0.00283774
0.00299815
0.00315268
0.00338715
0.00347072
0.00208227
0.00212221
0.00221169
0.00221896
0.00220752
0.00223245
0.00225395
0.00228567
0.0023133
0.00235855
0.00240271
0.00246411
0.00252992
0.00261301
0.00271362
0.00282637
0.00298486
0.00312719
0.00334861
0.00341604
0.00208958
0.00212228
0.00220461
0.00221607
0.00220682
0.0022304
0.00225256
0.00228352
0.00231194
0.00235574
0.0024008
0.00246003
0.00252683
0.00260643
0.00270755
0.0028142
0.00297
0.00310073
0.0033082
0.00336181
0.00209611
0.00212268
0.00219787
0.00221285
0.00220597
0.00222818
0.00225098
0.00228112
0.00231038
0.00235265
0.00239858
0.00245557
0.00252323
0.00259931
0.00270057
0.00280124
0.0029535
0.0030733
0.00326606
0.00330798
0.0021019
0.00212333
0.0021915
0.0022093
0.00220493
0.0022258
0.0022492
0.00227848
0.00230856
0.00234926
0.00239601
0.00245071
0.00251906
0.00259163
0.00269258
0.00278742
0.00293531
0.00304492
0.00322235
0.00325449
0.00210693
0.00212414
0.00218551
0.00220546
0.00220367
0.00222323
0.0022472
0.00227557
0.00230647
0.00234555
0.00239303
0.00244543
0.00251425
0.00258334
0.00268352
0.00277275
0.00291539
0.00301555
0.00317725
0.00320127
0.00211123
0.00212501
0.00217991
0.00220132
0.00220216
0.00222047
0.00224496
0.00227237
0.00230404
0.00234148
0.00238958
0.00243969
0.00250873
0.00257443
0.00267328
0.00275716
0.00289374
0.0029852
0.00313096
0.00314828
0.0021148
0.00212583
0.00217467
0.00219692
0.00220036
0.00221749
0.00224243
0.00226885
0.00230126
0.00233706
0.00238562
0.00243348
0.00250241
0.00256485
0.00266182
0.00274063
0.00287036
0.00295384
0.00308368
0.00309545
0.00211767
0.00212652
0.00216978
0.00219228
0.00219824
0.00221427
0.00223959
0.002265
0.00229805
0.00233224
0.00238108
0.00242675
0.00249524
0.00255456
0.00264904
0.0027231
0.00284529
0.00292146
0.00303563
0.00304276
0.00211983
0.00212699
0.00216519
0.00218741
0.00219575
0.00221079
0.0022364
0.0022608
0.00229437
0.00232701
0.0023759
0.00241948
0.00248714
0.00254351
0.00263492
0.00270453
0.00281858
0.00288804
0.00298701
0.00299019
0.00212132
0.00212714
0.00216084
0.00218235
0.00219286
0.00220702
0.00223283
0.00225621
0.00229017
0.00232131
0.00237002
0.00241161
0.00247803
0.00253165
0.00261941
0.00268485
0.00279032
0.00285356
0.00293803
0.00293774
0.00212211
0.00212692
0.00215666
0.00217709
0.00218954
0.00220292
0.00222883
0.00225122
0.0022854
0.00231514
0.00236336
0.00240311
0.00246787
0.00251893
0.0026025
0.00266402
0.00276058
0.00281803
0.00288885
0.00288544
0.00212226
0.00212624
0.00215256
0.00217165
0.00218576
0.00219847
0.00222436
0.00224579
0.00227998
0.00230842
0.00235587
0.00239392
0.00245659
0.00250525
0.00258417
0.00264198
0.00272949
0.00278145
0.00283964
0.00283333
0.0021217
0.00212506
0.00214846
0.00216602
0.00218146
0.00219363
0.00221935
0.00223988
0.00227387
0.00230114
0.0023475
0.00238398
0.00244416
0.00249058
0.00256443
0.00261867
0.00269714
0.00274385
0.00279054
0.00278147
0.00212048
0.00212331
0.00214424
0.00216019
0.00217664
0.00218836
0.00221378
0.00223346
0.002267
0.00229321
0.00233818
0.00237321
0.00243054
0.00247481
0.00254331
0.00259406
0.00266366
0.00270528
0.00274165
0.00272994
0.00211854
0.00212096
0.00213981
0.00215414
0.00217124
0.00218261
0.00220757
0.00222649
0.00225934
0.0022846
0.00232787
0.00236156
0.00241571
0.00245789
0.00252084
0.00256812
0.00262915
0.0026658
0.00269305
0.00267881
0.00211589
0.00211797
0.00213505
0.00214783
0.00216523
0.00217633
0.00220068
0.0022189
0.0022508
0.00227522
0.00231651
0.00234892
0.00239964
0.00243974
0.00249706
0.00254083
0.00259373
0.00262549
0.00264479
0.00262816
0.00211247
0.00211429
0.00212986
0.0021412
0.00215858
0.00216948
0.00219305
0.00221065
0.00224137
0.00226501
0.00230409
0.00233525
0.00238233
0.00242031
0.00247201
0.0025122
0.00255749
0.00258445
0.00259692
0.00257806
0.00210828
0.00210989
0.00212413
0.00213419
0.00215125
0.00216199
0.00218463
0.00220167
0.00223097
0.00225387
0.00229055
0.00232043
0.00236377
0.00239953
0.00244573
0.00248227
0.00252051
0.00254279
0.00254944
0.00252857
0.00210323
0.00210471
0.00211776
0.00212671
0.00214318
0.00215379
0.00217536
0.00219187
0.00221959
0.00224175
0.00227589
0.00230442
0.00234397
0.00237739
0.00241828
0.00245107
0.00248287
0.00250061
0.00250237
0.00247975
0.00209732
0.00209873
0.00211067
0.00211868
0.00213435
0.00214483
0.00216519
0.0021812
0.00220716
0.00222854
0.00226005
0.00228714
0.00232292
0.00235386
0.00238969
0.00241867
0.00244463
0.00245805
0.0024557
0.00243162
0.00209046
0.00209187
0.00210276
0.00211001
0.00212469
0.00213501
0.00215407
0.00216955
0.00219366
0.00221419
0.00224302
0.00226854
0.00230063
0.00232895
0.00236
0.00238516
0.00240586
0.00241519
0.00240943
0.00238418
0.00208263
0.00208408
0.00209396
0.00210057
0.00211415
0.00212427
0.00214195
0.00215685
0.00217905
0.0021986
0.00222478
0.00224857
0.0022771
0.00230266
0.00232925
0.00235061
0.00236661
0.00237215
0.00236354
0.00233743
0.00207373
0.00207528
0.00208418
0.00209027
0.00210267
0.00211251
0.00212877
0.00214303
0.00216328
0.00218174
0.0022053
0.00222722
0.00225233
0.00227505
0.00229748
0.00231513
0.00232692
0.00232901
0.00231804
0.00229135
0.00206375
0.00206541
0.00207335
0.002079
0.00209018
0.00209967
0.00211448
0.00212799
0.00214631
0.00216353
0.00218455
0.00220447
0.00222632
0.00224614
0.00226473
0.00227881
0.00228684
0.00228583
0.00227292
0.0022459
0.00205256
0.00205437
0.00206141
0.00206664
0.00207661
0.00208565
0.00209901
0.00211168
0.00212809
0.00214394
0.0021625
0.00218031
0.00219908
0.002216
0.00223104
0.00224173
0.00224642
0.00224267
0.00222816
0.00220104
0.00204015
0.00204208
0.00204826
0.0020531
0.00206189
0.00207037
0.00208232
0.00209402
0.00210858
0.00212294
0.00213914
0.00215477
0.00217063
0.00218468
0.00219645
0.00220398
0.0022057
0.00219957
0.00218376
0.00215673
0.0020264
0.00202847
0.00203385
0.00203827
0.00204593
0.00205376
0.00206432
0.00207496
0.00208773
0.0021005
0.00211445
0.00212785
0.00214097
0.00215225
0.00216101
0.00216563
0.00216472
0.00215655
0.00213971
0.00211291
0.00201128
0.00201344
0.00201809
0.00202206
0.00202866
0.00203575
0.00204497
0.00205446
0.0020655
0.00207662
0.0020884
0.0020996
0.00211013
0.00211877
0.00212477
0.00212674
0.00212353
0.00211362
0.00209598
0.00206953
0.00199467
0.00199691
0.00200091
0.00200439
0.00200999
0.00201627
0.0020242
0.00203248
0.00204185
0.00205128
0.00206099
0.00207003
0.00207814
0.00208429
0.00208777
0.00208737
0.00208215
0.0020708
0.00205255
0.00202654
0.00197654
0.00197881
0.00198221
0.00198518
0.00198984
0.00199527
0.00200195
0.00200898
0.00201674
0.00202449
0.00203223
0.00203919
0.00204504
0.00204887
0.00205007
0.00204757
0.0020406
0.00202806
0.0020094
0.00198389
0.00195677
0.00195907
0.00196194
0.00196436
0.00196814
0.00197268
0.00197817
0.00198393
0.00199016
0.00199625
0.00200213
0.0020071
0.00201085
0.00201257
0.00201172
0.00200736
0.0019989
0.00198541
0.00196648
0.00194154
0.00193534
0.00193762
0.00194
0.00194188
0.00194482
0.00194847
0.00195281
0.00195732
0.00196207
0.00196657
0.00197069
0.0019738
0.00197562
0.00197541
0.00197274
0.00196678
0.00195706
0.00194281
0.00192375
0.00189942
0.00191214
0.0019144
0.00191635
0.00191766
0.00191983
0.00192259
0.00192583
0.00192912
0.00193248
0.00193547
0.00193793
0.00193933
0.00193938
0.00193746
0.00193318
0.00192584
0.00191508
0.00190026
0.00188119
0.00185749
0.00188715
0.00188937
0.00189092
0.00189168
0.00189311
0.00189501
0.00189722
0.00189934
0.00190138
0.00190295
0.00190389
0.00190371
0.00190218
0.00189873
0.00189305
0.00188456
0.00187295
0.00185772
0.00183873
0.00181569
0.0018603
0.00186248
0.00186365
0.0018639
0.00186463
0.00186572
0.00186694
0.00186797
0.00186878
0.00186903
0.00186858
0.00186699
0.00186404
0.00185926
0.00185239
0.00184293
0.00183066
0.00181516
0.00179634
0.00177398
0.00183156
0.00183369
0.00183453
0.00183428
0.00183436
0.00183469
0.001835
0.00183501
0.00183469
0.00183375
0.00183204
0.00182918
0.00182499
0.00181907
0.00181119
0.00180095
0.00178818
0.00177254
0.00175396
0.00173229
0.00180091
0.001803
0.00180353
0.00180281
0.0018023
0.00180191
0.00180139
0.00180047
0.00179913
0.00179711
0.00179428
0.00179032
0.00178507
0.00177817
0.00176947
0.00175862
0.00174549
0.00172981
0.00171155
0.00169058
0.00176834
0.00177038
0.00177063
0.00176949
0.00176844
0.00176741
0.00176613
0.00176437
0.00176212
0.00175915
0.00175535
0.00175044
0.00174428
0.00173659
0.00172722
0.00171591
0.00170255
0.00168694
0.00166905
0.00164879
0.00173384
0.00173585
0.00173584
0.00173432
0.00173278
0.00173118
0.00172923
0.00172674
0.00172369
0.0017199
0.00171526
0.00170955
0.00170264
0.00169431
0.00168444
0.00167281
0.00165935
0.00164389
0.00162641
0.00160686
0.00169745
0.00169941
0.00169918
0.00169732
0.00169536
0.00169326
0.00169073
0.0016876
0.00168386
0.00167938
0.00167405
0.00166768
0.00166018
0.00165136
0.00164112
0.0016293
0.00161583
0.00160059
0.00158358
0.00156475
0.00165917
0.00166111
0.00166069
0.00165854
0.00165621
0.00165368
0.00165065
0.00164699
0.00164268
0.00163763
0.00163173
0.00162485
0.00161689
0.00160771
0.00159724
0.00158534
0.00157196
0.00155702
0.00154051
0.0015224
0.00161908
0.00162098
0.0016204
0.00161801
0.00161537
0.00161249
0.00160905
0.00160495
0.00160019
0.00159468
0.00158835
0.00158108
0.00157279
0.00156338
0.00155279
0.00154091
0.00152771
0.00151312
0.00149714
0.00147975
0.00157721
0.0015791
0.00157838
0.00157579
0.00157291
0.00156974
0.00156598
0.00156153
0.00155642
0.00155057
0.00154391
0.00153637
0.00152788
0.00151836
0.00150774
0.00149598
0.00148302
0.00146884
0.00145342
0.00143677
0.00153365
0.00153551
0.00153469
0.00153195
0.00152888
0.00152549
0.00152148
0.00151678
0.00151141
0.00150532
0.00149846
0.00149076
0.00148217
0.00147263
0.00146209
0.00145052
0.00143788
0.00142415
0.00140932
0.00139339
0.00148846
0.00149031
0.00148941
0.00148656
0.00148335
0.00147981
0.00147563
0.00147076
0.00146522
0.00145899
0.00145202
0.00144426
0.00143566
0.00142619
0.00141582
0.00140451
0.00139224
0.00137899
0.00136477
0.00134958
0.00144174
0.00144357
0.00144263
0.0014397
0.00143641
0.00143277
0.00142849
0.00142352
0.0014179
0.00141161
0.00140462
0.00139688
0.00138837
0.00137905
0.00136891
0.00135792
0.00134606
0.00133334
0.00131974
0.00130528
0.00139358
0.00139539
0.00139442
0.00139146
0.00138812
0.00138444
0.00138012
0.00137512
0.00136949
0.00136322
0.00135628
0.00134864
0.00134029
0.00133119
0.00132134
0.00131072
0.00129933
0.00128715
0.00127419
0.00126047
0.00134406
0.00134586
0.00134487
0.00134192
0.00133858
0.0013349
0.00133059
0.00132563
0.00132005
0.00131387
0.00130705
0.00129957
0.00129144
0.00128262
0.00127311
0.00126291
0.001252
0.00124039
0.00122808
0.00121509
0.00129329
0.00129507
0.00129409
0.00129116
0.00128785
0.00128422
0.00127997
0.00127509
0.00126962
0.00126358
0.00125694
0.00124969
0.00124182
0.00123333
0.00122421
0.00121445
0.00120406
0.00119304
0.00118138
0.00116912
0.00124135
0.00124312
0.00124216
0.00123928
0.00123604
0.00123248
0.00122833
0.00122358
0.00121827
0.00121241
0.00120599
0.00119901
0.00119146
0.00118333
0.00117463
0.00116535
0.00115549
0.00114506
0.00113407
0.00112252
0.00118835
0.00119009
0.00118917
0.00118636
0.0011832
0.00117975
0.00117574
0.00117114
0.00116602
0.00116039
0.00115424
0.00114756
0.00114036
0.00113262
0.00112436
0.00111558
0.00110627
0.00109644
0.0010861
0.00107527
0.00113436
0.00113607
0.00113519
0.00113247
0.00112942
0.0011261
0.00112225
0.00111784
0.00111294
0.00110757
0.00110171
0.00109536
0.00108853
0.00108121
0.00107341
0.00106513
0.00105638
0.00104716
0.00103748
0.00102735
0.00107945
0.00108114
0.00108031
0.00107769
0.00107477
0.00107159
0.00106792
0.00106372
0.00105907
0.00105397
0.00104842
0.00104243
0.00103599
0.0010291
0.00102177
0.00101401
0.00100582
0.000997201
0.000988166
0.000978723
0.0010237
0.00102536
0.00102458
0.00102207
0.00101929
0.00101628
0.0010128
0.00100883
0.00100443
0.00099963
0.000994412
0.000988782
0.000982742
0.000976297
0.00096945
0.000962207
0.000954571
0.000946551
0.000938153
0.000929386
0.000967169
0.000968781
0.000968056
0.000965674
0.000963036
0.000960197
0.000956921
0.000953192
0.000949069
0.00094457
0.000939691
0.000934433
0.000928802
0.000922801
0.000916435
0.000909708
0.000902626
0.000895195
0.000887421
0.000879313
0.00090988
0.000911446
0.00091078
0.000908529
0.000906047
0.000903386
0.000900322
0.000896839
0.000892994
0.000888805
0.00088427
0.000879389
0.000874168
0.000868611
0.000862722
0.000856507
0.000849969
0.000843116
0.000835952
0.000828487
0.000851885
0.000853391
0.00085278
0.000850664
0.000848341
0.000845864
0.000843016
0.000839783
0.00083622
0.000832344
0.000828153
0.000823649
0.000818835
0.000813718
0.000808301
0.000802588
0.000796584
0.000790295
0.000783726
0.000776885
0.000793155
0.000794604
0.000794053
0.000792081
0.000789922
0.000787631
0.000785002
0.000782021
0.000778739
0.000775176
0.000771328
0.000767197
0.000762787
0.000758103
0.000753149
0.000747928
0.000742446
0.000736706
0.000730715
0.000724479
0.000733737
0.000735105
0.000734604
0.000732774
0.000730781
0.000728677
0.000726266
0.000723537
0.000720537
0.000717283
0.000713774
0.000710011
0.000705997
0.000701738
0.000697237
0.000692496
0.000687521
0.000682316
0.000676885
0.000671234
0.000673512
0.000674813
0.000674374
0.000672697
0.000670876
0.00066896
0.000666768
0.000664289
0.000661568
0.000658621
0.000655446
0.000652044
0.000648419
0.000644576
0.000640516
0.000636244
0.000631763
0.000627077
0.000622189
0.000617104
0.000612546
0.000613741
0.000613344
0.000611812
0.000610159
0.000608429
0.000606454
0.000604223
0.000601778
0.000599133
0.000596286
0.000593239
0.000589994
0.000586556
0.000582926
0.000579109
0.000575106
0.000570922
0.00056656
0.000562024
0.000550579
0.000551699
0.000551366
0.000549998
0.000548523
0.000546983
0.000545226
0.000543242
0.00054107
0.000538723
0.000536199
0.000533499
0.000530627
0.000527586
0.000524377
0.000521004
0.000517468
0.000513773
0.000509922
0.000505919
0.000487705
0.000488696
0.000488397
0.000487177
0.00048587
0.000484513
0.000482969
0.000481227
0.000479323
0.000477268
0.00047506
0.0004727
0.000470191
0.000467536
0.000464735
0.000461793
0.000458709
0.000455489
0.000452133
0.000448644
0.000423513
0.000424408
0.000424167
0.000423115
0.000421988
0.000420821
0.000419492
0.000417995
0.000416359
0.000414595
0.000412701
0.000410679
0.000408529
0.000406256
0.00040386
0.000401343
0.000398706
0.000395953
0.000393084
0.000390103
0.000357976
0.000358729
0.00035852
0.000357624
0.000356669
0.000355683
0.000354564
0.000353305
0.00035193
0.000350449
0.000348861
0.000347167
0.000345367
0.000343464
0.00034146
0.000339355
0.000337152
0.000334852
0.000332455
0.000329966
0.000290766
0.000291398
0.000291238
0.000290513
0.000289741
0.000288947
0.000288047
0.000287034
0.000285929
0.00028474
0.000283465
0.000282105
0.000280662
0.000279137
0.00027753
0.000275844
0.000274079
0.000272237
0.000270317
0.000268324
0.000221544
0.000222016
0.000221883
0.000221321
0.000220724
0.000220111
0.000219417
0.000218639
0.000217791
0.00021688
0.000215905
0.000214867
0.000213766
0.000212604
0.000211381
0.000210099
0.000208757
0.000207358
0.0002059
0.000204388
0.000150042
0.00015038
0.000150305
0.00014993
0.000149533
0.000149127
0.000148667
0.000148151
0.000147588
0.000146984
0.000146336
0.000145646
0.000144913
0.00014414
0.000143325
0.000142471
0.000141576
0.000140642
0.00013967
0.00013866
7.53549e-05
7.54959e-05
7.54268e-05
7.52205e-05
7.5004e-05
7.47811e-05
7.45303e-05
7.42515e-05
7.39499e-05
7.36281e-05
7.32851e-05
7.29219e-05
7.25382e-05
7.2135e-05
7.17118e-05
7.12697e-05
7.08082e-05
7.03283e-05
6.98294e-05
6.93128e-05
0.00553873
0.00317562
0.00205255
0.00181441
0.00178824
0.00174006
0.00169782
0.0016589
0.00159805
0.00152536
0.00145139
0.00138378
0.00131599
0.00125417
0.00119693
0.00114582
0.00109995
0.00105519
0.00101342
0.000974903
0.000937057
0.000901866
0.000869724
0.000838909
0.000807792
0.000779138
0.000751891
0.000724929
0.000698502
0.000674446
0.000651296
0.000627974
0.000604875
0.000583283
0.000562321
0.000541742
0.000521324
0.000502203
0.000483872
0.000466094
0.000447855
0.000430426
0.000413335
0.000397097
0.000380636
0.00036455
0.000348777
0.000333625
0.000318673
0.000304212
0.000289528
0.000275341
0.000261199
0.000247779
0.000234605
0.000221768
0.000208868
0.00019646
0.000184143
0.000172471
0.000160725
0.000149277
0.000137865
0.000126706
0.000115603
0.000104907
9.47233e-05
8.46111e-05
7.48087e-05
6.49091e-05
5.58692e-05
4.632e-05
3.80944e-05
2.89611e-05
2.19235e-05
1.28654e-05
7.22157e-06
-1.64528e-06
-4.1758e-06
-1.16091e-05
0.00551606
0.00319524
0.00208136
0.00184153
0.00180835
0.00175457
0.0017081
0.00166673
0.00160425
0.00153053
0.00145601
0.00138799
0.0013199
0.00125779
0.00120029
0.00114893
0.00110285
0.00105789
0.00101594
0.000977265
0.000939277
0.000903952
0.00087169
0.000840761
0.000809547
0.000780804
0.000753477
0.000726437
0.000699941
0.000675819
0.000652608
0.000629227
0.000606078
0.000584439
0.000563434
0.000542812
0.000522356
0.000503197
0.000484832
0.000467018
0.00044875
0.00043129
0.000414174
0.000397909
0.000381427
0.000365314
0.000349522
0.000334346
0.000319378
0.000304893
0.000290195
0.000275986
0.000261834
0.000248393
0.00023521
0.000222353
0.000209445
0.000197017
0.000184693
0.000173003
0.000161252
0.000149787
0.00013837
0.000127194
0.000116089
0.000105377
9.51902e-05
8.50615e-05
7.52577e-05
6.53423e-05
5.63019e-05
4.67373e-05
3.85122e-05
2.9365e-05
2.2327e-05
1.32556e-05
7.61207e-06
-1.26632e-06
-3.81229e-06
-1.12339e-05
0.005465
0.00320319
0.00210244
0.00186397
0.00182907
0.00177261
0.0017223
0.00167715
0.00161241
0.00153745
0.00146221
0.00139362
0.00132512
0.00126264
0.00120479
0.00115314
0.00110678
0.00106156
0.00101938
0.000980507
0.000942337
0.000906835
0.000874417
0.000843336
0.000811991
0.000783129
0.000755694
0.00072855
0.000701961
0.00067775
0.000654454
0.000630993
0.000607775
0.000586071
0.000565007
0.000544324
0.000523816
0.000504605
0.000486193
0.00046833
0.000450019
0.000432517
0.000415367
0.000399062
0.00038255
0.000366401
0.000350583
0.000335372
0.000320381
0.000305865
0.000291146
0.000276908
0.000262739
0.000249271
0.000236073
0.000223188
0.000210267
0.000197814
0.000185479
0.000173764
0.000162004
0.000150516
0.000139092
0.000127892
0.000116782
0.000106048
9.58578e-05
8.5706e-05
7.58997e-05
6.59619e-05
5.69205e-05
4.73335e-05
3.91095e-05
2.99423e-05
2.29039e-05
1.38134e-05
8.17033e-06
-7.24886e-07
-3.29167e-06
-1.06947e-05
0.00541995
0.0032121
0.00211298
0.00187065
0.00183565
0.00178231
0.00173309
0.00168507
0.00161935
0.0015435
0.00146731
0.00139811
0.00132935
0.00126668
0.00120866
0.00115682
0.00111024
0.00106481
0.00102246
0.000983414
0.000945103
0.000909451
0.000876917
0.000845707
0.000814251
0.000785287
0.000757759
0.000730524
0.000703853
0.000679564
0.000656195
0.000632662
0.000609379
0.000587618
0.000566501
0.000545764
0.000525208
0.000505949
0.000487494
0.000469586
0.000451236
0.000433695
0.000416511
0.000400172
0.000383631
0.000367449
0.000351604
0.000336362
0.000321348
0.000306806
0.000292063
0.000277801
0.000263613
0.000250123
0.000236907
0.000223999
0.000211064
0.000198588
0.00018624
0.000174503
0.000162734
0.000151225
0.000139791
0.000128571
0.000117456
0.000106702
9.65063e-05
8.63344e-05
7.65238e-05
6.65659e-05
5.75215e-05
4.79138e-05
3.96898e-05
3.0505e-05
2.34644e-05
1.43568e-05
8.71225e-06
-1.97251e-07
-2.78671e-06
-1.01874e-05
0.00537418
0.00321953
0.00212447
0.00187945
0.00183942
0.00178442
0.00173573
0.0016898
0.00162563
0.00154866
0.00147196
0.0014021
0.00133307
0.00127036
0.00121233
0.00116019
0.00111329
0.00106775
0.0010253
0.000986148
0.000947749
0.000911994
0.000879366
0.000848035
0.000816479
0.000787426
0.000759818
0.000732499
0.000705754
0.000681394
0.000657965
0.000634358
0.000611015
0.000589198
0.000568029
0.00054724
0.000526637
0.000507332
0.000488836
0.000470884
0.000452494
0.000434915
0.000417696
0.000401322
0.000384751
0.000368538
0.000352666
0.000337394
0.000322355
0.000307787
0.00029302
0.000278734
0.000264525
0.000251015
0.00023778
0.00022485
0.000211898
0.000199401
0.000187036
0.00017528
0.000163498
0.00015197
0.000140524
0.000129285
0.000118162
0.000107391
9.71871e-05
8.69963e-05
7.71791e-05
6.72024e-05
5.81524e-05
4.8525e-05
4.02991e-05
3.10979e-05
2.4053e-05
1.49291e-05
9.28069e-06
3.59469e-07
-2.25937e-06
-9.67525e-06
0.00532526
0.00322634
0.0021371
0.00188887
0.00184478
0.00178762
0.00173577
0.00168945
0.00162674
0.00155225
0.00147687
0.00140593
0.00133684
0.0012741
0.00121585
0.00116331
0.00111623
0.00107066
0.0010281
0.000988884
0.000950464
0.000914623
0.000881826
0.000850348
0.000818723
0.000789612
0.000761947
0.000734559
0.000707759
0.000683334
0.000659845
0.000636162
0.000612763
0.000590888
0.000569673
0.000548827
0.000528182
0.000508828
0.000490296
0.000472295
0.000453866
0.000436244
0.00041899
0.000402579
0.000385977
0.00036973
0.00035383
0.000338527
0.000323462
0.000308867
0.000294074
0.000279761
0.000265531
0.000251999
0.000238743
0.00022579
0.000212818
0.0002003
0.000187916
0.00017614
0.000164343
0.000152796
0.000141335
0.000130076
0.000118944
0.000108156
9.79414e-05
8.77317e-05
7.79055e-05
6.79102e-05
5.88516e-05
4.92046e-05
4.09747e-05
3.17577e-05
2.47057e-05
1.55656e-05
9.911e-06
9.78909e-07
-1.67627e-06
-9.12004e-06
0.00527428
0.00323339
0.00215028
0.0018986
0.00185059
0.00179073
0.0017372
0.00168988
0.00162595
0.00155207
0.00147766
0.00140844
0.00134085
0.00127768
0.00121881
0.00116632
0.00111926
0.00107352
0.00103075
0.000991565
0.000953163
0.000917197
0.00088421
0.000852627
0.000820979
0.000791829
0.000764117
0.000736673
0.000709842
0.000685335
0.000661732
0.000637988
0.000614548
0.000592632
0.000571385
0.000550491
0.000529812
0.000510411
0.000491841
0.00047379
0.000455326
0.000437657
0.000420372
0.00040392
0.000387292
0.000371009
0.000355084
0.000339747
0.000324659
0.000310032
0.000295213
0.000280871
0.000266621
0.000253064
0.000239787
0.000226809
0.000213819
0.000201277
0.000188873
0.000177075
0.000165264
0.000153696
0.000142219
0.000130939
0.000119796
0.000108991
9.87646e-05
8.85357e-05
7.86982e-05
6.86847e-05
5.96148e-05
4.99486e-05
4.17125e-05
3.24804e-05
2.54188e-05
1.62626e-05
1.05996e-05
1.6571e-06
-1.04019e-06
-8.52388e-06
0.00522148
0.00324019
0.00216372
0.00190865
0.00185643
0.00179414
0.00173893
0.00169042
0.00162634
0.00155237
0.00147715
0.0014083
0.00134149
0.0012793
0.0012219
0.00116984
0.00112196
0.00107589
0.00103323
0.000994126
0.000955653
0.00091952
0.000886492
0.000854943
0.000823268
0.000794014
0.000766261
0.000738772
0.000711929
0.000687333
0.000663608
0.000639811
0.000616352
0.000594418
0.000573151
0.000552218
0.000531508
0.000512042
0.000493398
0.000475307
0.000456816