/*--------------------------------*- C++ -*----------------------------------*\
| =========                 |                                                 |
| \\      /  F ield         | OpenFOAM: The Open Source CFD Toolbox           |
|  \\    /   O peration     | Version:  v1912                                 |
|   \\  /    A nd           | Website:  www.openfoam.com                      |
|    \\/     M anipulation  |                                                 |
\*---------------------------------------------------------------------------*/
FoamFile
{
    version     2.0;
    format      ascii;
    class       surfaceScalarField;
    location    "900";
    object      phi;
}
// * * * * * * * * * * * * * * * * * * * * * * * * * * * * * * * * * * * * * //

dimensions      [0 3 -1 0 0 0 0];
oriented        oriented;


internalField   nonuniform List<scalar> 
19800
(
2.28521e-07
-1.3977e-08
2.2853e-07
-8.76027e-12
2.28672e-07
-1.4279e-10
2.28514e-07
1.576e-10
2.28695e-07
-1.81196e-10
2.28515e-07
1.79801e-10
2.28697e-07
-1.82139e-10
2.28505e-07
1.9296e-10
2.28691e-07
-1.87105e-10
2.28485e-07
2.0639e-10
2.28676e-07
-1.91099e-10
2.28456e-07
2.20752e-10
2.28649e-07
-1.92726e-10
2.28412e-07
2.36453e-10
2.28599e-07
-1.87038e-10
2.28346e-07
2.5383e-10
2.28502e-07
-1.57101e-10
2.28239e-07
2.63574e-10
2.28175e-07
6.32611e-11
5.01189e-10
2.27674e-07
2.42204e-07
-1.70896e-08
2.42473e-07
-2.77979e-10
2.42305e-07
2.49216e-11
2.4244e-07
2.25602e-11
2.42293e-07
-3.48601e-11
2.42429e-07
4.32579e-11
2.42263e-07
-1.58164e-11
2.42411e-07
4.49546e-11
2.42227e-07
-3.08647e-12
2.42387e-07
4.57828e-11
2.42183e-07
1.34565e-11
2.42358e-07
4.63095e-11
2.42128e-07
3.74661e-11
2.42317e-07
4.73895e-11
2.4205e-07
7.96357e-11
2.42255e-07
4.9427e-11
2.41921e-07
1.76219e-10
2.4215e-07
3.43339e-11
2.41534e-07
6.78909e-10
4.19083e-10
2.41616e-07
2.55714e-07
-1.67758e-08
2.55917e-07
-4.80663e-10
2.55845e-07
9.64574e-11
2.55899e-07
-3.11959e-11
2.55859e-07
5.04508e-12
2.55899e-07
2.69125e-12
2.55852e-07
3.13328e-11
2.55887e-07
9.60299e-12
2.55837e-07
4.69554e-11
2.55867e-07
1.55012e-11
2.55813e-07
6.79846e-11
2.55837e-07
2.19416e-11
2.55775e-07
9.96264e-11
2.55793e-07
3.0135e-11
2.55714e-07
1.58216e-10
2.55723e-07
4.07186e-11
2.55599e-07
2.99552e-10
2.55603e-07
3.03579e-11
2.55232e-07
1.04993e-09
6.11055e-10
2.5504e-07
2.70137e-07
-1.60968e-08
2.70304e-07
-6.48058e-10
2.70269e-07
1.31602e-10
2.70286e-07
-4.81039e-11
2.70279e-07
1.0989e-11
2.70285e-07
-2.90382e-12
2.7027e-07
4.59073e-11
2.70272e-07
7.44171e-12
2.70252e-07
6.6544e-11
2.70251e-07
1.66302e-11
2.70225e-07
9.43498e-11
2.70221e-07
2.62972e-11
2.70184e-07
1.36913e-10
2.70176e-07
3.83531e-11
2.70118e-07
2.16516e-10
2.70105e-07
5.38211e-11
2.69995e-07
4.08938e-10
2.69979e-07
4.59121e-11
2.69618e-07
1.41081e-09
8.29609e-10
2.69399e-07
2.85463e-07
-1.54964e-08
2.85623e-07
-8.08107e-10
2.85594e-07
1.60604e-10
2.85604e-07
-5.80957e-11
2.85602e-07
1.33484e-11
2.85601e-07
-2.74842e-12
2.85589e-07
5.79296e-11
2.85586e-07
1.07933e-11
2.85568e-07
8.4005e-11
2.85563e-07
2.23986e-11
2.85537e-07
1.19704e-10
2.85529e-07
3.49215e-11
2.85491e-07
1.74377e-10
2.85479e-07
5.05211e-11
2.85419e-07
2.76579e-10
2.85402e-07
7.04308e-11
2.85288e-07
5.23784e-10
2.85266e-07
6.74265e-11
2.84899e-07
1.77744e-09
1.06437e-09
2.84664e-07
3.01666e-07
-1.49013e-08
3.01825e-07
-9.66845e-10
3.01797e-07
1.88742e-10
3.01807e-07
-6.82575e-11
3.01803e-07
1.71148e-11
3.01804e-07
-3.75435e-12
3.01789e-07
7.19514e-11
3.01787e-07
1.28128e-11
3.01767e-07
1.04373e-10
3.01762e-07
2.7295e-11
3.01734e-07
1.48327e-10
3.01726e-07
4.26979e-11
3.01685e-07
2.15851e-10
3.01673e-07
6.20132e-11
3.01608e-07
3.41977e-10
3.01591e-07
8.70468e-11
3.01469e-07
6.46201e-10
3.01444e-07
9.17548e-11
3.0107e-07
2.15113e-09
1.31043e-09
3.00824e-07
3.18789e-07
-1.4299e-08
3.18944e-07
-1.12219e-09
3.18918e-07
2.1467e-10
3.18927e-07
-7.74651e-11
3.18923e-07
2.12548e-11
3.18923e-07
-4.53361e-12
3.18909e-07
8.68072e-11
3.18906e-07
1.55308e-11
3.18885e-07
1.25349e-10
3.1888e-07
3.24894e-11
3.1885e-07
1.78263e-10
3.18842e-07
5.1006e-11
3.18798e-07
2.59418e-10
3.18786e-07
7.43053e-11
3.18717e-07
4.10633e-10
3.18699e-07
1.0473e-10
3.18571e-07
7.74914e-10
3.18541e-07
1.21531e-10
3.18163e-07
2.52822e-09
1.57012e-09
3.17904e-07
3.36883e-07
-1.36691e-08
3.37034e-07
-1.27318e-09
3.3701e-07
2.38118e-10
3.37018e-07
-8.5884e-11
3.37014e-07
2.57167e-11
3.37015e-07
-5.53616e-12
3.36999e-07
1.02352e-10
3.36996e-07
1.79849e-11
3.36974e-07
1.47908e-10
3.36968e-07
3.81851e-11
3.36937e-07
2.09962e-10
3.36928e-07
5.99699e-11
3.36882e-07
3.05406e-10
3.36869e-07
8.7541e-11
3.36797e-07
4.83078e-10
3.36777e-07
1.2424e-10
3.36642e-07
9.09465e-10
3.36607e-07
1.56748e-10
3.36227e-07
2.9078e-09
1.84321e-09
3.35954e-07
3.56003e-07
-1.29832e-08
3.56148e-07
-1.419e-09
3.56127e-07
2.59386e-10
3.56135e-07
-9.38731e-11
3.56129e-07
3.14032e-11
3.56131e-07
-7.02356e-12
3.56113e-07
1.19591e-10
3.56111e-07
2.04439e-11
3.56087e-07
1.71916e-10
3.56082e-07
4.33679e-11
3.56048e-07
2.4392e-10
3.56039e-07
6.86797e-11
3.5599e-07
3.54491e-10
3.55977e-07
1.00869e-10
3.559e-07
5.59793e-10
3.5588e-07
1.443e-10
3.55738e-07
1.05129e-09
3.55697e-07
1.97702e-10
3.55316e-07
3.28929e-09
2.12944e-09
3.55029e-07
3.76209e-07
-1.22994e-08
3.76347e-07
-1.55773e-09
3.76329e-07
2.7712e-10
3.76336e-07
-1.00558e-10
3.7633e-07
3.70842e-11
3.76331e-07
-8.34582e-12
3.76313e-07
1.37101e-10
3.76311e-07
2.30297e-11
3.76285e-07
1.97218e-10
3.76279e-07
4.95736e-11
3.76244e-07
2.79352e-10
3.76234e-07
7.85838e-11
3.76183e-07
4.05744e-10
3.76168e-07
1.1576e-10
3.76088e-07
6.40045e-10
3.76066e-07
1.67163e-10
3.75918e-07
1.19823e-09
3.7587e-07
2.45967e-10
3.75489e-07
3.66958e-09
2.43026e-09
3.75189e-07
3.97563e-07
-1.16219e-08
3.97693e-07
-1.68786e-09
3.97679e-07
2.9155e-10
3.97684e-07
-1.06027e-10
3.97678e-07
4.35518e-11
3.97679e-07
-9.43165e-12
3.9766e-07
1.5579e-10
3.97657e-07
2.64755e-11
3.9763e-07
2.23302e-10
3.97624e-07
5.60212e-11
3.97587e-07
3.16443e-10
3.97576e-07
8.90911e-11
3.97523e-07
4.59517e-10
3.97507e-07
1.31716e-10
3.97423e-07
7.23987e-10
3.97398e-07
1.91802e-10
3.97244e-07
1.3517e-09
3.97188e-07
3.02314e-10
3.96809e-07
4.04841e-09
2.74508e-09
3.96494e-07
4.2013e-07
-1.09347e-08
4.2025e-07
-1.80835e-09
4.20239e-07
3.02402e-10
4.20243e-07
-1.1055e-10
4.20236e-07
5.06264e-11
4.20237e-07
-1.08503e-11
4.20218e-07
1.7529e-10
4.20215e-07
2.94943e-11
4.20186e-07
2.51441e-10
4.2018e-07
6.31049e-11
4.2014e-07
3.55775e-10
4.20129e-07
1.00416e-10
4.20073e-07
5.16286e-10
4.20055e-07
1.48952e-10
4.19967e-07
8.12344e-10
4.1994e-07
2.19344e-10
4.19781e-07
1.51073e-09
4.19716e-07
3.66908e-10
4.1934e-07
4.42406e-09
3.07346e-09
4.19012e-07
4.43977e-07
-1.02337e-08
4.44086e-07
-1.9175e-09
4.44079e-07
3.09639e-10
4.44082e-07
-1.13936e-10
4.44074e-07
5.88327e-11
4.44075e-07
-1.21404e-11
4.44055e-07
1.96213e-10
4.44051e-07
3.33589e-11
4.44022e-07
2.8053e-10
4.44014e-07
7.03503e-11
4.43973e-07
3.97005e-10
4.43961e-07
1.12345e-10
4.43902e-07
5.75839e-10
4.43883e-07
1.67396e-10
4.43791e-07
9.04591e-10
4.43761e-07
2.49179e-10
4.43596e-07
1.67606e-09
4.43521e-07
4.41179e-10
4.4315e-07
4.79508e-09
3.41545e-09
4.42808e-07
4.69178e-07
-9.52457e-09
4.69275e-07
-2.01411e-09
4.69271e-07
3.12837e-10
4.69274e-07
-1.16292e-10
4.69265e-07
6.77653e-11
4.69266e-07
-1.37047e-11
4.69244e-07
2.17918e-10
4.6924e-07
3.6855e-11
4.69209e-07
3.11785e-10
4.69201e-07
7.84582e-11
4.69158e-07
4.40563e-10
4.69145e-07
1.25381e-10
4.69083e-07
6.38474e-10
4.69063e-07
1.87568e-10
4.68966e-07
1.00127e-09
4.68933e-07
2.82856e-10
4.68762e-07
1.84626e-09
4.68678e-07
5.25433e-10
4.68313e-07
5.15942e-09
3.77055e-09
4.67958e-07
4.9581e-07
-8.81817e-09
4.95892e-07
-2.09647e-09
4.95893e-07
3.12092e-10
4.95894e-07
-1.1744e-10
4.95884e-07
7.803e-11
4.95885e-07
-1.50127e-11
4.95862e-07
2.41121e-10
4.95858e-07
4.14423e-11
4.95826e-07
3.43932e-10
4.95817e-07
8.68454e-11
4.95772e-07
4.86044e-10
4.95758e-07
1.3925e-10
4.95692e-07
7.03919e-10
4.9567e-07
2.0936e-10
4.9557e-07
1.10173e-09
4.95532e-07
3.19677e-10
4.95357e-07
2.02209e-09
4.95261e-07
6.21185e-10
4.94905e-07
5.51574e-09
4.13842e-09
4.94537e-07
5.23953e-07
-8.12303e-09
5.2402e-07
-2.16342e-09
5.24025e-07
3.07072e-10
5.24025e-07
-1.17549e-10
5.24014e-07
8.91672e-11
5.24015e-07
-1.65273e-11
5.23991e-07
2.65079e-10
5.23986e-07
4.57011e-11
5.23952e-07
3.78407e-10
5.23943e-07
9.63623e-11
5.23895e-07
5.33969e-10
5.2388e-07
1.5457e-10
5.23811e-07
7.72544e-10
5.23787e-07
2.33429e-10
5.23683e-07
1.20659e-09
5.23641e-07
3.61483e-10
5.23461e-07
2.20187e-09
5.23354e-07
7.2867e-10
5.23007e-07
5.86208e-09
4.51794e-09
5.22627e-07
5.53694e-07
-7.434e-09
5.53744e-07
-2.21338e-09
5.53753e-07
2.98107e-10
5.53752e-07
-1.16547e-10
5.53739e-07
1.01941e-10
5.5374e-07
-1.77412e-11
5.53715e-07
2.90684e-10
5.5371e-07
5.11869e-11
5.53674e-07
4.13847e-10
5.53664e-07
1.06241e-10
5.53614e-07
5.83943e-10
5.53597e-07
1.70934e-10
5.53526e-07
8.44081e-10
5.535e-07
2.59561e-10
5.53391e-07
1.31516e-09
5.53344e-07
4.07418e-10
5.5316e-07
2.38643e-09
5.5304e-07
8.49341e-10
5.52705e-07
6.1973e-09
4.90821e-09
5.52314e-07
5.85121e-07
-6.75135e-09
5.85153e-07
-2.24537e-09
5.85166e-07
2.84952e-10
5.85164e-07
-1.14635e-10
5.8515e-07
1.15835e-10
5.85151e-07
-1.91249e-11
5.85125e-07
3.17097e-10
5.85119e-07
5.63715e-11
5.85082e-07
4.51808e-10
5.85071e-07
1.1747e-10
5.85018e-07
6.36511e-10
5.85e-07
1.89081e-10
5.84926e-07
9.18895e-10
5.84897e-07
2.88564e-10
5.84784e-07
1.42799e-09
5.84732e-07
4.59585e-10
5.84545e-07
2.57377e-09
5.84411e-07
9.83365e-10
5.84088e-07
6.51941e-09
5.30771e-09
5.83689e-07
6.18332e-07
-6.0644e-09
6.18345e-07
-2.25807e-09
6.18362e-07
2.68099e-10
6.18359e-07
-1.11737e-10
6.18343e-07
1.31654e-10
6.18344e-07
-2.0077e-11
6.18316e-07
3.45269e-10
6.1831e-07
6.30238e-11
6.18271e-07
4.90717e-10
6.18259e-07
1.29214e-10
6.18204e-07
6.91157e-10
6.18184e-07
2.08587e-10
6.18107e-07
9.96579e-10
6.18075e-07
3.20242e-10
6.17959e-07
1.5442e-09
6.179e-07
5.17088e-10
6.1771e-07
2.76464e-09
6.17561e-07
1.13218e-09
6.17254e-07
6.82733e-09
5.71516e-09
6.16846e-07
6.53427e-07
-5.37135e-09
6.53419e-07
-2.25082e-09
6.5344e-07
2.47387e-10
6.53436e-07
-1.08053e-10
6.53419e-07
1.48749e-10
6.53419e-07
-2.10447e-11
6.5339e-07
3.74212e-10
6.53384e-07
6.94947e-11
6.53342e-07
5.32266e-10
6.53329e-07
1.42674e-10
6.53272e-07
7.48439e-10
6.5325e-07
2.30392e-10
6.5317e-07
1.07749e-09
6.53135e-07
3.55627e-10
6.53015e-07
1.66429e-09
6.5295e-07
5.82368e-10
6.52757e-07
2.95674e-09
6.52593e-07
1.29581e-09
6.52301e-07
7.11931e-09
6.12842e-09
6.51888e-07
6.90511e-07
-4.62415e-09
6.90483e-07
-2.22295e-09
6.90507e-07
2.23656e-10
6.90502e-07
-1.03635e-10
6.90483e-07
1.68063e-10
6.90484e-07
-2.14544e-11
6.90453e-07
4.05038e-10
6.90446e-07
7.76314e-11
6.90402e-07
5.74813e-10
6.90388e-07
1.56843e-10
6.90329e-07
8.07853e-10
6.90305e-07
2.53941e-10
6.90221e-07
1.1612e-09
6.90182e-07
3.94421e-10
6.90059e-07
1.78734e-09
6.89986e-07
6.54337e-10
6.89793e-07
3.15091e-09
6.89613e-07
1.47539e-09
6.89338e-07
7.39472e-09
6.54557e-09
6.88921e-07
7.29698e-07
-3.80823e-09
7.29649e-07
-2.17449e-09
7.29676e-07
1.9687e-10
7.2967e-07
-9.85424e-11
7.2965e-07
1.88684e-10
7.29649e-07
-2.15391e-11
7.29618e-07
4.36508e-10
7.29609e-07
8.59028e-11
7.29564e-07
6.19976e-10
7.29548e-07
1.73256e-10
7.29486e-07
8.69813e-10
7.2946e-07
2.80505e-10
7.29374e-07
1.24792e-09
7.2933e-07
4.38005e-10
7.29204e-07
1.91369e-09
7.29123e-07
7.35788e-10
7.28929e-07
3.34465e-09
7.28733e-07
1.67074e-09
7.28476e-07
7.65235e-09
6.96373e-09
7.28057e-07
7.71102e-07
-2.73089e-09
7.71035e-07
-2.10789e-09
7.71063e-07
1.69184e-10
7.71058e-07
-9.37445e-11
7.71035e-07
2.12311e-10
7.71035e-07
-2.14341e-11
7.71001e-07
4.70477e-10
7.70992e-07
9.55348e-11
7.70945e-07
6.66632e-10
7.70928e-07
1.90095e-10
7.70863e-07
9.34334e-10
7.70835e-07
3.0877e-10
7.70745e-07
1.33766e-09
7.70697e-07
4.85368e-10
7.70568e-07
2.04264e-09
7.70478e-07
8.24879e-10
7.70285e-07
3.5389e-09
7.70073e-07
1.88226e-09
7.69835e-07
7.89118e-09
7.38122e-09
7.69417e-07
8.14849e-07
-1.70483e-09
8.14768e-07
-2.02675e-09
8.14796e-07
1.40882e-10
8.14792e-07
-8.91278e-11
8.14766e-07
2.37305e-10
8.14766e-07
-2.0888e-11
8.14731e-07
5.04922e-10
8.14721e-07
1.0545e-10
8.14672e-07
7.15686e-10
8.14653e-07
2.09617e-10
8.14586e-07
1.00091e-09
8.14555e-07
3.40793e-10
8.14463e-07
1.42947e-09
8.1441e-07
5.38789e-10
8.1428e-07
2.17305e-09
8.14179e-07
9.25454e-10
8.13989e-07
3.72889e-09
8.1376e-07
2.1108e-09
8.13545e-07
8.10644e-09
7.79857e-09
8.13127e-07
8.61073e-07
-1.04981e-09
8.6098e-07
-1.93419e-09
8.61008e-07
1.13763e-10
8.61003e-07
-8.44814e-11
8.60976e-07
2.64037e-10
8.60974e-07
-1.86238e-11
8.60939e-07
5.4056e-10
8.60927e-07
1.18313e-10
8.60877e-07
7.6481e-10
8.60855e-07
2.31285e-10
8.60787e-07
1.06848e-09
8.60751e-07
3.7654e-10
8.60658e-07
1.52241e-09
8.60599e-07
5.98489e-10
8.60468e-07
2.30355e-09
8.60356e-07
1.03665e-09
8.6017e-07
3.91575e-09
8.59924e-07
2.35696e-09
8.5973e-07
8.30002e-09
8.21164e-09
8.59317e-07
9.09912e-07
-7.03241e-10
9.09812e-07
-1.83416e-09
9.09836e-07
8.93629e-11
9.09832e-07
-8.07822e-11
9.09804e-07
2.92164e-10
9.09801e-07
-1.5571e-11
9.09764e-07
5.76867e-10
9.09751e-07
1.31732e-10
9.09699e-07
8.1662e-10
9.09674e-07
2.56079e-10
9.09605e-07
1.13841e-09
9.09565e-07
4.16693e-10
9.0947e-07
1.61769e-09
9.09403e-07
6.65203e-10
9.09271e-07
2.43563e-09
9.09148e-07
1.16033e-09
9.08965e-07
4.0985e-09
9.08703e-07
2.61825e-09
9.08529e-07
8.47442e-09
8.61405e-09
9.08126e-07
9.61517e-07
-4.994e-10
9.61412e-07
-1.72876e-09
9.61432e-07
6.92534e-11
9.61429e-07
-7.80016e-11
9.61399e-07
3.22588e-10
9.61394e-07
-1.09344e-11
9.61357e-07
6.15049e-10
9.61341e-07
1.47906e-10
9.61288e-07
8.69163e-10
9.61261e-07
2.82945e-10
9.61189e-07
1.20992e-09
9.61145e-07
4.60746e-10
9.61048e-07
1.71453e-09
9.60974e-07
7.38691e-10
9.60842e-07
2.56796e-09
9.60706e-07
1.29506e-09
9.60527e-07
4.2781e-09
9.60251e-07
2.89443e-09
9.60095e-07
8.63069e-09
9.00269e-09
9.59707e-07
1.01605e-06
-3.49239e-10
1.01594e-06
-1.61994e-09
1.01595e-06
5.36502e-11
1.01595e-06
-7.63413e-11
1.01592e-06
3.5435e-10
1.01591e-06
-5.17638e-12
1.01587e-06
6.53867e-10
1.01586e-06
1.64982e-10
1.0158e-06
9.24254e-10
1.01577e-06
3.13505e-10
1.0157e-06
1.28349e-09
1.01565e-06
5.10064e-10
1.01555e-06
1.81307e-09
1.01547e-06
8.20402e-10
1.01534e-06
2.7007e-09
1.01519e-06
1.44331e-09
1.01502e-06
4.45184e-09
1.01473e-06
3.18369e-09
1.01459e-06
8.76822e-09
9.37467e-09
1.01422e-06
1.07367e-06
-2.23932e-10
1.07356e-06
-1.5085e-09
1.07357e-06
4.33729e-11
1.07356e-06
-7.52667e-11
1.07353e-06
3.8802e-10
1.07352e-06
2.76931e-12
1.07348e-06
6.94249e-10
1.07346e-06
1.85426e-10
1.07341e-06
9.7964e-10
1.07337e-06
3.46988e-10
1.0733e-06
1.35794e-09
1.07324e-06
5.64438e-10
1.07315e-06
1.91214e-09
1.07306e-06
9.10346e-10
1.07292e-06
2.8321e-09
1.07276e-06
1.60371e-09
1.07259e-06
4.62035e-09
1.07229e-06
3.4855e-09
1.07217e-06
8.88804e-09
9.72757e-09
1.07182e-06
1.13455e-06
-1.17141e-10
1.13444e-06
-1.39608e-09
1.13445e-06
3.83428e-11
1.13444e-06
-7.48295e-11
1.13441e-06
4.22587e-10
1.1344e-06
1.24565e-11
1.13436e-06
7.34955e-10
1.13434e-06
2.0745e-10
1.13428e-06
1.03709e-09
1.13424e-06
3.85055e-10
1.13417e-06
1.43379e-09
1.13411e-06
6.25234e-10
1.13401e-06
2.0119e-09
1.13391e-06
1.00986e-09
1.13378e-06
2.96251e-09
1.1336e-06
1.77826e-09
1.13344e-06
4.78155e-09
1.13313e-06
3.79716e-09
1.13303e-06
8.99077e-09
1.0058e-08
1.1327e-06
1.19889e-06
-2.64386e-11
1.19878e-06
-1.28345e-09
1.19878e-06
3.92133e-11
1.19878e-06
-7.43457e-11
1.19874e-06
4.58595e-10
1.19873e-06
2.49561e-11
1.19869e-06
7.76975e-10
1.19866e-06
2.33438e-10
1.1986e-06
1.09448e-09
1.19856e-06
4.26913e-10
1.19848e-06
1.5099e-09
1.19842e-06
6.92205e-10
1.19832e-06
2.11128e-09
1.19821e-06
1.11879e-09
1.19808e-06
3.09039e-09
1.19789e-06
1.96513e-09
1.19774e-06
4.93652e-09
1.19742e-06
4.11729e-09
1.19733e-06
9.07842e-09
1.03636e-08
1.19703e-06
1.26687e-06
4.90218e-11
1.26676e-06
-1.17221e-09
1.26675e-06
4.56845e-11
1.26675e-06
-7.37488e-11
1.26672e-06
4.94998e-10
1.2667e-06
3.98513e-11
1.26666e-06
8.19019e-10
1.26663e-06
2.61779e-10
1.26657e-06
1.15339e-09
1.26653e-06
4.74261e-10
1.26645e-06
1.58675e-09
1.26637e-06
7.66666e-10
1.26628e-06
2.21048e-09
1.26616e-06
1.23826e-09
1.26603e-06
3.21629e-09
1.26583e-06
2.16565e-09
1.26568e-06
5.08381e-09
1.26536e-06
4.44242e-09
1.26528e-06
9.15224e-09
1.06412e-08
1.26501e-06
1.33871e-06
1.11052e-10
1.3386e-06
-1.06307e-09
1.33859e-06
5.81444e-11
1.33859e-06
-7.22003e-11
1.33855e-06
5.32264e-10
1.33853e-06
5.82226e-11
1.33849e-06
8.62066e-10
1.33846e-06
2.94752e-10
1.3384e-06
1.21182e-09
1.33834e-06
5.26329e-10
1.33827e-06
1.6632e-09
1.33819e-06
8.48346e-10
1.33809e-06
2.30847e-09
1.33796e-06
1.36789e-09
1.33783e-06
3.33887e-09
1.33762e-06
2.37755e-09
1.33748e-06
5.22482e-09
1.33715e-06
4.77054e-09
1.33709e-06
9.2146e-09
1.0889e-08
1.33684e-06
1.41462e-06
1.60638e-10
1.41451e-06
-9.57476e-10
1.41449e-06
7.59922e-11
1.41449e-06
-6.95201e-11
1.41445e-06
5.69329e-10
1.41443e-06
7.96687e-11
1.41439e-06
9.04788e-10
1.41435e-06
3.30915e-10
1.41429e-06
1.27115e-09
1.41423e-06
5.84798e-10
1.41416e-06
1.7397e-09
1.41407e-06
9.38429e-10
1.41397e-06
2.40552e-09
1.41383e-06
1.50848e-09
1.41371e-06
3.4589e-09
1.41349e-06
2.60135e-09
1.41335e-06
5.35869e-09
1.41303e-06
5.09763e-09
1.41297e-06
9.26696e-09
1.11049e-08
1.41276e-06
1.49483e-06
1.99733e-10
1.49473e-06
-8.5591e-10
1.4947e-06
9.9288e-11
1.4947e-06
-6.47526e-11
1.49466e-06
6.06596e-10
1.49463e-06
1.05252e-10
1.49459e-06
9.48162e-10
1.49455e-06
3.72362e-10
1.49449e-06
1.3296e-09
1.49443e-06
6.48855e-10
1.49435e-06
1.81519e-09
1.49425e-06
1.03652e-09
1.49416e-06
2.50074e-09
1.49401e-06
1.65929e-09
1.49389e-06
3.57535e-09
1.49366e-06
2.83429e-09
1.49353e-06
5.48706e-09
1.49321e-06
5.42128e-09
1.49316e-06
9.31174e-09
1.1288e-08
1.49298e-06
1.57958e-06
2.29408e-10
1.57949e-06
-7.595e-10
1.57946e-06
1.27131e-10
1.57945e-06
-5.76259e-11
1.57941e-06
6.43039e-10
1.57939e-06
1.34595e-10
1.57934e-06
9.90825e-10
1.5793e-06
4.17903e-10
1.57924e-06
1.38826e-09
1.57917e-06
7.20124e-10
1.57909e-06
1.89014e-09
1.57899e-06
1.14357e-09
1.57889e-06
2.59457e-09
1.57873e-06
1.82063e-09
1.57862e-06
3.68931e-09
1.57838e-06
3.076e-09
1.57825e-06
5.6097e-09
1.57794e-06
5.73725e-09
1.5779e-06
9.35027e-09
1.14373e-08
1.57775e-06
1.66914e-06
2.51564e-10
1.66905e-06
-6.68355e-10
1.66902e-06
1.59262e-10
1.66901e-06
-4.71394e-11
1.66897e-06
6.79063e-10
1.66894e-06
1.68725e-10
1.6689e-06
1.03378e-09
1.66885e-06
4.69424e-10
1.66879e-06
1.44559e-09
1.66871e-06
7.97624e-10
1.66864e-06
1.96356e-09
1.66852e-06
1.25887e-09
1.66843e-06
2.6863e-09
1.66826e-06
1.99124e-09
1.66815e-06
3.80007e-09
1.6679e-06
3.32318e-09
1.66778e-06
5.72839e-09
1.66748e-06
6.04312e-09
1.66744e-06
9.38461e-09
1.15532e-08
1.66733e-06
1.76378e-06
2.67113e-10
1.7637e-06
-5.83205e-10
1.76366e-06
1.94484e-10
1.76365e-06
-3.30533e-11
1.76361e-06
7.13674e-10
1.76357e-06
2.07146e-10
1.76353e-06
1.07566e-09
1.76348e-06
5.25747e-10
1.76342e-06
1.50264e-09
1.76333e-06
8.82873e-10
1.76326e-06
2.03619e-09
1.76314e-06
1.38312e-09
1.76305e-06
2.77671e-09
1.76287e-06
2.17094e-09
1.76276e-06
3.90914e-09
1.76251e-06
3.5748e-09
1.76239e-06
5.84324e-09
1.7621e-06
6.33484e-09
1.76207e-06
9.41555e-09
1.1636e-08
1.76199e-06
1.86378e-06
2.77713e-10
1.8637e-06
-5.0372e-10
1.86367e-06
2.32303e-10
1.86365e-06
-1.44152e-11
1.86361e-06
7.47335e-10
1.86357e-06
2.50838e-10
1.86353e-06
1.11746e-09
1.86347e-06
5.88543e-10
1.86341e-06
1.55808e-09
1.86332e-06
9.74645e-10
1.86325e-06
2.10711e-09
1.86312e-06
1.51514e-09
1.86303e-06
2.86533e-09
1.86284e-06
2.3578e-09
1.86273e-06
4.01608e-09
1.86248e-06
3.82711e-09
1.86237e-06
5.95595e-09
1.86209e-06
6.61035e-09
1.86206e-06
9.44448e-09
1.16873e-08
1.86201e-06
1.96946e-06
2.83978e-10
1.96938e-06
-4.30176e-10
1.96934e-06
2.71361e-10
1.96932e-06
8.87941e-12
1.96929e-06
7.79179e-10
1.96924e-06
2.99162e-10
1.9692e-06
1.15797e-09
1.96913e-06
6.56594e-10
1.96907e-06
1.613e-09
1.96898e-06
1.07414e-09
1.96891e-06
2.17738e-09
1.96877e-06
1.65525e-09
1.96868e-06
2.95328e-09
1.96848e-06
2.55117e-09
1.96838e-06
4.12264e-09
1.96813e-06
4.07868e-09
1.96802e-06
6.06667e-09
1.96776e-06
6.86641e-09
1.96773e-06
9.47139e-09
1.17086e-08
1.96771e-06
2.08112e-06
2.87195e-10
2.08105e-06
-3.61829e-10
2.08101e-06
3.11075e-10
2.08098e-06
3.76118e-11
2.08095e-06
8.09784e-10
2.0809e-06
3.52975e-10
2.08086e-06
1.19821e-09
2.08078e-06
7.31265e-10
2.08073e-06
1.66633e-09
2.08062e-06
1.17982e-09
2.08055e-06
2.24626e-09
2.08041e-06
1.80172e-09
2.08032e-06
3.04031e-09
2.08012e-06
2.74848e-09
2.08002e-06
4.22854e-09
2.07977e-06
4.3256e-09
2.07966e-06
6.17669e-09
2.07942e-06
7.10172e-09
2.0794e-06
9.4968e-09
1.17027e-08
2.0794e-06
2.19911e-06
2.87592e-10
2.19905e-06
-2.986e-10
2.19901e-06
3.50095e-10
2.19897e-06
7.16164e-11
2.19894e-06
8.38449e-10
2.19889e-06
4.11439e-10
2.19885e-06
1.23717e-09
2.19877e-06
8.11177e-10
2.19871e-06
1.71931e-09
2.1986e-06
1.29247e-09
2.19853e-06
2.31516e-09
2.19838e-06
1.95445e-09
2.19829e-06
3.12787e-09
2.19809e-06
2.94871e-09
2.19799e-06
4.33555e-09
2.19774e-06
4.56647e-09
2.19764e-06
6.28585e-09
2.19742e-06
7.31416e-09
2.1974e-06
9.51981e-09
1.16717e-08
2.19743e-06
2.32379e-06
2.86071e-10
2.32373e-06
-2.39457e-10
2.32369e-06
3.87945e-10
2.32365e-06
1.11381e-10
2.32363e-06
8.65893e-10
2.32356e-06
4.75199e-10
2.32353e-06
1.27587e-09
2.32344e-06
8.97284e-10
2.32339e-06
1.77117e-09
2.32327e-06
1.41026e-09
2.3232e-06
2.38353e-09
2.32304e-06
2.11121e-09
2.32296e-06
3.21583e-09
2.32276e-06
3.14892e-09
2.32265e-06
4.44334e-09
2.32242e-06
4.79764e-09
2.32231e-06
6.39474e-09
2.32212e-06
7.50344e-09
2.3221e-06
9.54013e-09
1.16191e-08
2.32215e-06
2.45554e-06
2.82536e-10
2.45549e-06
-1.84133e-10
2.45545e-06
4.23506e-10
2.45541e-06
1.56387e-10
2.45538e-06
8.9167e-10
2.45531e-06
5.43206e-10
2.45527e-06
1.31368e-09
2.45518e-06
9.88018e-10
2.45513e-06
1.8233e-09
2.45501e-06
1.53341e-09
2.45494e-06
2.45301e-09
2.45478e-06
2.27151e-09
2.45469e-06
3.30572e-09
2.45449e-06
3.34792e-09
2.45438e-06
4.55325e-09
2.45416e-06
5.01809e-09
2.45405e-06
6.50263e-09
2.45389e-06
7.66882e-09
2.45387e-06
9.5562e-09
1.15474e-08
2.45394e-06
2.59476e-06
2.77595e-10
2.59471e-06
-1.31535e-10
2.59468e-06
4.56591e-10
2.59463e-06
2.06734e-10
2.5946e-06
9.16619e-10
2.59453e-06
6.15787e-10
2.59449e-06
1.35161e-09
2.5944e-06
1.0838e-09
2.59434e-06
1.87531e-09
2.59422e-06
1.65988e-09
2.59415e-06
2.52326e-09
2.59398e-06
2.43284e-09
2.59389e-06
3.39734e-09
2.5937e-06
3.54277e-09
2.59359e-06
4.66464e-09
2.59338e-06
5.22494e-09
2.59327e-06
6.60921e-09
2.59313e-06
7.81095e-09
2.59312e-06
9.56718e-09
1.14599e-08
2.59321e-06
2.74188e-06
2.70991e-10
2.74183e-06
-8.14243e-11
2.7418e-06
4.86502e-10
2.74174e-06
2.6154e-10
2.74172e-06
9.40577e-10
2.74164e-06
6.91729e-10
2.7416e-06
1.3894e-09
2.7415e-06
1.18294e-09
2.74145e-06
1.92854e-09
2.74132e-06
1.78935e-09
2.74125e-06
2.59586e-09
2.74109e-06
2.59443e-09
2.74099e-06
3.49196e-09
2.7408e-06
3.73241e-09
2.74069e-06
4.77814e-09
2.7405e-06
5.41778e-09
2.74039e-06
6.71318e-09
2.74027e-06
7.93029e-09
2.74027e-06
9.57132e-09
1.1359e-08
2.74037e-06
2.89733e-06
2.6321e-10
2.89728e-06
-3.28939e-11
2.89725e-06
5.13452e-10
2.8972e-06
3.20493e-10
2.89717e-06
9.64458e-10
2.89709e-06
7.70974e-10
2.89705e-06
1.42805e-09
2.89695e-06
1.2853e-09
2.8969e-06
1.98295e-09
2.89677e-06
1.91974e-09
2.89669e-06
2.67051e-09
2.89653e-06
2.75381e-09
2.89643e-06
3.58909e-09
2.89625e-06
3.91432e-09
2.89614e-06
4.89254e-09
2.89596e-06
5.59476e-09
2.89586e-06
6.81344e-09
2.89576e-06
8.02818e-09
2.89577e-06
9.56764e-09
1.12475e-08
2.89588e-06
3.0616e-06
2.54029e-10
3.06155e-06
1.40705e-11
3.06153e-06
5.37247e-10
3.06146e-06
3.82412e-10
3.06144e-06
9.88333e-10
3.06136e-06
8.52198e-10
3.06132e-06
1.46758e-09
3.06122e-06
1.38917e-09
3.06116e-06
2.03967e-09
3.06103e-06
2.05036e-09
3.06095e-06
2.74844e-09
3.06079e-06
2.91018e-09
3.06069e-06
3.68937e-09
3.06052e-06
4.08779e-09
3.06041e-06
5.00762e-09
3.06024e-06
5.75612e-09
3.06015e-06
6.90834e-09
3.06007e-06
8.1058e-09
3.06009e-06
9.5547e-09
1.11272e-08
3.06021e-06
3.23518e-06
2.43975e-10
3.23513e-06
6.0018e-11
3.23511e-06
5.58493e-10
3.23505e-06
4.46655e-10
3.23502e-06
1.0131e-09
3.23494e-06
9.35e-10
3.2349e-06
1.5089e-09
3.23479e-06
1.49398e-09
3.23473e-06
2.09877e-09
3.23461e-06
2.17934e-09
3.23452e-06
2.82918e-09
3.23437e-06
3.06147e-09
3.23427e-06
3.79181e-09
3.23411e-06
4.25105e-09
3.23399e-06
5.12162e-09
3.23385e-06
5.90104e-09
3.23376e-06
6.99632e-09
3.2337e-06
8.16476e-09
3.23372e-06
9.53183e-09
1.09998e-08
3.23385e-06
3.4186e-06
2.33006e-10
3.41856e-06
1.04648e-10
3.41854e-06
5.77425e-10
3.41847e-06
5.11902e-10
3.41845e-06
1.03892e-09
3.41836e-06
1.01805e-09
3.41832e-06
1.55212e-09
3.41821e-06
1.59815e-09
3.41815e-06
2.16092e-09
3.41803e-06
2.30589e-09
3.41794e-06
2.91329e-09
3.4178e-06
3.20707e-09
3.41769e-06
3.89626e-09
3.41754e-06
4.40387e-09
3.41743e-06
5.23357e-09
3.4173e-06
6.03024e-09
3.41722e-06
7.07579e-09
3.41718e-06
8.20642e-09
3.41721e-06
9.4982e-09
1.08665e-08
3.41734e-06
3.61242e-06
2.21765e-10
3.61238e-06
1.48123e-10
3.61236e-06
5.94889e-10
3.6123e-06
5.77354e-10
3.61227e-06
1.06654e-09
3.61219e-06
1.10075e-09
3.61214e-06
1.59787e-09
3.61204e-06
1.70095e-09
3.61197e-06
2.22603e-09
3.61185e-06
2.42853e-09
3.61176e-06
2.99991e-09
3.61162e-06
3.34551e-09
3.61152e-06
4.00119e-09
3.61138e-06
4.54522e-09
3.61127e-06
5.34141e-09
3.61116e-06
6.14359e-09
3.61109e-06
7.14524e-09
3.61106e-06
8.2322e-09
3.61111e-06
9.45368e-09
1.07283e-08
3.61124e-06
3.81723e-06
2.10403e-10
3.81719e-06
1.89893e-10
3.81717e-06
6.11341e-10
3.81711e-06
6.41775e-10
3.81708e-06
1.09605e-09
3.817e-06
1.18192e-09
3.81695e-06
1.64611e-09
3.81685e-06
1.8011e-09
3.81678e-06
2.29416e-09
3.81666e-06
2.54665e-09
3.81657e-06
3.08881e-09
3.81644e-06
3.47649e-09
3.81634e-06
4.1057e-09
3.81621e-06
4.67524e-09
3.81611e-06
5.44379e-09
3.81601e-06
6.24195e-09
3.81595e-06
7.20349e-09
3.81594e-06
8.24326e-09
3.816e-06
9.39812e-09
1.05856e-08
3.81614e-06
4.03365e-06
1.99621e-10
4.03361e-06
2.29863e-10
4.0336e-06
6.27603e-10
4.03353e-06
7.04436e-10
4.0335e-06
1.12786e-09
4.03342e-06
1.26097e-09
4.03337e-06
1.69704e-09
4.03328e-06
1.89796e-09
4.03321e-06
2.36478e-09
4.03309e-06
2.65927e-09
4.033e-06
3.17868e-09
4.03288e-06
3.59915e-09
4.03278e-06
4.20793e-09
4.03266e-06
4.79346e-09
4.03256e-06
5.53873e-09
4.03248e-06
6.32547e-09
4.03243e-06
7.24949e-09
4.03244e-06
8.24061e-09
4.0325e-06
9.33186e-09
1.04389e-08
4.03265e-06
4.26235e-06
1.89642e-10
4.26231e-06
2.67427e-10
4.26229e-06
6.44075e-10
4.26223e-06
7.64395e-10
4.2622e-06
1.1618e-09
4.26212e-06
1.33701e-09
4.26207e-06
1.75024e-09
4.26198e-06
1.99068e-09
4.2619e-06
2.43729e-09
4.2618e-06
2.76603e-09
4.26171e-06
3.2686e-09
4.26159e-06
3.71342e-09
4.26149e-06
4.30658e-09
4.26139e-06
4.90013e-09
4.2613e-06
5.62496e-09
4.26123e-06
6.39487e-09
4.2612e-06
7.28268e-09
4.26121e-06
8.22508e-09
4.26129e-06
9.25525e-09
1.02884e-08
4.26144e-06
4.504e-06
1.81057e-10
4.50397e-06
3.02449e-10
4.50395e-06
6.61289e-10
4.50389e-06
8.21177e-10
4.50386e-06
1.19784e-09
4.50379e-06
1.40963e-09
4.50373e-06
1.80536e-09
4.50364e-06
2.07886e-09
4.50357e-06
2.51072e-09
4.50347e-06
2.86639e-09
4.50338e-06
3.35698e-09
4.50327e-06
3.81881e-09
4.50318e-06
4.39979e-09
4.50309e-06
4.99501e-09
4.50301e-06
5.70094e-09
4.50295e-06
6.4503e-09
4.50293e-06
7.30259e-09
4.50296e-06
8.19727e-09
4.50305e-06
9.16887e-09
1.0134e-08
4.5032e-06
4.75936e-06
1.7398e-10
4.75933e-06
3.34484e-10
4.75931e-06
6.79356e-10
4.75926e-06
8.74258e-10
4.75922e-06
1.23548e-09
4.75915e-06
1.47829e-09
4.7591e-06
1.8616e-09
4.75901e-06
2.162e-09
4.75894e-06
2.58396e-09
4.75885e-06
2.96013e-09
4.75876e-06
3.44255e-09
4.75866e-06
3.91528e-09
4.75858e-06
4.48623e-09
4.75849e-06
5.07823e-09
4.75843e-06
5.76578e-09
4.75839e-06
6.4922e-09
4.75838e-06
7.30921e-09
4.75842e-06
8.15776e-09
4.75852e-06
9.07327e-09
9.97606e-09
4.75867e-06
5.0292e-06
1.68728e-10
5.02917e-06
3.63545e-10
5.02915e-06
6.98375e-10
5.0291e-06
9.23477e-10
5.02906e-06
1.27425e-09
5.029e-06
1.54278e-09
5.02894e-06
1.91815e-09
5.02886e-06
2.23989e-09
5.02879e-06
2.65577e-09
5.0287e-06
3.04693e-09
5.02862e-06
3.52371e-09
5.02854e-06
4.00248e-09
5.02846e-06
4.56441e-09
5.02839e-06
5.14957e-09
5.02833e-06
5.81855e-09
5.0283e-06
6.52066e-09
5.02831e-06
7.30257e-09
5.02836e-06
8.10696e-09
5.02847e-06
8.96904e-09
9.81449e-09
5.02863e-06
5.31433e-06
1.6518e-10
5.31431e-06
3.89465e-10
5.31429e-06
7.18099e-10
5.31424e-06
9.6868e-10
5.3142e-06
1.31335e-09
5.31414e-06
1.60284e-09
5.31409e-06
1.97394e-09
5.31401e-06
2.31224e-09
5.31395e-06
2.72485e-09
5.31387e-06
3.12654e-09
5.31379e-06
3.59919e-09
5.31371e-06
4.0802e-09
5.31364e-06
4.63325e-09
5.31358e-06
5.20897e-09
5.31354e-06
5.8588e-09
5.31353e-06
6.53593e-09
5.31355e-06
7.28298e-09
5.31361e-06
8.04531e-09
5.31372e-06
8.85672e-09
9.64937e-09
5.31389e-06
5.61563e-06
1.63329e-10
5.61561e-06
4.1245e-10
5.61559e-06
7.38232e-10
5.61555e-06
1.00993e-09
5.61551e-06
1.35206e-09
5.61546e-06
1.65836e-09
5.6154e-06
2.02793e-09
5.61533e-06
2.37884e-09
5.61527e-06
2.78995e-09
5.6152e-06
3.19862e-09
5.61513e-06
3.66769e-09
5.61506e-06
4.14806e-09
5.615e-06
4.69176e-09
5.61496e-06
5.25618e-09
5.61493e-06
5.88614e-09
5.61493e-06
6.5381e-09
5.61496e-06
7.25075e-09
5.61503e-06
7.97318e-09
5.61515e-06
8.73677e-09
9.4808e-09
5.61532e-06
5.93402e-06
1.6284e-10
5.934e-06
4.32567e-10
5.93398e-06
7.5828e-10
5.93394e-06
1.04726e-09
5.9339e-06
1.38948e-09
5.93385e-06
1.70918e-09
5.9338e-06
2.07903e-09
5.93374e-06
2.43939e-09
5.93368e-06
2.84988e-09
5.93362e-06
3.26281e-09
5.93356e-06
3.72816e-09
5.9335e-06
4.2057e-09
5.93345e-06
4.73925e-09
5.93342e-06
5.29107e-09
5.9334e-06
5.90047e-09
5.93341e-06
6.52739e-09
5.93346e-06
7.20634e-09
5.93354e-06
7.89099e-09
5.93367e-06
8.60964e-09
9.30883e-09
5.93384e-06
6.27045e-06
1.63483e-10
6.27044e-06
4.5012e-10
6.27042e-06
7.77749e-10
6.27038e-06
1.08078e-09
6.27035e-06
1.42482e-09
6.2703e-06
1.75514e-09
6.27025e-06
2.12628e-09
6.2702e-06
2.49359e-09
6.27015e-06
2.90362e-09
6.27009e-06
3.31866e-09
6.27004e-06
3.77969e-09
6.26999e-06
4.25273e-09
6.26996e-06
4.77517e-09
6.26993e-06
5.31343e-09
6.26993e-06
5.90179e-09
6.26996e-06
6.50397e-09
6.27001e-06
7.15017e-09
6.2701e-06
7.79912e-09
6.27024e-06