/*--------------------------------*- C++ -*----------------------------------*\
| =========                 |                                                 |
| \\      /  F ield         | OpenFOAM: The Open Source CFD Toolbox           |
|  \\    /   O peration     | Version:  v1912                                 |
|   \\  /    A nd           | Website:  www.openfoam.com                      |
|    \\/     M anipulation  |                                                 |
\*---------------------------------------------------------------------------*/
FoamFile
{
    version     2.0;
    format      ascii;
    class       volVectorField;
    location    "900";
    object      U;
}
// * * * * * * * * * * * * * * * * * * * * * * * * * * * * * * * * * * * * * //

dimensions      [0 1 -1 0 0 0 0];


internalField   nonuniform List<vector> 
10000
(
(0.934899 -0.000807547 0)
(1.06049 -8.48055e-05 0)
(0.932602 -0.000107011 0)
(1.06245 2.35165e-05 0)
(0.931268 -8.39718e-05 0)
(1.06402 4.8654e-05 0)
(0.929642 -8.35958e-05 0)
(1.06565 6.55163e-05 0)
(0.927913 -9.07757e-05 0)
(1.06734 8.21242e-05 0)
(0.926051 -0.000103011 0)
(1.06908 0.000101403 0)
(0.924042 -0.000120822 0)
(1.07086 0.00012609 0)
(0.921854 -0.000146431 0)
(1.07265 0.000160479 0)
(0.919413 -0.000184441 0)
(1.07431 0.000211852 0)
(0.916471 -0.000233102 0)
(1.07508 0.000256326 0)
(0.986066 -0.00157559 0)
(1.01525 -0.000149913 0)
(0.986016 1.35095e-05 0)
(1.01454 -2.00306e-05 0)
(0.987176 3.31156e-05 0)
(1.01332 -2.09332e-05 0)
(0.988245 4.0869e-05 0)
(1.01199 -2.92313e-05 0)
(0.989421 4.86051e-05 0)
(1.01053 -3.95238e-05 0)
(0.990686 5.8877e-05 0)
(1.00891 -5.19286e-05 0)
(0.992042 7.26769e-05 0)
(1.00711 -6.7162e-05 0)
(0.993477 9.16021e-05 0)
(1.00507 -8.62433e-05 0)
(0.994937 0.00011955 0)
(1.00261 -0.00011342 0)
(0.996198 0.000195532 0)
(0.998819 -0.000238954 0)
(0.999313 -0.00171365 0)
(1.00021 -1.25534e-05 0)
(0.998722 7.1437e-06 0)
(1.00028 3.84335e-05 0)
(0.999195 -2.3195e-05 0)
(0.999965 3.4274e-05 0)
(0.999456 -3.12678e-05 0)
(0.999639 3.63108e-05 0)
(0.999688 -3.65631e-05 0)
(0.9993 4.10557e-05 0)
(0.999864 -4.05463e-05 0)
(0.998944 4.67774e-05 0)
(0.999973 -4.31186e-05 0)
(0.998557 5.2233e-05 0)
(0.999984 -4.17616e-05 0)
(0.998097 5.48827e-05 0)
(0.999828 -2.78331e-05 0)
(0.997423 4.50547e-05 0)
(0.999259 6.04065e-05 0)
(0.995747 -4.34042e-05 0)
(1.00035 -0.00161906 0)
(0.998565 -7.19805e-05 0)
(0.9995 2.93329e-05 0)
(0.998895 -3.41477e-05 0)
(0.999686 1.68359e-05 0)
(0.998843 -2.95289e-05 0)
(0.999669 2.56246e-05 0)
(0.998779 -2.76401e-05 0)
(0.999638 3.1442e-05 0)
(0.998689 -2.66835e-05 0)
(0.999568 3.59309e-05 0)
(0.998566 -2.51958e-05 0)
(0.999451 3.92169e-05 0)
(0.998392 -2.11997e-05 0)
(0.999263 4.14792e-05 0)
(0.99812 -1.14787e-05 0)
(0.99894 4.5051e-05 0)
(0.997603 8.67525e-06 0)
(0.998242 9.74715e-05 0)
(0.996098 9.99121e-05 0)
(1 -0.00159192 0)
(0.998926 -5.90324e-05 0)
(0.999134 -2.62991e-06 0)
(0.999266 1.07941e-05 0)
(0.999274 -1.22019e-05 0)
(0.999243 1.89042e-05 0)
(0.999216 -7.99194e-06 0)
(0.999201 1.94318e-05 0)
(0.999149 -6.07234e-06 0)
(0.999131 1.84568e-05 0)
(0.999048 -2.04284e-06 0)
(0.999024 1.62391e-05 0)
(0.998905 5.82372e-06 0)
(0.998861 1.22479e-05 0)
(0.998694 2.08341e-05 0)
(0.998597 5.85287e-06 0)
(0.998352 5.17054e-05 0)
(0.998085 -3.84571e-06 0)
(0.997639 0.000165417 0)
(0.996626 0.000106241 0)
(0.999964 -0.00150977 0)
(0.999026 -9.91178e-05 0)
(0.999125 2.78961e-05 0)
(0.999336 -1.51795e-05 0)
(0.999269 1.12318e-05 0)
(0.999306 -1.01541e-05 0)
(0.999217 1.40728e-05 0)
(0.999256 -8.26964e-06 0)
(0.999157 1.52698e-05 0)
(0.999176 -5.04487e-06 0)
(0.999063 1.71955e-05 0)
(0.999058 -6.25338e-07 0)
(0.998928 2.05275e-05 0)
(0.998884 4.82533e-06 0)
(0.998727 2.88624e-05 0)
(0.998607 1.01692e-05 0)
(0.998394 5.54771e-05 0)
(0.998084 7.99601e-06 0)
(0.997694 0.0002009 0)
(0.996653 0.000114329 0)
(0.999972 -0.00146607 0)
(0.999072 -9.86186e-05 0)
(0.999159 1.47726e-05 0)
(0.999358 -2.13054e-06 0)
(0.999301 -3.3405e-06 0)
(0.999329 3.7761e-06 0)
(0.99925 4.16411e-06 0)
(0.999279 4.95017e-06 0)
(0.999189 9.54083e-06 0)
(0.9992 5.34398e-06 0)
(0.999095 1.61184e-05 0)
(0.999083 5.5255e-06 0)
(0.998959 2.49513e-05 0)
(0.998909 6.46997e-06 0)
(0.998756 3.92185e-05 0)
(0.998634 9.50478e-06 0)
(0.998422 7.09986e-05 0)
(0.998113 1.25463e-05 0)
(0.997722 0.000233046 0)
(0.996732 0.000143597 0)
(1.00005 -0.00139464 0)
(0.99905 -0.000123314 0)
(0.999261 2.51476e-05 0)
(0.999313 -1.07111e-05 0)
(0.999402 4.39386e-06 0)
(0.999284 -2.03367e-06 0)
(0.99935 1.08518e-05 0)
(0.999234 8.89055e-07 0)
(0.999289 1.40616e-05 0)
(0.999155 3.27964e-06 0)
(0.999194 1.8968e-05 0)
(0.999038 5.6054e-06 0)
(0.999058 2.74853e-05 0)
(0.998865 7.97199e-06 0)
(0.998855 4.43871e-05 0)
(0.99859 1.05744e-05 0)
(0.998521 8.47099e-05 0)
(0.998071 1.27827e-05 0)
(0.997823 0.000271624 0)
(0.996737 0.000171253 0)
(1.0002 -0.00133364 0)
(0.998945 -0.000133625 0)
(0.999441 2.36522e-05 0)
(0.99918 -8.07239e-06 0)
(0.999583 2.20388e-06 0)
(0.999148 -1.97104e-07 0)
(0.999534 1.07993e-05 0)
(0.999095 1.91127e-06 0)
(0.999477 1.59901e-05 0)
(0.999012 3.90948e-06 0)
(0.999386 2.28712e-05 0)
(0.998892 6.40146e-06 0)
(0.999254 3.31001e-05 0)
(0.998715 9.72957e-06 0)
(0.999055 5.20507e-05 0)
(0.998436 1.39002e-05 0)
(0.998725 9.81925e-05 0)
(0.997917 1.74837e-05 0)
(0.998034 0.000310689 0)
(0.996628 0.000199496 0)
(1.00018 -0.00126302 0)
(0.999005 -0.000149168 0)
(0.999456 2.72933e-05 0)
(0.999217 -9.85379e-06 0)
(0.999594 3.57561e-06 0)
(0.999188 -8.02997e-07 0)
(0.999543 1.284e-05 0)
(0.999137 2.25798e-06 0)
(0.999483 1.84479e-05 0)
(0.999057 4.72866e-06 0)
(0.99939 2.62139e-05 0)
(0.998939 7.31481e-06 0)
(0.999255 3.81296e-05 0)
(0.998765 1.0662e-05 0)
(0.999053 6.00601e-05 0)
(0.998491 1.54502e-05 0)
(0.998721 0.000112406 0)
(0.997977 2.18139e-05 0)
(0.99803 0.000348352 0)
(0.996742 0.000228302 0)
(1.00017 -0.00119575 0)
(0.99907 -0.000162228 0)
(0.999473 2.82873e-05 0)
(0.999258 -1.03546e-05 0)
(0.999608 3.97741e-06 0)
(0.99923 -9.63533e-07 0)
(0.999556 1.46638e-05 0)
(0.99918 2.42235e-06 0)
(0.999496 2.10198e-05 0)
(0.9991 5.25635e-06 0)
(0.999402 2.97367e-05 0)
(0.998983 8.38192e-06 0)
(0.999267 4.3222e-05 0)
(0.998809 1.23405e-05 0)
(0.999065 6.82648e-05 0)
(0.998535 1.78378e-05 0)
(0.998732 0.00012769 0)
(0.998026 2.70604e-05 0)
(0.998045 0.000386456 0)
(0.99684 0.000259299 0)
(1.00021 -0.00112727 0)
(0.999088 -0.000175028 0)
(0.999539 2.95692e-05 0)
(0.999251 -1.077e-05 0)
(0.999671 4.66083e-06 0)
(0.999223 -9.57819e-07 0)
(0.999619 1.65433e-05 0)
(0.999172 2.8382e-06 0)
(0.99956 2.37347e-05 0)
(0.999092 5.98508e-06 0)
(0.999466 3.36096e-05 0)
(0.998974 9.52295e-06 0)
(0.999332 4.87668e-05 0)
(0.998801 1.41084e-05 0)
(0.99913 7.67812e-05 0)
(0.998527 2.05924e-05 0)
(0.998798 0.000143181 0)
(0.998021 3.31601e-05 0)
(0.998116 0.000424014 0)
(0.996884 0.000291685 0)
(1.00025 -0.00105782 0)
(0.999093 -0.000186558 0)
(0.999617 3.05536e-05 0)
(0.999231 -1.12405e-05 0)
(0.999746 5.48866e-06 0)
(0.999204 -1.19645e-06 0)
(0.999694 1.86062e-05 0)
(0.999153 3.09549e-06 0)
(0.999635 2.66335e-05 0)
(0.999072 6.61572e-06 0)
(0.999542 3.76922e-05 0)
(0.998954 1.05579e-05 0)
(0.999407 5.46806e-05 0)
(0.998781 1.57137e-05 0)
(0.999206 8.59448e-05 0)
(0.998508 2.3278e-05 0)
(0.998874 0.000159548 0)
(0.998006 3.99088e-05 0)
(0.998198 0.000461581 0)
(0.99692 0.000325058 0)
(1.00029 -0.000987364 0)
(0.999107 -0.000196645 0)
(0.999686 3.09908e-05 0)
(0.99922 -1.14473e-05 0)
(0.999811 6.25353e-06 0)
(0.999193 -1.25769e-06 0)
(0.99976 2.0659e-05 0)
(0.999142 3.5608e-06 0)
(0.999701 2.95649e-05 0)
(0.999062 7.49942e-06 0)
(0.999607 4.18217e-05 0)
(0.998944 1.19487e-05 0)
(0.999473 6.06627e-05 0)
(0.998771 1.78003e-05 0)
(0.999272 9.5266e-05 0)
(0.998499 2.66059e-05 0)
(0.99894 0.000176193 0)
(0.998003 4.80061e-05 0)
(0.998271 0.000498193 0)
(0.996966 0.00036016 0)
(1.00031 -0.000916486 0)
(0.99914 -0.000205578 0)
(0.999737 3.1217e-05 0)
(0.999229 -1.17081e-05 0)
(0.999858 7.32307e-06 0)
(0.999203 -1.495e-06 0)
(0.999806 2.30185e-05 0)
(0.999152 3.85401e-06 0)
(0.999747 3.28567e-05 0)
(0.999072 8.19744e-06 0)
(0.999653 4.64082e-05 0)
(0.998955 1.31572e-05 0)
(0.999519 6.72087e-05 0)
(0.998782 1.97563e-05 0)
(0.999318 0.000105273 0)
(0.998511 2.99735e-05 0)
(0.998986 0.000193663 0)
(0.998021 5.68425e-05 0)
(0.998324 0.000534384 0)
(0.997035 0.000396249 0)
(1.00032 -0.000846502 0)
(0.999184 -0.000212946 0)
(0.999777 3.07907e-05 0)
(0.999249 -1.16753e-05 0)
(0.999893 8.27141e-06 0)
(0.999225 -1.53362e-06 0)
(0.999841 2.52505e-05 0)
(0.999174 4.40698e-06 0)
(0.999781 3.60556e-05 0)
(0.999093 9.20478e-06 0)
(0.999688 5.09419e-05 0)
(0.998977 1.47265e-05 0)
(0.999554 7.37743e-05 0)
(0.998805 2.2156e-05 0)
(0.999352 0.000115402 0)
(0.998535 3.40062e-05 0)
(0.999021 0.000211313 0)
(0.998052 6.7109e-05 0)
(0.998367 0.000569379 0)
(0.997116 0.000433821 0)
(1.00034 -0.000777182 0)
(0.999213 -0.000218952 0)
(0.999832 3.01948e-05 0)
(0.999255 -1.17387e-05 0)
(0.999943 9.59258e-06 0)
(0.999232 -1.78209e-06 0)
(0.999891 2.78629e-05 0)
(0.99918 4.7908e-06 0)
(0.999831 3.96963e-05 0)
(0.9991 1.00811e-05 0)
(0.999738 5.59879e-05 0)
(0.998983 1.62223e-05 0)
(0.999604 8.09366e-05 0)
(0.998812 2.45776e-05 0)
(0.999403 0.000126231 0)
(0.998544 3.82994e-05 0)
(0.999072 0.000229692 0)
(0.998068 7.84307e-05 0)
(0.998428 0.000603602 0)
(0.99718 0.000472312 0)
(1.00036 -0.00070873 0)
(0.999237 -0.000222988 0)
(0.999891 2.89432e-05 0)
(0.999256 -1.14737e-05 0)
(0.999996 1.07889e-05 0)
(0.999235 -1.81298e-06 0)
(0.999944 3.03027e-05 0)
(0.999183 5.40273e-06 0)
(0.999884 4.31937e-05 0)
(0.999103 1.12011e-05 0)
(0.999791 6.09421e-05 0)
(0.998987 1.80061e-05 0)
(0.999656 8.80898e-05 0)
(0.998816 2.73867e-05 0)
(0.999455 0.000137152 0)
(0.998549 4.32464e-05 0)
(0.999126 0.000248155 0)
(0.998081 9.12221e-05 0)
(0.998492 0.000636326 0)
(0.997242 0.000511944 0)
(1.00041 -0.000640167 0)
(0.999241 -0.00022539 0)
(0.999969 2.75865e-05 0)
(0.999239 -1.1342e-05 0)
(1.00007 1.24723e-05 0)
(0.999218 -1.98659e-06 0)
(1.00002 3.32612e-05 0)
(0.999166 5.95088e-06 0)
(0.999956 4.72656e-05 0)
(0.999086 1.23027e-05 0)
(0.999863 6.65211e-05 0)
(0.99897 1.98337e-05 0)
(0.999729 9.59199e-05 0)
(0.998799 3.03587e-05 0)
(0.999528 0.000148797 0)
(0.998535 4.86616e-05 0)
(0.9992 0.000267246 0)
(0.998075 0.000105316 0)
(0.998577 0.000667968 0)
(0.997282 0.000552326 0)
(1.00045 -0.000571396 0)
(0.999241 -0.00022569 0)
(1.00005 2.55021e-05 0)
(0.999218 -1.10199e-05 0)
(1.00014 1.37892e-05 0)
(0.999199 -2.11168e-06 0)
(1.00009 3.58096e-05 0)
(0.999146 6.61716e-06 0)
(1.00003 5.10166e-05 0)
(0.999067 1.36039e-05 0)
(0.999936 7.18733e-05 0)
(0.998951 2.19611e-05 0)
(0.999801 0.000103629 0)
(0.998782 3.37831e-05 0)
(0.999601 0.000160417 0)
(0.998519 5.48689e-05 0)
(0.999274 0.000286225 0)
(0.998068 0.000121025 0)
(0.998664 0.000697789 0)
(0.997322 0.000593529 0)
(1.00057 -0.000499608 0)
(0.999171 -0.000224381 0)
(1.0002 2.38241e-05 0)
(0.999129 -1.03925e-05 0)
(1.00028 1.60604e-05 0)
(0.99911 -2.1274e-06 0)
(1.00023 3.91285e-05 0)
(0.999058 7.31044e-06 0)
(1.00017 5.54981e-05 0)
(0.998978 1.48995e-05 0)
(1.00008 7.7961e-05 0)
(0.998862 2.41108e-05 0)
(0.999943 0.000112104 0)
(0.998693 3.73492e-05 0)
(0.999743 0.000172816 0)
(0.998433 6.15713e-05 0)
(0.999418 0.000305772 0)
(0.997991 0.000138061 0)
(0.998822 0.000726325 0)
(0.997289 0.000635033 0)
(1.00069 -0.000421044 0)
(0.99909 -0.000222141 0)
(1.00035 2.03782e-05 0)
(0.999031 -1.00918e-05 0)
(1.00043 1.77406e-05 0)
(0.999014 -2.08607e-06 0)
(1.00038 4.2021e-05 0)
(0.998962 8.25808e-06 0)
(1.00032 5.96833e-05 0)
(0.998883 1.65806e-05 0)
(1.00022 8.38306e-05 0)
(0.998768 2.67863e-05 0)
(1.00009 0.00012042 0)
(0.9986 4.16552e-05 0)
(0.999887 0.000185067 0)
(0.998342 6.94524e-05 0)
(0.999564 0.000324922 0)
(0.99791 0.000157087 0)
(0.998983 0.000752676 0)
(0.997251 0.000677139 0)
(1.00105 -0.000325786 0)
(0.998769 -0.000215631 0)
(1.00074 1.74451e-05 0)
(0.998693 -1.00008e-05 0)
(1.00081 1.98749e-05 0)
(0.998675 -2.36216e-06 0)
(1.00076 4.53081e-05 0)
(0.998621 8.92907e-06 0)
(1.0007 6.43438e-05 0)
(0.99854 1.80392e-05 0)
(1.00061 9.02635e-05 0)
(0.998424 2.93253e-05 0)
(1.00048 0.000129389 0)
(0.998256 4.59861e-05 0)
(1.00028 0.000198024 0)
(0.997999 7.77322e-05 0)
(0.99996 0.000344574 0)
(0.997576 0.000177155 0)
(0.999398 0.000777843 0)
(0.99696 0.000718548 0)
(1.00097 -0.000221617 0)
(0.998872 -0.000203378 0)
(1.00069 1.59624e-05 0)
(0.998786 -8.79682e-06 0)
(1.00076 2.26609e-05 0)
(0.998769 -1.96917e-06 0)
(1.00071 4.88744e-05 0)
(0.998716 1.01498e-05 0)
(1.00065 6.9194e-05 0)
(0.998636 2.00461e-05 0)
(1.00055 9.68407e-05 0)
(0.998522 3.24982e-05 0)
(1.00042 0.000138464 0)
(0.998357 5.11639e-05 0)
(1.00022 0.000210976 0)
(0.998106 8.73438e-05 0)
(0.999906 0.000363752 0)
(0.997699 0.000199329 0)
(0.999359 0.000800461 0)
(0.997133 0.000760507 0)
(1.00052 -0.000137459 0)
(0.999348 -0.000193136 0)
(1.00027 1.32143e-05 0)
(0.999255 -8.64184e-06 0)
(1.00032 2.51188e-05 0)
(0.999241 -2.10053e-06 0)
(1.00027 5.22901e-05 0)
(0.999188 1.10633e-05 0)
(1.00021 7.40533e-05 0)
(0.999111 2.19151e-05 0)
(1.00012 0.000103523 0)
(0.998998 3.57231e-05 0)
(0.999981 0.000147689 0)
(0.998836 5.66826e-05 0)
(0.999783 0.000224004 0)
(0.998591 9.78388e-05 0)
(0.999467 0.000382529 0)
(0.998198 0.000223106 0)
(0.998937 0.000820678 0)
(0.997677 0.000802262 0)
(1.00018 -8.69773e-05 0)
(0.99971 -0.000185503 0)
(0.999944 9.78774e-06 0)
(0.999613 -8.40975e-06 0)
(0.999991 2.76953e-05 0)
(0.999599 -1.74454e-06 0)
(0.999939 5.58329e-05 0)
(0.999546 1.25201e-05 0)
(0.999878 7.90741e-05 0)
(0.999469 2.43863e-05 0)
(0.999785 0.00011038 0)
(0.999357 3.96573e-05 0)
(0.999652 0.000157086 0)
(0.999196 6.31279e-05 0)
(0.999454 0.000237124 0)
(0.998954 0.000109698 0)
(0.999142 0.000400989 0)
(0.998572 0.000248644 0)
(0.998633 0.000838999 0)
(0.998086 0.000843231 0)
(1.00004 -5.95612e-05 0)
(0.999863 -0.000177138 0)
(0.999825 7.61286e-06 0)
(0.999763 -8.02406e-06 0)
(0.999864 3.08301e-05 0)
(0.99975 -1.36456e-06 0)
(0.999813 5.96791e-05 0)
(0.999696 1.39346e-05 0)
(0.999753 8.43716e-05 0)
(0.999619 2.68751e-05 0)
(0.99966 0.000117512 0)
(0.999508 4.37606e-05 0)
(0.999527 0.000166745 0)
(0.999347 7.00265e-05 0)
(0.999331 0.000250396 0)
(0.999108 0.000122514 0)
(0.999024 0.000419152 0)
(0.998738 0.000275461 0)
(0.998537 0.000855577 0)
(0.998286 0.000882657 0)
(1.00001 -4.23126e-05 0)
(0.999914 -0.000166891 0)
(0.999807 5.95908e-06 0)
(0.999812 -7.684e-06 0)
(0.999839 3.38579e-05 0)
(0.999799 -8.15795e-07 0)
(0.999788 6.34257e-05 0)
(0.999745 1.56321e-05 0)
(0.999728 8.96704e-05 0)
(0.999668 2.97972e-05 0)
(0.999635 0.000124703 0)
(0.999557 4.84919e-05 0)
(0.999503 0.000176465 0)
(0.999398 7.78602e-05 0)
(0.999309 0.000263603 0)
(0.999162 0.000136762 0)
(0.999008 0.000436753 0)
(0.998804 0.000303911 0)
(0.998543 0.000870166 0)
(0.998387 0.000920818 0)
(0.999998 -2.86426e-05 0)
(0.999933 -0.000155993 0)
(0.999818 4.7903e-06 0)
(0.999831 -7.66607e-06 0)
(0.999842 3.71777e-05 0)
(0.999817 -2.10682e-07 0)
(0.999792 6.74665e-05 0)
(0.999763 1.74456e-05 0)
(0.999732 9.52863e-05 0)
(0.999687 3.29345e-05 0)
(0.99964 0.000132196 0)
(0.999577 5.36031e-05 0)
(0.999508 0.000186437 0)
(0.99942 8.63623e-05 0)
(0.999316 0.000276896 0)
(0.999188 0.000152123 0)
(0.99902 0.00045393 0)
(0.998844 0.000333459 0)
(0.998579 0.000883061 0)
(0.998459 0.000956998 0)
(0.999997 -1.71523e-05 0)
(0.999946 -0.000144731 0)
(0.999834 3.96526e-06 0)
(0.999844 -7.54416e-06 0)
(0.999851 4.05384e-05 0)
(0.99983 7.45249e-07 0)
(0.999802 7.14655e-05 0)
(0.999775 1.96321e-05 0)
(0.999741 0.000100865 0)
(0.999699 3.65697e-05 0)
(0.999649 0.000139645 0)
(0.99959 5.94197e-05 0)
(0.999519 0.000196311 0)
(0.999435 9.59019e-05 0)
(0.999328 0.000289913 0)
(0.999209 0.000168965 0)
(0.999039 0.00047032 0)
(0.998878 0.0003643 0)
(0.998622 0.000894069 0)
(0.998526 0.000991258 0)
(0.999997 -7.24818e-06 0)
(0.999955 -0.00013354 0)
(0.999851 3.83972e-06 0)
(0.999855 -7.56577e-06 0)
(0.99986 4.41388e-05 0)
(0.99984 1.78728e-06 0)
(0.999811 7.56651e-05 0)
(0.999786 2.19602e-05 0)
(0.999751 0.000106676 0)
(0.999711 4.04939e-05 0)
(0.999659 0.000147318 0)
(0.999603 6.57385e-05 0)
(0.99953 0.000206346 0)
(0.99945 0.000106262 0)
(0.999341 0.000302897 0)
(0.999228 0.000187001 0)
(0.99906 0.000486171 0)
(0.998911 0.000395922 0)
(0.998668 0.000903611 0)
(0.99859 0.00102299 0)
(0.999997 9.72237e-07 0)
(0.999964 -0.00012229 0)
(0.999866 4.17668e-06 0)
(0.999866 -7.46554e-06 0)
(0.999869 4.77052e-05 0)
(0.99985 3.20985e-06 0)
(0.999821 7.98151e-05 0)
(0.999796 2.47299e-05 0)
(0.99976 0.000112441 0)
(0.999721 4.50093e-05 0)
(0.999669 0.000154916 0)
(0.999614 7.28663e-05 0)
(0.99954 0.000216221 0)
(0.999464 0.000117746 0)
(0.999354 0.000315521 0)
(0.999248 0.000206467 0)
(0.999081 0.000501193 0)
(0.998945 0.000428344 0)
(0.998714 0.000911582 0)
(0.998653 0.00105218 0)
(0.999997 7.87009e-06 0)
(0.999971 -0.000111326 0)
(0.99988 5.20107e-06 0)
(0.999876 -7.42149e-06 0)
(0.999877 5.14447e-05 0)
(0.99986 4.8196e-06 0)
(0.999829 8.41269e-05 0)
(0.999806 2.77393e-05 0)
(0.999768 0.000118367 0)
(0.999731 4.99227e-05 0)
(0.999678 0.000162638 0)
(0.999626 8.06197e-05 0)
(0.99955 0.000226136 0)
(0.999478 0.00013016 0)
(0.999368 0.000327987 0)
(0.999267 0.000227082 0)
(0.999103 0.000515626 0)
(0.998979 0.000461057 0)
(0.998762 0.00091841 0)
(0.998715 0.00107836 0)
(0.999997 1.33834e-05 0)
(0.999977 -0.000100556 0)
(0.999894 6.70006e-06 0)
(0.999886 -7.17473e-06 0)
(0.999884 5.51211e-05 0)
(0.999869 6.85296e-06 0)
(0.999837 8.83761e-05 0)
(0.999815 3.12345e-05 0)
(0.999776 0.000124216 0)
(0.999741 5.54911e-05 0)
(0.999687 0.000170248 0)
(0.999637 8.92545e-05 0)
(0.99956 0.000235844 0)
(0.999491 0.000143733 0)
(0.999381 0.000340059 0)
(0.999287 0.000248966 0)
(0.999126 0.00052929 0)
(0.999013 0.000493959 0)
(0.998811 0.000924079 0)
(0.998775 0.00110153 0)
(0.999997 1.78374e-05 0)
(0.999982 -9.02539e-05 0)
(0.999906 8.82616e-06 0)
(0.999895 -6.84862e-06 0)
(0.999891 5.88795e-05 0)
(0.999877 9.16487e-06 0)
(0.999845 9.27233e-05 0)
(0.999823 3.50739e-05 0)
(0.999784 0.000130148 0)
(0.99975 6.15783e-05 0)
(0.999695 0.000177888 0)
(0.999647 9.86317e-05 0)
(0.99957 0.000245491 0)
(0.999505 0.000158289 0)
(0.999395 0.0003519 0)
(0.999306 0.000271826 0)
(0.99915 0.000542401 0)
(0.999047 0.000526554 0)
(0.99886 0.000928959 0)
(0.998834 0.00112136 0)
(0.999997 2.12303e-05 0)
(0.999987 -8.03459e-05 0)
(0.999917 1.13818e-05 0)
(0.999904 -6.22776e-06 0)
(0.999897 6.25359e-05 0)
(0.999884 1.1942e-05 0)
(0.999852 9.69989e-05 0)
(0.999831 3.94513e-05 0)
(0.999791 0.000135978 0)
(0.999759 6.83765e-05 0)
(0.999703 0.000185381 0)
(0.999658 0.000108929 0)
(0.99958 0.000254906 0)
(0.999518 0.000173957 0)
(0.999409 0.000363367 0)
(0.999326 0.000295655 0)
(0.999175 0.000554887 0)
(0.999081 0.000558648 0)
(0.99891 0.000933096 0)
(0.998893 0.00113791 0)
(0.999997 2.38415e-05 0)
(0.99999 -7.10236e-05 0)
(0.999927 1.44371e-05 0)
(0.999912 -5.37681e-06 0)
(0.999903 6.61868e-05 0)
(0.999892 1.50898e-05 0)
(0.999859 0.000101309 0)
(0.999838 4.42779e-05 0)
(0.999798 0.000141805 0)
(0.999767 7.57941e-05 0)
(0.999711 0.000192823 0)
(0.999668 0.000120037 0)
(0.99959 0.000264197 0)
(0.999531 0.000190568 0)
(0.999423 0.000374599 0)
(0.999346 0.000320146 0)
(0.999201 0.000566945 0)
(0.999116 0.00058979 0)
(0.998961 0.000936774 0)
(0.99895 0.00115104 0)
(0.999997 2.57041e-05 0)
(0.999993 -6.22209e-05 0)
(0.999936 1.78123e-05 0)
(0.99992 -4.12763e-06 0)
(0.999908 6.96982e-05 0)
(0.999898 1.87389e-05 0)
(0.999865 0.000105534 0)
(0.999846 4.969e-05 0)
(0.999804 0.000147505 0)
(0.999775 8.39587e-05 0)
(0.999718 0.000200101 0)
(0.999677 0.000132054 0)
(0.9996 0.00027327 0)
(0.999544 0.000208144 0)
(0.999438 0.000385543 0)
(0.999366 0.000345175 0)
(0.999228 0.00057858 0)
(0.999151 0.000619744 0)
(0.999012 0.000940047 0)
(0.999007 0.00116086 0)
(0.999997 2.70329e-05 0)
(0.999995 -5.40427e-05 0)
(0.999943 2.1507e-05 0)
(0.999928 -2.50472e-06 0)
(0.999913 7.3127e-05 0)
(0.999904 2.28312e-05 0)
(0.99987 0.000109736 0)
(0.999852 5.56345e-05 0)
(0.99981 0.000153142 0)
(0.999783 9.28064e-05 0)
(0.999726 0.000207284 0)
(0.999687 0.000144879 0)
(0.99961 0.000282215 0)
(0.999557 0.000226507 0)
(0.999454 0.000396327 0)
(0.999386 0.000370428 0)
(0.999256 0.000589955 0)
(0.999186 0.000648135 0)
(0.999063 0.00094309 0)
(0.999062 0.00116742 0)
(0.999997 2.78727e-05 0)
(0.999997 -4.64176e-05 0)
(0.99995 2.53601e-05 0)
(0.999935 -3.8877e-07 0)
(0.999918 7.63877e-05 0)
(0.99991 2.74483e-05 0)
(0.999876 0.00011384 0)
(0.999859 6.21944e-05 0)
(0.999816 0.000158644 0)
(0.99979 0.000102397 0)
(0.999733 0.000214321 0)
(0.999696 0.000158527 0)
(0.99962 0.000291011 0)
(0.99957 0.00024558 0)
(0.99947 0.000406964 0)
(0.999407 0.000395697 0)
(0.999284 0.000601111 0)
(0.999222 0.000674747 0)
(0.999114 0.000945921 0)
(0.999117 0.00117092 0)
(0.999997 2.83708e-05 0)
(0.999998 -3.93726e-05 0)
(0.999956 2.93252e-05 0)
(0.999941 2.21397e-06 0)
(0.999922 7.95154e-05 0)
(0.999915 3.25526e-05 0)
(0.999881 0.000117885 0)
(0.999865 6.93329e-05 0)
(0.999822 0.000164057 0)
(0.999797 0.000112668 0)
(0.99974 0.00022127 0)
(0.999705 0.000172884 0)
(0.99963 0.000299743 0)
(0.999584 0.00026516 0)
(0.999487 0.000417571 0)
(0.999428 0.000420674 0)
(0.999314 0.000612161 0)
(0.999258 0.000699315 0)
(0.999164 0.000948597 0)
(0.999171 0.00117154 0)
(0.999997 2.85615e-05 0)
(0.999999 -3.28257e-05 0)
(0.999961 3.32659e-05 0)
(0.999947 5.37233e-06 0)
(0.999926 8.24667e-05 0)
(0.99992 3.81818e-05 0)
(0.999886 0.000121834 0)
(0.99987 7.70815e-05 0)
(0.999827 0.000169354 0)
(0.999804 0.000123616 0)
(0.999748 0.000228135 0)
(0.999715 0.000187888 0)
(0.999641 0.000308444 0)
(0.999597 0.000285095 0)
(0.999505 0.000428195 0)
(0.99945 0.000445119 0)
(0.999345 0.000623135 0)
(0.999294 0.000721695 0)
(0.999214 0.000951073 0)
(0.999224 0.00116956 0)
(0.999997 2.85293e-05 0)
(1 -2.67483e-05 0)
(0.999965 3.71189e-05 0)
(0.999953 9.07438e-06 0)
(0.99993 8.52701e-05 0)
(0.999925 4.42999e-05 0)
(0.99989 0.000125715 0)
(0.999876 8.53976e-05 0)
(0.999833 0.000174587 0)
(0.999811 0.000135163 0)
(0.999755 0.000234982 0)
(0.999724 0.000203401 0)
(0.999653 0.000317201 0)
(0.999611 0.000305165 0)
(0.999523 0.000438929 0)
(0.999472 0.000468756 0)
(0.999376 0.000634071 0)
(0.999331 0.000741752 0)
(0.999263 0.000953301 0)
(0.999276 0.00116525 0)
(0.999996 2.82925e-05 0)
(1 -2.1054e-05 0)
(0.999969 4.07832e-05 0)
(0.999958 1.33381e-05 0)
(0.999934 8.79194e-05 0)
(0.999929 5.09056e-05 0)
(0.999895 0.000129529 0)
(0.999881 9.42637e-05 0)
(0.999838 0.000179767 0)
(0.999818 0.000147246 0)
(0.999763 0.000241853 0)
(0.999733 0.0002193 0)
(0.999664 0.000326073 0)
(0.999625 0.000325173 0)
(0.999542 0.000449813 0)
(0.999495 0.000491367 0)
(0.999407 0.00064495 0)
(0.999368 0.000759447 0)
(0.999312 0.000955173 0)
(0.999328 0.00115892 0)
(0.999996 2.78886e-05 0)
(1 -1.56866e-05 0)
(0.999972 4.42085e-05 0)
(0.999963 1.81284e-05 0)
(0.999938 9.04482e-05 0)
(0.999933 5.79505e-05 0)
(0.999899 0.000133306 0)
(0.999886 0.000103615 0)
(0.999844 0.000184958 0)
(0.999825 0.000159759 0)
(0.999771 0.000248821 0)
(0.999743 0.000235421 0)
(0.999677 0.000335138 0)
(0.999639 0.000344904 0)
(0.999562 0.000460892 0)
(0.999518 0.000512744 0)
(0.99944 0.000655724 0)
(0.999405 0.000774773 0)
(0.99936 0.000956575 0)
(0.999378 0.00115086 0)
(0.999996 2.73258e-05 0)
(1 -1.05708e-05 0)
(0.999974 4.73403e-05 0)
(0.999967 2.34144e-05 0)
(0.999941 9.28813e-05 0)
(0.999937 6.53976e-05 0)
(0.999903 0.000137077 0)
(0.999891 0.00011339 0)
(0.99985 0.000190201 0)
(0.999831 0.000172592 0)
(0.999779 0.000255947 0)
(0.999753 0.000251606 0)
(0.99969 0.000344446 0)
(0.999654 0.00036416 0)
(0.999582 0.000472159 0)
(0.999542 0.000532732 0)
(0.999472 0.000666307 0)
(0.999443 0.000787793 0)
(0.999406 0.000957366 0)
(0.999427 0.00114136 0)
(0.999996 2.66187e-05 0)
(1 -5.65283e-06 0)
(0.999976 5.01629e-05 0)
(0.999971 2.91297e-05 0)
(0.999944 9.5263e-05 0)
(0.999941 7.31787e-05 0)
(0.999907 0.000140886 0)
(0.999896 0.000123495 0)
(0.999855 0.000195568 0)
(0.999838 0.000185617 0)
(0.999788 0.000263299 0)
(0.999763 0.000267686 0)
(0.999703 0.000354038 0)
(0.99967 0.000382757 0)
(0.999603 0.000483587 0)
(0.999567 0.000551212 0)
(0.999505 0.000676576 0)
(0.99948 0.000798597 0)
(0.999452 0.000957414 0)
(0.999475 0.00113067 0)
(0.999996 2.57781e-05 0)
(1 -8.85283e-07 0)
(0.999978 5.26731e-05 0)
(0.999974 3.52019e-05 0)
(0.999948 9.7639e-05 0)
(0.999944 8.12257e-05 0)
(0.999911 0.000144781 0)
(0.999901 0.000133836 0)
(0.999861 0.000201111 0)
(0.999845 0.0001987 0)
(0.999797 0.000270924 0)
(0.999773 0.000283501 0)
(0.999717 0.000363924 0)
(0.999686 0.000400538 0)
(0.999625 0.000495103 0)
(0.999592 0.000568114 0)
(0.999538 0.000686389 0)
(0.999518 0.000807318 0)
(0.999496 0.000956594 0)
(0.999522 0.00111902 0)
(0.999996 2.48189e-05 0)
(1 3.75977e-06 0)
(0.999979 5.4897e-05 0)
(0.999977 4.1537e-05 0)
(0.999951 0.000100061 0)
(0.999947 8.9451e-05 0)
(0.999916 0.000148812 0)
(0.999906 0.000144299 0)
(0.999867 0.000206894 0)
(0.999852 0.000211705 0)
(0.999806 0.000278861 0)
(0.999783 0.000298902 0)
(0.999731 0.000374084 0)
(0.999702 0.000417378 0)
(0.999647 0.000506605 0)
(0.999618 0.000583405 0)
(0.99957 0.000695582 0)
(0.999555 0.000814096 0)
(0.999539 0.000954801 0)
(0.999567 0.00110659 0)
(0.999996 2.37672e-05 0)
(1 8.29197e-06 0)
(0.999981 5.68756e-05 0)
(0.999979 4.80363e-05 0)
(0.999954 0.000102581 0)
(0.999951 9.77663e-05 0)
(0.99992 0.000153029 0)
(0.999911 0.000154773 0)
(0.999874 0.000212955 0)
(0.999859 0.000224503 0)
(0.999815 0.000287116 0)
(0.999794 0.000313759 0)
(0.999746 0.000384461 0)
(0.99972 0.000433178 0)
(0.999669 0.000517953 0)
(0.999644 0.000597087 0)
(0.999603 0.000703995 0)
(0.999592 0.000819082 0)
(0.999581 0.000951961 0)
(0.999611 0.00109352 0)
(0.999996 2.26515e-05 0)
(1 1.27054e-05 0)
(0.999982 5.86673e-05 0)
(0.999981 5.45927e-05 0)
(0.999956 0.000105248 0)
(0.999954 0.000106075 0)
(0.999924 0.000157474 0)
(0.999916 0.000165143 0)
(0.99988 0.000219324 0)
(0.999866 0.000236976 0)
(0.999825 0.000295673 0)
(0.999806 0.000327965 0)
(0.999761 0.000394968 0)
(0.999737 0.000447877 0)
(0.999692 0.000528991 0)
(0.99967 0.000609189 0)
(0.999635 0.000711471 0)
(0.999629 0.000822414 0)
(0.999622 0.000948028 0)
(0.999654 0.00107992 0)
(0.999996 2.15155e-05 0)
(1 1.69759e-05 0)
(0.999983 6.03371e-05 0)
(0.999983 6.11031e-05 0)
(0.999959 0.000108102 0)
(0.999957 0.000114286 0)
(0.999928 0.000162174 0)
(0.99992 0.000175305 0)
(0.999887 0.000225999 0)
(0.999874 0.000249023 0)
(0.999835 0.000304477 0)
(0.999817 0.000341435 0)
(0.999776 0.000405482 0)
(0.999755 0.000461435 0)
(0.999715 0.000539547 0)
(0.999697 0.000619753 0)
(0.999667 0.000717875 0)
(0.999665 0.000824223 0)
(0.999661 0.000942992 0)
(0.999694 0.00106585 0)
(0.999996 2.04002e-05 0)
(1 2.10726e-05 0)
(0.999984 6.19522e-05 0)
(0.999985 6.7469e-05 0)
(0.999962 0.000111169 0)
(0.99996 0.00012231 0)
(0.999932 0.00016714 0)
(0.999925 0.000185166 0)
(0.999893 0.000232956 0)
(0.999881 0.000260563 0)
(0.999846 0.000313448 0)
(0.99983 0.000354113 0)
(0.999791 0.000415862 0)
(0.999774 0.000473835 0)
(0.999737 0.000549451 0)
(0.999724 0.000628826 0)
(0.999698 0.000723095 0)
(0.9997 0.000824615 0)
(0.999699 0.000936864 0)
(0.999733 0.00105136 0)
(0.999996 1.93566e-05 0)
(1 2.49555e-05 0)
(0.999984 6.35735e-05 0)
(0.999986 7.36059e-05 0)
(0.999964 0.000114463 0)
(0.999962 0.000130073 0)
(0.999936 0.00017236 0)
(0.99993 0.000194649 0)
(0.9999 0.000240139 0)
(0.999889 0.000271531 0)
(0.999856 0.000322474 0)
(0.999842 0.000365954 0)
(0.999807 0.000425947 0)
(0.999792 0.00048507 0)
(0.99976 0.000558539 0)
(0.99975 0.000636456 0)
(0.999729 0.000727052 0)
(0.999735 0.000823679 0)
(0.999736 0.000929682 0)
(0.99977 0.00103647 0)
(0.999996 1.84231e-05 0)
(1 2.85897e-05 0)
(0.999985 6.52494e-05 0)
(0.999988 7.94438e-05 0)
(0.999967 0.000117972 0)
(0.999965 0.00013751 0)
(0.999941 0.000177795 0)
(0.999935 0.000203695 0)
(0.999907 0.000247466 0)
(0.999898 0.000281884 0)
(0.999867 0.000331426 0)
(0.999855 0.000376931 0)
(0.999823 0.000435576 0)
(0.999811 0.000495138 0)
(0.999783 0.000566671 0)
(0.999777 0.000642683 0)
(0.999759 0.000729695 0)
(0.999768 0.000821488 0)
(0.999771 0.000921495 0)
(0.999806 0.00102121 0)
(0.999996 1.76395e-05 0)
(1 3.19419e-05 0)
(0.999986 6.7011e-05 0)
(0.999989 8.49327e-05 0)
(0.999969 0.000121671 0)
(0.999968 0.000144574 0)
(0.999945 0.000183387 0)
(0.99994 0.000212258 0)
(0.999914 0.000254831 0)
(0.999906 0.000291585 0)
(0.999878 0.000340158 0)
(0.999868 0.00038702 0)
(0.999839 0.000444589 0)
(0.99983 0.000504038 0)
(0.999805 0.000573724 0)
(0.999803 0.000647538 0)
(0.999788 0.000731005 0)
(0.9998 0.000818098 0)
(0.999804 0.000912359 0)
(0.99984 0.00100557 0)
(0.999996 1.70241e-05 0)
(1 3.49939e-05 0)
(0.999987 6.8869e-05 0)
(0.99999 9.004e-05 0)
(0.999971 0.000125508 0)
(0.999971 0.000151228 0)
(0.999949 0.000189051 0)
(0.999946 0.000220307 0)
(0.999921 0.000262114 0)
(0.999915 0.000300609 0)
(0.999888 0.000348526 0)
(0.999881 0.000396201 0)
(0.999855 0.000452842 0)
(0.999849 0.000511762 0)
(0.999827 0.000579609 0)
(0.999828 0.000651043 0)
(0.999816 0.000730982 0)
(0.99983 0.000813557 0)
(0.999836 0.000902333 0)
(0.999871 0.000989572 0)
(0.999996 1.659e-05 0)
(1 3.77351e-05 0)
(0.999987 7.08137e-05 0)
(0.999991 9.47507e-05 0)
(0.999973 0.00012942 0)
(0.999974 0.000157451 0)
(0.999953 0.000194693 0)
(0.999951 0.000227815 0)
(0.999928 0.000269187 0)
(0.999923 0.000308929 0)
(0.999899 0.000356384 0)
(0.999894 0.000404447 0)
(0.999871 0.00046021 0)
(0.999868 0.000518296 0)
(0.999849 0.000584257 0)
(0.999853 0.000653217 0)
(0.999843 0.000729646 0)
(0.99986 0.000807909 0)
(0.999866 0.000891473 0)
(0.999902 0.000973217 0)
(0.999996 1.63269e-05 0)
(1 4.01716e-05 0)
(0.999988 7.28174e-05 0)
(0.999992 9.90623e-05 0)
(0.999976 0.000133329 0)
(0.999977 0.000163225 0)
(0.999957 0.000200206 0)
(0.999956 0.000234761 0)
(0.999935 0.000275921 0)
(0.999932 0.000316515 0)
(0.99991 0.000363604 0)
(0.999907 0.000411728 0)
(0.999886 0.000466587 0)
(0.999886 0.000523623 0)
(0.99987 0.000587629 0)
(0.999876 0.000654073 0)
(0.999869 0.000727029 0)