/*--------------------------------*- C++ -*----------------------------------*\
| =========                 |                                                 |
| \\      /  F ield         | OpenFOAM: The Open Source CFD Toolbox           |
|  \\    /   O peration     | Version:  v1912                                 |
|   \\  /    A nd           | Website:  www.openfoam.com                      |
|    \\/     M anipulation  |                                                 |
\*---------------------------------------------------------------------------*/
FoamFile
{
    version     2.0;
    format      ascii;
    class       volScalarField;
    location    "390";
    object      epsilon;
}
// * * * * * * * * * * * * * * * * * * * * * * * * * * * * * * * * * * * * * //

dimensions      [0 2 -3 0 0 0 0];


internalField   nonuniform List<scalar> 
12441
(
0.0102963
0.00908483
0.00832696
0.00770253
0.00718359
0.00674889
0.00638218
0.00607085
0.00580492
0.00557649
0.00537909
0.00520852
0.00504969
0.00492172
0.00480567
0.00470022
0.00486539
0.0201365
0.273452
3.02909
20.9538
39.25
0.0101188
0.00891992
0.0081838
0.00757671
0.00707179
0.00664851
0.00629124
0.00598778
0.00572851
0.00550578
0.00531329
0.00514716
0.00499134
0.00486696
0.00475437
0.00465356
0.00479622
0.0198744
0.257527
3.02145
21.2447
40.2318
0.00989673
0.00871715
0.00800011
0.0074089
0.00691732
0.00650536
0.00615778
0.00586271
0.0056108
0.00539463
0.00520809
0.00504749
0.00489663
0.00477797
0.00467054
0.00457454
0.00464729
0.0180107
0.218058
2.99061
21.6245
41.3784
0.00967315
0.00851351
0.00781473
0.00723866
0.00675973
0.00635848
0.00602002
0.00573285
0.00548786
0.00527783
0.00509684
0.00494133
0.00479607
0.0046815
0.00457901
0.00448898
0.00450677
0.0157749
0.179519
2.96787
22.0924
42.5504
0.00942893
0.00828889
0.00760884
0.0070484
0.00658264
0.00619262
0.00586385
0.00558514
0.00534764
0.00514437
0.0049696
0.00481993
0.00468006
0.00457187
0.00447523
0.00439166
0.00435915
0.0137652
0.159808
2.97454
22.6101
43.6698
0.00922295
0.00809928
0.00743444
0.00688661
0.00643142
0.00605032
0.00572914
0.00545697
0.00522515
0.00502689
0.00485659
0.00471098
0.00457591
0.00447081
0.00437842
0.00429982
0.00428424
0.0138938
0.179314
3.08094
23.2402
44.7472
0.00900229
0.00789567
0.00724729
0.00671318
0.00626956
0.00589831
0.00558563
0.00532086
0.0050956
0.00490323
0.00473831
0.00459769
0.00446703
0.00436819
0.00427876
0.00420734
0.00603858
0.0229645
0.284843
3.38119
24.0827
45.7945
0.00882384
0.00773103
0.00709547
0.00657197
0.00613718
0.00577335
0.00546693
0.00520749
0.0049868
0.00479839
0.00463695
0.00449942
0.0043729
0.00427593
0.00419474
0.0051706
0.034387
0.0793388
0.597845
4.01456
25.2615
46.8732
0.0086297
0.00755182
0.00693079
0.00641939
0.00599481
0.00563968
0.00534075
0.00508784
0.0048729
0.00468964
0.00453286
0.00439962
0.00427718
0.00414518
0.00539637
0.0269378
0.174676
0.296683
1.28275
5.13163
26.9079
48.0153
0.00847501
0.00740894
0.00679889
0.00629655
0.00587948
0.00553063
0.00523697
0.00498852
0.00477737
0.00459736
0.0044434
0.00431285
0.00419406
0.0042735
0.0251492
0.147792
0.516056
0.783935
2.36298
6.79086
29.1169
49.2846
0.00830557
0.00725247
0.00665516
0.00616344
0.00575532
0.0054141
0.00512701
0.00488427
0.00467815
0.0045026
0.00435267
0.0042267
0.00407955
0.00948883
0.112405
0.420762
1.00455
1.4828
3.62577
8.88852
31.9149
50.6975
0.00817055
0.00712778
0.00654003
0.00605616
0.00565454
0.00531872
0.00503614
0.00479719
0.00459427
0.00442146
0.00427388
0.00415135
0.00415663
0.0480406
0.311001
0.772868
1.46793
2.18251
4.81362
11.2084
35.2473
52.295
0.00802141
0.00699011
0.00641371
0.00593931
0.00554566
0.00521662
0.00493988
0.004706
0.00450752
0.00433863
0.00419455
0.00403746
0.0083438
0.161231
0.564894
1.08049
1.81682
2.74353
5.80712
13.5362
39.0043
54.0597
0.00790053
0.00687848
0.00631064
0.00584326
0.00545542
0.00513122
0.00485852
0.00462804
0.00443243
0.004266
0.00412405
0.00388166
0.036701
0.328611
0.782667
1.30118
2.0571
3.15177
6.60332
15.7258
43.049
56.0037
0.00776914
0.00675713
0.0061993
0.00574028
0.00535947
0.00504125
0.00477368
0.00454764
0.00435591
0.00419288
0.00405394
0.00426361
0.110318
0.49056
0.941593
1.45285
2.22213
3.44419
7.2409
17.7056
47.2493
58.0812
0.00766007
0.00665646
0.00610636
0.00565368
0.00527811
0.00496425
0.00470033
0.00447736
0.00428824
0.00412745
0.0039905
0.00946364
0.213799
0.618228
1.05311
1.55909
2.33917
3.65902
7.76119
19.4553
51.4902
60.2902
0.00754413
0.00654939
0.00600821
0.00556294
0.00519359
0.004885
0.00462557
0.00440646
0.00422069
0.00406281
0.00392885
0.0320555
0.316334
0.712649
1.13312
1.63646
2.42587
3.82377
8.19711
20.9825
55.6853
62.571
0.00744261
0.00645581
0.00592192
0.00548265
0.00511829
0.00481387
0.00455796
0.00434184
0.00415862
0.00400296
0.00387363
0.0796197
0.401753
0.782478
1.19282
1.69529
2.49315
3.9564
8.57245
22.307
59.7731
64.9213
0.00733999
0.00636091
0.00583486
0.00540209
0.00504315
0.00474331
0.00449129
0.00427849
0.00409814
0.00394496
0.00380994
0.139799
0.468341
0.835732
1.23929
1.74196
2.54783
4.06839
8.90372
23.452
63.7185
67.2818
0.00724536
0.00627377
0.00575456
0.00532745
0.00497323
0.00467736
0.0044287
0.00421879
0.00404091
0.00388991
0.00428093
0.198001
0.519855
0.877932
1.27694
1.78051
2.59433
4.16713
9.20213
24.4399
67.5053
69.6617
0.00715513
0.00619026
0.00567793
0.00525647
0.00490694
0.00461498
0.00436962
0.00416248
0.00398696
0.00383804
0.00992928
0.248315
0.560637
0.912661
1.3086
1.81362
2.63565
4.25735
9.47508
25.2915
71.1369
72.0102
0.00706436
0.00610684
0.00560124
0.00518539
0.00484058
0.00455262
0.00431068
0.0041065
0.00393356
0.00378741
0.0281789
0.290122
0.594019
0.942226
1.33617
1.84313
2.67389
4.34192
9.72733
26.0249
74.6298
74.3523
0.00698507
0.00603323
0.00553352
0.00512248
0.00478162
0.00449693
0.00425771
0.00405579
0.00388477
0.00374235
0.0583696
0.324755
0.622281
0.968161
1.36095
1.87035
2.71054
4.42243
9.9619
26.6562
78.0162
76.6493
0.00689857
0.00595384
0.00546063
0.00505504
0.0047188
0.00443807
0.00420225
0.0040033
0.00383487
0.0037026
0.0920093
0.3538
0.646947
0.991526
1.38389
1.89625
2.74662
4.49966
10.1807
27.1996
81.3384
78.9445
0.0068303
0.00589034
0.00540211
0.00500051
0.00466747
0.00438932
0.0041556
0.00395835
0.00379133
0.00368415
0.123203
0.378683
0.669037
1.01308
1.4057
1.92154
2.78272
4.57393
10.385
27.6678
84.652
81.212
0.00674461
0.00581197
0.00533046
0.00493456
0.00460641
0.00433248
0.00410243
0.00390839
0.00374421
0.00364539
0.150386
0.400528
0.689254
1.03339
1.42688
1.94669
2.81907
4.64543
10.5758
28.0719
88.0203
83.5114
0.00668546
0.00575664
0.00527919
0.00488646
0.00456081
0.00428885
0.00406035
0.00386755
0.00370442
0.00384286
0.174001
0.420155
0.708097
1.05287
1.44782
1.97201
2.85568
4.71429
10.7538
28.4217
91.5162
85.8273
0.00660174
0.00568021
0.00520948
0.0048225
0.00450181
0.00423417
0.00400945
0.00381996
0.00365983
0.00580218
0.194918
0.438149
0.725928
1.07184
1.46876
1.99764
2.89242
4.78067
10.9197
28.7252
95.2148
88.2307
0.00655207
0.00563349
0.00516592
0.00478132
0.00446239
0.00419604
0.00397227
0.00378347
0.00362428
0.0112219
0.213889
0.454926
0.743018
1.09051
1.48984
2.02361
2.92912
4.84477
11.0742
28.9896
99.1929
90.7106
0.00646798
0.00555706
0.00509657
0.00471808
0.00440446
0.00414278
0.00392309
0.00373788
0.00358283
0.0211054
0.231446
0.470781
0.759568
1.10904
1.51115
2.04986
2.96567
4.90675
11.2181
29.2204
103.52
93.3406
0.00642575
0.00551691
0.00505874
0.00468188
0.00436938
0.00410843
0.00388924
0.00370433
0.00355176
0.0354763
0.247933
0.48593
0.77573
1.12753
1.53267
2.07632
3.00197
4.96679
11.3522
29.4228
108.257
96.1058
0.00634329
0.00544209
0.004991
0.00462031
0.00431321
0.00405701
0.00384197
0.00366073
0.00351584
0.0533347
0.263572
0.500532
0.791612
1.14604
1.55439
2.1029
3.03797
5.02504
11.477
29.601
113.452
99.0732
0.0063096
0.00540972
0.00496015
0.00459032
0.00428363
0.00402751
0.00381238
0.00363091
0.00349486
0.0733077
0.278503
0.514705
0.807289
1.16459
1.57626
2.12953
3.07362
5.0816
11.5935
29.7593
119.137
102.217
0.00622513
0.00533345
0.0048915
0.00452838
0.0042276
0.00397672
0.00376616
0.00358872
0.00347381
0.0941172
0.292821
0.528536
0.822808
1.18317
1.59821
2.15613
3.10892
5.13656
11.7023
29.9018
125.333
105.592
0.00619829
0.00530716
0.00486591
0.00450291
0.00420188
0.0039505
0.00373937
0.00356132
0.00347878
0.114834
0.306586
0.542086
0.838194
1.20177
1.62019
2.18264
3.14383
5.18998
11.8042
30.0325
132.055
109.157
0.0061113
0.00522905
0.00479603
0.00444029
0.00414568
0.00389997
0.0036938
0.00352008
0.0035498
0.134815
0.319834
0.555395
0.853453
1.22034
1.64213
2.20902
3.17835
5.24187
11.8999
30.155
139.309
112.957
0.00608775
0.00520569
0.00477295
0.00441694
0.00412171
0.00387521
0.00366821
0.00349372
0.00628836
0.153611
0.332577
0.568485
0.868575
1.23885
1.66397
2.23522
3.21245
5.29223
11.9902
30.2724
147.094
116.938
0.00599576
0.00512368
0.00470008
0.00435211
0.00406398
0.00382371
0.00362214
0.00345237
0.0275252
0.170808
0.34481
0.581362
0.88354
1.25724
1.68564
2.26118
3.2461
5.34102
12.0761
30.3864
155.395
121.137
0.00596745
0.00509622
0.00467343
0.00432561
0.00403722
0.00379648
0.00359442
0.00342474
0.0546073
0.185802
0.356514
0.594022
0.898316
1.27548
1.70711
2.28686
3.27927
5.3882
12.1582
30.4978
164.159
125.495
0.00586277
0.00500329
0.00459124
0.00425285
0.00397275
0.00373931
0.0035436
0.00338449
0.0708679
0.19837
0.367667
0.606446
0.912864
1.29349
1.72828
2.31221
3.31189
5.43369
12.2376
30.6057
173.255
130.045
0.00582118
0.00496385
0.00455374
0.00421648
0.003937
0.00370391
0.00350851
0.00335165
0.0801721
0.208758
0.378249
0.618605
0.92714
1.3112
1.74912
2.33715
3.34388
5.47742
12.3149
30.7089
182.411
134.727
0.00569955
0.0048563
0.00445863
0.00413205
0.00386182
0.00363684
0.00344852
0.00357105
0.085907
0.217337
0.388248
0.630466
0.941098
1.32855
1.76953
2.36163
3.37517
5.51934
12.3906
30.8063
191.149
139.588
0.00561725
0.00478978
0.00440418
0.00408594
0.00382136
0.00360002
0.00341388
0.00412859
0.0896928
0.224452
0.397661
0.641984
0.95469
1.34546
1.78945
2.38556
3.40564
5.55939
12.4649
30.8983
198.773
144.654
0.0052548
0.00446046
0.00411215
0.00382659
0.00358934
0.00339083
0.00322369
0.00438652
0.0923094
0.230369
0.406488
0.653108
0.967872
1.36182
1.80878
2.40883
3.43516
5.59762
12.5371
30.9865
204.477
150.447
95.0235
49.7016
33.8012
26.6735
25.7655
21.6885
20.7516
18.5515
17.3659
16.6451
15.9727
15.2021
16.2752
19.0474
23.1654
26.7882
28.9965
30.8211
32.997
34.6517
35.9177
37.1807
38.0711
38.2644
37.9846
37.2753
36.2929
34.9709
34.6507
36.6999
33.6884
5.6951
3.95319
3.60014
3.20468
94.6475
49.7285
33.8934
27.0171
26.3367
22.1026
21.1566
18.8688
17.6531
16.8837
16.0851
15.297
16.3936
19.21
23.3867
27.0506
29.2605
31.029
33.1792
34.9308
36.3584
37.7418
38.7179
38.9569
38.6751
37.9004
36.8096
35.3873
35.0153
37.0383
34.722
5.71501
3.94934
3.59563
3.2008
93.9266
49.7632
34.0715
27.7134
27.4775
22.9359
21.9475
19.482
18.208
17.3445
16.3186
15.5002
16.6444
19.5549
23.8599
27.6121
29.8297
31.4925
33.5819
35.5067
37.2427
38.8621
40.0214
40.3687
40.1016
39.2095
37.8959
36.2507
35.7653
37.7476
34.8389
5.74292
3.94163
3.58661
3.19307
92.8104
49.7945
34.3448
28.7938
29.175
24.1884
23.0921
20.3684
19.0195
18.0244
16.7062
15.8471
17.0644
20.1329
24.6725
28.6017
30.861
32.3733
34.3513
36.5139
38.6928
40.6507
42.081
42.6001
42.3767
41.3251
39.6666
37.6452
36.9447
38.9154
34.5206
5.7811
3.93012
3.57311
3.1815
91.3035
49.8113
34.7267
30.2818
31.4041
25.8523
24.5612
21.5176
20.0828
18.9218
17.2849
16.3806
17.6981
20.9947
25.9114
30.1808
32.5973
33.9552
35.7573
38.1935
40.9139
43.2855
45.0594
45.8121
45.6757
44.4358
42.298
39.6992
38.6246
40.6511
34.1605
5.83357
3.91492
3.55514
3.16612
89.3553
49.8035
35.2361
32.2038
34.1537
27.9298
26.3463
22.9371
21.4074
20.0476
18.0918
17.1442
18.5849
22.1748
27.6316
32.4874
35.3277
36.6604
38.2443
40.9419
44.2384
47.0537
49.216
50.254
50.259
48.8181
46.0513
42.6044
40.913
43.096
34.032
5.90535
3.89611
3.53274
3.14695
87.0012
49.7622
35.8986
34.5986
37.431
30.4411
28.4629
24.6518
23.0205
21.4318
19.1707
18.185
19.765
23.7091
29.8758
35.6181
39.3245
41.0263
42.4833
45.3822
49.1961
52.4137
54.9597
56.3063
56.5078
54.8686
51.3077
46.6443
43.9679
46.434
34.3221
6.00215
3.87382
3.50595
3.12404
84.2135
49.6794
36.748
37.5101
41.2473
33.4179
30.9452
26.7016
24.9657
23.1254
20.5818
19.5645
21.2974
25.6659
32.7218
39.667
44.7983
47.6161
49.3894
52.4537
56.616
60.0886
62.9264
64.5439
64.9749
63.1474
58.6135
52.2326
48.0165
50.905
35.1803
6.13041
3.84815
3.4748
3.09744
81.0699
49.5478
37.8266
40.9681
45.5982
36.8915
33.8374
29.1373
27.2996
25.1995
22.4103
21.3697
23.2742
28.1656
36.3134
44.7701
51.8819
56.8298
59.9874
63.4525
67.7339
71.1764
74.0727
75.8097
76.4403
74.422
68.7289
59.9625
53.3775
56.8151
36.7642
6.2975
3.81921
3.43936
3.0672
77.574
49.3605
39.1862
44.9602
50.4488
40.8814
37.1862
32.0151
30.087
27.7438
24.7722
23.7219
25.8309
31.3895
40.8599
51.1056
60.5833
68.5651
74.8301
79.7262
84.1247
87.1703
89.7109
91.2405
91.9219
89.6634
82.6384
70.6434
60.4826
64.5328
39.2805
6.51202
3.7871
3.39971
3.03341
73.8369
49.1104
40.887
49.4054
55.7285
45.3865
41.0318
35.3906
33.3927
30.8607
27.8131
26.7819
29.1519
35.5695
46.6171
58.8283
70.6655
81.8134
92.7388
101.358
106.888
109.485
111.203
112.031
112.465
109.841
101.383
85.2513
69.8718
74.4451
43.0258
6.78395
3.75191
3.35593
2.99616
69.8857
48.7898
42.9956
54.1494
61.3377
50.383
45.4002
39.3102
37.2713
34.6546
31.702
30.7493
33.4689
40.9606
53.7945
67.9126
81.5002
94.7021
110.063
124.914
134.344
137.692
138.684
138.458
138.33
135.181
125.396
104.577
82.1004
86.8199
48.4266
7.12431
3.71367
3.30814
2.95555
65.8489
48.3907
45.5778
58.9948
67.1663
55.8303
50.2967
43.8027
41.7524
39.2088
36.6024
35.8454
39.0385
47.751
62.3666
77.9193
92.0664
105.43
122.913
143.944
160.056
166.836
168.624
167.876
167.309
163.63
152.984
128.192
97.4287
101.504
56.0585
7.54366
3.67235
3.25648
2.91174
61.7626
47.9041
48.681
63.7655
73.1151
61.6835
55.7057
48.8741
46.8308
44.5548
42.6231
42.2583
46.0494
55.8839
71.7986
87.8477
101.269
113.358
130.523
154.679
176.723
188.517
193.268
193.596
193.491
189.584
178.76
152.755
115.157
117.46
66.5719
8.04798
3.6278
3.20111
2.86486
57.7502
47.321
52.303
68.3675
79.1126
67.9083
61.6028
54.5019
52.4624
50.6425
49.7319
50.0315
54.4457
64.8337
80.94
96.4014
108.453
119.069
134.944
159.008
183.102
198.062
205.993
208.495
209.761
205.887
195.132
171.634
132.841
132.44
80.3369
8.6301
3.57974
3.14223
2.81509
53.8399
46.6336
56.3537
72.8097
85.1215
74.4929
67.9527
60.6497
58.5787
57.334
57.7033
58.9057
63.7274
73.536
88.4369
102.687
113.707
123.604
138.422
160.767
183.312
197.952
206.899
210.814
213.154
208.943
197.762
178.769
146.487
143.456
96.5595
9.25544
3.52765
3.08003
2.76263
50.1273
45.8343
60.6365
77.1758
91.1459
81.4139
74.7226
67.2839
65.1113
64.4327
66.1222
68.2704
72.9302
80.82
93.5691
106.774
117.704
127.804
142.04
162.223
181.391
193.184
200.694
204.235
206.271
200.828
188.604
173.656
152.685
148.262
112.15
9.84748
3.47086
3.01476
2.70768
46.6135
44.9284
64.8848
81.5451
97.209
88.645
81.8826
74.3851
72.0211
71.7624
74.5438
77.3416
81.0321
86.1167
96.6606
109.536
121.307
132.126
145.871
163.746
178.986
186.949
191.671
193.416
193.738
186.284
172.94
160.774
150.944
146.647
122.111
10.2905
3.40858
2.94667
2.65047
43.349
43.9511
68.8574
85.9653
103.327
96.1362
89.3953
81.9435
79.311
79.2388
82.6862
85.5881
87.6193
89.8119
98.7501
112.097
125.232
136.692
149.5
164.772
176.076
180.241
181.92
181.254
179.053
169.352
155.37
145.191
143.514
140.185
122.797
10.4679
3.34017
2.87604
2.59124
40.3033
42.98
72.3984
90.4762
109.487
103.8
97.2013
89.9425
87.0189
86.9094
90.5954
93.0481
93.1467
92.9246
100.979
115.374
129.922
141.43
152.459
164.635
172.156
173.021
172.007
168.916
164.014
152.377
138.49
130.044
133.341
130.928
114.73
10.3181
3.26537
2.80316
2.53024
37.4893
42.1377
75.4995
95.0803
115.645
111.512
105.209
98.3349
95.1847
94.9148
98.585
100.314
98.6688
96.6584
104.308
119.979
135.557
146.172
154.403
162.952
166.919
165.116
161.948
156.695
149.348
136.437
123.352
116.599
122.562
120.429
101.361
9.86122
3.18448
2.72833
2.46773
34.8769
41.5057
78.2904
99.7391
121.729
119.125
113.296
107.031
103.82
103.429
107.087
108.196
105.341
102.108
109.487
126.294
142.176
150.768
155.187
159.68
160.408
156.551
151.725
144.643
135.345
121.941
110.184
105.076
112.246
109.549
86.1966
9.17839
3.0983
2.65189
2.40395
32.4767
41.0933
80.9072
104.385
127.656
126.49
121.323
115.898
112.885
112.529
116.397
117.41
114.141
110.261
117.215
134.636
149.782
155.132
154.832
155.018
152.918
147.544
141.422
132.824
122.167
108.995
98.8636
95.2636
102.721
98.6622
71.4782
8.37118
3.00794
2.57415
2.33917
30.2708
40.8886
83.4127
108.929
133.336
133.473
129.149
124.784
122.288
122.235
126.679
128.376
125.701
121.985
128.237
145.363
158.444
159.3
153.53
149.314
144.842
138.377
131.188
121.361
109.943
97.5686
89.148
86.8308
93.9439
87.9256
58.2976
7.52959
2.9147
2.49544
2.27364
28.2673
40.8956
85.8153
113.271
138.685
139.969
136.645
133.536
131.906
132.492
137.934
141.233
140.317
138.025
143.442
158.949
168.293
163.384
151.58
142.998
136.573
129.307
121.181
110.402
98.772
87.5655
80.7768
79.4565
85.7343
77.4525
47.041
6.71782
2.81978
2.41608
2.20761
26.4614
41.167
88.0987
117.315
143.632
145.906
143.709
142.024
141.613
143.22
150.106
155.931
157.994
158.818
163.738
175.912
179.465
167.523
149.354
136.52
128.446
120.525
111.529
100.088
88.708
78.8522
73.5089
72.8689
77.9087
67.3875
37.7215
5.97346
2.72426
2.33638
2.14132
24.8623
41.81
90.2514
120.983
148.127
151.248
150.274
150.159
151.303
154.339
163.134
172.403
178.677
184.496
189.842
196.671
191.972
171.776
147.177
130.281
120.713
112.146
102.33
90.526
79.749
71.2778
67.1363
66.8565
70.3396
57.9082
30.1711
5.3131
2.629
2.25664
2.075
23.4808
42.9592
92.2671
124.23
152.152
156.005
156.322
157.903
160.92
165.816
177.034
190.659
202.393
214.977
221.859
221.19
205.548
176.071
145.274
124.584
113.528
104.225
93.6501
81.7822
71.8481
64.6889
61.4857
61.2625
62.9771
49.1917
24.1467
4.73942
2.53468
2.17713
2.00886
22.3333
44.7379
94.1427
127.047
155.716
160.218
161.873
165.27
170.461
177.672
191.895
210.862
229.404
250.274
259.155
248.658
219.513
180.132
143.682
119.584
106.951
96.771
85.5345
73.8817
64.9238
58.9396
56.4172
55.9801
55.8443
41.374
19.3895
4.24715
2.44177
2.09812
1.94309
21.4546
47.2283
95.8744
129.452
158.854
163.952
166.988
172.317
179.982
190.003
207.919
233.343
260.2
290.479
300.328
277.245
232.732
183.521
142.281
115.286
100.96
89.7658
78.0122
66.8154
58.8771
53.8977
51.82
50.9438
49.0172
34.527
15.6568
3.82729
2.35062
2.01984
1.87789
20.8892
50.4546
97.456
131.481
161.614
167.287
171.748
179.141
189.594
202.974
225.408
258.631
295.526
335.639
343.298
304.327
243.753
185.675
140.792
111.553
95.472
83.1805
71.0998
60.5458
53.6012
49.4483
47.6091
46.1234
42.595
28.6539
12.7366
3.46969
2.26147
1.9425
1.81341
20.7351
54.3739
98.8809
133.184
164.056
170.306
176.254
185.871
199.468
216.849
244.825
287.491
336.291
385.232
385.021
326.874
251.135
186.064
138.89
108.151
90.3621
76.9875
64.8008
55.0169
48.992
45.4941
43.7208
41.5144
36.6722
23.7025
10.4524
3.1645
2.17446
1.86629
1.74981
21.1259
58.8745
100.145
134.612
166.245
173.095
180.622
192.673
209.849
232.017
266.838
321.014
383.453
437.534
421.448
342.072
253.781
184.28
136.252
104.799
85.4961
71.1673
59.1072
50.1601
44.9524
41.9544
40.1084
37.1309
31.3183
19.5839
8.66155
2.90289
2.08969
1.79139
1.68721
22.2957
63.7839
101.252
135.821
168.247
175.744
184.991
199.77
221.096
249.076
292.47
360.711
437.515
488.607
447.729
347.802
251.183
180.148
132.655
101.234
80.7519
65.7117
53.9982
45.9021
41.3959
38.7636
36.739
32.996
26.5679
16.1916
7.2516
2.67721
2.0072
1.71795
1.62573
24.5223
68.8916
102.21
136.86
170.135
178.354
189.535
207.476
233.754
268.96
323.288
408.574
497.469
531.799
459.373
343.201
243.454
173.708
127.973
97.2597
76.0424
60.6211
49.4419
42.1684
38.2469
35.8687
33.5895
29.1353
22.4217
13.4157
6.1351
2.48106
1.92703
1.6461
1.56548
28.1637
73.981
103.035
137.777
171.986
181.045
194.495
216.261
248.686
293.189
361.731
466.721
558.63
558.392
453.67
328.813
231.251
165.201
122.204
92.7663
71.3243
55.8996
45.3965
38.888
35.4415
33.2271
30.6441
25.5706
18.8521
11.153
5.24474
2.30916
1.8492
1.57596
1.50655
33.4954
78.8621
103.744
138.615
173.886
183.974
200.222
226.869
267.326
324.271
411.372
535.725
610.439
560.719
431.058
306.504
215.578
154.988
115.426
87.7317
66.5981
51.5482
41.8135
35.995
32.9259
30.8049
27.8919
22.3162
15.813
9.31134
4.529
2.15721
1.7737
1.50763
1.44901
40.701
83.3954
104.351
139.417
175.947
187.366
207.266
240.54
292.119
366.334
476.512
609.933
637.361
536.004
395.047
278.867
197.596
143.513
107.797
82.2021
61.8942
47.5592
38.6396
33.431
30.6564
28.5751
25.3246
19.3773
13.2479
7.81182
3.94856
2.0217
1.70055
1.44121
1.39295
49.6321
87.506
104.874
140.228
178.32
191.567
216.531
259.409
327.306
425.652
558.525
670.884
626.543
488.465
351.052
248.634
178.433
131.245
99.52
76.271
57.2565
43.914
35.8209
31.1444
28.5974
26.5163
22.936
16.7504
11.097
6.58856
3.4734
1.89984
1.62976
1.37679
1.33842
59.8743
91.1827
105.324
141.107
181.227
197.136
229.57
287.278
380.038
509.023
644.831
689.862
577.046
427.192
304.474
218.105
159.077
118.651
90.8388
70.064
52.7278
40.5835
33.3045
29.0918
26.7208
24.6116
20.7205
14.424
9.3019
5.58758
3.08055
1.78935
1.56134
1.31444
1.2855
70.5911
94.4637
105.717
142.135
185.03
205.045
249.18
330.96
460.304
612.399
697.378
649.54
501.142
362.125
259.485
188.958
140.311
106.158
82.0104
63.7258
48.3431
37.5311
31.0415
27.2364
25.0045
22.8481
18.6733
12.3809
7.80865
4.76521
2.75241
1.68843
1.49531
1.25425
1.23423
80.9187
97.4145
106.072
143.442
190.357
217.077
280.61
401.564
570.764
694.621
675.087
561.429
416.176
300.576
218.533
162.212
122.712
94.1404
73.2971
57.4106
44.1286
34.7173
28.9879
25.5485
23.4313
21.2162
16.7897
10.6002
6.56895
4.08639
2.47542
1.59561
1.43171
1.19629
1.18469
89.3733
100.115
106.411
145.252
198.393
236.763
333.629
507.796
668.836
686.826
580.465
454.718
335.886
246.388
182.696
138.398
106.662
82.8972
64.9377
51.2718
40.1039
32.1034
27.1057
24.0031
21.988
19.7087
15.0655
9.05872
5.54077
3.52316
2.23905
1.50972
1.37055
1.14063
1.13691
95.1437
102.664
106.779
147.992
211.615
271.461
421.253
611.889
661.156
578.98
456.305
354.432
267.004
200.579
152.102
117.668
92.3665
72.6428
57.1403
45.4525
36.2859
29.6552
25.3626
22.58
20.6638
18.3206
13.4966
7.73251
4.68813
3.0532
2.03515
1.4298
1.31188
1.08733
1.09096
0.00337779
0.00250498
0.00227743
0.00216561
0.00212462
0.00212797
0.0021607
0.00446483
0.093709
0.234067
0.412656
0.661026
0.977228
1.37333
1.82239
2.42525
3.45601
5.62465
12.5888
31.054
206.761
160.153
0.00334436
0.00224237
0.00184218
0.00160609
0.00148464
0.00144651
0.00147904
0.0045042
0.0943994
0.236067
0.416194
0.665431
0.982181
1.37921
1.82926
2.43357
3.46693
5.63967
12.6209
31.1045
207.711
170.283
0.00354043
0.00237571
0.00188203
0.00154436
0.00132243
0.0011915
0.00116108
0.00453089
0.0948529
0.237528
0.418948
0.668662
0.985482
1.38287
1.83335
2.43856
3.4739
5.65031
12.6464
31.1563
207.813
179.955
0.00367077
0.00251732
0.00200373
0.00162959
0.00135781
0.00116643
0.00103201
0.0045484
0.0951025
0.238484
0.42091
0.670697
0.987096
1.38425
1.83463
2.44017
3.4768
5.65635
12.6635
31.21
207.131
189.036
0.00392255
0.00276383
0.00222626
0.00182194
0.00151407
0.00127984
0.000998803
0.00455872
0.0951677
0.238955
0.422073
0.671517
0.986997
1.38333
1.83306
2.43833
3.47553
5.65759
12.6707
31.266
205.707
197.986
0.0040602
0.00292963
0.00239832
0.00199184
0.00167498
0.001425
0.000987941
0.00456301
0.0950602
0.238957
0.422432
0.671112
0.985174
1.38011
1.82863
2.43302
3.47
5.65383
12.6663
31.3244
203.575
206.977
0.00434046
0.00320789
0.00265935
0.00223325
0.00189587
0.0016245
0.00105715
0.00456189
0.0947869
0.238498
0.421985
0.669482
0.981628
1.37461
1.82134
2.42422
3.46015
5.6449
12.649
31.3849
200.775
216.007
0.00447857
0.00337919
0.00284373
0.00242323
0.00208629
0.00181122
0.0011839
0.00455543
0.0943523
0.237588
0.420742
0.666637
0.97638
1.36684
1.81122
2.41194
3.44592
5.63065
12.6174
31.4467
197.354
225.015
0.00478403
0.00368455
0.00313447
0.00269673
0.00234189
0.00204893
0.00130862
0.00454332
0.0937591
0.236237
0.418717
0.662598
0.969465
1.35685
1.79834
2.3962
3.42726
5.61094
12.5704
31.5084
193.369
233.931
0.0049087
0.0038488
0.00331936
0.00289444
0.00254673
0.00225632
0.00139892
0.00452497
0.093009
0.234454
0.415934
0.657399
0.960933
1.3447
1.78275
2.37704
3.40415
5.58562
12.5072
31.5675
188.88
242.67
0.00522938
0.00417117
0.00362991
0.00319031
0.00282702
0.00252095
0.00151285
0.0044997
0.092103
0.232251
0.412424
0.651085
0.95085
1.33048
1.76455
2.35454
3.37657
5.55457
12.4271
31.6208
183.953
251.122
0.0053393
0.00432466
0.00380973
0.00338887
0.00303846
0.00274049
0.00163228
0.00446649
0.0910406
0.229644
0.408223
0.643709
0.939295
1.31427
1.74385
2.32879
3.3445
5.51766
12.3295
31.6642
178.655
259.155
0.00567208
0.00466085
0.00413662
0.00370323
0.00333908
0.00302713
0.00183662
0.00442417
0.0898193
0.226646
0.403371
0.635338
0.926359
1.29619
1.72078
2.2999
3.30798
5.47476
12.2141
31.6922
173.054
266.618
0.00575628
0.00479288
0.00430102
0.00389275
0.00354776
0.00325001
0.00211423
0.00437092
0.0884337
0.223271
0.397911
0.626042
0.912141
1.27636
1.69548
2.26802
3.26705
5.42572
12.0807
31.6986
167.217
273.361
0.00609207
0.00513324
0.00463421
0.00421545
0.00385866
0.00354887
0.00251882
0.00430455
0.0868736
0.21953
0.391886
0.6159
0.896749
1.25491
1.66811
2.23332
3.22177
5.3704
11.9292
31.676
161.208
279.234
0.0061522
0.00524294
0.00478005
0.00439085
0.004058
0.00376735
0.00298491
0.00422141
0.085122
0.215432
0.385335
0.604995
0.880298
1.23197
1.63884
2.19597
3.17227
5.30865
11.7597
31.6162
155.088
284.105
0.00648672
0.00558302
0.00511471
0.00471663
0.00437342
0.00407211
0.00349734
0.00411729
0.0831515
0.210975
0.378294
0.59341
0.862906
1.2077
1.60784
2.15619
3.11869
5.24031
11.5723
31.5104
148.911
287.865
0.00651839
0.00566545
0.00523641
0.00487176
0.00455675
0.00427905
0.00389349
0.00398471
0.0809209
0.206148
0.370791
0.58123
0.844694
1.18224
1.57529
2.11418
3.06122
5.16523
11.3676
31.3493
142.725
290.428
0.00683897
0.00599239
0.00555973
0.00518806
0.0048645
0.00457796
0.00427023
0.00382212
0.0783687
0.200922
0.362842
0.568534
0.825786
1.15574
1.54137
2.07018
3.00008
5.08328
11.1458
31.1237
136.571
291.738
0.00685354
0.00605575
0.00566222
0.00532481
0.005031
0.00477011
0.0045252
0.00363942
0.075406
0.195245
0.354445
0.555392
0.806304
1.12834
1.50627
2.02442
2.93553
4.99435
10.9078
30.8245
130.483
291.762
0.00716006
0.00636936
0.00597371
0.00563068
0.00532955
0.00506087
0.00482055
0.00350936
0.0719067
0.189032
0.345578
0.541861
0.786366
1.10021
1.47016
1.97713
2.86787
4.89837
10.6543
30.4432
124.489
290.486
0.00715668
0.00641252
0.00605547
0.00574709
0.00547676
0.0052353
0.00502077
0.00361785
0.0676983
0.182152
0.336183
0.527977
0.766085
1.07149
1.43322
1.92856
2.7974
4.79531
10.3863
29.9726
118.608
287.914
0.00744653
0.00670962
0.00635137
0.00603834
0.00576162
0.00551321
0.00529021
0.00406172
0.0625558
0.174414
0.326158
0.513746
0.745558
1.04232
1.39562
1.87893
2.72447
4.68521
10.1046
29.4068
112.857
284.062
0.0074306
0.00673703
0.00641566
0.00613641
0.00589031
0.00566944
0.00546903
0.00464587
0.0562104
0.165546
0.315337
0.499129
0.724864
1.01285
1.35753
1.82847
2.64943
4.5682
9.81046
28.742
107.244
278.955
0.00770414
0.00701775
0.0066958
0.00641257
0.00616066
0.00593333
0.00572546
0.00523663
0.0484142
0.155181
0.303471
0.484027
0.704047
0.983208
1.31911
1.7774
2.57265
4.44448
9.50495
27.9768
101.774
272.625
0.00767677
0.00703042
0.00674336
0.00649268
0.00627078
0.00607087
0.00588706
0.00561625
0.0391211
0.142845
0.290196
0.468251
0.6831
0.953513
1.28051
1.72594
2.49451
4.31437
9.18921
27.1123
96.4473
265.115
0.00793327
0.00729374
0.00700638
0.0067521
0.00652478
0.00631872
0.00612875
0.00592378
0.0288419
0.128
0.274999
0.451496
0.66194
0.923853
1.24187
1.67429
2.41542
4.17828
8.86438
26.1525
91.2609
256.474
0.00789955
0.00729639
0.00704131
0.00681764
0.00661892
0.00643935
0.00627342
0.00611025
0.0189462
0.110188
0.257189
0.433295
0.640373
0.894264
1.20333
1.62264
2.33577
4.03679
8.53154
25.1043
86.2081
246.767
0.00814116
0.0075443
0.007289
0.00706192
0.00685796
0.00667233
0.0065005
0.00633695
0.0114708
0.0893901
0.23588
0.412969
0.61805
0.864701
1.16497
1.57119
2.25598
3.8906
8.19176
23.9773
81.2801
236.072
0.00810337
0.00753939
0.00731378
0.00711524
0.0069383
0.00677799
0.00662947
0.00648788
0.00760945
0.0666219
0.210072
0.38956
0.594408
0.834981
1.12686
1.5201
2.17648
3.74055
7.84607
22.7836
76.4648
224.484
0.00833022
0.00777196
0.00754611
0.00734429
0.00716229
0.00699604
0.0068417
0.00669569
0.00657189
0.0443686
0.178949
0.361779
0.568601
0.804731
1.08893
1.46948
2.09771
3.5877
7.49557
21.5374
71.7495
212.118
0.00829267
0.00776379
0.00756483
0.00738918
0.00723222
0.00708966
0.00695733
0.00683137
0.00659511
0.026027
0.142579
0.328009
0.539402
0.773297
1.05098
1.41942
2.02008
3.43323
7.14143
20.254
67.1195
199.108
0.00850599
0.00798232
0.0077831
0.00760433
0.00744249
0.00729416
0.00715605
0.00702533
0.00684459
0.0142598
0.103063
0.286549
0.505097
0.739661
1.01258
1.36984
1.94396
3.27855
6.78508
18.95
62.5626
185.608
0.00847103
0.00797346
0.00779843
0.00764347
0.00750463
0.00737825
0.00726069
0.00714867
0.00702156
0.00881764
0.0653343
0.236413
0.463403
0.702312
0.972957
1.32051
1.86965
3.12514
6.42828
17.6421
58.0685
171.785
0.00867164
0.00817878
0.00800347
0.00784555
0.00770207
0.00757013
0.00744693
0.00733007
0.00721131
0.00716115
0.0357643
0.178992
0.411615
0.659102
0.930878
1.27092
1.79726
2.97458
6.07323
16.3466
53.6341
157.816
0.00864159
0.00817179
0.00801805
0.00788156
0.00775898
0.00764714
0.00754288
0.00744333
0.00734357
0.00696563
0.0180406
0.120001
0.347418
0.607099
0.884519
1.22018
1.72664
2.82837
5.72262
15.0791
49.2642
143.882
0.00883159
0.008366
0.0082119
0.00807258
0.00794555
0.00782834
0.00771855
0.00761411
0.00751173
0.00720676
0.0103704
0.0691817
0.271049
0.542687
0.831258
1.16688
1.65728
2.68772
5.37956
13.8544
44.9753
130.164
0.00880916
0.00836383
0.00822884
0.00810867
0.00800044
0.00790142