/*--------------------------------*- C++ -*----------------------------------*\
| =========                 |                                                 |
| \\      /  F ield         | OpenFOAM: The Open Source CFD Toolbox           |
|  \\    /   O peration     | Version:  v1912                                 |
|   \\  /    A nd           | Website:  www.openfoam.com                      |
|    \\/     M anipulation  |                                                 |
\*---------------------------------------------------------------------------*/
FoamFile
{
    version     2.0;
    format      ascii;
    class       volScalarField;
    location    "390";
    object      p;
}
// * * * * * * * * * * * * * * * * * * * * * * * * * * * * * * * * * * * * * //

dimensions      [0 2 -2 0 0 0 0];


internalField   nonuniform List<scalar> 
12441
(
8.86441
9.16335
10.0169
11.3455
13.0666
15.2289
17.9214
21.2586
25.4079
30.5325
36.862
44.6249
54.3255
66.3375
81.9264
101.394
129.597
164.849
222.019
284.593
375.568
438.211
8.86441
9.16334
10.0169
11.3455
13.0666
15.2289
17.9214
21.2585
25.4078
30.5323
36.8617
44.6243
54.3246
66.3358
81.9234
101.387
129.581
164.825
221.938
284.518
375.521
438.017
8.86439
9.16332
10.0169
11.3455
13.0665
15.2288
17.9212
21.2584
25.4075
30.5318
36.8609
44.6231
54.3226
66.3324
81.9173
101.373
129.556
164.768
221.769
284.337
375.39
437.666
8.86437
9.16329
10.0168
11.3454
13.0664
15.2287
17.9211
21.2581
25.407
30.5311
36.8598
44.6213
54.3196
66.3272
81.9083
101.352
129.523
164.681
221.591
284.061
375.153
437.12
8.86434
9.16326
10.0168
11.3453
13.0663
15.2285
17.9208
21.2577
25.4064
30.5302
36.8584
44.6189
54.3157
66.3203
81.8963
101.325
129.48
164.573
221.426
283.714
374.818
436.374
8.8643
9.16321
10.0167
11.3453
13.0662
15.2283
17.9205
21.2572
25.4057
30.529
36.8565
44.6159
54.3108
66.3117
81.8814
101.291
129.426
164.446
221.24
283.294
374.392
435.431
8.86425
9.16316
10.0167
11.3452
13.066
15.2281
17.9202
21.2566
25.4048
30.5276
36.8543
44.6123
54.3049
66.3014
81.8634
101.251
129.363
164.297
221.023
282.804
373.877
434.289
8.86419
9.1631
10.0166
11.345
13.0659
15.2278
17.9197
21.2559
25.4038
30.5259
36.8518
44.608
54.298
66.2893
81.8426
101.205
129.294
164.127
220.785
282.257
373.28
432.945
8.86413
9.16303
10.0165
11.3449
13.0656
15.2275
17.9193
21.2551
25.4026
30.524
36.8488
44.6032
54.2902
66.2757
81.8193
101.154
129.222
163.944
220.548
281.665
372.604
431.396
8.86406
9.16295
10.0164
11.3447
13.0654
15.2272
17.9187
21.2542
25.4012
30.5219
36.8455
44.5978
54.2813
66.2604
81.7948
101.104
129.156
163.76
220.337
281.037
371.849
429.636
8.86398
9.16286
10.0163
11.3446
13.0652
15.2268
17.9181
21.2532
25.3997
30.5195
36.8418
44.5918
54.2715
66.2438
81.7704
101.059
129.11
163.594
220.183
280.385
371.014
427.657
8.8639
9.16276
10.0161
11.3444
13.0649
15.2263
17.9175
21.2522
25.3981
30.5169
36.8378
44.5852
54.2608
66.227
81.7499
101.031
129.119
163.483
220.117
279.711
370.091
425.45
8.8638
9.16265
10.016
11.3442
13.0645
15.2259
17.9168
21.251
25.3963
30.5141
36.8334
44.578
54.2494
66.2121
81.7432
101.044
129.228
163.475
220.147
279.009
369.072
423.004
8.8637
9.16254
10.0158
11.3439
13.0642
15.2253
17.916
21.2497
25.3943
30.511
36.8286
44.5702
54.2381
66.2041
81.7669
101.128
129.485
163.61
220.244
278.26
367.948
420.307
8.86359
9.16241
10.0157
11.3437
13.0638
15.2248
17.9151
21.2483
25.3923
30.5077
36.8234
44.5619
54.2284
66.2121
81.8396
101.306
129.912
163.892
220.344
277.437
366.709
417.344
8.86347
9.16228
10.0155
11.3434
13.0634
15.2242
17.9142
21.2468
25.39
30.5042
36.8179
44.5532
54.2236
66.2472
81.9758
101.587
130.485
164.265
220.374
276.515
365.347
414.102
8.86334
9.16214
10.0153
11.3431
13.063
15.2236
17.9133
21.2453
25.3876
30.5004
36.812
44.5448
54.2291
66.3187
82.1789
101.959
131.134
164.63
220.273
275.475
363.853
410.567
8.86321
9.16199
10.0151
11.3428
13.0626
15.2229
17.9123
21.2436
25.3851
30.4963
36.8056
44.5379
54.2521
66.4302
82.4392
102.384
131.748
164.874
220.011
274.306
362.223
406.724
8.86307
9.16183
10.0149
11.3425
13.0621
15.2222
17.9112
21.2418
25.3824
30.492
36.7988
44.5347
54.298
66.5774
82.7347
102.809
132.211
164.925
219.593
273.005
360.452
402.557
8.86292
9.16166
10.0147
11.3422
13.0616
15.2214
17.9101
21.24
25.3795
30.4875
36.7917
44.5387
54.3685
66.7496
83.0349
103.173
132.434
164.768
219.041
271.576
358.538
398.052
8.86276
9.16148
10.0145
11.3418
13.0611
15.2206
17.9089
21.238
25.3766
30.4827
36.7846
44.5539
54.4602
66.9321
83.3057
103.422
132.389
164.444
218.387
270.025
356.481
393.192
8.8626
9.16129
10.0142
11.3415
13.0605
15.2198
17.9076
21.2359
25.3734
30.4777
36.7779
44.5835
54.5658
67.1091
83.5163
103.527
132.11
164.016
217.659
268.36
354.28
387.96
8.86242
9.1611
10.014
11.3411
13.06
15.2189
17.9063
21.2338
25.3701
30.4723
36.7727
44.6274
54.6768
67.2656
83.6464
103.486
131.673
163.538
216.874
266.591
351.937
382.34
8.86224
9.16089
10.0137
11.3407
13.0594
15.218
17.9049
21.2315
25.3667
30.4667
36.7706
44.683
54.7846
67.3895
83.6896
103.322
131.166
163.046
216.044
264.727
349.455
376.311
8.86206
9.16068
10.0134
11.3403
13.0587
15.2171
17.9035
21.2291
25.363
30.4608
36.7735
44.7459
54.8825
67.4736
83.6539
103.075
130.656
162.549
215.173
262.777
346.835
369.856
8.86186
9.16046
10.0131
11.3398
13.0581
15.2161
17.902
21.2267
25.3593
30.4547
36.7831
44.8113
54.9653
67.5157
83.5564
102.787
130.179
162.045
214.261
260.751
344.08
362.952
8.86165
9.16023
10.0128
11.3394
13.0574
15.215
17.9004
21.2241
25.3553
30.4484
36.8
44.8747
55.0298
67.5189
83.4182
102.488
129.746
161.529
213.31
258.658
341.194
355.578
8.86144
9.15999
10.0125
11.3389
13.0567
15.214
17.8988
21.2215
25.3512
30.4421
36.8235
44.9329
55.0747
67.4897
83.2584
102.2
129.35
160.994
212.317
256.506
338.177
347.708
8.86122
9.15974
10.0122
11.3384
13.056
15.2129
17.8971
21.2187
25.3469
30.4362
36.8519
44.9835
55.1002
67.4359
83.0914
101.929
128.978
160.438
211.283
254.303
335.029
339.318
8.86099
9.15948
10.0119
11.3379
13.0552
15.2117
17.8954
21.2159
25.3425
30.4305
36.8828
45.0251
55.1079
67.3653
82.926
101.676
128.62
159.859
210.207
252.053
331.749
330.378
8.86076
9.15921
10.0115
11.3374
13.0544
15.2105
17.8936
21.2129
25.3379
30.4255
36.9145
45.057
55.1001
67.2843
82.7667
101.438
128.268
159.258
209.089
249.757
328.331
320.858
8.86052
9.15894
10.0112
11.3368
13.0536
15.2093
17.8918
21.2098
25.3331
30.4214
36.9454
45.0791
55.0796
67.1979
82.6146
101.211
127.916
158.636
207.929
247.418
324.77
310.725
8.86026
9.15865
10.0108
11.3363
13.0528
15.208
17.8898
21.2067
25.3281
30.4187
36.9745
45.0919
55.0492
67.1093
82.4693
100.992
127.56
157.994
206.728
245.033
321.056
299.943
8.86
9.15836
10.0104
11.3357
13.0519
15.2067
17.8879
21.2034
25.323
30.4179
37.0008
45.0959
55.0114
67.0204
82.3295
100.776
127.199
157.333
205.485
242.602
317.178
288.477
8.85974
9.15806
10.01
11.3351
13.051
15.2054
17.8858
21.2
25.3177
30.4193
37.0239
45.0924
54.9685
66.9322
82.1938
100.561
126.833
156.656
204.202
240.125
313.124
276.286
8.85946
9.15775
10.0096
11.3345
13.0501
15.204
17.8837
21.1965
25.3122
30.4236
37.0436
45.0824
54.9219
66.8453
82.0609
100.346
126.46
155.963
202.879
237.604
308.883
263.329
8.85918
9.15743
10.0092
11.3339
13.0492
15.2026
17.8816
21.1929
25.3067
30.4319
37.0603
45.0672
54.873
66.7598
81.9298
100.13
126.081
155.256
201.516
235.041
304.443
249.561
8.85889
9.1571
10.0088
11.3332
13.0482
15.2011
17.8794
21.1893
25.3014
30.4458
37.0741
45.0478
54.8228
66.6758
81.7995
99.9126
125.696
154.535
200.116
232.441
299.794
234.937
8.85859
9.15676
10.0083
11.3326
13.0472
15.1996
17.8771
21.1854
25.2977
30.4666
37.0857
45.0252
54.772
66.5932
81.6697
99.6927
125.305
153.802
198.68
229.808
294.928
219.407
8.85829
9.15642
10.0079
11.3319
13.0462
15.1981
17.8747
21.1815
25.299
30.4946
37.0953
45.0004
54.7208
66.512
81.5399
99.4707
124.91
153.057
197.21
227.149
289.839
202.919
8.85797
9.15606
10.0074
11.3312
13.0452
15.1965
17.8724
21.1775
25.3108
30.53
37.1031
44.9741
54.6696
66.4323
81.4101
99.2468
124.51
152.3
195.712
224.468
284.527
185.419
8.85765
9.1557
10.0069
11.3305
13.0441
15.1949
17.8699
21.1736
25.3383
30.572
37.1089
44.947
54.6183
66.3544
81.2802
99.0213
124.106
151.533
194.187
221.767
278.989
166.859
8.85732
9.15533
10.0064
11.3298
13.043
15.1932
17.8674
21.1708
25.3847
30.6195
37.1125
44.9197
54.5668
66.2784
81.1503
98.7946
123.699
150.753
192.643
219.044
273.2
147.151
8.85699
9.15494
10.0059
11.329
13.0419
15.1915
17.8647
21.1732
25.4492
30.6702
37.1137
44.8929
54.5152
66.2045
81.0205
98.5676
123.289
149.958
191.084
216.285
267.079
125.554
-19.6612
-22.0701
-23.1099
-22.0144
-18.5228
-16.3983
-14.0917
-12.4903
-11.0857
-10.661
-10.6585
-10.2076
-8.23486
-4.74304
-0.248302
4.36129
8.05854
10.5315
12.079
13.1313
12.8783
12.4022
11.1088
9.31021
7.79056
6.07497
4.7253
4.16242
3.108
2.29161
-2.59807
-4.1514
6.31257
2.66415
1.27289
-19.6619
-22.0529
-23.1345
-22.0161
-18.5221
-16.3964
-14.0924
-12.4908
-11.0859
-10.66
-10.6575
-10.2055
-8.23255
-4.73982
-0.242993
4.36976
8.06962
10.5417
12.0847
13.1347
12.881
12.4044
11.1108
9.31215
7.79244
6.07683
4.72708
4.16338
3.10885
2.29752
-2.59467
-4.18992
6.30547
2.66484
1.27312
-19.6625
-22.0372
-23.174
-22.0199
-18.5218
-16.3944
-14.093
-12.4909
-11.0855
-10.6585
-10.6564
-10.204
-8.22938
-4.73464
-0.233465
4.38673
8.09511
10.5704
12.1055
13.1455
12.8871
12.409
11.1148
9.3159
7.79594
6.08009
4.73007
4.16525
3.11049
2.30449
-2.59387
-4.22561
6.29846
2.66561
1.27336
-19.6632
-22.0297
-23.2271
-22.0259
-18.5228
-16.3924
-14.0934
-12.4908
-11.0848
-10.6567
-10.6557
-10.203
-8.22588
-4.72895
-0.222784
4.40712
8.12881
10.6129
12.1409
13.1644
12.8968
12.4162
11.121
9.32159
7.80122
6.08496
4.73452
4.16837
3.11239
2.31339
-2.5954
-4.24823
6.29148
2.66641
1.2736
-19.664
-22.035
-23.2908
-22.034
-18.5239
-16.3899
-14.093
-12.4903
-11.0837
-10.6549
-10.6558
-10.2027
-8.22319
-4.72469
-0.214649
4.42399
8.15912
10.6548
12.1798
13.1872
12.9092
12.4254
11.129
9.32889
7.80802
6.09127
4.74033
4.17266
3.11476
2.32397
-2.59694
-4.25665
6.28493
2.66724
1.27383
-19.6649
-22.0577
-23.3619
-22.0432
-18.524
-16.3864
-14.0913
-12.4894
-11.0824
-10.6535
-10.6566
-10.2032
-8.22147
-4.72182
-0.209303
4.43581
8.18189
10.6889
12.215
13.2104
12.9231
12.4361
11.1382
9.33729
7.8159
6.0987
4.74731
4.178
3.11765
2.33587
-2.59596
-4.25173
6.27891
2.6681
1.27404
-19.6658
-22.1016
-23.4374
-22.0527
-18.5226
-16.3816
-14.0883
-12.488
-11.0807
-10.6524
-10.6581
-10.2042
-8.22031
-4.71927
-0.205175
4.44408
8.19801
10.7144
12.2441
13.2322
12.9378
12.4477
11.1481
9.34625
7.82435
6.10682
4.75514
4.1842
3.12097
2.34884
-2.59062
-4.2344
6.2734
2.66901
1.27424
-19.6666
-22.1695
-23.5141
-22.0622
-18.5199
-16.3759
-14.084
-12.4864
-11.0789
-10.652
-10.6603
-10.2057
-8.21925
-4.71613
-0.200803
4.4506
8.20947
10.7327
12.2671
13.2519
12.9525
12.4595
11.1581
9.35524
7.83286
6.11515
4.76346
4.19103
3.12465
2.36264
-2.5801
-4.20533
6.26838
2.66996
1.27442
-19.6672
-22.2623
-23.5894
-22.0719
-18.5165
-16.3699
-14.079
-12.4846
-11.0769
-10.6522
-10.6633
-10.2075
-8.21821
-4.71223
-0.195645
4.45637
8.21776
10.7457
12.2844
13.2688
12.9664
12.4708
11.1677
9.36374
7.8409
6.12319
4.7718
4.1982
3.12858
2.37704
-2.56433
-4.16519
6.26385
2.67097
1.27459
-19.6676
-22.3799
-23.6608
-22.082
-18.5129
-16.3641
-14.0737
-12.4829
-11.0751
-10.6531
-10.6668
-10.2095
-8.21724
-4.70788
-0.189892
4.46166
8.22357
10.7542
12.2965
13.2822
12.9784
12.4809
11.1762
9.37121
7.84798
6.13042
4.77967
4.20531
3.13266
2.39175
-2.54375
-4.11474
6.25982
2.67202
1.27474
-19.6679
-22.5202
-23.7265
-22.0926
-18.5095
-16.3591
-14.0687
-12.4813
-11.0734
-10.6546
-10.6708
-10.2119
-8.21655
-4.70361
-0.184085
4.46629
8.22724
10.7589
12.3038
13.2915
12.9876
12.4888
11.183
9.37716
7.85366
6.13639
4.78658
4.21192
3.13677
2.40651
-2.51917
-4.05487
6.25632
2.67313
1.27487
-19.668
-22.6794
-23.785
-22.1038
-18.5065
-16.3553
-14.0644
-12.4802
-11.0721
-10.6567
-10.6752
-10.2146
-8.21621
-4.69978
-0.178779
4.47
8.22899
10.7605
12.3068
13.2963
12.9931
12.4937
11.1874
9.38115
7.8576
6.14079
4.79211
4.21761
3.14073
2.42111
-2.49177
-3.98665
6.25348
2.6743
1.27499
-19.6683
-22.852
-23.8357
-22.1154
-18.5042
-16.353
-14.0612
-12.4796
-11.0712
-10.6594
-10.6799
-10.2176
-8.21631
-4.69669
-0.174426
4.47258
8.22915
10.7595
12.3062
13.2969
12.9947
12.4954
11.1891
9.38296
7.85964
6.14344
4.79606
4.22202
3.14436
2.43539
-2.46304
-3.91149
6.25141
2.67551
1.27508
-19.6687
-23.031
-23.8783
-22.1274
-18.503
-16.3525
-14.0595
-12.4798
-11.0709
-10.6628
-10.6849
-10.2208
-8.21681
-4.69439
-0.171275
4.47389
8.228
10.757
12.3031
13.2943
12.9929
12.494
11.1882
9.3826
7.85981
6.1444
4.79839
4.22495
3.14745
2.44931
-2.4347
-3.83116
6.25035
2.67679
1.27516
-19.6697
-23.2079
-23.9134
-22.1391
-18.503
-16.354
-14.0596
-12.4809
-11.0713
-10.6668
-10.6902
-10.2244
-8.21766
-4.69289
-0.169383
4.47395
8.22583
10.7534
12.2984
13.2894
12.9885
12.4899
11.185
9.38034
7.85835
6.14391
4.79929
4.22641
3.14984
2.46291
-2.40844
-3.7481
6.25059
2.67811
1.27521
-19.6714
-23.3743
-23.9417
-22.1499
-18.5045
-16.3578
-14.0616
-12.4832
-11.0727
-10.6717
-10.696
-10.2283
-8.21875
-4.69202
-0.168604
4.47285
8.22279
10.749
12.2929
13.2831
12.9825
12.4841
11.18
9.37657
7.8556
6.1423
4.79908
4.2266
3.15144
2.47629
-2.3855
-3.66543
6.25247
2.67948
1.27524
-19.6739
-23.5228
-23.9643
-22.159
-18.5078
-16.3641
-14.0658
-12.4868
-11.075
-10.6775
-10.7024
-10.2326
-8.22008
-4.69164
-0.168688
4.47079
8.21901
10.744
12.2866
13.2759
12.9753
12.4769
11.1737
9.37168
7.8519
6.13991
4.7981
4.22579
3.1523
2.48954
-2.36637
-3.58706
6.25631
2.6809
1.27525
-19.677
-23.6481
-23.9824
-22.1653
-18.5133
-16.3732
-14.0724
-12.4919
-11.0786
-10.6843
-10.7096
-10.2375
-8.22162
-4.69153
-0.16932
4.468
8.21454
10.7384
12.2796
13.2679
12.9673
12.4688
11.1665
9.36596
7.84751
6.13701
4.79666
4.22428
3.1526
2.50276
-2.35067
-3.51695
6.26234
2.68236
1.27524
-19.681
-23.7478
-23.9976
-22.1688
-18.5212
-16.3855
-14.0818
-12.4989
-11.0835
-10.6924
-10.7179
-10.2431
-8.22352
-4.6916
-0.170239
4.46467
8.20941
10.7319
12.2717
13.259
12.9585
12.4598
11.1584
9.35962
7.8426
6.13375
4.79497
4.22227
3.15253
2.51606
-2.33753
-3.45826
6.27056
2.68386
1.2752
-19.6856
-23.8233
-24.0112
-22.17
-18.5313
-16.4011
-14.0945
-12.5083
-11.0902
-10.7021
-10.7278
-10.25
-8.22598
-4.69181
-0.171253
4.46096
8.20357
10.7244
12.2626
13.2489
12.9488
12.45
11.1497
9.35275
7.8373
6.13026
4.79313
4.21991
3.15225
2.52958
-2.32595
-3.4121
6.28073
2.6854
1.27513
-19.6908
-23.8792
-24.0233
-22.1702
-18.5433
-16.4206
-14.111
-12.5205
-11.0989
-10.7136
-10.74
-10.2587
-8.22949
-4.69233
-0.172315
4.4569
8.19695
10.7158
12.2523
13.2376
12.9382
12.4394
11.1402
9.34539
7.83166
6.12658
4.79118
4.21729
3.15189
2.54346
-2.31518
-3.37738
6.29242
2.68696
1.27504
-19.6962
-23.9223
-24.0326
-22.1709
-18.5569
-16.4443
-14.1321
-12.5364
-11.1101
-10.7274
-10.7553
-10.2702
-8.23463
-4.69344
-0.173486
4.45245
8.1894
10.7058
12.2406
13.225
12.9264
12.4278
11.13
9.33756
7.82571
6.12275
4.78917
4.21447
3.15152
2.55777
-2.30472
-3.35131
6.30515
2.68856
1.27492
-19.7011
-23.9582
-24.0373
-22.1735
-18.5721
-16.4727
-14.1585
-12.5567
-11.1244
-10.7441
-10.7744
-10.2855
-8.24248
-4.6958
-0.17502
4.44745
8.18075
10.6944
12.2274
13.211
12.9136
12.4153
11.119
9.32927
7.81949
6.11878
4.78707
4.21149
3.15121
2.57252
-2.29438
-3.33063
6.31844
2.69018
1.27477
-19.705
-23.9909
-24.0355
-22.1794
-18.5887
-16.5066
-14.1911
-12.5822
-11.1424
-10.7641
-10.7985
-10.3057
-8.25411
-4.70029
-0.177356
4.44167
8.17075
10.6813
12.2126
13.1955
12.8998
12.4018
11.1074
9.32053
7.81302
6.11469
4.7849
4.20836
3.15097
2.58762
-2.28411
-3.31231
6.33201
2.69182
1.27459
-19.7072
-24.024
-24.0245
-22.1894
-18.607
-16.5467
-14.2311
-12.6137
-11.1645
-10.7878
-10.8277
-10.3319
-8.2708
-4.70822
-0.181261
4.43473
8.15918
10.6663
12.1959
13.1787
12.885
12.3876
11.095
9.31136
7.80632
6.1105
4.78265
4.20513
3.15084
2.60294
-2.27396
-3.29407
6.34566
2.69347
1.27438
-19.7073
-24.061
-24.0015
-22.2041
-18.6272
-16.5943
-14.2796
-12.6517
-11.191
-10.8154
-10.8622
-10.364
-8.29298
-4.72073
-0.187747
4.42611
8.14572
10.6492
12.1774
13.1604
12.8692
12.3724
11.082
9.3018
7.79941
6.10622
4.78035
4.20181
3.1508
2.61831
-2.26403
-3.27425
6.35939
2.69514
1.27413
-19.7051
-24.1055
-23.965
-22.2228
-18.6499
-16.6499
-14.3371
-12.6963
-11.2217
-10.8463
-10.901
-10.4018
-8.32043
-4.73844
-0.197908
4.41512
8.13008
10.6299
12.1568
13.1406
12.8525
12.3565
11.0684
9.29188
7.79234
6.10187
4.77799
4.19843
3.15085
2.63354
-2.25442
-3.25179
6.37324
2.69682
1.27385
-19.7008
-24.1611
-23.9159
-22.2446
-18.6757
-16.7142
-14.4036
-12.7465
-11.2555
-10.8795
-10.9425
-10.4432
-8.35137
-4.7605
-0.212329
4.40102
8.11184
10.6081
12.1341
13.1193
12.8349
12.3398
11.0542
9.28162
7.78511
6.09748
4.77563
4.19503
3.15095
2.6484
-2.24525
-3.22589
6.38734
2.6985
1.27352
-19.6949
-24.2313
-23.8575
-22.2676
-18.705
-16.7862
-14.4772
-12.7997
-11.2902
-10.9129
-10.9841
-10.4862
-8.38356
-4.78493
-0.230671
4.38335
8.09074
10.5839
12.1093
13.0965
12.8165
12.3225
11.0394
9.27105
7.77776
6.09306
4.77326
4.19162
3.15106
2.66268
-2.23665
-3.1961
6.4018
2.70019
1.27316
-19.6877
-24.3197
-23.7949
-22.2897
-18.7387
-16.8644
-14.5542
-12.852
-11.3226
-10.944
-11.0229
-10.5272
-8.41378
-4.80874
-0.251481
4.36215
8.06655
10.5571
12.0822
13.0721
12.7972
12.3044
11.0241
9.26019
7.7703
6.08864
4.77095
4.18824
3.15111
2.67611
-2.22877
-3.16197
6.41679
2.7019
1.27276
-19.6798
-24.4303
-23.734
-22.3087
-18.7774
-16.9451
-14.629
-12.8978
-11.3484
-10.9693
-11.0557
-10.5634
-8.43938
-4.82936
-0.272837
4.3381
8.03949
10.5279
12.0531
13.046
12.777
12.2856
11.0083
9.24907
7.76277
6.08427
4.76871
4.1849
3.15107
2.68845
-2.22176
-3.12335
6.43241
2.7036
1.27232
-19.6715
-24.5684
-23.6804
-22.3231
-18.8217
-17.0238
-14.6948
-12.9311
-11.3635
-10.986
-11.0796
-10.5915
-8.45769
-4.8448
-0.292999
4.3123
8.00996
10.4965
12.022
13.0181
12.7557
12.2662
10.992
9.23771
7.75518
6.07996
4.7666
4.18162
3.15086
2.69932
-2.21582
-3.07998
6.44883
2.70531
1.27183
-19.6628
-24.7417
-23.6387
-22.3327
-18.8721
-17.0947
-14.7441
-12.946
-11.3639
-10.9913
-11.0927
-10.6096
-8.46753
-4.85466
-0.31104
4.28589
7.97877
10.4634
11.9892
12.9885
12.7334
12.2459
10.9752
9.22611
7.74758
6.07577
4.76464
4.17842
3.15043
2.70842
-2.21111
-3.03187
6.46612
2.70703
1.27129
-19.6536
-24.9604
-23.6109
-22.3395
-18.9283
-17.1524
-14.7712
-12.9386
-11.3475
-10.9841
-11.094
-10.6162
-8.46858
-4.8595
-0.326734
4.25968
7.94657
10.4291
11.9551
12.9573
12.7097
12.2249
10.9579
9.21429
7.73996
6.07172
4.76289
4.1753
3.1497
2.71529
-2.20785
-2.97888
6.48442
2.70876
1.27071
-19.6433
-25.2382
-23.5963
-22.3476
-18.9896
-17.1922
-14.7722
-12.9071
-11.3136
-10.9646
-11.0839
-10.6116
-8.46264
-4.861
-0.340433
4.23412
7.91402
10.3941
11.9201
12.9247
12.6848
12.2029
10.9401
9.20228
7.73238
6.06785
4.76139
4.17227
3.14864
2.71953
-2.20619
-2.92115
6.50378
2.71049
1.27009
-19.6303
-25.591
-23.5913
-22.3625
-19.0545
-17.2124
-14.7473
-12.8534
-11.2645
-10.9348
-11.064
-10.5974
-8.45235
-4.86066
-0.352601
4.20926
7.88133
10.3585
11.8845
12.891
12.6584
12.1799
10.9217
9.19009
7.72485
6.06421
4.7602
4.16935
3.14713
2.72056
-2.2063
-2.85859
6.52432
2.71224
1.26941
-19.6125
-26.0355
-23.5902
-22.3892
-19.1211
-17.2135
-14.6997
-12.7816
-11.2041
-10.8978
-11.0367
-10.5773
-8.44107
-4.85975
-0.363798
4.18494
7.84872
10.3227
11.8487
12.8566
12.6308
12.156
10.9029
9.17774
7.71742
6.06084
4.75935
4.16654
3.14513
2.71791
-2.20834
-2.79139
6.54608
2.71399
1.26868
-19.5874
-26.5826
-23.586
-22.4307
-19.1875
-17.1986
-14.6354
-12.6983
-11.1378
-10.8569
-11.0054
-10.5559
-8.4307
-4.85866
-0.374428
4.16088
7.81596
10.2865
11.8127
12.8219
12.6021
12.131
10.8835
9.16527
7.71013
6.05778
4.75891
4.16386
3.1425
2.71085
-2.21246
-2.71943
6.5692
2.71575
1.26789
-19.5533
-27.2244
-23.5706
-22.487
-19.2514
-17.1719
-14.5609
-12.6101
-11.0708
-10.8152
-10.9748
-10.5375
-8.42193
-4.85768
-0.38492
4.13678
7.78296
10.2499
11.7764
12.7869
12.5726
12.1051
10.8637
9.15274
7.70302
6.05507
4.75889
4.16133
3.13917
2.69882
-2.21879
-2.64275
6.59373
2.71752
1.26705
-19.5098
-27.9153
-23.5351
-22.556
-19.3113
-17.1377
-14.4826
-12.5237
-11.0076
-10.7766
-10.9499
-10.5234
-8.41413
-4.85676
-0.395575
4.11223
7.74923
10.2126
11.7397
12.7518
12.5426
12.0784
10.8435
9.14016
7.69609
6.05271
4.75936
4.15899
3.13493
2.68083
-2.22739
-2.56098
6.61981
2.71929
1.26613
-19.4507
-28.5575
-23.4697
-22.6333
-19.3649
-17.0992
-14.4056
-12.4438
-10.9521
-10.7461
-10.9329
-10.5129
-8.40696
-4.85621
-0.406877
4.08672
7.71453
10.1746
11.7029
12.717
12.5125
12.0511
10.8229
9.12752
7.68931
6.05069
4.76032
4.15692
3.12965
2.65647
-2.23809
-2.47456
6.64723
2.72104
1.26516
-19.3518
-28.999
-23.3648
-22.7128
-19.4096
-17.0582
-14.3333
-12.3747
-10.9093
-10.727
-10.9225
-10.5042
-8.40009
-4.85623
-0.419279
4.05986
7.67878
10.1362
11.6663
12.6824
12.4823
12.0233
10.8018
9.11464
7.68259
6.04903
4.76197
4.15529
3.1233
2.62594
-2.25097
-2.38583
6.67543
2.72282
1.26415
-19.2169
-29.0609
-23.2116
-22.788
-19.4424
-17.0154
-14.2683
-12.3207
-10.8828
-10.7179
-10.9158
-10.4968
-8.39421
-4.85753
-0.433134
4.03207
7.64317
10.0987
11.6303
12.6479
12.4515
11.9944
10.7798
9.10141
7.676
6.04797
4.76453
4.15435
3.11617
2.59046
-2.26693
-2.29799
6.70417
2.72468
1.2631
-19.298
-28.6067
-23.0047
-22.8577
-19.465
-16.9734
-14.2131
-12.2852
-10.8706
-10.7156
-10.912
-10.4913
-8.38995
-4.86023
-0.447822
4.00462
7.60898
10.0626
11.5944
12.612
12.4184
11.9637
10.757
9.08842
7.67049
6.04842
4.76855
4.15385
3.1059
2.53966
-2.28867
-2.19227
6.74075
2.72653
1.26175
8.85672
9.15464
10.0055
11.3284
13.041
15.1901
17.8626
21.1896
25.5103
30.7093
37.1121
44.8727
54.4759
66.1487
80.9212
98.3923
122.971
149.326
189.871
214.102
262.022
103.844
8.85652
9.15442
10.0052
11.328
13.0403
15.1891
17.8611
21.215
25.5549
30.7334
37.108
44.8582
54.4482
66.1094
80.8506
98.267
122.741
148.862
188.992
212.514
258.159
100.903
8.85631
9.15418
10.0049
11.3275
13.0396
15.1881
17.8594
21.2464
25.5932
30.7513
37.1013
44.8428
54.4205
66.0692
80.779
98.1379
122.502
148.379
188.092
210.867
254.138
102.575
8.85609
9.15393
10.0046
11.327
13.0389
15.1869
17.8577
21.278
25.6247
30.7639
37.0932
44.8267
54.3927
66.0282
80.7059
98.0041
122.254
147.877
187.169
209.152
250.002
102.456
8.85586
9.15367
10.0043
11.3265
13.0381
15.1858
17.8559
21.3052
25.6499
30.7723
37.0848
44.8104
54.3651
65.9865
80.6312
97.8647
121.994
147.353
186.216
207.368
245.743
100.654
8.85562
9.15339
10.0039
11.326
13.0373
15.1845
17.854
21.3234
25.6693
30.7772
37.0766
44.7942
54.3379
65.9439
80.5547
97.7193
121.721
146.807
185.229
205.518
241.355
98.5984
8.85536
9.1531
10.0035
11.3254
13.0365
15.1832
17.852
21.3295
25.6832
30.7793
37.0693
44.7783
54.3114
65.9006
80.4764
97.5674
121.432
146.238
184.201
203.602
236.843
96.6843
8.85509
9.15279
10.0031
11.3248
13.0356
15.1818
17.8498
21.324
25.6918
30.7791
37.0629
44.7629
54.2855
65.8565
80.3959
97.4087
121.126
145.644
183.127
201.622
232.213
94.7488
8.8548
9.15247
10.0027
11.3242
13.0346
15.1803
17.8476
21.3097
25.6953
30.777
37.0575
44.7481
54.2605
65.8116
80.3132
97.2428
120.802
145.024
181.999
199.578
227.468
92.6939
8.8545
9.15213
10.0022
11.3235
13.0336
15.1787
17.8452
21.2896
25.6939
30.7732
37.0532
44.734
54.236
65.766
80.2279
97.0695
120.459
144.377
180.812
197.469
222.614
90.5437
8.85418
9.15176
10.0018
11.3228
13.0325
15.1771
17.8427
21.2655
25.6873
30.7677
37.0497
44.7207
54.2123
65.7195
80.1401
96.8886
120.095
143.7
179.561
195.295
217.655
88.3331
8.85384
9.15138
10.0012
11.322
13.0314
15.1753
17.84
21.2388
25.6751
30.7605
37.0468
44.7082
54.189
65.672
80.0492
96.7
119.711
142.993
178.24
193.054
212.595
86.0732
8.85349
9.15098
10.0007
11.3213
13.0302
15.1735
17.8372
21.2109
25.6567
30.7511
37.0441
44.6963
54.1661
65.6233
79.9552
96.5033
119.305
142.253
176.845
190.746
207.44
83.7679
8.85311
9.15055
10.0002
11.3204
13.029
15.1715
17.8342
21.1835
25.6315
30.7391
37.0411
44.685
54.1433
65.5731
79.8576
96.2984
118.878
141.479
175.373
188.369
202.195
81.4259
8.85271
9.1501
9.99956
11.3195
13.0276
15.1694
17.831
21.1579
25.5989
30.7236
37.0372
44.6743
54.1207
65.5213
79.7561
96.0848
118.43
140.669
173.82
185.921
196.865
79.0594
8.85229
9.14962
9.99893
11.3186
13.0262
15.1672
17.8277
21.1353
25.5584
30.7038
37.0315
44.6638
54.0978
65.4674
79.65
95.862
117.96
139.823
172.185
183.401
191.454
76.6815
8.85184
9.14911
9.99826
11.3176
13.0247
15.1648
17.8241
21.1162
25.5103
30.6784
37.0229
44.6534
54.0749
65.4112
79.5392
95.6294
117.468
138.938
170.465
180.807
185.967
74.3063
8.85137
9.14857
9.99755
11.3166
13.0232
15.1624
17.8203
21.1007
25.4556
30.6461
37.01
44.6425
54.0515
65.3523
79.4227
95.3863
116.952
138.014
168.659
178.138
180.407
71.9475
8.85087
9.148
9.9968
11.3154
13.0215
15.1597
17.8163
21.0884
25.3961
30.6056
36.9909
44.6303
54.0277
65.2903
79.3003
95.132
116.412
137.048
166.768
175.392
174.78
69.6179
8.85034
9.1474
9.99601
11.3143
13.0197
15.1569
17.8121
21.0785
25.3348
30.556
36.9635
44.6158
54.0031
65.2249
79.171
94.8655
115.846
136.039
164.789
172.569
169.088
67.328
8.84977
9.14676
9.99516
11.313
13.0178
15.1539
17.8075
21.0701
25.2748
30.4968
36.9249
44.5973
53.9774
65.1557
79.0344
94.5859
115.253
134.987
162.723
169.665
163.337
65.0847
8.84918
9.14608
9.99427
11.3117
13.0159
15.1508
17.8027
21.0622
25.2192
30.4289
36.8723
44.572
53.9498
65.0824
78.8894
94.2924
114.632
133.888
160.569
166.681
157.532
62.8911
8.84854
9.14536
9.99332
11.3103
13.0137
15.1475
17.7975
21.0545
25.1706
30.3542
36.8031
44.5365
53.919
65.0045
78.7356
93.9837
113.98
132.741
158.327
163.613
151.678
60.7451
8.84787
9.1446
9.99231
11.3088
13.0115
15.1439
17.7921
21.0465
25.1301
30.2761
36.7155
44.4856
53.8827
64.9217
78.572
93.659
113.297
131.545
155.996
160.462
145.783
58.6398
8.84715
9.14379
9.99124
11.3072
13.0091
15.1402
17.7862
21.038
25.0972
30.1987
36.6102
44.4132
53.8372
64.833
78.3979
93.317
112.58
130.298
153.575
157.224
139.855
56.5633
8.8464
9.14293
9.9901
11.3055
13.0066
15.1362
17.7801
21.029
25.0705
30.1257
36.4903
44.3128
53.7761
64.7369
78.2123
92.9569
111.828
128.997
151.065
153.899
133.904
54.4993
8.84559
9.14201
9.98889
11.3038
13.0039
15.1319
17.7735
21.0193
25.0479
30.0598
36.3618
44.1794
53.6902
64.6301
78.0142
92.5774
111.04
127.641
148.465
150.485
127.939
52.4278
8.84473
9.14104
9.9876
11.3019
13.001
15.1274
17.7665
21.009
25.0275
30.0021
36.2322
44.0123
53.5671
64.5073
77.8016
92.1775
110.215
126.227
145.775
146.98
121.974
50.3264
8.84382
9.14
9.98624
11.2998
12.998
15.1227
17.7591
20.9979
25.0079
29.952
36.1084
43.8171
53.3935
64.3586
77.5713
91.7557
109.35
124.755
142.995
143.382
116.02
48.1718
8.84285
9.1389
9.98478
11.2977
12.9948
15.1176
17.7512
20.9861
24.9882
29.9079
35.9956
43.6053
53.1598
64.1694
77.3169
91.31
108.447
123.221
140.126
139.69
110.093
45.9406
8.84182
9.13773
9.98323
11.2954
12.9913
15.1122
17.7429
20.9735
24.9678
29.8676
35.8957
43.3914
52.8663
63.9207
77.0275
90.8367
107.503
121.626
137.168
135.903
104.205
43.6111
8.84072
9.13648
9.98157
11.293
12.9877
15.1065
17.7339
20.9601
24.9463
29.8291
35.8079
43.1887
52.5263
63.5943
76.6855
90.3295
106.516
119.966
134.123
132.022
98.3714
41.1644
8.83954
9.13516
9.97981
11.2904
12.9838
15.1004
17.7245
20.9458
24.9234
29.7905
35.7294
43.0051
52.1642
63.1812
76.2673
89.7774
105.485
118.242
130.993
128.045
92.6071
38.5854
8.8383
9.13374
9.97794
11.2876
12.9796
15.0939
17.7144
20.9305
24.8991
29.7507
35.6564
42.8426
51.8072
62.6904
75.7479
89.1631
104.404
116.451
127.778
123.976
86.9266
35.8636
8.83697
9.13224
9.97594
11.2847
12.9752
15.087
17.7037
20.9143
24.8731
29.709
35.585
42.6978
51.4763
62.1501
75.112
88.4636
103.263
114.592
124.482
119.816
81.3439
32.9942
8.83555
9.13063
9.97381
11.2816
12.9705
15.0796
17.6923
20.897
24.8455
29.665
35.5127
42.5644
51.1802
61.5988
74.3655
87.6543
102.049
112.664
121.107
115.569
75.8727
29.978
8.83404
9.12892
9.97153
11.2782
12.9655
15.0718
17.6802
20.8786
24.8162
29.6182
35.4374
42.4356
50.9164
61.0713
73.5408
86.7185
100.744
110.663
117.659
111.241
70.5263
26.8221
8.83242
9.12709
9.9691
11.2747
12.9601
15.0635
17.6673
20.8589
24.7849
29.5684
35.3581
42.306
50.6748
60.5867
72.6877
85.6588
99.3308
108.589
114.147
106.841
65.3175
23.5393
8.8307
9.12514
9.96651
11.2709
12.9544
15.0546
17.6535
20.838
24.7516
29.5156
35.2743
42.1716
50.4431
60.1454
71.8546
84.5026
97.7969
106.439
110.58
102.378
60.2593
20.1481
8.82886
9.12306
9.96374
11.2668
12.9483
15.0451
17.6389
20.8156
24.7162
29.4594
35.1853
42.0303
50.2106
59.7344
71.0703
83.2962
96.1461
104.216
106.979
97.868
55.3653
16.672
8.8269
9.12084
9.96079
11.2625
12.9418
15.0351
17.6232
20.7918
24.6784
29.3997
35.0907
41.8809
49.97
59.3352
70.3373
82.0871
94.3999
101.925
103.368
93.3315
50.6505
13.1387
8.8248
9.11846
9.95763
11.2578
12.9348
15.0243
17.6066
20.7664
24.6382
29.3361
34.9903
41.7226
49.717
58.9314
69.6376
80.9056
92.5934
99.5766
99.7784
88.7962
46.132
9.58034
8.82256
9.11593
9.95426
11.2529
12.9274
15.0128
17.5889
20.7393
24.5954
29.2684
34.8835
41.5548
49.4499
58.5116
68.9452
79.7568
90.7612
97.1843
96.2457
84.2977
41.8295
6.03227
8.82016
9.11322
9.95065
11.2476
12.9195
15.0006
17.5699
20.7103
24.5497
29.1964
34.7701
41.3767
49.1676
58.0698
68.2367
78.6241
88.9261
94.7558
92.7991
79.8782
37.765
2.53328
8.8176
9.11032
9.94679
11.242
12.911
14.9875
17.5497
20.6795
24.5011
29.1198
34.6495
41.1877
48.8689
57.6036
67.4964
77.4811
87.0932
92.2892
89.4507
75.582
33.9609
-0.875295
8.81486
9.10722
9.94267
11.2359
12.902
14.9736
17.5282
20.6465
24.4493
29.0382
34.5213
40.9871
48.5529
57.1119
66.7172
76.3025
85.2515
89.7742
86.1841
71.4465
30.4376
-4.15071
8.81193
9.10391
9.93825
11.2295
12.8923
14.9587
17.5052
20.6114
24.3941
28.9514
34.3851
40.7743
48.2186
56.5934
65.8975
75.0713
83.379
87.2024
82.9524
67.4891
27.2089
-7.25067
8.80879
9.10037
9.93353
11.2226
12.882
14.9427
17.4807
20.5738
24.3352
28.859
34.2403
40.5486
47.8648
56.0466
65.0375
73.7812
81.4519
84.5707
79.6959
63.6947
24.2746
-10.1363
8.80543
9.09657
9.92847
11.2152
12.8709
14.9258
17.4545
20.5337
24.2724
28.7606
34.0865
40.3092
47.4908
55.4702
64.137
72.4326
79.4547
81.8766
76.3709
60.0129
21.6134
-12.776
8.80183
9.09252
9.92306
11.2073
12.8591
14.9076
17.4266