/*--------------------------------*- C++ -*----------------------------------*\
| =========                 |                                                 |
| \\      /  F ield         | OpenFOAM: The Open Source CFD Toolbox           |
|  \\    /   O peration     | Version:  v1912                                 |
|   \\  /    A nd           | Website:  www.openfoam.com                      |
|    \\/     M anipulation  |                                                 |
\*---------------------------------------------------------------------------*/
FoamFile
{
    version     2.0;
    format      ascii;
    class       surfaceScalarField;
    location    "390";
    object      phi;
}
// * * * * * * * * * * * * * * * * * * * * * * * * * * * * * * * * * * * * * //

dimensions      [0 3 -1 0 0 0 0];
oriented        oriented;


internalField   nonuniform List<scalar> 
24588
(
6.81683e-05
1.98204e-08
6.81147e-05
5.43418e-08
6.80303e-05
8.38348e-08
6.79156e-05
1.14617e-07
6.7766e-05
1.48882e-07
6.7578e-05
1.88236e-07
6.73436e-05
2.33755e-07
6.70507e-05
2.92968e-07
6.66866e-05
3.63638e-07
6.62328e-05
4.53192e-07
6.56739e-05
5.58994e-07
6.49655e-05
6.97423e-07
6.41204e-05
8.87749e-07
6.29223e-05
1.15527e-06
6.14702e-05
1.45132e-06
5.9167e-05
2.31312e-06
5.6261e-05
2.90632e-06
5.14734e-05
4.78764e-06
4.47841e-05
6.6892e-06
3.35955e-05
1.11887e-05
1.9952e-05
1.36435e-05
1.9952e-05
6.81686e-05
4.01718e-08
6.81145e-05
1.09379e-07
6.80302e-05
1.6744e-07
6.79156e-05
2.28981e-07
6.77661e-05
2.97469e-07
6.75781e-05
3.76433e-07
6.73438e-05
4.67394e-07
6.70511e-05
5.85705e-07
6.6687e-05
7.27197e-07
6.62329e-05
9.06537e-07
6.56742e-05
1.11775e-06
6.49614e-05
1.39786e-06
6.41337e-05
1.76284e-06
6.29238e-05
2.32303e-06
6.14653e-05
2.90898e-06
5.92295e-05
4.55849e-06
5.62761e-05
5.8603e-06
5.14428e-05
9.62097e-06
4.48299e-05
1.3302e-05
3.34989e-05
2.252e-05
1.9914e-05
2.72284e-05
3.9866e-05
6.81686e-05
6.05265e-08
6.81145e-05
1.6442e-07
6.80301e-05
2.51083e-07
6.79156e-05
3.43387e-07
6.7766e-05
4.46107e-07
6.7578e-05
5.64661e-07
6.73437e-05
7.01112e-07
6.7051e-05
8.7846e-07
6.66868e-05
1.09077e-06
6.62327e-05
1.35995e-06
6.56738e-05
1.67669e-06
6.49613e-05
2.09741e-06
6.41299e-05
2.64379e-06
6.29195e-05
3.48311e-06
6.14601e-05
4.36773e-06
5.92609e-05
6.76883e-06
5.62724e-05
8.84962e-06
5.14632e-05
1.443e-05
4.48064e-05
1.99586e-05
3.35205e-05
3.38063e-05
1.99345e-05
4.08145e-05
5.98005e-05
6.81686e-05
8.08751e-08
6.81145e-05
2.19407e-07
6.80302e-05
3.3468e-07
6.79156e-05
4.57752e-07
6.77661e-05
5.94663e-07
6.75782e-05
7.5283e-07
6.73438e-05
9.34742e-07
6.70511e-05
1.17121e-06
6.6687e-05
1.45436e-06
6.62329e-05
1.81335e-06
6.5674e-05
2.23565e-06
6.49615e-05
2.79751e-06
6.41317e-05
3.52039e-06
6.29234e-05
4.65102e-06
6.14589e-05
5.83145e-06
5.92807e-05
8.95598e-06
5.62962e-05
1.18348e-05
5.14782e-05
1.92479e-05
4.47962e-05
2.66406e-05
3.35499e-05
4.50528e-05
1.99687e-05
5.43957e-05
7.97691e-05
6.81686e-05
1.0122e-07
6.81145e-05
2.74384e-07
6.80302e-05
4.18311e-07
6.79156e-05
5.72167e-07
6.77661e-05
7.43277e-07
6.75781e-05
9.41034e-07
6.73437e-05
1.16848e-06
6.7051e-05
1.46397e-06
6.66868e-05
1.81793e-06
6.62327e-05
2.26678e-06
6.56738e-05
2.79469e-06
6.49617e-05
3.49685e-06
6.4128e-05
4.40374e-06
6.29191e-05
5.80923e-06
6.14551e-05
7.295e-06
5.92886e-05
1.11337e-05
5.63206e-05
1.48035e-05
5.148e-05
2.40884e-05
4.48145e-05
3.33059e-05
3.35961e-05
5.62715e-05
2.00175e-05
6.79744e-05
9.97865e-05
6.81686e-05
1.21563e-07
6.81146e-05
3.29316e-07
6.80302e-05
5.01882e-07
6.79157e-05
6.86519e-07
6.77662e-05
8.91779e-07
6.75783e-05
1.12916e-06
6.73439e-05
1.40208e-06
6.70512e-05
1.75672e-06
6.66871e-05
2.18151e-06
6.6233e-05
2.72019e-06
6.56739e-05
3.35381e-06
6.49616e-05
4.1969e-06
6.41304e-05
5.28045e-06
6.29244e-05
6.97728e-06
6.14556e-05
8.76315e-06
5.92897e-05
1.33082e-05
5.63368e-05
1.7757e-05
5.14909e-05
2.89342e-05
4.4846e-05
3.99507e-05
3.3662e-05
6.74557e-05
2.0083e-05
8.15535e-05
0.000119869
6.81686e-05
1.41903e-07
6.81146e-05
3.8424e-07
6.80302e-05
5.85496e-07
6.79156e-05
8.00937e-07
6.77661e-05
1.04035e-06
6.75782e-05
1.31733e-06
6.73438e-05
1.6358e-06
6.70511e-05
2.04947e-06
6.6687e-05
2.54505e-06
6.62329e-05
3.17359e-06
6.56739e-05
3.91286e-06
6.49622e-05
4.89627e-06
6.41262e-05
6.16569e-06
6.29194e-05
8.13241e-06
6.14517e-05
1.02311e-05
5.92835e-05
1.54872e-05
5.63516e-05
2.06895e-05
5.15117e-05
3.3774e-05
4.48939e-05
4.65684e-05
3.3755e-05
7.85948e-05
2.01681e-05
9.51404e-05
0.000140038
6.81686e-05
1.62243e-07
6.81146e-05
4.39121e-07
6.80302e-05
6.69045e-07
6.79157e-05
9.15272e-07
6.77663e-05
1.18879e-06
6.75784e-05
1.50541e-06
6.73441e-05
1.86936e-06
6.70514e-05
2.34221e-06
6.66872e-05
2.90859e-06
6.62332e-05
3.62696e-06
6.5674e-05
4.47213e-06
6.49618e-05
5.59637e-06
6.4129e-05
7.04172e-06
6.29252e-05
9.30103e-06
6.14453e-05
1.17114e-05
5.92712e-05
1.76694e-05
5.63693e-05
2.35917e-05
5.15588e-05
3.85845e-05
4.49747e-05
5.31524e-05
3.38862e-05
8.96835e-05
2.02768e-05
0.00010875
0.000160314
6.81686e-05
1.82578e-07
6.81146e-05
4.93996e-07
6.80302e-05
7.52643e-07
6.79157e-05
1.02968e-06
6.77662e-05
1.33731e-06
6.75783e-05
1.69355e-06
6.73439e-05
2.10307e-06
6.70512e-05
2.63493e-06
6.66871e-05
3.27207e-06
6.62332e-05
4.08026e-06
6.56743e-05
5.03111e-06
6.49633e-05
6.29553e-06
6.41225e-05
7.93174e-06
6.29146e-05
1.04578e-05
6.14206e-05
1.32058e-05
5.92697e-05
1.98278e-05
5.63757e-05
2.6486e-05
5.16607e-05
4.32994e-05
4.51088e-05
5.97042e-05
3.40673e-05
0.000100725
2.04134e-05
0.000122404
0.000180728
6.81686e-05
2.02912e-07
6.81146e-05
5.48831e-07
6.80303e-05
8.36176e-07
6.79158e-05
1.144e-06
6.77663e-05
1.48568e-06
6.75785e-05
1.88158e-06
6.73442e-05
2.33659e-06
6.70515e-05
2.92763e-06
6.66874e-05
3.63557e-06
6.62335e-05
4.53356e-06
6.56741e-05
5.59062e-06
6.49615e-05
6.99616e-06
6.41188e-05
8.81361e-06
6.29085e-05
1.16362e-05
6.1399e-05
1.47175e-05
5.92939e-05
2.19374e-05
5.6387e-05
2.93931e-05
5.18201e-05
4.78663e-05
4.52999e-05
6.62244e-05
3.43024e-05
0.000111723
2.05812e-05
0.000136125
0.000201309
6.81686e-05
2.23241e-07
6.81146e-05
6.0366e-07
6.80302e-05
9.19771e-07
6.79157e-05
1.25841e-06
6.77662e-05
1.63416e-06
6.75783e-05
2.06968e-06
6.7344e-05
2.57028e-06
6.70514e-05
3.22031e-06
6.66873e-05
3.99899e-06
6.62336e-05
4.98671e-06
6.56747e-05
6.14957e-06
6.49634e-05
7.69633e-06
6.41091e-05
9.71438e-06
6.28963e-05
1.28069e-05
6.13844e-05
1.62294e-05
5.93264e-05
2.39981e-05
5.64185e-05
3.23011e-05
5.20078e-05
5.22769e-05
4.55252e-05
7.27069e-05
3.45838e-05
0.000122664
2.07816e-05
0.000149927
0.000222091
6.81685e-05
2.43569e-07
6.81146e-05
6.58449e-07
6.80303e-05
1.0033e-06
6.79158e-05
1.37271e-06
6.77664e-05
1.78248e-06
6.75786e-05
2.25766e-06
6.73443e-05
2.80376e-06
6.70517e-05
3.51297e-06
6.66876e-05
4.36243e-06
6.62339e-05
5.43987e-06
6.56742e-05
6.70932e-06
6.49574e-05
8.40218e-06
6.40916e-05
1.06118e-05
6.28982e-05
1.39811e-05
6.1381e-05
1.77489e-05
5.93565e-05
2.6024e-05
5.64612e-05
3.51964e-05
5.21821e-05
5.65561e-05
4.57534e-05
7.91356e-05
3.48956e-05
0.000133522
2.10133e-05
0.000163809
0.000243104
6.81686e-05
2.6389e-07
6.81146e-05
7.13234e-07
6.80303e-05
1.0869e-06
6.79157e-05
1.48712e-06
6.77663e-05
1.93091e-06
6.75784e-05
2.44572e-06
6.73441e-05
3.03744e-06
6.70515e-05
3.80559e-06
6.66875e-05
4.72581e-06
6.62339e-05
5.8929e-06
6.56734e-05
7.26985e-06
6.49525e-05
9.11345e-06
6.40711e-05
1.15281e-05
6.29011e-05
1.51322e-05
6.13815e-05
1.92674e-05
5.9379e-05
2.80272e-05
5.65018e-05
3.80737e-05
5.23212e-05
6.07366e-05
4.5965e-05
8.54918e-05
3.52218e-05
0.000144265
2.1273e-05
0.000177758
0.000264377
6.81685e-05
2.84209e-07
6.81146e-05
7.67978e-07
6.80303e-05
1.17043e-06
6.79158e-05
1.6014e-06
6.77665e-05
2.07918e-06
6.75787e-05
2.63366e-06
6.73445e-05
3.27089e-06
6.70519e-05
4.09818e-06
6.66879e-05
5.08917e-06
6.62342e-05
6.34602e-06
6.56706e-05
7.83357e-06
6.49392e-05
9.83635e-06
6.40562e-05
1.24261e-05
6.29035e-05
1.62806e-05
6.1383e-05
2.07896e-05
5.93939e-05
3.00167e-05
5.65341e-05
4.09335e-05
5.24261e-05
6.48447e-05
4.61535e-05
9.17644e-05
3.55504e-05
0.000154869
2.15563e-05
0.000191752
0.000285933
6.81686e-05
3.0452e-07
6.81146e-05
8.22717e-07
6.80303e-05
1.25405e-06
6.79157e-05
1.7158e-06
6.77664e-05
2.22758e-06
6.75785e-05
2.82168e-06
6.73442e-05
3.50454e-06
6.70517e-05
4.39074e-06
6.66879e-05
5.45239e-06
6.62342e-05
6.79909e-06
6.56671e-05
8.40074e-06
6.49299e-05
1.05668e-05
6.405e-05
1.33206e-05
6.29036e-05
1.74195e-05
6.13843e-05
2.23077e-05
5.94033e-05
3.1998e-05
5.6558e-05
4.37788e-05
5.25053e-05
6.88973e-05
4.63191e-05
9.79505e-05
3.58744e-05
0.000165313
2.18588e-05
0.000205768
0.000307792
6.81685e-05
3.24828e-07
6.81146e-05
8.77415e-07
6.80303e-05
1.33759e-06
6.79159e-05
1.83006e-06
6.77666e-05
2.37579e-06
6.75788e-05
3.00956e-06
6.73446e-05
3.73795e-06
6.70521e-05
4.68327e-06
6.66883e-05
5.81553e-06
6.62349e-05
7.25194e-06
6.56612e-05
8.97457e-06
6.49277e-05
1.12952e-05
6.40456e-05
1.42054e-05
6.29032e-05
1.85623e-05
6.13855e-05
2.38266e-05
5.9409e-05
3.39746e-05
5.6575e-05
4.66129e-05
5.25667e-05
7.29056e-05
4.6465e-05
0.000104052
3.61902e-05
0.000175588
2.21765e-05
0.000219782
0.000329968
6.81686e-05
3.45127e-07
6.81146e-05
9.3211e-07
6.80303e-05
1.42123e-06
6.79158e-05
1.94446e-06
6.77664e-05
2.52416e-06
6.75786e-05
3.19754e-06
6.73443e-05
3.97159e-06
6.70519e-05
4.97572e-06
6.66883e-05
6.17856e-06
6.62356e-05
7.70408e-06
6.56512e-05
9.55898e-06
6.49325e-05
1.20111e-05
6.40426e-05
1.51013e-05
6.29028e-05
1.96984e-05
6.13865e-05
2.53419e-05
5.94125e-05
3.59488e-05
5.6587e-05
4.94384e-05
5.26163e-05
7.68763e-05
4.65947e-05
0.000110074
3.64966e-05
0.000185686
2.25065e-05
0.000233772
0.000352475
6.81685e-05
3.65423e-07
6.81147e-05
9.86762e-07
6.80304e-05
1.50479e-06
6.79159e-05
2.05871e-06
6.77666e-05
2.67233e-06
6.75789e-05
3.38537e-06
6.73448e-05
4.20497e-06
6.70524e-05
5.26811e-06
6.66887e-05
6.54162e-06
6.62368e-05
8.15546e-06
6.56415e-05
1.01544e-05
6.49375e-05
1.27136e-05
6.40406e-05
1.59976e-05
6.29026e-05
2.08378e-05
6.13874e-05
2.6858e-05
5.94145e-05
3.79218e-05
5.65956e-05
5.22572e-05
5.26584e-05
8.08135e-05
4.67121e-05
0.00011602
3.67939e-05
0.000195604
2.28465e-05
0.000247719
0.000375321
6.81686e-05
3.85709e-07
6.81146e-05
1.04141e-06
6.80303e-05
1.58845e-06
6.79158e-05
2.1731e-06
6.77665e-05
2.82067e-06
6.75787e-05
3.5733e-06
6.73444e-05
4.4386e-06
6.70522e-05
5.5604e-06
6.66886e-05
6.90463e-06
6.62366e-05
8.60687e-06
6.56354e-05
1.07556e-05
6.49396e-05
1.34087e-05
6.40394e-05
1.6901e-05
6.29026e-05
2.1972e-05
6.13883e-05
2.83714e-05
5.94157e-05
3.98945e-05
5.66023e-05
5.50707e-05
5.2696e-05
8.47197e-05
4.68204e-05
0.000121896
3.70834e-05
0.000205341
2.31953e-05
0.000261607
0.000398517
6.81685e-05
4.05992e-07
6.81147e-05
1.09602e-06
6.80304e-05
1.67203e-06
6.79159e-05
2.28733e-06
6.77667e-05
2.9688e-06
6.7579e-05
3.76106e-06
6.73449e-05
4.67195e-06
6.70527e-05
5.85267e-06
6.66891e-05
7.26759e-06
6.62333e-05
9.06218e-06
6.56349e-05
1.1354e-05
6.49399e-05
1.41033e-05
6.40388e-05
1.78008e-05
6.29028e-05
2.31095e-05
6.13893e-05
2.98857e-05
5.94167e-05
4.18672e-05
5.6608e-05
5.78794e-05
5.27316e-05
8.85961e-05
4.69226e-05
0.000127705
3.73667e-05
0.000214897
2.35522e-05
0.000275422
0.000422069
6.81686e-05
4.26263e-07
6.81147e-05
1.15062e-06
6.80303e-05
1.75573e-06
6.79158e-05
2.40172e-06
6.77665e-05
3.11711e-06
6.75788e-05
3.94895e-06
6.73446e-05
4.90555e-06
6.70524e-05
6.14491e-06
6.66892e-05
7.63021e-06
6.62243e-05
9.52651e-06
6.56391e-05
1.19393e-05
6.49396e-05
1.48026e-05
6.40387e-05
1.87041e-05
6.29031e-05
2.42429e-05
6.13905e-05
3.13976e-05
5.94177e-05
4.384e-05
5.66137e-05
6.06834e-05
5.27668e-05
9.2443e-05
4.70212e-05
0.00013345
3.7646e-05
0.000224272
2.39169e-05
0.000289151
0.000445986
6.81686e-05
4.46533e-07
6.81147e-05
1.20518e-06
6.80304e-05
1.83932e-06
6.7916e-05
2.51592e-06
6.77668e-05
3.26519e-06
6.75792e-05
4.13666e-06
6.73451e-05
5.13881e-06
6.70528e-05
6.43722e-06
6.66901e-05
7.9924e-06
6.62147e-05
1.00013e-05
6.56441e-05
1.25099e-05
6.49393e-05
1.55072e-05
6.40388e-05
1.96033e-05
6.29037e-05
2.53795e-05
6.1392e-05
3.29101e-05
5.94193e-05
4.58127e-05
5.66201e-05
6.34826e-05
5.28029e-05
9.62602e-05
4.7118e-05
0.000139135
3.79234e-05
0.000233467
2.429e-05
0.000302784
0.000470276
6.81686e-05
4.6679e-07
6.81147e-05
1.25975e-06
6.80304e-05
1.92304e-06
6.79158e-05
2.63031e-06
6.77666e-05
3.41347e-06
6.75789e-05
4.3245e-06
6.73448e-05
5.37234e-06
6.70525e-05
6.72953e-06
6.66903e-05
8.35405e-06
6.62075e-05
1.04836e-05
6.56473e-05
1.30701e-05
6.49392e-05
1.62153e-05
6.40391e-05
2.05051e-05
6.29045e-05
2.65123e-05
6.13938e-05
3.442e-05
5.94219e-05
4.77847e-05
5.66279e-05
6.62766e-05
5.28407e-05
0.000100047
4.72147e-05
0.000144761
3.82012e-05
0.000242481
2.46721e-05
0.000316313
0.000494948
6.81686e-05
4.87045e-07
6.81147e-05
1.31426e-06
6.80304e-05
2.00666e-06
6.7916e-05
2.74449e-06
6.77669e-05
3.56149e-06
6.75793e-05
4.51215e-06
6.73454e-05
5.60552e-06
6.7053e-05
7.02186e-06
6.66911e-05
8.71542e-06
6.62037e-05
1.09705e-05
6.56488e-05
1.36251e-05
6.49392e-05
1.69248e-05
6.40397e-05
2.14033e-05
6.29055e-05
2.76479e-05
6.13962e-05
3.593e-05
5.94257e-05
4.97553e-05
5.66376e-05
6.90646e-05
5.28806e-05
0.000103805
4.73125e-05
0.000150329
3.84818e-05
0.000251311
2.50643e-05
0.000329731
0.000520012
6.81686e-05
5.07287e-07
6.81147e-05
1.36878e-06
6.80304e-05
2.09041e-06
6.79159e-05
2.85887e-06
6.77667e-05
3.70975e-06
6.7579e-05
4.69994e-06
6.7345e-05
5.83901e-06
6.70528e-05
7.31405e-06
6.6691e-05
9.07672e-06
6.62015e-05
1.14595e-05
6.56494e-05
1.41772e-05
6.49394e-05
1.76348e-05
6.40404e-05
2.23039e-05
6.29069e-05
2.87798e-05
6.13993e-05
3.74369e-05
5.94311e-05
5.17234e-05
5.66495e-05
7.18462e-05
5.29228e-05
0.000107531
4.7412e-05
0.00015584
3.87673e-05
0.000259956
2.54678e-05
0.00034303
0.00054548
6.81686e-05
5.27527e-07
6.81147e-05
1.42325e-06
6.80305e-05
2.17405e-06
6.79161e-05
2.97303e-06
6.7767e-05
3.85773e-06
6.75794e-05
4.88751e-06
6.73456e-05
6.07217e-06
6.70535e-05
7.60609e-06
6.66901e-05
9.43963e-06
6.62014e-05
1.19478e-05
6.56497e-05
1.47289e-05
6.49397e-05
1.83447e-05
6.40413e-05
2.3201e-05
6.29086e-05
2.99139e-05
6.14031e-05
3.8943e-05
5.94383e-05
5.36882e-05
5.66639e-05
7.46207e-05
5.29674e-05
0.000111228
4.7514e-05
0.000161293
3.90601e-05
0.00026841
2.5884e-05
0.000356207
0.000571364
6.81686e-05
5.47754e-07
6.81147e-05
1.47772e-06
6.80304e-05
2.25783e-06
6.79159e-05
3.0874e-06
6.77667e-05
4.00597e-06
6.75791e-05
5.07522e-06
6.73451e-05
6.3057e-06
6.70535e-05
7.89777e-06
6.66846e-05
9.808e-06
6.62043e-05
1.24277e-05
6.565e-05
1.52833e-05
6.49402e-05
1.90545e-05
6.40423e-05
2.41003e-05
6.29106e-05
3.1044e-05
6.14077e-05
4.04452e-05
5.94473e-05
5.56487e-05
5.66807e-05
7.73873e-05
5.30144e-05
0.000114894
4.76187e-05
0.000166689
3.93622e-05
0.000276666
2.63146e-05
0.000369254
0.000597679
6.81686e-05
5.6798e-07
6.81147e-05
1.53214e-06
6.80305e-05
2.34149e-06
6.79161e-05
3.20153e-06
6.7767e-05
4.15391e-06
6.75796e-05
5.26268e-06
6.73457e-05
6.53893e-06
6.70543e-05
8.18912e-06
6.66773e-05
1.01845e-05
6.62094e-05
1.28954e-05
6.56503e-05
1.58424e-05
6.49407e-05
1.97639e-05
6.40435e-05
2.49963e-05
6.2913e-05
3.21759e-05
6.14132e-05
4.19456e-05
5.9458e-05
5.76039e-05
5.67001e-05
8.01453e-05
5.30636e-05
0.00011853
4.77264e-05
0.000172026
3.96752e-05
0.000284718
2.67611e-05
0.000382168
0.00062444
6.81686e-05
5.88191e-07
6.81147e-05
1.58657e-06
6.80304e-05
2.42529e-06
6.79159e-05
3.31588e-06
6.77668e-05
4.30212e-06
6.75793e-05
5.45029e-06
6.73452e-05
6.77256e-06
6.70543e-05
8.48006e-06
6.66711e-05
1.05673e-05
6.62132e-05
1.33531e-05
6.56507e-05
1.64049e-05
6.49414e-05
2.04732e-05
6.40449e-05
2.58943e-05
6.29158e-05
3.33033e-05
6.14195e-05
4.34412e-05
5.94704e-05
5.95531e-05
5.6722e-05
8.28937e-05
5.31153e-05
0.000122137
4.7837e-05
0.000177304
4.00006e-05
0.000292554
2.72249e-05
0.000394944
0.000651665
6.81686e-05
6.08402e-07
6.81148e-05
1.64095e-06
6.80305e-05
2.50897e-06
6.79162e-05
3.42998e-06
6.77671e-05
4.45002e-06
6.75798e-05
5.63764e-06
6.73458e-05
7.00584e-06
6.70552e-05
8.77077e-06
6.66675e-05
1.09544e-05
6.62159e-05
1.38047e-05
6.56512e-05
1.69695e-05
6.49422e-05
2.11822e-05
6.40464e-05
2.67889e-05
6.2919e-05
3.44321e-05
6.14266e-05
4.49342e-05
5.94844e-05
6.14953e-05
5.67464e-05
8.56317e-05
5.31693e-05
0.000125714
4.79504e-05
0.000182523
4.03393e-05
0.000300165
2.77072e-05
0.000407576
0.000679372
6.81686e-05
6.28598e-07
6.81148e-05
1.69533e-06
6.80305e-05
2.5928e-06
6.7916e-05
3.54432e-06
6.77669e-05
4.59821e-06
6.75794e-05
5.82517e-06
6.73454e-05
7.23946e-06
6.7055e-05
9.06123e-06
6.6665e-05
1.13439e-05
6.62177e-05
1.4252e-05
6.56518e-05
1.75355e-05
6.4943e-05
2.1891e-05
6.40481e-05
2.76852e-05
6.29225e-05
3.5556e-05
6.14345e-05
4.64215e-05
5.94999e-05
6.343e-05
5.67734e-05
8.83582e-05
5.32258e-05
0.000129262
4.80665e-05
0.000187683
4.06915e-05
0.00030754
2.82089e-05
0.000420059
0.000707581
6.81686e-05
6.48795e-07
6.81148e-05
1.74967e-06
6.80306e-05
2.67649e-06
6.79162e-05
3.65838e-06
6.77672e-05
4.74605e-06
6.758e-05
6.01243e-06
6.73461e-05
7.47266e-06
6.70557e-05
9.35169e-06
6.6664e-05
1.17351e-05
6.62193e-05
1.46966e-05
6.56525e-05
1.81023e-05
6.4944e-05
2.25995e-05
6.40499e-05
2.85782e-05
6.29265e-05
3.66809e-05
6.1443e-05
4.79057e-05
5.95167e-05
6.53563e-05
5.68029e-05
9.10721e-05
5.32849e-05
0.00013278
4.81851e-05
0.000192782
4.10572e-05
0.000314668
2.87307e-05
0.000432385
0.000736311
6.81686e-05
6.68976e-07
6.81148e-05
1.80401e-06
6.80305e-05
2.76034e-06
6.7916e-05
3.7727e-06
6.7767e-05
4.8942e-06
6.75796e-05
6.19989e-06
6.73457e-05
7.70615e-06
6.70554e-05
9.64212e-06
6.66633e-05
1.21268e-05
6.62208e-05
1.51391e-05
6.56532e-05
1.86698e-05
6.4945e-05
2.33077e-05
6.40519e-05
2.94726e-05
6.29307e-05
3.78004e-05
6.14522e-05
4.93835e-05
5.95349e-05
6.72736e-05
5.6835e-05
9.3772e-05
5.33466e-05
0.000136268
4.83061e-05
0.000197823
4.14362e-05
0.000321538
2.92729e-05
0.000444548
0.000765584
6.81686e-05
6.89161e-07
6.81148e-05
1.85831e-06
6.80306e-05
2.84405e-06
6.79163e-05
3.88673e-06
6.77674e-05
5.04199e-06
6.75801e-05
6.3871e-06
6.73465e-05
7.93913e-06
6.70559e-05
9.93276e-06
6.66633e-05
1.25189e-05
6.62221e-05
1.55803e-05
6.56541e-05
1.92379e-05
6.49461e-05
2.40156e-05
6.4054e-05
3.03637e-05
6.29352e-05
3.89206e-05
6.14619e-05
5.08575e-05
5.95543e-05
6.91812e-05
5.68696e-05
9.64567e-05
5.34112e-05
0.000139727
4.84298e-05
0.000202804
4.1828e-05
0.00032814
2.98357e-05
0.000456541
0.00079542
6.81686e-05
7.0933e-07
6.81148e-05
1.91262e-06
6.80305e-05
2.92792e-06
6.79161e-05
4.00104e-06
6.77671e-05
5.19009e-06
6.75797e-05
6.57453e-06
6.73462e-05
8.17234e-06
6.70554e-05
1.02236e-05
6.66632e-05
1.29107e-05
6.62234e-05
1.602e-05
6.56549e-05
1.98064e-05
6.49473e-05
2.47232e-05
6.40562e-05
3.1256e-05
6.294e-05
4.0035e-05
6.14721e-05
5.23247e-05
5.95749e-05
7.10784e-05
5.69067e-05
9.91249e-05
5.34789e-05
0.000143154
4.85562e-05
0.000207727
4.22323e-05
0.000334464
3.04191e-05
0.000468354
0.000825839
6.81686e-05
7.29502e-07
6.81148e-05
1.96687e-06
6.80306e-05
3.01162e-06
6.79163e-05
4.11503e-06
6.77675e-05
5.33779e-06
6.75803e-05
6.76171e-06
6.73471e-05
8.40495e-06
6.70556e-05
1.05151e-05
6.66637e-05
1.33023e-05
6.62247e-05
1.64589e-05
6.56558e-05
2.03753e-05
6.49485e-05
2.54305e-05
6.40586e-05
3.21449e-05
6.29451e-05
4.115e-05
6.14829e-05
5.37876e-05
5.95967e-05
7.29647e-05
5.69464e-05
0.000101775
5.35498e-05
0.000146551
4.86858e-05
0.000212591
4.26489e-05
0.000340501
3.10234e-05
0.000479979
0.000856863
6.81686e-05
7.4966e-07
6.81148e-05
2.02115e-06
6.80306e-05
3.0955e-06
6.79161e-05
4.22932e-06
6.77672e-05
5.48582e-06
6.75799e-05
6.94914e-06
6.73468e-05
8.63771e-06
6.7052e-05
1.08099e-05
6.6666e-05
1.3688e-05
6.6226e-05
1.6899e-05
6.56568e-05
2.09444e-05
6.49499e-05
2.61374e-05
6.40611e-05
3.30349e-05
6.29504e-05
4.22589e-05
6.14941e-05
5.52431e-05
5.96196e-05
7.48392e-05
5.69885e-05
0.000104406
5.36241e-05
0.000149915
4.88191e-05
0.000217396
4.3078e-05
0.000346242
3.16489e-05
0.000491409
0.000888511
6.81686e-05
7.69822e-07
6.81148e-05
2.07536e-06
6.80307e-05
3.17921e-06
6.79164e-05
4.34328e-06
6.77677e-05
5.63343e-06
6.75805e-05
7.13631e-06
6.73477e-05
8.86983e-06
6.70423e-05
1.11153e-05
6.6675e-05
1.40553e-05
6.62271e-05
1.73469e-05
6.56578e-05
2.15137e-05
6.49512e-05
2.6844e-05
6.40636e-05
3.39214e-05
6.29559e-05
4.33682e-05
6.15058e-05
5.6694e-05
5.96436e-05
7.67014e-05
5.70331e-05
0.000107017
5.37021e-05
0.000153246
4.89564e-05
0.000222142
4.35201e-05
0.000351678
3.2296e-05
0.000502633
0.000920807
6.81686e-05
7.89966e-07
6.81148e-05
2.12959e-06
6.80306e-05
3.2631e-06
6.79162e-05
4.45755e-06
6.77674e-05
5.78139e-06
6.758e-05
7.3237e-06
6.73473e-05
9.1023e-06
6.70355e-05
1.14271e-05
6.66813e-05
1.44094e-05
6.62282e-05
1.77999e-05
6.56588e-05
2.20831e-05
6.49527e-05
2.75502e-05
6.40663e-05
3.4809e-05
6.29616e-05
4.44711e-05
6.15179e-05
5.81369e-05
5.96686e-05
7.85507e-05
5.708e-05
0.000109605
5.37841e-05
0.000156542
4.9098e-05
0.000226828
4.39755e-05
0.000356801
3.29656e-05
0.000513642
0.000953773
6.81686e-05
8.10116e-07
6.81148e-05
2.18376e-06
6.80307e-05
3.3468e-06
6.79165e-05
4.57147e-06
6.77678e-05
5.92893e-06
6.75807e-05
7.51074e-06
6.7348e-05
9.33438e-06
6.70338e-05
1.17414e-05
6.66834e-05
1.47598e-05
6.62292e-05
1.82541e-05
6.56599e-05
2.26524e-05
6.49541e-05
2.82559e-05
6.40691e-05
3.56928e-05
6.29675e-05
4.55743e-05
6.15304e-05
5.95748e-05
5.96946e-05
8.03867e-05
5.71291e-05
0.000112171
5.38703e-05
0.000159801
4.92441e-05
0.000231454
4.44441e-05
0.000361601
3.3658e-05
0.000524429
0.000987431
6.81686e-05
8.30255e-07
6.81148e-05
2.23796e-06
6.80306e-05
3.43068e-06
6.79163e-05
4.68568e-06
6.77675e-05
6.07684e-06
6.75804e-05
7.69783e-06
6.7346e-05
9.56857e-06
6.70333e-05
1.20541e-05
6.66842e-05
1.51089e-05
6.62301e-05
1.87082e-05
6.56609e-05
2.32216e-05
6.49556e-05
2.89612e-05
6.40719e-05
3.6578e-05
6.29736e-05
4.66705e-05
6.15434e-05
6.1004e-05
5.97215e-05
8.22086e-05
5.71802e-05
0.000114712
5.39611e-05
0.00016302
4.93944e-05
0.000236021
4.49246e-05
0.00036607
3.43727e-05
0.000534981
0.0010218
6.81686e-05
8.50396e-07
6.81149e-05
2.2921e-06
6.80307e-05
3.51441e-06
6.79166e-05
4.79953e-06
6.77677e-05
6.22454e-06
6.75816e-05
7.88397e-06
6.73358e-05
9.81378e-06
6.70384e-05
1.23515e-05
6.66846e-05
1.54627e-05
6.62309e-05
1.91619e-05
6.56619e-05
2.37906e-05
6.49571e-05
2.9666e-05
6.40748e-05
3.74591e-05
6.29799e-05
4.77673e-05
6.15567e-05
6.24282e-05
5.97492e-05
8.40161e-05
5.72333e-05
0.000117228
5.40569e-05
0.000166197
4.95485e-05
0.000240529
4.54125e-05
0.000370206
3.51065e-05
0.000545286
0.00105691
6.81686e-05
8.70516e-07
6.81149e-05
2.34623e-06
6.80307e-05
3.59833e-06
6.79164e-05
4.91367e-06
6.77674e-05
6.37272e-06
6.75816e-05
8.06983e-06
6.73275e-05
1.00676e-05
6.70423e-05
1.26367e-05
6.66848e-05
1.58202e-05
6.62316e-05
1.96152e-05
6.56629e-05
2.43592e-05
6.49587e-05
3.03703e-05
6.40777e-05
3.83416e-05
6.29862e-05
4.88568e-05
6.15703e-05
6.3843e-05
5.97777e-05
8.58087e-05
5.7288e-05
0.000119718
5.4158e-05
0.000169327
4.97062e-05
0.000244981
4.58983e-05
0.000374014
3.58517e-05
0.000555333
0.00109276
6.81685e-05
8.90626e-07
6.81148e-05
2.40035e-06
6.80307e-05
3.68201e-06
6.79167e-05
5.02737e-06
6.77678e-05
6.52031e-06
6.75824e-05
8.25517e-06
6.73256e-05
1.03238e-05
6.70431e-05
1.29192e-05
6.66849e-05
1.61783e-05
6.62321e-05
2.0068e-05
6.56639e-05
2.49274e-05
6.49602e-05
3.10739e-05
6.40807e-05
3.92198e-05
6.29927e-05
4.99466e-05
6.15842e-05
6.52524e-05
5.9807e-05
8.7586e-05
5.73439e-05
0.000122181
5.42656e-05
0.000172405
4.98665e-05
0.00024938
4.6379e-05
0.000377502
3.66877e-05
0.000565024
0.00112945
-1.8416e-06
1.84165e-06
-4.58805e-06
2.74646e-06
-5.63699e-06
1.04893e-06
-4.92223e-06
-7.146e-07
-3.66539e-06
-1.25643e-06
-2.72253e-06
-9.428e-07
-2.26558e-06
-4.56913e-07
-2.17223e-06
-9.38816e-08
-2.17237e-06
-2.44452e-09
-2.24121e-06
6.43666e-08
-2.33035e-06
6.38701e-08
-2.17601e-06
-1.31373e-07
-1.6401e-06
-5.33868e-07
-6.7464e-07
-9.62284e-07
7.54092e-07
-1.42586e-06
2.67449e-06
-1.91908e-06
5.21161e-06
-2.53796e-06
8.4307e-06
-3.21982e-06
1.21057e-05
-3.67757e-06
1.59194e-05
-3.81292e-06
1.96877e-05
-3.769e-06
2.32744e-05
-3.58639e-06
2.66041e-05
-3.32869e-06
2.96909e-05
-3.08763e-06
3.25886e-05
-2.89883e-06
3.5392e-05
-2.80372e-06
3.82802e-05
-2.88816e-06
4.10071e-05
-2.72525e-06
4.2868e-05
-1.85543e-06
4.94899e-05
-6.62753e-06
6.11254e-05
-1.16355e-05
6.71434e-05
-6.01789e-06
6.75609e-05
-4.17166e-07
6.75496e-05
1.11216e-08
-4.51545e-08
-1.78828e-06
3.63004e-06
-4.52516e-06
5.48337e-06
-5.5685e-06
2.09227e-06
-4.86728e-06
-1.41551e-06
-3.61851e-06
-2.50445e-06
-2.68531e-06
-1.87589e-06
-2.2219e-06
-9.20299e-07
-2.11613e-06
-2.0068e-07
-2.10219e-06
-2.12078e-08
-2.1809e-06
1.34464e-07
-2.29892e-06
1.40498e-07
-2.17092e-06
-2.22288e-07
-1.65686e-06
-1.04385e-06
-6.93245e-07
-1.91956e-06
7.50488e-07
-2.8639e-06
2.68794e-06
-3.85386e-06
5.2239e-06
-5.07557e-06
8.41798e-06
-6.41542e-06
1.20563e-05
-7.32095e-06
1.58382e-05
-7.59339e-06
1.95913e-05
-7.52336e-06
2.31864e-05
-7.18073e-06
2.65343e-05
-6.67472e-06
2.96389e-05
-6.19387e-06
3.25494e-05
-5.81136e-06
3.53534e-05
-5.6083e-06
3.82299e-05
-5.76464e-06
4.09722e-05
-5.46455e-06
4.28269e-05
-3.69998e-06
4.90788e-05
-1.28901e-05
6.06573e-05
-2.32139e-05
6.70813e-05
-1.24417e-05
6.75703e-05
-9.05627e-07
6.75531e-05
2.80442e-08
-8.79412e-08
-1.72767e-06
5.3578e-06
-4.45411e-06
8.20984e-06
-5.48539e-06
3.12354e-06
-4.78067e-06
-2.11995e-06
-3.54e-06
-3.74439e-06
-2.61493e-06
-2.80086e-06
-2.14739e-06
-1.38776e-06
-2.03053e-06
-3.18473e-07
-2.01343e-06
-4.27929e-08
-2.11544e-06
2.28646e-07
-2.26602e-06
2.48741e-07
-2.16099e-06
-2.88168e-07
-1.65809e-06
-1.54273e-06
-6.88518e-07
-2.88275e-06
7.73765e-07
-4.32029e-06
2.72759e-06
-5.80483e-06
5.25988e-06
-7.60971e-06
8.42742e-06
-9.58457e-06
1.20314e-05
-1.09302e-05
1.57881e-05
-1.13486e-05
1.95317e-05
-1.12683e-05
2.31352e-05
-1.07835e-05
2.65015e-05
-1.00392e-05
2.96224e-05
-9.31641e-06
3.25437e-05
-8.73472e-06
3.5347e-05
-8.41225e-06
3.82105e-05
-8.62813e-06
4.09645e-05
-8.2155e-06
4.2818e-05
-5.54307e-06
4.8729e-05
-1.88119e-05
6.02373e-05
-3.47221e-05
6.70215e-05
-1.92257e-05
6.75789e-05
-1.46249e-06
6.75566e-05
5.00932e-08
-1.28394e-07
-1.65702e-06
7.01493e-06
-4.37337e-06
1.09262e-05
-5.38206e-06
4.13223e-06
-4.66199e-06
-2.83968e-06
-3.42816e-06
-4.97751e-06
-2.51654e-06
-3.71237e-06
-2.05004e-06
-1.85428e-06
-1.92636e-06
-4.43172e-07
-1.91004e-06
-6.3723e-08
-2.03704e-06
3.47079e-07
-2.21907e-06
3.93423e-07
-2.13541e-06
-3.3774e-07
-1.64e-06
-2.03337e-06
-6.5945e-07
-3.85571e-06
8.26112e-07
-5.79894e-06
2.79856e-06
-7.77369e-06
5.32581e-06
-1.01393e-05
8.46452e-06
-1.27254e-05
1.20358e-05
-1.45079e-05
1.57728e-05
-1.50839e-05
1.95111e-05
-1.5008e-05
2.31236e-05
-1.43952e-05
2.65074e-05
-1.34209e-05
2.96434e-05
-1.24543e-05
3.2574e-05
-1.16676e-05
3.53755e-05
-1.12145e-05
3.82242e-05
-1.14768e-05
4.0985e-05
-1.09729e-05
4.28407e-05
-7.38815e-06
4.84436e-05
-2.44265e-05
5.98672e-05
-4.61456e-05
6.69636e-05
-2.6322e-05
6.75867e-05
-2.08498e-06
6.756e-05
7.6519e-08
-1.66605e-07
-1.57591e-06
8.59093e-06
-4.28209e-06
1.36324e-05
-5.25609e-06
5.1062e-06
-4.51017e-06
-3.5853e-06
-3.28371e-06
-6.20327e-06
-2.39177e-06
-4.60422e-06
-1.93167e-06
-2.31432e-06
-1.8043e-06
-5.71432e-07
-1.79159e-06
-8.06444e-08
-1.94341e-06
4.91251e-07
-2.15446e-06
5.6965e-07
-2.0905e-06
-3.68417e-07
-1.59902e-06
-2.52029e-06
-6.01342e-07
-4.84592e-06
9.15563e-07
-7.30898e-06
2.91322e-06
-9.76756e-06
5.43626e-06
-1.2665e-05
8.54225e-06
-1.58338e-05
1.20794e-05
-1.80525e-05
1.58003e-05
-1.88028e-05
1.95361e-05
-1.87455e-05
2.31576e-05
-1.80158e-05
2.65576e-05
-1.68188e-05
2.97075e-05
-1.56061e-05
3.26458e-05
-1.46084e-05
3.54437e-05
-1.40131e-05
3.82749e-05
-1.4308e-05
4.10368e-05
-1.37312e-05
4.28972e-05
-9.23744e-06
4.82211e-05
-2.97624e-05
5.95444e-05
-5.74688e-05
6.69075e-05
-3.36849e-05
6.75937e-05
-2.77064e-06
6.75634e-05
1.06589e-07
-2.02664e-07
-1.48377e-06
1.00748e-05
-4.17913e-06
1.63278e-05
-5.10439e-06
6.03145e-06
-4.32316e-06
-4.36615e-06
-3.10634e-06
-7.41938e-06
-2.24097e-06
-5.46949e-06
-1.79258e-06
-2.76275e-06
-1.66364e-06
-7.01446e-07
-1.65642e-06
-9.24495e-08
-1.83191e-06
6.5784e-07
-2.06876e-06
7.74988e-07
-2.02263e-06
-3.85302e-07
-1.53204e-06
-3.00528e-06
-5.10821e-07
-5.85811e-06
1.04858e-06
-8.86027e-06
3.0846e-06
-1.17988e-05
5.61061e-06
-1.51943e-05
8.68116e-06
-1.89078e-05
1.21797e-05
-2.15607e-05
1.58841e-05
-2.25048e-05
1.96178e-05
-2.2481e-05
2.32472e-05
-2.16442e-05
2.66619e-05
-2.02309e-05
2.98241e-05
-1.87708e-05
3.27682e-05
-1.75552e-05
3.55596e-05
-1.68054e-05
3.83691e-05
-1.71175e-05
4.11249e-05
-1.64829e-05
4.29915e-05
-1.10921e-05
4.80592e-05
-3.48437e-05
5.92644e-05
-6.8674e-05
6.68532e-05
-4.12735e-05
6.75999e-05
-3.51676e-06
6.75667e-05
1.39491e-07
-2.36683e-07
-1.37997e-06
1.14549e-05
-4.06295e-06
1.90108e-05
-4.92284e-06
6.89131e-06
-4.09741e-06
-5.19125e-06
-2.89442e-06
-8.62168e-06
-2.06301e-06
-6.3008e-06
-1.63154e-06
-3.19415e-06
-1.50229e-06
-8.31646e-07
-1.5016e-06
-9.73318e-08
-1.69901e-06
8.47128e-07
-1.95812e-06
1.00644e-06
-1.92793e-06
-3.88344e-07
-1.43592e-06
-3.49207e-06
-3.84881e-07
-6.90026e-06
1.23032e-06
-1.04676e-05
3.32487e-06
-1.38886e-05
5.87168e-06
-1.77449e-05
8.91013e-06
-2.19501e-05
1.23635e-05
-2.50255e-05
1.60458e-05
-2.61842e-05
1.9774e-05
-2.62113e-05
2.34086e-05
-2.52776e-05
2.68355e-05
-2.36552e-05
3.00082e-05
-2.19461e-05
3.29552e-05
-2.05052e-05
3.5736e-05
-1.95871e-05
3.85172e-05
-1.98987e-05
4.12569e-05
-1.92181e-05
4.31296e-05
-1.29518e-05
4.79576e-05
-3.96864e-05
5.90235e-05
-7.97399e-05
6.68005e-05
-4.90502e-05
6.76052e-05
-4.32096e-06
6.757e-05
1.7445e-07
-2.6877e-07
-1.26387e-06
1.27189e-05
-3.93158e-06
2.16786e-05
-4.70635e-06
7.66607e-06
-3.8284e-06
-6.06878e-06
-2.64564e-06
-9.80373e-06
-1.85574e-06
-7.0906e-06
-1.44617e-06
-3.6038e-06
-1.31714e-06
-9.61878e-07
-1.32308e-06
-9.62286e-08
-1.54006e-06
1.0542e-06
-1.81758e-06
1.25748e-06
-1.80136e-06
-3.79854e-07
-1.30571e-06
-3.98105e-06
-2.18074e-07
-7.97674e-06
1.46781e-06
-1.21438e-05
3.64684e-06
-1.60616e-05
6.24516e-06
-2.03478e-05
9.26708e-06
-2.49774e-05
1.26697e-05
-2.84434e-05
1.63181e-05
-2.98292e-05
2.00321e-05
-2.99276e-05
2.36663e-05
-2.89104e-05
2.71015e-05
-2.70871e-05