/*--------------------------------*- C++ -*----------------------------------*\
| =========                 |                                                 |
| \\      /  F ield         | OpenFOAM: The Open Source CFD Toolbox           |
|  \\    /   O peration     | Version:  v1912                                 |
|   \\  /    A nd           | Website:  www.openfoam.com                      |
|    \\/     M anipulation  |                                                 |
\*---------------------------------------------------------------------------*/
FoamFile
{
    version     2.0;
    format      ascii;
    class       volScalarField;
    location    "390";
    object      yPlus;
}
// * * * * * * * * * * * * * * * * * * * * * * * * * * * * * * * * * * * * * //

dimensions      [0 0 0 0 0 0 0];


internalField   uniform 0;

boundaryField
{
    inlet
    {
        type            calculated;
        value           uniform 0;
    }
    outlet
    {
        type            calculated;
        value           uniform 0;
    }
    lowerSymmetry
    {
        type            symmetryPlane;
    }
    obstical
    {
        type            calculated;
        value           nonuniform List<scalar> 
88
(
480.697
482.897
487.294
493.869
502.556
513.266
525.909
540.397
556.641
574.561
594.078
615.115
637.589
661.41
686.484
712.715
740.014
768.3
797.502
827.561
858.428
890.065
922.444
955.548
989.365
1023.89
1059.14
1095.11
1131.82
1169.29
1207.53
1246.58
1286.45
1327.16
1368.74
1411.2
1454.57
1498.87
1544.12
1590.35
1637.58
1685.87
1735.63
1790.79
17.8687
17.1124
17.4808
19.1071
21.8346
25.4467
29.7947
34.8037
40.4399
46.6826
53.5054
60.8619
68.676
76.8317
85.1649
93.4553
101.498
109.113
116.117
122.32
127.536
131.585
134.295
135.513
135.108
132.981
129.07
123.354
115.865
106.69
96.0073
84.1411
71.7119
60.0107
51.7503
51.0037
59.2193
73.5675
91.3627
111.496
133.696
157.913
184.148
213.248
)
;
    }
    obsticalTop
    {
        type            calculated;
        value           nonuniform List<scalar> 
20
(
53.3744
38.7596
47.1278
53.225
56.0747
57.7143
58.3219
58.0206
57.0771
55.6231
53.6343
51.0006
47.6272
43.3266
38.0689
31.2121
24.8265
15.3029
13.7829
11.2913
)
;
    }
    top
    {
        type            calculated;
        value           uniform 0;
    }
    defaultFaces
    {
        type            empty;
    }
}


// ************************************************************************* //
