/*--------------------------------*- C++ -*----------------------------------*\
| =========                 |                                                 |
| \\      /  F ield         | OpenFOAM: The Open Source CFD Toolbox           |
|  \\    /   O peration     | Version:  v1912                                 |
|   \\  /    A nd           | Website:  www.openfoam.com                      |
|    \\/     M anipulation  |                                                 |
\*---------------------------------------------------------------------------*/
FoamFile
{
    version     2.0;
    format      ascii;
    class       volScalarField;
    location    "675";
    object      p;
}
// * * * * * * * * * * * * * * * * * * * * * * * * * * * * * * * * * * * * * //

dimensions      [0 2 -2 0 0 0 0];


internalField   nonuniform List<scalar> 
2000
(
-0.0459661
0.0714452
0.126025
0.119137
0.103309
0.0970037
0.0963985
0.0977472
0.0979645
0.0977433
0.0978834
0.0975604
0.0973028
0.0972471
0.0973049
0.0973267
0.0972837
0.0972622
0.0972566
0.0972602
0.097264
0.0972575
0.0972362
0.0972015
0.0971601
0.0971182
0.0970811
0.0970501
0.0970231
0.0969975
0.0969713
0.0969441
0.096916
0.0968872
0.096858
0.0968286
0.0967995
0.0967708
0.0967422
0.0967138
0.0966858
0.0966587
0.0966334
0.096611
0.0965927
0.0965794
0.0965723
0.096573
0.0965834
0.0966034
0.0966222
0.0965966
0.0964069
0.0958091
0.0944392
0.0919054
0.0879183
0.08243
0.0759123
0.0697964
0.0661894
0.0661927
0.0707926
0.079588
0.0916171
0.105875
0.121515
0.13774
0.153634
0.168108
0.180115
0.18878
0.193266
0.19276
0.186472
0.173741
0.153442
0.125378
0.0838498
0.0415339
0.00728107
0.0924575
0.131275
0.11808
0.100339
0.0961409
0.0996824
0.102122
0.0993682
0.0961243
0.0956869
0.096987
0.0974351
0.097303
0.0975276
0.0974296
0.0973057
0.0972031
0.0971682
0.0971569
0.0971747
0.0972151
0.0972222
0.0971987
0.0971635
0.097126
0.0970906
0.0970589
0.0970317
0.0970059
0.0969773
0.0969476
0.0969181
0.096889
0.0968603
0.0968319
0.0968041
0.0967777
0.0967518
0.0967255
0.096699
0.0966727
0.0966472
0.0966231
0.0966012
0.0965828
0.0965696
0.0965666
0.0965877
0.0966566
0.0967761
0.0968578
0.0966194
0.0955
0.0927244
0.0876291
0.0800621
0.0706312
0.0609792
0.0542046
0.0538663
0.0591404
0.06757
0.0784306
0.0912562
0.105689
0.121164
0.136913
0.15202
0.165473
0.176258
0.183395
0.185983
0.183289
0.174651
0.159534
0.137034
0.107322
0.0664094
0.0294352
0.0583489
0.0921469
0.114838
0.113281
0.104083
0.099908
0.0999462
0.0993089
0.0974029
0.0967182
0.0983083
0.099907
0.0989269
0.0964676
0.0955735
0.0964472
0.0973316
0.0975073
0.0973478
0.0972427
0.0971842
0.0971477
0.097129
0.0971413
0.0971492
0.0971384
0.0971081
0.0970631
0.0970266
0.0969911
0.0969635
0.0969381
0.0969135
0.0968912
0.0968711
0.096851
0.0968293
0.0968059
0.0967817
0.0967571
0.096733
0.0967096
0.0966856
0.0966587
0.096632
0.0966247
0.0966719
0.0968085
0.0970644
0.0974505
0.0979067
0.0982099
0.097942
0.0964803
0.0931495
0.0875343
0.0798676
0.0713628
0.0640744
0.0595786
0.058555
0.0619976
0.069264
0.0792266
0.0911138
0.104463
0.118704
0.133017
0.146442
0.157984
0.16669
0.171703
0.172307
0.167947
0.158149
0.142574
0.120637
0.092873
0.0565685
0.0250014
0.0833362
0.0933499
0.1059
0.109979
0.107287
0.104268
0.102607
0.100875
0.0992524
0.0984351
0.0982483
0.0981508
0.0978062
0.0971117
0.0965876
0.0975316
0.0987852
0.0980469
0.0968883
0.0964861
0.0964353
0.0966085
0.0968969
0.0971213
0.0972512
0.0973297
0.097373
0.0973488
0.0972626
0.0971616
0.097064
0.0969806
0.0969196
0.0968882
0.0968733
0.0968619
0.0968458
0.0968288
0.0968121
0.0967956
0.09678
0.0967649
0.0967459
0.0967171
0.0966831
0.0966786
0.0967705
0.0969931
0.0973865
0.097949
0.0986389
0.0991006
0.0989442
0.0976276
0.0946425
0.0897628
0.0832725
0.0759863
0.069084
0.0644434
0.0631713
0.0659562
0.0723946
0.0814668
0.0923383
0.104404
0.116999
0.129305
0.140435
0.14954
0.155856
0.15873
0.157625
0.152123
0.14187
0.126645
0.106058
0.0807204
0.0487452
0.0208137
0.0956768
0.0992773
0.106797
0.110767
0.109639
0.10731
0.105929
0.10489
0.103588
0.102136
0.100786
0.0996977
0.0989711
0.0981338
0.0971713
0.0972006
0.0977546
0.0979688
0.0978198
0.097368
0.0970276
0.0969137
0.0969716
0.0971515
0.0973437
0.0974577
0.0974156
0.0972329
0.0971017
0.0969994
0.0969188
0.0968594
0.0968217
0.0968246
0.0968535
0.0968821
0.0969002
0.0968985
0.0968823
0.0968592
0.0968324
0.096801
0.096759
0.0966935
0.0965973
0.0964875
0.0964442
0.0966178
0.0970054
0.0975744
0.0982225
0.0986771
0.0985279
0.0972852
0.0945343
0.0901409
0.0844199
0.0781952
0.0727193
0.0694122
0.0691122
0.0720421
0.0778492
0.0858163
0.0952172
0.105418
0.115781
0.125611
0.1342
0.140885
0.145079
0.146274
0.144045
0.138039
0.12795
0.113589
0.0946417
0.0716936
0.0432526
0.0181957
0.104118
0.105952
0.109905
0.112076
0.111261
0.109653
0.108694
0.108019
0.10706
0.105869
0.10474
0.10375
0.102737
0.101415
0.100041
0.0993334
0.0992032
0.0990732
0.0985076
0.0976231
0.0970066
0.0968026
0.0968912
0.0970983
0.0972688
0.0973629
0.0974029
0.0973956
0.0973137
0.0972008
0.0970866
0.096987
0.0969115
0.0968764
0.0968377
0.0968026
0.0967881
0.0967873
0.0967762
0.0967622
0.0967523
0.0967446
0.0967335
0.0967145
0.0966932
0.0967017
0.0968089
0.0970924
0.0975461
0.09811
0.0986581
0.0989493
0.0986466
0.0974089
0.0950092
0.091467
0.0871397
0.0827199
0.079101
0.0771529
0.0774322
0.0800859
0.084898
0.0913816
0.0989529
0.107049
0.115128
0.122636
0.12902
0.133756
0.136366
0.136422
0.133543
0.127395
0.117673
0.104183
0.0866188
0.0655149
0.039521
0.0165574
0.110928
0.111752
0.112989
0.113327
0.11254
0.111555
0.110896
0.110357
0.10969
0.108934
0.108209
0.10749
0.106631
0.105523
0.104356
0.103502
0.102988
0.102389
0.10142
0.10032
0.0995052
0.0990653
0.098875
0.0987841
0.0986981
0.0985959
0.098476
0.0983116
0.0980922
0.0978737
0.0976888
0.0975402
0.0974217
0.0973624
0.0975173
0.0976021
0.0976218
0.097653
0.0977034
0.0977669
0.0978434
0.0979324
0.0980321
0.0981429
0.0982738
0.0984493
0.0987086
0.099087
0.0995744
0.100105
0.100555
0.100736
0.100416
0.0993847
0.0975314
0.0949245
0.0918539
0.0888134
0.0864098
0.0852266
0.0856664
0.0878515
0.0916343
0.0966679
0.102513
0.108725
0.114869
0.120502
0.125181
0.128467
0.129945
0.129226
0.125948
0.119779
0.110406
0.0976163
0.0810951
0.06132
0.0369804
0.0155182
0.116805
0.116751
0.115836
0.114627
0.113804
0.113286
0.11281
0.11234
0.111897
0.11146
0.111008
0.110511
0.109912
0.109171
0.108365
0.107673
0.107132
0.106504
0.105636
0.104683
0.103883
0.103314
0.102915
0.102602
0.102325
0.102062
0.101801
0.101528
0.101249
0.100998
0.100796
0.100646
0.100555
0.100551
0.100651
0.100721
0.100761
0.100822
0.100916
0.101034
0.101171
0.101326
0.101497
0.101687
0.1019
0.10215
0.102456
0.10283
0.103251
0.103659
0.103953
0.103996
0.103637
0.102749
0.101284
0.0993156
0.0970655
0.0948855
0.0931982
0.0924063
0.092793
0.0944544
0.0972996
0.101095
0.105524
0.110244
0.114899
0.119122
0.122535
0.124755
0.125409
0.124133
0.120579
0.114419
0.105331
0.0930832
0.0773383
0.0585147
0.0353127
0.0148417
0.12221
0.12122
0.118256
0.115713
0.114957
0.114869
0.114535
0.114126
0.113861
0.113644
0.113374
0.113049
0.11266
0.112182
0.111645
0.111154
0.11074
0.110268
0.109633
0.108914
0.108263
0.107757
0.107373
0.107058
0.106775
0.106502
0.106233
0.105963
0.1057
0.105461
0.105263
0.105114
0.105025
0.105
0.105005
0.105057
0.10512
0.105197
0.105297
0.105417
0.105554
0.105705
0.105869
0.106047
0.106241
0.106457
0.106702
0.106976
0.107256
0.107492
0.10761
0.107512
0.107099
0.106294
0.105076
0.103512
0.101767
0.100096
0.0987995
0.0981676
0.0984108
0.0996148
0.10173
0.104595
0.107972
0.111583
0.115129
0.118295
0.120751
0.122159
0.12218
0.120479
0.116721
0.110584
0.101738
0.0899273
0.0747817
0.0566562
0.0342486
0.0143855
0.12744
0.125253
0.120058
0.116414
0.11595
0.116277
0.116049
0.115725
0.11564
0.115609
0.115486
0.115295
0.115053
0.114742
0.11438
0.114042
0.113751
0.113417
0.112965
0.11244
0.111954
0.111572
0.111282
0.111045
0.110827
0.110613
0.110398
0.110183
0.109973
0.10978
0.109618
0.109497
0.109424
0.109397
0.109358
0.109394
0.109454
0.109516
0.109589
0.109678
0.109778
0.109888
0.110006
0.110131
0.110264
0.110407
0.110562
0.110722
0.110868
0.110959
0.11094
0.110739
0.110289
0.109539
0.108482
0.107174
0.105742
0.104378
0.103307
0.102747
0.102862
0.103725
0.105306
0.107485
0.110072
0.112836
0.115524
0.117861
0.119562
0.120325
0.119845
0.117813
0.113909
0.107815
0.0991915
0.0877569
0.0730959
0.055498
0.0336313
0.0141163
0.132678
0.128829
0.121136
0.116745
0.116837
0.117529
0.117357
0.117143
0.117246
0.117383
0.117394
0.117322
0.117201
0.117016
0.116781
0.116551
0.116346
0.116104
0.115771
0.115382
0.11502
0.114736
0.114524
0.114352
0.114194
0.114037
0.113879
0.11372
0.113563
0.113418
0.113295
0.113202
0.11314
0.1131
0.113071
0.113091
0.113132
0.113175
0.113225
0.113285
0.113353
0.113427
0.113503
0.113581
0.113662
0.113744
0.113825
0.1139
0.113949
0.11394
0.113831
0.113567
0.113101
0.112398
0.111458
0.11033
0.109114
0.107958
0.107036
0.106519
0.106533
0.107138
0.108313
0.109962
0.11193
0.114024
0.116024
0.117693
0.118781
0.119023
0.118143
0.115855
0.111856
0.105829
0.0974217
0.086325
0.07207
0.0548824
0.033349
0.0140338
0.138045
0.131876
0.121461
0.116803
0.117669
0.118632
0.118482
0.118406
0.118693
0.118974
0.119103
0.119145
0.119134
0.11906
0.118933
0.118793
0.118659
0.118488
0.118243
0.11795
0.117674
0.117457
0.117297
0.117169
0.117052
0.116937
0.11682
0.116701
0.116583
0.116473
0.116379
0.116306
0.116257
0.116222
0.116205
0.116216
0.116245
0.116279
0.116315
0.116357
0.116403
0.116451
0.116498
0.116542
0.116582
0.116618
0.116646
0.116658
0.116639
0.116562
0.116392
0.11609
0.11562
0.114958
0.11411
0.113115
0.112055
0.111048
0.110232
0.109738
0.109667
0.110067
0.110919
0.112143
0.113611
0.115156
0.116592
0.117712
0.118297
0.118114
0.116917
0.114438
0.110388
0.104449
0.0962552
0.085469
0.0715622
0.0547035
0.0333275
0.0141524
0.143617
0.134289
0.12107
0.116707
0.11847
0.119586
0.119453
0.119541
0.119996
0.120398
0.120631
0.120775
0.120865
0.12089
0.120857
0.120801
0.120735
0.12063
0.120458
0.120243
0.120036
0.119873
0.119753
0.11966
0.119575
0.119491
0.119404
0.119315
0.119226
0.119142
0.119069
0.119012
0.11897
0.118951
0.11894
0.118947
0.118968
0.118994
0.11902
0.119049
0.119078
0.119105
0.119129
0.119146
0.119156
0.119155
0.119141
0.119105
0.119034
0.118906
0.118693
0.118366
0.117896
0.117269
0.116491
0.115597
0.114655
0.113758
0.113015
0.112532
0.112386
0.112614
0.113198
0.114072
0.115124
0.116215
0.117182
0.117849
0.118025
0.117505
0.116064
0.113452
0.109388
0.103553
0.0955661
0.0850639
0.071458
0.0548726
0.0335099
0.0144762
0.149436
0.135951
0.120057
0.116574
0.119236
0.120394
0.1203
0.120568
0.121171
0.121671
0.121997
0.122233
0.122411
0.122522
0.122573
0.122592
0.12259
0.122546
0.122441
0.122294
0.122147
0.122032
0.12195
0.121888
0.121832
0.121774
0.121713
0.121649
0.121585
0.121523
0.121468
0.121424
0.121394
0.121381
0.121373
0.121378
0.121393
0.121413
0.121431
0.121448
0.121463
0.121474
0.121478
0.121472
0.121456
0.121425
0.121376
0.121301
0.121187
0.121019
0.120772
0.120424
0.119955
0.119355
0.11863
0.117812
0.116956
0.116138
0.115444
0.114956
0.114738
0.114814
0.11517
0.115747
0.116452
0.117166
0.11775
0.118052
0.117906
0.117127
0.115509
0.112815
0.108766
0.103041
0.0952471
0.0849988
0.0716521
0.0553044
0.0338473
0.0149868
0.15551
0.136754
0.11857
0.116496
0.119949
0.121068
0.12105
0.121504
0.122229
0.122812
0.123221
0.123539
0.123795
0.12398
0.124104
0.124189
0.124246
0.124258
0.124211
0.124123
0.124029
0.123957
0.12391
0.123878
0.123848
0.123816
0.123778
0.123737
0.123694
0.123651
0.123612
0.12358
0.12356
0.12355
0.123546
0.12355
0.123561
0.123575
0.123586
0.123593
0.123597
0.123593
0.12358
0.123554
0.123514
0.123457
0.123376
0.123267
0.123117
0.122912
0.122636
0.122268
0.121795
0.12121
0.120521
0.119755
0.118956
0.118187
0.117516
0.11701
0.116716
0.116655
0.116812
0.11714
0.11756
0.11797
0.118253
0.118274
0.117887
0.116923
0.115187
0.11245
0.108435
0.102819
0.0951966
0.0851698
0.0720437
0.0559138
0.0342953
0.01564
0.161818
0.136622
0.116785
0.116521
0.120587
0.121628
0.121729
0.122356
0.123181
0.123836
0.124319
0.124711
0.125034
0.125285
0.125472
0.125616
0.125726
0.125787
0.125792
0.125756
0.125709
0.125675
0.125659
0.125653
0.125648
0.125639
0.125623
0.125601
0.125578
0.125552
0.125526
0.125505
0.125492
0.125487
0.125486
0.125489
0.125497
0.125505
0.125508
0.125506
0.125498
0.12548
0.125449
0.125404
0.12534
0.125255
0.125144
0.124999
0.124813
0.124572
0.124262
0.12387
0.123385
0.122802
0.12213
0.121391
0.120622
0.119875
0.119204
0.118664
0.118294
0.118111
0.118103
0.11823
0.118426
0.118605
0.118664
0.118483
0.117928
0.11684
0.115033
0.112282
0.108313
0.102797
0.0953226
0.0854846
0.0725441
0.0566208
0.0348159
0.0163815
0.168307
0.135543
0.114882
0.116658
0.121129
0.122098
0.122351
0.123132
0.124036
0.124755
0.125306
0.125762
0.126145
0.126453
0.126697
0.126893
0.127049
0.127155
0.127205
0.127213
0.127207
0.127207
0.127218
0.127236
0.127252
0.127262
0.127264
0.12726
0.127253
0.12724
0.127225
0.127213
0.127205
0.127202
0.1272
0.1272
0.127202
0.1272
0.127193
0.127178
0.127154
0.127117
0.127064
0.126994
0.126902
0.126785
0.126639
0.126456
0.12623
0.12595
0.125604
0.125182
0.124675
0.124082
0.12341
0.122679
0.121919
0.121173
0.120488
0.119909
0.119469
0.119185
0.119047
0.119023
0.119057
0.119072
0.118976
0.11866
0.117996
0.116834
0.114991
0.112246
0.108324
0.102898
0.0955487
0.0858699
0.0730849
0.0573598
0.0353755
0.0171608
0.174896
0.13354
0.11302
0.11689
0.121569
0.1225
0.122924
0.123834
0.124801
0.125576
0.126187
0.126699
0.127133
0.127491
0.127782
0.128023
0.128219
0.128363
0.128451
0.128497
0.128524
0.128551
0.128585
0.128621
0.128653
0.128678
0.128692
0.128699
0.128705
0.128698
0.128687
0.128678
0.128669
0.128661
0.128653
0.128643
0.128631
0.128615
0.12859
0.128555
0.128508
0.128447
0.128367
0.128267
0.128143
0.127991
0.127808
0.127587
0.127321
0.127002
0.126621
0.126168
0.125638
0.125029
0.124349
0.123614
0.122851
0.122097
0.121392
0.120777
0.120282
0.119922
0.119691
0.119563
0.119486
0.119393
0.119198
0.118798
0.118071
0.11687
0.115015
0.112288
0.108413
0.103064
0.0958194
0.0862744
0.0736193
0.0580823
0.0359453
0.0179378
0.18149
0.130711
0.111312
0.117175
0.121909
0.122851
0.123446
0.124455
0.12547
0.126291
0.12695
0.127505
0.127979
0.128375
0.128703
0.128977
0.129205
0.129377
0.129494
0.129567
0.129618
0.129664
0.129712
0.129759
0.1298
0.129832
0.129852
0.129866
0.129869
0.12986
0.129848
0.129833
0.129816
0.129797
0.129776
0.12975
0.129721
0.129684
0.129638
0.129581
0.129509
0.129421
0.129314
0.129185
0.129031
0.128848
0.128632
0.128378
0.12808
0.12773
0.127321
0.126843
0.126293
0.12567
0.12498
0.124239
0.12347
0.122706
0.121984
0.121341
0.120807
0.120395
0.120103
0.119907
0.119761
0.119602
0.119349
0.118902
0.118142
0.116925
0.115073
0.112368
0.108538
0.103256
0.0960984
0.0866657
0.0741193
0.0587572
0.0365038
0.0186854
0.187998
0.127185
0.109827
0.117463
0.122154
0.123147
0.123891
0.124966
0.12601
0.126862
0.127552
0.128135
0.128634
0.129055
0.129406
0.129702
0.129949
0.130139
0.130273
0.130363
0.130427
0.130483
0.130537
0.130588
0.130632
0.130665
0.130686
0.130696
0.13069
0.130677
0.130659
0.130635
0.130607
0.130576
0.13054
0.130499
0.130452
0.130398
0.130333
0.130256
0.130164
0.130055
0.129927
0.129776
0.129599
0.129394
0.129155
0.128879
0.128559
0.128188
0.127759
0.127266
0.126703
0.12607
0.125373
0.124626
0.123852
0.12308
0.122346
0.121685
0.121124
0.12068
0.12035
0.120113
0.119927
0.119731
0.119447
0.118977
0.118203
0.116984
0.115144
0.112464
0.108674
0.103449
0.0963646
0.0870261
0.0745716
0.0593685
0.0370369
0.0193886
0.194344
0.123121
0.108605
0.117717
0.122315
0.12337
0.124219
0.125328
0.126384
0.127251
0.127958
0.128556
0.129068
0.129501
0.129865
0.130173
0.13043
0.130628
0.130771
0.130868
0.130939
0.130999
0.131055
0.131106
0.131149
0.13118
0.131199
0.131202
0.131192
0.131175
0.13115
0.131118
0.131082
0.13104
0.130994
0.130942
0.130883
0.130817
0.130739
0.130649
0.130544
0.130422
0.13028
0.130115
0.129925
0.129706
0.129454
0.129165
0.128832
0.12845
0.12801
0.127508
0.126938
0.1263
0.1256
0.12485
0.124072
0.123295
0.122553
0.12188
0.121304
0.12084
0.120489
0.120229
0.120021
0.119807
0.119507
0.119028
0.118253
0.11704
0.115215
0.112561
0.108807
0.103631
0.0966075
0.0873486
0.0749724
0.0599104
0.0375364
0.0200427
0.200527
0.118788
0.107672
0.117909
0.122399
0.123503
0.124412
0.125533
0.126593
0.127467
0.128182
0.128786
0.129304
0.129744
0.130113
0.130427
0.130688
0.130891
0.131037
0.131138
0.131212
0.131273
0.131329
0.13138
0.131422
0.131452
0.131467
0.131469
0.131456
0.131435
0.131406
0.131369
0.131327
0.13128
0.131228
0.13117
0.131105
0.131031
0.130947
0.13085
0.130738
0.130609
0.13046
0.130288
0.130091
0.129865
0.129607
0.129311
0.128973
0.128585
0.128141
0.127635
0.127063
0.126423
0.125721
0.12497
0.12419
0.12341
0.122664
0.121984
0.121398
0.120924
0.12056
0.120289
0.12007
0.119847
0.119544
0.119064
0.118293
0.11709
0.115281
0.112651
0.108929
0.103796
0.0968244
0.0876331
0.0753247
0.060385
0.0379991
0.0206518
0.20669
0.1147
0.107038
0.118026
0.122416
0.123551
0.124491
0.125619
0.126681
0.127558
0.128277
0.128884
0.129405
0.129848
0.13022
0.130536
0.130799
0.131004
0.131152
0.131255
0.13133
0.131392
0.131448
0.131498
0.131539
0.131568
0.131582
0.131584
0.13157
0.131547
0.131516
0.131478
0.131433
0.131384
0.131329
0.131268
0.1312
0.131124
0.131037
0.130937
0.130822
0.13069
0.130538
0.130364
0.130164
0.129935
0.129675
0.129377
0.129036
0.128647
0.128202
0.127695
0.127122
0.126482
0.12578
0.125029
0.124249
0.123467
0.122718
0.122034
0.121443
0.120963
0.120593
0.120316
0.120093
0.119868
0.119565
0.119089
0.118325
0.117134
0.115341
0.112733
0.109041
0.103945
0.0970199
0.0878875
0.0756396
0.0608054
0.0384311
0.0212351
0.212787
0.111494
0.106641
0.118075
0.122396
0.123545
0.124498
0.125633
0.126699
0.127579
0.128299
0.128909
0.129431
0.129875
0.130249
0.130566
0.13083
0.131036
0.131185
0.131289
0.131364
0.131426
0.131483
0.131533
0.131573
0.131602
0.131617
0.131618
0.131604
0.131581
0.131549
0.131511
0.131466
0.131416
0.13136
0.131298
0.13123
0.131152
0.131065
0.130964
0.130848
0.130716
0.130563
0.130388
0.130188
0.129959
0.129698
0.1294
0.12906
0.128671
0.128226
0.12772
0.127148
0.126508
0.125807
0.125056
0.124276
0.123494
0.122743
0.122056
0.121462
0.120978
0.120605
0.120326
0.120102
0.119878
0.119578
0.119107
0.118352
0.117173
0.115398
0.112811
0.109147
0.104086
0.0972032
0.0881247
0.0759336
0.0611941
0.038844
0.0218256
0.217514
0.109551
0.106416
0.118102
0.122374
0.12352
0.124482
0.125623
0.126692
0.127573
0.128295
0.128905
0.129429
0.129873
0.130247
0.130565
0.13083
0.131036
0.131185
0.131289
0.131364
0.131427
0.131484
0.131534
0.131575
0.131604
0.131619
0.131621
0.131607
0.131583
0.131551
0.131513
0.131468
0.131418
0.131362
0.131301
0.131232
0.131155
0.131068
0.130967
0.130852
0.130719
0.130567
0.130392
0.130192
0.129964
0.129703
0.129406
0.129066
0.128678
0.128234
0.127729
0.127158
0.12652
0.12582
0.125069
0.124289
0.123507
0.122755
0.122066
0.12147
0.120984
0.12061
0.120329
0.120106
0.119883
0.119586
0.119121
0.118375
0.117208
0.115447
0.112881
0.109241
0.104211
0.0973655
0.0883342
0.0761919
0.0615372
0.0392033
0.0223879
)
;

boundaryField
{
    inlet
    {
        type            zeroGradient;
    }
    outlet
    {
        type            fixedValue;
        value           uniform 0;
    }
    fixedWalls
    {
        type            zeroGradient;
    }
    frontAndBack
    {
        type            empty;
    }
}


// ************************************************************************* //
