/*--------------------------------*- C++ -*----------------------------------*\
| =========                 |                                                 |
| \\      /  F ield         | OpenFOAM: The Open Source CFD Toolbox           |
|  \\    /   O peration     | Version:  v1912                                 |
|   \\  /    A nd           | Website:  www.openfoam.com                      |
|    \\/     M anipulation  |                                                 |
\*---------------------------------------------------------------------------*/
FoamFile
{
    version     2.0;
    format      ascii;
    class       volVectorField;
    location    "675";
    object      U;
}
// * * * * * * * * * * * * * * * * * * * * * * * * * * * * * * * * * * * * * //

dimensions      [0 1 -1 0 0 0 0];


internalField   nonuniform List<vector> 
2000
(
(0.84616 0.187394 0)
(0.515133 0.124089 0)
(0.223448 0.0684415 0)
(0.0598068 0.0174443 6.19505e-20)
(-0.00455617 -0.0232232 1.20716e-17)
(-0.0642032 -0.0384874 1.04265e-17)
(-0.0776007 -0.0372472 0)
(-0.0715947 -0.0166587 0)
(-0.0590605 0.0117128 0)
(-0.0421586 0.025468 2.36764e-17)
(-0.041585 0.0109794 -1.45056e-17)
(-0.0273676 -0.000619084 -1.36235e-17)
(-0.0163194 -0.00266503 0)
(-0.0200762 -0.00264031 0)
(-0.0219134 -0.00227162 -1.08227e-17)
(-0.0168838 0.000849892 0)
(-0.0105888 0.00349541 9.74242e-18)
(-0.00963708 0.00623717 3.0939e-21)
(-0.0106447 0.00612835 9.41795e-18)
(-0.0114109 0.00488924 -4.64838e-18)
(-0.011272 0.00278283 9.19006e-18)
(-0.0100788 0.000804784 0)
(-0.00792585 -0.000199782 0)
(-0.00540505 -0.000630988 -7.02354e-23)
(-0.00310828 -0.000796521 0)
(-0.00127901 -0.000815512 -4.51842e-18)
(-5.42026e-05 -0.000752344 0)
(0.000644044 -0.00067138 4.52766e-18)
(0.00104259 -0.00065659 0)
(0.00133177 -0.000662109 0)
(0.00160631 -0.000587206 0)
(0.00188204 -0.000475631 1.14983e-18)
(0.00214339 -0.000385809 0)
(0.00237981 -0.000347039 -5.83594e-19)
(0.00257831 -0.000346689 1.94772e-14)
(0.00271463 -0.000363164 1.94638e-14)
(0.0027818 -0.00039895 6.01879e-19)
(0.0027232 -0.000492868 -6.09384e-19)
(0.00253925 -0.000634128 0)
(0.00222875 -0.00079046 2.50675e-18)
(0.00177063 -0.000938476 0)
(0.00112975 -0.00106561 -2.58926e-18)
(0.000263596 -0.00115938 0)
(-0.000884389 -0.00120415 -5.35937e-18)
(-0.0023641 -0.00122135 2.72284e-18)
(-0.00421321 -0.00130036 0)
(-0.00651613 -0.00148808 0)
(-0.00942865 -0.00169489 -2.85699e-18)
(-0.0132706 -0.00161183 0)
(-0.0186538 -0.000647515 2.93449e-18)
(-0.0265561 0.00189655 0)
(-0.038262 0.00631611 5.91646e-18)
(-0.0551623 0.0120706 -5.8661e-18)
(-0.0784063 0.0177604 5.74491e-18)
(-0.108345 0.0214798 -2.74395e-18)
(-0.144069 0.021379 0)
(-0.183478 0.0162632 2.33232e-18)
(-0.223654 0.00598721 -2.07535e-18)
(-0.260856 -0.00841538 -4.08183e-18)
(-0.290247 -0.0247299 3.30413e-18)
(-0.306957 -0.0397324 -3.25775e-18)
(-0.309457 -0.0502249 3.48259e-18)
(-0.303086 -0.0562575 -3.97197e-18)
(-0.288108 -0.0591748 4.77668e-18)
(-0.26562 -0.060013 -1.21534e-20)
(-0.23646 -0.0595051 7.16495e-18)
(-0.201044 -0.0578534 0)
(-0.159545 -0.0550455 0)
(-0.112231 -0.051069 7.62807e-20)
(-0.0598532 -0.0459632 0)
(-0.00368541 -0.0396622 1.9911e-17)
(0.0560825 -0.0318293 0)
(0.119698 -0.0223203 1.9891e-17)
(0.18668 -0.0112972 -4.88177e-19)
(0.256279 0.000995119 1.71701e-17)
(0.329804 0.0142529 2.98697e-17)
(0.403766 0.028101 7.34311e-19)
(0.491348 0.0420832 -1.01488e-17)
(0.557223 0.0545524 -6.53066e-18)
(0.713667 0.065268 0)
(1.0153 0.210384 0)
(0.944633 0.194211 0)
(0.804475 0.179983 -3.52967e-18)
(0.654422 0.152313 7.28984e-18)
(0.509224 0.111169 0)
(0.360042 0.0683704 -7.29111e-18)
(0.216493 0.0293251 0)
(0.0821323 -0.0053091 0)
(-0.028288 -0.01804 0)
(-0.0562029 -0.0189159 -1.73148e-17)
(-0.0667315 -0.0249891 1.57519e-17)
(-0.0718819 -0.0159772 1.44485e-17)
(-0.0637586 0.00640509 0)
(-0.0508784 0.0207253 6.32505e-18)
(-0.0545023 0.00999722 0)
(-0.048296 -0.00293263 0)
(-0.0376284 -0.00402213 0)
(-0.0329299 -0.00109412 5.27176e-18)
(-0.0367035 0.000901542 -1.03397e-17)
(-0.038892 0.000902702 -5.09309e-18)
(-0.0395874 7.12812e-05 0)
(-0.0384964 -0.00112791 0)
(-0.0357791 -0.0023546 0)
(-0.0325347 -0.00294559 -7.4157e-18)
(-0.0293727 -0.00274613 0)
(-0.0265592 -0.00194691 4.95259e-18)
(-0.0243386 -0.000883747 2.48378e-18)
(-0.0228788 -1.95825e-06 0)
(-0.0222452 0.00037201 0)
(-0.0223042 0.000405417 0)
(-0.0228766 0.000230797 0)
(-0.0237325 4.09756e-05 -6.32918e-19)
(-0.0247006 -0.000116534 0)
(-0.0257207 -0.000210089 3.20362e-19)
(-0.0268115 -0.000201975 1.61396e-19)
(-0.0280416 -7.41417e-05 0)
(-0.0294546 0.000156862 0)
(-0.0310765 0.000460033 6.63034e-19)
(-0.0329698 0.000817165 0)
(-0.035154 0.00122594 -1.3531e-18)
(-0.037646 0.00169295 0)
(-0.0404533 0.00222978 -1.38294e-18)
(-0.043584 0.0028436 0)
(-0.0470432 0.00352558 1.41378e-18)
(-0.0508206 0.00426049 1.43106e-18)
(-0.0548864 0.00508375 0)
(-0.059211 0.00617865 0)
(-0.063789 0.00792153 -2.97157e-18)
(-0.06861 0.0108302 0)
(-0.0736392 0.015503 1.40339e-20)
(-0.0788985 0.0224724 0)
(-0.0845881 0.0318763 0)
(-0.0910685 0.0430166 0)
(-0.098665 0.0542367 0)
(-0.107121 0.0631886 6.03558e-18)
(-0.114909 0.0674171 0)
(-0.119604 0.0649514 -5.48934e-18)
(-0.119267 0.0549046 2.65509e-18)
(-0.112435 0.0382462 -2.31148e-18)
(-0.0952172 0.0177771 -4.88016e-18)
(-0.0634743 -0.00473191 5.02431e-18)
(-0.0454546 -0.0306721 -5.53949e-18)
(-0.0202448 -0.0512959 6.48247e-18)
(0.00760534 -0.0659823 0)
(0.038511 -0.0763284 -1.29284e-17)
(0.0729555 -0.0837942 -9.65112e-18)
(0.111712 -0.0890873 0)
(0.154967 -0.0921931 5.7365e-18)
(0.20235 -0.0928056 1.25596e-17)
(0.253268 -0.0907094 0)
(0.307054 -0.0858113 0)
(0.36312 -0.0780951 0)
(0.420989 -0.0677058 0)
(0.480398 -0.0549874 -1.3625e-17)
(0.541099 -0.0404842 5.939e-18)
(0.603948 -0.0248654 -1.17738e-17)
(0.667369 -0.00907015 1.01642e-17)
(0.739148 0.00586415 -3.46895e-18)
(0.796054 0.0175046 0)
(0.91171 0.0230111 0)
(0.978489 0.201538 0)
(0.978854 0.193006 -2.78649e-18)
(0.969154 0.205111 3.48214e-18)
(0.939083 0.208531 -3.06113e-18)
(0.878034 0.194606 2.88572e-18)
(0.785605 0.168719 2.84379e-18)
(0.669349 0.13808 0)
(0.541012 0.106021 0)
(0.40822 0.0750633 0)
(0.285943 0.0459344 6.86824e-18)
(0.17388 0.018021 0)
(0.0721776 -0.00640577 0)
(-0.0214757 -0.0141553 0)
(-0.0469104 -0.00385748 -7.18619e-18)
(-0.0508289 -0.0116807 0)
(-0.0586871 -0.0181527 -6.05265e-18)
(-0.0592848 -0.0112533 0)
(-0.0480985 0.0090663 5.87766e-18)
(-0.0464706 0.0164869 2.8735e-18)
(-0.0508949 0.012591 0)
(-0.0532545 0.00615204 -2.79047e-18)
(-0.0550443 -0.000290844 0)
(-0.0556636 -0.00469844 0)
(-0.0547656 -0.0065345 5.43726e-18)
(-0.0532173 -0.00661276 0)
(-0.0520403 -0.00573293 1.35849e-18)
(-0.0518409 -0.00422585 -4.07816e-18)
(-0.0526358 -0.002234 0)
(-0.0539959 -0.000218587 0)
(-0.0554721 0.00124785 -6.81711e-19)
(-0.0570759 0.00219815 0)
(-0.0587884 0.00271991 1.27722e-22)
(-0.0605315 0.00295714 0)
(-0.0622594 0.00307359 6.9092e-19)
(-0.0639776 0.00323226 8.69114e-20)
(-0.0657589 0.0034901 0)
(-0.0676629 0.00383688 1.76405e-19)
(-0.0697062 0.00423723 -3.55755e-19)
(-0.0718736 0.00468454 -3.58959e-19)
(-0.0741359 0.00518118 -7.24874e-19)
(-0.0764576 0.00573227 7.32408e-19)
(-0.0788026 0.0063447 7.3984e-19)
(-0.0811415 0.00701729 0)
(-0.083436 0.00772529 1.51691e-18)
(-0.0855779 0.00843301 -3.07642e-18)
(-0.0873065 0.00915591 0)
(-0.0882011 0.0100689 -1.59126e-18)
(-0.087783 0.0115657 3.24568e-18)
(-0.0855206 0.0141277 0)
(-0.0807594 0.0183383 -1.69845e-18)
(-0.0727951 0.0246954 1.78209e-18)
(-0.0611203 0.0334652 -1.84927e-18)
(-0.0453746 0.0437606 -1.91829e-18)
(-0.0255292 0.054037 0)
(-0.00180417 0.0620655 -3.94702e-18)
(0.0258452 0.0653067 -1.8877e-18)
(0.0573138 0.0614704 1.63708e-18)
(0.0907858 0.0497018 1.53246e-18)
(0.124709 0.0290426 2.56896e-18)
(0.156476 0.00227601 0)
(0.18655 -0.0240875 0)
(0.214174 -0.0460738 0)
(0.242307 -0.064369 -1.31166e-18)
(0.273915 -0.0801028 0)
(0.30994 -0.0938209 3.21735e-18)
(0.349824 -0.105478 0)
(0.39262 -0.11471 -1.98668e-18)
(0.437441 -0.121037 -4.46294e-18)
(0.483483 -0.124029 0)
(0.53007 -0.12344 -2.47575e-18)
(0.576719 -0.119274 2.58043e-18)
(0.62317 -0.111803 0)
(0.669373 -0.101552 0)
(0.715519 -0.0892239 0)
(0.761853 -0.0756619 -5.41368e-18)
(0.809252 -0.0617892 0)
(0.857015 -0.0487913 -1.88635e-18)
(0.910089 -0.0377735 3.37082e-18)
(0.952967 -0.0311067 0)
(1.03531 -0.0301757 3.93471e-19)
(0.970611 0.209117 0)
(0.963917 0.194765 1.52551e-18)
(0.96643 0.198514 0)
(0.977152 0.206407 1.69473e-18)
(0.982034 0.208884 -3.00464e-18)
(0.968293 0.204266 -1.34124e-18)
(0.930748 0.193726 0)
(0.870757 0.177878 0)
(0.791131 0.156581 0)
(0.695412 0.131331 1.35122e-18)
(0.589481 0.10541 1.38301e-18)
(0.48005 0.0806999 0)
(0.369265 0.0579962 0)
(0.266647 0.037606 0)
(0.17965 0.018539 0)
(0.100392 0.00267218 6.40172e-18)
(0.0300585 -0.00993287 -3.38779e-18)
(-0.0310527 -0.00937899 0)
(-0.0328107 0.00101366 -3.28327e-18)
(-0.0346917 0.00246276 1.61868e-18)
(-0.0346294 0.0013659 3.21152e-18)
(-0.0358846 -0.00129449 0)
(-0.0390924 -0.00397588 0)
(-0.0434753 -0.00523535 -3.12058e-18)
(-0.0471894 -0.00435821 0)
(-0.0494854 -0.00166367 -1.54412e-18)
(-0.0511656 0.00172579 1.54368e-18)
(-0.0536733 0.0042415 0)
(-0.0558146 0.00541954 0)
(-0.0580703 0.00597209 7.67054e-19)
(-0.0600269 0.00604563 0)
(-0.061667 0.00577894 -7.70058e-19)
(-0.0629401 0.00533645 0)
(-0.0638286 0.00489038 -1.94795e-19)
(-0.0644581 0.00467638 -9.81303e-20)
(-0.0649164 0.00478074 -2.47552e-20)
(-0.0652201 0.00515887 -2.99981e-19)
(-0.06527 0.00574116 4.04358e-19)
(-0.064986 0.00642128 4.09398e-19)
(-0.0642986 0.00713784 1.24553e-18)
(-0.0631252 0.0078695 -4.21324e-19)
(-0.0613811 0.00860273 4.28603e-19)
(-0.0590084 0.00930842 0)
(-0.0559579 0.00990904 8.92515e-19)
(-0.0521204 0.0102228 9.13644e-19)
(-0.0471874 0.0099407 0)
(-0.040684 0.00868315 1.93603e-18)
(-0.0327146 0.0063981 9.99973e-19)
(-0.0225317 0.0038305 0)
(-0.00992902 0.00159523 -3.26415e-18)
(0.00656416 0.000266095 -2.23427e-18)
(0.0279906 0.000450593 1.10851e-18)
(0.0542555 0.00198352 2.17125e-18)
(0.0859565 0.00398875 0)
(0.123109 0.00493296 9.82984e-19)
(0.16486 0.00300679 2.68719e-18)
(0.20991 -0.00336207 1.58859e-18)
(0.256166 -0.0146956 -1.392e-18)
(0.303081 -0.029864 -6.43284e-19)
(0.348946 -0.0472511 0)
(0.393261 -0.06607 0)
(0.436032 -0.0850285 0)
(0.478132 -0.103059 1.71286e-18)
(0.52036 -0.119527 6.45692e-19)
(0.562644 -0.133945 0)
(0.604314 -0.145756 -1.56474e-18)
(0.644649 -0.154385 1.74057e-18)
(0.683147 -0.159381 -1.87496e-18)
(0.719553 -0.160524 -2.02316e-18)
(0.753856 -0.157856 1.2719e-19)
(0.786275 -0.151685 -2.42249e-18)
(0.817234 -0.142545 0)
(0.847295 -0.131136 0)
(0.877135 -0.118254 0)
(0.907365 -0.104765 0)
(0.938896 -0.0915483 0)
(0.971394 -0.079656 3.68012e-18)
(1.0082 -0.0699308 -1.34669e-18)
(1.03844 -0.064293 0)
(1.0957 -0.0625749 -4.24225e-19)
(0.972988 0.216082 0)
(0.965831 0.201808 1.87132e-18)
(0.959206 0.1956 2.49298e-19)
(0.961489 0.195546 1.90772e-18)
(0.972668 0.197536 0)
(0.985519 0.199235 -1.6079e-18)
(0.992497 0.199295 0)
(0.988452 0.196253 -3.62632e-19)
(0.970218 0.189032 0)
(0.935631 0.177562 -1.60623e-18)
(0.884731 0.162749 -1.24332e-18)
(0.819619 0.145667 -3.15525e-19)
(0.743325 0.126729 3.13213e-19)
(0.658088 0.106111 0)
(0.569157 0.0852833 3.13271e-19)
(0.47934 0.0662429 0)
(0.393491 0.0502677 2.6551e-18)
(0.3141 0.0363412 -3.51421e-19)
(0.247074 0.0242761 0)
(0.1924 0.0147277 -1.9e-18)
(0.14778 0.00792663 0)
(0.110719 0.00341219 0)
(0.0798868 0.000824024 0)
(0.0539969 -0.00061761 0)
(0.0324831 -0.00158823 -2.21745e-19)
(0.0157096 -0.00203491 0)
(0.00282125 -0.00139629 0)
(-0.0026301 0.000677642 1.15633e-19)
(-0.00510827 0.00210355 0)
(-0.00515609 0.00310105 0)
(-0.00382821 0.00367154 0)
(-0.00157711 0.00393135 -5.876e-20)
(0.00100474 0.00399839 0)
(0.00445709 0.00379374 -2.67961e-19)
(0.00747791 0.00427315 0)
(0.011145 0.00511182 3.01208e-20)
(0.0155516 0.00562345 1.51381e-19)
(0.0208781 0.00558048 3.03974e-20)
(0.0273023 0.00524871 -6.10061e-20)
(0.0348956 0.00473843 -4.89368e-19)
(0.0438257 0.00403123 -4.8997e-19)
(0.0543095 0.00309928 4.8983e-19)
(0.0665439 0.00191974 -1.22185e-19)
(0.0807232 0.000456494 -9.73333e-19)
(0.0970538 -0.00135461 9.66937e-19)
(0.115516 -0.00358243 -1.19872e-19)
(0.13634 -0.006326 0)
(0.158969 -0.00965339 -9.39681e-19)
(0.183557 -0.0135146 0)
(0.2102 -0.0177444 9.19193e-19)
(0.2389 -0.0219913 0)
(0.269862 -0.0261175 8.97348e-19)
(0.303405 -0.0300871 0)
(0.339885 -0.0341084 -2.12288e-19)
(0.37953 -0.0386978 -8.06664e-19)
(0.422224 -0.0446003 -7.48506e-19)
(0.467381 -0.0525822 1.7389e-19)
(0.51394 -0.0631915 0)
(0.560491 -0.0767317 5.4427e-19)
(0.605616 -0.0926762 -1.37345e-19)
(0.648454 -0.110037 0)
(0.688603 -0.12746 1.37013e-19)
(0.725936 -0.143687 -5.33825e-19)
(0.760377 -0.157859 -5.89415e-19)
(0.791738 -0.169395 0)
(0.819791 -0.177835 1.47747e-18)
(0.844457 -0.182839 0)
(0.86591 -0.184255 1.83339e-18)
(0.884571 -0.182156 2.0119e-18)
(0.901063 -0.176831 2.17711e-18)
(0.916142 -0.168751 2.71016e-19)
(0.930637 -0.15852 0)
(0.945376 -0.146826 0)
(0.961153 -0.134395 0)
(0.978583 -0.121967 -2.6993e-19)
(0.99841 -0.110271 0)
(1.02026 -0.100109 -1.67639e-18)
(1.04663 -0.0921305 1.65082e-18)
(1.06865 -0.0875534 1.04062e-19)
(1.11232 -0.0863132 4.51244e-20)
(0.974194 0.218514 -1.2327e-18)
(0.970935 0.206364 1.1931e-18)
(0.965119 0.198172 -2.82103e-19)
(0.961139 0.194112 0)
(0.962197 0.191942 0)
(0.96826 0.190544 0)
(0.977772 0.189884 0)
(0.988502 0.189481 1.25274e-18)
(0.997432 0.188308 0)
(1.00093 0.185358 -1.12e-18)
(0.995773 0.179955 -1.39617e-18)
(0.979839 0.171905 3.20116e-19)
(0.952674 0.161434 9.67111e-19)
(0.914336 0.148646 0)
(0.865647 0.133742 -1.476e-18)
(0.80825 0.117845 0)
(0.746068 0.102471 -1.17996e-18)
(0.683644 0.0879751 2.95127e-19)
(0.622835 0.0743868 -1.23451e-18)
(0.565748 0.0621135 -9.50644e-19)
(0.513197 0.0513544 0)
(0.465537 0.042096 0)
(0.422942 0.0342194 -6.83337e-19)
(0.385366 0.0276169 0)
(0.352674 0.0221539 -5.42575e-19)
(0.324653 0.0176523 0)
(0.3009 0.0138456 0)
(0.281189 0.0104696 -9.56282e-20)
(0.265379 0.00756038 0)
(0.25313 0.00512241 0)
(0.244098 0.00308548 0)
(0.238003 0.00136696 5.0541e-20)
(0.234525 -0.000111734 2.04854e-19)
(0.233699 -0.00134192 1.29067e-19)
(0.235294 -0.00277993 0)
(0.239416 -0.00439938 0)
(0.245987 -0.00607026 -2.59672e-20)
(0.254882 -0.00781993 -1.30092e-19)
(0.266079 -0.00973103 5.16941e-20)
(0.279488 -0.0118653 0)
(0.295012 -0.0142672 0)
(0.312577 -0.016973 -2.04122e-19)
(0.332116 -0.0200159 1.00497e-19)
(0.353552 -0.0234371 -4.00926e-19)
(0.376785 -0.0272891 3.9671e-19)
(0.401668 -0.0316276 9.70556e-20)
(0.427997 -0.0364751 0)
(0.455528 -0.0417128 3.84581e-19)
(0.484085 -0.0472016 0)
(0.51352 -0.0527857 0)
(0.543726 -0.0582931 0)
(0.574696 -0.0636145 0)
(0.606512 -0.0687757 0)
(0.639268 -0.074003 1.78356e-19)
(0.672966 -0.0797342 0)
(0.707409 -0.086542 6.70776e-19)
(0.742116 -0.09498 -1.52846e-19)
(0.776327 -0.10539 0)
(0.809111 -0.117717 5.80648e-19)
(0.839543 -0.131375 1.27816e-19)
(0.866899 -0.145457 5.66952e-19)
(0.890717 -0.158967 -1.32262e-19)
(0.910793 -0.171022 0)
(0.927144 -0.180969 -6.61852e-19)
(0.939945 -0.18837 0)
(0.9495 -0.192948 0)
(0.956273 -0.194571 -8.5331e-19)
(0.960899 -0.19327 0)
(0.964153 -0.189247 0)
(0.966879 -0.182848 -1.06417e-18)
(0.969925 -0.174528 -2.95842e-19)
(0.974087 -0.164814 0)
(0.980061 -0.154272 0)
(0.988441 -0.143474 0)
(0.999611 -0.132993 3.01602e-19)
(1.01405 -0.12338 -1.03108e-18)
(1.03121 -0.115214 -2.40292e-19)
(1.05315 -0.108968 -1.88661e-19)
(1.07172 -0.105358 -1.17857e-19)
(1.11019 -0.104496 -2.4084e-19)
(0.974501 0.21901 4.35586e-18)
(0.973757 0.208036 -4.18252e-18)
(0.971714 0.200425 0)
(0.969159 0.196211 -2.53758e-18)
(0.967053 0.192937 0)
(0.966166 0.189312 -2.23752e-18)
(0.967419 0.185818 0)
(0.971669 0.183008 2.97967e-18)
(0.978977 0.18073 -3.69968e-18)
(0.988283 0.178484 1.6893e-18)
(0.99769 0.175773 1.57933e-18)
(1.00497 0.172151 0)
(1.00811 0.167265 -4.27207e-18)
(1.00544 0.160699 -2.72103e-18)
(0.995587 0.15211 3.82461e-18)
(0.977794 0.141797 0)
(0.953045 0.130626 1.1715e-18)
(0.923753 0.119347 0)
(0.891694 0.108147 1.16798e-18)
(0.858158 0.0970055 1.16769e-18)
(0.824183 0.0861319 0)
(0.790761 0.0758043 0)
(0.758772 0.0662275 -6.39488e-19)
(0.728888 0.0575069 0)
(0.701553 0.0496259 6.21062e-19)
(0.677001 0.0424994 0)
(0.655352 0.0360327 0)
(0.636638 0.0301387 0)
(0.62089 0.0247274 0)
(0.608047 0.0197147 0)
(0.598031 0.015021 0)
(0.590774 0.0105761 0)
(0.5862 0.00630914 1.7704e-19)
(0.584185 0.00215704 -8.59041e-20)
(0.584502 -0.00202338 4.3986e-20)
(0.58725 -0.00626556 0)
(0.59233 -0.0105462 0)
(0.599545 -0.0148716 8.62214e-20)
(0.608746 -0.0192885 -3.51999e-19)
(0.619797 -0.0238368 3.51553e-19)
(0.632552 -0.0285414 0)
(0.646857 -0.0334212 8.7166e-19)
(0.662553 -0.0384941 -6.99212e-19)
(0.679471 -0.0437784 -3.57783e-19)
(0.697424 -0.0492897 -3.38953e-19)
(0.716204 -0.05503 0)
(0.735581 -0.0609674 0)
(0.755321 -0.0670166 -1.03391e-18)
(0.775223 -0.0730745 0)
(0.795133 -0.0790365 0)
(0.814953 -0.08481 0)
(0.834656 -0.0903599 7.04394e-19)
(0.85427 -0.0957601 1.40708e-18)
(0.873821 -0.101217 0)
(0.893268 -0.107053 0)
(0.912432 -0.113639 -6.49559e-19)
(0.930949 -0.121291 0)
(0.948287 -0.13014 1.29402e-18)
(0.963808 -0.140052 6.86547e-19)
(0.976896 -0.150604 0)
(0.98709 -0.161178 6.99664e-19)
(0.994174 -0.171092 1.33425e-18)
(0.998209 -0.179709 1.40538e-18)
(0.999486 -0.186536 7.13533e-19)
(0.998468 -0.191252 -1.61514e-18)
(0.995725 -0.193692 1.74578e-18)
(0.991909 -0.193824 2.83172e-18)
(0.98773 -0.191742 0)
(0.983918 -0.187647 0)
(0.981173 -0.181838 1.19582e-18)
(0.98012 -0.174675 0)
(0.981292 -0.166568 2.50073e-18)
(0.985108 -0.157947 2.53373e-18)
(0.991902 -0.149255 0)
(1.00183 -0.140937 2.40401e-18)
(1.0152 -0.133423 -1.04177e-18)
(1.03135 -0.127149 0)
(1.05219 -0.12246 0)
(1.06986 -0.119799 0)
(1.10678 -0.119355 -1.93186e-19)
(0.974733 0.218938 -3.35544e-18)
(0.975458 0.208201 3.21213e-18)
(0.976056 0.201058 -6.23839e-18)
(0.975936 0.197366 2.87e-18)
(0.974875 0.19446 0)
(0.9732 0.190785 2.53056e-18)
(0.971487 0.186584 -4.8442e-18)
(0.970472 0.182339 -4.49127e-18)
(0.970994 0.17813 -7.92485e-20)
(0.973704 0.17395 0)
(0.978806 0.169868 0)
(0.985964 0.165856 3.59744e-18)
(0.994363 0.161685 3.2926e-18)
(1.00283 0.15694 -3.27837e-18)
(1.00995 0.151228 -8.90024e-18)
(1.01427 0.144451 0)
(1.01489 0.136908 0)
(1.01186 0.128902 0)
(1.00564 0.120422 0)
(0.996716 0.11145 0)
(0.985583 0.102193 0)
(0.97287 0.0929285 0)
(0.95926 0.083867 1.24043e-18)
(0.945385 0.0751235 -2.58723e-18)
(0.931767 0.0667323 0)
(0.918814 0.0586939 0)
(0.906845 0.0510005 0)
(0.8961 0.043623 0)
(0.886747 0.036502 0)
(0.878885 0.0295941 -6.6243e-19)
(0.87258 0.0228712 0)
(0.86787 0.0163033 0)
(0.864758 0.00985461 1.26062e-20)
(0.863189 0.00346097 0)
(0.863065 -0.00274653 -4.10329e-20)
(0.864336 -0.00882547 0)
(0.86691 -0.0148579 1.70733e-19)
(0.870662 -0.0208721 0)
(0.875475 -0.0268824 6.72525e-19)
(0.881241 -0.0329027 -3.30629e-19)
(0.88784 -0.0389432 -6.88906e-19)
(0.895146 -0.0450102 -6.65146e-19)
(0.903026 -0.0511079 6.6765e-19)
(0.911341 -0.0572383 6.70594e-19)
(0.919945 -0.0633984 1.40206e-18)
(0.928686 -0.0695735 1.41097e-18)
(0.937408 -0.0757289 0)
(0.94597 -0.0818042 -7.44086e-19)
(0.954265 -0.0877263 0)
(0.962231 -0.0934282 0)
(0.969858 -0.0988673 -1.48014e-18)
(0.97718 -0.104053 -7.23248e-19)
(0.98426 -0.109074 4.77901e-20)
(0.991146 -0.114103 0)
(0.997824 -0.119384 0)
(1.00417 -0.125174 0)
(1.00994 -0.131681 1.4934e-18)
(1.01478 -0.13898 -1.39972e-18)
(1.01828 -0.146966 -1.38918e-18)
(1.02009 -0.15534 0)
(1.01999 -0.163655 -1.42769e-18)
(1.01797 -0.171405 9.50181e-20)
(1.01424 -0.178119 -1.57531e-18)
(1.00917 -0.183431 1.75651e-18)
(1.00324 -0.187108 -4.75459e-20)
(0.997001 -0.189036 -1.97816e-18)
(0.990992 -0.1892 -2.14214e-18)
(0.985752 -0.187666 0)
(0.981783 -0.184577 0)
(0.979523 -0.180141 0)
(0.979342 -0.174624 0)
(0.981536 -0.168337 -2.8379e-18)
(0.986331 -0.161624 -2.8735e-18)
(0.993918 -0.154851 0)
(1.00437 -0.148398 -2.72419e-18)
(1.01794 -0.142628 4.91064e-18)
(1.03401 -0.137898 0)
(1.05445 -0.134448 0)
(1.07173 -0.132595 0)
(1.10762 -0.132365 9.13977e-19)
(0.975035 0.218502 8.34219e-18)
(0.977127 0.207476 0)
(0.979623 0.200808 1.42787e-17)
(0.980942 0.19772 0)
(0.980747 0.195178 6.2152e-18)
(0.979837 0.19182 0)
(0.978655 0.187904 5.47422e-18)
(0.977181 0.183661 0)
(0.975604 0.178993 -5.03777e-18)
(0.974439 0.173897 0)
(0.97427 0.168549 8.88299e-18)
(0.975577 0.163112 -4.11208e-18)
(0.978659 0.157621 0)
(0.983536 0.151978 7.30932e-18)
(0.989865 0.146033 -1.87027e-19)
(0.996991 0.139703 -6.68348e-18)
(1.00405 0.133126 6.47759e-18)
(1.01036 0.12639 0)
(1.01554 0.119354 0)
(1.01936 0.111922 6.0878e-18)
(1.02166 0.104162 0)
(1.02251 0.0962143 -2.96164e-18)
(1.02211 0.0881957 0)
(1.02073 0.0801819 2.80517e-18)
(1.01864 0.0722172 0)
(1.01612 0.0643299 2.89713e-18)
(1.01338 0.0565363 0)
(1.01062 0.0488357 0)
(1.00799 0.0412175 1.44761e-18)
(1.00561 0.0336815 6.95784e-19)
(1.00357 0.0262345 0)
(1.00194 0.0188787 0)
(1.00073 0.0116148 -1.08751e-18)
(0.999989 0.00444363 0)
(0.999662 -0.0025426 0)
(0.99972 -0.00939777 0)
(1.00015 -0.016182 -1.78016e-19)
(1.0009 -0.0229049 0)
(1.00194 -0.029559 -1.10548e-18)
(1.0032 -0.0361423 -7.50561e-19)
(1.00462 -0.0426553 7.24708e-19)
(1.00616 -0.0490966 0)
(1.00775 -0.0554633 0)
(1.00932 -0.0617509 1.54369e-18)
(1.01081 -0.0679516 -1.49813e-18)
(1.01217 -0.0740504 -1.51455e-18)
(1.01333 -0.0800211 0)
(1.01425 -0.085825 -5.8207e-20)
(1.01493 -0.0914187 1.63415e-18)
(1.01539 -0.0967699 0)
(1.01568 -0.101872 1.62675e-18)
(1.01589 -0.106762 1.70214e-18)
(1.01612 -0.111529 -1.66869e-18)
(1.01642 -0.11632 0)
(1.0168 -0.121323 0)
(1.01719 -0.126728 0)
(1.01741 -0.132678 -1.68098e-18)
(1.01725 -0.139219 0)
(1.01643 -0.146265 0)
(1.01474 -0.153592 0)
(1.01208 -0.160869 3.66047e-18)
(1.00848 -0.167721 -1.80304e-18)
(1.00413 -0.173793 0)
(0.999332 -0.178794 -2.00341e-18)
(0.994438 -0.18252 -2.22573e-18)
(0.989832 -0.184849 4.61854e-18)
(0.985884 -0.185731 -4.89381e-18)
(0.982934 -0.185182 -5.17537e-18)
(0.981285 -0.183282 0)
(0.981201 -0.180178 -5.69854e-18)
(0.982901 -0.176077 0)
(0.986578 -0.171242 0)
(0.992396 -0.16598 0)
(1.00053 -0.160631 5.99174e-18)
(1.01108 -0.155547 -5.73846e-18)
(1.02434 -0.151063 -8.00187e-18)
(1.03982 -0.14748 0)
(1.05938 -0.144964 3.60911e-18)
(1.07591 -0.143723 0)
(1.11024 -0.143567 -1.50469e-18)
(0.975434 0.21769 -9.4626e-18)
(0.979143 0.20609 -9.21102e-18)
(0.983423 0.200245 -1.64452e-17)
(0.98558 0.197996 0)
(0.985486 0.195678 -1.41318e-17)
(0.984786 0.192413 -6.73225e-18)
(0.9842 0.188726 0)
(0.983452 0.184719 1.19986e-17)
(0.982353 0.180193 1.12007e-17)
(0.981033 0.175095 0)
(0.979702 0.169516 -1.00461e-17)
(0.978603 0.163553 0)
(0.97805 0.157269 0)
(0.978376 0.150691 8.71082e-18)
(0.979803 0.14382 8.07357e-18)
(0.982396 0.13669 -1.82316e-19)
(0.986006 0.129512 1.84343e-19)
(0.990362 0.12244 0)
(0.995173 0.115376 0)
(1.0001 0.108199 -6.97574e-18)
(1.00479 0.100887 -7.06655e-18)
(1.00904 0.0934778 1.03569e-17)
(1.01274 0.086017 3.45198e-18)
(1.01588 0.0785349 3.42375e-18)
(1.01847 0.0710491 0)
(1.02058 0.0635694 -3.27263e-18)
(1.02225 0.0561007 0)
(1.02353 0.0486437 0)
(1.02448 0.0411986 -3.30644e-18)
(1.02514 0.0337722 0)
(1.02555 0.0263769 0)
(1.02574 0.0190264 0)
(1.02574 0.0117363 8.2034e-19)
(1.02557 0.00453951 -4.27727e-19)
(1.02529 -0.00254776 2.1372e-19)
(1.0249 -0.00952578 0)
(1.02443 -0.0164078 0)
(1.02388 -0.0231955 0)
(1.02326 -0.0298832 8.3407e-19)
(1.02255 -0.0364674 8.3899e-19)
(1.02176 -0.0429474 -1.75051e-18)
(1.02087 -0.0493214 0)
(1.01988 -0.0555869 0)
(1.01879 -0.0617405 -3.53186e-18)
(1.0176 -0.0677768 -1.81478e-18)
(1.01629 -0.0736861 0)
(1.01487 -0.0794523 0)
(1.01337 -0.0850536 1.82498e-18)
(1.0118 -0.0904679 5.64984e-20)
(1.01024 -0.095684 0)
(1.00875 -0.100712 0)
(1.00741 -0.105594 -1.93611e-18)
(1.00631 -0.110411 0)
(1.00549 -0.115282 0)
(1.00496 -0.12035 0)
(1.00466 -0.125756 0)
(1.00446 -0.131604 0)
(1.00418 -0.137926 -4.16455e-18)
(1.00363 -0.144652 0)
(1.00266 -0.151613 0)
(1.00119 -0.158554 1.67131e-19)
(0.999216 -0.165178 0)
(0.996867 -0.171187 0)
(0.994333 -0.17632 0)
(0.991848 -0.180375 9.98491e-18)
(0.989659 -0.183209 -5.23222e-18)
(0.988001 -0.184744 5.5363e-18)
(0.987089 -0.184961 1.44883e-20)
(0.987121 -0.183907 0)
(0.988278 -0.181699 6.42858e-18)
(0.990732 -0.17852 -6.54772e-18)
(0.994666 -0.174617 0)
(1.00027 -0.17029 0)
(1.00776 -0.165876 -1.45953e-19)
(1.01733 -0.161721 6.48779e-18)
(1.02937 -0.158148 5.97929e-18)
(1.04349 -0.155412 0)
(1.0616 -0.153634 -4.09673e-18)
(1.077 -0.15284 0)
(1.10949 -0.152767 1.13411e-18)
(0.975986 0.216474 0)
(0.981692 0.204215 2.12185e-17)
(0.987769 0.199647 1.88253e-17)
(0.990441 0.198411 0)
(0.990122 0.196236 8.0311e-18)
(0.989271 0.192974 -7.77165e-18)
(0.988772 0.189389 0)
(0.98828 0.185462 -1.35673e-17)
(0.987611 0.180998 0)
(0.986852 0.175995 0)
(0.986039 0.170512 0)
(0.985145 0.164577 0)
(0.984206 0.1582 0)
(0.983343 0.151385 1.82805e-19)
(0.982701 0.144141 -9.53038e-18)
(0.982426 0.13652 -1.82176e-19)
(0.982659 0.128776 1.83588e-19)
(0.9835 0.121146 0)
(0.984945 0.113609 0)
(0.986874 0.106091 0)
(0.989103 0.0985719 -2.02554e-19)
(0.991462 0.0910728 2.06475e-19)
(0.993841 0.0836197 -3.95299e-18)
(0.996164 0.0762226 -3.92184e-18)
(0.998379 0.0688787 0)
(1.00044 0.061579 -3.98633e-18)
(1.00231 0.0543141 3.97381e-18)
(1.00396 0.0470758 0)
(1.00538 0.0398584 1.92557e-18)
(1.00655 0.0326625 1.98369e-18)
(1.00745 0.0254959 0)
(1.00808 0.0183724 0)
(1.00846 0.0113057 1.00235e-18)
(1.0086 0.00433301 -1.4863e-20)
(1.00856 -0.00257817 -4.94834e-19)
(1.00835 -0.00939835 0)
(1.008 -0.0161196 0)
(1.00753 -0.0227476 -1.01141e-18)
(1.00695 -0.0292838 0)
(1.00628 -0.0357265 -1.02153e-18)
(1.00552 -0.0420743 -5.89539e-20)
(1.00468 -0.0483261 0)
(1.00379 -0.0544799 2.08897e-18)
(1.00286 -0.0605333 4.15799e-18)
(1.00188 -0.066482 2.07126e-18)
(1.00089 -0.0723189 0)
(0.999897 -0.0780331 -4.35508e-18)
(0.998922 -0.0836109 0)
(0.998001 -0.08904 -2.17722e-18)
(0.997182 -0.0943174 0)
(0.996522 -0.0994577 0)
(0.996081 -0.1045 0)
(0.995912 -0.109514 0)
(0.996043 -0.114595 0)
(0.996466 -0.119858 -4.77763e-18)
(0.997124 -0.125411 4.81034e-18)
(0.997912 -0.131334 0)
(0.99869 -0.137649 4.7259e-18)
(0.999305 -0.1443 -4.91768e-18)
(0.999625 -0.151146 0)
(0.999567 -0.157976 -4.91333e-18)
(0.999116 -0.164535 0)
(0.998328 -0.170556 0)
(0.99731 -0.175795 0)
(0.996202 -0.180046 -5.68312e-18)
(0.995152 -0.183157 6.02431e-18)
(0.994308 -0.185029 -6.29322e-18)
(0.993816 -0.185627 1.31441e-17)
(0.993827 -0.184984 -6.84229e-18)
(0.99451 -0.183206 0)
(0.996059 -0.180476 7.39382e-18)
(0.998708 -0.177049 -7.44667e-18)
(1.00272 -0.173235 0)
(1.00842 -0.169383 -1.17092e-19)
(1.01609 -0.165843 -7.10896e-18)
(1.02623 -0.162937 0)
(1.03855 -0.160868 0)
(1.05505 -0.159761 -4.57213e-18)
(1.06925 -0.159325 0)
(1.10036 -0.159521 -1.28645e-18)
(0.976761 0.214804 0)
(0.984936 0.20201 -1.22246e-17)
(0.992771 0.199204 -1.07056e-17)
(0.995649 0.198991 0)
(0.994983 0.196871 1.84299e-17)
(0.993957 0.193635 1.74036e-17)
(0.993389 0.19014 0)
(0.992828 0.186205 1.5668e-17)
(0.992161 0.181685 -1.48785e-17)
(0.99156 0.176662 0)
(0.991075 0.171202 0)
(0.990636 0.165313 0)
(0.990183 0.158987 0)
(0.989695 0.152209 -1.13243e-17)
(0.989165 0.144966 -1.11285e-17)
(0.988597 0.137281 1.02292e-17)
(0.988068 0.129389 -3.02802e-17)
(0.9877 0.12154 0)
(0.987572 0.113753 0)
(0.98769 0.10599 9.70354e-18)
(0.988003 0.0982515 1.89781e-17)
(0.988459 0.0905689 -9.29222e-18)
(0.989024 0.0829714 0)
(0.989681 0.07547 0)
(0.990406 0.0680607 -4.65977e-18)
(0.991173 0.0607332 9.18012e-18)
(0.991951 0.0534757 -9.1574e-18)
(0.992712 0.0462773 0)
(0.993427 0.0391288 0)
(0.994071 0.0320261 -2.26065e-18)
(0.994622 0.0249725 0)
(0.995067 0.0179751 2.33092e-18)
(0.995398 0.0110471 -1.14223e-18)
(0.995635 0.00418646 -1.44984e-20)
(0.995786 -0.0026168 -7.27069e-21)
(0.995855 -0.00933809 0)
(0.995856 -0.0159694 0)
(0.995805 -0.0225176 -2.9006e-20)
(0.99571 -0.0289855 1.1836e-18)
(0.995579 -0.0353715 3.54031e-18)
(0.99542 -0.0416738 4.7303e-18)
(0.995244 -0.0478912 2.41086e-18)
(0.99506 -0.0540223 -2.37196e-18)
(0.994877 -0.0600647 -2.39301e-18)
(0.994704 -0.0660148 2.47354e-18)
(0.994552 -0.0718665 0)
(0.994431 -0.0776115 4.93757e-18)
(0.99436 -0.0832401 -5.10853e-18)
(0.994361 -0.0887449 0)
(0.99447 -0.0941265 0)
(0.994724 -0.0994006 0)
(0.995163 -0.104603 0)
(0.995819 -0.109794 0)
(0.996705 -0.115052 0)
(0.997804 -0.120473 5.39492e-18)
(0.999062 -0.126142 -1.09865e-17)
(1.00039 -0.132124 -5.59749e-18)
(1.00165 -0.138432 5.64175e-18)
(1.00273 -0.145013 5.54504e-18)
(1.00349 -0.151743 -5.77056e-18)
(1.00383 -0.158433 5.87021e-18)
(1.00369 -0.164851 0)
(1.00309 -0.17075 6.16688e-18)
(1.00204 -0.175889 -6.36708e-18)
(1.0006 -0.180063 0)
(0.998867 -0.183111 -1.3654e-17)
(0.996937 -0.184929 7.10453e-18)
(0.994946 -0.185481 -1.48586e-17)
(0.993069 -0.184806 7.74704e-18)
(0.991533 -0.183027 0)
(0.990626 -0.180349 8.23076e-18)
(0.990691 -0.177051 8.48526e-18)
(0.992112 -0.173464 -8.46019e-18)
(0.995324 -0.169954 -8.46246e-18)
(1.0007 -0.166871 8.15211e-18)
(1.00883 -0.16454 0)
(1.01948 -0.163102 0)
(1.03479 -0.162733 5.26255e-18)
(1.04819 -0.162667 0)
(1.07921 -0.163497 1.48436e-18)
(0.977833 0.212617 1.62095e-17)
(0.988995 0.19965 0)
(0.998472 0.199058 -2.41007e-17)
(1.00125 0.199733 2.18346e-17)
(1.00018 0.19759 -2.08218e-17)
(0.99903 0.194434 1.99707e-17)
(0.998399 0.191033 0)
(0.997724 0.187058 1.60213e-19)
(0.996946 0.182455 1.67978e-17)
(0.996278 0.177367 0)
(0.995792 0.171857 0)
(0.995442 0.165931 0)
(0.995188 0.159586 2.77142e-17)
(0.995003 0.152813 0)
(0.994848 0.145595 2.46968e-17)
(0.994671 0.13794 0)
(0.994464 0.130056 4.61924e-17)
(0.994268 0.122182 0)
(0.994123 0.114345 0)
(0.994032 0.10652 -2.20869e-17)
(0.993975 0.0987121 -1.08173e-17)
(0.993934 0.0909547 0)
(0.993915 0.0832778 0)
(0.993933 0.075696 0)
(0.993999 0.0682101 5.26155e-18)
(0.994117 0.0608143 -5.24444e-18)
(0.994281 0.0535001 -1.07968e-19)
(0.994483 0.0462587 0)
(0.994713 0.0390813 5.34029e-18)
(0.994957 0.0319635 0)
(0.995202 0.0249066 0)
(0.99544 0.0179142 -2.63469e-18)
(0.995664 0.0109932 1.35022e-18)
(0.99587 0.00413643 -1.44123e-20)