/*--------------------------------*- C++ -*----------------------------------*\
| =========                 |                                                 |
| \\      /  F ield         | OpenFOAM: The Open Source CFD Toolbox           |
|  \\    /   O peration     | Version:  v1912                                 |
|   \\  /    A nd           | Website:  www.openfoam.com                      |
|    \\/     M anipulation  |                                                 |
\*---------------------------------------------------------------------------*/
FoamFile
{
    version     2.0;
    format      ascii;
    class       volScalarField;
    location    "800";
    object      nut;
}
// * * * * * * * * * * * * * * * * * * * * * * * * * * * * * * * * * * * * * //

dimensions      [0 2 -1 0 0 0 0];


internalField   nonuniform List<scalar> 
2000
(
0.00175001
0.00175725
0.00169168
0.00151019
0.00101934
0.000502653
0.000494584
0.00055234
0.000588347
0.000566588
0.000503415
0.000462906
0.000506298
0.000553989
0.000606962
0.000673088
0.000751573
0.00083783
0.000930465
0.00102988
0.00113666
0.00125124
0.00137373
0.00150382
0.00164064
0.00178284
0.00192861
0.0020759
0.00222261
0.00236675
0.00250656
0.00264058
0.00276767
0.002887
0.00299811
0.00310087
0.00319553
0.00328277
0.0033638
0.00344054
0.00351172
0.00357458
0.00362957
0.00367724
0.00371789
0.00375163
0.00377846
0.00379835
0.00381126
0.00381715
0.00381603
0.00380793
0.00379291
0.00377108
0.00374214
0.0037064
0.0036642
0.00361599
0.00356248
0.00350536
0.00344919
0.00339172
0.00333118
0.00326688
0.00319883
0.00312727
0.00305253
0.00297497
0.00289499
0.00281295
0.00272926
0.0026443
0.00255846
0.00247214
0.00238581
0.00229999
0.00221545
0.00213325
0.00205486
0.00199123
3.44185e-05
5.60398e-05
9.95538e-05
0.000148338
0.000162346
0.000155675
0.000159351
0.000201725
0.0012651
0.00137563
0.000959066
0.000813812
0.00106414
0.00134483
0.00157151
0.00184777
0.00218627
0.00255819
0.00294023
0.00332719
0.00372039
0.00412287
0.00453912
0.00497565
0.00544111
0.00594543
0.0064983
0.00710765
0.00777851
0.00851126
0.0093009
0.0101373
0.0110055
0.0118873
0.0127622
0.0136094
0.0144093
0.0151437
0.0157946
0.0163118
0.0167005
0.0170273
0.0173136
0.0175683
0.0177959
0.0179983
0.0181768
0.0183316
0.018463
0.018571
0.0186552
0.0187153
0.0187504
0.0187564
0.0187407
0.0187011
0.0186377
0.0185506
0.0184398
0.0183048
0.018144
0.0179583
0.0177496
0.0175199
0.0172705
0.0170032
0.0167195
0.0164209
0.0161093
0.0157863
0.0154536
0.0151131
0.0147665
0.0144153
0.0140611
0.0137036
0.0133443
0.01297
0.0126258
0.0123617
2.12863e-05
1.81627e-05
2.51324e-05
4.00241e-05
5.55751e-05
6.78953e-05
7.91644e-05
9.43291e-05
0.000192988
0.00028114
0.000405348
0.000852325
0.00186958
0.00218573
0.00193612
0.00189314
0.00220418
0.00267364
0.0031947
0.0037482
0.0043401
0.0049727
0.00564333
0.00634959
0.00709195
0.00787364
0.00869922
0.00957272
0.0104957
0.0114654
0.0124739
0.0135075
0.0145476
0.0155713
0.0165533
0.017469
0.0182956
0.0190163
0.0196308
0.0201507
0.0205943
0.0209789
0.021316
0.0216131
0.0218747
0.0221034
0.0223009
0.0224682
0.0226059
0.0227146
0.0227946
0.0228462
0.0228699
0.0228658
0.0228348
0.0227777
0.0226954
0.0225888
0.0224588
0.0223064
0.0221323
0.0219381
0.0217253
0.0214954
0.0212501
0.020991
0.0207196
0.0204378
0.0201472
0.0198495
0.0195465
0.0192397
0.0189303
0.0186193
0.0183066
0.0179904
0.0176671
0.0173241
0.0169882
0.016609
1.97876e-05
1.26288e-05
1.14642e-05
1.46598e-05
2.1021e-05
2.89074e-05
3.74784e-05
4.72647e-05
7.19947e-05
0.000109447
0.000167594
0.00029614
0.000574881
0.000932872
0.00141118
0.00200091
0.00252642
0.00291971
0.00326029
0.0036474
0.00413311
0.00472182
0.00539459
0.00613119
0.00691948
0.00775412
0.00863233
0.00955113
0.0105063
0.0114918
0.0124995
0.013518
0.0145316
0.0155192
0.0164526
0.0173064
0.0180516
0.0187186
0.0193163
0.0198496
0.0203238
0.0207436
0.0211138
0.0214384
0.0217208
0.0219634
0.022168
0.0223359
0.0224683
0.0225664
0.0226312
0.0226638
0.0226654
0.0226372
0.0225808
0.0224976
0.0223893
0.0222579
0.0221051
0.0219329
0.0217434
0.0215385
0.0213207
0.021092
0.0208545
0.0206102
0.020361
0.020109
0.0198557
0.019603
0.0193523
0.019105
0.0188618
0.0186231
0.0183881
0.0181538
0.0179156
0.0176601
0.0174056
0.0170689
1.95963e-05
1.17281e-05
8.64734e-06
8.13727e-06
9.64869e-06
1.28841e-05
1.74845e-05
2.32447e-05
3.27733e-05
4.78961e-05
7.21296e-05
0.000118716
0.000216062
0.00038116
0.000647172
0.00105228
0.00157266
0.00216181
0.00277489
0.00337529
0.00395229
0.00451953
0.00509796
0.00570457
0.00635006
0.0070397
0.00777427
0.00855115
0.00936556
0.0102114
0.0110814
0.0119662
0.0128509
0.0137133
0.0145096
0.0152421
0.0159285
0.0165663
0.0171543
0.0176918
0.0181787
0.0186153
0.0190024
0.0193414
0.0196337
0.0198811
0.020085
0.0202469
0.0203684
0.020451
0.0204964
0.0205064
0.0204831
0.0204285
0.020345
0.020235
0.0201011
0.019946
0.0197725
0.0195834
0.0193815
0.0191696
0.0189505
0.0187268
0.0185011
0.0182758
0.0180529
0.0178346
0.0176225
0.0174184
0.0172236
0.0170392
0.0168661
0.0167043
0.0165533
0.0164104
0.0162718
0.0161256
0.015988
0.0157705
1.95712e-05
1.15909e-05
8.09474e-06
6.55342e-06
6.23755e-06
6.97393e-06
8.74104e-06
1.15249e-05
1.58336e-05
2.2448e-05
3.27458e-05
5.06495e-05
8.52933e-05
0.000148092
0.000256979
0.000439736
0.000713464
0.00108937
0.00157055
0.00214429
0.00278349
0.00345513
0.0041313
0.00479695
0.00545003
0.00609624
0.00674316
0.0073969
0.00806122
0.00873785
0.00942666
0.0101242
0.010813
0.0114726
0.0121108
0.0127258
0.0133134
0.01387
0.0143918
0.0148758
0.0153194
0.0157203
0.0160771
0.0163891
0.0166561
0.0168785
0.017057
0.0171927
0.0172871
0.0173419
0.0173591
0.0173409
0.01729
0.017209
0.0171009
0.0169688
0.0168161
0.016646
0.016462
0.0162673
0.0160652
0.0158589
0.0156514
0.0154456
0.015244
0.0150491
0.0148629
0.0146874
0.0145241
0.0143745
0.0142398
0.0141209
0.0140187
0.0139333
0.0138647
0.0138114
0.0137712
0.0137348
0.013719
0.0136446
1.95678e-05
1.1573e-05
7.9982e-06
6.2009e-06
5.31923e-06
5.07761e-06
5.42584e-06
6.40342e-06
8.17932e-06
1.10581e-05
1.55649e-05
2.29296e-05
3.60106e-05
5.93615e-05
0.000100093
0.000169474
0.000277003
0.000433706
0.000652664
0.000946371
0.001324
0.00178817
0.00233245
0.0029413
0.0035928
0.00426342
0.00493304
0.00558835
0.00622345
0.0068382
0.00743537
0.00801723
0.00857565
0.00911187
0.0096266
0.0101191
0.0105879
0.0110313
0.0114474
0.011834
0.0121889
0.0125099
0.0127947
0.013042
0.0132504
0.0134196
0.0135496
0.0136411
0.0136952
0.0137136
0.0136984
0.013652
0.0135771
0.0134768
0.0133544
0.0132132
0.0130568
0.0128885
0.012712
0.0125306
0.0123476
0.0121659
0.0119885
0.011818
0.0116568
0.0115067
0.0113698
0.0112475
0.0111412
0.0110519
0.0109808
0.0109285
0.0108958
0.0108833
0.0108913
0.0109195
0.0109679
0.0110298
0.0111236
0.0111871
1.95674e-05
1.15717e-05
7.98493e-06
6.13078e-06
5.09351e-06
4.53169e-06
4.32883e-06
4.47142e-06
5.01838e-06
6.09896e-06
7.93616e-06
1.09657e-05
1.61201e-05
2.50563e-05
4.04508e-05
6.64204e-05
0.000106192
0.000163549
0.000243546
0.000352285
0.000496779
0.000684556
0.000922967
0.00121821
0.00157403
0.00199031
0.00246209
0.00297942
0.00352848
0.00409353
0.00465918
0.00521261
0.00575556
0.0062625
0.00672619
0.00715042
0.0075399
0.00789841
0.00822808
0.00852953
0.00880222
0.00904502
0.0092567
0.00943624
0.00958302
0.00969692
0.00977833
0.00982814
0.00984767
0.00983867
0.00980325
0.00974384
0.00966312
0.00956402
0.00944958
0.00932295
0.0091873
0.00904576
0.00890138
0.00875706
0.00861553
0.00847932
0.00835074
0.00823187
0.00812456
0.00803045
0.00795097
0.00788734
0.00784064
0.00781183
0.00780175
0.0078112
0.00784097
0.00789187
0.00796482
0.0080605
0.0081807
0.00832169
0.00850279
0.00868248
1.95673e-05
1.15722e-05
7.9845e-06
6.11934e-06
5.04317e-06
4.38684e-06
3.99773e-06
3.82085e-06
3.85591e-06
4.14427e-06
4.77282e-06
5.90471e-06
7.86076e-06
1.12298e-05
1.70105e-05
2.67703e-05
4.16928e-05
6.29559e-05
9.19528e-05
0.000130274
0.000179791
0.000242687
0.000321469
0.000418939
0.000538116
0.000682058
0.000853582
0.00105489
0.00128713
0.00155004
0.00184162
0.00215814
0.00249587
0.00287045
0.00325729
0.00363992
0.00400573
0.00434547
0.00465343
0.00492692
0.00516549
0.0053701
0.00554238
0.0056842
0.00579739
0.00588367
0.00594464
0.00598188
0.00599704
0.00599187
0.00596825
0.00592826
0.00587411
0.00580812
0.0057327
0.00565026
0.00556321
0.00547387
0.00538448
0.00529716
0.00521389
0.0051365
0.0050667
0.00500605
0.00495599
0.00491783
0.00489278
0.00488198
0.00488648
0.00490728
0.00494538
0.00500177
0.00507752
0.00517383
0.00529215
0.00543407
0.00560273
0.00579717
0.00603641
0.00630031
1.95673e-05
1.15724e-05
7.98512e-06
6.11835e-06
5.03342e-06
4.35142e-06
3.90462e-06
3.61755e-06
3.46179e-06
3.43823e-06
3.5721e-06
3.91887e-06
4.5861e-06
5.77224e-06
7.82593e-06
1.13222e-05
1.67374e-05
2.45309e-05
3.51632e-05
4.90549e-05
6.66073e-05
8.82179e-05
0.000114286
0.000145215
0.000181401
0.000223214
0.000270956
0.00032481
0.000384776
0.000450621
0.000521825
0.000597575
0.000676929
0.000760156
0.0008619
0.000982253
0.00111961
0.00127077
0.0014313
0.00159604
0.00175974
0.00191746
0.00206499
0.00219906
0.00231739
0.00241867
0.00250243
0.0025689
0.00261887
0.00265351
0.00267426
0.00268274
0.00268065
0.00266974
0.00265171
0.00262828
0.00260105
0.00257162
0.00254148
0.00251206
0.00248474
0.00246081
0.00244154
0.00242814
0.00242178
0.00242364
0.00243486
0.00245664
0.00249018
0.00253674
0.00259764
0.00267431
0.00276832
0.00288143
0.00301575
0.00317373
0.00335946
0.00357469
0.00383665
0.0041447
1.95673e-05
1.15722e-05
7.98506e-06
6.11833e-06
5.03178e-06
4.34344e-06
3.8801e-06
3.55781e-06
3.3359e-06
3.19786e-06
3.14343e-06
3.18697e-06
3.36153e-06
3.7295e-06
4.40176e-06
5.56699e-06
7.39546e-06
1.00665e-05
1.37596e-05
1.8621e-05
2.47584e-05
3.22425e-05
4.11094e-05
5.13587e-05
6.29486e-05
7.5786e-05
8.97123e-05
0.000104485
0.000119762
0.000135079
0.00014984
0.000163311
0.000174624
0.000182841
0.000190411
0.000199498
0.000210762
0.000224865
0.000242389
0.000263734
0.00028905
0.000318188
0.000350699
0.000385875
0.00042281
0.000460485
0.000497854
0.000533926
0.00056783
0.00059886
0.00062651
0.000650481
0.000670674
0.000687177
0.000700239
0.000710245
0.000717682
0.000723118
0.000727175
0.00073051
0.000733805
0.000737755
0.000743073
0.000750489
0.000760769
0.000774725
0.000793242
0.000817311
0.000848055
0.000886777
0.000935003
0.000994531
0.00106749
0.00115642
0.00126439
0.00139506
0.00155366
0.00174488
0.00198355
0.00228445
1.95673e-05
1.15716e-05
7.98416e-06
6.11759e-06
5.03096e-06
4.34132e-06
3.87371e-06
3.54104e-06
3.29772e-06
3.12007e-06
2.99744e-06
2.92853e-06
2.92064e-06
2.99158e-06
3.17431e-06
3.52538e-06
4.09653e-06
4.94455e-06
6.13166e-06
7.71165e-06
9.72177e-06
1.21781e-05
1.50747e-05
1.83841e-05
2.20576e-05
2.60243e-05
3.01885e-05
3.44275e-05
3.85897e-05
4.24952e-05
4.59411e-05
4.87107e-05
5.05905e-05
5.13959e-05
5.17117e-05
5.18142e-05
5.17208e-05
5.14591e-05
5.10665e-05
5.05906e-05
5.0088e-05
4.9622e-05
4.92601e-05
4.90688e-05
4.9109e-05
4.94301e-05
5.00656e-05
5.10295e-05
5.23148e-05
5.38951e-05
5.57274e-05
5.77579e-05
5.99274e-05
6.21776e-05
6.44568e-05
6.67231e-05
6.89483e-05
7.11189e-05
7.32381e-05
7.53273e-05
7.7429e-05
7.96102e-05
8.19674e-05
8.46317e-05
8.77721e-05
9.15998e-05
9.63716e-05
0.000102399
0.000110066
0.000119857
0.00013241
0.000148589
0.000169601
0.000197158
0.000233753
0.000283006
0.000350505
0.000444131
0.000578655
0.000780325
1.95672e-05
1.15705e-05
7.98252e-06
6.11598e-06
5.0295e-06
4.33979e-06
3.87132e-06
3.53596e-06
3.28632e-06
3.09589e-06
2.94991e-06
2.84099e-06
2.76718e-06
2.73141e-06
2.74217e-06
2.81528e-06
2.96616e-06
3.20915e-06
3.56056e-06
4.03561e-06
4.64571e-06
5.39583e-06
6.28264e-06
7.29371e-06
8.40742e-06
9.59342e-06
1.08132e-05
1.20208e-05
1.31641e-05
1.4187e-05
1.50327e-05
1.56483e-05
1.59905e-05
1.60312e-05
1.59612e-05
1.58216e-05
1.56146e-05
1.53438e-05
1.50136e-05
1.46296e-05
1.41981e-05
1.37261e-05
1.32208e-05
1.26898e-05
1.2141e-05
1.15817e-05
1.10193e-05
1.04606e-05
9.91195e-06
9.37883e-06
8.86602e-06
8.3777e-06
7.91828e-06
7.49471e-06
7.12072e-06
6.82243e-06
6.64167e-06
6.63281e-06
6.85405e-06
7.35934e-06
8.1961e-06
9.40685e-06
1.10312e-05
1.31062e-05
1.56658e-05
1.87395e-05
2.23519e-05
2.65231e-05
3.12699e-05
3.66098e-05
4.25649e-05
4.91693e-05
5.64799e-05
6.45918e-05
7.36654e-05
8.39682e-05
9.60053e-05
0.000110571
0.000130191
0.000159464
1.95672e-05
1.1569e-05
7.98024e-06
6.11363e-06
5.0273e-06
4.33775e-06
3.8693e-06
3.53347e-06
3.28226e-06
3.08815e-06
2.93478e-06
2.81247e-06
2.7158e-06
2.64254e-06
2.59321e-06
2.57114e-06
2.58178e-06
2.62768e-06
2.71145e-06
2.83573e-06
3.00234e-06
3.21155e-06
3.4615e-06
3.74773e-06
4.06297e-06
4.39721e-06
4.73787e-06
5.07035e-06
5.37865e-06
5.64647e-06
5.85842e-06
6.00143e-06
6.06622e-06
6.04525e-06
6.00496e-06
5.94596e-06
5.86913e-06
5.77563e-06
5.66687e-06
5.54446e-06
5.41017e-06
5.26591e-06
5.11363e-06
4.95538e-06
4.79321e-06
4.62922e-06
4.46555e-06
4.30455e-06
4.14931e-06
4.00533e-06
3.88396e-06
3.80788e-06
3.81558e-06
3.96036e-06
4.30402e-06
4.91125e-06
5.84896e-06
7.18802e-06
9.00381e-06
1.13748e-05
1.43793e-05
1.80923e-05
2.25819e-05
2.79067e-05
3.41142e-05
4.12406e-05
4.93114e-05
5.83429e-05
6.83453e-05
7.93243e-05
9.12835e-05
0.000104225
0.000118148
0.000133043
0.000148875
0.000165557
0.000182907
0.000200385
0.000217582
0.000231018
1.95672e-05
1.15671e-05
7.97745e-06
6.11077e-06
5.02454e-06
4.33516e-06
3.86691e-06
3.53119e-06
3.2798e-06
3.08486e-06
2.92948e-06
2.80308e-06
2.69902e-06
2.61321e-06
2.54348e-06
2.48915e-06
2.45297e-06
2.43434e-06
2.43233e-06
2.44636e-06
2.47585e-06
2.51995e-06
2.57734e-06
2.6461e-06
2.72363e-06
2.80667e-06
2.89135e-06
2.97333e-06
3.04802e-06
3.11088e-06
3.1578e-06
3.18545e-06
3.19161e-06
3.17697e-06
3.15754e-06
3.13343e-06
3.10486e-06
3.07214e-06
3.03566e-06
2.99589e-06
2.95343e-06
2.90899e-06
2.86353e-06
2.81833e-06
2.77525e-06
2.73755e-06
2.71209e-06
2.71382e-06
2.7721e-06
2.93437e-06
3.26372e-06
3.83385e-06
4.72776e-06
6.03969e-06
7.87657e-06
1.0357e-05
1.36081e-05
1.77606e-05
2.29437e-05
2.92799e-05
3.688e-05
4.58395e-05
5.62356e-05
6.81259e-05
8.15461e-05
9.65093e-05
0.000113003
0.000130986
0.000150386
0.000171095
0.000192965
0.000215807
0.00023939
0.000263442
0.000287647
0.000311636
0.000334977
0.000356902
0.000376959
0.00039109
1.95672e-05
1.15648e-05
7.97428e-06
6.10758e-06
5.02147e-06
4.33226e-06
3.86421e-06
3.5287e-06
3.27746e-06
3.0825e-06
2.92675e-06
2.79933e-06
2.69314e-06
2.60347e-06
2.52719e-06
2.46236e-06
2.41089e-06
2.37136e-06
2.34193e-06
2.32127e-06
2.30834e-06
2.30218e-06
2.30187e-06
2.30639e-06
2.31466e-06
2.32546e-06
2.33748e-06
2.34936e-06
2.35972e-06
2.36725e-06
2.37079e-06
2.36944e-06
2.36261e-06
2.35134e-06
2.33922e-06
2.32626e-06
2.31253e-06
2.29823e-06
2.28375e-06
2.26984e-06
2.2578e-06
2.2499e-06
2.25053e-06
2.26931e-06
2.32743e-06
2.46535e-06
2.7454e-06
3.24792e-06
4.06811e-06
5.31812e-06
7.13017e-06
9.65723e-06
1.30705e-05
1.75543e-05
2.32995e-05
3.04954e-05
3.93222e-05
4.99427e-05
6.24952e-05
7.7086e-05
9.37818e-05
0.000112601
0.000133507
0.000156393
0.000181081
0.000207316
0.000234767
0.000263042
0.000291705
0.000320302
0.000348387
0.000375554
0.000401452
0.000425801
0.000448392
0.000469053
0.000487706
0.000503865
0.000517964
0.000526225
1.95672e-05
1.15621e-05
7.97084e-06
6.10422e-06
5.01827e-06
4.32924e-06
3.86138e-06
3.52606e-06
3.27499e-06
3.08018e-06
2.92448e-06
2.79693e-06
2.69027e-06
2.59958e-06
2.52141e-06
2.4534e-06
2.39721e-06
2.35116e-06
2.31321e-06
2.28185e-06
2.25595e-06
2.23462e-06
2.21711e-06
2.20275e-06
2.19093e-06
2.18107e-06
2.17261e-06
2.16502e-06
2.1578e-06
2.1505e-06
2.14274e-06
2.13421e-06
2.12471e-06
2.11478e-06
2.10522e-06
2.09645e-06
2.08947e-06
2.08635e-06
2.09088e-06
2.1106e-06
2.16222e-06
2.28188e-06
2.53399e-06
3.00964e-06
3.82084e-06
5.1012e-06
7.01063e-06
9.73746e-06
1.3496e-05
1.85206e-05
2.50566e-05
3.33498e-05
4.3634e-05
5.61189e-05
7.09762e-05
8.83267e-05
0.000108226
0.000130649
0.00015548
0.000182498
0.00021138
0.000241703
0.000272967
0.000304627
0.000336129
0.000366948
0.000396627
0.000424794
0.000451174
0.000475584
0.000497922
0.000518149
0.000536267
0.000552305
0.000566316
0.000578309
0.000588457
0.000596304
0.000603072
0.000604221
1.95672e-05
1.1559e-05
7.9672e-06
6.10076e-06
5.01504e-06
4.32622e-06
3.85855e-06
3.52337e-06
3.27244e-06
3.07773e-06
2.92212e-06
2.79462e-06
2.68794e-06
2.59705e-06
2.51845e-06
2.44961e-06
2.3921e-06
2.3442e-06
2.30376e-06
2.26927e-06
2.23959e-06
2.21385e-06
2.19137e-06
2.17161e-06
2.15409e-06
2.13844e-06
2.1243e-06
2.1114e-06
2.09947e-06
2.08829e-06
2.07767e-06
2.0675e-06
2.05788e-06
2.0516e-06
2.05369e-06
2.07349e-06
2.12925e-06
2.26127e-06
2.54917e-06
3.11296e-06
4.10136e-06
5.68989e-06
8.08621e-06
1.15308e-05
1.6291e-05
2.26504e-05
3.08944e-05
4.12939e-05
5.40875e-05
6.94631e-05
8.75402e-05
0.000108353
0.000131835
0.000157808
0.000185981
0.000215951
0.000247227
0.000279255
0.000311466
0.00034331
0.000374305
0.000404053
0.000432264
0.000458738
0.000483362
0.000506077
0.000526862
0.000545713
0.000562634
0.000577632
0.000590715
0.000601897
0.0006112
0.000618653
0.000624317
0.000628194
0.000630564
0.000630955
0.000631224
0.000626608
1.95673e-05
1.15555e-05
7.96336e-06
6.09719e-06
5.01175e-06
4.32318e-06
3.8557e-06
3.52065e-06
3.26979e-06
3.07514e-06
2.91957e-06
2.79211e-06
2.68545e-06
2.59456e-06
2.51591e-06
2.44692e-06
2.38916e-06
2.34085e-06
2.29986e-06
2.26466e-06
2.23414e-06
2.20748e-06
2.18407e-06
2.16349e-06
2.14547e-06
2.1299e-06
2.11685e-06
2.10672e-06
2.10033e-06
2.09932e-06
2.10664e-06
2.12789e-06
2.21847e-06
2.46366e-06
3.00528e-06
4.05025e-06
5.83698e-06
8.63159e-06
1.27285e-05
1.84392e-05
2.60739e-05
3.5919e-05
4.82152e-05
6.31362e-05
8.07705e-05
0.000101107
0.000124024
0.000149289
0.000176563
0.000205412
0.000235337
0.000265804
0.000296282
0.000326288
0.000355416
0.000383358
0.00040991
0.000434962
0.000458474
0.000480453
0.000500924
0.00051991
0.000537424
0.000553461
0.000568003
0.000581025
0.000592496
0.000602391
0.000610687
0.000617368
0.000622425
0.000625857
0.000627671
0.000627878
0.000626534
0.000623622
0.000619482
0.000613686
0.000608389
0.000599594
1.95673e-05
1.15516e-05
7.95922e-06
6.0933e-06
5.00813e-06
4.31984e-06
3.85256e-06
3.51766e-06
3.2669e-06
3.07234e-06
2.91687e-06
2.78958e-06
2.68327e-06
2.59306e-06
2.51573e-06
2.44932e-06
2.39618e-06
2.35586e-06
2.32845e-06
2.31611e-06
2.32369e-06
2.35979e-06
2.43813e-06
2.57959e-06
2.81511e-06
3.18979e-06
3.76774e-06
4.63685e-06
5.91321e-06
7.74583e-06
1.03224e-05
1.39737e-05
1.93225e-05
2.66898e-05
3.63713e-05
4.85759e-05
6.34136e-05
8.08855e-05
0.000100878
0.000123165
0.000147418
0.000173226
0.000200117
0.000227592
0.000255157
0.000282356
0.0003088
0.000334191
0.000358331
0.000381118
0.000402535
0.000422626
0.000441474
0.000459173
0.000475806
0.00049144
0.000506113
0.00051984
0.000532617
0.000544425
0.000555238
0.000565021
0.000573738
0.000581348
0.000587808
0.000593074
0.000597102
0.000599849
0.000601275
0.000601345
0.000600031
0.000597311
0.000593175
0.000587614
0.000580676
0.00057234
0.000562952
0.000552259
0.000542172
0.000530458
1.95672e-05
1.15471e-05
7.95446e-06
6.08855e-06
5.00364e-06
4.31589e-06
3.84956e-06
3.5164e-06
3.26914e-06
3.08183e-06
2.94141e-06
2.8449e-06
2.80054e-06
2.83226e-06
2.98724e-06
3.34633e-06
3.9929e-06
5.02799e-06
6.5825e-06
8.80687e-06
1.1864e-05
1.59242e-05
2.116e-05
2.77423e-05
3.58341e-05
4.55864e-05
5.7132e-05
7.05812e-05
8.60161e-05
0.000103485
0.000122995
0.000144386
0.000167186
0.000190925
0.000215111
0.000239256
0.000262916
0.000285719
0.000307393
0.000327764
0.000346757
0.000364385
0.000380722
0.000395887
0.000410012
0.000423229
0.000435651
0.000447362
0.000458423
0.000468868
0.000478717
0.000487978
0.000496655
0.00050475
0.000512267
0.000519203
0.000525553
0.000531303
0.000536431
0.000540904
0.000544681
0.000547714
0.000549949
0.000551329
0.000551796
0.000551294
0.000549765
0.000547158
0.000543423
0.000538517
0.000532402
0.000525048
0.000516439
0.000506563
0.000495466
0.000483151
0.000469913
0.000455825
0.0004419
0.0004283
1.95682e-05
1.1545e-05
7.95561e-06
6.09645e-06
5.02709e-06
4.37502e-06
3.99078e-06
3.84345e-06
3.99504e-06
4.59216e-06
5.84565e-06
8.02115e-06
1.14493e-05
1.65066e-05
2.3578e-05
3.30274e-05
4.45559e-05
5.79253e-05
7.29752e-05
8.95077e-05
0.000107296
0.000126093
0.000145638
0.00016567
0.000185934
0.000206193
0.000226238
0.000245897
0.000265036
0.000283568
0.000301443
0.000318567
0.000334347
0.000348835
0.000362109
0.000374278
0.00038546
0.000395759
0.000405258
0.000414018
0.000422076
0.000429462
0.0004362
0.000442318
0.000447851
0.000452841
0.000457333
0.000461375
0.000465013
0.000468283
0.000471215
0.000473828
0.000476127
0.000478111
0.000479766
0.00048107
0.000481995
0.000482506
0.000482563
0.000482119
0.000481127
0.000479533
0.000477283
0.000474322
0.000470596
0.000466051
0.000460638
0.000454309
0.000447022
0.000438741
0.000429436
0.00041909
0.000407701
0.000395278
0.000381878
0.000367562
0.000352524
0.000337231
0.000321296
0.000307107
1.96485e-05
1.17615e-05
8.44196e-06
7.12944e-06
7.16694e-06
8.6227e-06
1.1856e-05
1.72895e-05
2.53389e-05
3.6241e-05
4.99135e-05
6.59935e-05
8.39623e-05
0.000103262
0.000123367
0.000143818
0.00016338
0.000181692
0.000198776
0.000214722
0.000229648
0.000243688
0.000256972
0.000269617
0.000281723
0.000293362
0.000304583
0.000315412
0.000325853
0.000335898
0.000345529
0.000354722
0.000363039
0.00037024
0.000376352
0.000381479
0.000385753
0.000389302
0.00039224
0.000394664
0.000396653
0.000398274
0.000399575
0.000400593
0.000401354
0.000401876
0.00040217
0.000402243
0.000402096
0.000401727
0.000401128
0.00040029
0.000399196
0.000397829
0.000396164
0.000394176
0.000391837
0.000389116
0.000385981
0.000382398
0.000378335
0.000373756
0.00036863
0.000362923
0.000356605
0.00034965
0.000342031
0.000333729
0.00032473
0.000315025
0.000304618
0.000293524
0.000281774
0.000269417
0.00025653
0.000243234
0.000229615
0.000216326
0.000201742
0.000189587
2.37559e-05
2.08063e-05
2.35269e-05
2.94373e-05
3.82262e-05
5.01269e-05
6.5124e-05
8.23612e-05
0.000100313
0.000117453
0.000132844
0.000146289
0.000158126
0.000168921
0.000179214
0.000189398
0.000199157
0.000208459
0.000217327
0.000225726
0.000233616
0.000240973
0.000247795
0.000254098
0.000259911
0.000265269
0.000270208
0.000274759
0.000278951
0.000282804
0.000286339
0.000289554
0.000292286
0.000294549
0.00029652
0.000298289
0.000299885
0.000301305
0.000302535
0.000303561
0.00030437
0.000304956
0.000305306
0.000305405
0.000305239
0.000304793
0.000304051
0.000302996
0.000301614
0.00029989
0.000297811
0.000295366
0.000292547
0.000289347
0.000285762
0.000281789
0.000277429
0.000272685
0.00026756
0.00026206
0.000256192
0.000249966
0.000243391
0.000236478
0.000229242
0.000221696
0.000213859
0.000205755
0.00019741
0.000188855
0.000180127
0.00017127
0.000162336
0.000153376
0.00014447
0.00013565
0.000127052
0.000118566
0.000109887
0.000103611
8.2132e-05
7.88758e-05
7.64846e-05
7.51037e-05
7.45523e-05
7.47666e-05
7.5701e-05
7.73157e-05
7.95202e-05
8.21563e-05
8.50407e-05
8.80199e-05
9.09982e-05
9.39331e-05
9.68158e-05
9.96489e-05
0.000102384
0.00010494
0.000107306
0.000109491
0.000111498
0.00011333
0.000114991
0.000116485
0.000117816
0.000118988
0.000120006
0.000120872
0.000121591
0.000122162
0.000122587
0.000122867
0.000122991
0.000122944
0.000122729
0.000122352
0.000121822
0.000121146
0.00012033
0.00011938
0.0001183
0.000117096
0.000115774
0.000114339
0.000112798
0.000111158
0.000109425
0.000107607
0.000105712
0.000103748
0.000101724
9.96498e-05
9.75346e-05
9.53888e-05
9.32229e-05
9.10476e-05
8.88739e-05
8.67126e-05
8.45746e-05
8.24703e-05
8.04098e-05
7.84025e-05
7.64572e-05
7.45818e-05
7.27831e-05
7.10672e-05
6.94389e-05
6.79019e-05
6.64591e-05
6.51122e-05
6.38618e-05
6.2708e-05
6.1649e-05
6.06859e-05
5.98093e-05
5.90451e-05
5.83172e-05
5.7869e-05
5.70444e-05
5.74012e-05
)
;

boundaryField
{
    inlet
    {
        type            fixedValue;
        value           uniform 0;
    }
    outlet
    {
        type            zeroGradient;
    }
    fixedWalls
    {
        type            nutkWallFunction;
        Cmu             0.09;
        kappa           0.41;
        E               9.8;
        value           nonuniform List<scalar> 
160
(
9.29711e-06
8.85655e-06
8.53151e-06
8.3432e-06
8.26788e-06
8.29716e-06
8.42471e-06
8.64464e-06
8.94392e-06
9.3004e-06
9.68874e-06
1.00881e-05
1.04855e-05
1.08756e-05
1.12572e-05
1.16308e-05
1.19901e-05
1.23249e-05
1.2634e-05
1.29185e-05
1.31792e-05
1.34167e-05
1.36317e-05
1.38246e-05
1.39963e-05
1.41473e-05
1.42782e-05
1.43896e-05
1.44819e-05
1.45552e-05
1.46097e-05
1.46457e-05
1.46615e-05
1.46556e-05
1.4628e-05
1.45796e-05
1.45116e-05
1.44248e-05
1.432e-05
1.41977e-05
1.40587e-05
1.39036e-05
1.37329e-05
1.35474e-05
1.33479e-05
1.31351e-05
1.29099e-05
1.26732e-05
1.24258e-05
1.21689e-05
1.19036e-05
1.16309e-05
1.13521e-05
1.10684e-05
1.07813e-05
1.04921e-05
1.02022e-05
9.91306e-06
9.6261e-06
9.34275e-06
9.06439e-06
8.79232e-06
8.52778e-06
8.27191e-06
8.02571e-06
7.7901e-06
7.56581e-06
7.35347e-06
7.15355e-06
6.9664e-06
6.7922e-06
6.63105e-06
6.48279e-06
6.34766e-06
6.22441e-06
6.11677e-06
6.01406e-06
5.95075e-06
5.83406e-06
5.88457e-06
0.000184713
0.000185409
0.000179095
0.000161492
0.000112755
5.86842e-05
5.78038e-05
6.40736e-05
6.79469e-05
6.56094e-05
5.87672e-05
5.4332e-05
5.90814e-05
6.42516e-05
6.99395e-05
7.69675e-05
8.5217e-05
9.41821e-05
0.000103706
0.000113822
0.00012458
0.000136013
0.000148123
0.00016087
0.000174163
0.000187867
0.000201808
0.000215794
0.000229634
0.000243148
0.000256184
0.000268618
0.000280356
0.000291333
0.000301515
0.000310903
0.000319526
0.000327453
0.000334798
0.00034174
0.000348167
0.000353832
0.000358782
0.000363067
0.000366717
0.000369744
0.000372149
0.000373931
0.000375088
0.000375615
0.000375515
0.000374789
0.000373444
0.000371487
0.000368893
0.000365685
0.000361895
0.00035756
0.000352743
0.000347593
0.000342521
0.000337326
0.000331843
0.00032601
0.000319826
0.00031331
0.00030649
0.000299398
0.000292065
0.000284526
0.000276814
0.000268962
0.000261006
0.000252982
0.00024493
0.000236899
0.000228961
0.000221215
0.000213803
0.000207767
)
;
    }
    frontAndBack
    {
        type            empty;
    }
}


// ************************************************************************* //
