/*--------------------------------*- C++ -*----------------------------------*\
| =========                 |                                                 |
| \\      /  F ield         | OpenFOAM: The Open Source CFD Toolbox           |
|  \\    /   O peration     | Version:  v1912                                 |
|   \\  /    A nd           | Website:  www.openfoam.com                      |
|    \\/     M anipulation  |                                                 |
\*---------------------------------------------------------------------------*/
FoamFile
{
    version     2.0;
    format      ascii;
    class       volScalarField;
    location    "480";
    object      epsilon;
}
// * * * * * * * * * * * * * * * * * * * * * * * * * * * * * * * * * * * * * //

dimensions      [0 2 -3 0 0 0 0];


internalField   nonuniform List<scalar> 
2000
(
0.0317382
0.000956802
0.000591616
0.000345505
0.000364254
0.000365317
0.000401536
0.000434426
0.000481624
0.000535195
0.000583729
0.000638276
0.000695885
0.000760263
0.000830561
0.000907874
0.000991934
0.0010832
0.00118167
0.00128747
0.00140067
0.00152124
0.00164928
0.00178476
0.00192766
0.00207787
0.0022353
0.00239984
0.00257134
0.00274966
0.00293462
0.00312597
0.00332339
0.00352652
0.00373481
0.00394757
0.00416386
0.00438265
0.00460379
0.00483189
0.00506532
0.00530457
0.00554996
0.00580139
0.00605873
0.00632163
0.00658975
0.00686257
0.00713963
0.00742027
0.00770387
0.0079897
0.00827709
0.00856525
0.00885345
0.00914112
0.00942776
0.00971107
0.00999039
0.0102702
0.0105526
0.0108527
0.0112948
0.0118282
0.0123982
0.0130065
0.0136614
0.014369
0.0151401
0.0159905
0.0169368
0.0180057
0.0192092
0.0206359
0.0222367
0.0243337
0.0264342
0.0302135
0.0331612
0.0434426
0.112729
0.0138491
0.0021432
0.000864924
0.00033718
0.00033311
0.000288138
0.000298727
0.000319467
0.000344836
0.00037021
0.000399336
0.000432149
0.000469106
0.000510129
0.000555301
0.000604514
0.000657792
0.000715088
0.00077635
0.000841535
0.000910578
0.000983422
0.00105999
0.0011402
0.00122397
0.00131114
0.00140158
0.00149514
0.00159167
0.00169098
0.00179287
0.0018971
0.00200337
0.00211138
0.00222075
0.00233117
0.00244263
0.00255604
0.00267445
0.00279578
0.00291951
0.00304579
0.00317457
0.00330577
0.00343924
0.00357482
0.00371231
0.00385147
0.00399206
0.00413377
0.0042763
0.00441934
0.00456256
0.00470564
0.00484828
0.00499012
0.00513043
0.00526898
0.00540662
0.00554471
0.00568814
0.00585763
0.00604575
0.00624283
0.0064498
0.00666862
0.00690074
0.00714957
0.00741977
0.00771657
0.00804789
0.00842101
0.00884597
0.00935187
0.00992061
0.0106621
0.0114908
0.0126352
0.0146131
0.0999358
0.0135808
0.00447334
0.00265041
0.000845285
0.000686337
0.000443899
0.0004196
0.000403493
0.000414393
0.000429972
0.000450201
0.00047681
0.000508399
0.0005451
0.000586463
0.000632262
0.000682286
0.000736401
0.000794432
0.000856249
0.000921701
0.000990626
0.00106286
0.00113816
0.0012164
0.00129758
0.00138154
0.00146812
0.00155716
0.00164848
0.00174193
0.00183731
0.00193444
0.00203316
0.00213336
0.00223503
0.00233846
0.00244443
0.0025535
0.00266466
0.00277773
0.00289273
0.00300958
0.00312817
0.00324835
0.00336992
0.00349265
0.0036163
0.00374058
0.00386517
0.00398974
0.00411395
0.00423745
0.00435989
0.00448092
0.00460019
0.00471722
0.0048318
0.00494418
0.00505502
0.00516653
0.00528548
0.00541086
0.00553966
0.0056701
0.00580394
0.00594361
0.00609177
0.00625164
0.00642721
0.0066242
0.00684894
0.00710161
0.00742248
0.00774703
0.00826586
0.00868355
0.00959183
0.0104742
0.0921316
0.0126388
0.0036711
0.00435905
0.00400754
0.00177333
0.00101712
0.000761809
0.000635203
0.000604843
0.000594048
0.000594088
0.000608022
0.000630375
0.000660885
0.000698035
0.000741179
0.00078968
0.000843198
0.000901368
0.000963927
0.00103061
0.00110118
0.00117543
0.00125329
0.00133461
0.00141915
0.00150672
0.00159716
0.00169029
0.00178595
0.001884
0.00198428
0.00208665
0.00219097
0.00229718
0.00240526
0.00251529
0.00262728
0.00274138
0.00285723
0.00297473
0.00309383
0.00321444
0.00333637
0.00345942
0.0035833
0.00370769
0.00383225
0.00395657
0.00408024
0.00420278
0.00432376
0.00444274
0.00455924
0.00467283
0.00478307
0.00488956
0.00499199
0.0050904
0.00518506
0.00527708
0.00536909
0.00546142
0.00555334
0.00564569
0.00573957
0.00583621
0.00593796
0.00604764
0.00616916
0.00630364
0.00645926
0.0066375
0.00687546
0.00710768
0.00751872
0.0078267
0.00858591
0.00904577
0.0895413
0.0120126
0.0028109
0.00249635
0.00561855
0.00551444
0.0028623
0.00172435
0.00123309
0.00103219
0.000940048
0.000881463
0.00085933
0.000856861
0.000871003
0.000896978
0.00093281
0.000976827
0.00102803
0.00108564
0.00114906
0.00121776
0.00129127
0.00136931
0.00145168
0.00153816
0.00162848
0.00172242
0.00181975
0.00192027
0.0020238
0.00213018
0.00223924
0.00235084
0.00246479
0.00258096
0.00269923
0.00281948
0.00294156
0.00306533
0.00319059
0.00331723
0.00344517
0.00357425
0.00370424
0.00383481
0.00396558
0.0040961
0.00422586
0.00435434
0.00448094
0.00460506
0.0047261
0.00484349
0.00495662
0.00506493
0.00516794
0.00526517
0.00535627
0.00544119
0.00551993
0.0055932
0.0056623
0.00572774
0.00578972
0.00584958
0.00590837
0.00596762
0.00602979
0.00609768
0.00617522
0.00626657
0.00637657
0.00650491
0.00668462
0.0068623
0.00719717
0.00744717
0.00809719
0.00833017
0.088966
0.0120806
0.00242527
0.00118331
0.00280004
0.0074048
0.00741006
0.00456082
0.002852
0.00206266
0.00169544
0.00146534
0.00133832
0.00126764
0.00123788
0.00123291
0.00124714
0.00127634
0.00131748
0.00136884
0.00142893
0.00149657
0.00157081
0.00165107
0.00173699
0.00182819
0.00192426
0.00202484
0.00212962
0.0022383
0.00235065
0.00246646
0.00258551
0.00270759
0.00283244
0.00295979
0.00308938
0.0032209
0.00335406
0.00348858
0.00362426
0.00376096
0.00389854
0.00403681
0.00417542
0.00431394
0.00445183
0.00458847
0.0047232
0.00485533
0.00498408
0.00510869
0.00522838
0.00534246
0.0054502
0.00555091
0.00564409
0.00572919
0.00580578
0.00587395
0.00593339
0.00598482
0.00602916
0.00606674
0.00609833
0.00612602
0.00615042
0.00617357
0.00619821
0.00622715
0.00626475
0.00631463
0.00638018
0.00646721
0.00659894
0.00673621
0.00700537
0.00721005
0.00776274
0.00786013
0.0887809
0.0122404
0.00244378
0.000776717
0.00105111
0.00338767
0.0090693
0.00988119
0.0071522
0.00462968
0.00342101
0.00270669
0.0023021
0.00205138
0.00190653
0.0018211
0.00177933
0.00176862
0.00178043
0.00181106
0.00185667
0.00191445
0.00198232
0.00205902
0.00214382
0.00223595
0.00233463
0.00243925
0.00254925
0.00266417
0.00278365
0.00290735
0.00303498
0.0031662
0.0033006
0.00343778
0.00357726
0.00371858
0.0038613
0.00400503
0.00414951
0.00429453
0.00443989
0.00458531
0.00473035
0.00487441
0.0050168
0.0051567
0.00529327
0.00542563
0.00555285
0.00567397
0.00578807
0.00589438
0.00599209
0.00608031
0.0061587
0.00622663
0.00628357
0.00633005
0.00636519
0.00639023
0.00640601
0.00641238
0.00641076
0.00640451
0.00639285
0.00637883
0.00636553
0.00635571
0.00635313
0.00636053
0.00638633
0.0064361
0.00652225
0.00662519
0.00683276
0.00699755
0.00746021
0.00747831
0.0885375
0.0124003
0.00264127
0.000766459
0.000497227
0.00101735
0.00375853
0.00997006
0.0123927
0.0103072
0.00723785
0.00536308
0.00428278
0.0035959
0.00317045
0.00289073
0.00271351
0.00260458
0.00254438
0.00252173
0.00252768
0.00255545
0.00260059
0.00266002
0.00273237
0.00281598
0.002909
0.00301044
0.00311927
0.00323462
0.00335584
0.00348242
0.00361387
0.00374966
0.00388916
0.00403174
0.00417673
0.00432346
0.00447135
0.00461991
0.00476876
0.00491761
0.00506616
0.00521403
0.00536061
0.00550515
0.00564673
0.00578436
0.00591696
0.00604352
0.00616295
0.00627412
0.00637595
0.00646774
0.00654861
0.0066174
0.00667431
0.00671843
0.00674915
0.00676805
0.00677284
0.00676631
0.00674911
0.0067204
0.00668292
0.00663879
0.00658935
0.00653492
0.00648043
0.00642949
0.00639033
0.00636287
0.00635335
0.00636512
0.00640665
0.00647829
0.00662898
0.006758
0.00713674
0.00711681
0.0882914
0.0121345
0.00305579
0.000827702
0.000454275
0.00041946
0.000990332
0.00369183
0.0103607
0.0133805
0.0128661
0.0105504
0.00819113
0.00658789
0.005554
0.00484817
0.0043735
0.00404869
0.00382817
0.00368569
0.00360042
0.00355678
0.00354575
0.00355963
0.00359627
0.00365201
0.0037221
0.00380535
0.00389974
0.00400348
0.00411527
0.00423444
0.00436005
0.00449123
0.00462698
0.00476637
0.00490848
0.00505242
0.00519743
0.00534291
0.00548835
0.00563329
0.00577732
0.00591991
0.00606021
0.00619721
0.00632982
0.00645685
0.00657694
0.00668905
0.00679188
0.00688422
0.00696474
0.00703319
0.00708852
0.00712908
0.00715651
0.00716893
0.00716571
0.00715083
0.00711981
0.00707552
0.00701956
0.00695046
0.00687062
0.00678404
0.00669279
0.00660291
0.00651491
0.00643114
0.0063552
0.00629107
0.00624489
0.00622118
0.00623039
0.00626736
0.00636651
0.00646531
0.00677152
0.00673778
0.0881977
0.011763
0.00294982
0.00122286
0.000397147
0.000295934
0.00028335
0.000928572
0.00285363
0.00817085
0.0128118
0.0142837
0.0136332
0.0115708
0.00965125
0.00823113
0.00721561
0.00648236
0.00595343
0.00557564
0.00530709
0.00511732
0.00498845
0.00490785
0.00486687
0.00485941
0.00487447
0.00491245
0.00496873
0.00503941
0.00512185
0.00521568
0.00531876
0.00542975
0.00554687
0.00566884
0.00579445
0.00592249
0.006052
0.00618221
0.00631241
0.00644193
0.00657016
0.00669633
0.00681922
0.00693745
0.00704985
0.00715506
0.00725126
0.00733758
0.00741256
0.00747487
0.00752277
0.00755731
0.00757687
0.00757875
0.0075682
0.0075411
0.00749679
0.00743603
0.00735854
0.00726794
0.00716599
0.00705644
0.00694142
0.00682091
0.00669683
0.00657101
0.00644704
0.00632841
0.00621886
0.00612211
0.00604395
0.00598762
0.00596526
0.00597732
0.00603376
0.0061066
0.00635314
0.00632063
0.0884446
0.0110256
0.00266457
0.00110829
0.000505311
0.000229337
0.000218437
0.000132463
0.000875436
0.00154656
0.0054669
0.0105901
0.0139655
0.0147731
0.0143134
0.0129662
0.0114065
0.0101688
0.0092074
0.00846076
0.00788872
0.00745046
0.00711763
0.00686904
0.0066873
0.00656022
0.00647534
0.00642599
0.00640658
0.00641102
0.00643269
0.00647427
0.00652959
0.00659716
0.00667344
0.00675711
0.00684667
0.00694025
0.00703662
0.00713474
0.00723364
0.00733226
0.00742972
0.00752487
0.00761578
0.00770067
0.00777864
0.00784805
0.00790619
0.0079531
0.00798692
0.00800615
0.00800833
0.00799798
0.00797084
0.00792143
0.007855
0.00777299
0.00767562
0.00756755
0.00744996
0.00732139
0.00718294
0.00703561
0.00688125
0.00672274
0.00656265
0.00640341
0.00624803
0.00609983
0.0059624
0.00583919
0.0057355
0.00565403
0.0056042
0.00559355
0.00562375
0.0056747
0.00587405
0.00585529
0.0890583
0.0112496
0.0019513
0.000795199
0.000391024
0.000190475
0.000150574
0.000125245
0.000148725
0.00043855
0.000859655
0.00283416
0.00561086
0.0106915
0.0137104
0.0148306
0.0146944
0.0141367
0.0131467
0.0121254
0.0112684
0.0105552
0.00996667
0.00948938
0.00910665
0.0088035
0.00856527
0.00838048
0.00824037
0.00813744
0.00806428
0.00801788
0.00799337
0.00798885
0.00799587
0.00801531
0.00804499
0.00808146
0.00812327
0.008169
0.0082173
0.00826652
0.0083154
0.00836219
0.00840367
0.00843799
0.00846552
0.0084835
0.00848766
0.00848075
0.00845887
0.00841444
0.00835259
0.00827556
0.00818277
0.00807906
0.00796423
0.00783639
0.00769566
0.00754239
0.00737759
0.00720359
0.0070223
0.00683552
0.00664518
0.00645375
0.00626372
0.00607768
0.00589828
0.00572853
0.00557155
0.0054305
0.0053099
0.00521218
0.00514518
0.00511408
0.00513187
0.00516601
0.00532935
0.00533872
0.0889668
0.0119431
0.00208533
0.000469935
0.000181086
0.000124928
9.30545e-05
6.18329e-05
6.62319e-05
0.000109414
0.00014591
0.000691514
0.00104852
0.00269872
0.0050057
0.00875633
0.0121807
0.0139024
0.0145313
0.0144294
0.0141244
0.0135445
0.0128974
0.0122975
0.0117752
0.0113205
0.010931
0.0105993
0.0103196
0.0100861
0.00989205
0.0097327
0.00960316
0.00950011
0.00941661
0.00934971
0.00929683
0.00925498
0.00922205
0.00919605
0.00917518
0.00915702
0.00914
0.00912122
0.00909477
0.00906072
0.00901458
0.00895677
0.00888499
0.00879962
0.00870275
0.00859657
0.00847721
0.00834434
0.00819836
0.00803821
0.00786508
0.00768077
0.00748662
0.00728392
0.00707414
0.00685924
0.00664115
0.00642196
0.0062036
0.00598834
0.00577829
0.00557589
0.00538327
0.0052031
0.0050377
0.00488999
0.00476329
0.00466006
0.00458659
0.0045454
0.00455733
0.00458278
0.00471816
0.00477341
0.0887728
0.0121186
0.00239522
0.000489497
0.000146254
5.10462e-05
5.91294e-05
5.24385e-05
3.77622e-05
4.38741e-05
3.94019e-05
0.000165671
0.000208576
0.000605599
0.000906273
0.00186958
0.00319099
0.0059689
0.00877961
0.0114017
0.0129415
0.0135867
0.0137267
0.0136362
0.0134317
0.0130988
0.0127506
0.0123981
0.0120667
0.0117641
0.0114893
0.0112438
0.0110267
0.0108341
0.0106616
0.0105063
0.0103647
0.0102343
0.0101136
0.010001
0.00989471
0.0097916
0.00969045
0.00958619
0.00948181
0.00937352
0.00925666
0.00913018
0.00899194
0.00884168
0.00867906
0.00850243
0.00831347
0.00811312
0.00790258
0.00768253
0.00745415
0.00721903
0.00697884
0.00673537
0.00649034
0.0062457
0.00600321
0.00576487
0.00553229
0.00530751
0.00509201
0.00488791
0.00469657
0.00452028
0.00436028
0.0042194
0.00409924
0.00400289
0.00393384
0.00389667
0.00390783
0.00393224
0.00405011
0.00416147
0.0882603
0.0118073
0.00238042
0.000510868
0.000162578
5.7849e-05
6.93493e-05
4.87261e-05
3.72948e-05
2.83839e-05
2.665e-05
4.0904e-05
4.91921e-05
0.000136017
0.000173476
0.000364179
0.000528902
0.00100259
0.00167261
0.00284879
0.0046125
0.00674571
0.00872666
0.0104055
0.0114983
0.0120851
0.0123235
0.012307
0.0122399
0.0121158
0.011944
0.0117596
0.0115748
0.0113795
0.0111811
0.0109863
0.0107926
0.0106038
0.0104224
0.0102491
0.0100816
0.0099171
0.00975532
0.0095904
0.0094174
0.00923709
0.00904709
0.00884677
0.00863582
0.00841457
0.00818383
0.00794358
0.00769496
0.00743923
0.00717786
0.00691239
0.00664441
0.0063757
0.00610798
0.00584319
0.00558293
0.00532906
0.0050829
0.00484622
0.00461994
0.00440579
0.00420432
0.00401734
0.00384512
0.00368969
0.0035509
0.00343186
0.00333183
0.00325531
0.00320218
0.00318233
0.00319776
0.00322899
0.0033409
0.00350934
0.0890919
0.0109286
0.00176678
0.000386414
0.000120481
3.06296e-05
4.75374e-05
2.03175e-05
2.76033e-05
3.02337e-05
2.61084e-05
1.73152e-05
1.90029e-05
2.88522e-05
3.77704e-05
7.21909e-05
9.52395e-05
0.000162965
0.000256865
0.000415539
0.000672225
0.00110634
0.0017056
0.00252267
0.00364425
0.0049174
0.0062135
0.00740087
0.00842138
0.00917947
0.00968059
0.00996492
0.0101047
0.0100992
0.0100547
0.00996711
0.00983487
0.00969239
0.00954391
0.00939121
0.00922666
0.0090551
0.00887922
0.00868796
0.00848288
0.00826477
0.0080329
0.00779017
0.00753814
0.00727835
0.00701234
0.00674076
0.00646537
0.00618775
0.00590968
0.00563317
0.00535991
0.0050918
0.00483038
0.0045775
0.00433431
0.00410248
0.00388256
0.00367606
0.00348287
0.00330451
0.00314028
0.00299198
0.00285845
0.00274174
0.00264026
0.00255766
0.00249052
0.00244564
0.00242036
0.00242265
0.00245159
0.00249904
0.00261594
0.00282506
0.0916176
0.0122374
0.00166779
0.000340451
0.000103282
4.28208e-05
2.5665e-05
1.9218e-05
1.15402e-05
8.19473e-06
4.4884e-06
1.11848e-05
1.50555e-05
1.21217e-05
1.38832e-05
1.89461e-05
2.13858e-05
3.01296e-05
4.32362e-05
6.66723e-05
9.39386e-05
0.000143323
0.000211695
0.000325905
0.000475749
0.000704275
0.000990074
0.00137294
0.00181713
0.00236117
0.0029776
0.00362396
0.00425803
0.00484994
0.00537143
0.00582504
0.00617128
0.00640862
0.00655318
0.00661652
0.00660455
0.006567
0.00650052
0.00637774
0.00622403
0.00604723
0.00585256
0.00564609
0.0054319
0.00521013
0.00498198
0.00474854
0.00451335
0.00427812
0.00404528
0.00381703
0.00359469
0.00337998
0.00317436
0.00297954
0.00279624
0.00262583
0.00246803
0.00232422
0.00219305
0.00207639
0.00197198
0.00188244
0.00180449
0.00174117
0.00168949
0.00165355
0.00162814
0.0016231
0.00162981
0.00165384
0.00170975
0.00177591
0.00189874
0.0021311
0.0963862
0.0231266
0.00847709
0.00232679
0.000715061
0.000219827
7.4932e-05
4.71367e-05
2.62888e-05
1.81542e-05
1.49676e-05
1.41325e-05
1.30265e-05
1.12136e-05
9.77184e-06
9.24978e-06
8.77083e-06
9.15449e-06
1.0527e-05
1.30609e-05
1.66411e-05
2.2039e-05
3.0458e-05
3.9063e-05
5.35381e-05
7.51764e-05
0.00010409
0.000141357
0.000191196
0.000251143
0.000331216
0.000424671
0.000543505
0.00067662
0.000837267
0.00100856
0.00120845
0.00142432
0.00163879
0.00184313
0.00202091
0.00216929
0.00228195
0.00235932
0.00241526
0.00242706
0.00241317
0.00238357
0.00234608
0.00227911
0.00219619
0.00210216
0.00200019
0.00189231
0.00178324
0.00167396
0.00156579
0.00146017
0.00136136
0.00126854
0.00118448
0.00110821
0.00104066
0.000982276
0.000931577
0.000891418
0.000857546
0.000834848
0.000816837
0.000809794
0.000808008
0.000818226
0.000832714
0.000862061
0.000898035
0.000949006
0.00101434
0.00109697
0.00122359
0.00145931
0.0930972
0.0294755
0.0109164
0.00245613
0.000900211
0.000529347
0.000305557
0.000143814
7.27306e-05
2.84694e-05
1.30602e-05
8.93585e-06
7.21687e-06
6.63048e-06
5.91179e-06
5.24664e-06
4.75832e-06
4.41994e-06
4.31887e-06
4.41958e-06
4.77531e-06
5.17898e-06
5.99185e-06
6.48503e-06
7.81653e-06
9.09016e-06
1.08481e-05
1.41797e-05
1.69118e-05
2.21115e-05
2.58293e-05
3.27964e-05
3.74092e-05
4.58692e-05
5.10882e-05
6.0644e-05
6.62372e-05
7.85222e-05
9.33132e-05
0.000115998
0.000141439
0.000173309
0.000206516
0.000242984
0.000277893
0.000311597
0.00034009
0.000364778
0.000381873
0.000393618
0.00039648
0.000393871
0.000386945
0.000376245
0.000366378
0.000343042
0.000331306
0.000302894
0.000292577
0.000268065
0.000259097
0.000239828
0.000232888
0.000220511
0.000215811
0.000213136
0.000209741
0.000213726
0.00021344
0.000224245
0.000230389
0.000250606
0.000265165
0.00029864
0.000325907
0.000379124
0.000427956
0.000511476
0.000635509
0.000858183
0.0762235
0.0187128
0.00881818
0.00216015
0.000104625
8.6878e-06
3.50619e-06
1.225e-06
8.25404e-07
5.59791e-07
6.72597e-07
7.13903e-07
9.75097e-07
7.18546e-07
1.4187e-06
1.18435e-06
1.15297e-06
1.14143e-06
1.15057e-06
1.15902e-06
1.18417e-06
1.21864e-06
1.29012e-06
1.35334e-06
1.41198e-06
1.48633e-06
1.60267e-06
1.73434e-06
1.89565e-06
2.16239e-06
2.3355e-06
2.64338e-06
2.83496e-06
3.024e-06
3.14062e-06
3.09502e-06
2.98423e-06
2.75622e-06
2.64378e-06
2.61036e-06
2.58755e-06
2.78742e-06
3.08704e-06
3.68664e-06
4.54928e-06
5.71202e-06
7.1836e-06
8.84009e-06
1.07138e-05
1.2494e-05
1.4279e-05
1.57255e-05
1.71495e-05
1.79846e-05
1.88757e-05
1.90305e-05
1.96309e-05
1.94619e-05
1.98066e-05
1.9652e-05
2.01169e-05
2.02999e-05
2.1221e-05
2.24714e-05
2.38414e-05
2.71392e-05
2.83784e-05
3.46604e-05
3.56682e-05
4.41647e-05
4.64209e-05
5.79646e-05
6.23743e-05
8.01289e-05
8.91954e-05
0.000117937
0.000141637
0.000186092
0.00027701
0.000424019
0.0802591
0.00586302
0.00111455
0.000338466
0.000124766
2.62767e-05
1.52483e-06
5.48654e-08
1.3512e-08
1.26337e-08
2.76541e-08
4.80414e-08
8.24039e-08
1.09425e-07
1.52163e-07
1.34773e-07
1.26512e-07
1.4463e-07
1.66865e-07
1.82341e-07
1.89115e-07
1.99179e-07
2.06854e-07
2.18884e-07
2.24729e-07
2.35159e-07
2.42431e-07
2.5427e-07
2.61738e-07
2.77368e-07
2.84807e-07
2.98911e-07
3.00419e-07
2.9773e-07
2.93694e-07
2.76976e-07
2.64452e-07
2.45159e-07
2.27173e-07
2.08119e-07
1.8949e-07
1.78005e-07
1.62588e-07
1.57072e-07
1.58943e-07
1.57297e-07
1.8492e-07
1.88805e-07
2.63911e-07
2.75787e-07
4.22786e-07
4.88282e-07
7.63483e-07
8.95672e-07
1.37094e-06
1.62746e-06
2.36595e-06
2.90154e-06
4.0919e-06
4.95789e-06
7.17355e-06
8.36355e-06
1.21841e-05
1.38915e-05
1.94569e-05
2.19021e-05
2.92284e-05
3.34972e-05
4.24263e-05
5.02004e-05
6.06154e-05
7.36073e-05
8.59225e-05
0.000106022
0.000121416
0.000150924
0.000170282
0.000213315
0.000242469
0.00031898
0.0943881
0.00695569
0.00117973
0.000221364
5.3283e-06
1.1952e-06
5.18675e-08
8.67861e-09
4.20208e-10
1.02444e-08
9.65067e-09
9.76354e-09
8.90386e-09
1.10142e-08
1.39826e-08
1.55621e-08
1.65854e-08
1.7594e-08
1.87213e-08
1.97788e-08
2.09908e-08
2.22761e-08
2.35179e-08
2.47577e-08
2.58308e-08
2.68439e-08
2.76688e-08
2.84055e-08
2.89273e-08
2.93314e-08
2.966e-08
2.94385e-08
2.99741e-08
2.81511e-08
2.8775e-08
2.55655e-08
2.67068e-08
3.24544e-08
3.72393e-08
8.19288e-08
9.63132e-08
2.27618e-07
2.93982e-07
4.76249e-07
6.81682e-07
9.8316e-07
1.38948e-06
1.85974e-06
2.46694e-06
3.19907e-06
4.42949e-06
5.56141e-06
7.67649e-06
9.38854e-06
1.27262e-05
1.53222e-05
2.02513e-05
2.48627e-05
3.43596e-05
4.18427e-05
5.80184e-05
6.83099e-05
9.17746e-05
0.000105157
0.000137407
0.00015438
0.000197924
0.000220742
0.000277818
0.000310072
0.00038377
0.000428159
0.000521264
0.000577227
0.000689326
0.000750976
0.000873835
0.000936646
0.00105321
0.00107063
0.105714
0.0332019
0.0100949
0.00401822
0.00167808
0.000686888
0.000220655
0.000215246
0.0001704
0.000128788
9.58685e-05
6.95392e-05
3.23689e-05
2.49669e-05
1.3199e-05
4.79973e-06
4.24949e-06
3.33758e-06
2.67789e-06
2.18654e-06
1.82822e-06
1.56496e-06
1.37136e-06
1.22975e-06
1.12756e-06
1.05599e-06
1.00851e-06
9.80703e-07
9.69326e-07
9.72194e-07
9.87887e-07
1.01564e-06
1.05528e-06
1.10712e-06
1.17459e-06
1.38057e-06
1.80111e-06
2.45825e-06
3.35311e-06
4.69138e-06
5.68514e-06
9.18603e-06
1.08829e-05
1.43828e-05
1.74307e-05
2.24731e-05
2.67331e-05
3.41661e-05
3.97076e-05
5.03491e-05
5.79954e-05
7.22557e-05
8.38273e-05
0.000102349
0.000119935
0.000144205
0.000173006
0.000233517
0.000300199
0.000381597
0.000461581
0.000558018
0.000659706
0.000777269
0.00090672
0.00104745
0.00120532
0.00136374
0.00154137
0.00170147
0.00187718
0.00201621
0.00215674
0.00225226
0.00232954
0.00236439
0.00239001
0.00238377
0.00238403
0.00230814
0.0904502
0.0296018
0.0127353
0.00567771
0.00264424
0.00126735
0.000754298
0.000256645
0.000644413
0.000580158
0.000494262
0.000415282
0.000324223
0.000257864
0.000224964
0.000205157
0.000191958
0.000182441
0.000175189
0.000169455
0.000164929
0.000161192
0.000158379
0.000155964
0.00015445
0.000153054
0.000152651
0.000152097
0.000152387
0.000153149
0.000154369
0.000156082
0.000158292
0.000161083
0.000167181
0.000176962
0.00019019
0.000206011
0.000218269
0.000254106
0.00027074
0.000301421
0.000325101
0.000357806
0.000390669
0.000430236
0.000468774
0.000517828
0.000564526
0.000627806
0.000687064
0.000772246
0.000851884
0.000971327
0.00108504
0.00125762
0.00141963
0.0016196
0.00181241
0.00207655
0.00235117
0.00269631
0.00304369
0.00343889
0.00380785
0.0041757
0.00447633
0.00471819
0.00487183
0.00492644
0.00492653
0.00481775
0.00471034
0.0045216
0.0043948
0.00420843
0.00410028
0.00396104
0.00385781
0.00377239
0.0386393
0.0284872
0.0218445
0.0173574
0.0142401
0.0119774
0.0102917
0.00899493
0.0079738
0.00716045
0.00650108
0.00595979
0.0055085
0.00512884
0.00480476
0.00452722
0.00428624
0.00407758
0.00389414
0.00373425
0.00359226
0.00346815
0.003357
0.00325999
0.00317248
0.00309664
0.0030277
0.00296886
0.0029148
0.00286986
0.002828
0.00279474
0.00276306
0.00273988
0.00271806
0.00269696
0.00267488
0.0026529
0.002629
0.00260492
0.00257802
0.0025505
0.00251912
0.00248673
0.00244959
0.0024112
0.00236726
0.00232211
0.00227085
0.00221886
0.00216055
0.00210269
0.00203897
0.00197798
0.00191287
0.00185438
0.0017951
0.00174588
0.00170055
0.00167146
0.00165587
0.00166353
0.00169517
0.00176865
0.00186832
0.00202197
0.00221174
0.00245342
0.00273682
0.00305282
0.00342204
0.00379858
0.00421756
0.00466345
0.00513497
0.00571415
0.00626297
0.00716087
0.00787485
0.00964903
)
;

boundaryField
{
    inlet
    {
        type            fixedValue;
        value           uniform 0.63;
    }
    outlet
    {
        type            zeroGradient;
    }
    fixedWalls
    {
        lowReCorrection 0;
        type            epsilonWallFunction;
        value           nonuniform List<scalar> 
160
(
0.0386393
0.0284872
0.0218445
0.0173574
0.0142401
0.0119774
0.0102917
0.00899493
0.0079738
0.00716045
0.00650108
0.00595979
0.0055085
0.00512884
0.00480476
0.00452722
0.00428624
0.00407758
0.00389414
0.00373425
0.00359226
0.00346815
0.003357
0.00325999
0.00317248
0.00309664
0.0030277
0.00296886
0.0029148
0.00286986
0.002828
0.00279474
0.00276306
0.00273988
0.00271806
0.00269696
0.00267488
0.0026529
0.002629
0.00260492
0.00257802
0.0025505
0.00251912
0.00248673
0.00244959
0.0024112
0.00236726
0.00232211
0.00227085
0.00221886
0.00216055
0.00210269
0.00203897
0.00197798
0.00191287
0.00185438
0.0017951
0.00174588
0.00170055
0.00167146
0.00165587
0.00166353
0.00169517
0.00176865
0.00186832
0.00202197
0.00221174
0.00245342
0.00273682
0.00305282
0.00342204
0.00379858
0.00421756
0.00466345
0.00513497
0.00571415
0.00626297
0.00716087
0.00787485
0.00964903
0.0317382
0.000956802
0.000591616
0.000345505
0.000364254
0.000365317
0.000401536
0.000434426
0.000481624
0.000535195
0.000583729
0.000638276
0.000695885
0.000760263
0.000830561
0.000907874
0.000991934
0.0010832
0.00118167
0.00128747
0.00140067
0.00152124
0.00164928
0.00178476
0.00192766
0.00207787
0.0022353
0.00239984
0.00257134
0.00274966
0.00293462
0.00312597
0.00332339
0.00352652
0.00373481
0.00394757
0.00416386
0.00438265
0.00460379
0.00483189
0.00506532
0.00530457
0.00554996
0.00580139
0.00605873
0.00632163
0.00658975
0.00686257
0.00713963
0.00742027
0.00770387
0.0079897
0.00827709
0.00856525
0.00885345
0.00914112
0.00942776
0.00971107
0.00999039
0.0102702
0.0105526
0.0108527
0.0112948
0.0118282
0.0123982
0.0130065
0.0136614
0.014369
0.0151401
0.0159905
0.0169368
0.0180057
0.0192092
0.0206359
0.0222367
0.0243337
0.0264342
0.0302135
0.0331612
0.0434426
)
;
    }
    frontAndBack
    {
        type            empty;
    }
}


// ************************************************************************* //
