/*--------------------------------*- C++ -*----------------------------------*\
| =========                 |                                                 |
| \\      /  F ield         | OpenFOAM: The Open Source CFD Toolbox           |
|  \\    /   O peration     | Version:  v1912                                 |
|   \\  /    A nd           | Website:  www.openfoam.com                      |
|    \\/     M anipulation  |                                                 |
\*---------------------------------------------------------------------------*/
FoamFile
{
    version     2.0;
    format      ascii;
    class       volScalarField;
    location    "480";
    object      k;
}
// * * * * * * * * * * * * * * * * * * * * * * * * * * * * * * * * * * * * * //

dimensions      [0 2 -2 0 0 0 0];


internalField   nonuniform List<scalar> 
2000
(
0.0136659
0.00140263
0.00104416
0.000964192
0.000784325
0.000886234
0.000915146
0.00101359
0.00111068
0.0012222
0.00132599
0.00143859
0.00155566
0.00168226
0.00181678
0.00196054
0.00211281
0.0022739
0.00244343
0.00262115
0.00280671
0.00299968
0.00319971
0.00340636
0.00361918
0.0038376
0.0040611
0.00428914
0.00452115
0.00475656
0.00499477
0.00523512
0.00547691
0.00571933
0.00596149
0.00620232
0.00644055
0.00667487
0.00690491
0.00713498
0.00736303
0.00758916
0.00781327
0.00803483
0.00825329
0.0084679
0.00867795
0.00888257
0.00908096
0.00927221
0.00945542
0.00962965
0.00979401
0.00994756
0.0100894
0.0102189
0.0103353
0.0104368
0.0105227
0.0105959
0.0106575
0.010717
0.0108529
0.011026
0.0111976
0.0113663
0.0115342
0.0117014
0.01187
0.0120436
0.0122247
0.0124196
0.0126242
0.0128682
0.013113
0.0134745
0.0137265
0.014485
0.0145371
0.0169299
0.00850675
0.00191943
0.00283078
0.00211981
0.00183667
0.00189406
0.00194136
0.00209275
0.00228031
0.00251437
0.00273111
0.00296023
0.00319997
0.00345744
0.00373214
0.00402551
0.00433678
0.00466616
0.00501337
0.00537793
0.0057594
0.00615703
0.00657018
0.00699825
0.00744056
0.0078962
0.0083642
0.00884361
0.00933343
0.00983267
0.0103402
0.010855
0.0113757
0.0119009
0.0124291
0.0129586
0.0134873
0.0140125
0.01453
0.0150344
0.015535
0.0160343
0.0165318
0.017027
0.0175189
0.0180064
0.0184881
0.0189627
0.0194287
0.0198843
0.0203278
0.0207575
0.0211714
0.0215679
0.0219451
0.0223014
0.0226354
0.0229433
0.0232226
0.0234737
0.0237011
0.0239059
0.0241042
0.0242878
0.0244473
0.0245854
0.0247062
0.0248091
0.0248987
0.024981
0.0250606
0.0251438
0.0252358
0.0253552
0.0255134
0.025703
0.0260447
0.0264272
0.0270109
0.0290603
0.00529504
0.00148146
0.00176977
0.00423598
0.00352382
0.00308321
0.00301767
0.00309283
0.003291
0.00358844
0.00387323
0.00416795
0.00448347
0.00482306
0.00518836
0.00557925
0.00599473
0.00643368
0.00689558
0.0073791
0.00788329
0.00840682
0.00894835
0.00950669
0.0100806
0.0106688
0.01127
0.0118826
0.0125052
0.0131365
0.0137748
0.0144189
0.015067
0.0157177
0.0163692
0.01702
0.0176685
0.0183133
0.0189536
0.0195893
0.0202217
0.0208503
0.0214747
0.0220939
0.0227067
0.0233118
0.0239074
0.0244917
0.0250629
0.0256187
0.0261572
0.0266761
0.0271731
0.0276462
0.0280931
0.0285119
0.0289004
0.0292562
0.0295775
0.0298639
0.0301165
0.0303373
0.0305327
0.0307023
0.0308417
0.0309533
0.0310418
0.0311068
0.0311563
0.031198
0.0312376
0.0312842
0.0313476
0.031447
0.0316052
0.0318026
0.0322249
0.032596
0.0335535
0.0349584
0.00450208
0.00109136
0.000838797
0.00317228
0.00695863
0.00517813
0.00456272
0.00434075
0.00439624
0.00468004
0.00499211
0.00530697
0.0056571
0.00603926
0.00645716
0.00690835
0.0073915
0.00790348
0.0084436
0.00900962
0.00960004
0.0102131
0.0108467
0.0114994
0.0121694
0.0128554
0.0135557
0.0142685
0.014992
0.0157247
0.0164647
0.0172105
0.0179602
0.0187122
0.0194646
0.0202159
0.0209644
0.021709
0.0224487
0.0231827
0.0239108
0.0246321
0.025346
0.0260513
0.0267467
0.0274303
0.0281003
0.0287545
0.0293904
0.0300056
0.0305977
0.0311639
0.0317019
0.0322091
0.0326831
0.0331219
0.0335229
0.0338841
0.0342039
0.0344817
0.0347179
0.0349145
0.0350736
0.035198
0.0352855
0.0353398
0.0353673
0.0353664
0.0353499
0.0353267
0.0353025
0.0352886
0.0352987
0.0353553
0.0354821
0.0356691
0.0360891
0.0364461
0.0375733
0.0382195
0.00431211
0.00103152
0.000518201
0.000938706
0.00574414
0.00940885
0.00756664
0.00641322
0.00602607
0.00611633
0.00637479
0.00663693
0.00696856
0.00734866
0.00778237
0.00826127
0.00878351
0.00934217
0.00993602
0.0105615
0.0112163
0.0118979
0.0126035
0.0133312
0.0140789
0.0148448
0.0156272
0.0164237
0.0172323
0.0180511
0.0188782
0.0197115
0.0205492
0.0213894
0.02223
0.0230689
0.0239042
0.0247341
0.0255569
0.0263712
0.027176
0.0279705
0.0287536
0.0295242
0.0302805
0.0310206
0.031742
0.032442
0.033118
0.0337671
0.0343863
0.0349727
0.0355236
0.036036
0.0365076
0.0369361
0.037319
0.0376543
0.0379407
0.0381777
0.0383656
0.038507
0.0386014
0.0386547
0.0386645
0.0386381
0.0385831
0.0384972
0.0383943
0.0382844
0.0381773
0.0380856
0.0380248
0.0380247
0.038094
0.0382499
0.0386198
0.038949
0.0400688
0.0401477
0.00425531
0.00103884
0.000387056
0.000424673
0.00199611
0.00814127
0.0119523
0.0104577
0.00886828
0.00838282
0.00838737
0.00844437
0.00865888
0.00896187
0.00935662
0.00981753
0.0103423
0.0109162
0.0115364
0.0121974
0.0128949
0.0136249
0.0143837
0.0151686
0.0159771
0.016807
0.017656
0.0185212
0.0194002
0.0202908
0.0211908
0.0220978
0.0230098
0.0239245
0.0248393
0.0257517
0.0266591
0.027559
0.0284488
0.0293268
0.0301914
0.0310414
0.0318758
0.0326928
0.0334907
0.034267
0.035019
0.0357434
0.036437
0.0370967
0.0377191
0.038301
0.0388393
0.0393311
0.0397737
0.0401653
0.040503
0.0407854
0.0410113
0.0411805
0.0412935
0.0413547
0.0413601
0.0413214
0.0412358
0.0411067
0.0409471
0.0407612
0.0405564
0.040346
0.0401424
0.0399598
0.0398163
0.0397323
0.0397459
0.0398423
0.0401323
0.0404156
0.0414009
0.0411451
0.00423206
0.00104412
0.000357302
0.000278146
0.000566644
0.00301466
0.0103785
0.0145046
0.013755
0.0122074
0.0115841
0.0111413
0.0110588
0.0111506
0.0114148
0.0117819
0.0122511
0.0127926
0.0133989
0.0140613
0.0147722
0.0155241
0.0163116
0.0171315
0.0179799
0.0188538
0.0197506
0.0206663
0.0215977
0.0225423
0.0234977
0.0244611
0.0254299
0.0264016
0.027373
0.028341
0.0293021
0.030253
0.0311908
0.0321131
0.0330178
0.0339034
0.0347684
0.035611
0.036429
0.0372196
0.0379794
0.0387049
0.0393922
0.0400379
0.0406383
0.0411902
0.0416902
0.0421351
0.0425226
0.0428516
0.0431184
0.0433228
0.0434634
0.0435413
0.0435566
0.0435173
0.0434182
0.0432645
0.0430642
0.0428208
0.0425435
0.0422359
0.0419114
0.0415859
0.0412729
0.0409878
0.0407501
0.0405762
0.040512
0.0405594
0.0407706
0.0410031
0.0418377
0.041412
0.00422601
0.0010312
0.000368503
0.00019985
0.000240427
0.000753247
0.00370105
0.0120053
0.0175778
0.0172761
0.0163912
0.0151678
0.0145818
0.0142649
0.0142633
0.0144166
0.0147415
0.0151772
0.0157071
0.0163197
0.0170003
0.017735
0.0185155
0.0193379
0.0201965
0.0210867
0.0220053
0.0229462
0.0239054
0.0248799
0.025867
0.0268631
0.0278653
0.0288703
0.0298748
0.0308745
0.0318652
0.032843
0.0338044
0.0347466
0.0356671
0.036564
0.0374353
0.0382787
0.0390917
0.0398711
0.040613
0.0413131
0.0419674
0.0425719
0.0431231
0.0436174
0.0440518
0.0444226
0.0447282
0.0449692
0.0451398
0.0452425
0.045275
0.045241
0.0451408
0.0449672
0.044733
0.0444453
0.0441109
0.0437357
0.0433288
0.042902
0.0424725
0.0420471
0.0416387
0.0412632
0.0409416
0.0406883
0.0405464
0.0405375
0.0406777
0.0408544
0.0415408
0.0410406
0.00422997
0.00103182
0.000359058
0.000163269
0.000140761
0.000228038
0.00082452
0.0037403
0.0132032
0.0177735
0.0202462
0.019934
0.0192912
0.0185228
0.0181553
0.0179865
0.0180529
0.018288
0.0186587
0.019152
0.0197425
0.0204046
0.0211272
0.0219063
0.0227333
0.0236008
0.0245047
0.0254359
0.0263889
0.0273602
0.0283468
0.0293438
0.0303478
0.0313551
0.0323616
0.0333621
0.0343513
0.035325
0.0362794
0.0372115
0.0381182
0.038997
0.0398456
0.0406608
0.0414395
0.0421787
0.0428731
0.0435183
0.0441097
0.0446433
0.0451156
0.0455232
0.0458633
0.0461318
0.0463282
0.0464469
0.0464841
0.0464498
0.0463446
0.0461645
0.0459189
0.0456158
0.0452616
0.0448567
0.0444069
0.0439192
0.0434032
0.0428679
0.0423259
0.0417928
0.0412836
0.0408143
0.0404068
0.0400738
0.0398565
0.0397758
0.0398692
0.0399979
0.0405703
0.0400732
0.00423355
0.00103332
0.000369072
0.000144697
9.73221e-05
0.000114207
0.000221387
0.000761367
0.00331823
0.00923094
0.017959
0.0216249
0.0231805
0.0230581
0.0227981
0.0223742
0.0222053
0.022216
0.0223496
0.0226638
0.0231048
0.0236317
0.0242367
0.0249169
0.0256606
0.0264567
0.0272989
0.0281753
0.0290785
0.0300042
0.0309492
0.0319066
0.032873
0.0338436
0.0348136
0.0357765
0.0367262
0.037658
0.0385689
0.039455
0.0403131
0.04114
0.0419326
0.0426868
0.0433983
0.0440649
0.0446794
0.0452375
0.0457338
0.0461645
0.0465157
0.0467924
0.0469945
0.0471168
0.0471638
0.0471384
0.0470501
0.0468842
0.046649
0.046343
0.045972
0.045538
0.0450474
0.0445084
0.0439286
0.0433169
0.0426836
0.0420391
0.041396
0.0407686
0.0401728
0.0396241
0.0391448
0.0387467
0.0384699
0.0383238
0.0383873
0.0384822
0.0389858
0.0385568
0.00423019
0.00106589
0.000401339
0.000153327
8.88471e-05
6.4877e-05
7.0552e-05
0.00021731
0.000544715
0.00233368
0.00589637
0.0145827
0.0211956
0.0239599
0.0256133
0.0261033
0.0263261
0.0263805
0.0264468
0.0266401
0.0269337
0.0273023
0.0277566
0.0283011
0.0289193
0.0296
0.0303329
0.0311073
0.0319146
0.0327487
0.0336065
0.0344795
0.0353642
0.0362545
0.0371448
0.0380269
0.0388942
0.0397423
0.0405691
0.0413703
0.0421421
0.0428804
0.0435818
0.0442398
0.0448455
0.0453944
0.0458817
0.046305
0.0466571
0.0469376
0.0471536
0.0472961
0.0473624
0.0473448
0.0472589
0.0470863
0.0468388
0.0465167
0.0461256
0.0456674
0.0451477
0.0445719
0.0439468
0.0432809
0.0425826
0.0418612
0.041127
0.0403913
0.0396664
0.0389658
0.0383052
0.0376994
0.0371703
0.0367287
0.0364141
0.0362246
0.0362715
0.0363525
0.0368339
0.0365312
0.00421846
0.00106013
0.000430133
0.000178532
9.34857e-05
6.55248e-05
4.86759e-05
6.89091e-05
0.000142269
0.000362938
0.00127839
0.00298193
0.00777307
0.0156908
0.0223285
0.0254226
0.0273709
0.0285552
0.029318
0.0299337
0.0303584
0.0307329
0.0311369
0.0316048
0.0321221
0.0326907
0.0333038
0.0339559
0.0346409
0.0353526
0.036088
0.0368411
0.0376074
0.0383802
0.0391519
0.0399129
0.0406573
0.0413812
0.0420799
0.0427506
0.0433899
0.043993
0.0445562
0.0450739
0.0455458
0.045961
0.0463109
0.0465956
0.0468037
0.04694
0.046991
0.046964
0.0468641
0.0466718
0.0464071
0.0460641
0.0456476
0.0451617
0.044612
0.0440035
0.0433426
0.0426357
0.0418901
0.0411146
0.0403179
0.0395097
0.0387001
0.0379004
0.0371222
0.0363783
0.0356834
0.0350507
0.0345015
0.0340453
0.0337197
0.0335214
0.0335645
0.0336535
0.0341523
0.0340358
0.00422165
0.0010392
0.000413757
0.000194145
0.000118172
7.0596e-05
4.77429e-05
4.24202e-05
5.0768e-05
7.15732e-05
0.000298788
0.000524326
0.00166454
0.00321977
0.0077251
0.0138591
0.0209334
0.025574
0.0281463
0.0298237
0.031021
0.0320067
0.0328305
0.0335611
0.0342067
0.0348228
0.0354224
0.0360227
0.0366302
0.0372456
0.0378719
0.0385088
0.0391533
0.0397901
0.0404158
0.0410266
0.0416201
0.0421939
0.0427458
0.0432724
0.0437701
0.0442328
0.0446573
0.0450296
0.0453412
0.04559
0.0457681
0.0458822
0.0459081
0.0458685
0.0457459
0.0455286
0.0452364
0.0448638
0.0444184
0.043903
0.0433221
0.0426808
0.0419853
0.0412424
0.0404594
0.0396439
0.0388038
0.037948
0.037085
0.0362246
0.0353761
0.0345502
0.0337575
0.0330093
0.032319
0.0316978
0.0311655
0.0307305
0.0304252
0.0302611
0.0303143
0.0304336
0.0309674
0.0311215
0.00422319
0.00103368
0.000390123
0.000210893
0.000118192
8.18974e-05
5.57248e-05
4.25187e-05
3.56183e-05
3.36729e-05
8.12308e-05
0.000115562
0.000353481
0.000570443
0.00144564
0.00276835
0.00533275
0.0103448
0.0156917
0.0219352
0.0261368
0.0289475
0.0308159
0.0322223
0.0333294
0.0343062
0.0351607
0.0359368
0.0366579
0.0373346
0.0379785
0.0385998
0.0391984
0.0397604
0.0402879
0.0407825
0.0412487
0.0416878
0.042102
0.0424874
0.0428424
0.0431584
0.0434353
0.0436478
0.0437886
0.0438627
0.043859
0.0437989
0.0436498
0.043413
0.0430993
0.0427037
0.0422337
0.0416916
0.0410834
0.0404147
0.0396916
0.0389207
0.0381095
0.0372656
0.0363976
0.0355136
0.0346217
0.0337306
0.0328482
0.0319838
0.0311455
0.0303427
0.0295844
0.0288801
0.0282416
0.0276771
0.0272053
0.0268323
0.0265852
0.0264976
0.0265782
0.0267519
0.0273236
0.0278346
0.00423713
0.00102867
0.000411373
0.0002194
0.000135533
9.44826e-05
6.49214e-05
4.98638e-05
3.9186e-05
3.13844e-05
3.82718e-05
4.39186e-05
9.00125e-05
0.000121929
0.000282553
0.000460749
0.000930586
0.00169233
0.00326983
0.00548231
0.00911613
0.0137489
0.0183292
0.0227948
0.0262744
0.0288173
0.0306488
0.032074
0.0332227
0.0341945
0.0350611
0.0358454
0.0365358
0.037151
0.0376956
0.0381733
0.0385988
0.0389789
0.0393225
0.0396241
0.0398866
0.0400975
0.0402623
0.0403279
0.0403171
0.0402557
0.0401167
0.039884
0.0395723
0.0391799
0.038711
0.0381686
0.0375591
0.0368876
0.036161
0.0353861
0.0345711
0.0337237
0.032853
0.0319671
0.0310748
0.0301847
0.029304
0.0284416
0.0276034
0.0267983
0.026032
0.025313
0.0246475
0.0240436
0.0235105
0.0230532
0.0226896
0.0224219
0.0222799
0.022292
0.0224322
0.0226879
0.0233094
0.0242055
0.00421922
0.00107341
0.000423632
0.000214223
0.000117951
8.56788e-05
6.76702e-05
5.00441e-05
3.94435e-05
3.10704e-05
2.70261e-05
2.64761e-05
3.2855e-05
3.82135e-05
6.6586e-05
8.8286e-05
0.000157996
0.000257616
0.000497191
0.000838002
0.00144525
0.00241029
0.00393084
0.00592234
0.00858496
0.0118269
0.0152371
0.0185949
0.0216485
0.0242353
0.0263506
0.0280033
0.0292565
0.0302573
0.0310667
0.031735
0.0323226
0.0328352
0.0332851
0.0336554
0.0339599
0.0341821
0.0343231
0.034321
0.0342618
0.034126
0.0338895
0.0335745
0.0331778
0.0327052
0.032161
0.0315534
0.0308889
0.0301736
0.0294157
0.0286234
0.0278065
0.0269729
0.0261338
0.0252962
0.0244696
0.0236615
0.0228779
0.0221279
0.0214139
0.0207458
0.0201244
0.0195592
0.019051
0.0186086
0.0182368
0.0179376
0.0177307
0.0176107
0.0176197
0.0177207
0.0179942
0.0183576
0.0190296
0.0202673
0.00417298
0.00104161
0.000436965
0.000227117
0.000135527
0.00010863
7.44172e-05
5.04271e-05
3.52621e-05
2.42656e-05
2.38461e-05
2.24214e-05
2.12473e-05
2.05759e-05
2.44891e-05
2.61532e-05
3.61175e-05
4.75645e-05
8.17218e-05
0.000129802
0.000200445
0.000326363
0.000501999
0.00082181
0.00122855
0.00187955
0.00272264
0.00388764
0.00529697
0.00703756
0.0089444
0.0110483
0.013182
0.0152716
0.0172176
0.0189687
0.0204381
0.0216244
0.0225827
0.0233202
0.0239335
0.0243497
0.0246365
0.024735
0.0247083
0.024633
0.0244945
0.0242614
0.0239359
0.0235401
0.0230777
0.0225624
0.0219968
0.0213869
0.0207437
0.0200766
0.0193965
0.0187106
0.0180334
0.0173675
0.016725
0.0161102
0.0155282
0.0149889
0.0144889
0.0140427
0.0136417
0.0133007
0.0130106
0.0127873
0.0126234
0.0125254
0.0125171
0.0125695
0.01273
0.0129848
0.0133743
0.0138805
0.0146219
0.0160866
0.00410907
0.000768631
0.000173714
7.32e-05
3.76757e-05
2.89085e-05
3.44701e-05
3.2426e-05
2.71173e-05
2.14295e-05
1.82903e-05
1.66069e-05
1.56959e-05
1.5063e-05
1.51054e-05
1.50358e-05
1.56311e-05
1.68636e-05
2.09721e-05
2.73309e-05
3.71071e-05
5.25126e-05
7.21062e-05
0.000100959
0.000143024
0.000210041
0.000300539
0.000425473
0.000596857
0.000820078
0.00112074
0.00148886
0.00196743
0.00253071
0.00322048
0.00399121
0.00488272
0.00584754
0.00681507
0.00775743
0.00860314
0.00939157
0.01007
0.0106643
0.0111117
0.011454
0.0116935
0.0118337
0.0118288
0.0117627
0.0116496
0.0114835
0.0112355
0.010932
0.0105951
0.0102336
0.00986061
0.00948144
0.00912066
0.00875727
0.00842516
0.00810928
0.00782753
0.0075848
0.00737343
0.00721713
0.00708566
0.00701425
0.00697277
0.00699847
0.00704745
0.00717893
0.00734296
0.00760983
0.00789009
0.00829506
0.00873502
0.009383
0.0101936
0.011803
0.00417777
0.000660798
9.35404e-05
1.30115e-05
3.02411e-06
2.43247e-06
2.47688e-06
3.4236e-06
3.90756e-06
5.75852e-06
6.33291e-06
7.07281e-06
7.10648e-06
6.9196e-06
6.99015e-06
7.51588e-06
7.95625e-06
8.35107e-06
9.06722e-06
9.96728e-06
1.14642e-05
1.38608e-05
1.50226e-05
1.85289e-05
2.01538e-05
2.61605e-05
3.18944e-05
4.40674e-05
5.39118e-05
7.42116e-05
8.90666e-05
0.000119814
0.000140053
0.000183253
0.000209683
0.000266275
0.00030437
0.000384804
0.000474742
0.000615961
0.000768359
0.000966347
0.00117032
0.00140612
0.0016343
0.00186277
0.00206984
0.00225937
0.00240818
0.0025192
0.00258885
0.00264207
0.00265124
0.00263236
0.00259346
0.00253931
0.00248102
0.00240955
0.00236149
0.00224446
0.0022009
0.00211349
0.00207819
0.00204642
0.00202534
0.00203786
0.00202962
0.0020903
0.00211589
0.00223906
0.00231775
0.00251945
0.00267467
0.0029936
0.00326314
0.00379569
0.0042536
0.00504318
0.0059277
0.00760577
0.00448849
0.000867362
0.000160184
1.71135e-05
1.83941e-06
2.49546e-07
6.9773e-08
7.27328e-08
1.45748e-07
3.5647e-07
4.47188e-07
7.85207e-07
7.78074e-07
1.13944e-06
1.08939e-06
1.25098e-06
1.48634e-06
1.73147e-06
1.95872e-06
2.15395e-06
2.48785e-06
2.73285e-06
2.98671e-06
3.255e-06
3.48083e-06
3.96706e-06
4.36113e-06
5.34399e-06
5.94893e-06
7.38682e-06
8.1352e-06
9.8519e-06
1.06163e-05
1.21175e-05
1.27442e-05
1.3468e-05
1.32587e-05
1.31845e-05
1.27238e-05
1.37391e-05
1.39326e-05
1.63996e-05
1.9117e-05
2.46986e-05
3.19477e-05
4.22556e-05
5.46812e-05
6.96493e-05
8.59176e-05
0.000102946
0.000118754
0.000134412
0.000147854
0.000159529
0.000167687
0.000174336
0.000178509
0.000183794
0.000185241
0.000191147
0.000190135
0.000197851
0.000196282
0.000211878
0.000210607
0.000240641
0.000239561
0.000285696
0.000287643
0.000356911
0.000370704
0.000473302
0.000509938
0.000668976
0.000755738
0.0010178
0.00124379
0.00168964
0.00238884
0.0037601
0.00440882
0.00131419
0.000410623
5.99141e-05
2.48401e-06
5.53614e-08
2.20457e-09
1.42534e-09
5.28643e-09
1.29441e-08
2.19125e-08
6.49841e-08
6.0667e-08
1.00208e-07
1.07238e-07
1.22136e-07
1.69151e-07
2.08541e-07
2.51367e-07
2.86368e-07
3.26008e-07
3.85662e-07
4.27346e-07
4.88997e-07
5.26668e-07
6.07077e-07
6.53912e-07
7.6974e-07
8.30412e-07
9.60152e-07
1.02733e-06
1.13738e-06
1.18524e-06
1.25514e-06
1.25688e-06
1.2395e-06
1.19145e-06
1.15612e-06
1.10801e-06
1.01782e-06
9.94215e-07
9.04009e-07
8.85468e-07
8.62716e-07
8.79911e-07
8.42888e-07
1.00029e-06
9.02052e-07
1.34163e-06
1.18383e-06
2.16958e-06
2.00994e-06
3.76159e-06
3.95556e-06
6.28637e-06
7.28582e-06
1.05273e-05
1.28428e-05
1.76909e-05
2.24955e-05
2.96595e-05
3.81455e-05
4.82122e-05
6.18034e-05
7.50754e-05
9.58558e-05
0.000112282
0.000143749
0.000162586
0.000210221
0.000231789
0.000302106
0.000330633
0.000429949
0.000476222
0.000616126
0.000694052
0.000898773
0.00116631
0.00172166
0.00409771
0.00133357
0.000442973
7.42471e-05
3.14298e-05
3.00432e-06
3.05038e-07
7.01341e-09
1.14886e-10
2.31058e-11
2.9598e-10
1.24011e-09
2.73996e-09
4.74596e-09
6.55017e-09
9.20395e-09
1.3538e-08
1.87754e-08
2.41029e-08
2.95166e-08
3.51456e-08
4.14354e-08
4.7698e-08
5.4267e-08
6.04129e-08
6.70528e-08
7.33652e-08
8.03939e-08
8.69356e-08
9.36576e-08
9.93848e-08
1.04297e-07
1.07414e-07
1.09002e-07
1.13061e-07
1.0735e-07
1.15448e-07
1.42099e-07
1.96991e-07
2.27716e-07
5.0258e-07
6.02041e-07
9.9072e-07
1.4936e-06
2.32105e-06
3.50275e-06
4.66434e-06
6.33235e-06
8.7456e-06
1.15678e-05
1.60865e-05
2.05848e-05
2.83292e-05
3.49243e-05
4.72215e-05
5.67744e-05
7.79286e-05
9.39783e-05
0.000131986
0.000156256
0.000212918
0.000246293
0.000325107
0.000368861
0.000475402
0.000532236
0.000674602
0.00075103
0.000936638
0.00104706
0.00128279
0.00143902
0.00173065
0.00192911
0.00227137
0.00248791
0.00285941
0.00304424
0.00337324
0.00348432
0.0039782
0.000581824
7.34948e-05
9.53106e-06
2.59425e-06
7.70628e-07
2.81753e-07
2.05761e-07
3.67168e-07
1.71471e-07
1.33426e-07
1.27522e-07
1.56044e-07
1.77526e-07
2.35328e-07
3.68884e-07
4.72324e-07
5.84387e-07
7.07629e-07
8.42107e-07
9.87663e-07
1.14408e-06
1.31064e-06
1.48804e-06
1.67576e-06
1.87599e-06
2.08852e-06
2.31717e-06
2.56347e-06
2.83056e-06
3.12227e-06
3.44334e-06
3.79954e-06
4.19811e-06
4.65386e-06
5.55321e-06
7.10996e-06
9.5036e-06
1.26293e-05
1.50718e-05
2.37144e-05
2.78765e-05
3.71804e-05
4.61179e-05
5.69913e-05
7.34592e-05
8.75327e-05
0.000111815
0.000131147
0.000164497
0.000189643
0.000236853
0.000270451
0.000333258
0.000381339
0.000487073
0.000606733
0.000784745
0.000944593
0.00114766
0.00134407
0.00158515
0.00183347
0.00212387
0.00243636
0.00278069
0.0031603
0.00354739
0.00397761
0.00436955
0.00480485
0.00514443
0.00550085
0.00573362
0.00595217
0.00606657
0.00613569
0.00610271
0.00612853
0.00587293
0.0043654
0.000845352
0.000248317
0.000110316
0.000126127
0.000170801
0.000218203
0.000287424
0.000372891
0.000377617
0.000367889
0.000359786
0.000351814
0.000349881
0.000347934
0.000349274
0.000351425
0.00035417
0.00035742
0.000361177
0.000365424
0.000370225
0.000375553
0.00038152
0.000388066
0.000395362
0.000403309
0.000412145
0.000421822
0.000432449
0.000444084
0.000456879
0.000470937
0.000486539
0.000508374
0.000536653
0.000561719
0.000616275
0.000651318
0.000709182
0.00076181
0.000825477
0.000900159
0.00097781
0.00106523
0.00115776
0.00126018
0.00137311
0.00149611
0.00163847
0.00179024
0.00197599
0.0021703
0.00242174
0.00268166
0.00300976
0.00329348
0.00365714
0.00402025
0.00450778
0.00499383
0.00560122
0.00618712
0.00686163
0.00746621
0.00809501
0.00858705
0.00903241
0.00929376
0.00946935
0.00949968
0.00935561
0.00922642
0.00891169
0.00870603
0.00829489
0.00809913
0.00764093
0.00753947
0.00698428
0.0155765
0.0132824
0.0116157
0.0103684
0.00941559
0.00867902
0.00807336
0.00762445
0.00714647
0.00685101
0.00659436
0.00636908
0.00617157
0.00599974
0.005849
0.0057176
0.00560127
0.0054995
0.00540859
0.00532908
0.00525747
0.00519513
0.0051385
0.00508974
0.00504498
0.00500726
0.00497205
0.00494346
0.00491601
0.00489504
0.00487393
0.00485939
0.00484346
0.0048345
0.00482422
0.00481205
0.00479566
0.00477711
0.00475326
0.00472644
0.0046939
0.00465777
0.0046145
0.0045675
0.00451228
0.00445313
0.00438482
0.00431267
0.00423071
0.00414563
0.00405056
0.00395399
0.0038481
0.00374376
0.00363241
0.0035277
0.00342036
0.00332428
0.00323167
0.00315817
0.00310009
0.00306879
0.0030643
0.00310541
0.0031699
0.0032853
0.00342534
0.00360075
0.00379469
0.00399301
0.00420982
0.00440163
0.00459551
0.00477562
0.00493522
0.00513308
0.00525464
0.00553581
0.00565403
0.00618064
)
;

boundaryField
{
    inlet
    {
        type            fixedValue;
        value           uniform 0.017;
    }
    outlet
    {
        type            zeroGradient;
    }
    fixedWalls
    {
        type            kqRWallFunction;
        value           nonuniform List<scalar> 
160
(
0.0155765
0.0132824
0.0116157
0.0103684
0.00941559
0.00867902
0.00807336
0.00762445
0.00714647
0.00685101
0.00659436
0.00636908
0.00617157
0.00599974
0.005849
0.0057176
0.00560127
0.0054995
0.00540859
0.00532908
0.00525747
0.00519513
0.0051385
0.00508974
0.00504498
0.00500726
0.00497205
0.00494346
0.00491601
0.00489504
0.00487393
0.00485939
0.00484346
0.0048345
0.00482422
0.00481205
0.00479566
0.00477711
0.00475326
0.00472644
0.0046939
0.00465777
0.0046145
0.0045675
0.00451228
0.00445313
0.00438482
0.00431267
0.00423071
0.00414563
0.00405056
0.00395399
0.0038481
0.00374376
0.00363241
0.0035277
0.00342036
0.00332428
0.00323167
0.00315817
0.00310009
0.00306879
0.0030643
0.00310541
0.0031699
0.0032853
0.00342534
0.00360075
0.00379469
0.00399301
0.00420982
0.00440163
0.00459551
0.00477562
0.00493522
0.00513308
0.00525464
0.00553581
0.00565403
0.00618064
0.0136659
0.00140263
0.00104416
0.000964192
0.000784325
0.000886234
0.000915146
0.00101359
0.00111068
0.0012222
0.00132599
0.00143859
0.00155566
0.00168226
0.00181678
0.00196054
0.00211281
0.0022739
0.00244343
0.00262115
0.00280671
0.00299968
0.00319971
0.00340636
0.00361918
0.0038376
0.0040611
0.00428914
0.00452115
0.00475656
0.00499477
0.00523512
0.00547691
0.00571933
0.00596149
0.00620232
0.00644055
0.00667487
0.00690491
0.00713498
0.00736303
0.00758916
0.00781327
0.00803483
0.00825329
0.0084679
0.00867795
0.00888257
0.00908096
0.00927221
0.00945542
0.00962965
0.00979401
0.00994756
0.0100894
0.0102189
0.0103353
0.0104368
0.0105227
0.0105959
0.0106575
0.010717
0.0108529
0.011026
0.0111976
0.0113663
0.0115342
0.0117014
0.01187
0.0120436
0.0122247
0.0124196
0.0126242
0.0128682
0.013113
0.0134745
0.0137265
0.014485
0.0145371
0.0169299
)
;
    }
    frontAndBack
    {
        type            empty;
    }
}


// ************************************************************************* //
