/*--------------------------------*- C++ -*----------------------------------*\
| =========                 |                                                 |
| \\      /  F ield         | OpenFOAM: The Open Source CFD Toolbox           |
|  \\    /   O peration     | Version:  v1912                                 |
|   \\  /    A nd           | Website:  www.openfoam.com                      |
|    \\/     M anipulation  |                                                 |
\*---------------------------------------------------------------------------*/
FoamFile
{
    version     2.0;
    format      ascii;
    class       volScalarField;
    location    "480";
    object      nut;
}
// * * * * * * * * * * * * * * * * * * * * * * * * * * * * * * * * * * * * * //

dimensions      [0 2 -1 0 0 0 0];


internalField   nonuniform List<scalar> 
2000
(
0.000529587
0.000185057
0.000165857
0.000242167
0.000151995
0.000193495
0.000187715
0.000212841
0.000230523
0.000251196
0.000271091
0.000291817
0.000312992
0.000335014
0.000357666
0.000381038
0.000405024
0.000429613
0.000454721
0.000480273
0.000506179
0.000532346
0.000558688
0.00058512
0.00061155
0.000637885
0.000664039
0.000689922
0.000715452
0.00074054
0.000765107
0.000789064
0.000812328
0.000834808
0.000856414
0.000877043
0.000896587
0.000914937
0.000932058
0.000948224
0.00096327
0.000977191
0.000989961
0.00100153
0.00101185
0.00102086
0.00102851
0.00103474
0.00103951
0.00104277
0.00104447
0.00104456
0.001043
0.00103977
0.00103481
0.00102813
0.00101972
0.0010095
0.000997498
0.000983875
0.000968716
0.000952472
0.00093855
0.000925032
0.000910189
0.000893968
0.000876446
0.000857616
0.000837552
0.000816381
0.000794126
0.000770985
0.000746689
0.000722191
0.000695951
0.000671523
0.000641495
0.000624995
0.000573543
0.000593796
5.77744e-05
2.39424e-05
0.000336506
0.00046758
0.000900414
0.000969268
0.00117721
0.00131949
0.00146489
0.00165002
0.00181331
0.00197494
0.00213256
0.0022934
0.00245741
0.00262637
0.00280008
0.00297902
0.00316332
0.00335287
0.00354753
0.00374686
0.00395055
0.00415835
0.0043699
0.00458467
0.00480223
0.00502209
0.00524377
0.00546678
0.00569068
0.00591496
0.00613914
0.00636268
0.00658503
0.0068055
0.00702293
0.00723458
0.00743371
0.00760639
0.00776897
0.00792563
0.00807579
0.00821927
0.0083557
0.0084846
0.00860544
0.00871767
0.00882067
0.00891385
0.00899658
0.00906824
0.00912822
0.00917593
0.00921083
0.00923246
0.0092408
0.00923423
0.00921162
0.00917234
0.00911805
0.00904238
0.00892702
0.0087815
0.00861632
0.00843434
0.00823793
0.00802727
0.00780397
0.0075696
0.0073249
0.00707008
0.00680634
0.00654081
0.00626442
0.0059934
0.00572584
0.00547007
0.00519684
0.00520115
2.52499e-05
1.45445e-05
6.30151e-05
0.000609309
0.00132211
0.00124655
0.0018463
0.00205172
0.00241581
0.00279667
0.00314014
0.00347282
0.00379424
0.00411797
0.00444455
0.00477699
0.00511547
0.00546003
0.00581125
0.00616869
0.00653217
0.00690106
0.00727477
0.00765289
0.0080355
0.00842176
0.00880959
0.00919817
0.00958658
0.00997394
0.0103593
0.0107418
0.0111203
0.0114938
0.0118611
0.0122208
0.0125707
0.0129076
0.0132265
0.0135253
0.0138113
0.0140857
0.0143479
0.0145976
0.0148341
0.0150567
0.0152647
0.015457
0.0156329
0.0157913
0.0159315
0.0160525
0.0161533
0.0162333
0.0162917
0.0163278
0.0163409
0.0163303
0.0162951
0.0162345
0.0161484
0.0160324
0.015874
0.015679
0.0154538
0.0152077
0.0149422
0.0146522
0.0143413
0.014012
0.0136639
0.0132972
0.012913
0.0125327
0.0121118
0.0117499
0.0113068
0.0110122
0.0105637
0.0105008
1.97998e-05
8.48152e-06
1.72489e-05
0.000207776
0.00108746
0.00136081
0.00184212
0.002226
0.00273838
0.00325911
0.00377563
0.00426664
0.00473707
0.00520729
0.00567806
0.00615338
0.00663414
0.00711916
0.00760971
0.008105
0.00860487
0.00910873
0.00961576
0.010125
0.0106349
0.0111444
0.0116535
0.0121609
0.0126653
0.0131658
0.013661
0.0141497
0.0146306
0.0151022
0.0155631
0.0160115
0.0164455
0.016863
0.017263
0.0176443
0.0180088
0.0183569
0.018688
0.0190019
0.0192978
0.019575
0.0198327
0.0200701
0.0202861
0.0204799
0.0206506
0.0207974
0.0209195
0.0210159
0.0210862
0.0211297
0.0211455
0.0211332
0.0210921
0.0210216
0.0209217
0.0207903
0.0206206
0.0204161
0.0201782
0.0199092
0.019614
0.0192883
0.0189401
0.0185722
0.0181814
0.0177795
0.0173611
0.0169491
0.0164801
0.0161102
0.0155901
0.0152745
0.0147984
0.0145334
1.86895e-05
7.97185e-06
8.59792e-06
3.17685e-05
0.00052853
0.00144482
0.00180025
0.00214669
0.00265043
0.00326187
0.00389066
0.00449751
0.0050859
0.00567217
0.00625817
0.00684785
0.00744365
0.00804119
0.00864295
0.00924719
0.00985378
0.0104622
0.0110716
0.0116809
0.0122887
0.0128941
0.0134965
0.0140944
0.0146866
0.0152718
0.0158488
0.016416
0.016972
0.0175153
0.0180443
0.0185572
0.0190524
0.0195283
0.0199839
0.0204185
0.0208325
0.0212259
0.0215982
0.021949
0.0222777
0.0225839
0.0228667
0.0231253
0.0233591
0.0235672
0.0237489
0.0239038
0.0240311
0.0241301
0.0242005
0.0242422
0.024254
0.0242359
0.0241875
0.0241084
0.023999
0.0238595
0.023684
0.0234782
0.0232386
0.0229694
0.0226762
0.0223512
0.0220026
0.0216332
0.0212423
0.0208321
0.0204075
0.0200047
0.019538
0.0191881
0.018651
0.0183334
0.0178452
0.0174145
1.83182e-05
8.03995e-06
5.55941e-06
1.37169e-05
0.00012807
0.000805588
0.00173509
0.0021581
0.00248182
0.00306617
0.00373432
0.00437962
0.00504203
0.00570222
0.00636503
0.00703584
0.00771892
0.00840267
0.00909164
0.00978191
0.0104729
0.0111638
0.0118538
0.0125421
0.0132264
0.013906
0.0145802
0.0152472
0.0159058
0.0165547
0.0171928
0.0178184
0.0184299
0.0190258
0.0196047
0.0201648
0.0207045
0.0212222
0.0217171
0.0221883
0.0226355
0.0230583
0.0234564
0.0238292
0.0241764
0.0244975
0.024792
0.0250591
0.0252983
0.025509
0.0256909
0.0258436
0.0259668
0.0260599
0.0261229
0.0261566
0.0261591
0.0261312
0.0260728
0.0259833
0.0258645
0.0257182
0.0255358
0.0253301
0.0250946
0.024825
0.0245349
0.0242215
0.0238834
0.0235264
0.0231497
0.0227584
0.0223631
0.0219691
0.0215454
0.0212088
0.0206919
0.0203893
0.0198723
0.0193843
1.81563e-05
8.01575e-06
4.70166e-06
8.96451e-06
2.74925e-05
0.000241446
0.00106891
0.00191622
0.00238079
0.00289693
0.0035303
0.00412736
0.00478118
0.00545494
0.00615088
0.00686023
0.00759162
0.00832774
0.00907516
0.00982569
0.0105778
0.0113295
0.0120799
0.0128284
0.0135715
0.0143079
0.0150378
0.0157583
0.0164681
0.0171663
0.0178517
0.0185224
0.0191768
0.0198136
0.0204313
0.0210279
0.0216018
0.0221515
0.0226759
0.0231739
0.0236451
0.0240887
0.0245042
0.024891
0.0252489
0.0255778
0.0258769
0.0261458
0.0263839
0.026591
0.0267669
0.0269118
0.0270257
0.0271076
0.0271584
0.0271801
0.0271693
0.0271283
0.0270572
0.0269549
0.0268249
0.0266717
0.0264849
0.0262716
0.0260354
0.0257672
0.0254808
0.0251689
0.0248355
0.024489
0.0241315
0.0237716
0.0234018
0.0230231
0.0226471
0.0223474
0.0218948
0.0216237
0.0211168
0.0206391
1.81542e-05
7.71784e-06
4.62715e-06
4.6899e-06
1.04629e-05
5.01935e-05
0.000328001
0.00130105
0.00224391
0.00260612
0.00334083
0.00386077
0.00446827
0.005093
0.00577511
0.00647088
0.00720765
0.00795952
0.00872674
0.00950533
0.0102905
0.0110774
0.0118643
0.0126525
0.0134355
0.0142111
0.0149814
0.0157411
0.0164885
0.0172233
0.0179447
0.0186498
0.0193373
0.0200057
0.0206537
0.021279
0.0218796
0.0224541
0.0230012
0.0235198
0.0240089
0.0244679
0.0248958
0.0252921
0.0256564
0.025989
0.0262891
0.026556
0.0267897
0.0269897
0.0271565
0.0272903
0.0273921
0.0274598
0.0274952
0.0275033
0.0274761
0.0274201
0.0273345
0.0272171
0.0270776
0.0268956
0.0266841
0.0264545
0.026204
0.0259313
0.0256421
0.0253488
0.0250527
0.0247479
0.0244182
0.0240833
0.0237449
0.0234086
0.0230948
0.0228295
0.0224651
0.0222281
0.0217617
0.0213002
1.82389e-05
7.89646e-06
3.79706e-06
2.89852e-06
3.92546e-06
1.11575e-05
6.17823e-05
0.000341046
0.0015143
0.0021248
0.00286736
0.00338971
0.00408902
0.00468716
0.00534126
0.0060056
0.00670668
0.00743468
0.0081849
0.00895676
0.00974302
0.0105352
0.0113297
0.0121332
0.0129334
0.0137266
0.0145196
0.0153018
0.0160712
0.0168284
0.0175733
0.0183011
0.019011
0.0197013
0.0203707
0.0210165
0.0216363
0.0222283
0.0227916
0.0233248
0.0238268
0.0242965
0.024733
0.0251351
0.0255026
0.0258364
0.026135
0.0263977
0.0266249
0.0268158
0.0269716
0.0270927
0.0271812
0.0272327
0.0272506
0.0272347
0.0271738
0.0270867
0.0269763
0.0268226
0.0266536
0.0264676
0.0262659
0.0260545
0.0258314
0.0255896
0.0253325
0.0250479
0.0247484
0.0244432
0.0241362
0.0238311
0.0235302
0.0232322
0.022947
0.0227193
0.0224707
0.0222704
0.0218762
0.0214503
1.82892e-05
8.1695e-06
4.15593e-06
1.54094e-06
2.14642e-06
3.9667e-06
1.55676e-05
5.61844e-05
0.000347263
0.000938571
0.00226567
0.00294651
0.00354723
0.00413551
0.00484683
0.00547368
0.00615008
0.00685236
0.00755116
0.0082911
0.00905295
0.00982176
0.010598
0.0113851
0.0121766
0.0129638
0.0137596
0.0145439
0.0153158
0.0160778
0.0168312
0.0175668
0.0182857
0.0189852
0.0196649
0.0203209
0.0209499
0.0215503
0.0221217
0.0226623
0.0231708
0.0236458
0.0240863
0.0244903
0.0248573
0.02519
0.0254846
0.025741
0.02596
0.0261401
0.0262708
0.0263627
0.0264216
0.0264378
0.0264223
0.0263873
0.0263251
0.0262338
0.0261247
0.0259938
0.0258486
0.025679
0.0254863
0.0252662
0.0250201
0.024758
0.0244847
0.0242057
0.023922
0.0236374
0.0233559
0.0230813
0.0228176
0.0225661
0.0223283
0.0221143
0.0219801
0.0218254
0.0215311
0.0211682
1.82092e-05
9.27394e-06
5.44049e-06
1.9091e-06
1.40595e-06
1.65177e-06
2.05086e-06
3.20854e-05
3.0504e-05
0.000316927
0.000572362
0.00180726
0.00289519
0.00349736
0.00412506
0.00472953
0.00546845
0.00615945
0.00683681
0.00754925
0.00827613
0.0090045
0.00974181
0.0104943
0.0112556
0.01202
0.0127881
0.0135528
0.0143085
0.0150558
0.0158014
0.0165262
0.0172378
0.0179312
0.0186075
0.0192603
0.0198853
0.020482
0.0210508
0.0215895
0.0220962
0.0225696
0.0230081
0.0234083
0.0237665
0.0240835
0.0243567
0.0245887
0.0247806
0.0249315
0.0250549
0.025146
0.0252097
0.0252236
0.0252177
0.02519
0.0251367
0.0250537
0.0249467
0.0248028
0.0246241
0.0244214
0.0241989
0.0239626
0.0237159
0.0234595
0.0231962
0.0229302
0.0226644
0.0224023
0.0221482
0.0219058
0.0216802
0.0214731
0.0212946
0.0211137
0.0210547
0.0209589
0.0207874
0.0205126
1.79836e-05
8.99124e-06
8.53344e-06
3.60745e-06
2.01154e-06
2.02869e-06
1.41619e-06
3.41221e-06
1.22484e-05
2.70327e-05
0.000171099
0.000282366
0.000969167
0.0020725
0.00327274
0.00392213
0.00458847
0.00519117
0.00588432
0.00665067
0.00736097
0.00805348
0.00875475
0.00947353
0.0101974
0.0109254
0.0116544
0.0123824
0.0131061
0.0138228
0.0145346
0.0152352
0.0159243
0.0165948
0.0172537
0.0178875
0.0184924
0.0190703
0.0196182
0.0201353
0.0206201
0.0210711
0.021487
0.0218662
0.0222162
0.0225311
0.0228011
0.0230333
0.0232281
0.0233827
0.0234941
0.0235911
0.0236647
0.0236894
0.023687
0.0236378
0.023547
0.0234243
0.0232755
0.0231052
0.022917
0.0227112
0.0224898
0.0222568
0.0220156
0.0217689
0.0215196
0.0212712
0.0210274
0.0207914
0.0205683
0.0203609
0.0201759
0.0200141
0.0198888
0.0197752
0.0197572
0.0197309
0.0196973
0.0195289
1.80293e-05
8.13815e-06
7.38853e-06
7.21866e-06
6.94044e-06
3.5904e-06
2.20456e-06
2.6192e-06
3.50231e-06
4.21377e-06
5.50661e-05
3.57803e-05
0.000237823
0.000345728
0.00107297
0.00197419
0.0032378
0.004234
0.00490661
0.00554773
0.00613173
0.00680709
0.00752134
0.00824327
0.00894327
0.00964059
0.0103309
0.0110183
0.0117019
0.0123785
0.0130494
0.0137129
0.014367
0.014999
0.0156117
0.0162023
0.0167693
0.0173127
0.0178321
0.0183258
0.0187925
0.0192299
0.0196373
0.0200072
0.020344
0.0206452
0.0209133
0.0211533
0.0213484
0.0215183
0.0216417
0.0217013
0.0217253
0.0217091
0.0216592
0.021581
0.0214763
0.0213453
0.021191
0.0210167
0.020826
0.0206215
0.0204056
0.0201814
0.0199524
0.0197216
0.0194923
0.0192677
0.0190519
0.0188474
0.0186606
0.0184924
0.018352
0.0182385
0.0181644
0.0181318
0.0181479
0.0181895
0.0182928
0.0182615
1.80819e-05
7.9353e-06
5.71876e-06
8.17746e-06
8.59621e-06
1.18255e-05
4.72645e-06
3.10278e-06
3.02364e-06
2.32592e-06
1.50719e-05
7.2548e-06
5.39152e-05
4.83595e-05
0.00020754
0.000368928
0.000802085
0.00161358
0.00252411
0.003798
0.00475075
0.00555074
0.00622627
0.00685272
0.00744331
0.00808643
0.00872623
0.00937492
0.0100228
0.0106637
0.0112986
0.0119262
0.012541
0.0131327
0.0137016
0.0142476
0.0147742
0.0152827
0.015774
0.0162449
0.016695
0.0171206
0.017522
0.0178863
0.0182001
0.0184727
0.0187028
0.0189099
0.0190701
0.0191843
0.0192624
0.0193033
0.0193098
0.019282
0.0192224
0.0191345
0.0190214
0.0188853
0.0187294
0.0185566
0.0183704
0.018174
0.0179703
0.0177624
0.0175534
0.0173465
0.0171452
0.0169522
0.016772
0.0166063
0.0164629
0.0163393
0.0162497
0.0161877
0.0161699
0.0162167
0.0162689
0.0163799
0.0165902
0.0167559
1.83072e-05
8.06579e-06
6.39825e-06
8.48023e-06
1.01688e-05
1.38883e-05
5.46986e-06
4.59253e-06
3.70559e-06
3.1232e-06
4.94655e-06
4.24399e-06
1.48236e-05
9.83703e-06
4.14193e-05
5.24634e-05
0.00014736
0.000257094
0.000575304
0.000949528
0.00162154
0.00252204
0.00346481
0.00449418
0.00540346
0.00618443
0.0068602
0.00752313
0.00811583
0.00868564
0.00926284
0.00983372
0.0103792
0.0109159
0.0114377
0.0119374
0.0124241
0.0128955
0.0133523
0.0137872
0.0142025
0.0145913
0.0149554
0.0152622
0.0155342
0.0157893
0.0160097
0.0161828
0.0163201
0.0164186
0.0164799
0.0165059
0.0164993
0.0164618
0.0163956
0.0163034
0.0161887
0.016054
0.0159035
0.0157398
0.0155667
0.0153874
0.0152049
0.0150227
0.0148433
0.0146701
0.0145064
0.0143546
0.0142193
0.014101
0.0140097
0.0139372
0.0139064
0.0138994
0.0139516
0.0140539
0.0141625
0.0143471
0.0146366
0.0150261
1.79833e-05
9.48872e-06
9.14194e-06
1.06886e-05
1.03926e-05
2.15699e-05
8.66966e-06
1.10937e-05
5.07261e-06
2.87371e-06
2.51784e-06
3.64353e-06
5.11241e-06
4.5551e-06
1.05647e-05
9.71726e-06
2.35894e-05
3.66518e-05
8.66132e-05
0.000152097
0.000279648
0.0004726
0.000815335
0.00125132
0.00182016
0.00256006
0.00336288
0.00420483
0.00500858
0.00575866
0.00645537
0.00708251
0.00762364
0.00815866
0.00863897
0.00909392
0.00956062
0.0100113
0.0104476
0.010855
0.0112494
0.011613
0.011941
0.0122024
0.0124543
0.0126818
0.0128677
0.0130231
0.0131423
0.0132264
0.0132751
0.0132931
0.0132817
0.0132424
0.0131776
0.0130898
0.012983
0.0128596
0.0127252
0.0125813
0.012433
0.0122823
0.0121327
0.0119878
0.0118494
0.0117219
0.0116071
0.0115076
0.0114274
0.011367
0.0113368
0.0113221
0.0113607
0.0114131
0.0115441
0.0116658
0.0118866
0.0121367
0.0124587
0.013086
1.71063e-05
7.97926e-06
1.03037e-05
1.3636e-05
1.60054e-05
2.48021e-05
1.94199e-05
1.19087e-05
9.69716e-06
6.46678e-06
1.14021e-05
4.04521e-06
2.69871e-06
3.14337e-06
3.88774e-06
3.24917e-06
5.48976e-06
6.75796e-06
1.39018e-05
2.27438e-05
3.84937e-05
6.68847e-05
0.000107137
0.000186507
0.00028553
0.000451449
0.000673838
0.000990746
0.00138967
0.00188782
0.00241812
0.00303144
0.0036728
0.00432787
0.00496702
0.00555925
0.00609185
0.00656698
0.00700393
0.00739739
0.00780569
0.00812574
0.00840334
0.00863377
0.00882786
0.00903071
0.0092264
0.00938266
0.00949274
0.0095722
0.00962113
0.00964832
0.00964858
0.00962241
0.00957339
0.00950378
0.00941946
0.00932189
0.00922023
0.009111
0.00900325
0.00889567
0.00879293
0.00869968
0.0086152
0.00854742
0.00849339
0.00845808
0.0084427
0.00845192
0.00848865
0.00853911
0.00866077
0.0087605
0.00894881
0.00917523
0.00941568
0.00976404
0.0101341
0.0109287
1.57657e-05
2.29914e-06
3.20381e-07
2.07257e-07
1.78658e-07
3.42148e-07
1.42712e-06
2.00757e-06
2.51747e-06
2.27661e-06
2.01155e-06
1.75631e-06
1.70212e-06
1.82104e-06
2.10152e-06
2.19971e-06
2.50716e-06
2.79582e-06
3.76029e-06
5.14726e-06
7.44685e-06
1.1261e-05
1.53634e-05
2.34838e-05
3.43871e-05
5.28166e-05
7.80972e-05
0.000115258
0.000167688
0.000241009
0.000341303
0.000469783
0.000640966
0.000851889
0.00111486
0.0014215
0.00177556
0.00216064
0.0025507
0.00293847
0.00329617
0.00365932
0.00399939
0.00433834
0.00460089
0.00486493
0.00509968
0.00528755
0.00536765
0.00546375
0.0055615
0.00564578
0.00568007
0.00568389
0.00566556
0.00563065
0.00558879
0.00554097
0.00549949
0.00544096
0.00539353
0.00534052
0.00529888
0.00527105
0.00525246
0.00525884
0.00526921
0.00530394
0.00535695
0.00544345
0.0055321
0.00566877
0.00582759
0.0060458
0.00623897
0.00652548
0.00676995
0.00722324
0.00764302
0.00859173
1.68731e-05
1.33327e-06
7.21377e-08
6.20368e-09
9.14309e-10
1.006e-09
1.807e-09
7.33512e-09
1.88946e-08
1.0483e-07
2.76376e-07
5.03838e-07
6.298e-07
6.49919e-07
7.43868e-07
9.68994e-07
1.19731e-06
1.42007e-06
1.71325e-06
2.02309e-06
2.47699e-06
3.33867e-06
3.3898e-06
4.76465e-06
4.67673e-06
6.77583e-06
8.43951e-06
1.23256e-05
1.54675e-05
2.24165e-05
2.76414e-05
3.93938e-05
4.71901e-05
6.58909e-05
7.74545e-05
0.000105224
0.000125877
0.000169719
0.000217377
0.000294372
0.000375666
0.000484938
0.000596891
0.00073233
0.000865025
0.00100223
0.00113377
0.00125947
0.00136679
0.00145108
0.00152137
0.00159506
0.0016349
0.00165753
0.00165224
0.00169172
0.00167215
0.00172513
0.00171544
0.00169132
0.00168259
0.00167626
0.00166904
0.00170923
0.00171066
0.00175361
0.00176762
0.00183994
0.00188779
0.00201211
0.00209852
0.00227962
0.0024281
0.00270073
0.00294048
0.00342013
0.00380502
0.00447535
0.00497615
0.00606664
2.37878e-05
3.6183e-06
2.61881e-07
1.22021e-08
2.9105e-09
6.45109e-10
1.24963e-10
3.88658e-10
2.31624e-09
2.04298e-08
2.67589e-08
7.7727e-08
5.58775e-08
1.62619e-07
7.52862e-08
1.18922e-07
1.7245e-07
2.36387e-07
3.00106e-07
3.60265e-07
4.70412e-07
5.51569e-07
6.22297e-07
7.04594e-07
7.72285e-07
9.5294e-07
1.06806e-06
1.48196e-06
1.6802e-06
2.27104e-06
2.55034e-06
3.30463e-06
3.57804e-06
4.37003e-06
4.65425e-06
5.27456e-06
5.30165e-06
5.67615e-06
5.51127e-06
6.50817e-06
6.75175e-06
8.68371e-06
1.06547e-05
1.48921e-05
2.01919e-05
2.81333e-05
3.74607e-05
4.93878e-05
6.20103e-05
7.63415e-05
8.88876e-05
0.000103398
0.000114724
0.000127356
0.000134073
0.000143736
0.00014609
0.000156214
0.000155922
0.00016733
0.000161735
0.000173551
0.000163394
0.000179798
0.000167439
0.000192036
0.000182007
0.000211942
0.000208771
0.00025959
0.000266431
0.000347822
0.000375207
0.00050266
0.000576292
0.000790525
0.000983013
0.00138071
0.00185405
0.00300092
2.17968e-05
2.65116e-05
1.36154e-05
9.54521e-07
4.45094e-09
1.04975e-11
2.8686e-13
3.33256e-12
1.86144e-10
1.1936e-09
1.56266e-09
7.91118e-09
4.01976e-09
8.25905e-09
6.80191e-09
9.96151e-09
2.03546e-08
2.70625e-08
3.40794e-08
4.04768e-08
5.05793e-08
6.72064e-08
7.94582e-08
9.83198e-08
1.11086e-07
1.41048e-07
1.58743e-07
2.09717e-07
2.37117e-07
2.99134e-07
3.33513e-07
3.89503e-07
4.20852e-07
4.76214e-07
4.84101e-07
4.99221e-07
4.83112e-07
4.90683e-07
4.86374e-07
4.47997e-07
4.6948e-07
4.13196e-07
4.3401e-07
4.26462e-07
4.3841e-07
4.06502e-07
4.86973e-07
3.87876e-07
6.13835e-07
4.57344e-07
1.00201e-06
7.44627e-07
1.66796e-06
1.5722e-06
2.59432e-06
2.93554e-06
4.21569e-06
5.11605e-06
6.8836e-06
9.18618e-06
1.10366e-05
1.56581e-05
1.71698e-05
2.47467e-05
2.60714e-05
3.77567e-05
3.88204e-05
5.5519e-05
5.60758e-05
7.923e-05
7.97713e-05
0.000111594
0.000114506
0.00015692
0.000168107
0.000226372
0.000254599
0.000340817
0.000504908
0.000836325
1.60106e-05
2.30107e-05
1.49698e-05
2.24127e-06
1.66854e-05
6.79661e-07
1.61456e-07
5.10095e-10
2.8269e-12
4.69023e-15
8.16978e-13
1.4176e-11
7.58844e-11
1.8405e-10
2.76159e-10
4.89918e-10
9.94548e-10
1.80326e-09
2.79282e-09
3.96438e-09
5.29609e-09
6.9366e-09
8.70651e-09
1.07054e-08
1.27164e-08
1.50741e-08
1.75079e-08
2.04779e-08
2.35142e-08
2.69151e-08
2.99717e-08
3.32559e-08
3.46429e-08
3.79852e-08
3.99809e-08
4.05688e-08
4.49155e-08
5.59954e-08
9.37855e-08
5.69628e-08
2.3603e-07
1.43314e-07
3.00486e-07
4.21578e-07
7.11259e-07
1.12314e-06
1.40919e-06
1.94053e-06
2.79037e-06
3.7646e-06
5.25791e-06
6.85728e-06
9.40908e-06
1.16923e-05
1.57697e-05
1.89333e-05
2.69888e-05
3.19705e-05
4.56297e-05
5.25167e-05
7.03239e-05
7.99215e-05
0.000103651
0.000116448
0.000148031
0.000165143
0.000206938
0.00022997
0.0002842
0.00031822
0.000385906
0.000435284
0.000517136
0.000580245
0.000673588
0.0007418
0.000842102
0.000890478
0.000972349
0.00102056
1.34736e-05
9.1762e-07
4.81565e-08
2.03465e-09
3.60957e-10
7.78118e-11
3.23792e-11
1.77024e-11
7.12038e-11
2.05471e-11
1.67126e-11
2.10467e-11
6.77033e-11
1.13607e-10
3.77615e-10
2.55155e-09
4.72483e-09
9.209e-09
1.68291e-08
2.9189e-08
4.80211e-08
7.5275e-08
1.12735e-07
1.62051e-07
2.24143e-07
2.99948e-07
3.89259e-07
4.92744e-07
6.10137e-07
7.41711e-07
8.8813e-07
1.05066e-06
1.23123e-06
1.4327e-06
1.65951e-06
2.01035e-06
2.52601e-06
3.30669e-06
4.2811e-06
4.35786e-06
8.90277e-06
7.61363e-06
1.14321e-05
1.33088e-05
1.67705e-05
2.16109e-05
2.57949e-05
3.29341e-05
3.89841e-05
4.83692e-05
5.58112e-05
6.98757e-05
7.85295e-05
9.76601e-05
0.000109124
0.000148064
0.000191503
0.000237346
0.000267499
0.000310645
0.000352239
0.000405263
0.000458606
0.000522307
0.000589183
0.000664382
0.000745754
0.000830479
0.000923806
0.00100993
0.00110687
0.00118136
0.00126271
0.00131365
0.00136875
0.00140091
0.00141765
0.00140612
0.00141789
0.0013449
1.89618e-05
2.1727e-06
4.35758e-07
1.92907e-07
5.4145e-07
2.07169e-06
5.68096e-06
2.89706e-05
1.94197e-05
2.21207e-05
2.46444e-05
2.80535e-05
3.43578e-05
4.27262e-05
4.84308e-05
5.35166e-05
5.79028e-05
6.18792e-05
6.56287e-05
6.9283e-05
7.28687e-05
7.65299e-05
8.01473e-05
8.3995e-05
8.77538e-05
9.19152e-05
9.58997e-05
0.000100513
0.000105088
0.0001099
0.000114978
0.000120363
0.000126099
0.00013226
0.00013913
0.000146471
0.000149312
0.000165921
0.000174919
0.000178132
0.000192923
0.00020346
0.000224317
0.000240494
0.000261408
0.000280394
0.000304892
0.000327695
0.000356851
0.000384853
0.000419826
0.000455048
0.000497622
0.000543416
0.000596495
0.000648276
0.000687666
0.000743218
0.000802589
0.000880695
0.000954609
0.00104722
0.00113193
0.00123219
0.00131754
0.00141237
0.00148255
0.00155623
0.00159563
0.00163814
0.00164861
0.00163509
0.00162651
0.00158078
0.00155219
0.00147144
0.00143981
0.00132656
0.00132612
0.00116378
0.000565133
0.000557377
0.000555889
0.000557413
0.000560304
0.000566009
0.000569985
0.00058165
0.000576449
0.000589945
0.000602008
0.000612584
0.0006223
0.000631667
0.000640818
0.000649887
0.000658778
0.000667555
0.000676082
0.000684454
0.000692512
0.000700386
0.000707885
0.000715185
0.000722042
0.000728705
0.000734853
0.000740823
0.000746207
0.000751438
0.000755997
0.000760441
0.000764124
0.00076774
0.000770618
0.000772728
0.000773811
0.000774197
0.000773455
0.000771819
0.000769172
0.000765549
0.000760753
0.000755043
0.000748069
0.000740184
0.000730969
0.000720862
0.000709384
0.000697098
0.000683452
0.000669172
0.00065362
0.00063773
0.00062079
0.000603988
0.000586539
0.000569669
0.000552723
0.000537051
0.000522356
0.000509503
0.000498532
0.000490726
0.000484042
0.000480417
0.000477436
0.000475616
0.000473531
0.000470049
0.000466107
0.000459037
0.000450659
0.000440144
0.000426891
0.000414999
0.000396779
0.000385158
0.000365357
0.000356308
)
;

boundaryField
{
    inlet
    {
        type            fixedValue;
        value           uniform 0;
    }
    outlet
    {
        type            zeroGradient;
    }
    fixedWalls
    {
        type            nutkWallFunction;
        Cmu             0.09;
        kappa           0.41;
        E               9.8;
        value           nonuniform List<scalar> 
160
(
6.54762e-05
6.48433e-05
6.46191e-05
6.47038e-05
6.50369e-05
6.55841e-05
6.61977e-05
6.70887e-05
6.75723e-05
6.86064e-05
6.96304e-05
7.06358e-05
7.1627e-05
7.26133e-05
7.35866e-05
7.45516e-05
7.54952e-05
7.64246e-05
7.73249e-05
7.8207e-05
7.90535e-05
7.98794e-05
8.06638e-05
8.14264e-05
8.21418e-05
8.28357e-05
8.34763e-05
8.4097e-05
8.46571e-05
8.52001e-05
8.56744e-05
8.61352e-05
8.65186e-05
8.68938e-05
8.71932e-05
8.74118e-05
8.75303e-05
8.75655e-05
8.74912e-05
8.7327e-05
8.70495e-05
8.66771e-05
8.61796e-05
8.55863e-05
8.48591e-05
8.40353e-05
8.307e-05
8.201e-05
8.08037e-05
7.95105e-05
7.80704e-05
7.65598e-05
7.49097e-05
7.32191e-05
7.1412e-05
6.96146e-05
6.77442e-05
6.5931e-05
6.41058e-05
6.24146e-05
6.08243e-05
5.9436e-05
5.8242e-05
5.73921e-05
5.66672e-05
5.6268e-05
5.5941e-05
5.57367e-05
5.54996e-05
5.51181e-05
5.46747e-05
5.39018e-05
5.2972e-05
5.18029e-05
5.03742e-05
4.89676e-05
4.70653e-05
4.56572e-05
4.34317e-05
4.24258e-05
6.16079e-05
2.2013e-05
2.02082e-05
2.05904e-05
1.95741e-05
2.19115e-05
2.33278e-05
2.56219e-05
2.7888e-05
3.0317e-05
3.26352e-05
3.50393e-05
3.74729e-05
3.99897e-05
4.25648e-05
4.52065e-05
4.79006e-05
5.0644e-05
5.34265e-05
5.62397e-05
5.90743e-05
6.19208e-05
6.47707e-05
6.76154e-05
7.04459e-05
7.32529e-05
7.60282e-05
7.87632e-05
8.14499e-05
8.40803e-05
8.66467e-05
8.91413e-05
9.15559e-05
9.38825e-05
9.61122e-05
9.82359e-05
0.000100243
0.000102124
0.000103875
0.000105525
0.000107058
0.000108475
0.000109773
0.000110947
0.000111992
0.000112905
0.000113678
0.000114308
0.000114789
0.000115116
0.000115285
0.000115291
0.000115131
0.0001148
0.000114297
0.000113618
0.000112765
0.000111729
0.00011051
0.000109126
0.000107584
0.00010593
0.000104511
0.000103131
0.000101613
9.99517e-05
9.81532e-05
9.62167e-05
9.41486e-05
9.19593e-05
8.96532e-05
8.72451e-05
8.47146e-05
8.21427e-05
7.94014e-05
7.67931e-05
7.36988e-05
7.15919e-05
6.76204e-05
6.80601e-05
)
;
    }
    frontAndBack
    {
        type            empty;
    }
}


// ************************************************************************* //
