/*--------------------------------*- C++ -*----------------------------------*\
| =========                 |                                                 |
| \\      /  F ield         | OpenFOAM: The Open Source CFD Toolbox           |
|  \\    /   O peration     | Version:  v1912                                 |
|   \\  /    A nd           | Website:  www.openfoam.com                      |
|    \\/     M anipulation  |                                                 |
\*---------------------------------------------------------------------------*/
FoamFile
{
    version     2.0;
    format      ascii;
    class       volScalarField;
    location    "480";
    object      p;
}
// * * * * * * * * * * * * * * * * * * * * * * * * * * * * * * * * * * * * * //

dimensions      [0 2 -2 0 0 0 0];


internalField   nonuniform List<scalar> 
2000
(
0.0547894
0.125715
0.131913
0.134612
0.13555
0.136388
0.13698
0.137376
0.137653
0.137901
0.138146
0.138386
0.138608
0.138813
0.139003
0.139185
0.139367
0.139556
0.139762
0.139993
0.140258
0.140567
0.140929
0.141354
0.141851
0.142432
0.143107
0.143886
0.144781
0.145802
0.146958
0.148261
0.149721
0.151347
0.153148
0.155134
0.157311
0.159682
0.162252
0.165037
0.168051
0.171294
0.174769
0.178482
0.182435
0.18663
0.191065
0.195734
0.20063
0.205738
0.211041
0.216516
0.222136
0.227866
0.233668
0.239496
0.245299
0.251019
0.256592
0.261945
0.266999
0.271679
0.275919
0.279608
0.282607
0.284798
0.286052
0.28622
0.285127
0.282574
0.278321
0.272081
0.263489
0.252132
0.237301
0.218598
0.193613
0.164505
0.114701
0.080312
0.0837796
0.12296
0.132188
0.134393
0.135427
0.136314
0.136948
0.137365
0.13764
0.137887
0.138136
0.138388
0.13862
0.138833
0.139028
0.139214
0.139396
0.139584
0.139785
0.140009
0.140265
0.140563
0.140911
0.141319
0.141798
0.142358
0.143011
0.143766
0.144634
0.145627
0.146754
0.148026
0.149454
0.151047
0.152814
0.154764
0.156906
0.15925
0.161807
0.164581
0.16757
0.170784
0.174228
0.177908
0.181827
0.185987
0.190385
0.195016
0.199871
0.204937
0.210196
0.215625
0.221195
0.226872
0.232618
0.238387
0.244128
0.249783
0.255289
0.260576
0.265572
0.270185
0.274288
0.277786
0.280587
0.282566
0.28359
0.283506
0.282137
0.279278
0.274684
0.268064
0.259041
0.247194
0.231794
0.21243
0.186616
0.15653
0.105431
0.0701864
0.0984519
0.121856
0.132687
0.134932
0.135501
0.136336
0.136989
0.137419
0.137682
0.137924
0.138175
0.13844
0.138683
0.138909
0.139112
0.139305
0.139492
0.139682
0.139885
0.140109
0.140362
0.140656
0.140998
0.141399
0.141868
0.142416
0.143054
0.143794
0.144644
0.145617
0.146723
0.147972
0.149375
0.150941
0.152679
0.154599
0.156709
0.159016
0.161533
0.164265
0.167211
0.170378
0.173773
0.177401
0.181265
0.185366
0.189703
0.194268
0.199055
0.204048
0.20923
0.214577
0.22006
0.225645
0.231292
0.236954
0.24258
0.248109
0.253478
0.258612
0.263433
0.267855
0.271779
0.27511
0.277735
0.279525
0.280341
0.28003
0.27841
0.275275
0.270374
0.263409
0.253999
0.241711
0.225792
0.20586
0.179228
0.148632
0.0960662
0.0634572
0.0991619
0.12094
0.13368
0.135692
0.136177
0.136551
0.137128
0.137544
0.13777
0.137992
0.138234
0.138508
0.138755
0.138986
0.139192
0.139386
0.139573
0.139763
0.139963
0.140182
0.140431
0.140719
0.141053
0.141444
0.141903
0.142439
0.143063
0.143787
0.144622
0.145577
0.146664
0.147894
0.149276
0.15082
0.152537
0.154434
0.156521
0.158805
0.161294
0.163995
0.16691
0.170045
0.173406
0.176999
0.180826
0.184888
0.189184
0.193708
0.19845
0.203397
0.208528
0.213822
0.219247
0.22477
0.230348
0.235934
0.241476
0.246911
0.252175
0.257195
0.26189
0.266176
0.269964
0.273151
0.27562
0.277238
0.277865
0.277345
0.275495
0.272105
0.266921
0.259638
0.249869
0.237172
0.220783
0.200338
0.173036
0.14215
0.0887249
0.0598141
0.101979
0.120412
0.133493
0.136517
0.137105
0.137192
0.137396
0.137745
0.137919
0.138116
0.138335
0.13861
0.138848
0.139077
0.139277
0.139467
0.139648
0.139832
0.140026
0.140238
0.140479
0.140758
0.141083
0.141464
0.141911
0.142434
0.143046
0.143756
0.144577
0.145517
0.146589
0.147802
0.149168
0.150696
0.152396
0.154277
0.156348
0.158614
0.161084
0.163763
0.166657
0.16977
0.17311
0.176681
0.180486
0.184526
0.188799
0.1933
0.198018
0.202939
0.208044
0.213309
0.218702
0.224189
0.229726
0.235266
0.240754
0.24613
0.251328
0.256271
0.260881
0.265071
0.268747
0.271807
0.274132
0.275593
0.276047
0.275336
0.273277
0.269654
0.264212
0.256643
0.246554
0.233493
0.216696
0.195816
0.168016
0.136974
0.0833572
0.0576836
0.108064
0.121387
0.132403
0.136768
0.138004
0.138155
0.138037
0.138019
0.13813
0.138344
0.138526
0.138786
0.139001
0.139217
0.139402
0.139585
0.139754
0.139929
0.140113
0.140315
0.140546
0.140816
0.141131
0.141501
0.141937
0.142449
0.143048
0.143746
0.144554
0.145482
0.14654
0.147741
0.149093
0.150608
0.152295
0.154162
0.156219
0.158471
0.160926
0.163589
0.166465
0.169562
0.172886
0.176441
0.180231
0.184256
0.188515
0.193001
0.197704
0.20261
0.207698
0.212942
0.218314
0.223775
0.229282
0.234788
0.240236
0.245565
0.250707
0.255586
0.260121
0.264226
0.267803
0.270749
0.272946
0.274267
0.274566
0.273683
0.271434
0.267604
0.261933
0.254111
0.243743
0.230374
0.213233
0.192
0.16385
0.132739
0.0793762
0.0561384
0.113807
0.122958
0.131967
0.136555
0.138507
0.139188
0.139135
0.138651
0.138516
0.138704
0.138839
0.139063
0.139242
0.139436
0.139598
0.139767
0.139922
0.140084
0.140257
0.140446
0.140666
0.140926
0.141231
0.141589
0.142014
0.142514
0.143102
0.14379
0.144587
0.145503
0.14655
0.147739
0.149081
0.150584
0.15226
0.154117
0.156162
0.158402
0.160844
0.163493
0.166357
0.16944
0.172751
0.176294
0.180072
0.184086
0.188333
0.192808
0.197499
0.202393
0.207467
0.212696
0.218049
0.223488
0.228969
0.234443
0.239853
0.245136
0.250224
0.255042
0.259507
0.263531
0.267016
0.269858
0.27194
0.273133
0.273293
0.272256
0.269839
0.265825
0.259953
0.251913
0.241305
0.227679
0.210259
0.188743
0.160362
0.12923
0.0763822
0.0548426
0.118197
0.124577
0.132402
0.136724
0.138787
0.139966
0.140383
0.139909
0.139456
0.139276
0.139284
0.139428
0.139578
0.139752
0.139885
0.140039
0.140176
0.140323
0.140483
0.140658
0.140866
0.141116
0.14141
0.141757
0.142171
0.142661
0.143238
0.143916
0.144703
0.14561
0.146647
0.147827
0.149159
0.150654
0.152321
0.154169
0.156204
0.158434
0.160865
0.163503
0.166354
0.169426
0.172726
0.176259
0.180027
0.184031
0.188269
0.192734
0.197416
0.202298
0.207359
0.212572
0.217907
0.223324
0.228777
0.234218
0.239589
0.244826
0.249861
0.254617
0.259012
0.262955
0.266351
0.269095
0.271068
0.272141
0.272173
0.270998
0.268431
0.264253
0.258207
0.249979
0.23917
0.225332
0.207696
0.185961
0.15744
0.126311
0.0741282
0.0536419
0.12172
0.126378
0.133303
0.137438
0.139379
0.140591
0.141394
0.141478
0.141054
0.140185
0.139949
0.13994
0.140064
0.1402
0.140299
0.140433
0.140539
0.140671
0.140817
0.140975
0.141173
0.141413
0.141696
0.142032
0.142436
0.142916
0.143485
0.144154
0.144933
0.145831
0.146861
0.148033
0.149358
0.150845
0.152505
0.154345
0.156373
0.158594
0.161015
0.163643
0.166484
0.169547
0.172837
0.176361
0.180121
0.184117
0.188347
0.192802
0.197473
0.202343
0.20739
0.212585
0.217899
0.22329
0.228711
0.234114
0.239441
0.244628
0.249604
0.254295
0.258616
0.262477
0.265784
0.268431
0.270298
0.271257
0.271166
0.269865
0.267164
0.262845
0.256649
0.248264
0.237289
0.223283
0.205487
0.183598
0.155015
0.12389
0.0724637
0.0524452
0.124767
0.128364
0.134417
0.138427
0.140368
0.141515
0.142295
0.142674
0.142449
0.141722
0.141363
0.140842
0.140765
0.140821
0.140901
0.141
0.141059
0.14117
0.141292
0.141433
0.141622
0.141851
0.142121
0.142447
0.142841
0.143315
0.143877
0.144538
0.14531
0.146202
0.147226
0.148392
0.149712
0.151194
0.152848
0.154682
0.156703
0.158916
0.161329
0.163948
0.16678
0.169834
0.173117
0.176633
0.180385
0.184373
0.188593
0.193038
0.197696
0.20255
0.207576
0.212747
0.218034
0.223393
0.228777
0.234135
0.239411
0.24454
0.24945
0.254068
0.258311
0.262086
0.2653
0.267846
0.269609
0.27046
0.270256
0.268838
0.266019
0.26158
0.255259
0.246746
0.235642
0.221506
0.203596
0.181617
0.153042
0.121908
0.0712854
0.0512016
0.12747
0.130382
0.135645
0.139522
0.14156
0.142756
0.143509
0.143847
0.143552
0.143417
0.143348
0.142746
0.142183
0.141711
0.141669
0.141764
0.14181
0.141885
0.141969
0.142085
0.142263
0.14247
0.142721
0.143037
0.143425
0.143892
0.144449
0.145104
0.14587
0.146759
0.147778
0.14894
0.150256
0.151736
0.153385
0.155215
0.157229
0.159434
0.16184
0.164451
0.167276
0.170323
0.173598
0.177106
0.180849
0.184827
0.189035
0.193466
0.198107
0.202941
0.207943
0.213086
0.218336
0.223653
0.228992
0.234299
0.239514
0.244573
0.249408
0.253942
0.258094
0.261776
0.264892
0.267337
0.268997
0.269745
0.269439
0.267917
0.264993
0.260451
0.254029
0.245416
0.234216
0.219989
0.202006
0.179978
0.15148
0.120316
0.070511
0.0498898
0.129893
0.132347
0.136962
0.140689
0.142828
0.144135
0.144977
0.145376
0.14522
0.145098
0.144989
0.144796
0.144365
0.143769
0.143315
0.142883
0.142698
0.142771
0.142922
0.143038
0.143178
0.143337
0.143561
0.143863
0.144243
0.1447
0.145248
0.145894
0.146655
0.14754
0.148556
0.149715
0.15103
0.152509
0.154156
0.15598
0.157986
0.160184
0.162582
0.165186
0.168004
0.171044
0.174315
0.177819
0.181554
0.185519
0.18971
0.194122
0.198741
0.203548
0.208524
0.213634
0.218838
0.224101
0.229379
0.234616
0.239753
0.244731
0.249477
0.253916
0.257971
0.261552
0.264567
0.266911
0.268469
0.269117
0.268713
0.267097
0.264084
0.259457
0.252955
0.24427
0.233007
0.218727
0.200712
0.178665
0.150292
0.11908
0.0700816
0.0485098
0.132086
0.134243
0.138364
0.141938
0.14415
0.145561
0.146529
0.147086
0.147181
0.147096
0.146903
0.146616
0.146308
0.146142
0.1458
0.145249
0.144778
0.14439
0.144154
0.144097
0.14424
0.14447
0.144739
0.145041
0.145396
0.145824
0.146348
0.146976
0.147728
0.148606
0.149616
0.150772
0.152085
0.153558
0.155201
0.157017
0.159015
0.161206
0.163597
0.166195
0.169009
0.172045
0.175312
0.178813
0.182541
0.186494
0.190667
0.195057
0.199648
0.204418
0.209347
0.214405
0.219549
0.224744
0.229944
0.235095
0.240141
0.245021
0.249667
0.254003
0.257951
0.261425
0.264332
0.26657
0.268028
0.268579
0.268085
0.266386
0.263298
0.258603
0.252045
0.243313
0.232018
0.217719
0.199714
0.177674
0.149455
0.118179
0.0699642
0.0470742
0.134084
0.136067
0.139833
0.143275
0.145538
0.147035
0.148113
0.148819
0.149124
0.149195
0.149128
0.148906
0.14859
0.148305
0.147966
0.147751
0.147571
0.14717
0.146722
0.146387
0.146124
0.146045
0.146132
0.146363
0.146737
0.147219
0.147776
0.148418
0.149174
0.150044
0.151043
0.152191
0.153493
0.15495
0.15658
0.158386
0.160375
0.16256
0.164949
0.167545
0.170357
0.173394
0.176659
0.180149
0.183857
0.187787
0.191938
0.196296
0.200847
0.205568
0.210434
0.215418
0.220487
0.225597
0.230704
0.235756
0.240696
0.245464
0.249992
0.25421
0.25804
0.261397
0.264191
0.266322
0.26768
0.26814
0.267565
0.265795
0.262646
0.257904
0.251311
0.242559
0.23126
0.216975
0.199017
0.177014
0.148961
0.117604
0.0701438
0.0456101
0.135912
0.137811
0.141346
0.144693
0.147
0.148574
0.149744
0.15057
0.151036
0.151267
0.151362
0.151317
0.151147
0.150901
0.150577
0.150276
0.150011
0.14972
0.149554
0.149447
0.149221
0.149007
0.148857
0.148808
0.148885
0.149122
0.149528
0.150108
0.150852
0.151746
0.152781
0.153958
0.155271
0.156728
0.158353
0.160152
0.162135
0.164319
0.166709
0.169305
0.172116
0.175152
0.178408
0.181877
0.185555
0.189449
0.193561
0.197873
0.202366
0.207021
0.211812
0.216712
0.221686
0.226692
0.231686
0.236617
0.24143
0.246066
0.250461
0.254546
0.258245
0.261478
0.264154
0.266177
0.267437
0.267813
0.267166
0.265338
0.262146
0.257376
0.25077
0.242023
0.230749
0.216509
0.198627
0.176694
0.148815
0.117351
0.0706119
0.0441596
0.13759
0.139473
0.142885
0.14618
0.148532
0.150181
0.15144
0.152372
0.152971
0.153333
0.15355
0.153645
0.153629
0.153538
0.153378
0.153169
0.152937
0.15267
0.152434
0.152224
0.152066
0.152009
0.152052
0.15215
0.152263
0.152432
0.152697
0.153078
0.153583
0.154263
0.155131
0.156176
0.157405
0.158828
0.160445
0.162263
0.164282
0.166502
0.168916
0.171521
0.174332
0.17736
0.180591
0.184028
0.187675
0.191524
0.195579
0.19983
0.204253
0.208822
0.213514
0.218307
0.223165
0.228045
0.232902
0.237688
0.24235
0.246834
0.251078
0.255015
0.258574
0.261674
0.264229
0.266145
0.267313
0.267613
0.266906
0.265035
0.261816
0.257038
0.250442
0.241724
0.2305
0.216334
0.198553
0.176717
0.149025
0.117427
0.0713583
0.0427697
0.13913
0.141053
0.144442
0.147729
0.150126
0.151849
0.1532
0.154238
0.154957
0.155431
0.155749
0.155947
0.156043
0.156071
0.156043
0.155976
0.155889
0.155768
0.155631
0.155498
0.155392
0.155327
0.15532
0.155366
0.155501
0.155759
0.156146
0.156644
0.157245
0.157972
0.158832
0.159819
0.160958
0.162268
0.163751
0.165418
0.167289
0.169387
0.171713
0.174266
0.177037
0.180015
0.183194
0.186589
0.190201
0.194007
0.198002
0.202178
0.206511
0.210973
0.215545
0.220208
0.224925
0.229652
0.234347
0.238964
0.243454
0.247766
0.251843
0.25562
0.259029
0.261993
0.264427
0.266239
0.267323
0.26756
0.266809
0.264912
0.261686
0.25692
0.250355
0.241691
0.230542
0.216474
0.198821
0.177099
0.149616
0.117859
0.0723823
0.041482
0.140538
0.142556
0.146014
0.149333
0.151776
0.153572
0.155017
0.15616
0.156992
0.157576
0.157994
0.158287
0.158477
0.158593
0.158655
0.158682
0.158692
0.158685
0.158674
0.158677
0.158702
0.158753
0.158842
0.158978
0.159183
0.159469
0.159846
0.16032
0.160909
0.161632
0.162506
0.163541
0.164743
0.166116
0.167656
0.169384
0.171313
0.173425
0.175711
0.178183
0.180836
0.183674
0.186716
0.189975
0.193455
0.197141
0.201009
0.205041
0.209226
0.213544
0.217968
0.222465
0.227
0.231538
0.236039
0.24046
0.244754
0.248876
0.252769
0.256374
0.259624
0.262448
0.264764
0.266482
0.267496
0.267686
0.26691
0.265011
0.261805
0.257079
0.250577
0.241999
0.230962
0.217022
0.199534
0.177946
0.150682
0.118752
0.0737668
0.0403818
0.141815
0.143987
0.147606
0.150992
0.153477
0.155345
0.156883
0.158126
0.159063
0.159752
0.16027
0.160661
0.160946
0.161152
0.1613
0.16141
0.161498
0.161572
0.161647
0.161737
0.161852
0.162001
0.162197
0.162448
0.162766
0.163159
0.163638
0.164215
0.1649
0.165704
0.166641
0.167716
0.168936
0.170309
0.171844
0.173554
0.175446
0.17752
0.179781
0.182235
0.184882
0.187721
0.190754
0.193977
0.197384
0.200967
0.204703
0.208577
0.212583
0.216712
0.220934
0.22521
0.229513
0.233816
0.238084
0.242275
0.246346
0.250249
0.253933
0.257343
0.260419
0.263095
0.265292
0.266917
0.267866
0.268015
0.267225
0.265338
0.262168
0.257502
0.251086
0.242622
0.231735
0.217969
0.200701
0.179315
0.152316
0.120269
0.0757276
0.0397491
0.142954
0.145356
0.149227
0.152701
0.155225
0.157172
0.158812
0.160155
0.161188
0.161971
0.162581
0.16306
0.163432
0.163721
0.163949
0.164135
0.164294
0.16444
0.164582
0.164736
0.164914
0.165125
0.165382
0.165694
0.166071
0.166524
0.167066
0.167706
0.168451
0.169314
0.170303
0.17143
0.172699
0.17412
0.175698
0.177439
0.179341
0.181412
0.183665
0.1861
0.188715
0.191507
0.194476
0.197621
0.200941
0.204427
0.208063
0.211835
0.21573
0.21973
0.223805
0.227924
0.232058
0.236179
0.240254
0.244245
0.24811
0.251807
0.255291
0.258514
0.261423
0.263954
0.26603
0.26756
0.268438
0.26854
0.267727
0.265838
0.262689
0.258063
0.251713
0.243341
0.232582
0.218984
0.201932
0.180786
0.154079
0.122051
0.0779056
0.0397511
0.14394
0.146677
0.150898
0.154464
0.156999
0.159008
0.160745
0.162188
0.163323
0.164211
0.164924
0.165505
0.165976
0.166362
0.166685
0.166962
0.167211
0.167444
0.167672
0.167909
0.168167
0.168457
0.168789
0.169174
0.169622
0.170145
0.170753
0.171455
0.172262
0.173183
0.17423
0.17541
0.176731
0.178198
0.179816
0.181588
0.183518
0.185613
0.187878
0.190314
0.19292
0.195694
0.198636
0.201742
0.205006
0.208418
0.211962
0.215622
0.219381
0.223221
0.227119
0.231045
0.234974
0.238878
0.242727
0.246488
0.250125
0.253601
0.256875
0.259906
0.262643
0.265026
0.266979
0.268413
0.26922
0.269276
0.268438
0.26654
0.263397
0.258794
0.25248
0.244167
0.233489
0.220004
0.203091
0.182111
0.15558
0.123568
0.0794156
0.0398081
0.144753
0.147965
0.152613
0.156318
0.158909
0.160991
0.162798
0.1643
0.165491
0.166437
0.167213
0.167855
0.168389
0.168836
0.169219
0.169557
0.169865
0.170155
0.17044
0.170733
0.171044
0.171386
0.171768
0.1722
0.172694
0.17326
0.173907
0.174647
0.175488
0.17644
0.177515
0.17872
0.180062
0.181545
0.183175
0.184959
0.186901
0.189003
0.191265
0.193691
0.196282
0.199037
0.201952
0.205022
0.208241
0.211598
0.215078
0.218663
0.222337
0.22608
0.229867
0.233673
0.237469
0.241229
0.244924
0.248523
0.251996
0.255308
0.258425
0.261306
0.263909
0.266176
0.268037
0.269403
0.270166
0.270199
0.269356
0.26747
0.264349
0.259781
0.253513
0.245259
0.234654
0.221264
0.204461
0.183604
0.15718
0.125166
0.0806869
0.0399794
0.145369
0.149334
0.154259
0.15796
0.160636
0.162891
0.164866
0.166511
0.167831
0.168902
0.169798
0.170555
0.171199
0.171752
0.172237
0.172673
0.173076
0.173459
0.173834
0.174215
0.174611
0.175035
0.175497
0.176006
0.176574
0.177211
0.177926
0.17873
0.179631
0.180642
0.18177
0.183027
0.184417
0.18594
0.187601
0.189415
0.191388
0.193513
0.195787
0.198213
0.200791
0.203517
0.206388
0.209399
0.212541
0.215806
0.219179
0.222645
0.226184
0.229778
0.233404
0.237037
0.24065
0.244219
0.247715
0.251109
0.254373
0.257481
0.260403
0.263106
0.26555
0.267684
0.26944
0.270727
0.271436
0.271435
0.270573
0.268678
0.265558
0.261001
0.254758
0.24655
0.23602
0.222738
0.206077
0.185395
0.159163
0.127296
0.0826058
0.0409163
0.145533
0.151289
0.156631
0.160046
0.162519
0.164722
0.166686
0.168323
0.169655
0.170754
0.171682
0.172475
0.173158
0.173752
0.174279
0.174757
0.175202
0.175626
0.176043
0.176463
0.176899
0.177361
0.177859
0.178404
0.179006
0.179675
0.18042
0.181252
0.18218
0.183215
0.184367
0.185648
0.187068
0.188615
0.190283
0.19209
0.194046
0.196155
0.198425
0.200855
0.203444
0.20619
0.209086
0.212127
0.215302
0.218597
0.221996
0.225479
0.229023
0.232604
0.236195
0.23977
0.243299
0.246757
0.250119
0.253355
0.256441
0.259354
0.262078
0.264592
0.26687
0.268867
0.270521
0.271747
0.272431
0.272438
0.271609
0.269765
0.266712
0.262232
0.256085
0.24799
0.2376
0.22449
0.208043
0.187612
0.161674
0.130108
0.0855229
0.042788
0.143708
0.151758
0.158444
0.162299
0.165012
0.167434
0.169572
0.17134
0.172796
0.174021
0.175062
0.175961
0.176745
0.177438
0.17806
0.178631
0.179166
0.179677
0.180177
0.180678
0.18119
0.181724
0.182291
0.1829
0.183561
0.184284
0.185078
0.185953
0.186919
0.187986
0.189164
0.190467
0.19191
0.193537
0.195349
0.197279
0.199302
0.201434
0.203697
0.206094
0.208622
0.211277
0.214057
0.216956
0.219963
0.223064
0.226244
0.229484
0.232765
0.236063
0.239356
0.242621
0.245837
0.248984
0.252048
0.255016
0.257854
0.260533
0.263045
0.265386
0.267534
0.26945
0.271072
0.27232
0.273082
0.27322
0.272572
0.270955
0.268166
0.26398
0.258154
0.25039
0.240358
0.227643
0.211647
0.191731
0.166385
0.135548
0.0917484
0.049082
)
;

boundaryField
{
    inlet
    {
        type            zeroGradient;
    }
    outlet
    {
        type            fixedValue;
        value           uniform 0;
    }
    fixedWalls
    {
        type            zeroGradient;
    }
    frontAndBack
    {
        type            empty;
    }
}


// ************************************************************************* //
