/*--------------------------------*- C++ -*----------------------------------*\
| =========                 |                                                 |
| \\      /  F ield         | OpenFOAM: The Open Source CFD Toolbox           |
|  \\    /   O peration     | Version:  v1912                                 |
|   \\  /    A nd           | Website:  www.openfoam.com                      |
|    \\/     M anipulation  |                                                 |
\*---------------------------------------------------------------------------*/
FoamFile
{
    version     2.0;
    format      ascii;
    class       surfaceScalarField;
    location    "480";
    object      phi;
}
// * * * * * * * * * * * * * * * * * * * * * * * * * * * * * * * * * * * * * //

dimensions      [0 3 -1 0 0 0 0];
oriented        oriented;


internalField   nonuniform List<scalar> 
3895
(
-6.75494e-06
0.000396503
-6.65937e-05
5.98449e-05
-5.11675e-05
-1.54093e-05
-5.12865e-05
1.03549e-07
-5.27068e-05
1.41355e-06
-5.44185e-05
1.71532e-06
-5.64813e-05
2.07043e-06
-5.98459e-05
3.37011e-06
-6.40615e-05
4.21875e-06
-6.8701e-05
4.64195e-06
-7.35367e-05
4.83811e-06
-7.85436e-05
5.00804e-06
-8.38346e-05
5.29226e-06
-8.94195e-05
5.58477e-06
-9.5312e-05
5.89268e-06
-0.000101493
6.18074e-06
-0.000107942
6.45075e-06
-0.000114626
6.6855e-06
-0.000121506
6.8819e-06
-0.000128537
7.03315e-06
-0.000135669
7.13516e-06
-0.000142856
7.1893e-06
-0.00015005
7.19578e-06
-0.000157201
7.15294e-06
-0.000164259
7.05925e-06
-0.000171172
6.91434e-06
-0.00017789
6.71767e-06
-0.00018436
6.46983e-06
-0.000190532
6.17155e-06
-0.000196356
5.82297e-06
-0.000201781
5.42372e-06
-0.000206755
4.97371e-06
-0.000211229
4.47288e-06
-0.000215151
3.92073e-06
-0.000218467
3.31589e-06
-0.000221123
2.65384e-06
-0.000223049
1.92382e-06
-0.000224162
1.11068e-06
-0.000224392
2.27814e-07
-0.000223771
-6.24489e-07
-0.000222365
-1.40969e-06
-0.000220172
-2.19573e-06
-0.000217164
-3.01017e-06
-0.000213311
-3.85496e-06
-0.000208584
-4.72898e-06
-0.000202956
-5.62825e-06
-0.000196407
-6.54877e-06
-0.00018892
-7.48456e-06
-0.000180488
-8.43007e-06
-0.000171108
-9.37824e-06
-0.000160784
-1.03221e-05
-0.000149529
-1.12541e-05
-0.000137363
-1.21665e-05
-0.000124312
-1.30509e-05
-0.000110413
-1.3899e-05
-9.57106e-05
-1.47034e-05
-8.02555e-05
-1.54561e-05
-6.41074e-05
-1.61493e-05
-4.73317e-05
-1.67772e-05
-2.99988e-05
-1.73345e-05
-1.22032e-05
-1.77972e-05
5.94845e-06
-1.81533e-05
2.44193e-05
-1.84725e-05
4.3115e-05
-1.86971e-05
6.18995e-05
-1.87859e-05
8.06902e-05
-1.8792e-05
9.94045e-05
-1.87156e-05
0.000117957
-1.8554e-05
0.000136263
-1.83066e-05
0.000154241
-1.79789e-05
0.000171814
-1.75735e-05
0.000188912
-1.70982e-05
0.000205458
-1.65465e-05
0.000221455
-1.59974e-05
0.000236737
-1.52817e-05
0.000251755
-1.50177e-05
0.000265555
-1.3799e-05
0.000282233
-1.66757e-05
0.000293882
-1.16451e-05
-4.69648e-05
0.000229224
0.000557027
1.75975e-05
0.000271475
-5.31812e-05
5.53814e-05
-4.83427e-05
-4.74586e-06
-5.02499e-05
3.31931e-06
-5.27822e-05
4.25215e-06
-5.59946e-05
5.28839e-06
-5.98882e-05
7.27149e-06
-6.43203e-05
8.65751e-06
-6.8995e-05
9.32134e-06
-7.38441e-05
9.68945e-06
-7.88556e-05
1.00193e-05
-8.41179e-05
1.05534e-05
-8.96142e-05
1.108e-05
-9.53385e-05
1.16165e-05
-0.000101257
1.20991e-05
-0.000107339
1.25344e-05
-0.000113543
1.28907e-05
-0.000119825
1.31653e-05
-0.000126138
1.33482e-05
-0.000132434
1.34337e-05
-0.000138669
1.34261e-05
-0.000144798
1.33265e-05
-0.000150776
1.31322e-05
-0.000156557
1.28415e-05
-0.000162098
1.24555e-05
-0.000167354
1.19742e-05
-0.000172283
1.13995e-05
-0.000176846
1.0734e-05
-0.000181003
9.97892e-06
-0.000184715
9.1349e-06
-0.000187945
8.20336e-06
-0.00019066
7.18671e-06
-0.000192827
6.08746e-06
-0.000194421
4.90883e-06
-0.000195422
3.65394e-06
-0.000195828
2.32856e-06
-0.000195668
9.47993e-07
-0.000194985
-4.56286e-07
-0.000193738
-1.87415e-06
-0.000191818
-3.33183e-06
-0.000189165
-4.85041e-06
-0.000185744
-6.43261e-06
-0.000181524
-8.07617e-06
-0.000176477
-9.77671e-06
-0.000170579
-1.1527e-05
-0.000163808
-1.33185e-05
-0.000156152
-1.51402e-05
-0.0001476
-1.69803e-05
-0.000138152
-1.88252e-05
-0.000127812
-2.06605e-05
-0.000116595
-2.24711e-05
-0.00010452
-2.42417e-05
-9.16149e-05
-2.59558e-05
-7.79177e-05
-2.75965e-05
-6.34723e-05
-2.91493e-05
-4.83302e-05
-3.05987e-05
-3.25505e-05
-3.19297e-05
-1.61972e-05
-3.31311e-05
6.57794e-07
-3.41902e-05
1.79532e-05
-3.50934e-05
3.56285e-05
-3.58294e-05
5.35421e-05
-3.63869e-05
7.15912e-05
-3.6747e-05
8.97167e-05
-3.69123e-05
0.000107829
-3.69051e-05
0.000125842
-3.67293e-05
0.00014367
-3.63827e-05
0.00016123
-3.58677e-05
0.000178444
-3.51938e-05
0.000195238
-3.43679e-05
0.000211543
-3.34035e-05
0.000227306
-3.23099e-05
0.000242477
-3.11689e-05
0.000257056
-2.98601e-05
0.000271076
-2.9037e-05
0.000284775
-2.74966e-05
0.000298725
-3.06239e-05
0.000314748
-2.76647e-05
-7.15057e-05
0.000351796
0.000594979
0.000188687
0.000434586
2.76535e-05
0.000216422
-3.40282e-05
5.69281e-05
-3.91656e-05
8.45427e-06
-4.39782e-05
9.0677e-06
-4.81809e-05
9.49343e-06
-5.22733e-05
1.13642e-05
-5.66233e-05
1.30076e-05
-6.10604e-05
1.37588e-05
-6.55963e-05
1.42259e-05
-7.0177e-05
1.46014e-05
-7.49134e-05
1.5291e-05
-7.97987e-05
1.59663e-05
-8.48408e-05
1.66597e-05
-9.00119e-05
1.72708e-05
-9.52935e-05
1.78167e-05
-0.00010065
1.82477e-05
-0.000106047
1.85627e-05
-0.000111446
1.87488e-05
-0.000116809
1.87969e-05
-0.000122096
1.87144e-05
-0.000127275
1.85054e-05
-0.000132307
1.8165e-05
-0.000137156
1.76904e-05
-0.000141784
1.70831e-05
-0.000146153
1.63435e-05
-0.000150229
1.54744e-05
-0.000153976
1.44803e-05
-0.000157361
1.33634e-05
-0.000160352
1.21251e-05
-0.000162917
1.0768e-05
-0.000165027
9.29661e-06
-0.000166656
7.71639e-06
-0.000167782
6.0345e-06
-0.000168388
4.25982e-06
-0.000168465
2.4046e-06
-0.000168004
4.85796e-07
-0.00016698
-1.48175e-06
-0.000165348
-3.50816e-06
-0.000163063
-5.61858e-06
-0.00016009
-7.82477e-06
-0.000156398
-1.01261e-05
-0.000151958
-1.2518e-05
-0.000146742
-1.49931e-05
-0.000140729
-1.75411e-05
-0.000133898
-2.01492e-05
-0.000126236
-2.28015e-05
-0.000117735
-2.54804e-05
-0.000108393
-2.81659e-05
-9.82165e-05
-3.08362e-05
-8.72182e-05
-3.34689e-05
-7.54181e-05
-3.60415e-05
-6.28441e-05
-3.85296e-05
-4.95323e-05
-4.09081e-05
-3.55258e-05
-4.31556e-05
-2.08748e-05
-4.52497e-05
-5.63489e-06
-4.71695e-05
1.0131e-05
-4.8897e-05
2.63537e-05
-5.04129e-05
4.29635e-05
-5.17032e-05
5.98869e-05
-5.27529e-05
7.70333e-05
-5.35334e-05
9.43163e-05
-5.40301e-05
0.000111658
-5.42543e-05
0.00012897
-5.42176e-05
0.000146168
-5.39266e-05
0.000163169
-5.33841e-05
0.000179897
-5.25959e-05
0.000196278
-5.1575e-05
0.000212244
-5.03342e-05
0.000227734
-4.88935e-05
0.0002427
-4.7276e-05
0.000257091
-4.55598e-05
0.000270935
-4.37041e-05
0.000284193
-4.22951e-05
0.00029729
-4.05937e-05
0.000309978
-4.33123e-05
0.00032533
-4.30151e-05
-8.54627e-05
0.000405948
0.000578779
0.000328707
0.00051183
0.000177069
0.000368062
4.34395e-05
0.000190558
-1.32905e-05
6.51875e-05
-2.67884e-05
2.25718e-05
-3.47854e-05
1.74972e-05
-4.0641e-05
1.72277e-05
-4.57027e-05
1.8077e-05
-5.03164e-05
1.83773e-05
-5.48144e-05
1.87275e-05
-5.91606e-05
1.89498e-05
-6.35274e-05
1.96601e-05
-6.79244e-05
2.03654e-05
-7.23899e-05
2.11267e-05
-7.69063e-05
2.17888e-05
-8.14757e-05
2.23874e-05
-8.60726e-05
2.28457e-05
-9.0673e-05
2.31638e-05
-9.52502e-05
2.33268e-05
-9.97702e-05
2.33176e-05
-0.000104203
2.31478e-05
-0.000108522
2.28254e-05
-0.000112699
2.23424e-05
-0.000116701
2.1693e-05
-0.000120497
2.08788e-05
-0.000124053
1.98999e-05
-0.000127339
1.87595e-05
-0.000130323
1.74641e-05
-0.000132978
1.60172e-05
-0.000135273
1.44199e-05
-0.000137181
1.26757e-05
-0.000138676
1.07904e-05
-0.000139732
8.77184e-06
-0.000140327
6.62931e-06
-0.000140442
4.37462e-06
-0.00014006
2.02123e-06
-0.000139158
-4.17095e-07
-0.000137705
-2.93547e-06
-0.000135668
-5.54686e-06
-0.000133017
-8.27156e-06
-0.000129724
-1.11192e-05
-0.000125761
-1.40894e-05
-0.000121104
-1.71769e-05
-0.000115726
-2.03716e-05
-0.000109606
-2.36605e-05
-0.000102728
-2.70266e-05
-9.50791e-05
-3.04496e-05
-8.66519e-05
-3.39065e-05
-7.7446e-05
-3.73709e-05
-6.74677e-05
-4.0814e-05
-5.673e-05
-4.42061e-05
-4.5253e-05
-4.75183e-05
-3.3064e-05
-5.07183e-05
-2.01985e-05
-5.37734e-05
-6.69786e-06
-5.66562e-05
7.38973e-06
-5.93372e-05
2.20079e-05
-6.17876e-05
3.70957e-05
-6.39848e-05
5.2588e-05
-6.59051e-05
6.84139e-05
-6.7529e-05
8.44995e-05
-6.88386e-05
0.000100771
-6.9805e-05
0.000117154
-7.04129e-05
0.000133569
-7.06701e-05
0.000149935
-7.05838e-05
0.000166171
-7.01627e-05
0.000182202
-6.94155e-05
0.000197956
-6.83511e-05
0.000213367
-6.69867e-05
0.000228374
-6.53409e-05
0.00024292
-6.34406e-05
0.000256964
-6.13204e-05
0.000270461
-5.90567e-05
0.000283438
-5.66812e-05
0.000295842
-5.46995e-05
0.000308057
-5.2808e-05
0.000319653
-5.49077e-05
0.000333122
-5.64831e-05
-9.41787e-05
0.000422208
0.000546319
0.000410376
0.000523664
0.000321785
0.000456656
0.000183399
0.000328941
6.62086e-05
0.000182377
1.01052e-05
7.86761e-05
-9.95283e-06
3.75556e-05
-2.12407e-05
2.85161e-05
-2.90713e-05
2.59072e-05
-3.49256e-05
2.42318e-05
-4.0086e-05
2.3888e-05
-4.46929e-05
2.35575e-05
-4.90518e-05
2.40205e-05
-5.32262e-05
2.4541e-05
-5.73192e-05
2.52209e-05
-6.13362e-05
2.58067e-05
-6.5317e-05
2.6369e-05
-6.92528e-05
2.67821e-05
-7.3135e-05
2.70464e-05
-7.69525e-05
2.71446e-05
-8.06793e-05
2.70445e-05
-8.42935e-05
2.67622e-05
-8.7779e-05
2.63108e-05
-9.11151e-05
2.56784e-05
-9.42756e-05
2.48531e-05
-9.72344e-05
2.38372e-05
-9.99647e-05
2.26297e-05
-0.000102439
2.12329e-05
-0.000104631
1.96556e-05
-0.000106517
1.79022e-05
-0.000108071
1.59734e-05
-0.000109268
1.38722e-05
-0.000110084
1.16059e-05
-0.000110495
9.1833e-06
-0.000110481
6.61508e-06
-0.000110021
3.91387e-06
-0.000109094
1.09361e-06
-0.000107676
-1.83501e-06
-0.000105742
-4.8712e-06
-0.000103263
-8.02716e-06
-0.000100216
-1.13198e-05
-9.65789e-05
-1.4758e-05
-9.23267e-05
-1.8343e-05
-8.7436e-05
-2.20686e-05
-8.18853e-05
-2.5923e-05
-7.56558e-05
-2.989e-05
-6.87327e-05
-3.39492e-05
-6.11057e-05
-3.80756e-05
-5.27696e-05
-4.22415e-05
-4.37249e-05
-4.64146e-05
-3.3979e-05
-5.05592e-05
-2.35458e-05
-5.46386e-05
-1.24453e-05
-5.86182e-05
-7.04668e-07
-6.24585e-05
1.16413e-05
-6.6119e-05
2.45518e-05
-6.95662e-05
3.79797e-05
-7.27646e-05
5.18716e-05
-7.56791e-05
6.61697e-05
-7.82826e-05
8.0811e-05
-8.05461e-05
9.57281e-05
-8.2446e-05
0.000110852
-8.39621e-05
0.000126115
-8.50676e-05
0.000141449
-8.5747e-05
0.000156783
-8.60045e-05
0.000172044
-8.58451e-05
0.00018716
-8.52786e-05
0.000202063
-8.43182e-05
0.000216688
-8.29764e-05
0.000230976
-8.12749e-05
0.000244873
-7.92377e-05
0.000258332
-7.68996e-05
0.000271314
-7.43021e-05
0.000283781
-7.15241e-05
0.000295752
-6.86529e-05
0.000307169
-6.61167e-05
0.00031833
-6.39687e-05
0.000328733
-6.53111e-05
0.000340147
-6.7896e-05
-9.96457e-05
0.000421966
0.000514101
0.000443968
0.000501664
0.000419171
0.000481454
0.00033092
0.000417192
0.000205654
0.000307644
9.87039e-05
0.000185629
3.98756e-05
9.63877e-05
1.32131e-05
5.51833e-05
-1.54806e-06
4.06754e-05
-1.10844e-05
3.37749e-05
-1.85132e-05
3.13224e-05
-2.44854e-05
2.95343e-05
-2.96064e-05
2.91448e-05
-3.40977e-05
2.90346e-05
-3.82158e-05
2.93402e-05
-4.20296e-05
2.96209e-05
-4.56491e-05
2.99886e-05
-4.90989e-05
3.02316e-05
-5.23964e-05
3.03439e-05
-5.55568e-05
3.03049e-05
-5.85675e-05
3.00553e-05
-6.14193e-05
2.96141e-05
-6.41101e-05
2.90018e-05
-6.66303e-05
2.81987e-05
-6.89614e-05
2.71842e-05
-7.1085e-05
2.59607e-05
-7.29809e-05
2.45253e-05
-7.46268e-05
2.28784e-05
-7.60023e-05
2.10306e-05
-7.7088e-05
1.89872e-05
-7.7863e-05
1.67476e-05
-7.83056e-05
1.4314e-05
-7.83946e-05
1.16943e-05
-7.81097e-05
8.89784e-06
-7.74312e-05
5.93612e-06
-7.63397e-05
2.82172e-06
-7.48158e-05
-4.30942e-07
-7.28388e-05
-3.8131e-06
-7.0386e-05
-7.32516e-06
-6.74363e-05
-1.09783e-05
-6.39705e-05
-1.4787e-05
-5.99691e-05
-1.87608e-05
-5.54116e-05
-2.29017e-05
-5.02774e-05
-2.72036e-05
-4.45483e-05
-3.16523e-05
-3.8209e-05
-3.62289e-05
-3.12479e-05
-4.09092e-05
-2.36579e-05
-4.56644e-05
-1.54359e-05
-5.04621e-05
-6.58454e-06
-5.52649e-05
2.88748e-06
-6.00302e-05
1.29648e-05
-6.47152e-05
2.36272e-05
-6.92799e-05
3.48471e-05
-7.36779e-05
4.65898e-05
-7.78611e-05
5.88158e-05
-8.17918e-05
7.14799e-05
-8.54282e-05
8.45312e-05
-8.873e-05
9.79151e-05
-9.16662e-05
0.000111573
-9.42032e-05
0.000125441
-9.63145e-05
0.000139457
-9.79779e-05
0.000153559
-9.91692e-05
0.000167685
-9.98737e-05
0.000181774
-0.000100094
0.000195763
-9.98338e-05
0.000209588
-9.91044e-05
0.000223192
-9.79219e-05
0.000236519
-9.63039e-05
0.000249519
-9.42758e-05
0.000262147
-9.18663e-05
0.000274363
-8.91154e-05
0.00028613
-8.60701e-05
0.000297424
-8.28181e-05
0.000308249
-7.94778e-05
0.000318541
-7.64096e-05
0.000328509
-7.39362e-05
0.000337601
-7.44034e-05
0.000347016
-7.73112e-05
-0.000102727
0.000418026
0.000485823
0.000449736
0.000469955
0.000465261
0.00046593
0.000436997
0.000445454
0.000355519
0.000389121
0.00024303
0.000298117
0.000142988
0.000196429
8.027e-05
0.000117899
4.67397e-05
7.42051e-05
2.76708e-05
5.28433e-05
1.47791e-05
4.42137e-05
5.27953e-06
3.90335e-05
-2.09667e-06
3.65212e-05
-7.95609e-06
3.48944e-05
-1.28676e-05
3.42519e-05
-1.70516e-05
3.38053e-05
-2.07498e-05
3.36871e-05
-2.4055e-05
3.3537e-05
-2.70337e-05
3.33226e-05
-2.97454e-05
3.30163e-05
-3.22034e-05
3.25131e-05
-3.44208e-05
3.18312e-05
-3.64167e-05
3.09973e-05
-3.81975e-05
2.99789e-05
-3.97563e-05
2.87425e-05
-4.10851e-05
2.72888e-05
-4.21733e-05
2.56127e-05
-4.30069e-05
2.37113e-05
-4.35724e-05
2.15953e-05
-4.38565e-05
1.92706e-05
-4.38441e-05
1.67345e-05
-4.35182e-05
1.39876e-05
-4.2862e-05
1.10377e-05
-4.18591e-05
7.89469e-06
-4.04933e-05
4.57011e-06
-3.87484e-05
1.07666e-06
-3.66083e-05
-2.57155e-06
-3.40563e-05
-6.36589e-06
-3.1075e-05
-1.03075e-05
-2.7648e-05
-1.44067e-05
-2.37598e-05
-1.86766e-05
-1.93948e-05
-2.31273e-05
-1.45356e-05
-2.77621e-05
-9.16542e-06
-3.25746e-05
-3.27006e-06
-3.75478e-05
3.16157e-06
-4.266e-05
1.01369e-05
-4.78835e-05
1.76594e-05
-5.31856e-05
2.57288e-05
-5.85302e-05
3.43403e-05
-6.38753e-05
4.3483e-05
-6.91719e-05
5.31395e-05
-7.4371e-05
6.32886e-05
-7.94283e-05
7.39026e-05
-8.42911e-05
8.49468e-05
-8.89047e-05
9.63829e-05
-9.32273e-05
0.000108168
-9.72127e-05
0.000120254
-0.000100816
0.00013259
-0.000104002
0.000145122
-0.000106734
0.000157791
-0.000108984
0.000170542
-0.000110728
0.000183321
-0.000111948
0.000196075
-0.000112628
0.00020875
-0.000112769
0.000221295
-0.000112378
0.000233657
-0.000111467
0.000245791
-0.000110055
0.000257651
-0.000108164
0.000269195
-0.00010582
0.000280388
-0.000103059
0.000291197
-9.99246e-05
0.000301598
-9.64703e-05
0.00031157
-9.27906e-05
0.000321106
-8.90137e-05
0.000330138
-8.54421e-05
0.000338787
-8.25858e-05
0.000346468
-8.20842e-05
0.000353968
-8.48105e-05
-0.000103879
0.000415676
0.000459894
0.000445539
0.000440094
0.000476344
0.000435126
0.000489553
0.000432245
0.000464495
0.000414179
0.000394001
0.000368611
0.000294818
0.000295612
0.000201019
0.000211699
0.000134343
0.000140881
9.29757e-05
9.42127e-05
6.75148e-05
6.96776e-05
5.05573e-05
5.59935e-05
3.84104e-05
4.86688e-05
2.9322e-05
4.39821e-05
2.2234e-05
4.13389e-05
1.66325e-05
3.94049e-05
1.2042e-05
3.82759e-05
8.24568e-06
3.73319e-05
5.08332e-06
3.6484e-05
2.42012e-06
3.5679e-05
1.9316e-07
3.47396e-05
-1.65245e-06
3.36765e-05
-3.16909e-06
3.25134e-05
-4.3868e-06
3.11962e-05
-5.31746e-06
2.96726e-05
-5.96882e-06
2.79397e-05
-6.34524e-06
2.59886e-05
-6.44605e-06
2.38116e-05
-6.26738e-06
2.1416e-05
-5.80412e-06
1.88068e-05
-5.04888e-06
1.59785e-05
-3.99165e-06
1.29297e-05
-2.6215e-06
9.66687e-06
-9.2742e-07
6.20007e-06
1.10108e-06
2.54101e-06
3.47551e-06
-1.29839e-06
6.20712e-06
-5.3041e-06
9.30735e-06
-9.4672e-06
1.27884e-05
-1.379e-05
1.66626e-05
-1.82823e-05
2.09413e-05
-2.29569e-05
2.56368e-05
-2.78242e-05
3.07624e-05
-3.28888e-05
3.6331e-05
-3.81438e-05
4.23522e-05
-4.35689e-05
4.88319e-05
-4.91389e-05
5.5772e-05
-5.48223e-05
6.31714e-05
-6.05835e-05
7.1026e-05
-6.63834e-05
7.93278e-05
-7.21756e-05
8.80632e-05
-7.79061e-05
9.7213e-05
-8.35195e-05
0.000106755
-8.89687e-05
0.000116659
-9.41948e-05
0.000126893
-9.91375e-05
0.000137418
-0.000103751
0.000148195
-0.000107989
0.000159179
-0.000111799
0.000170322
-0.000115145
0.000181576
-0.000117988
0.000192891
-0.000120299
0.00020422
-0.000122057
0.000215515
-0.000123243
0.000226731
-0.000123844
0.000237823
-0.000123861
0.000248751
-0.000123306
0.000259474
-0.000122191
0.000269959
-0.00012054
0.000280172
-0.000118377
0.000290085
-0.000115734
0.000299675
-0.000112649
0.000308919
-0.000109169
0.000317799
-0.000105351
0.000326298
-0.00010129
0.000334402
-9.7118e-05
0.000342041
-9.30818e-05
0.00034926
-8.98047e-05
0.000355449
-8.82729e-05
0.000361109
-9.04708e-05
-0.000103374
0.000415476
0.000434166
0.00044156
0.000414011
0.000472492
0.000404196
0.00050272
0.000402016
0.000517354
0.000399542
0.0005002
0.000385764
0.000444028
0.000351782
0.000359586
0.00029614
0.000272179
0.000228287
0.000201782
0.000164608
0.000153543
0.000117916
0.000121461
8.80731e-05
9.95916e-05
7.05367e-05
8.39659e-05
5.96063e-05
7.2352e-05
5.29519e-05
6.35482e-05
4.82081e-05
5.6685e-05
4.5139e-05
5.13095e-05
4.27074e-05
4.70853e-05
4.0708e-05
4.37641e-05
3.89998e-05
4.11908e-05
3.73123e-05
3.92335e-05
3.56331e-05
3.77891e-05
3.39569e-05
3.67927e-05
3.21917e-05
3.62023e-05
3.0262e-05
3.59838e-05
2.81572e-05
3.61093e-05
2.58622e-05
3.65577e-05
2.33624e-05
3.73193e-05
2.06539e-05
3.8388e-05
1.77375e-05
3.97599e-05
1.46062e-05
4.14344e-05
1.12546e-05
4.34144e-05
7.68659e-06
4.5703e-05
3.91113e-06
4.83032e-05
-5.92623e-08
5.12194e-05
-4.21485e-06
5.44563e-05
-8.54144e-06
5.80196e-05
-1.30312e-05
6.19167e-05
-1.76881e-05
6.61559e-05
-2.25227e-05
7.07447e-05
-2.75471e-05
7.56913e-05
-3.2772e-05
8.10047e-05
-3.82033e-05
8.66931e-05
-4.38326e-05
9.276e-05
-4.96357e-05
9.92048e-05
-5.5583e-05
0.000106023
-6.16394e-05
0.000113209
-6.77677e-05
0.000120753
-7.39264e-05
0.000128643
-8.0065e-05
0.000136864
-8.61253e-05
0.000145393
-9.20478e-05
0.000154207
-9.77814e-05
0.000163276
-0.000103263
0.000172568
-0.000108429
0.000182048
-0.000113231
0.000191677
-0.000117617
0.000201413
-0.000121534
0.000211212
-0.000124943
0.000221032
-0.000127808
0.000230829
-0.000130096
0.000240563
-0.00013179
0.000250192
-0.000132872
0.000259681
-0.000133333
0.000269
-0.00013318
0.000278122
-0.000132427
0.000287021
-0.00013109
0.000295675
-0.000129195
0.000304068
-0.00012677
0.000312185
-0.00012385
0.000320011
-0.000120476
0.000327535
-0.000116692
0.000334745
-0.000112561
0.000341625
-0.00010817
0.000348162
-0.000103655
0.000354285
-9.92049e-05
0.000359973
-9.54926e-05
0.000364607
-9.29071e-05
0.000368495
-9.43579e-05
-0.000101389
0.000416278
0.000407636
0.000440629
0.000389661
0.000467405
0.00037742
0.00049839
0.00037103
0.000528825
0.000369107
0.000547405
0.000367183
0.000541071
0.000358115
0.000502061
0.000335149
0.000435275
0.000295071
0.000356958
0.000242924
0.000286148
0.000188725
0.000231757
0.000142465
0.000193028
0.000109266
0.000165177
8.74573e-05
0.000144921
7.32075e-05
0.000129977
6.31512e-05
0.000118659
5.64568e-05
0.000109982
5.13836e-05
0.000103312
4.73781e-05
9.81983e-05
4.41126e-05
9.43314e-05
4.11786e-05
9.14566e-05
3.85068e-05
8.94007e-05
3.60118e-05
8.80453e-05
3.35457e-05
8.7298e-05
3.10082e-05
8.70786e-05
2.83754e-05
8.73241e-05
2.56159e-05
8.79841e-05
2.27016e-05
8.90274e-05
1.96099e-05
9.04316e-05
1.63329e-05
9.21749e-05
1.28624e-05
9.42419e-05
9.18734e-06
9.66239e-05
5.3043e-06
9.93128e-05
1.22194e-06
0.000102301
-3.04812e-06
0.000105584
-7.49844e-06
0.000109158
-1.21158e-05
0.000113022
-1.68962e-05
0.000117179
-2.18468e-05
0.000121633
-2.69786e-05
0.000126388
-3.23033e-05
0.000131446
-3.78319e-05
0.000136812
-4.35707e-05
0.000142488
-4.95091e-05
0.000148469
-5.56166e-05
0.000154746
-6.18596e-05
0.000161308
-6.82004e-05
0.000168144
-7.46019e-05
0.000175241
-8.10214e-05
0.000182583
-8.74059e-05
0.000190153
-9.36932e-05
0.000197923
-9.98171e-05
0.000205866
-0.000105722
0.00021395
-0.000111346
0.000222145
-0.000116623
0.000230416
-0.0001215
0.000238723
-0.000125924
0.000247029
-0.000129839
0.000255294
-0.000133208
0.000263481
-0.000135995
0.000271556
-0.000138171
0.000279487
-0.000139721
0.000287248
-0.000140632
0.000294817
-0.000140902
0.000302177
-0.000140541
0.000309314
-0.000139564
0.000316218
-0.000137994
0.00032288
-0.000135858
0.000329295
-0.000133185
0.000335459
-0.000130014
0.00034137
-0.000126387
0.000347024
-0.000122348
0.000352421
-0.000117958
0.000357549
-0.000113298
0.000362394
-0.000108501
0.000366885
-0.000103696
0.000370954
-9.95614e-05
0.000373987
-9.59399e-05
0.000376156
-9.65275e-05
-9.80381e-05
0.000417088
0.000380296
0.000441661
0.00036509
0.000465857
0.000353224
0.000492544
0.000344342
0.000522948
0.000338701
0.000553872
0.000336257
0.000577321
0.000334665
0.000583007
0.000329462
0.000563107
0.00031497
0.000516986
0.000289044
0.000453404
0.000252307
0.000386424
0.000209443
0.000328277
0.000167412
0.000283229
0.000132504
0.000249712
0.000106725
0.000224425
8.84381e-05
0.000205159
7.57229e-05
0.00019049
6.60522e-05
0.000179338
5.85299e-05
0.000170757
5.26935e-05
0.00016416
4.77751e-05
0.000159142
4.35237e-05
0.000155439
3.97127e-05
0.000152839
3.61445e-05
0.00015116
3.26863e-05
0.000150253
2.92814e-05
0.000150007
2.58608e-05
0.000150333
2.23746e-05
0.000151169
1.87733e-05
0.000152465
1.50367e-05
0.000154175
1.1152e-05
0.000156264
7.09835e-06
0.000158705
2.86358e-06
0.000161472
-1.54599e-06
0.000164546
-6.12191e-06
0.000167908
-1.08602e-05
0.000171544
-1.57526e-05
0.000175449
-2.08013e-05
0.000179619
-2.60183e-05
0.000184054
-3.14147e-05
0.000188751
-3.70016e-05
0.000193708
-4.27896e-05
0.000198922
-4.87862e-05
0.00020439
-5.49776e-05
0.000210097
-6.13236e-05
0.000216024
-6.77851e-05
0.000222149
-7.43248e-05
0.000228456
-8.09076e-05
0.000234925
-8.74895e-05
0.000241535
-9.40147e-05
0.000248262
-0.000100419
0.000255076
-0.00010663
0.000261944
-0.000112589
0.000268833
-0.000118234
0.00027571
-0.000123499
0.00028254
-0.000128329
0.00028929
-0.000132674
0.000295932
-0.00013648
0.000302435
-0.00013971
0.000308771
-0.000142331
0.000314917
-0.000144317
0.000320854
-0.000145657
0.000326565
-0.000146343
0.000332041
-0.000146378
0.000337274
-0.000145774
0.000342262
-0.000144552
0.000347007
-0.000142739
0.000351514
-0.000140364
0.000355791
-0.000137462
0.000359848
-0.000134071
0.000363695
-0.000130234
0.000367341
-0.000125993
0.000370793
-0.00012141
0.000374044
-0.000116549
0.000377085
-0.000111542
0.000379839
-0.000106451
0.000382213
-0.000101935
0.000383608
-9.73346e-05
0.000384103
-9.70218e-05
-9.33976e-05
0.000417566
0.000352478
0.000443006
0.000339651
0.000466952
0.000329278
0.000490846
0.000320447
0.000516778
0.000312768
0.000545971
0.000307064
0.000576898
0.000303737
0.000604517
0.000301842
0.000621139
0.000298345
0.000619832
0.00029035
0.000596834
0.000275305
0.000554074
0.000252203
0.000499352
0.000222135
0.000443157
0.0001887
0.000393845
0.000156038
0.000354403
0.000127882
0.00032408
0.000106047
0.000300543
8.95897e-05
0.000282033
7.70389e-05
0.000267407
6.73188e-05
0.000255975
5.9206e-05
0.00024713
5.23673e-05
0.000240374
4.64669e-05
0.000235288
4.12287e-05
0.000231563
3.64088e-05
0.000228975
3.1868e-05
0.000227352
2.74821e-05
0.000226549
2.31757e-05
0.000226463
1.88594e-05
0.000227
1.44987e-05
0.000228082
1.00698e-05
0.000229646
5.5346e-06
0.000231637
8.72902e-07
0.000234005
-3.91379e-06
0.000236712
-8.82931e-06
0.00023973
-1.38779e-05
0.000243035
-1.90583e-05
0.000246613
-2.43808e-05
0.000250456
-2.98624e-05
0.000254553
-3.55134e-05
0.000258893
-4.13431e-05
0.000263463
-4.73614e-05
0.000268251
-5.35758e-05
0.000273241
-5.99682e-05
0.000278404
-6.64868e-05
0.00028371
-7.3091e-05
0.000289133
-7.97468e-05
0.000294647
-8.64199e-05
0.000300223
-9.30646e-05
0.000305829
-9.96193e-05
0.00031143
-0.000106018
0.000316992
-0.000112192
0.000322489
-0.000118085
0.000327893
-0.000123637
0.000333176
-0.000128781
0.000338309
-0.000133461
0.000343265
-0.000137629
0.00034802
-0.000141234
0.000352548
-0.000144238
0.000356832
-0.000146614
0.000360856
-0.00014834
0.000364606
-0.000149407
0.000368077
-0.000149814
0.00037127
-0.00014957
0.00037419
-0.000148694
0.000376849
-0.000147212
0.000379264
-0.000145154
0.000381454
-0.000142554
0.000383441
-0.000139449
0.000385247
-0.000135878
0.000386896
-0.000131883
0.000388406
-0.000127504
0.000389794
-0.000122798
0.000391059
-0.000117814
0.000392195
-0.000112679
0.000393122
-0.000107378
0.00039374
-0.000102553
0.00039347
-9.70653e-05
0.000392327
-9.58784e-05
-8.75261e-05
0.000417784
0.000324443
0.000443905
0.000313532
0.000468579
0.000304605
0.000492147
0.000296877
0.000515517
0.000289397
0.000540237
0.000282342
0.000567599
0.000276374
0.000597406
0.000272034
0.000626903
0.000268847
0.000651446
0.000265806
0.000665498
0.000261253
0.000664524
0.000253177
0.000646374
0.000240285
0.000612795
0.000222279
0.000569239
0.000199594
0.00052283
0.000174291
0.000480099
0.000148778
0.000444321
0.000125368
0.000415745
0.000105615
0.00039324
8.98223e-05
0.000375267
7.71782e-05
0.000360774
6.68596e-05
0.000349115
5.81242e-05
0.000339814
5.05284e-05
0.000332518
4.37039e-05
0.000326921
3.74629e-05
0.000322749
3.16539e-05
0.000319769
2.61545e-05
0.000317813
2.08149e-05
0.000316728
1.55835e-05
0.000316386
1.04121e-05
0.000316687
5.2338e-06
0.000317542
1.77213e-08
0.000318871
-5.24228e-06
0.000320618
-1.0576e-05
0.000322739
-1.59993e-05
0.000325201
-2.15195e-05
0.000327976
-2.71571e-05
0.000331046
-3.29324e-05
0.000334384
-3.88525e-05
0.000337964
-4.49246e-05
0.00034176
-5.11586e-05
0.000345742
-5.75593e-05
0.000349873
-6.40994e-05
0.000354105
-7.07188e-05
0.000358401
-7.73865e-05
0.000362731
-8.40758e-05
0.000367061
-9.07493e-05
0.000371358
-9.73604e-05
0.000375585
-0.000103846
0.000379707
-0.000110139
0.000383692
-0.000116176
0.000387513
-0.000121905
0.000391144
-0.000127268
0.000394562
-0.000132198
0.000397741
-0.00013664
0.000400654
-0.000140542
0.000403278
-0.000143857
0.000405593
-0.000146553
0.000407587
-0.000148607
0.000409251
-0.000150005
0.000410587
-0.000150743
0.000411601
-0.000150828
0.000412306
-0.000150275
0.000412722
-0.00014911
0.000412875
-0.000147365
0.000412796
-0.000145074
0.000412518
-0.000142276
0.000412075
-0.000139007
0.000411503
-0.000135306
0.000410836
-0.000131215
0.000410101
-0.000126769
0.000409324
-0.00012202
0.000408512
-0.000117002
0.000407663
-0.000111829
0.00040669
-0.000106405
0.000405504
-0.000101367
0.000403554
-9.51145e-05
0.00040081
-9.31333e-05
-8.04727e-05
0.000417892
0.000296299
0.000444371
0.000287054
0.000469682
0.000279294
0.000493938
0.000272619
0.000517189
0.000266146
0.000539959
0.000259571
0.000563308
0.000253025
0.000588431
0.000246908
0.000615779
0.000241499
0.000644558
0.000237027
0.000672506
0.000233305
0.000696143
0.00022954
0.000711669
0.00022476
0.000716036
0.000217914
0.000707501
0.000208131
0.00068658
0.000195214
0.00065603
0.000179329
0.000620385
0.000161014
0.000584336
0.000141663
0.000551583
0.000122574
0.000523914
0.000104846
0.000501412
8.93597e-05
0.000483306
7.62282e-05
0.000468687
6.51461e-05
0.000456766
5.56223e-05
0.000447021
4.72067e-05
0.000439122
3.95508e-05
0.000432819
3.24563e-05
0.000427887
2.57466e-05
0.000424127
1.93426e-05
0.000421377
1.31627e-05
0.000419494
7.11645e-06
0.000418356
1.15676e-06
0.000417858
-4.74341e-06
0.000417925
-1.06425e-05
0.000418485
-1.65592e-05
0.00041948
-2.25144e-05
0.000420863
-2.85408e-05
0.000422591
-3.46611e-05
0.000424618
-4.088e-05
0.000426898
-4.72066e-05
0.00042939
-5.36521e-05
0.000432044
-6.0214e-05
0.000434805
-6.68615e-05
0.000437622
-7.35356e-05
0.000440446
-8.02105e-05
0.000443234
-8.68631e-05
0.000445944
-9.34597e-05
0.000448543
-9.99581e-05
0.000450992
-0.000106294
0.000453258
-0.000112404
0.000455311
-0.000118229
0.00045712
-0.000123713
0.000458655
-0.000128801
0.000459888
-0.00013343
0.000460792
-0.000137543
0.000461346
-0.000141094
0.000461531
-0.000144042
0.000461339
-0.00014636
0.000460765
-0.000148033
0.000459813
-0.000149053
0.000458495
-0.000149425
0.000456829
-0.000149162
0.000454843
-0.000148289
0.000452569
-0.000146837
0.000450049
-0.000144845
0.000447325
-0.000142351
0.000444445
-0.000139395
0.000441453
-0.000136016
0.000438398
-0.000132251
0.000435321
-0.000128138
0.000432259
-0.000123707
0.000429243
-0.000119005
0.000426289
-0.000114048
0.000423393
-0.000108934
0.000420474
-0.000103486
0.000417457
-9.835e-05
0.000413823
-9.14807e-05
0.000409518
-8.88285e-05
-7.22867e-05
0.000417968
0.000268079
0.000444626
0.000260399
0.000470249
0.000253672
0.000495075
0.000247791
0.000519017
0.000242203
0.000542011
0.000236576
0.000564278
0.000230757
0.000586438
0.000224748
0.000609296
0.00021864
0.000633586
0.000212737
0.000659548
0.000207342
0.00068655
0.000202538
0.00071311
0.000198199
0.000737069
0.000193955
0.000755911
0.000189288
0.000767503
0.000183621
0.000770258
0.000176573
0.000763606
0.000167665
0.000748327
0.000156941
0.000726328
0.000144573
0.000700301
0.000130871
0.000673219
0.000116442
0.000647485
0.000101961
0.000624655
8.79751e-05
0.000605359
7.49172e-05
0.000589489
6.30769e-05
0.000576546
5.24932e-05
0.000565962
4.30399e-05
0.000557231
3.44769e-05
0.000549996
2.65777e-05
0.000544022
1.9137e-05
0.000539133
1.20063e-05
0.000535195
5.09516e-06
0.000532099
-1.64681e-06
0.000529746
-8.28837e-06
0.000528041
-1.48539e-05
0.000526897
-2.13697e-05
0.000526232
-2.78762e-05
0.000525977
-3.44064e-05
0.000526066
-4.09695e-05
0.000526439
-4.7581e-05
0.000527033
-5.42463e-05
0.000527768
-6.09502e-05
0.000528583
-6.7677e-05
0.000529424
-7.43766e-05
0.000530233
-8.10192e-05
0.000530959
-8.75886e-05
0.000531557
-9.40576e-05
0.000531986
-0.000100387
0.000532203
-0.000106511
0.000532163
-0.000112365
0.000531837
-0.000117902
0.000531195
-0.000123071
0.000530207
-0.000127813
0.000528846
-0.000132069
0.000527089
-0.000135786
0.000524918
-0.000138923
0.000522324
-0.000141448
0.000519307
-0.000143343
0.000515874
-0.0001446
0.00051204
-0.000145218
0.000507827
-0.000145212
0.000503267
-0.000144602
0.000498399
-0.000143421
0.000493269
-0.000141707
0.000487932
-0.000139507
0.000482442
-0.000136861
0.000476857