/*--------------------------------*- C++ -*----------------------------------*\
| =========                 |                                                 |
| \\      /  F ield         | OpenFOAM: The Open Source CFD Toolbox           |
|  \\    /   O peration     | Version:  v1912                                 |
|   \\  /    A nd           | Website:  www.openfoam.com                      |
|    \\/     M anipulation  |                                                 |
\*---------------------------------------------------------------------------*/
FoamFile
{
    version     2.0;
    format      ascii;
    class       volScalarField;
    location    "3500";
    object      p;
}
// * * * * * * * * * * * * * * * * * * * * * * * * * * * * * * * * * * * * * //

dimensions      [0 2 -2 0 0 0 0];


internalField   nonuniform List<scalar> 
3101
(
-27.2814
-27.6305
-27.9151
-28.5664
-28.9474
-29.7025
-30.5538
-32.1826
-35.0511
-40.6966
-51.2756
-69.7821
-98.0649
-134.781
-175
-213.112
-27.2883
-27.6373
-27.9194
-28.5688
-28.9494
-29.7028
-30.5538
-32.1816
-35.0504
-40.6976
-51.2818
-69.7966
-98.0889
-134.811
-175.031
-213.139
-27.3
-27.6505
-27.9261
-28.5742
-28.9522
-29.704
-30.5535
-32.1802
-35.0492
-40.6996
-51.2924
-69.8219
-98.1314
-134.866
-175.088
-213.188
-27.3175
-27.6708
-27.9358
-28.5826
-28.9561
-29.7058
-30.553
-32.1781
-35.0472
-40.7025
-51.3082
-69.8599
-98.1952
-134.948
-175.173
-213.262
-27.3411
-27.698
-27.9486
-28.5936
-28.9613
-29.7082
-30.5523
-32.1753
-35.0447
-40.7064
-51.3293
-69.9102
-98.2798
-135.057
-175.285
-213.36
-27.3705
-27.732
-27.9644
-28.6072
-28.9677
-29.7112
-30.5514
-32.1718
-35.0414
-40.7112
-51.3553
-69.9724
-98.3841
-135.191
-175.423
-213.48
-27.4057
-27.7729
-27.9829
-28.623
-28.9752
-29.7146
-30.5502
-32.1677
-35.0376
-40.7169
-51.3859
-70.0458
-98.5071
-135.349
-175.585
-213.621
-27.4467
-27.8205
-28.0041
-28.641
-28.9836
-29.7184
-30.5489
-32.1629
-35.0332
-40.7233
-51.421
-70.1298
-98.6478
-135.53
-175.771
-213.782
-27.4933
-27.875
-28.0275
-28.6609
-28.9928
-29.7225
-30.5473
-32.1574
-35.0282
-40.7304
-51.4602
-70.2237
-98.805
-135.731
-175.977
-213.96
-27.5454
-27.9364
-28.0531
-28.6825
-29.0027
-29.7268
-30.5454
-32.1513
-35.0226
-40.7382
-51.5033
-70.3268
-98.9772
-135.951
-176.202
-214.155
-27.6026
-28.0046
-28.0804
-28.7053
-29.0131
-29.7313
-30.5432
-32.1446
-35.0165
-40.7466
-51.5498
-70.4382
-99.1633
-136.189
-176.445
-214.364
-27.6634
-28.0795
-28.1092
-28.7292
-29.0239
-29.7358
-30.5407
-32.1373
-35.0099
-40.7555
-51.5995
-70.557
-99.3615
-136.441
-176.702
-214.586
-27.7229
-28.1614
-28.1392
-28.7538
-29.0349
-29.7403
-30.5379
-32.1295
-35.0029
-40.7648
-51.652
-70.6825
-99.5704
-136.707
-176.972
-214.818
-27.78
-28.2505
-28.1699
-28.7787
-29.0461
-29.7446
-30.5347
-32.1211
-34.9954
-40.7746
-51.7068
-70.8136
-99.7885
-136.984
-177.253
-215.059
-27.8784
-28.3467
-28.2009
-28.8036
-29.057
-29.7487
-30.5312
-32.1124
-34.9877
-40.7848
-51.7638
-70.9494
-100.014
-137.27
-177.543
-215.308
-31.8022
-30.1402
-31.5361
-31.8684
-30.153
-31.5068
-31.9347
-30.1567
-31.498
-31.9891
-30.1482
-31.4942
-32.0333
-30.125
-31.4926
-32.0697
-30.0838
-31.4967
-32.0996
-30.0223
-31.5111
-32.1249
-29.939
-31.5398
-32.1475
-29.8337
-31.5871
-32.1697
-29.7072
-31.6583
-32.1971
-29.5619
-31.7602
-32.2356
-29.403
-31.9012
-32.2924
-29.2368
-32.0913
-32.377
-29.0749
-32.3406
-32.4934
-28.9273
-32.6752
-32.639
-28.789
-33.1451
-32.8085
-28.6581
-33.7988
-32.9954
-28.5524
-34.6901
-33.1926
-28.4961
-35.8931
-33.393
-28.5055
-37.4501
-33.5905
-28.5838
-39.3223
-33.7797
-28.7205
-41.3958
-33.9558
-28.8934
-43.4982
-34.1144
-29.0734
-45.4218
-34.2519
-29.2317
-46.9587
-34.3657
-29.3491
-47.9414
-34.4537
-29.4207
-48.2742
-34.5137
-29.4571
-47.9474
-34.5425
-29.4798
-47.0314
-34.536
-29.5148
-45.6551
-34.4899
-29.5854
-43.9786
-34.4011
-29.706
-42.1646
-34.2696
-29.8793
-40.3569
-34.099
-30.0973
-38.6669
-33.8962
-30.3438
-37.1683
-33.67
-30.5991
-35.8988
-33.4295
-30.8444
-34.8662
-33.1825
-31.0649
-34.0558
-32.9349
-31.2505
-33.4395
-32.6904
-31.3962
-32.9831
-32.4509
-31.501
-32.6519
-32.2169
-31.5667
-32.4149
-31.9879
-31.5965
-32.246
-31.7629
-31.5945
-32.1249
-31.5408
-31.5649
-32.036
-31.3201
-31.5116
-31.968
-31.0999
-31.4382
-31.9124
-30.8792
-31.3478
-31.863
-30.6571
-31.2431
-31.8153
-30.433
-31.1261
-31.7661
-30.2065
-30.9987
-31.713
-29.9774
-30.8623
-31.6546
-29.7456
-30.7181
-31.5899
-29.5113
-30.5671
-31.5184
-29.2746
-30.4101
-31.44
-29.0358
-30.2477
-31.3545
-28.7954
-30.0806
-31.2622
-28.5536
-29.9092
-31.1633
-28.3111
-29.7341
-31.058
-28.0682
-29.5556
-30.9468
-27.8254
-29.3743
-30.8299
-27.5832
-29.1905
-30.7077
-27.342
-29.0046
-30.5804
-27.1022
-28.817
-30.4484
-26.8643
-28.6281
-30.312
-26.6285
-28.4381
-30.1715
-26.3952
-28.2474
-30.0271
-26.1647
-28.0562
-29.8792
-25.9373
-27.8648
-29.7278
-25.713
-27.6735
-29.5734
-25.4922
-27.4823
-29.4159
-25.2749
-27.2915
-29.2557
-25.0611
-27.1012
-29.0928
-24.8511
-26.9115
-28.9274
-24.6446
-26.7224
-28.7595
-24.4418
-26.534
-28.5893
-24.2425
-26.3462
-28.4167
-24.0467
-26.159
-28.2418
-23.8541
-25.9724
-28.0646
-23.6646
-25.7861
-27.885
-23.478
-25.6002
-27.703
-23.294
-25.4144
-27.5184
-23.1124
-25.2286
-27.3313
-22.9328
-25.0425
-27.1413
-22.755
-24.8559
-26.9485
-22.5787
-24.6686
-26.7527
-22.4033
-24.4803
-26.5535
-22.2286
-24.2906
-26.351
-22.0542
-24.0993
-26.1448
-21.8797
-23.9062
-25.9347
-21.7046
-23.7108
-25.7205
-21.5286
-23.5128
-25.502
-21.3512
-23.3119
-25.2788
-21.172
-23.1077
-25.0509
-20.9905
-22.9
-24.8179
-20.8064
-22.6883
-24.5795
-20.6192
-22.4724
-24.3356
-20.4285
-22.2519
-24.0859
-20.2339
-22.0264
-23.8301
-20.035
-21.7957
-23.568
-19.8314
-21.5595
-23.2994
-19.6228
-21.3174
-23.0241
-19.4087
-21.0692
-22.7419
-19.189
-20.8147
-22.4525
-18.9631
-20.5534
-22.1558
-18.7309
-20.2853
-21.8517
-18.4921
-20.0101
-21.5399
-18.2463
-19.7275
-21.2204
-17.9934
-19.4375
-20.893
-17.733
-19.1397
-20.5576
-17.4651
-18.8342
-20.2141
-17.1893
-18.5207
-19.8625
-16.9057
-18.1991
-19.5027
-16.6139
-17.8694
-19.1346
-16.3139
-17.5314
-18.7582
-16.0056
-17.1851
-18.3736
-15.6888
-16.8305
-17.9806
-15.3636
-16.4675
-17.5793
-15.0299
-16.0961
-17.1698
-14.6876
-15.7163
-16.752
-14.3367
-15.3281
-16.3261
-13.9772
-14.9315
-15.892
-13.6092
-14.5266
-15.4499
-13.2326
-14.1135
-14.9998
-12.8475
-13.6921
-14.5417
-12.454
-13.2626
-14.0759
-12.052
-12.8249
-13.6022
-12.3793
-13.1209
-11.9257
-12.632
-11.4641
-12.1355
-10.9948
-11.6316
-10.5177
-11.1204
-10.0329
-10.6017
-9.54042
-10.0758
-9.04036
-9.54269
-8.53273
-9.00231
-8.01754
-8.45469
-7.49482
-7.89985
-6.96452
-7.33771
-6.42669
-6.7683
-5.88114
-6.19138
-5.32808
-5.60714
-4.7669
-5.01492
-4.19845
-4.41554
-3.6209
-3.80711
-3.03702
-3.19233
-2.4417
-2.56608
-1.84291
-1.93618
-1.22714
-1.28926
-0.615299
-0.645532
-28.0924
-28.4402
-28.2306
-28.8276
-29.0675
-29.7525
-30.5274
-32.1034
-34.9799
-40.7949
-51.8207
-71.0851
-100.239
-137.555
-177.832
-215.555
-28.2093
-28.5265
-28.2591
-28.8501
-29.0774
-29.7558
-30.5235
-32.0943
-34.9721
-40.8052
-51.8778
-71.2208
-100.464
-137.839
-178.119
-215.801
-28.2595
-28.605
-28.2866
-28.872
-29.0871
-29.7587
-30.5192
-32.0848
-34.9641
-40.816
-51.9371
-71.3612
-100.696
-138.132
-178.414
-216.053
-28.2847
-28.6751
-28.3125
-28.8929
-29.0964
-29.7612
-30.5145
-32.0749
-34.956
-40.8274
-51.9983
-71.5054
-100.934
-138.431
-178.716
-216.311
-28.2927
-28.7368
-28.3362
-28.9126
-29.1051
-29.7631
-30.5094
-32.0646
-34.9479
-40.8393
-52.0611
-71.6527
-101.176
-138.736
-179.023
-216.573
-28.2826
-28.7896
-28.3575
-28.9307
-29.1132
-29.7645
-30.5039
-32.0542
-34.94
-40.852
-52.1255
-71.8025
-101.422
-139.045
-179.334
-216.839
-28.2555
-28.833
-28.3759
-28.947
-29.1204
-29.7653
-30.4981
-32.0437
-34.9324
-40.8654
-52.1911
-71.954
-101.669
-139.356
-179.647
-217.107
-28.214
-28.867
-28.3913
-28.9612
-29.1266
-29.7654
-30.492
-32.0332
-34.9253
-40.8798
-52.2579
-72.1064
-101.918
-139.667
-179.96
-217.375
-28.1608
-28.8913
-28.4035
-28.9732
-29.1319
-29.7648
-30.4857
-32.0229
-34.919
-40.8954
-52.3257
-72.2591
-102.165
-139.976
-180.272
-217.642
-28.0984
-28.9059
-28.4123
-28.9826
-29.136
-29.7635
-30.4792
-32.0129
-34.9137
-40.9124
-52.3946
-72.4114
-102.41
-140.283
-180.581
-217.907
-28.0295
-28.9108
-28.4178
-28.9894
-29.1389
-29.7615
-30.4726
-32.0035
-34.9099
-40.9312
-52.4645
-72.5624
-102.651
-140.584
-180.884
-218.168
-27.9565
-28.9061
-28.4199
-28.9935
-29.1406
-29.7587
-30.4661
-31.995
-34.9079
-40.9522
-52.5356
-72.7118
-102.888
-140.877
-181.18
-218.423
-27.8818
-28.8923
-28.4189
-28.9947
-29.1411
-29.7554
-30.4598
-31.9876
-34.9081
-40.9758
-52.608
-72.8588
-103.117
-141.162
-181.468
-218.672
-27.8064
-28.87
-28.415
-28.9929
-29.1403
-29.7515
-30.4539
-31.9817
-34.9111
-41.0028
-52.6821
-73.0032
-103.339
-141.435
-181.744
-218.912
-27.7299
-28.8405
-28.4088
-28.988
-29.1382
-29.7471
-30.4486
-31.9777
-34.9172
-41.0337
-52.7586
-73.1446
-103.551
-141.695
-182.008
-219.141
-27.6521
-28.8052
-28.4014
-28.9795
-29.135
-29.7424
-30.4444
-31.9757
-34.927
-41.069
-52.8384
-73.2833
-103.753
-141.94
-182.257
-219.358
-27.56
-28.7677
-28.3969
-28.966
-29.1308
-29.7374
-30.4414
-31.9763
-34.941
-41.1094
-52.9219
-73.42
-103.944
-142.169
-182.488
-219.561
-27.3612
-28.7472
-28.4034
-28.9458
-29.1258
-29.7323
-30.44
-31.98
-34.9601
-41.1557
-53.01
-73.5555
-104.123
-142.379
-182.701
-219.748
-26.8866
-28.7721
-28.4314
-28.9171
-29.1199
-29.7274
-30.4408
-31.9874
-34.9854
-41.2093
-53.1036
-73.6902
-104.291
-142.569
-182.893
-219.917
-25.9811
-28.856
-28.4955
-28.8781
-29.1129
-29.7233
-30.4441
-31.9995
-35.0179
-41.2715
-53.2044
-73.8251
-104.449
-142.737
-183.061
-220.066
-24.5551
-28.9949
-28.6158
-28.8275
-29.1046
-29.7205
-30.4505
-32.017
-35.0589
-41.3441
-53.3141
-73.9615
-104.595
-142.882
-183.201
-220.191
-22.6004
-29.1665
-28.8149
-28.7668
-29.0943
-29.7201
-30.461
-32.0409
-35.1101
-41.4289
-53.4348
-74.1014
-104.732
-143.006
-183.314
-220.291
-20.219
-29.3309
-29.1103
-28.7012
-29.0821
-29.7237
-30.4766
-32.0726
-35.1732
-41.5282
-53.5688
-74.2469
-104.861
-143.106
-183.396
-220.361
-17.6341
-29.4396
-29.5054
-28.6405
-29.0685
-29.7337
-30.4991
-32.1136
-35.2501
-41.6447
-53.7191
-74.4006
-104.982
-143.184
-183.448
-220.4
-15.1626
-29.4478
-29.9832
-28.5986
-29.0559
-29.7532
-30.5312
-32.1661
-35.3432
-41.7816
-53.8889
-74.5659
-105.098
-143.238
-183.466
-220.405
-13.1513
-29.3274
-30.5059
-28.591
-29.0488
-29.7866
-30.5769
-32.2333
-35.4552
-41.9422
-54.0821
-74.7464
-105.213
-143.271
-183.449
-220.374
-11.897
-29.0759
-31.0219
-28.6324
-29.0542
-29.8394
-30.6418
-32.3196
-35.5897
-42.1304
-54.3036
-74.9464
-105.329
-143.284
-183.397
-220.303
-11.5793
-28.7198
-31.4779
-28.7343
-29.0815
-29.9177
-30.7336
-32.4315
-35.7516
-42.3501
-54.5583
-75.171
-105.452
-143.278
-183.309
-220.189
-12.2252
-28.31
-31.8308
-28.902
-29.1415
-30.0282
-30.8609
-32.5774
-35.9476
-42.6061
-54.8519
-75.4258
-105.586
-143.258
-183.186
-220.032
-13.7159
-27.911
-32.0573
-29.1347
-29.2452
-30.1774
-31.0336
-32.7674
-36.1866
-42.904
-55.1898
-75.717
-105.737
-143.228
-183.027
-219.827
-15.826
-27.5869
-32.1569
-29.4244
-29.4017
-30.3714
-31.2609
-33.0131
-36.4791
-43.2513
-55.5768
-76.0513
-105.912
-143.194
-182.836
-219.574
-18.2817
-27.3886
-32.1488
-29.7585
-29.6168
-30.6145
-31.5501
-33.3256
-36.8368
-43.6571
-56.0173
-76.4344
-106.116
-143.161
-182.616
-219.271
-20.8166
-27.3452
-32.0655
-30.1213
-29.8911
-30.9087
-31.9059
-33.7141
-37.2712
-44.1322
-56.5159
-76.8705
-106.356
-143.135
-182.37
-218.919
-23.2142
-27.4616
-31.9441
-30.4971
-30.2207
-31.2532
-32.3285
-34.1842
-37.7916
-44.687
-57.0779
-77.3608
-106.635
-143.123
-182.105
-218.519
-25.329
-27.7218
-31.8193
-30.8726
-30.5976
-31.6439
-32.8139
-34.7363
-38.4029
-45.3295
-57.7087
-77.9038
-106.956
-143.129
-181.827
-218.075
-27.0883
-28.0954
-31.7187
-31.2377
-31.0113
-32.0748
-33.354
-35.3649
-39.1046
-46.0639
-58.4129
-78.4962
-107.314
-143.153
-181.54
-217.59
-28.4801
-28.5459
-31.6604
-31.5868
-31.4507
-32.5381
-33.938
-36.0596
-39.8898
-46.8881
-59.192
-79.1334
-107.701
-143.193
-181.247
-217.07
-29.535
-29.0366
-31.6536
-31.9177
-31.9053
-33.0257
-34.5541
-36.8064
-40.7458
-47.7939
-60.0428
-79.8101
-108.104
-143.238
-180.945
-216.517
-30.3073
-29.5364
-31.7
-32.2316
-32.3663
-33.5302
-35.1907
-37.5898
-41.656
-48.7671
-60.9564
-80.519
-108.505
-143.273
-180.625
-215.931
-30.8585
-30.0213
-31.796
-32.531
-32.8272
-34.0452
-35.8382
-38.3946
-42.6019
-49.7898
-61.9193
-81.25
-108.888
-143.273
-180.27
-215.306
-31.247
-30.4756
-31.9348
-32.8197
-33.2831
-34.5657
-36.4888
-39.208
-43.5658
-50.8418
-62.9144
-81.9912
-109.237
-143.211
-179.855
-214.626
-31.5215
-30.8906
-32.1082
-33.1013
-33.7313
-35.088
-37.1372
-40.0198
-44.5324
-51.904
-63.9237
-82.7292
-109.539
-143.061
-179.346
-213.865
-31.7192
-31.2633
-32.3076
-33.3788
-34.1702
-35.6094
-37.7798
-40.8227
-45.4896
-52.9596
-64.9299
-83.4518
-109.781
-142.8
-178.709
-212.988
-31.8666
-31.5944
-32.5251
-33.6545
-34.5989
-36.1276
-38.4146
-41.6121
-46.429
-53.9957
-65.9181
-84.1481
-109.96
-142.416
-177.909
-211.953
-31.9808
-31.8869
-32.7536
-33.9297
-35.0174
-36.6411
-39.0403
-42.3853
-47.3453
-55.0031
-66.8766
-84.8103
-110.073
-141.902
-176.924
-210.718
-32.0728
-32.1451
-32.9873
-34.2048
-35.4256
-37.1484
-39.6558
-43.1405
-48.2352
-55.9759
-67.7971
-85.4327
-110.123
-141.266
-175.743
-209.249
-32.149
-32.3732
-33.2217
-34.4796
-35.8237
-37.648
-40.2605
-43.877
-49.097
-56.9109
-68.6744
-86.0121
-110.118
-140.522
-174.372
-207.526
-32.2131
-32.5753
-33.453
-34.7534
-36.2118
-38.1389
-40.8534
-44.5938
-49.9299
-57.8067
-69.5058
-86.5465
-110.064
-139.691
-172.835
-205.552
-32.2672
-32.7551
-33.6786
-35.0251
-36.5899
-38.6197
-41.4337
-45.2904
-50.7333
-58.6626
-70.2901
-87.0352
-109.967
-138.795
-171.163
-203.349
-32.3124
-32.9153
-33.8964
-35.2935
-36.9579
-39.0893
-42.0003
-45.966
-51.5067
-59.4785
-71.027
-87.478
-109.833
-137.854
-169.394
-200.959
-32.3492
-33.0585
-34.1051
-35.5572
-37.3157
-39.5467
-42.5521
-46.6198
-52.2495
-60.2542
-71.7166
-87.875
-109.664
-136.882
-167.564
-198.432
-32.378
-33.1865
-34.3037
-35.8149
-37.6627
-39.991
-43.088
-47.251
-52.9611
-60.9898
-72.3592
-88.2264
-109.462
-135.89
-165.7
-195.818
-32.3988
-33.3008
-34.4915
-36.0654
-37.9988
-40.4212
-43.607
-47.8589
-53.641
-61.6849
-72.9551
-88.5325
-109.227
-134.882
-163.823
-193.157
-32.4114
-33.4023
-34.6681
-36.3075
-38.3233
-40.8366
-44.1081
-48.4425
-54.2885
-62.3393
-73.5045
-88.7934
-108.959
-133.862
-161.945
-190.481
-32.4158
-33.492
-34.8332
-36.5402
-38.6356
-41.2363
-44.5901
-49.001
-54.903
-62.9529
-74.0075
-89.0094
-108.659
-132.829
-160.07
-187.81
-32.4118
-33.5703
-34.9867
-36.7625
-38.9352
-41.6198
-45.0522
-49.5338
-55.4841
-63.5254
-74.4644
-89.1807
-108.325
-131.782
-158.202
-185.152
-32.3995
-33.6376
-35.1284
-36.9735
-39.2213
-41.9861
-45.4935
-50.0399
-56.0312
-64.0566
-74.8752
-89.3077
-107.958
-130.721
-156.338
-182.511
-32.3789
-33.6942
-35.2581
-37.1726
-39.4934
-42.3347
-45.9132
-50.5188
-56.5439
-64.5465
-75.2402
-89.3905
-107.557
-129.644
-154.479
-179.888
-32.3499
-33.7403
-35.3759
-37.3592
-39.7507
-42.665
-46.3104
-50.9698
-57.0217
-64.9949
-75.5595
-89.4295
-107.123
-128.551
-152.622
-177.281
-32.3127
-33.7761
-35.4816
-37.5326
-39.9927
-42.9763
-46.6844
-51.3921
-57.4643
-65.4017
-75.8336
-89.4251
-106.656
-127.443
-150.767
-174.69
-32.2675
-33.8016
-35.5752
-37.6924
-40.2188
-43.2679
-47.0346
-51.7853
-57.8714
-65.7669
-76.0625
-89.3777
-106.156
-126.317
-148.914
-172.114
-32.2143
-33.8169
-35.6565
-37.8382
-40.4283
-43.5395
-47.3603
-52.1488
-58.2426
-66.0906
-76.2467
-89.2875
-105.622
-125.175
-147.061
-169.552
-32.1534
-33.822
-35.7254
-37.9696
-40.6208
-43.7903
-47.6609
-52.482
-58.5777
-66.3728
-76.3865
-89.1551
-105.056
-124.017
-145.209
-167.004
-32.0849
-33.8171
-35.782
-38.0862
-40.7958
-44.0199
-47.936
-52.7847
-58.8765
-66.6136
-76.4822
-88.9809
-104.458
-122.841
-143.357
-164.469
-32.0091
-33.8023
-35.826
-38.1877
-40.9528
-44.2279
-48.1851
-53.0564
-59.1389
-66.813
-76.5341
-88.7654
-103.827
-121.648
-141.505
-161.949
-31.9261
-33.7775
-35.8575
-38.274
-41.0915
-44.4138
-48.4078
-53.2967
-59.3648
-66.9714
-76.5428
-88.5091
-103.164
-120.438
-139.653
-159.442
-31.836
-33.7428
-35.8764
-38.3448
-41.2115
-44.5773
-48.6037
-53.5054
-59.554
-67.0888
-76.5087
-88.2124
-102.469
-119.21
-137.8
-156.949
-31.7392
-33.6984
-35.8826
-38.3999
-41.3125
-44.7179
-48.7724
-53.6824
-59.7066
-67.1656
-76.4322
-87.8761
-101.743
-117.966
-135.947
-154.469
-31.6358
-33.6443
-35.8761
-38.4392
-41.3942
-44.8355
-48.9138
-53.8273
-59.8226
-67.202
-76.3139
-87.5005
-100.987
-116.704
-134.092
-152.002
-31.526
-33.5806
-35.8569
-38.4624
-41.4565
-44.9298
-49.0276
-53.9402
-59.9022
-67.1984
-76.1543
-87.0865
-100.2
-115.426
-132.236
-149.548
-31.4098
-33.5073
-35.8249
-38.4697
-41.4992
-45.0006
-49.1138
-54.021
-59.9453
-67.1551
-75.9539
-86.6345
-99.3832
-114.131
-130.379
-147.107
-31.2875
-33.4246
-35.7802
-38.4607
-41.5221
-45.0477
-49.1721
-54.0697
-59.9523
-67.0725
-75.7133
-86.1452
-98.537
-112.819
-128.521
-144.678
-31.1592
-33.3325
-35.7228
-38.4356
-41.5251
-45.0711
-49.2025
-54.0863
-59.9233
-66.9511
-75.4333
-85.6193
-97.662
-111.49
-126.661
-142.263
-31.0251
-33.2312
-35.6527
-38.3943
-41.5082
-45.0706
-49.2051
-54.071
-59.8587
-66.7913
-75.1144
-85.0576
-96.7587
-110.146
-124.8
-139.86
-30.8851
-33.1206
-35.57
-38.3367
-41.4714
-45.0464
-49.1798
-54.0238
-59.7587
-66.5938
-74.7573
-84.4608
-95.8277
-108.786
-122.937
-137.47
-30.7395
-33.0009
-35.4747
-38.263
-41.4147
-44.9983
-49.1268
-53.9451
-59.6238
-66.3589
-74.3628
-83.8295
-94.8697
-107.41
-121.074
-135.093
-30.5882
-32.8721
-35.3668
-38.1731
-41.3381
-44.9266
-49.0462
-53.8351
-59.4543
-66.0875
-73.9315
-83.1647
-93.8852
-106.019
-119.209
-132.728
-30.4313
-32.7343
-35.2464
-38.0672
-41.2417
-44.8312
-48.9383
-53.6941
-59.2507
-65.7799
-73.4643
-82.467
-92.8751
-104.614
-117.343
-130.375
-30.2689
-32.5876
-35.1136
-37.9453
-41.1256
-44.7125
-48.8031
-53.5224
-59.0136
-65.4371
-72.962
-81.7374
-91.8399
-103.194
-115.476
-128.035
-30.101
-32.432
-34.9685
-37.8075
-40.99
-44.5704
-48.6411
-53.3205
-58.7434
-65.0595
-72.4253
-80.9767
-90.7804
-101.76
-113.608
-125.708
-29.9276
-32.2675
-34.8111
-37.6539
-40.835
-44.4054
-48.4525
-53.0887
-58.4407
-64.6481
-71.8551
-80.1857
-89.6974
-100.313
-111.74
-123.393
-29.7487
-32.0943
-34.6415
-37.4846
-40.6608
-44.2176
-48.2378
-52.8276
-58.1062
-64.2035
-71.2524
-79.3654
-88.5916
-98.8539
-109.872
-121.092
-29.5641
-31.9122
-34.4598
-37.2999
-40.4677
-44.0073
-47.9971
-52.5376
-57.7405
-63.7265
-70.618
-78.5166
-87.4638
-97.3821
-108.003
-118.803
-29.374
-31.7214
-34.2662
-37.0998
-40.2558
-43.7749
-47.7311
-52.2194
-57.3444
-63.2181
-69.9528
-77.6403
-86.3149
-95.8987
-106.135
-116.526
-29.1782
-31.5219
-34.0606
-36.8846
-40.0253
-43.5206
-47.4402
-51.8735
-56.9184
-62.6789
-69.2577
-76.7375
-85.1457
-94.4042
-104.268
-114.263
-28.9766
-31.3137
-33.8433
-36.6544
-39.7767
-43.245
-47.1248
-51.5004
-56.4635
-62.1099
-68.5338
-75.809
-83.957
-92.8994
-102.401
-112.013
-28.7692
-31.0967
-33.6142
-36.4094
-39.5101
-42.9483
-46.7854
-51.1009
-55.9803
-61.512
-67.7819
-74.856
-82.7497
-91.3849
-100.536
-109.777
-28.5558
-30.8711
-33.3736
-36.1498
-39.2259
-42.6309
-46.4226
-50.6756
-55.4696
-60.8861
-67.0032
-73.8793
-81.5246
-89.8613
-98.6727
-107.554
-28.3364
-30.6367
-33.1214
-35.8758
-38.9244
-42.2934
-46.037
-50.2253
-54.9323
-60.2332
-66.1986
-72.8799
-80.2828
-88.3294
-96.8115
-105.344
-28.1108
-30.3935
-32.8578
-35.5876
-38.6058
-41.9361
-45.6291
-49.7505
-54.3693
-59.5541
-65.369
-71.859
-79.0251
-86.7897
-94.9531
-103.149
-27.8789
-30.1417
-32.5828
-35.2854
-38.2706
-41.5596
-45.1995
-49.2521
-53.7813
-58.8499
-64.5157
-70.8174
-77.7524
-85.2432
-93.0977
-100.967
-27.6405
-29.881
-32.2967
-34.9695
-37.9191
-41.1643
-44.7489
-48.7308
-53.1692
-58.1216
-63.6395
-69.7563
-76.4656
-83.6904
-91.2459
-98.8003
-27.3956
-29.6116
-31.9995
-34.6401
-37.5517
-40.7506
-44.2778
-48.1873
-52.534
-57.37
-62.7415
-68.6767
-75.1657
-82.1321
-89.3981
-96.6478
-27.1439
-29.3334
-31.6912
-34.2974
-37.1687
-40.3192
-43.7869
-47.6225
-51.8765
-56.5963
-61.8228
-67.5796
-73.8536
-80.5691
-87.555
-94.5102
-26.8854
-29.0463
-31.372
-33.9416
-36.7704
-39.8704
-43.2769
-47.0371
-51.1976
-55.8014
-60.8845
-66.466
-72.5303
-79.0021
-85.7169
-92.3876
-26.6199
-28.7503
-31.0421
-33.573
-36.3573
-39.4048
-42.7483
-46.4318
-50.4983
-54.9863
-59.9276
-65.337
-71.1966
-77.4319
-83.8843
-90.2804
-26.3472
-28.4455
-30.7014
-33.1918
-35.9297
-38.923
-42.2019
-45.8075
-49.7794
-54.152
-58.953
-64.1937
-69.8536
-75.8593
-82.0579
-88.1888
-26.0672
-28.1318
-30.3502
-32.7983
-35.488
-38.4254
-41.6383
-45.165
-49.0418
-53.2996
-57.962
-63.037
-68.5022
-74.285
-80.2382
-86.1131
-25.7798
-27.8092
-29.9884
-32.3927
-35.0326
-37.9125
-41.0582
-44.5051
-48.2865
-52.43
-56.9555
-61.868
-67.1433
-72.7098
-78.4256
-84.0536
-25.4848
-27.4776
-29.6164
-31.9752
-34.5638
-37.385
-40.4621
-43.8285
-47.5144
-51.5441
-55.9345
-60.6876
-65.7778
-71.1344
-76.6207
-82.0106
-25.1821
-27.1371
-29.234
-31.5462
-34.0821
-36.8432
-39.8509
-43.136
-46.7263
-50.6431
-54.9002
-59.497
-64.4066
-69.5596
-74.8241
-79.9844
-24.8716
-26.7876
-28.8416
-31.1058
-33.5878
-36.2878
-39.2251
-42.4285
-45.9232
-49.7278
-53.8534
-58.297
-63.0307
-67.9861
-73.0362
-77.9751
-24.5532
-26.4292
-28.4391
-30.6543
-33.0814
-35.7191
-38.5853
-41.7066
-45.1059
-48.7992
-52.7952
-57.0887
-61.651
-66.4147
-71.2576
-75.9832
-24.2268
-26.0619
-28.0268
-30.1919
-32.5631
-35.1379
-37.9323
-40.9712
-44.2752
-47.8583
-51.7265
-55.8731
-60.2682
-64.8461
-69.4888
-74.0089
-23.8922
-25.6856
-27.6047
-29.7189
-32.0334
-34.5445
-37.2667
-40.223
-43.4322
-46.9059
-50.6484
-54.651
-58.8833
-63.281
-67.7303
-72.0524
-23.5495
-25.3004
-27.173
-29.2356
-31.4926
-33.9394
-36.589
-39.4627
-42.5775
-45.9431
-49.5617
-53.4233
-57.4972
-61.72
-65.9825
-70.1141
-23.1984
-24.9064
-26.7318
-28.7422
-30.9412
-33.3232
-35.8999
-38.6911
-41.712
-44.9706
-48.4674
-52.1911
-56.1105
-60.1639
-64.246
-68.194
-22.8391
-24.5035
-26.2813
-28.239
-30.3795
-32.6963
-35.2
-37.9089
-40.8365
-43.9894
-47.3663
-50.9551
-54.7242
-58.6133
-62.5213
-66.2926
-22.4714
-24.0919
-25.8216
-27.7261
-29.8078
-32.0593
-34.4899
-37.1167
-39.9518
-43.0002
-46.2594
-49.7161
-53.3389
-57.0689
-60.8086
-64.4099
-22.0953
-23.6715
-25.3529
-27.204
-29.2265
-31.4125
-33.7702
-36.3153
-39.0586
-42.0039
-45.1475
-48.4751
-51.9555
-55.5312
-59.1085
-62.5462
-21.7108
-23.2425
-24.8754
-26.6728
-28.6361
-30.7565
-33.0414
-35.5052
-38.1578
-41.0013
-44.0313
-47.2328
-50.5746
-54.0008
-57.4214
-60.7016
-21.3179
-22.8049
-24.3891
-26.1327
-28.0367
-30.0917
-32.3041
-34.6872
-37.2498
-39.9932
-42.9117
-45.9899
-49.1968
-52.4782
-55.7475
-58.8764
-20.9165
-22.3588
-23.8943
-25.5841
-27.4288
-29.4185
-31.5587
-33.8619
-36.3356
-38.9802
-41.7893
-44.7471
-47.823
-50.964
-54.0874
-57.0706
-20.5068
-21.9042
-23.3911
-25.0272
-26.8128
-28.7374
-30.8059
-33.0298
-35.4156
-37.9631
-40.665
-43.5052
-46.4535
-49.4587
-52.4412
-55.2844
-20.0887
-21.4414
-22.8797
-24.4623
-26.1888
-28.0488
-30.0461
-32.1915
-34.4907
-36.9425
-39.5394
-42.2648
-45.0891
-47.9627
-50.8092
-53.5177
-19.6622
-20.9703
-22.3603
-23.8895
-25.5574
-27.3531
-29.2798
-31.3475
-33.5612
-35.9191
-38.413
-41.0265
-43.7302
-46.4764
-49.1917
-51.7708
-19.2275
-20.4912
-21.833
-23.3092
-24.9187
-26.6506
-28.5075
-30.4984
-32.6279
-34.8935
-37.2866
-39.7908
-42.3774
-45.0001
-47.589
-50.0436
-52.2263
-18.7846
-20.004
-21.2981
-22.7215
-24.2732
-25.9418
-27.7295
-29.6447
-31.6912
-33.8661
-36.1607
-38.5583
-41.0311
-43.5343
-46.0011
-48.336
-50.4089
-18.3336
-19.509
-20.7556
-22.1267
-23.621
-25.2269
-26.9463
-28.7867
-30.7516
-32.8377
-35.0357
-37.3294
-39.6916
-42.0792
-44.4282
-46.6481
-48.6156
-17.8745
-19.0063
-20.2058
-21.5251
-22.9624
-24.5064
-26.1583
-27.9251
-29.8097
-31.8085
-33.9122
-36.1047
-38.3594
-40.6351
-42.8705
-44.9797
-46.8464
-17.4074
-18.496
-19.6489
-20.9167
-22.2978
-23.7806
-25.3658
-27.0601
-28.8658
-30.7791
-32.7906
-34.8844
-37.0348
-39.2021
-41.3279
-43.3307
-45.1008
-16.9324
-17.9781
-19.085
-20.302
-21.6274
-23.0497
-24.5692
-26.1921
-27.9204
-29.7499
-31.6713
-33.669
-35.7181
-37.7804
-39.8005
-41.701
-43.3784
-16.4497
-17.453
-18.5142
-19.681
-20.9514
-22.314
-23.7688
-25.3215
-26.9737
-28.7212
-30.5546
-32.4587
-34.4093
-36.3701
-38.2882
-40.0904
-41.679
-15.9593
-16.9206
-17.9368
-19.054
-20.2701
-21.5738
-22.9649
-24.4486
-26.0262
-27.6934
-29.4408
-31.2537
-33.1089
-34.9713
-36.7909
-38.4985
-40.0021
-15.4612
-16.3811
-17.3528
-18.4211
-19.5837
-20.8293
-22.1577
-23.5736
-25.0781
-26.6667
-28.3302
-30.0544
-31.8167
-33.584
-35.3086
-36.9252
-38.3472
-14.9557
-15.8346
-16.7625
-17.7825
-18.8923
-20.0808
-21.3476
-22.6969
-24.1296
-25.6413
-27.223
-28.8607
-30.5329
-32.208
-33.8409
-35.37
-36.7138
-14.4429
-15.2813
-16.166
-17.1383
-18.1961
-19.3284
-20.5345
-21.8185
-23.181
-24.6175
-26.1193
-27.6728
-29.2576
-30.8434
-32.3878
-33.8326
-35.1013
-13.9227
-14.7212
-15.5633
-16.4887
-17.4953
-18.5723
-19.7188
-20.9387
-22.2324
-23.5953
-25.0191
-26.4907
-27.9905
-29.49
-30.9488
-32.3124
-33.5091
-13.3954
-14.1545
-14.9546
-15.8339
-16.7899
-17.8125
-18.9006
-20.0576
-21.2838
-22.5749
-23.9226
-25.3144
-26.7317
-28.1474
-29.5236
-30.809
-31.9365
-12.8609
-13.5813
-14.3401
-15.1738
-16.0802
-17.0493
-18.0799
-19.1753
-20.3355
-21.5563
-22.8297
-24.1438
-25.481
-26.8155
-28.1118
-29.3218
-30.3828
-12.3194
-13.0015
-13.7196
-14.5086
-15.3662
-16.2827
-17.2569
-18.2917
-19.3873
-20.5394
-21.7403
-22.9788
-24.238
-25.4939
-26.7129
-27.8502
-28.8473
-11.7709
-12.4153
-13.0934
-13.8383
-14.6478
-15.5126
-16.4315
-17.407
-18.4393
-19.5242
-20.6544
-21.8191
-23.0026
-24.1821
-25.3264
-26.3935
-27.329
-11.2156
-11.8228
-12.4615
-13.163
-13.9252
-14.7392
-15.6037
-16.521
-17.4913
-18.5105
-19.5716
-20.6645
-21.7743
-22.8797
-23.9516
-24.9508
-25.827
-10.6533
-11.2239
-11.8238
-12.4826
-13.1983
-13.9624
-14.7734
-15.6338
-16.5432
-17.4981
-18.4918
-19.5146
-20.5527
-21.5861
-22.5878
-23.5214
-24.3404
-10.0842
-10.6188
-11.1804
-11.7972
-12.4671
-13.182
-13.9406
-14.745
-15.5949
-16.4869
-17.4146
-18.3691
-19.3373
-20.3007
-21.2342
-22.1043
-22.8681
-9.50831
-10.0072
-10.5313
-11.1066
-11.7315
-12.3981
-13.1051
-13.8545
-14.6461
-15.4764
-16.3396
-17.2273
-18.1274
-19.0227
-19.89
-20.6986
-21.4088
-8.92553
-9.38932
-9.87627
-10.4109
-10.9913
-11.6103
-12.2667
-12.9621
-13.6964
-14.4663
-15.2664
-16.0889
-16.9224
-17.7514
-18.5543
-19.303
-19.9615
-8.33587
-8.76499
-9.21538
-9.70976
-10.2464
-10.8186
-11.4251
-12.0675
-12.7455
-13.4562
-14.1944
-14.953
-15.7216
-16.4858
-17.226
-17.9166
-18.5247
-7.73925
-8.13412
-8.54842
-9.00313
-9.49663
-10.0227
-10.5801
-11.1703
-11.793
-12.4455
-13.1231
-13.8191
-14.5241
-15.2251
-15.904
-16.5378
-17.0969
-7.13565
-7.49665
-7.87532
-8.29084
-8.74173
-9.22223
-9.73124
-10.27
-10.8383
-11.4336
-12.0516
-12.6863
-13.3291
-13.968
-14.5871
-15.1655
-15.6767
-6.52482
-6.8523
-7.19573
-7.57252
-7.9813
-8.41683
-8.87807
-9.36615
-9.88084
-10.4198
-10.9793
-11.5537
-12.1353
-12.7135
-13.2739
-13.798
-14.2624
-5.90688
-6.20114
-6.50969
-6.84813
-7.21525
-7.60629
-8.02032
-8.45834
-8.92012
-9.40362
-9.90533
-10.4204
-10.9418
-11.4603
-11.9631
-12.4339
-12.8522
-5.28117
-5.54248
-5.81645
-6.11689
-6.44272
-6.78972
-7.15705
-7.54556
-7.95508
-8.38376
-8.82851
-9.28501
-9.74725
-10.2069
-10.6529
-11.0712
-11.444
-4.6484
-4.87694
-5.11654
-5.37923
-5.66406
-5.96734
-6.28833
-6.62777
-6.9855
-7.35991
-7.74831
-8.14695
-8.55062
-8.95216
-9.34209
-9.70833
-10.0361
-4.00672
-4.20268
-4.40814
-4.63333
-4.87742
-5.13729
-5.4123
-5.70307
-6.00946
-6.3301
-6.66269
-7.00405
-7.34975
-7.69377
-8.02813
-8.34278
-8.62564
-3.35862
-3.522
-3.69335
-3.88106
-4.08448
-4.30102
-4.53017
-4.77244
-5.02769
-5.2948
-5.57187
-5.85627
-6.14436
-6.43118
-6.71023
-6.9734
-7.21121
-2.69917
-2.83014
-2.96755
-3.11798
-3.28092
-3.45435
-3.63788
-3.8319
-4.0363
-4.2502
-4.47208
-4.69987
-4.93069
-5.16062
-5.38458
-5.59626
-5.78867
-2.03568
-2.13387
-2.237
-2.34982
-2.47198
-2.60204
-2.7397
-2.88525
-3.03863
-3.19916
-3.36575
-3.53684
-3.71032
-3.88327
-4.05197
-4.21176
-4.35782
-1.3556
-1.42138
-1.49048
-1.56589
-1.64747
-1.73434
-1.82631
-1.92358
-2.02609
-2.13343
-2.24488
-2.35944
-2.47572
-2.59182
-2.70531
-2.81305
-2.91199
-0.677475
-0.709892
-0.744052
-0.781221
-0.821434
-0.864347
-0.909882
-0.958127
-1.00907
-1.06254
-1.11819
-1.17556
-1.23399
-1.29258
-1.35019
-1.40512
-1.45626
)
;

boundaryField
{
    inlet
    {
        type            freestreamPressure;
        freestreamValue nonuniform 0();
        value           nonuniform 0();
    }
    outlet
    {
        type            freestreamPressure;
        freestreamValue nonuniform 0();
        value           nonuniform 0();
    }
    lowerSymmetry
    {
        type            symmetryPlane;
    }
    obstical
    {
        type            zeroGradient;
    }
    top
    {
        type            freestreamPressure;
        freestreamValue uniform 0;
        value           nonuniform List<scalar> 
19
(
-0.298907
-0.313716
-0.329378
-0.345304
-0.362116
-0.380438
-0.400298
-0.421542
-0.444145
-0.468167
-0.493627
-0.520456
-0.548521
-0.577623
-0.607475
-0.637663
-0.66767
-0.696688
-0.724186
)
;
    }
    defaultFaces
    {
        type            empty;
    }
    procBoundary2to1
    {
        type            processor;
        value           nonuniform List<scalar> 
151
(
-33.0086
-33.0754
-33.133
-33.1721
-33.1958
-33.206
-33.2032
-33.1883
-33.1644
-33.1374
-33.1114
-33.0897
-33.0762
-33.0707
-33.0682
-33.061
-33.0424
-33.0098
-32.9656
-32.9172
-32.8748
-32.8481
-32.8438
-32.8638
-32.9052
-32.9609
-33.0208
-33.0744
-33.1122
-33.1275
-33.1168
-33.0799
-33.0187
-32.9358
-32.8339
-32.7149
-32.58
-32.4297
-32.264
-32.0828
-31.8862
-31.6744
-31.4482
-31.2084
-30.956
-30.6922
-30.4183
-30.1357
-29.8455
-29.549
-29.2475
-28.9419
-28.6335
-28.3232
-28.012
-27.7006
-27.3899
-27.0807
-26.7737
-26.4694
-26.1685
-25.8714
-25.5788
-25.2909
-25.0084
-24.7313
-24.4602