/*--------------------------------*- C++ -*----------------------------------*\
| =========                 |                                                 |
| \\      /  F ield         | OpenFOAM: The Open Source CFD Toolbox           |
|  \\    /   O peration     | Version:  v1912                                 |
|   \\  /    A nd           | Website:  www.openfoam.com                      |
|    \\/     M anipulation  |                                                 |
\*---------------------------------------------------------------------------*/
FoamFile
{
    version     2.0;
    format      ascii;
    class       surfaceScalarField;
    location    "3500";
    object      phi;
}
// * * * * * * * * * * * * * * * * * * * * * * * * * * * * * * * * * * * * * //

dimensions      [0 3 -1 0 0 0 0];
oriented        oriented;


internalField   nonuniform List<scalar> 
6017
(
-3.04948e-06
3.04948e-06
-6.79578e-06
3.74631e-06
-9.58113e-06
2.78535e-06
-1.21064e-05
2.5253e-06
-1.45001e-05
2.3937e-06
-1.7231e-05
2.73089e-06
-2.07503e-05
3.51928e-06
-2.56758e-05
4.92555e-06
-3.27681e-05
7.09238e-06
-4.27627e-05
9.99446e-06
-5.6054e-05
1.32913e-05
-7.22902e-05
1.62362e-05
-9.02101e-05
1.79199e-05
-0.000107978
1.77678e-05
-0.000123915
1.59367e-05
1.31543e-05
-3.04512e-06
6.09461e-06
-6.80058e-06
7.50178e-06
-9.56003e-06
5.5448e-06
-1.2091e-05
5.05631e-06
-1.44631e-05
4.76576e-06
-1.71932e-05
5.461e-06
-2.06956e-05
7.02178e-06
-2.56121e-05
9.842e-06
-3.26838e-05
1.41642e-05
-4.26521e-05
1.99627e-05
-5.58983e-05
2.65375e-05
-7.2077e-05
3.24149e-05
-8.99394e-05
3.57822e-05
-0.000107663
3.54917e-05
-0.000123563
3.18365e-05
2.62683e-05
-3.05091e-06
9.14552e-06
-6.79842e-06
1.12493e-05
-9.53548e-06
8.28187e-06
-1.20441e-05
7.56495e-06
-1.43967e-05
7.11834e-06
-1.71049e-05
8.16925e-06
-2.05818e-05
1.04986e-05
-2.54651e-05
1.47254e-05
-3.24947e-05
2.11938e-05
-4.24097e-05
2.98776e-05
-5.55913e-05
3.97192e-05
-7.16935e-05
4.85171e-05
-8.94672e-05
5.35559e-05
-0.000107092
5.31166e-05
-0.000122889
4.76331e-05
3.92816e-05
-3.05992e-06
1.22054e-05
-6.79554e-06
1.49849e-05
-9.49861e-06
1.0985e-05
-1.1974e-05
1.00403e-05
-1.42973e-05
9.44166e-06
-1.6973e-05
1.0845e-05
-2.04115e-05
1.39372e-05
-2.52456e-05
1.95595e-05
-3.22122e-05
2.81605e-05
-4.20479e-05
3.97132e-05
-5.51331e-05
5.28044e-05
-7.11212e-05
6.45052e-05
-8.87629e-05
7.11976e-05
-0.000106242
7.05952e-05
-0.000121887
6.32781e-05
5.21475e-05
-3.07291e-06
1.52784e-05
-6.79212e-06
1.87041e-05
-9.44958e-06
1.36424e-05
-1.18808e-05
1.24715e-05
-1.41652e-05
1.17261e-05
-1.67978e-05
1.34776e-05
-2.01854e-05
1.73247e-05
-2.49542e-05
2.43283e-05
-3.18374e-05
3.50438e-05
-4.15681e-05
4.94439e-05
-5.45259e-05
6.57622e-05
-7.0363e-05
8.03423e-05
-8.7831e-05
8.86656e-05
-0.000105119
8.78828e-05
-0.000120567
7.87264e-05
6.48233e-05
-3.09098e-06
1.83693e-05
-6.78848e-06
2.24016e-05
-9.38854e-06
1.62425e-05
-1.17646e-05
1.48476e-05
-1.40007e-05
1.39622e-05
-1.65799e-05
1.60567e-05
-1.99041e-05
2.06491e-05
-2.45918e-05
2.9016e-05
-3.13714e-05
4.18235e-05
-4.09721e-05
5.90445e-05
-5.37719e-05
7.8562e-05
-6.94226e-05
9.5993e-05
-8.66774e-05
0.00010592
-0.000103732
0.000104938
-0.000118943
9.39372e-05
7.72716e-05
-3.11576e-06
2.14851e-05
-6.78501e-06
2.60709e-05
-9.31565e-06
1.87731e-05
-1.16257e-05
1.71576e-05
-1.38044e-05
1.61409e-05
-1.63198e-05
1.85722e-05
-1.95686e-05
2.38979e-05
-2.41596e-05
3.36069e-05
-3.08159e-05
4.84799e-05
-4.02619e-05
6.84904e-05
-5.28742e-05
9.11744e-05
-6.83045e-05
0.000111423
-8.53089e-05
0.000122925
-0.000102093
0.000121722
-0.00011703
0.000108875
8.94609e-05
-3.14967e-06
2.46348e-05
-6.78219e-06
2.97034e-05
-9.23109e-06
2.1222e-05
-1.14644e-05
1.93909e-05
-1.35766e-05
1.82532e-05
-1.60185e-05
2.1014e-05
-1.91799e-05
2.70594e-05
-2.36589e-05
3.8086e-05
-3.01725e-05
5.49935e-05
-3.94398e-05
7.77577e-05
-5.18363e-05
0.000103571
-6.70141e-05
0.000126601
-8.37339e-05
0.000139644
-0.000100214
0.000138201
-0.000114847
0.000123508
0.000101366
-3.19646e-06
2.78312e-05
-6.78058e-06
3.32875e-05
-9.13502e-06
2.35765e-05
-1.12808e-05
2.15367e-05
-1.33181e-05
2.02905e-05
-1.56767e-05
2.33727e-05
-1.87392e-05
3.01219e-05
-2.30914e-05
4.24382e-05
-2.94433e-05
6.13455e-05
-3.85087e-05
8.6823e-05
-5.06621e-05
0.000115724
-6.55572e-05
0.000141496
-8.19612e-05
0.000156049
-9.8107e-05
0.000154347
-0.000112411
0.000137812
0.000112968
-3.26186e-06
3.10931e-05
-6.78079e-06
3.68065e-05
-9.02759e-06
2.58233e-05
-1.10753e-05
2.35844e-05
-1.30294e-05
2.22447e-05
-1.52956e-05
2.56388e-05
-1.82479e-05
3.30742e-05
-2.24587e-05
4.66491e-05
-2.86306e-05
6.75175e-05
-3.74717e-05
9.5664e-05
-4.9356e-05
0.000127609
-6.39403e-05
0.00015608
-8.00008e-05
0.000172109
-9.57878e-05
0.000170134
-0.000109743
0.000151767
0.000124254
-3.35498e-06
3.44481e-05
-6.78351e-06
4.0235e-05
-8.90886e-06
2.79487e-05
-1.08481e-05
2.55236e-05
-1.27114e-05
2.4108e-05
-1.48762e-05
2.78035e-05
-1.77074e-05
3.59055e-05
-2.17629e-05
5.07045e-05
-2.7737e-05
7.34916e-05
-3.6332e-05
0.000104259
-4.79227e-05
0.000139199
-6.21704e-05
0.000170328
-7.78628e-05
0.000187801
-9.32708e-05
0.000185542
-0.000106864
0.000165361
0.000135218
-3.49045e-06
3.79385e-05
-6.78948e-06
4.35341e-05
-8.77879e-06
2.9938e-05
-1.05996e-05
2.73444e-05
-1.23648e-05
2.58733e-05
-1.44198e-05
2.98585e-05
-1.71196e-05
3.86054e-05
-2.1006e-05
5.4591e-05
-2.67652e-05
7.92508e-05
-3.50935e-05
0.000112587
-4.63673e-05
0.000150473
-6.02548e-05
0.000184215
-7.55581e-05
0.000203105
-9.05713e-05
0.000200555
-0.000103794
0.000178583
0.00014586
-3.69278e-06
4.16313e-05
-6.79955e-06
4.66408e-05
-8.63713e-06
3.17755e-05
-1.03299e-05
2.90372e-05
-1.19905e-05
2.75338e-05
-1.39277e-05
3.17957e-05
-1.64861e-05
4.11638e-05
-2.01905e-05
5.82954e-05
-2.57181e-05
8.47785e-05
-3.37599e-05
0.000120629
-4.46952e-05
0.000161409
-5.82013e-05
0.000197721
-7.30975e-05
0.000218001
-8.77045e-05
0.000215162
-0.000100553
0.000191432
0.000156184
-4.00581e-06
4.56371e-05
-6.81472e-06
4.94497e-05
-8.48333e-06
3.34442e-05
-1.00393e-05
3.05932e-05
-1.15893e-05
2.90838e-05
-1.34014e-05
3.36079e-05
-1.5809e-05
4.35713e-05
-1.93188e-05
6.18052e-05
-2.4599e-05
9.00588e-05
-3.23355e-05
0.000128365
-4.29121e-05
0.000171985
-5.60176e-05
0.000210827
-7.04921e-05
0.000232475
-8.46854e-05
0.000229356
-9.71607e-05
0.000203907
0.000166197
-4.51061e-06
5.01478e-05
-6.83431e-06
5.17734e-05
-8.31676e-06
3.49266e-05
-9.72767e-06
3.20041e-05
-1.11622e-05
3.05183e-05
-1.28423e-05
3.5288e-05
-1.50903e-05
4.58193e-05
-1.83933e-05
6.51082e-05
-2.34112e-05
9.50768e-05
-3.08246e-05
0.000135779
-4.10238e-05
0.000182185
-5.37123e-05
0.000223515
-6.77537e-05
0.000246517
-8.15291e-05
0.000243131
-9.36355e-05
0.000216014
0.000175913
-1.08106e-06
-2.05017e-07
-7.77241e-07
-3.03819e-07
2.02304e-06
-2.80028e-06
-2.98791e-06
-7.5957e-07
-2.43245e-06
-8.59278e-07
3.96779e-06
-4.37719e-06
-4.73251e-06
-1.48527e-06
-4.07289e-06
-1.5189e-06
5.6803e-06
-5.78539e-06
-6.30675e-06
-2.12866e-06
-5.60019e-06
-2.22545e-06
7.15495e-06
-7.07482e-06
-7.6564e-06
-2.40946e-06
-6.98641e-06
-2.89544e-06
8.41675e-06
-8.24821e-06
-8.71458e-06
-2.00591e-06
-8.19756e-06
-3.41245e-06
9.52594e-06
-9.30675e-06
-9.39415e-06
-5.33361e-07
-9.19361e-06
-3.61299e-06
1.05823e-05
-1.02499e-05
-9.57838e-06
2.4803e-06
-9.92463e-06
-3.26673e-06
1.17325e-05
-1.10749e-05
-9.10927e-06
7.61816e-06
-1.03238e-05
-2.05215e-06
1.31824e-05
-1.17738e-05
-7.77283e-06
1.56128e-05
-1.02987e-05
4.73713e-07
1.52134e-05
-1.23296e-05
-5.27572e-06
2.73367e-05
-9.72316e-06
4.92115e-06
1.81994e-05
-1.27091e-05
-1.24485e-06
4.377e-05
-8.42096e-06
1.20973e-05
2.26296e-05
-1.28512e-05
4.78031e-06
6.58973e-05
-6.16109e-06
2.30387e-05
2.91171e-05
-1.26486e-05
1.33044e-05
9.45212e-05
-2.58209e-06
3.89251e-05
3.84537e-05
-1.19186e-05
2.48028e-05
0.000130061
2.78806e-06
6.09399e-05
5.1595e-05
-1.03533e-05
3.96308e-05
0.000172389
1.05018e-05
9.00689e-05
6.95981e-05
-7.5013e-06
5.795e-05
0.000220718
2.11391e-05
0.00012688
9.35156e-05
-2.7784e-06
7.96481e-05
0.000273604
3.51941e-05
0.000171334
0.000124117
4.59223e-06
0.000104301
0.000329062
5.29679e-05
0.000222667
0.000161802
1.52833e-05
0.000131192
0.000384775
7.44562e-05
0.000279403
0.000206425
2.98331e-05
0.000159384
0.000438351
9.93027e-05
0.000339484
0.000257166
4.8562e-05
0.000187816
0.000487591
0.000126824
0.000400476
0.000312553
7.14373e-05
0.000215428
0.000530724
0.000156075
0.000459829
0.00037061
9.80173e-05
0.000241272
0.000566579
0.000185952
0.000515149
0.000429087
0.000127475
0.000264607
0.000594662
0.000215316
0.000564439
0.000485708
0.000158695
0.000284968
0.000615146
0.000243123
0.000606284
0.000538417
0.000190414
0.000302186
0.000628772
0.000268525
0.000639945
0.000585566
0.000221376
0.000316376
0.000636684
0.000290952
0.00066537
0.000626043
0.000250474
0.000327885
0.000640231
0.00031014
0.000683115
0.000659321
0.000276861
0.000337214
0.000640773
0.000326127
0.000694202
0.000685436
0.000300012
0.000344936
0.000639523
0.000339204
0.000699934
0.000704897
0.000319742
0.000351614
0.000637435
0.000349843
0.000701705
0.000718563
0.000336177
0.000357736
0.000635166
0.00035861
0.000700831
0.000727484
0.000349689
0.000363677
0.00063309
0.000366084
0.000698423
0.000732761
0.000360806
0.000369689
0.000631355
0.000372786
0.000695327
0.000735422
0.000370125
0.000375912
0.000629952
0.000379133
0.000692106
0.000736332
0.000378223
0.000382398
0.000628794
0.000385428
0.000689077
0.000736158
0.000385602
0.000389145
0.000627768
0.000391855
0.000686366
0.000735364
0.000392649
0.000396121
0.000626774
0.000398508
0.000683979
0.00073424
0.000399632
0.00040329
0.000625741
0.000405413
0.000681856
0.000732942
0.000406712
0.000410623
0.000624629
0.000412563
0.000679916
0.000731539
0.000413965
0.000418099
0.00062342
0.000419931
0.000678085
0.000730054
0.000421415
0.00042571
0.000622113
0.000427492
0.000676304
0.000728488
0.000429058
0.000433454
0.000620711
0.000435226
0.000674532
0.000726837
0.000436877
0.000441333
0.000619221
0.00044312
0.000672745
0.000725098
0.000444859
0.000449351
0.000617647
0.000451171
0.000670925
0.000723274
0.000452995
0.000457512
0.000615993
0.000459375
0.000669062
0.000721366
0.000461282
0.000465819
0.000614259
0.000467734
0.000667147
0.00071938
0.000469721
0.000474276
0.000612446
0.00047625
0.000665173
0.000717315
0.000478314
0.000482885
0.000610555
0.000484924
0.000663135
0.000715174
0.000487065
0.00049165
0.000608586
0.000493758
0.000661027
0.000712956
0.000495976
0.000500572
0.000606538
0.000502753
0.000658846
0.000710658
0.000505051
0.000509655
0.000604411
0.000511913
0.000656587
0.00070828
0.000514292
0.000518902
0.000602205
0.00052124
0.00065425
0.00070582
0.000523701
0.000528317
0.00059992
0.000530736
0.000651831
0.000703274
0.000533281
0.000537901
0.000597555
0.000540403
0.000649329
0.000700643
0.000543034
0.00054766
0.000595109
0.000550246
0.000646743
0.000697924
0.000552965
0.000557595
0.000592582
0.000560266
0.000644072
0.000695115
0.000563075
0.000567711
0.000589974
0.000570468
0.000641315
0.000692216
0.000573367
0.000578011
0.000587284
0.000580855
0.000638471
0.000689225
0.000583846
0.000588498
0.000584512
0.00059143
0.000635539
0.000686141
0.000594514
0.000599176
0.000581657
0.000602196
0.000632519
0.000682963
0.000605374
0.000610048
0.00057872
0.000613157
0.000629411
0.000679691
0.00061643
0.000621119
0.000575699
0.000624317
0.000626213
0.000676322
0.000627685
0.000632391
0.000572595
0.000635679
0.000622925
0.000672858
0.000639143
0.000643869
0.000569408
0.000647246
0.000619547
0.000669296
0.000650808
0.000655556
0.000566138
0.000659024
0.000616079
0.000665637
0.000662683
0.000667456
0.000562784
0.000671015
0.000612521
0.00066188
0.000674772
0.000679574
0.000559347
0.000683223
0.000608872
0.000658024
0.000687078
0.000691912
0.000555828
0.000695652
0.000605132
0.00065407
0.000699606
0.000704476
0.000552225
0.000708306
0.000601302
0.000650018
0.000712359
0.000717269
0.00054854
0.00072119
0.000597381
0.000645866
0.000725341
0.000730294
0.000544773
0.000734306
0.000593369
0.000641615
0.000738557
0.000743557
0.000540923
0.000747659
0.000589267
0.000637265
0.000752009
0.000757062
0.000536992
0.000761254
0.000585075
0.000632816
0.000765703
0.000770811
0.00053298
0.000775094
0.000580793
0.000628267
0.000779642
0.000784811
0.000528886
0.000789183
0.000576421
0.00062362
0.00079383
0.000799064
0.000524712
0.000803526
0.000571959
0.000618875
0.000808271
0.000813576
0.000520458
0.000818126
0.000567409
0.000614031
0.00082297
0.000828349
0.000516125
0.000832989
0.00056277
0.000609088
0.000837931
0.00084339
0.000511712
0.000848118
0.000558042
0.000604048
0.000853158
0.000858702
0.000507221
0.000863517
0.000553226
0.000598911
0.000868655
0.000874289
0.000502651
0.000879192
0.000548324
0.000593676
0.000884427
0.000890156
0.000498004
0.000895146
0.000543334
0.000588345
0.000900477
0.000906307
0.00049328
0.000911383
0.000538257
0.000582917
0.000916811
0.000922747
0.000488479
0.000927909
0.000533095
0.000577394
0.000933432
0.00093948
0.000483603
0.000944728
0.000527847
0.000571775
0.000950346
0.00095651
0.000478651
0.000961843
0.000522514
0.000566062
0.000967556
0.000973843
0.000473624
0.00097926
0.000517096
0.000560255
0.000985068
0.000991483
0.000468522
0.000996984
0.000511595
0.000554354
0.00100288
0.00100943
0.000463348
0.00101502
0.00050601
0.000548359
0.00102101
0.0010277
0.0004581
0.00103337
0.000500343
0.000542273
0.00103945
0.00104629
0.000452779
0.00105204
0.000494594
0.000536094
0.00105822
0.0010652
0.000447387
0.00107103
0.000488763
0.000529824
0.0010773
0.00108444
0.000441923
0.00109036
0.00048285
0.000523463
0.00109672
0.00110402
0.000436388
0.00111001
0.000476858
0.000517011
0.00111647
0.00112394
0.000430783
0.00113001
0.000470785
0.00051047
0.00113655
0.0011442
0.000425109
0.00115035
0.000464633
0.00050384
0.00115698
0.00116481
0.000419365
0.00117104
0.000458402
0.000497121
0.00117776
0.00118578
0.000413553
0.00119209
0.000452092
0.000490314
0.00119889
0.0012071
0.000407673
0.00121349
0.000445705
0.00048342
0.00122038
0.00122879
0.000401725
0.00123526
0.000439241
0.000476438
0.00124224
0.00125085
0.00039571
0.00125739
0.000432699
0.000469369
0.00126446
0.00127329
0.000389629
0.0012799
0.000426082
0.000462215
0.00128706
0.0012961
0.000383482
0.00130279
0.000419388
0.000454974
0.00131004
0.0013193
0.000377269
0.00132607
0.000412619
0.000447649
0.0013334
0.00134289
0.000370992
0.00134974
0.000405775
0.000440238
0.00135715
0.00136688
0.000364649
0.0013738
0.000398856
0.000432743
0.00138129
0.00139127
0.000358243
0.00139826
0.000391863
0.000425163
0.00140584
0.00141606
0.000351773
0.00142313
0.000384795
0.0004175
0.0014308
0.00144127
0.000345239
0.00144842
0.000377655
0.000409752
0.00145616
0.0014669
0.000338643
0.00147412
0.000370441
0.000401922
0.00148195
0.00149296
0.000331984
0.00150024
0.000363153
0.000394008
0.00150816
0.00151944
0.000325262
0.0015268
0.000355793
0.000386011
0.0015348
0.00154636
0.000318479
0.0015538
0.000348361
0.000377931
0.00156188
0.00157373
0.000311633
0.00158123
0.000340856
0.000369768
0.0015894
0.00160154
0.000304727
0.00160912
0.000333278
0.000361522
0.00161737
0.00162981
0.000297759
0.00163746
0.000325629
0.000353194
0.00164579
0.00165855
0.000290729
0.00166627
0.000317907
0.000344783
0.00167468
0.00168775
0.000283639
0.00169554
0.000310114
0.000336289
0.00170403
0.00171742
0.000276488
0.00172529
0.000302248
0.000327712
0.00173387
0.00174758
0.000269277
0.00175552
0.00029431
0.000319052
0.00176418
0.00177823
0.000262005
0.00178624
0.000286301
0.000310309
0.00179498
0.00180938
0.000254673
0.00181746
0.000278219
0.000301483
0.00182629
0.00184103
0.00024728
0.00184918
0.000270065
0.000292573
0.00185809
0.00187319
0.000239827
0.00188141
0.000261839
0.000283579
0.0018904
0.00190586
0.00191416
0.000253541
0.000274502
0.00192324
0.00194744
0.00024517
0.00026534
0.0019566
0.00198124
0.000236727
0.000256093
0.00199049
0.00201559
0.000228211
0.000246762
0.00202492
0.00205049
0.000219622
0.000237345
0.00205991
0.00208594
0.00021096
0.000227843
0.00209545
0.00212196
0.000202225
0.000218256
0.00213155
0.00215855
0.000193417
0.000208582
0.00216823
0.00219572
0.000184535
0.000198822
0.00220548
0.00223348
0.000175581
0.000188975
0.00224333
0.00227183
0.000166552
0.000179042
0.00228177
0.00231079
0.000157451
0.000169022
0.00232081
0.00235036
0.000148276
0.000158915
0.00236047
0.00239055
0.000139029
0.000148722
0.00240074
0.00243137
0.000129709
0.000138442
0.00244165
0.00247282
0.000120317
0.000128076
0.00248319
0.00251492
0.000110854
0.000117624
0.00252537
0.00255767
0.00010132
0.000107087
0.00256821
0.00260108
9.17162e-05
9.64654e-05
0.0026117
0.00264516
8.20443e-05
8.57611e-05
0.00265586
0.00268991
7.23052e-05
7.49746e-05
0.0027007
0.00273535
6.25012e-05
6.41084e-05
0.00274621
0.00278147
5.2633e-05
5.31621e-05
0.00279242
0.00282784
0.00283884
-4.80629e-06
5.21538e-05
-6.46932e-06
5.34365e-05
-7.68948e-06
3.61468e-05
-8.87979e-06
3.31945e-05
-1.01264e-05
3.1765e-05
-1.15849e-05
3.67465e-05
-1.35542e-05
4.77886e-05
-1.64723e-05
6.80263e-05
-2.09568e-05
9.95614e-05
-2.76457e-05
0.000142468
-3.69166e-05
0.000191455
-4.85042e-05
0.000235103
-6.13595e-05
0.000259372
-7.39834e-05
0.000255755
-8.50829e-05
0.000227113
0.000184826
-5.45006e-06
5.32267e-05
-6.59867e-06
5.45851e-05
-7.64887e-06
3.7197e-05
-8.72023e-06
3.42658e-05
-9.87625e-06
3.2921e-05
-1.12311e-05
3.81013e-05
-1.30758e-05
4.96333e-05
-1.58384e-05
7.07889e-05
-2.01394e-05
0.000103862
-2.66252e-05
0.000148954
-3.56896e-05
0.00020052
-4.70816e-05
0.000246495
-5.97612e-05
0.000272052
-7.22354e-05
0.000268229
-8.32176e-05
0.000238095
0.000193658
-6.04525e-06
5.34865e-05
-6.71271e-06
5.52526e-05
-7.58268e-06
3.8067e-05
-8.52672e-06
3.52099e-05
-9.58359e-06
3.39779e-05
-1.08245e-05
3.93422e-05
-1.253e-05
5.13389e-05
-1.51175e-05
7.33764e-05
-1.92097e-05
0.000107955
-2.54628e-05
0.000155207
-3.42889e-05
0.000209346
-4.54558e-05
0.000257662
-5.79369e-05
0.000284533
-7.02487e-05
0.000280541
-8.11114e-05
0.000248958
0.000202415
-6.59163e-06
5.30033e-05
-6.80171e-06
5.54626e-05
-7.48677e-06
3.8752e-05
-8.29551e-06
3.60186e-05
-9.24574e-06
3.49281e-05
-1.03623e-05
4.04588e-05
-1.19139e-05
5.28905e-05
-1.43057e-05
7.57682e-05
-1.81627e-05
0.000111812
-2.41519e-05
0.000161196
-3.27072e-05
0.000217902
-4.36191e-05
0.000268574
-5.58798e-05
0.000296793
-6.80178e-05
0.000292679
-7.87606e-05
0.000259701
0.000211104
-7.08259e-06
5.18377e-05
-6.85728e-06
5.52373e-05
-7.35573e-06
3.92505e-05
-8.02255e-06
3.66854e-05
-8.85948e-06
3.5765e-05
-9.84189e-06
4.14412e-05
-1.12248e-05
5.42735e-05
-1.33994e-05
7.79428e-05
-1.69937e-05
0.000115406
-2.26865e-05
0.000166888
-3.09369e-05
0.000226152
-4.15637e-05
0.0002792
-5.35823e-05
0.000308812
-6.55366e-05
0.000304633
-7.61608e-05
0.000270325
0.000219735
-7.51068e-06
5.00417e-05
-6.87014e-06
5.45968e-05
-7.18314e-06
3.95635e-05
-7.70291e-06
3.72052e-05
-8.42108e-06
3.64832e-05
-9.2604e-06
4.22805e-05
-1.04602e-05
5.54733e-05
-1.23957e-05
7.98784e-05
-1.56986e-05
0.000118709
-2.10608e-05
0.000172251
-2.89711e-05
0.000234062
-3.92815e-05
0.000289511
-5.10368e-05
0.000320567
-6.27987e-05
0.000316395
-7.33072e-05
0.000280833
0.000228319
-7.86844e-06
4.76602e-05
-6.82941e-06
5.35578e-05
-6.96104e-06
3.96951e-05
-7.33038e-06
3.75746e-05
-7.92597e-06
3.70788e-05
-8.61469e-06
4.29693e-05
-9.61762e-06
5.64762e-05
-1.12917e-05
8.15525e-05
-1.42732e-05
0.000121691
-1.92694e-05
0.000177247
-2.68028e-05
0.000241596
-3.67651e-05
0.000299473
-4.82358e-05
0.000332038
-5.97977e-05
0.000327956
-7.01948e-05
0.00029123
0.000236868
-8.14752e-06
4.47328e-05
-6.72175e-06
5.2132e-05
-6.6793e-06
3.96527e-05
-6.89697e-06
3.77922e-05
-7.36833e-06
3.75502e-05
-7.90108e-06
4.3502e-05
-8.69476e-06
5.72699e-05
-1.00851e-05
8.29429e-05
-1.27144e-05
0.00012432
-1.73073e-05
0.000181839
-2.44256e-05
0.000248714
-3.40068e-05
0.000309054
-4.51719e-05
0.000343203
-5.65268e-05
0.000339311
-6.68179e-05
0.000301522
0.000245394
-8.33695e-06
4.1296e-05
-6.53004e-06
5.03251e-05
-6.32459e-06
3.94473e-05
-6.39208e-06
3.78597e-05
-6.74046e-06
3.78986e-05
-7.11492e-06
4.38765e-05
-7.6892e-06
5.78442e-05
-8.77406e-06
8.40278e-05
-1.10193e-05
0.000126565
-1.51702e-05
0.00018599
-2.18333e-05
0.000255378
-3.09996e-05
0.00031822
-4.18376e-05
0.000354041
-5.29791e-05
0.000350453
-6.31703e-05
0.000311713
0.000253911
-8.42082e-06
3.73872e-05
-6.23142e-06
4.81357e-05
-5.87893e-06
3.90948e-05
-5.8014e-06
3.77822e-05
-6.03188e-06
3.8129e-05
-6.24997e-06
4.40946e-05
-6.59817e-06
5.81924e-05
-7.35705e-06
8.47867e-05
-9.18587e-06
0.000128394
-1.28544e-05
0.000189659
-1.90207e-05
0.000261544
-2.77365e-05
0.000326936
-3.82253e-05
0.00036453
-4.91473e-05
0.000361375
-5.92449e-05
0.00032181
0.00026243
-8.37442e-06
3.30525e-05
-5.79446e-06
4.55558e-05
-5.31751e-06
3.86178e-05
-5.10527e-06
3.757e-05
-5.22798e-06
3.82518e-05
-5.29747e-06
4.41641e-05
-5.41799e-06
5.83129e-05
-5.83306e-06
8.52018e-05
-7.21296e-06
0.000129774
-1.03571e-05
0.000192803
-1.59826e-05
0.00026717
-2.42108e-05
0.000335164
-3.43275e-05
0.000374647
-4.50236e-05
0.000372071
-5.50341e-05
0.000331821
0.000270964
-8.15803e-06
2.83594e-05
-5.1752e-06
4.2573e-05
-4.60548e-06
3.80481e-05
-4.2764e-06
3.72409e-05
-4.3081e-06
3.82835e-05
-4.2447e-06
4.41007e-05
-4.1433e-06
5.82115e-05
-4.20118e-06
8.52596e-05
-5.1003e-06
0.000130673
-7.67642e-06
0.000195379
-1.27152e-05
0.000272209
-2.04164e-05
0.000342865
-3.01367e-05
0.000384367
-4.05997e-05
0.000382534
-5.05293e-05
0.00034175
0.000279526
-7.70724e-06
2.3418e-05
-4.3119e-06
3.91776e-05
-3.69329e-06
3.74295e-05
-3.2767e-06
3.68243e-05
-3.24292e-06
3.82497e-05
-3.07297e-06
4.39308e-05
-2.76564e-06
5.79042e-05
-2.46017e-06
8.49542e-05
-2.84855e-06
0.000131062
-4.81193e-06
0.000197342
-9.21536e-06
0.000276612
-1.63477e-05
0.000349997
-2.56452e-05
0.000393664
-3.5867e-05
0.000392755
-4.57211e-05
0.000351604
0.000288125
-6.91844e-06
1.84178e-05
-3.11841e-06
3.53776e-05
-2.50993e-06
3.6821e-05
-2.05292e-06
3.63673e-05
-1.99074e-06
3.81875e-05
-1.75472e-06
4.36948e-05
-1.27131e-06
5.74208e-05
-6.07452e-07
8.42903e-05
-4.59277e-07
0.000130913
-1.76458e-06
0.000198648
-5.48111e-06
0.000280329
-1.19996e-05
0.000356515
-2.08455e-05
0.00040251
-3.08163e-05
0.000402726
-4.05991e-05
0.000361387
0.000296771
-5.62819e-06
1.36928e-05
-1.47662e-06
3.1226e-05
-9.53175e-07
3.62976e-05
-5.30725e-07
3.59449e-05
-4.92478e-07
3.81493e-05
-2.49526e-07
4.34518e-05
3.61908e-07
5.68094e-05
1.36303e-06
8.32892e-05
2.06558e-06
0.000130211
1.46203e-06
0.000199251
-1.51265e-06
0.000283304
-7.36791e-06
0.000362371
-1.57302e-05
0.000410873
-2.54378e-05
0.000412433
-3.51521e-05
0.000371101
0.000305473
-3.58568e-06
9.77717e-06
7.72493e-07
2.68679e-05
1.12321e-06
3.59469e-05
1.39365e-06
3.56744e-05
1.33475e-06
3.82082e-05
1.50105e-06
4.32855e-05
2.16841e-06
5.61421e-05
3.46104e-06
8.19966e-05
4.7242e-06
0.000128948
4.86435e-06
0.000199111
2.68792e-06
0.00028548
-2.45018e-06
0.000367509
-1.02922e-05
0.000418715
-1.97217e-05
0.000421863
-2.93683e-05
0.000380748
0.000314237
-4.03292e-07
7.40208e-06
3.83275e-06
2.26319e-05
3.91752e-06
3.58621e-05
3.86726e-06
3.57247e-05
3.60418e-06
3.84713e-05
3.58042e-06
4.33093e-05
4.19973e-06
5.55228e-05
5.70618e-06
8.04902e-05
7.5154e-06
0.000127139
8.43646e-06
0.00019819
7.11746e-06
0.000286799
2.75456e-06
0.000371871
-4.52431e-06
0.000425994
-1.36572e-05
0.000430996
-2.32348e-05
0.000390326
0.000323069
4.48716e-06
7.50716e-06
7.95289e-06
1.91661e-05
7.66938e-06
3.61456e-05
7.09588e-06
3.62982e-05
6.47012e-06
3.9097e-05
6.10631e-06
4.36731e-05
6.53286e-06
5.50962e-05
8.13313e-06
7.88899e-05
1.04421e-05
0.00012483
1.21705e-05
0.000196461
1.17698e-05
0.0002872
8.24548e-06
0.000375396
1.57921e-06
0.00043266
-7.23306e-06
0.000439808
-1.6738e-05
0.00039983
0.000331971
1.18548e-05
1.09356e-05
1.36242e-05
1.73968e-05
1.27033e-05
3.70665e-05
1.13543e-05
3.76473e-05
1.01417e-05
4.03096e-05
9.24062e-06
4.45743e-05
9.28019e-06
5.50567e-05
1.07999e-05
7.73702e-05
1.35155e-05
0.000122114
1.6058e-05
0.000193919
1.66358e-05
0.000286622
1.4019e-05
0.000378012
8.02205e-06
0.000438657
-4.37017e-07
0.000448267
-9.86291e-06
0.000409256
0.000340946
2.25647e-05
1.82041e-05
2.1544e-05
1.84175e-05
1.94658e-05
3.91446e-05
1.7e-05
4.01131e-05
1.48968e-05
4.24127e-05
1.32011e-05
4.62701e-05
1.2601e-05
5.56567e-05
1.3799e-05
7.61723e-05
1.67627e-05
0.000119151
2.00913e-05
0.00019059
2.17036e-05
0.00028501
2.00689e-05
0.000379647
1.4805e-05
0.000443921
6.74017e-06
0.000456331
-2.5915e-06
0.000418588
0.000349996
3.73439e-05
2.94222e-05
3.25245e-05
2.3237e-05
2.85438e-05
4.31253e-05
2.44886e-05
4.41683e-05
2.10946e-05
4.58067e-05
1.82731e-05
4.90916e-05
1.6714e-05
5.72158e-05
1.7271e-05
7.56152e-05
2.02369e-05
0.000116185
2.42679e-05
0.000186559
2.69576e-05
0.00028232
2.63857e-05
0.000380219
2.19276e-05
0.000448379
1.43059e-05
0.000463953
5.09127e-06
0.000427802
0.000359119
5.65957e-05
4.42638e-05
4.73306e-05
3.25021e-05
4.06283e-05
4.98276e-05
3.43782e-05
5.04183e-05
2.9184e-05
5.1001e-05
2.482e-05
5.34556e-05
2.19086e-05
6.01272e-05
2.14202e-05
7.61037e-05
2.40338e-05
0.000113571
2.85976e-05
0.000181996
3.23794e-05
0.000278539
3.29553e-05
0.000379643
2.93864e-05
0.000451948
2.22666e-05
0.000471073
1.31991e-05
0.00043687
0.000368305
8.02629e-05
6.20182e-05
6.64689e-05
4.62961e-05
5.63939e-05
5.99027e-05
4.72981e-05
5.95141e-05
3.96997e-05
5.85995e-05
3.32872e-05
5.98681e-05
2.85539e-05
6.48605e-05
2.6529e-05
7.81285e-05
2.83099e-05
0.00011179
3.31157e-05
0.00017719
3.79506e-05
0.000273704
3.97579e-05
0.000377835
3.71737e-05
0.000454532
3.06273e-05
0.000477619
2.17453e-05
0.000445752
0.000377543
0.000107797
8.16965e-05
9.00017e-05
6.40914e-05
7.63062e-05
7.35981e-05
6.38512e-05
7.19691e-05
5.32284e-05
6.92223e-05
4.41932e-05
6.89033e-05
3.7099e-05
7.19547e-05
3.29688e-05
8.22587e-05
3.33051e-05
0.000111454
3.79016e-05
0.000172593
4.36581e-05
0.000267947
4.67666e-05
0.000374727
4.52762e-05
0.000456023
3.93892e-05
0.000483506
3.07438e-05
0.000454397
0.000386812
0.000138228
0.000102164
0.000117461
8.48583e-05
0.000100425
9.06333e-05
8.44486e-05
8.79459e-05
7.03224e-05
8.33484e-05
5.80943e-05
8.11315e-05
4.80603e-05
8.19887e-05
4.12004e-05
8.91187e-05
3.93615e-05
0.000113293
4.31058e-05
0.000168849
4.95077e-05
0.000261546
5.39489e-05
0.000370285
5.36727e-05
0.000456299
4.8549e-05
0.00048863
4.02052e-05
0.000462741
0.000396087
0.000170297
0.000122281
0.000147892
0.000107264
0.000128295
0.00011023
0.000109126
0.000107115
9.13558e-05
0.000101119
7.55063e-05
9.69811e-05
6.19847e-05
9.55102e-05
5.17589e-05
9.93444e-05
4.69337e-05
0.000118118
4.89804e-05
0.000166802
5.55445e-05
0.000254982
6.12693e-05
0.00036456
6.23316e-05
0.000455237
5.80965e-05
0.000492865
5.01371e-05
0.0004707
0.000405329
0.000202627
0.000141031
0.000180002
0.000129889
0.000158965
0.000131267
0.000137425
0.000128654
0.000116357
0.000122187
9.67771e-05
0.000116561
7.93758e-05
0.000112912
6.52132e-05
0.000113507
5.65807e-05
0.000126751
5.59074e-05
0.000167475
6.18857e-05
0.000249003
6.87004e-05
0.000357746
7.12098e-05
0.000452727
6.8012e-05
0.000496062
6.05415e-05
0.000478171
0.000414483
0.000233886
0.000157619
0.000212354
0.000151421
0.000191135
0.000152486
0.0001684
0.00015139
0.000144887
0.0001457
0.000121936
0.000139512
0.00010058
0.000134268
8.20929e-05
0.000131994
6.89271e-05
0.000139917
6.44131e-05
0.000171989
6.87621e-05
0.000244655
7.62436e-05
0.000350264
8.0253e-05
0.000448718
7.82621e-05
0.000498053
7.14128e-05
0.00048502
0.000423478
0.000262941
0.00017154
0.000243567
0.000170794
0.000223361
0.000172692
0.000200745
0.000174006
0.000176029
0.000170416
0.000150575
0.000164966
0.000125648
0.000159194
0.000102781
0.000154862
8.45878e-05
0.00015811
7.51521e-05
0.000181425
7.65603e-05
0.000243246
8.3965e-05
0.000342859
8.9403e-05
0.00044328
8.87959e-05
0.00049866
8.27332e-05
0.000491082
0.000432216
0.000288962
0.00018259
0.000272476
0.000187281
0.000254264
0.000190904
0.000233011
0.000195258
0.000208503
0.000194924
0.000181823
0.000191646
0.000154223
0.000186794
0.000127383
0.000181702
0.000104054
0.000181439
8.88454e-05
0.000196633
8.58488e-05
0.000246243
9.2046e-05
0.000336662
9.86173e-05
0.000436709
9.9543e-05
0.000497734
9.44675e-05
0.000496158
0.00044057
0.000311485
0.000190847
0.000298249
0.000200517
0.000282706
0.000206447
0.000263816
0.000214149
0.000240864
0.000217876
0.000214438
0.000218073
0.000185494
0.000215738
0.000155616
0.00021158
0.000127556
0.000209499
0.000106167
0.000218023
9.7362e-05
0.000255048
0.000100842
0.000333182
0.000107907
0.000429644
0.000110418
0.000495223
0.000106557
0.000500019
0.000448368
0.000330415
0.000196609
0.000320445
0.000210487
0.000307907
0.000218985
0.000292035
0.00023002
0.000271727
0.000238184
0.000246992
0.000242808
0.000218274
0.000244455
0.000186758
0.000243097
0.000154944
0.000241312
0.000127586
0.000245381
0.00011192
0.000270714
0.000110925
0.000334177
0.000117395
0.000423175
0.000121339
0.000491279
0.000118913
0.000502445
0.000455395
0.000345978
0.00020032
0.000339007
0.000217458
0.000329486
0.000228506
0.000316916
0.000242591
0.00029996
0.00025514
0.000278094
0.000264674
0.000251158
0.000271391
0.000219686
0.000274568
0.000185618
0.000275381
0.000153213
0.000277786
0.000130281
0.000293646
0.000123081
0.000341376
0.000127388
0.000418868
0.000132269
0.000486398
0.000131426
0.000503288
0.000461398
0.000358645
0.000202482
0.000354209
0.000221894
0.000347455
0.00023526
0.000338123
0.000251923
0.000324811
0.000268452
0.000306589
0.000282895
0.000282738
0.000295242
0.000253027
0.000304279
0.000218548
0.00030986
0.000182679
0.000313655
0.000152942
0.000323383
0.00013822
0.000356098
0.000138442
0.000418645
0.000143282
0.000481559
0.000143978
0.000502592
0.000466116
0.000369027
0.00020358
0.000366564
0.000224357
0.000362147
0.000239677
0.000355717
0.000258353
0.000345957
0.000278212
0.000331701
0.000297151
0.000311816
0.000315127
0.00028535
0.000330745
0.000252395
0.000342815
0.000215121
0.000350929
0.000179957
0.000358546
0.0001572
0.000378856
0.000151368
0.000424478
0.00015465
0.000478276
0.000156499
0.000500742
0.000469362
0.00037777
0.000204033
0.000376711
0.000225416
0.000374116
0.000242272
0.000370079
0.000262389
0.00036348
0.000284812
0.000353089
0.000307542
0.000337556
0.000330659
0.000315387