/*--------------------------------*- C++ -*----------------------------------*\
| =========                 |                                                 |
| \\      /  F ield         | OpenFOAM: The Open Source CFD Toolbox           |
|  \\    /   O peration     | Version:  v1912                                 |
|   \\  /    A nd           | Website:  www.openfoam.com                      |
|    \\/     M anipulation  |                                                 |
\*---------------------------------------------------------------------------*/
FoamFile
{
    version     2.0;
    format      ascii;
    class       volVectorField;
    location    "3500";
    object      U;
}
// * * * * * * * * * * * * * * * * * * * * * * * * * * * * * * * * * * * * * //

dimensions      [0 1 -1 0 0 0 0];


internalField   nonuniform List<vector> 
3101
(
(-0.141448 0.0282024 0)
(-0.801134 0.0321375 0)
(-1.25221 0.0221634 0)
(-1.64031 0.0186294 0)
(-2.00198 0.0163691 0)
(-2.36321 0.017305 0)
(-2.82074 0.0206732 0)
(-3.42615 0.0268231 0)
(-4.30559 0.0358186 0)
(-5.56786 0.0468222 0)
(-7.32195 0.0577787 0)
(-9.57939 0.0655068 0)
(-12.2155 0.0671123 0)
(-14.9657 0.0617703 0)
(-17.5366 0.0514259 0)
(-19.7255 0.0393941 0)
(-0.141854 0.0844657 0)
(-0.801595 0.0963657 0)
(-1.25131 0.066246 0)
(-1.63746 0.0558787 0)
(-1.99774 0.0489494 0)
(-2.35741 0.0519011 0)
(-2.81323 0.0619336 0)
(-3.41647 0.0804378 0)
(-4.29314 0.107373 0)
(-5.55183 0.140336 0)
(-7.30145 0.173065 0)
(-9.5534 0.1961 0)
(-12.183 0.200804 0)
(-14.9261 0.18475 0)
(-17.4893 0.153739 0)
(-19.6705 0.117697 0)
(-0.142693 0.140648 0)
(-0.802535 0.160531 0)
(-1.24952 0.109875 0)
(-1.63176 0.0929864 0)
(-1.98928 0.0812121 0)
(-2.34582 0.0863547 0)
(-2.79824 0.10294 0)
(-3.39715 0.133836 0)
(-4.26828 0.178614 0)
(-5.51986 0.233458 0)
(-7.26061 0.28779 0)
(-9.5018 0.325978 0)
(-12.1188 0.333685 0)
(-14.8476 0.306917 0)
(-17.3955 0.255281 0)
(-19.5613 0.195295 0)
(-0.144051 0.197015 0)
(-0.803988 0.224599 0)
(-1.24685 0.15308 0)
(-1.62322 0.129719 0)
(-1.97662 0.113149 0)
(-2.32849 0.120474 0)
(-2.77584 0.143567 0)
(-3.36825 0.186782 0)
(-4.2311 0.249319 0)
(-5.47208 0.325969 0)
(-7.19963 0.401862 0)
(-9.42484 0.455195 0)
(-12.0231 0.46592 0)
(-14.7307 0.428463 0)
(-17.256 0.356239 0)
(-19.3992 0.272356 0)
(-0.146093 0.253603 0)
(-0.805999 0.288435 0)
(-1.24334 0.195673 0)
(-1.61184 0.165878 0)
(-1.9598 0.144631 0)
(-2.30546 0.154109 0)
(-2.74608 0.183671 0)
(-3.32988 0.239098 0)
(-4.18173 0.319282 0)
(-5.40863 0.41762 0)
(-7.11873 0.51498 0)
(-9.32287 0.583384 0)
(-11.8964 0.597068 0)
(-14.5763 0.5489 0)
(-17.0721 0.456133 0)
(-19.1861 0.348458 0)
(-0.14908 0.310472 0)
(-0.808629 0.351945 0)
(-1.239 0.237453 0)
(-1.59765 0.201302 0)
(-1.93885 0.17552 0)
(-2.2768 0.187131 0)
(-2.70905 0.223106 0)
(-3.28214 0.290615 0)
(-4.12032 0.388301 0)
(-5.32975 0.508169 0)
(-7.01822 0.626858 0)
(-9.19631 0.71021 0)
(-11.7395 0.726761 0)
(-14.3854 0.667855 0)
(-16.8454 0.554618 0)
(-18.9242 0.423302 0)
(-0.153406 0.367724 0)
(-0.81196 0.415032 0)
(-1.23389 0.278225 0)
(-1.58065 0.235834 0)
(-1.91382 0.205686 0)
(-2.2426 0.21941 0)
(-2.66489 0.261725 0)
(-3.22519 0.341165 0)
(-4.04707 0.456174 0)
(-5.23569 0.597383 0)
(-6.89845 0.737232 0)
(-9.04571 0.83539 0)
(-11.5532 0.854713 0)
(-14.1593 0.785054 0)
(-16.5779 0.651447 0)
(-18.6163 0.496683 0)
(-0.159688 0.425504 0)
(-0.81609 0.477573 0)
(-1.22802 0.317799 0)
(-1.56087 0.269314 0)
(-1.88478 0.235004 0)
(-2.20295 0.25082 0)
(-2.61371 0.299387 0)
(-3.15921 0.390577 0)
(-3.96221 0.522702 0)
(-5.12675 0.685036 0)
(-6.75986 0.845853 0)
(-8.8717 0.958663 0)
(-11.3383 0.980662 0)
(-13.8995 0.900254 0)
(-16.2717 0.746414 0)
(-18.2656 0.568439 0)
(-0.168888 0.48401 0)
(-0.821145 0.539401 0)
(-1.22145 0.355975 0)
(-1.53832 0.301585 0)
(-1.8518 0.263357 0)
(-2.15797 0.281236 0)
(-2.55569 0.335955 0)
(-3.0844 0.438689 0)
(-3.86601 0.587693 0)
(-5.00329 0.770905 0)
(-6.60292 0.952479 0)
(-8.67498 1.07978 0)
(-11.0961 1.10437 0)
(-13.6077 1.01324 0)
(-15.9294 0.839341 0)
(-17.8753 0.638437 0)
(-0.182535 0.543504 0)
(-0.827275 0.600284 0)
(-1.21418 0.39255 0)
(-1.513 0.33249 0)
(-1.81493 0.29063 0)
(-2.10778 0.310539 0)
(-2.49099 0.371294 0)
(-3.001 0.48534 0)
(-3.75876 0.650957 0)
(-4.86569 0.854776 0)
(-6.42818 1.05688 0)
(-8.45634 1.1985 0)
(-10.8277 1.2256 0)
(-13.2857 1.12382 0)
(-15.5534 0.930085 0)
(-17.4491 0.706586 0)
(-0.203096 0.604331 0)
(-0.83466 0.659881 0)
(-1.20625 0.42731 0)
(-1.48494 0.361873 0)
(-1.77428 0.316713 0)
(-2.05253 0.338613 0)
(-2.41983 0.405275 0)
(-2.90926 0.530375 0)
(-3.6408 0.712314 0)
(-4.7144 0.936445 0)
(-6.23622 1.15883 0)
(-8.21662 1.31461 0)
(-10.5343 1.34418 0)
(-12.9352 1.23184 0)
(-15.1463 1.01854 0)
(-16.9903 0.77283 0)
(-0.234639 0.667102 0)
(-0.843507 0.71768 0)
(-1.19763 0.460029 0)
(-1.45414 0.389585 0)
(-1.72992 0.341504 0)
(-1.99237 0.365349 0)
(-2.34242 0.437772 0)
(-2.80947 0.573642 0)
(-3.5125 0.771584 0)
(-4.54987 1.01571 0)
(-6.02768 1.25814 0)
(-7.95672 1.42791 0)
(-10.2173 1.45992 0)
(-12.5583 1.33717 0)
(-14.711 1.10464 0)
(-16.5025 0.837149 0)
(-0.284114 0.733514 0)
(-0.854068 0.772863 0)
(-1.18826 0.490467 0)
(-1.42058 0.415482 0)
(-1.68193 0.36491 0)
(-1.92747 0.390643 0)
(-2.25901 0.468666 0)
(-2.70194 0.614998 0)
(-3.37424 0.8286 0)
(-4.37263 1.09238 0)
(-5.80323 1.35459 0)
(-7.67759 1.53823 0)
(-9.87808 1.57268 0)
(-12.1568 1.43973 0)
(-14.2499 1.18833 0)
(-15.9892 0.899554 0)
(-0.363868 0.80716 0)
(-0.866723 0.823984 0)
(-1.17801 0.518359 0)
(-1.38425 0.439429 0)
(-1.63041 0.386842 0)
(-1.85801 0.4144 0)
(-2.16985 0.497842 0)
(-2.587 0.654301 0)
(-3.22645 0.883196 0)
(-4.1832 1.16629 0)
(-5.5636 1.44801 0)
(-7.38021 1.64538 0)
(-9.51794 1.68235 0)
(-11.7327 1.53944 0)
(-13.7658 1.26962 0)
(-15.4535 0.960082 0)
(-0.495836 0.884183 0)
(-0.882083 0.868498 0)
(-1.16661 0.543434 0)
(-1.34511 0.461295 0)
(-1.57543 0.407231 0)
(-1.78417 0.436527 0)
(-2.07521 0.525195 0)
(-2.465 0.691418 0)
(-3.06957 0.935217 0)
(-3.98216 1.23724 0)
(-5.30953 1.53823 0)
(-7.06561 1.74924 0)
(-9.13834 1.78881 0)
(-11.2879 1.63625 0)
(-13.2611 1.34852 0)
(-14.8986 1.01879 0)
(-0.197567 0.0571964 -3.97121e-15)
(-0.12359 0.0403791 1.86421e-15)
(-0.178518 0.0960905 -3.84193e-15)
(-0.536785 0.153916 2.97652e-15)
(-0.364132 0.115169 -2.79694e-15)
(-0.478203 0.250975 2.86126e-15)
(-0.823976 0.227912 1.87128e-19)
(-0.59641 0.183068 2.82214e-15)
(-0.738348 0.39175 2.87295e-15)
(-1.05611 0.282882 0)
(-0.812385 0.243232 -2.84702e-15)
(-0.96365 0.513446 -2.88996e-15)
(-1.2286 0.323759 -3.08002e-15)
(-1.00372 0.294466 -2.86882e-15)
(-1.15639 0.616787 0)
(-1.33429 0.354754 3.12461e-15)
(-1.16179 0.335788 5.11735e-18)
(-1.3183 0.703714 0)
(-1.36207 0.379641 0)
(-1.27732 0.366807 7.04376e-18)
(-1.45065 0.776576 0)
(-1.29559 0.402129 -2.01966e-19)
(-1.33964 0.387859 2.96703e-15)
(-1.55406 0.838193 -2.99261e-15)
(-1.11179 0.426059 0)
(-1.3356 0.400056 9.46534e-20)
(-1.62796 0.892005 -5.74954e-18)
(-0.779139 0.455521 0)
(-1.24807 0.40538 0)
(-1.66987 0.942119 3.05024e-15)
(-0.25551 0.493938 -1.9719e-19)
(-1.05462 0.406871 9.86546e-20)
(-1.6744 0.993228 3.08973e-15)
(0.511556 0.545834 3.64678e-19)
(-0.726426 0.409087 -3.1007e-15)
(-1.63159 1.05041 1.61006e-17)
(1.58343 0.61315 -2.79439e-15)
(-0.229347 0.420232 3.0233e-15)
(-1.52469 1.11888 -3.11131e-15)
(3.00953 0.701088 2.49845e-15)
(0.487771 0.445014 2.84432e-15)
(-1.326 1.20367 0)
(4.81691 0.815945 -2.71776e-19)
(1.48225 0.490665 -1.29264e-17)
(-0.991172 1.30456 3.09146e-15)
(7.00167 0.963072 0)
(2.80647 0.565277 -2.3225e-15)
(-0.460981 1.41888 -5.90896e-15)
(9.52242 1.14622 -9.61118e-20)
(4.50064 0.670234 -2.0108e-15)
(0.329903 1.54998 5.61126e-15)
(12.3004 1.36629 -1.79637e-19)
(6.57534 0.809039 1.73551e-15)
(1.45053 1.68801 -2.56179e-15)
(15.2264 1.62028 -1.57903e-19)
(9.00308 0.984271 0)
(2.95411 1.82485 0)
(18.1731 1.90112 1.31012e-19)
(11.717 1.19595 1.28294e-15)
(4.86057 1.96143 2.19367e-15)
(21.0098 2.19813 -1.26607e-19)
(14.6168 1.44119 -1.11529e-15)
(7.15071 2.09612 9.7582e-17)
(23.6181 2.49809 0)
(17.5796 1.71417 -9.90229e-16)
(9.76485 2.22745 -1.73313e-15)
(25.904 2.78691 8.98807e-16)
(20.4749 2.00621 8.83682e-16)
(12.6078 2.35498 0)
(27.8069 3.05132 -8.4496e-16)
(23.1789 2.30638 -1.07201e-19)
(15.5596 2.47906 0)
(29.3031 3.28058 -9.70031e-20)
(25.5883 2.60258 -7.4987e-16)
(18.4899 2.60032 0)
(30.4046 3.46766 0)
(27.6301 2.8828 7.00767e-16)
(21.2734 2.71943 -1.30329e-15)
(31.1527 3.60985 9.16069e-20)
(29.2666 3.13646 0)
(23.803 2.83667 1.20294e-15)
(31.6092 3.7087 -7.5468e-16)
(30.4961 3.35542 0)
(26 2.95176 1.11163e-15)
(31.8459 3.76937 7.46452e-16)
(31.3487 3.53469 -6.23178e-16)
(27.8195 3.06369 -2.08291e-15)
(31.9334 3.79945 -4.78221e-21)
(31.8786 3.67275 6.10156e-16)
(29.2506 3.17093 9.87011e-16)
(31.9336 3.80767 7.37496e-16)
(32.1545 3.77129 -3.39079e-20)
(30.3131 3.27164 -4.63898e-20)
(31.8939 3.80261 -7.36304e-16)
(32.2487 3.8347 0)
(31.0502 3.36403 0)
(31.8457 3.79157 -7.2963e-16)
(32.2284 3.86919 -4.32395e-20)
(31.5199 3.44663 -7.84219e-16)
(31.8057 3.77999 7.28934e-16)
(32.1492 3.88182 -6.07692e-16)
(31.7858 3.51853 1.51969e-15)
(31.7798 3.77115 7.19234e-16)
(32.0514 3.87958 -5.03884e-18)
(31.9092 3.57942 -1.45025e-15)
(31.7666 3.76645 -1.43056e-15)
(31.9601 3.86866 6.11978e-16)
(31.9429 3.62961 2.23215e-17)
(31.7621 3.76579 7.11091e-16)
(31.8873 3.85393 0)
(31.9279 3.66989 6.83019e-16)
(31.7616 3.76823 0)
(31.8356 3.83879 7.96914e-20)
(31.8929 3.70136 6.49355e-16)
(31.7617 3.77249 0)
(31.8022 3.82522 0)
(31.8551 3.72531 -6.47624e-16)
(31.7604 3.77734 -1.65954e-19)
(31.7821 3.81406 -7.84818e-20)
(31.8231 3.74303 -6.27942e-16)
(31.7571 3.78185 6.76438e-16)
(31.7702 3.80534 6.28172e-16)
(31.7994 3.75573 6.26237e-16)
(31.7521 3.78543 -6.73879e-16)
(31.7626 3.79866 1.02735e-18)
(31.7832 3.76445 -6.15033e-16)
(31.7459 3.78777 6.61933e-16)
(31.7568 3.79344 -1.25139e-15)
(31.7727 3.77007 6.13297e-16)
(31.7391 3.7888 -1.31425e-15)
(31.7516 3.78909 1.24732e-15)
(31.7657 3.77325 0)
(31.7319 3.78852 6.52301e-16)
(31.7464 3.78513 -6.21373e-16)
(31.7607 3.7745 6.03032e-16)
(31.7247 3.78701 -1.55454e-19)
(31.7413 3.7812 -6.17271e-16)
(31.7566 3.7742 -1.16327e-18)
(31.7175 3.78434 1.53622e-19)
(31.7362 3.77703 6.15092e-16)
(31.7531 3.77258 -9.84349e-19)
(31.7102 3.78056 -1.51767e-19)
(31.7312 3.77241 7.51246e-20)
(31.7499 3.76982 -5.9493e-16)
(31.703 3.77569 0)
(31.7263 3.76722 -6.05017e-16)
(31.7469 3.76602 7.15472e-20)
(31.6957 3.76976 -6.12665e-16)
(31.7215 3.76133 2.36121e-18)
(31.7441 3.76124 0)
(31.6883 3.76277 4.73118e-18)
(31.7166 3.75466 5.97924e-16)
(31.7414 3.75551 0)
(31.681 3.75474 1.20161e-15)
(31.7118 3.74715 -7.31603e-20)
(31.7387 3.74882 7.01498e-20)
(31.6736 3.74566 -5.96058e-16)
(31.7069 3.73873 -4.29867e-21)
(31.7361 3.74119 1.39292e-19)
(31.6662 3.73554 -5.8398e-16)
(31.7019 3.72937 0)
(31.7334 3.7326 0)
(31.6588 3.72438 5.81509e-16)
(31.6969 3.71902 -1.37961e-19)
(31.7307 3.72303 0)
(31.6515 3.71217 0)
(31.6919 3.70767 -5.68679e-16)
(31.7279 3.71246 0)
(31.6442 3.69891 -5.61947e-16)
(31.6868 3.6953 5.66042e-16)
(31.7251 3.70088 5.62511e-16)
(31.6369 3.68461 5.59836e-16)
(31.6817 3.6819 -2.66735e-19)
(31.7221 3.68828 -5.59994e-16)
(31.6297 3.66925 5.36171e-19)
(31.6765 3.66745 5.51166e-16)
(31.7191 3.67463 0)
(31.6226 3.65285 5.39294e-16)
(31.6713 3.65195 -5.48619e-16)
(31.7159 3.65993 0)
(31.6155 3.63539 -5.37137e-16)
(31.6661 3.63539 0)
(31.7127 3.64418 0)
(31.6086 3.6169 2.49584e-19)
(31.6609 3.61778 0)
(31.7094 3.62735 -5.40128e-16)
(31.6017 3.59735 2.4582e-19)
(31.6556 3.59911 -1.32762e-19)
(31.7059 3.60945 1.07313e-15)
(31.5948 3.57678 5.10647e-16)
(31.6504 3.57939 0)
(31.7024 3.59048 -1.06336e-15)
(31.5881 3.55518 -5.07946e-16)
(31.6452 3.55861 5.15807e-16)
(31.6989 3.57043 1.05356e-15)
(31.5815 3.53256 -1.69451e-20)
(31.64 3.5368 -1.02219e-15)
(31.6952 3.54931 -1.0436e-15)
(31.575 3.50894 0)
(31.6347 3.51395 5.06857e-16)
(31.6914 3.52713 5.18008e-16)
(31.5686 3.48433 4.82574e-16)
(31.6295 3.49007 -2.35511e-19)
(31.6876 3.50388 0)
(31.5623 3.45874 -9.55016e-16)
(31.6243 3.46518 -4.91326e-16)
(31.6836 3.47958 0)
(31.5561 3.4322 4.72444e-16)
(31.6191 3.4393 4.88754e-16)
(31.6796 3.45425 1.18461e-19)
(31.5499 3.40471 -4.61871e-16)
(31.6139 3.41243 4.79129e-16)
(31.6755 3.42789 1.17123e-19)
(31.5439 3.37631 4.58687e-16)
(31.6087 3.3846 -4.76554e-16)
(31.6713 3.40051 0)
(31.5379 3.34701 -4.48647e-16)
(31.6034 3.35583 -2.37397e-19)
(31.667 3.37215 -4.83661e-16)
(31.5321 3.31683 4.45469e-16)
(31.5982 3.32613 2.34527e-19)
(31.6625 3.34281 2.53851e-18)
(31.5263 3.28581 0)
(31.5929 3.29554 0)
(31.658 3.31253 9.48822e-16)
(31.5205 3.25395 4.02791e-19)
(31.5876 3.26407 2.28777e-19)
(31.6534 3.28131 -4.70562e-16)
(31.5148 3.2213 3.96719e-19)
(31.5823 3.23174 4.43723e-16)
(31.6486 3.24919 -2.1808e-19)
(31.5091 3.18788 8.17691e-19)
(31.5769 3.1986 -4.41169e-16)
(31.6436 3.2162 0)
(31.5034 3.15371 -3.8488e-19)
(31.5715 3.16466 0)
(31.6386 3.18236 0)
(31.4977 3.11883 -4.04963e-16)
(31.5659 3.12996 -4.25929e-16)
(31.6333 3.1477 0)
(31.4921 3.08326 4.02558e-16)
(31.5603 3.09452 8.4329e-16)
(31.6279 3.11225 -4.39646e-16)
(31.4863 3.04704 0)
(31.5545 3.05838 -4.17358e-16)
(31.6223 3.07604 4.36925e-16)
(31.4805 3.0102 -3.87328e-16)
(31.5487 3.02157 0)
(31.6165 3.03912 0)
(31.4747 2.97277 3.84941e-16)
(31.5427 2.98412 -3.78225e-19)
(31.6105 3.00151 4.22572e-16)
(31.4687 2.93478 -3.85538e-19)
(31.5365 2.94606 -3.96632e-16)
(31.6042 2.96324 -4.19839e-16)
(31.4627 2.89627 3.70526e-16)
(31.5301 2.90744 3.94042e-16)
(31.5977 2.92437 4.11234e-16)
(31.4565 2.85728 -3.67033e-16)
(31.5236 2.86829 -1.64954e-19)
(31.5909 2.88491 -4.08494e-16)
(31.4501 2.81782 0)
(31.5168 2.82864 3.7975e-16)
(31.5838 2.84491 0)
(31.4436 2.77795 3.30486e-19)
(31.5098 2.78853 -3.76992e-16)
(31.5765 2.80442 0)
(31.4368 2.73769 3.5688e-19)
(31.5025 2.748 -1.57598e-19)
(31.5688 2.76346 -1.82628e-19)
(31.4299 2.69708 0)
(31.495 2.70708 -3.70573e-19)
(31.5608 2.72208 -3.81265e-16)
(31.4226 2.65615 3.36765e-16)
(31.4871 2.66582 -3.56683e-16)
(31.5524 2.68032 3.78897e-16)
(31.4151 2.61495 -6.65272e-16)
(31.479 2.62424 7.04827e-16)
(31.5436 2.63821 0)
(31.4073 2.5735 3.29126e-16)
(31.4705 2.58239 -3.48505e-16)
(31.5345 2.59581 3.42873e-19)
(31.3992 2.53184 -3.28408e-19)
(31.4616 2.54031 -3.38903e-16)
(31.5249 2.55314 0)
(31.3908 2.49001 -3.14089e-16)
(31.4523 2.49803 3.36512e-16)
(31.5149 2.51025 0)
(31.382 2.44805 2.26632e-18)
(31.4427 2.45559 3.27462e-16)
(31.5045 2.46718 -3.45041e-16)
(31.3728 2.40598 4.57622e-16)
(31.4326 2.41303 -3.24172e-16)
(31.4936 2.42398 3.57398e-18)
(31.3632 2.36384 -1.51067e-16)
(31.4221 2.37039 2.71939e-19)
(31.4823 2.38067 3.36447e-16)
(31.3532 2.32168 0)
(31.4111 2.3277 -3.09598e-16)
(31.4704 2.33731 -3.26164e-16)
(31.3427 2.27952 -1.43974e-16)
(31.3997 2.285 3.95845e-18)
(31.458 2.29392 3.75425e-18)
(31.3317 2.2374 1.52184e-18)
(31.3878 2.24233 3.00961e-16)
(31.4451 2.25056 3.17175e-16)
(31.3203 2.19535 1.39219e-16)
(31.3753 2.19973 2.52415e-19)
(31.4317 2.20725 3.07179e-16)
(31.3084 2.15341 1.3486e-16)
(31.3623 2.15724 -2.8559e-16)
(31.4177 2.16405 -3.04039e-16)
(31.2959 2.11162 -1.32552e-16)
(31.3488 2.11488 2.82224e-16)
(31.4031 2.12098 -2.93825e-16)
(31.2829 2.07 0)
(31.3347 2.07269 0)
(31.3879 2.07808 2.91309e-16)
(31.2694 2.02858 4.04567e-20)
(31.3201 2.03071 -7.77075e-19)
(31.3722 2.0354 2.80868e-16)
(31.2553 1.98742 1.2377e-16)
(31.3048 1.98898 -4.93205e-19)
(31.3558 1.99297 -5.52077e-16)
(31.2406 1.94652 -1.23596e-18)
(31.289 1.94752 -4.81611e-19)
(31.3388 1.95081 5.38739e-16)
(31.2253 1.90593 -1.19609e-16)
(31.2725 1.90638 2.16974e-19)
(31.3213 1.90898 -4.08888e-18)
(31.2094 1.86568 1.14396e-16)
(31.2555 1.86558 0)
(31.303 1.8675 -5.11876e-16)
(31.1928 1.8258 -1.11936e-16)
(31.2378 1.82516 -9.26302e-19)
(31.2842 1.82641 2.51882e-16)
(31.1757 1.78632 -8.22127e-19)
(31.2194 1.78515 -4.66751e-19)
(31.2646 1.78574 4.57673e-19)
(31.1579 1.74727 0)
(31.2005 1.74557 0)
(31.2445 1.74553 0)
(31.1395 1.70868 1.02368e-16)
(31.1808 1.70647 0)
(31.2236 1.7058 1.13228e-16)
(31.1204 1.67058 -1.00477e-16)
(31.1605 1.66788 -3.70315e-19)
(31.2021 1.66659 -2.22362e-16)
(31.1006 1.633 0)
(31.1396 1.62981 1.01377e-16)
(31.1799 1.62793 1.08736e-16)
(31.0802 1.59596 9.24703e-17)
(31.118 1.59231 -9.9591e-17)
(31.1571 1.58985 0)
(31.0591 1.55951 -9.29127e-17)
(31.0957 1.55539 0)
(31.1336 1.55237 0)
(31.0373 1.52365 8.84885e-17)
(31.0727 1.51909 9.09192e-17)
(31.1094 1.51553 0)
(31.0148 1.48842 -8.74827e-17)
(31.049 1.48344 -1.78346e-16)
(31.0845 1.47936 -9.2607e-17)
(30.9917 1.45385 -8.16405e-17)
(31.0247 1.44846 8.84292e-17)
(31.0589 1.44388 1.80501e-16)
(30.9678 1.41997 1.52281e-18)
(30.9997 1.41418 2.93584e-19)
(31.0327 1.40912 -8.79332e-17)
(30.9433 1.38679 2.79851e-18)
(30.9739 1.38063 -6.0405e-19)
(31.0057 1.3751 -8.23348e-17)
(30.9181 1.35435 7.45493e-17)
(30.9476 1.34783 -7.53887e-17)
(30.9781 1.34186 8.14771e-17)
(30.8922 1.32267 -5.2831e-19)
(30.9205 1.31581 2.39821e-18)
(30.9498 1.30942 0)
(30.8656 1.29178 0)
(30.8927 1.28459 2.41582e-18)
(30.9209 1.2778 0)
(30.8643 1.2542 6.8182e-17)
(30.8912 1.24703 -6.87955e-17)
(30.8352 1.22467 -6.28209e-17)
(30.8609 1.21713 6.83075e-17)
(30.8053 1.19602 1.21224e-16)
(30.8299 1.18814 6.26075e-17)
(30.7749 1.16828 -5.82824e-17)
(30.7983 1.16007 -6.14453e-17)
(30.7437 1.14147 5.35262e-17)
(30.7659 1.13296 -5.55398e-17)
(30.7118 1.11562 -5.28887e-17)
(30.7329 1.10683 2.6402e-18)
(30.6793 1.09075 0)
(30.6992 1.0817 5.16962e-17)
(30.6461 1.06691 -6.85324e-19)
(30.6649 1.0576 0)
(30.6122 1.0441 0)
(30.6298 1.03456 0)
(30.5777 1.02237 -1.89004e-17)
(30.5941 1.01262 0)
(30.5424 1.00175 1.86745e-17)
(30.5577 0.991801 1.81954e-17)
(30.5065 0.982271 -1.56623e-17)
(30.5207 0.972137 -1.82479e-17)
(30.4698 0.963959 1.52759e-17)
(30.4829 0.953657 0)
(30.4325 0.94687 0)
(30.4445 0.936414 0)
(30.3945 0.931009 -5.67528e-19)
(30.4053 0.920414 1.94569e-19)
(30.3557 0.916486 0)
(30.3654 0.905765 0)
(30.3163 0.903222 -2.858e-19)
(30.3249 0.892388 0)
(30.2761 0.891491 0)
(30.2836 0.880558 0)
(30.2352 0.88095 -1.06116e-19)
(30.2415 0.869929 1.05607e-19)
(30.1935 0.872342 0)
(30.1987 0.861248 0)
(30.1511 0.864573 -7.54526e-19)
(30.1551 0.853412 -6.25109e-20)
(30.1079 0.859628 6.45925e-19)
(30.1108 0.848422 8.22227e-20)
(30.0591 0.854493 3.8964e-20)
(30.0607 0.84324 0)
(-0.67799 0.948543 0)
(-0.899497 0.902699 0)
(-1.15398 0.56485 0)
(-1.30426 0.480402 0)
(-1.5187 0.425503 0)
(-1.70831 0.456365 0)
(-1.97817 0.549922 0)
(-2.3399 0.725249 0)
(-2.9087 0.983148 0)
(-3.77601 1.30321 0)
(-5.04926 1.62271 0)
(-6.74405 1.84692 0)
(-8.75176 1.88916 0)
(-10.8373 1.72758 0)
(-12.7527 1.42296 0)
(-14.3432 1.0742 0)
(-0.829295 0.979301 0)
(-0.915234 0.926773 0)
(-1.13965 0.582908 0)
(-1.26152 0.497073 0)
(-1.46007 0.441925 0)
(-1.63032 0.474197 0)
(-1.87862 0.572342 0)
(-2.21155 0.756211 0)
(-2.74359 1.02754 0)
(-3.5644 1.36494 0)
(-4.78227 1.70235 0)
(-6.41484 1.93947 0)
(-8.35738 1.98452 0)
(-10.3797 1.81449 0)
(-12.2396 1.49385 0)
(-13.7859 1.12702 0)
(-0.965407 0.989302 0)
(-0.927628 0.942218 0)
(-1.12252 0.598177 0)
(-1.2151 0.511927 0)
(-1.39731 0.457053 0)
(-1.54733 0.490653 0)
(-1.77296 0.593218 0)
(-2.07533 0.78538 0)
(-2.56833 1.06997 0)
(-3.33973 1.42463 0)
(-4.499 1.78007 0)
(-6.06623 2.03033 0)
(-7.9412 2.07848 0)
(-9.89925 1.9003 0)
(-11.7037 1.56398 0)
(-13.2075 1.17936 0)
(-1.0867 0.98609 0)
(-0.935261 0.94958 0)
(-1.10193 0.610525 0)
(-1.16465 0.524846 0)
(-1.33021 0.470772 0)
(-1.45927 0.5056 0)
(-1.66123 0.612374 0)
(-1.93132 0.812533 0)
(-2.38296 1.11015 0)
(-3.10204 1.482 0)
(-4.19949 1.85559 0)
(-5.69834 2.11926 0)
(-7.50352 2.17087 0)
(-9.39639 1.98495 0)
(-11.1461 1.63333 0)
(-12.6089 1.23128 0)
(-1.19318 0.970629 0)
(-0.93687 0.949321 0)
(-1.07719 0.619909 0)
(-1.10978 0.535721 0)
(-1.25856 0.482985 0)
(-1.36606 0.51891 0)
(-1.54348 0.629634 0)
(-1.77961 0.837439 0)
(-2.18762 1.14783 0)
(-2.85145 1.53675 0)
(-3.88387 1.92861 0)
(-5.31134 2.20601 0)
(-7.04466 2.26153 0)
(-8.87172 2.06836 0)
(-10.5676 1.70191 0)
(-11.9914 1.28283 0)
(-1.28511 0.943126 0)
(-0.93113 0.941803 0)
(-1.04747 0.626329 0)
(-1.04993 0.544463 0)
(-1.18204 0.493609 0)
(-1.26759 0.53046 0)
(-1.41979 0.644827 0)
(-1.62035 0.859861 0)
(-1.98249 1.18271 0)
(-2.58813 1.58857 0)
(-3.5523 1.99882 0)
(-4.90546 2.29035 0)
(-6.56501 2.35031 0)
(-8.32582 2.15047 0)
(-9.96887 1.76974 0)
(-11.3559 1.33406 0)
(-1.36291 0.904334 0)
(-0.916608 0.927338 0)
(-1.01182 0.629826 0)
(-0.984422 0.551007 0)
(-1.10022 0.50258 0)
(-1.16369 0.540145 0)
(-1.29024 0.657786 0)
(-1.45376 0.879559 0)
(-1.76781 1.21449 0)
(-2.31233 1.63713 0)
(-3.20506 2.06593 0)
(-4.48101 2.372 0)
(-6.06496 2.43704 0)
(-7.75928 2.23121 0)
(-9.35079 1.83684 0)
(-10.7031 1.38504 0)
(-1.42707 0.855104 0)
(-0.891643 0.906176 0)
(-0.969008 0.630489 0)
(-0.912352 0.55532 0)
(-1.0125 0.509857 0)
(-1.05408 0.547882 0)
(-1.15489 0.668355 0)
(-1.28009 0.896288 0)
(-1.54391 1.24288 0)
(-2.02438 1.68209 0)
(-2.84246 2.1296 0)
(-4.03833 2.45073 0)
(-5.54497 2.52157 0)
(-7.17268 2.31055 0)
(-8.71405 1.90324 0)
(-10.034 1.43585 0)
(-1.47788 0.796154 0)
(-0.854159 0.878469 0)
(-0.917443 0.62846 0)
(-0.832489 0.557399 0)
(-0.918016 0.515436 0)
(-0.938315 0.553618 0)
(-1.01376 0.6764 0)
(-1.09963 0.909806 0)
(-1.31122 1.26755 0)
(-1.72471 1.72309 0)
(-2.46494 2.1895 0)
(-3.57787 2.52625 0)
(-5.00552 2.60374 0)
(-6.56661 2.38843 0)
(-8.0593 1.96897 0)
(-9.34914 1.48656 0)
(-1.51518 0.728137 0)
(-0.801414 0.844257 0)
(-0.854958 0.62395 0)
(-0.743159 0.557289 0)
(-0.815524 0.519356 0)
(-0.815707 0.557347 0)
(-0.86674 0.681818 0)
(-0.912698 0.919881 0)
(-1.07022 1.28818 0)
(-1.41385 1.75977 0)
(-2.073 2.24527 0)
(-3.10012 2.59829 0)
(-4.44713 2.68338 0)
(-5.94161 2.46481 0)
(-7.38713 2.03409 0)
(-8.64901 1.53726 0)
(-1.53779 0.651769 0)
(-0.729661 0.803458 0)
(-0.778521 0.617257 0)
(-0.642062 0.555099 0)
(-0.703244 0.521717 0)
(-0.685186 0.559124 0)
(-0.713536 0.684554 0)
(-0.719624 0.9263 0)
(-0.821517 1.30444 0)
(-1.09243 1.79174 0)
(-1.66727 2.29654 0)
(-2.60565 2.66656 0)
(-3.87035 2.76034 0)
(-5.29824 2.53965 0)
(-6.69803 2.09863 0)
(-7.93406 1.588 0)
(-1.54252 0.568002 0)
(-0.633744 0.755883 0)
(-0.683807 0.608801 0)
(-0.526025 0.551025 0)
(-0.578622 0.522695 0)
(-0.54514 0.559092 0)
(-0.553501 0.684627 0)
(-0.520661 0.928888 0)
(-0.565767 1.31601 0)
(-0.761217 1.8186 0)
(-1.24849 2.34291 0)
(-2.09512 2.73075 0)
(-3.27575 2.83442 0)
(-4.637 2.6129 0)
(-5.99244 2.16263 0)
(-7.20455 1.63888 0)
(-1.52258 0.478332 0)
(-0.506638 0.701305 0)
(-0.564557 0.599172 0)
(-0.390679 0.545399 0)
(-0.438008 0.522573 0)
(-0.393188 0.557508 0)
(-0.385441 0.682154 0)
(-0.315902 0.92753 0)
(-0.303692 1.32256 0)
(-0.421117 1.83994 0)
(-0.817514 2.38399 0)
(-1.56929 2.79053 0)
(-2.66397 2.90545 0)
(-3.95839 2.68452 0)
(-5.27072 2.22613 0)
(-6.46068 1.68995 0)
(-1.46499 0.385397 0)
(-0.339076 0.639613 0)
(-0.411638 0.589179 0)
(-0.230022 0.538747 0)
(-0.276222 0.52177 0)
(-0.225879 0.554781 0)
(-0.207312 0.677396 0)
(-0.105117 0.922199 0)
(-0.0359978 1.32379 0)
(-0.0731996 1.85531 0)
(-0.375373 2.41935 0)
(-1.02901 2.84556 0)
(-2.03566 2.97323 0)
(-3.26288 2.75443 0)
(-4.53315 2.28916 0)
(-5.70253 1.74127 0)
(-1.34685 0.293753 0)
(-0.119474 0.571173 0)
(-0.211682 0.579933 0)
(-0.0358718 0.531895 0)
(-0.0859619 0.520889 0)
(-0.0383139 0.551526 0)
(-0.0158131 0.670793 0)
(0.112511 0.913034 0)
(0.236777 1.31952 0)
(0.281245 1.8643 0)
(0.0766913 2.44848 0)
(-0.475256 2.89548 0)
(-1.39155 3.03752 0)
(-2.55094 2.82257 0)
(-3.77997 2.35174 0)
(-4.93009 1.79291 0)
(-1.12972 0.209599 0)
(0.165528 0.497633 0)
(0.0548395 0.572851 0)
(0.202831 0.526234 0)
(0.142967 0.52074 0)
(0.176325 0.548635 0)
(0.194095 0.663031 0)
(0.338699 0.900383 0)
(0.514172 1.30958 0)
(0.640945 1.86656 0)
(0.537238 2.47092 0)
(0.0907854 2.93982 0)
(-0.732412 3.09808 0)
(-1.82302 2.88884 0)
(-3.01134 2.41389 0)
(-4.14331 1.84489 0)
(-0.752375 0.140093 0)
(0.533139 0.423672 0)
(0.411767 0.569278 0)
(0.502968 0.523951 0)
(0.423444 0.522501 0)
(0.428027 0.54734 0)
(0.429302 0.655125 0)
(0.576797 0.88488 0)
(0.796167 1.29398 0)
(1.00452 1.86165 0)
(1.00474 2.48621 0)
(0.667596 2.97815 0)
(-0.0590345 3.15461 0)
(-1.07957 2.95311 0)
(-2.22738 2.47561 0)
(-3.34203 1.89727 0)
(-0.12555 0.1137 0)
(1.01007 0.353627 0)
(0.882247 0.570391 0)
(0.888615 0.527752 0)
(0.772357 0.527943 0)
(0.730546 0.549278 0)
(0.699552 0.648508 0)
(0.832403 0.867575 0)
(1.08368 1.27301 0)
(1.37056 1.84926 0)
(1.47744 2.49379 0)
(1.2535 3.01001 0)
(0.627476 3.20678 0)
(-0.320953 3.01526 0)
(-1.42816 2.53687 0)
(-2.52608 1.95006 0)
(0.826513 0.148671 0)
(1.66667 0.3034 0)
(1.4984 0.578712 0)
(1.39064 0.540925 0)
(1.21225 0.539631 0)
(1.10212 0.556615 0)
(1.01836 0.645146 0)
(1.11423 0.850042 0)
(1.37928 1.24733 0)
(1.73787 1.82923 0)
(1.95335 2.49312 0)
(1.84673 3.03485 0)
(1.32552 3.25412 0)
(0.452483 3.0752 0)
(-0.613658 2.59759 0)
(-1.6952 2.00327 0)
(2.17137 0.251368 0)
(2.59491 0.29135 0)
(2.30743 0.600175 0)
(2.04747 0.567703 0)
(1.77246 0.561123 0)
(1.56637 0.572191 0)
(1.4039 0.647642 0)
(1.43512 0.834513 0)
(1.68823 1.21816 0)
(2.10588 1.80161 0)
(2.43021 2.48369 0)
(2.44528 3.0521 0)
(2.03356 3.29626 0)
(1.23957 3.13245 0)
(0.216479 2.65792 0)
(-0.84903 2.05689 0)
(3.94971 0.428227 0)
(3.88301 0.336855 0)
(3.37226 0.644898 0)
(2.90624 0.613965 0)
(2.48988 0.597181 0)
(2.1531 0.599693 0)
(1.87985 0.659335 0)
(1.81309 0.824016 0)
(2.01977 1.18749 0)
(2.47541 1.76686 0)
(2.90561 2.46506 0)
(3.04676 3.06112 0)
(2.74984 3.33269 0)
(2.03925 3.18681 0)
(1.06192 2.71753 0)
(0.0130441 2.11102 0)
(6.15939 0.675914 0)
(5.58888 0.455726 0)
(4.7617 0.726046 0)
(4.02227 0.687729 0)
(3.40896 0.654009 0)
(2.89866 0.643827 0)
(2.476 0.6844 0)
(2.27221 0.822482 0)
(2.38877 1.15831 0)
(2.84985 1.7261 0)
(3.37722 2.43693 0)
(3.64834 3.06125 0)
(3.47229 3.3628 0)
(2.8503 3.23795 0)
(1.92217 2.77626 0)
(0.891389 2.16558 0)
(8.74848 0.98295 0)
(7.71967 0.654893 0)
(6.52931 0.856552 0)
(5.45295 0.798679 0)
(4.57981 0.739349 0)
(3.84554 0.710448 0)
(3.22828 0.727909 0)
(2.8431 0.834802 0)
(2.81723 1.13479 0)
(3.23703 1.6814 0)
(3.84347 2.39934 0)
(4.2467 3.05179 0)
(4.19837 3.38595 0)
(3.67123 3.28539 0)
(2.7967 2.83394 0)
(1.7861 2.22045 0)
(11.6194 1.33268 0)
(10.2252 0.930036 0)
(8.68861 1.04472 0)
(7.24268 0.956127 0)
(6.05228 0.861951 0)
(5.04004 0.806516 0)
(4.17792 0.79583 0)
(3.56267 0.866792 0)
(3.33543 1.12247 0)
(3.65146 1.63614 0)
(4.30469 2.35294 0)
(4.8381 3.03208 0)
(4.92497 3.40135 0)
(4.50018 3.32859 0)
(3.68478 2.8903 0)
(2.69729 2.27558 0)
(14.6422 1.70556 0)
(13.0055 1.26665 0)
(11.1977 1.29076 0)
(9.40228 1.16577 0)
(7.8636 1.02995 0)
(6.52659 0.939597 0)
(5.36889 0.894852 0)
(4.47282 0.925036 0)
(3.98199 1.12819 0)
(4.11699 1.5954 0)
(4.76512 2.29936 0)
(5.41869 3.00167 0)
(5.64821 3.40816 0)
(5.33473 3.3669 0)
(4.58535 2.94496 0)
(3.62493 2.33084 0)
(17.6721 2.08111 0)
(15.9271 1.64326 0)
(13.9609 1.58586 0)
(11.8927 1.42667 0)
(10.0212 1.24822 0)
(8.33715 1.11654 0)
(6.84248 1.03186 0)
(5.61748 1.01655 0)
(4.80226 1.15988 0)
(4.66877 1.56615 0)
(5.2359 2.24179 0)
(5.98555 2.96051 0)
(6.36329 3.40543 0)
(6.17176 3.39952 0)
(5.49688 2.99745 0)
(4.56876 2.38603 0)
(20.5687 2.43999 0)
(18.843 2.03525 0)
(16.8451 1.91396 0)
(14.6225 1.73011 0)
(12.4878 1.51563 0)
(10.4767 1.34131 0)
(8.62801 1.21279 0)
(7.03739 1.14815 0)
(5.84469 1.22601 0)
(5.35356 1.55726 0)
(5.7387 2.18544 0)
(6.53852 2.90943 0)
(7.06462 3.39224 0)
(7.00711 3.42552 0)
(6.41725 3.04717 0)
(5.52813 2.44089 0)
(23.2116 2.76588 0)
(21.6125 2.41847 0)
(19.7027 2.25511 0)
(17.4614 2.06068 0)
(15.1774 1.82379 0)
(12.9097 1.61264 0)
(10.7302 1.44085 0)
(8.76171 1.3254 0)
(7.15472 1.33466 0)
(6.22696 1.57904 0)
(6.30939 2.13807 0)
(7.08342 2.85075 0)
(7.7464 3.3679 0)
(7.83532 3.44378 0)
(7.34339 3.09338 0)
(6.50187 2.49505 0)
(25.5121 3.04699 0)
(24.1174 2.77216 0)
(22.3936 2.58891 0)
(20.263 2.39923 0)
(17.9651 2.15773 0)
(15.5553 1.92267 0)
(13.1169 1.71455 0)
(10.797 1.55112 0)
(8.76637 1.49236 0)
(7.3466 1.64219 0)
(6.99975 2.11006 0)
(7.63666 2.78897 0)
(8.40429 3.3323 0)
(8.64942 3.45306 0)
(8.27099 3.13513 0)
(7.48808 2.54802 0)
(27.4196 3.27686 0)
(26.2732 3.08082 0)
(24.8032 2.89752 0)
(22.8881 2.72621 0)
(20.7087 2.4985 0)
(18.2949 2.25726 0)
(15.7136 2.02632 0)
(13.1163 1.82367 0)
(10.692 1.70248 0)
(8.7616 1.75623 0)
(7.87483 2.11383 0)
(8.23034 2.73156 0)
(9.03865 3.28662 0)
(9.44132 3.45215 0)
(9.19396 3.17125 0)
(8.48368 2.59914 0)
(28.9215 3.45433 0)
(28.0352 3.33524 0)
(26.8532 3.1675 0)
(25.2241 3.02462 0)
(23.2719 2.82653 0)
(20.9911 2.59816 0)
(18.4091 2.36263 0)
(15.6529 2.13573 0)
(12.912 1.96379 0)
(10.5001 1.9275 0)
(9.0039 2.16241 0)
(8.91601 2.68925 0)
(9.6596 3.23412 0)
(10.2032 3.44018 0)
(10.1041 3.20031 0)
(9.48397 2.64752 0)
(30.0388 3.58286 0)
(29.3974 3.5325 0)
(28.5059 3.39087 0)
(27.1963 3.28205 0)
(25.5442 3.12469 0)
(23.5099 2.92613 0)
(21.0708 2.70577 0)
(18.3035 2.47424 0)
(15.3689 2.26929 0)
(12.5577 2.15722 0)
(10.4451 2.26715 0)
(9.7637 2.67562 0)
(10.2934 3.18109 0)
(10.9307 3.41727 0)
(10.9913 3.22082 0)
(10.482 2.69204 0)
(30.8179 3.66933 0)
(30.3873 3.67519 0)
(29.763 3.56511 0)
(28.7719 3.4916 0)
(27.4531 3.38048 0)
(25.7417 3.22405 0)
(23.5669 3.03661 0)
(20.9412 2.82179 0)
(17.9683 2.60619 0)
(14.8902 2.44009 0)
(12.2275 2.43497 0)
(10.8527 2.70543 0)
(10.9879 3.13749 0)
(11.6288 3.38543 0)
(11.8449 3.23142 0)
(11.468 2.73125 0)
(31.3209 3.72251 0)
(31.0568 3.77006 0)
(30.6585 3.69247 0)
(29.9576 3.65187 0)
(28.9688 3.5871 0)
(27.614 3.47929 0)
(25.7866 3.33779 0)
(23.4357 3.15915 0)
(20.5895 2.95704 0)
(17.4135 2.76411 0)
(14.3368 2.66586 0)
(12.2531 2.79183 0)
(11.8135 3.11676 0)
(12.3184 3.34954 0)
(12.6572 3.23155 0)
(12.4297 2.76355 0)
(31.6149 3.75159 0)
(31.471 3.82631 0)
(31.2486 3.7788 0)
(30.7916 3.76614 0)
(30.1006 3.74345 0)
(29.097 3.68492 0)
(27.6547 3.59614 0)
(25.6729 3.46825 0)
(23.1025 3.30205 0)
(20.0127 3.11165 0)
(16.7107 2.95168 0)
(14.0026 2.94293 0)
(12.8551 3.13419 0)
(13.044 3.31826 0)
(13.4302 3.22231 0)
(13.3544 2.78743 0)
(31.7635 3.76502 0)
(31.6981 3.85399 0)
(31.6008 3.83201 0)
(31.3329 3.84101 0)
(30.8894 3.85319 0)
(30.2005 3.83978 0)
(29.1381 3.80419 0)
(27.5717 3.73489 0)