/*--------------------------------*- C++ -*----------------------------------*\
| =========                 |                                                 |
| \\      /  F ield         | OpenFOAM: The Open Source CFD Toolbox           |
|  \\    /   O peration     | Version:  v1912                                 |
|   \\  /    A nd           | Website:  www.openfoam.com                      |
|    \\/     M anipulation  |                                                 |
\*---------------------------------------------------------------------------*/
FoamFile
{
    version     2.0;
    format      ascii;
    class       volScalarField;
    location    "320";
    object      epsilon;
}
// * * * * * * * * * * * * * * * * * * * * * * * * * * * * * * * * * * * * * //

dimensions      [0 2 -3 0 0 0 0];


internalField   nonuniform List<scalar> 
12441
(
0.0102962
0.00908475
0.0083269
0.00770248
0.00718357
0.00674893
0.00638227
0.00607093
0.00580502
0.00557662
0.00537904
0.00520382
0.00505946
0.0049146
0.00479472
0.00468927
0.00484108
0.0198407
0.269829
3.01121
20.9583
39.25
0.0101186
0.00891978
0.00818368
0.00757661
0.00707172
0.00664851
0.00629127
0.00598781
0.00572854
0.00550584
0.00531315
0.00514184
0.00500193
0.00486096
0.00474431
0.00464356
0.00477881
0.0196005
0.254188
3.0036
21.2495
40.2318
0.00989659
0.00871701
0.00799998
0.0074088
0.00691724
0.00650534
0.00615779
0.00586273
0.00561082
0.00539468
0.00520797
0.00504208
0.00490741
0.00476964
0.00465817
0.00456226
0.00463132
0.0177819
0.215448
2.97315
21.6297
41.3784
0.00967301
0.00851336
0.0078146
0.00723854
0.00675963
0.00635843
0.00602001
0.00573284
0.00548784
0.00527785
0.00509669
0.00493618
0.00480603
0.004676
0.00456961
0.0044793
0.00449549
0.0155876
0.177478
2.95085
22.0979
42.5504
0.0094288
0.00828876
0.00760872
0.00704828
0.00658254
0.00619257
0.00586382
0.00558512
0.00534761
0.00514439
0.00496949
0.00481486
0.00469033
0.00456396
0.00446358
0.00438016
0.00434804
0.0136129
0.158112
2.95784
22.6152
43.6698
0.00922281
0.00809913
0.0074343
0.00688648
0.0064313
0.00605024
0.00572909
0.00545692
0.0052251
0.00502688
0.00485644
0.00470612
0.00458504
0.00446592
0.00437008
0.00429089
0.00427481
0.013767
0.177737
3.06394
23.2434
44.7472
0.00900217
0.00789554
0.00724716
0.00671305
0.00626944
0.00589824
0.00558558
0.00532082
0.00509555
0.00490322
0.0047382
0.00459301
0.00447673
0.00436046
0.00426921
0.00419705
0.00602783
0.0228648
0.282979
3.36222
24.0813
45.7945
0.0088237
0.00773088
0.00709533
0.00657183
0.00613705
0.00577326
0.00546686
0.00520743
0.00498673
0.00479835
0.0046368
0.00449484
0.00438108
0.0042715
0.00419099
0.00516802
0.0344584
0.0794339
0.594581
3.98974
25.2501
46.8732
0.00862958
0.0075517
0.00693065
0.00641926
0.00599468
0.00563959
0.00534067
0.00508777
0.00487283
0.00468962
0.00453276
0.00439533
0.00428639
0.0041383
0.00539629
0.0270523
0.176282
0.298647
1.276
5.09377
26.8784
48.0153
0.00847488
0.00740879
0.00679874
0.00629641
0.00587935
0.00553052
0.00523688
0.00498844
0.00477728
0.00459731
0.00444326
0.00430855
0.00420064
0.00426945
0.025299
0.149826
0.527316
0.79524
2.35436
6.73165
29.0588
49.2846
0.00830546
0.00725235
0.00665503
0.00616331
0.00575519
0.005414
0.00512692
0.00488419
0.00467807
0.00450257
0.00435258
0.00422282
0.00408696
0.00949672
0.114261
0.434034
1.04441
1.52
3.62609
8.80356
31.8172
50.6975
0.00817042
0.00712764
0.00653988
0.00605601
0.0056544
0.0053186
0.00503604
0.0047971
0.00459417
0.00442139
0.00427375
0.00414755
0.00416345
0.0485033
0.321903
0.814226
1.55174
2.26126
4.83626
11.1001
35.101
52.295
0.00802131
0.00699
0.00641358
0.00593917
0.00554553
0.00521652
0.00493979
0.00470592
0.00450743
0.00433859
0.00419447
0.00403427
0.00839886
0.165597
0.597632
1.15969
1.9448
2.86679
5.85898
13.4117
38.8037
54.0597
0.0079004
0.00687834
0.00631049
0.00584311
0.00545528
0.0051311
0.00485841
0.00462794
0.00443233
0.00426593
0.00412393
0.00387916
0.0372575
0.345003
0.843743
1.4155
2.22103
3.31337
6.68509
15.594
42.7923
56.0037
0.00776904
0.00675702
0.00619918
0.00574015
0.00535934
0.00504114
0.00477358
0.00454755
0.00435581
0.00419283
0.00405387
0.00426407
0.113828
0.525342
1.0293
1.59532
2.41332
3.63604
7.3505
17.5747
46.9381
58.0812
0.00765994
0.00665632
0.00610622
0.00565353
0.00527797
0.00496413
0.00470021
0.00447726
0.00428813
0.00412737
0.00399041
0.00950892
0.224879
0.67241
1.16271
1.72325
2.55092
3.87446
7.89599
19.3318
51.1287
60.2902
0.00754403
0.00654928
0.00600809
0.00556282
0.00519347
0.00488489
0.00462547
0.00440638
0.00422059
0.00406276
0.0039288
0.032584
0.338756
0.784126
1.26011
1.81746
2.65347
4.05801
8.35475
20.8716
55.2795
62.571
0.00744248
0.00645568
0.00592178
0.00548251
0.00511815
0.00481374
0.00455784
0.00434173
0.0041585
0.00400288
0.00387357
0.0823598
0.436551
0.86848
1.33374
1.88965
2.73336
4.20617
8.75106
22.2124
59.3297
64.9213
0.0073399
0.00636081
0.00583474
0.00540196
0.00504303
0.0047432
0.00449119
0.00427841
0.00409804
0.00394491
0.00381003
0.147402
0.514798
0.933833
1.39161
1.94725
2.79845
4.33151
9.10186
23.3765
63.2446
67.2818
0.00724524
0.00627364
0.00575442
0.0053273
0.00497309
0.00467722
0.00442857
0.00421867
0.00404079
0.00388983
0.00428418
0.212319
0.57662
0.986271
1.43886
1.99503
2.85388
4.44216
9.41868
24.3855
67.0079
69.6617
0.00715505
0.00619017
0.00567782
0.00525635
0.00490682
0.00461488
0.00436952
0.00416239
0.00398686
0.00383799
0.0100007
0.269995
0.626416
1.02985
1.47882
2.03617
2.90315
4.54335
9.70913
25.2596
70.6228
72.0102
0.00706424
0.00610671
0.0056011
0.00518524
0.00484043
0.00455248
0.00431055
0.00410638
0.00393343
0.00378733
0.0287991
0.31904
0.667754
1.06727
1.51377
2.07292
2.94873
4.63824
9.97814
26.0163
74.1053
74.3523
0.00698499
0.00603314
0.00553342
0.00512237
0.0047815
0.00449682
0.00425761
0.00405571
0.00388468
0.00374232
0.0608163
0.360497
0.703175
1.10031
1.54531
2.10686
2.9924
4.72862
10.2288
26.6717
77.4871
76.6493
0.00689846
0.00595372
0.00546049
0.00505489
0.00471865
0.00443792
0.00420211
0.00400318
0.00383474
0.00370257
0.0976946
0.395885
0.734407
1.13027
1.5746
2.13918
3.03537
4.81533
10.463
27.2395
80.8099
78.9445
0.00683022
0.00589026
0.00540202
0.0050004
0.00466737
0.00438923
0.00415551
0.00395827
0.00379124
0.00368426
0.132949
0.426681
0.762636
1.15805
1.60252
2.17075
3.07834
4.89875
10.6821
27.7322
84.1286
81.212
0.0067445
0.00581185
0.00533032
0.00493441
0.00460626
0.00433234
0.00410229
0.00390827
0.00374408
0.00364579
0.16448
0.45409
0.788685
1.18436
1.62972
2.20219
3.12162
4.97907
10.887
28.1607
87.5061
83.5114
0.00668539
0.00575657
0.0052791
0.00488636
0.00456071
0.00428875
0.00406026
0.00386747
0.00370433
0.00384748
0.192484
0.479021
0.81315
1.20971
1.65666
2.23387
3.16522
5.05647
11.0785
28.5348
91.0149
85.8273
0.00660163
0.00568009
0.00520934
0.00482235
0.00450166
0.00423402
0.0040093
0.00381983
0.0036597
0.00583966
0.217766
0.502136
0.836467
1.2345
1.68367
2.266
3.20903
5.13113
11.2573
28.8623
94.7296
88.2307
0.006552
0.00563342
0.00516584
0.00478123
0.00446229
0.00419595
0.00397219
0.00378339
0.0036242
0.0114115
0.241093
0.52391
0.858969
1.25901
1.71096
2.29861
3.25288
5.20328
11.424
29.1502
98.7266
90.7106
0.00646787
0.00555694
0.00509643
0.00471792
0.00440431
0.00414262
0.00392294
0.00373774
0.0035827
0.0217698
0.263026
0.544687
0.880905
1.28345
1.73861
2.33168
3.29665
5.27314
11.5795
29.4041
103.075
93.3406
0.00642568
0.00551684
0.00505866
0.00468179
0.00436929
0.00410835
0.00388915
0.00370425
0.00355169
0.0372267
0.283939
0.564721
0.902464
1.30795
1.76664
2.36511
3.34026
5.34092
11.7244
29.6288
107.837
96.1058
0.00634318
0.00544197
0.00499086
0.00462015
0.00431305
0.00405685
0.00384182
0.00366059
0.00351576
0.0570251
0.304067
0.584202
0.923785
1.33259
1.79505
2.39884
3.38368
5.40681
11.8595
29.8286
113.057
99.0732
0.00630954
0.00540967
0.00496008
0.00459024
0.00428355
0.00402744
0.0038123
0.00363084
0.00349489
0.0798969
0.32356
0.603269
0.944964
1.35739
1.82376
2.43277
3.42688
5.47098
11.9857
30.0076
118.771
102.217
0.00622502
0.00533333
0.00489136
0.00452822
0.00422744
0.00397655
0.003766
0.00358858
0.00347388
0.104518
0.342508
0.622027
0.966062
1.38237
1.85273
2.46683
3.46988
5.53356
12.1036
30.1698
125
105.592
0.00619823
0.00530711
0.00486585
0.00450284
0.00420181
0.00395043
0.0037393
0.00356125
0.00347909
0.129821
0.360961
0.640548
0.987112
1.40749
1.88187
2.50099
3.51268
5.59466
12.214
30.3192
131.756
109.157
0.0061112
0.00522892
0.00479588
0.00444013
0.00414551
0.0038998
0.00369363
0.00351994
0.00355149
0.154973
0.378937
0.658878
1.00812
1.43272
1.91112
2.53517
3.55531
5.65435
12.3179
30.4593
139.046
112.957
0.00608769
0.00520564
0.00477289
0.00441687
0.00412164
0.00387513
0.00366813
0.00349365
0.00636832
0.179312
0.396427
0.677041
1.02908
1.45802
1.94042
2.56936
3.59777
5.71268
12.4159
30.5933
146.871
116.938
0.00599566
0.00512355
0.00469992
0.00435194
0.0040638
0.00382352
0.00362196
0.00345222
0.0294286
0.202178
0.413393
0.695039
1.04996
1.48332
1.96969
2.60349
3.64005
5.76967
12.5091
30.7229
155.215
121.137
0.0059674
0.00509617
0.00467336
0.00432554
0.00403714
0.0037964
0.00359433
0.00342469
0.0623384
0.222628
0.429783
0.712859
1.07071
1.50856
1.99888
2.63753
3.68215
5.82534
12.5985
30.8487
164.026
125.495
0.00586267
0.00500317
0.00459107
0.00425266
0.00397255
0.0037391
0.00354339
0.00338448
0.0838809
0.240135
0.445538
0.730468
1.09128
1.53365
2.0279
2.67144
3.72403
5.87966
12.6849
30.9701
173.17
130.045
0.00582112
0.00496379
0.00455366
0.00421638
0.00393689
0.00370379
0.00350838
0.00336062
0.0968318
0.25485
0.460606
0.747823
1.11161
1.55852
2.05668
2.70513
3.76563
5.93261
12.7693
31.0857
182.377
134.727
0.00569945
0.00485617
0.00445846
0.00413184
0.00386159
0.00363658
0.00344827
0.00375008
0.105066
0.26717
0.474949
0.764866
1.13163
1.58307
2.08514
2.73854
3.80688
5.9842
12.8525
31.1946
191.167
139.588
0.0056172
0.00478972
0.00440408
0.00408582
0.00382121
0.00359986
0.00341372
0.00459805
0.110619
0.277504
0.488545
0.781531
1.15128
1.60718
2.11317
2.77158
3.84767
6.03444
12.9347
31.2972
198.843
144.654
0.00525469
0.00446029
0.00411194
0.00382637
0.00358914
0.00339062
0.00322361
0.00501304
0.114515
0.286183
0.501378
0.797736
1.17048
1.63072
2.14066
2.80412
3.88787
6.08343
13.0155
31.3953
204.597
150.447
95.0235
58.1516
39.0275
30.6468
28.2365
23.3224
22.1919
19.9207
18.7361
18.0949
17.7862
17.3707
19.1628
23.4529
29.4519
34.2006
35.4991
35.1195
35.4157
35.945
36.6404
37.6204
38.2113
37.9335
37.0529
35.6883
34.3059
35.817
51.526
10.0398
4.48702
4.30719
4.27231
3.93859
3.47484
94.6475
58.2347
39.2183
31.18
28.9724
23.828
22.6793
20.3026
19.0834
18.3942
17.9459
17.5079
19.2833
23.6098
29.7796
34.7121
36.131
35.614
35.6807
36.1822
37.0056
38.1204
38.8261
38.6164
37.7277
36.2495
34.7087
36.1995
51.8847
10.1322
4.48512
4.3023
4.2669
3.93317
3.47026
93.9266
58.3599
39.5841
32.2577
30.4421
24.8466
23.6344
21.0478
19.7701
18.9838
18.2705
17.7677
19.5185
23.9345
30.3595
35.6291
37.3979
36.7168
36.3254
36.7152
37.7392
39.0871
40.0237
39.974
39.1047
37.4155
35.5421
36.9989
50.4295
10.1888
4.48134
4.29248
4.25609
3.92234
3.46113
92.8104
58.5087
40.1422
33.9346
32.6372
26.3836
25.0235
22.1336
20.7849
19.8555
18.8021
18.1995
19.9249
24.4824
31.3015
37.117
39.5141
38.7585
37.6495
37.742
38.965
40.6018
41.8664
42.075
41.2853
39.3144
36.9046
38.2844
48.4791
10.2463
4.47597
4.27777
4.23992
3.90613
3.44745
91.3035
58.6624
40.9166
36.2514
35.5302
28.4334
26.8148
23.5496
22.1226
21.0094
19.595
18.8698
20.5658
25.3247
32.7404
39.3804
42.7883
42.2825
40.2033
39.6358
40.9073
42.8068
44.4598
45.0251
44.4143
42.1298
38.9404
40.1573
46.8867
10.3426
4.46953
4.25817
4.21841
3.88457
3.42928
89.3553
58.8042
41.9399
39.2484
39.1063
31.0018
29.0001
25.3066
23.7958
22.4633
20.7076
19.8518
21.5075
26.5223
34.7861
42.631
47.5779
48.0419
44.9155
43.051
43.9576
45.948
47.9821
48.9869
48.6936
46.1192
41.8586
42.7639
46.1325
10.5156
4.46268
4.23373
4.19159
3.8577
3.40665
87.0012
58.9196
43.2551
42.9683
43.3642
34.1134
31.599
27.4375
25.8397
24.2611
22.2108
21.2337
22.8289
28.1474
37.5481
47.0778
54.224
56.8733
53.2304
49.1039
48.7898
50.4468
52.7322
54.2123
54.4039
51.6389
45.9601
46.3108
46.5258
10.8036
4.45621
4.20447
4.15951
3.82557
3.3796
84.2135
58.9954
44.9159
47.43
48.2919
37.8006
34.6513
29.993
28.31
26.4729
24.2002
23.1355
24.6488
30.328
41.2047
52.9837
62.9955
69.2926
67.0208
59.6292
56.5584
57.0176
59.2027
61.0934
61.9391
59.1749
51.6739
51.085
48.3687
11.2491
4.45104
4.17044
4.12223
3.78823
3.34821
81.0699
59.0199
46.9858
52.5774
53.8385
42.086
38.2057
33.0364
31.2779
29.1932
26.8028
25.7215
27.1519
33.2868
46.0701
60.7411
74.0345
84.7471
87.4411
77.2415
69.1676
66.8447
68.1857
70.2322
71.8505
69.3753
59.6001
57.4736
52.0745
11.9025
4.44812
4.13168
4.07981
3.74577
3.31255
77.574
58.9818
49.5375
58.2268
59.8957
46.9638
42.3062
36.6343
34.8213
32.535
30.1742
29.2051
30.6122
37.3713
52.6069
70.8184
87.2129
101.137
111.827
103.887
89.2906
81.7496
80.8814
82.5053
84.8804
83.0488
70.5387
65.9668
58.2648
12.8251
4.44839
4.08827
4.03235
3.69829
3.27273
73.8369
58.8691
52.6524
64.0592
66.3025
52.3882
46.9791
40.8451
39.012
36.6178
34.4836
33.8258
35.3948
43.0662
61.3429
83.4447
101.852
115.874
132.518
135.884
118.749
103.906
98.835
99.0212
101.895
101.029
85.4255
77.1002
67.8319
14.0898
4.4526
4.04026
3.97997
3.64591
3.22887
69.8857
58.6678
56.4207
69.7005
72.8743
58.2755
52.2203
45.7031
43.8953
41.5442
39.8704
39.7964
41.9083
50.9424
72.517
97.9161
116.459
127.708
144.084
161.239
153.379
133.8
123.138
120.669
123.495
123.663
104.966
91.2336
81.8481
15.7729
4.46098
3.98775
3.92282
3.58879
3.1811
65.8489
58.3604
60.9329
74.8688
79.4453
64.5241
57.99
51.2022
49.4678
47.3612
46.3776
47.1686
50.4629
61.3277
85.4541
112.096
128.981
136.737
148.611
171.418
180.352
165.873
152.076
146.764
148.979
149.645
128.603
108.02
100.968
17.9277
4.47283
3.93083
3.86106
3.52712
3.1296
61.7626
57.9233
66.24
79.4866
85.9052
71.0459
64.219
57.2882
55.6589
54.0132
53.8515
55.6742
60.8697
73.6699
98.0598
123.224
137.813
143.207
150.51
170.47
189.977
188.498
178.703
173.127
174.879
174.696
152.872
125.595
123.855
20.5289
4.48599
3.8696
3.79491
3.4611
3.07457
57.7502
57.3261
72.2584
83.6757
92.213
77.7948
70.8307
63.8699
62.339
61.3028
61.9023
64.5804
71.9936
85.9074
107.705
129.987
142.841
147.209
151.781
166.079
185.935
194.778
194.213
192.626
195.046
192.302
171.146
140.277
145.402
23.3939
4.4964
3.80418
3.7246
3.391
3.01622
53.8399
56.5333
78.6337
87.6582
98.3852
84.7876
77.7689
70.8369
69.348
68.9216
69.9758
72.9014
81.8243
95.1493
113.153
133.27
145.326
149.148
152.379
161.887
176.935
188.782
196.034
200.293
204.193
197.717
177.506
148.13
158.356
26.1453
4.49815
3.73467
3.65038
3.31709
2.95479
50.1273
55.5171
84.6756
91.6521
104.499
92.0457
85.0089
78.1156
76.5597
76.5614
77.6067
79.8475
88.557
99.8041
115.294
134.999
146.863
149.81
151.861
158.134
167.898
178.137
188.776
197.122
201.674
191.23
171.541
147.72
159.152
28.2948
4.48438
3.66124
3.57256
3.23969
2.89055
46.6135
54.2835
89.5513
95.7797
110.641
99.5983
92.5607
85.6949
83.9349
84.058
84.6508
85.3628
91.9641
100.705
115.919
136.687
148.472
149.936
150.201
154.096
159.879
167.371
178.16
187.586
190.831
176.863
157.722
140.879
150.31
29.4171
4.44878
3.58405
3.49144
3.15911
2.82378
43.349
52.9095
92.7512
100.066
116.876
107.453
100.448
93.6218
91.5399
91.4717
91.3788
90.0752
93.4024
100.03
116.664
139.135
150.463
149.836
147.625
149.298
152.472
157.777
167.385
175.566
175.724
159.086
141.158
130.767
136.609
29.2913
4.38725
3.50333
3.40736
3.07574
2.75476
40.3033
51.5555
94.4125
104.497
123.223
115.567
108.676
101.964
99.5117
99.0522
98.3158
95.0218
94.8535
99.8788
118.59
142.592
152.734
149.452
144.33
143.698
145.206
149.244
157.401
163.024
159.2
141.008
125.115
119.903
121.501
27.9537
4.29888
3.41938
3.32068
2.98992
2.68382
37.4893
50.485
95.152
109.044
129.65
123.843
117.208
110.763
108.001
107.124
106.044
101.159
97.9271
101.737
122.431
147.205
155.161
148.62
140.369
137.467
137.907
141.398
148.137
150.583
142.8
124.269
110.987
109.601
106.609
25.6662
4.18608
3.33252
3.23175
2.90206
2.61125
34.8769
49.9356
95.6498
113.664
136.086
132.14
125.956
120
117.108
115.965
115.005
109.257
103.76
106.621
128.705
153.101
157.752
147.325
135.827
130.838
130.642
133.981
139.278
138.343
127.292
109.522
99.0644
100.268
92.5057
22.8138
4.05384
3.24315
3.14096
2.81254
2.53738
32.4767
49.9253
96.3548
118.305
142.441
140.298
134.79
129.587
126.854
125.735
125.435
119.717
113.018
115.333
137.989
160.556
160.679
145.743
130.89
124.065
123.56
126.876
130.57
126.329
113.057
96.878
89.1478
91.8361
79.3747
19.7806
3.90832
3.15168
3.04867
2.72175
2.46252
30.2708
50.3473
97.3762
122.888
148.611
148.161
143.559
139.379
137.171
136.452
137.341
132.677
126.058
128.601
150.884
169.857
164.162
144.17
125.896
117.429
116.821
120.041
121.883
114.649
100.287
86.1899
80.8763
84.0514
67.3213
16.8617
3.75567
3.05855
2.95525
2.63009
2.38697
28.2673
50.9808
98.6614
127.32
154.496
155.591
152.109
149.211
147.931
148.024
150.576
147.952
142.814
146.987
168.135
181.373
168.414
142.904
121.206
111.207
110.547
113.452
113.194
103.481
89.04
77.2043
73.8765
76.6464
56.4498
14.2341
3.60108
2.96418
2.86108
2.53793
2.31104
26.4614
51.5776
100.115
131.498
160.004
162.482
160.302
158.919
158.974
160.304
164.921
165.241
162.94
170.63
190.284
195.298
173.523
142.166
117.161
105.642
104.816
107.079
104.555
93.0199
79.2795
69.6419
67.8153
69.42
46.8482
11.9734
3.44848
2.86899
2.7665
2.44564
2.23501
24.8623
52.0081
101.653
135.334
165.067
168.771
168.036
168.372
170.153
173.14
180.178
184.169
185.874
199.075
217.463
211.596
179.412
142.038
113.96
100.898
99.6512
100.885
96.0647
83.424
70.8956
63.237
62.4185
62.2759
38.555
10.0856
3.30046
2.77339
2.67185
2.35356
2.15915
23.4808
52.3643
103.214
138.768
169.649
174.44
175.259
177.495
181.364
186.43
196.223
204.497
211.156
231.457
248.768
229.578
185.716
142.442
111.679
97.046
95.0294
94.8323
87.8433
74.7883
63.737
57.7541
57.4707
55.2248
31.5424
8.53866
3.15856
2.67773
2.57747
2.26202
2.08372
22.3333
52.9199
104.756
141.776
173.744
179.516
181.97
186.273
192.576
200.152
213.062
226.111
238.497
266.914
282.512
247.962
191.817
143.136
110.211
94.0548
90.8789
88.8906
80.0143
67.1388
57.6347
52.9947
52.8146
48.3629
25.7221
7.28455
3.02345
2.58237
2.48364
2.17134
2.00894
21.4546
53.9858
106.247
144.363
177.379
184.061
188.218
194.753
203.839
214.407
230.865
249.185
267.978
304.844
316.403
264.83
196.864
143.757
109.347
91.8049
87.0968
83.0462
72.685
60.4455
52.422
48.7963
48.3456
41.8307
20.9644
6.2726
2.89529
2.4876
2.39065
2.08177
1.93503
20.8892
55.7852
107.657
146.557
180.598
188.154
194.089
203.045
215.305
229.454
250.046
274.181
300.046
344.946
348.312
278.328
200.022
143.886
108.762
90.094
83.5529
77.3063
65.9361
54.6379
47.9447
45.0303
44.0079
35.7709
17.1196
5.45626
2.77386
2.3937
2.29875
1.99357
1.86217
20.7351
58.4055
108.96
148.399
183.461
191.887
199.701
211.32
227.25
245.774
271.373
302.076
335.704
387.021
376.04
286.844
200.608
143.134
108.124
88.6689
80.1115
71.7022
59.8153
49.6234
44.0684
41.5975
39.7864
30.2934
14.0371
4.79569
2.65875
2.30092
2.20818
1.90697
1.79054
21.1259
61.805
110.137
149.94
186.037
195.362
205.206
219.83
240.124
264.185
296.16
334.503
376.509
430.574
397.545
289.469
198.272
141.202
107.104
87.2522
76.6441
66.2832
54.3373
45.2999
40.6786
38.4242
35.6973
25.4593
11.577
4.25823
2.54948
2.20947
2.11914
1.82217
1.72029
22.2957
65.8428
111.176
151.235
188.403
198.693
210.799
228.934
254.626
286.01
326.556
374.113
424.584
474.024
410.532
285.746
192.948
137.922
105.457
85.5902
73.0558
61.1114
49.4877
41.5668
37.6814
35.4577
31.776
21.2798
9.61687
3.81769
2.44553
2.11955
2.03182
1.73932
1.65154
24.5223
70.3153
112.074
152.335
190.64
202.013
216.742
239.162
271.847
313.36
365.929
424.67
481.748
513.602
412.947
275.875
184.858
133.248
103.002
83.483
69.2963
56.248
45.2297
38.3299
35.0007
32.6625
28.0659
17.7259
8.05384
3.45345
2.34641
2.03133
1.94639
1.6586
1.58441
28.1637
74.9945
112.84
153.291
192.844
205.49
223.403
251.31
293.501
349.528
419.113
490.49
547.106
542.417
403.157
260.455
174.394
127.247
99.6598
80.8094
65.3705
51.7439
41.5106
35.5056
32.5768
30.0162
24.6078
14.7426
6.80376
3.14934
2.25169
1.94497
1.86299
1.58011
1.51899
33.4954
79.6644
113.482
154.15
195.124
209.351
231.326
266.616
322.297
399.397
491.489
572.643
611.653
551.365
380.987
240.639
162.111
120.078
95.4117
77.5198
61.324
47.6289
38.2689
33.0215
30.3629
27.5067
21.4329
12.2614
5.7993
2.89275
2.16097
1.86061
1.78176
1.50399
1.45537
40.701
84.1492
114.014
154.957
197.624
213.924
241.351
287.055
362.486
469.106
583.781
659.381
654.238
533.11
348.041
217.834
148.624
111.978
90.3174
73.6253
57.2253
43.9084
35.4395
30.8175
28.3241
25.1287
18.559
10.2107
4.98729
2.67388
2.07393
1.77838
1.70281
1.43032
1.39362
49.6321
88.3334
114.446
155.768
200.541
219.709
254.819
315.851
420.367
562.131
678.868
716.501
650.015
487.543
307.921
193.661
134.586
103.241
84.4834
69.1768
53.1398
40.5629
32.9585
28.8441
26.4346
22.8815
15.9909
8.52208
4.32611
2.48503
1.9903
1.6984
1.62625
1.35919
1.3338
59.8743
92.1669
114.792
156.649
204.173
227.511
273.971
358.293
503.07
665.998
733.177
705.61
592.914
423.391
265.034
169.576
120.594
94.1943
78.0788
64.2575
49.1172
37.5544
30.7662
27.062
24.6765
20.7673
13.7215
7.13373
3.7834
2.32021
1.90987
1.62078
1.55219
1.2907
1.27598
70.5911
95.6558
115.063
157.699
208.995
238.692
302.683
422.421
609.13
735.923
707.881
625.794
503.023
353.415
223.427
146.782
107.169
85.1681
71.308
58.9769
45.1854
34.8324
28.8089
25.4403
23.0381
18.7893
11.7353
5.99214
3.334
2.1747
1.83249
1.54566
1.48072
1.2249
1.2202
80.9187
98.8399
115.276
159.072
215.826
255.711
347.73
515.653
702.583
720.101
613.568
514.527
407.883
287.646
185.647
126.025
94.6943
76.4702
64.4144
53.4721
41.3565
32.3411
27.0394
23.9554
21.5121
16.9515
10.0111
5.0521
2.95839
2.04476
1.75802
1.47314
1.41193
1.16186
1.16652
89.3733
101.777
115.451
161.037
226.2
283.268
419.333
621.775
711.231
620.64
494.297
407.562
323.872
230.64
152.793
107.701
83.4351
68.3589
57.6492
47.9067
37.6334
30.0241
25.4162
22.5883
20.0945
15.2576
8.52523
4.27613
2.64139
1.92744
1.68638
1.40333
1.3459
1.10165
1.11498
95.1437
104.531
115.625
164.099
243.258
330.248
518.718
661.96
611.292
487.165
384.364
319.764
255.298
183.057
124.928
91.8692
73.5033
61.0134
51.2572
42.4684
34.0213
27.8283
23.9028
21.3232
18.7831
13.7101
7.25302
3.63355
2.37114
1.82037
1.61753
1.33634
1.28268
1.04429
1.06562
0.0033777
0.00250364
0.00227455
0.00216165
0.00212007
0.00212327
0.00215646
0.00513834
0.116622
0.291648
0.510396
0.809358
1.18425
1.64747
2.16029
2.82747
3.91691
6.11901
13.0745
31.4701
206.917
160.131
0.00334422
0.00224188
0.0018409
0.00160385
0.00148142
0.00144243
0.00147477
0.00519741
0.117664
0.294602
0.515568
0.815867
1.19166
1.65623
2.17047
2.83971
3.93276
6.13963
13.1121
31.5261
207.897
170.25
0.00354033
0.00237566
0.00188183
0.00154375
0.00132118
0.00118946
0.00115874
0.00523579
0.118349
0.296753
0.519586
0.820692
1.19675
1.66191
2.17693
2.84763
3.94376
6.15533
13.1432
31.5834
208.029
179.914
0.00367064
0.00251728
0.00200378
0.0016296
0.00135761
0.00116581
0.00103163
0.00525983
0.118727
0.298149
0.522437
0.823794
1.19946
1.66447
2.1796
2.85114
3.94975
6.16585
13.1661
31.6426
207.377
188.987
0.00392246
0.00276393
0.00222655
0.00182237
0.00151452
0.00128017
0.000999778
0.00527283
0.118827
0.29882
0.524108
0.825145
1.19977
1.66386
2.17843
2.85015
3.9506
6.17096
13.1791
31.7044
205.984
197.932
0.00406006
0.00292963
0.00239851
0.00199222
0.0016755
0.0014256
0.000989475
0.00527661
0.118666
0.298788
0.52459
0.82473
1.19764
1.66009
2.1734
2.84464
3.94619
6.17044
13.1806
31.7687
203.882
206.92
0.00434039
0.00320801
0.00265973
0.00223385
0.00189666
0.00162544
0.00105913
0.00527207
0.118255
0.298068
0.523887
0.822552
1.1931
1.65316
2.16454
2.83457
3.93643
6.16406
13.1692
31.8356
201.111
215.951
0.00447844
0.0033792
0.00284394
0.00242367
0.00208695
0.00181209
0.00118612
0.00525929
0.117603
0.296678
0.522012
0.818627
1.18616
1.64312
2.15187
2.81996
3.92126
6.15164
13.1434
31.904
197.719
224.962
0.00478397
0.0036847
0.00313489
0.00269742
0.00234281
0.00205007
0.00131101
0.00523781
0.116714
0.294635
0.518994
0.812994
1.17688
1.63004
2.13549
2.80084
3.90061
6.133
13.102
31.9727
193.762
233.885
0.00490857
0.0038488
0.00331957
0.0028949
0.00254743
0.00225728
0.00140113
0.00520678
0.115593
0.291957
0.514875
0.805707
1.16536
1.61402
2.11548
2.77729
3.87445
6.10795
13.0442
32.0393
189.3
242.635
0.00522933
0.00417133
0.00363036
0.00319105
0.00282801
0.0025222
0.00151503
0.00516522
0.114244
0.288671
0.509706
0.79684
1.15168
1.59517
2.09198
2.74939
3.84275
6.07633
12.9691
32.1006
184.398
251.104
0.00533919
0.00432466
0.00380993
0.00338932
0.00303917
0.00274149
0.0016342
0.00511168
0.112669
0.2848
0.503549
0.786481
1.13596
1.57364
2.06516
2.71727
3.80551
6.03796
12.876
32.1524
179.123
259.158
0.00567205
0.00466103
0.00413709
0.003704
0.00334012
0.00302846
0.00183855
0.00504443
0.110867
0.280375
0.496472
0.774733
1.11836
1.54959
2.0352
2.6811
3.76276
5.99269
12.7646
32.1893
173.543
266.648
0.00575617
0.00479287
0.0043012
0.00389316
0.00354845
0.00325101
0.00211604
0.00496083
0.108833
0.275421
0.488547
0.761711
1.09901
1.5232
2.00231
2.64108
3.71457
5.94032
12.6345
32.205
167.726
273.422
0.00609204
0.00513343
0.00463469
0.00421622
0.00385971
0.00355022
0.0025209
0.00485767
0.106557
0.269963
0.479843
0.747537
1.07809
1.49467
1.9667
2.59743
3.66102
5.88068
12.4854
32.1921
161.736
279.332
0.0061521
0.00524292
0.0047802
0.00439122
0.00405864
0.0037683
0.00298693
0.00472983
0.104019
0.264021
0.47043
0.73234
1.05577
1.46421
1.92862
2.55039
3.60228
5.81358
12.3175
32.1424
155.633
284.246
0.00648671
0.00558321
0.00511518
0.0047174
0.00437447
0.00407345
0.00349964
0.00457142
0.101187
0.257602
0.460367
0.71625
1.03222
1.43201
1.88832
2.50026
3.53853
5.73884
12.1307
32.047
149.471
288.051
0.0065183
0.00566542
0.00523652
0.00487208
0.00455733
0.00427992
0.00389529
0.00437298
0.0980076
0.2507
0.449704
0.699395
1.00762
1.39831
1.84605
2.44733
3.47002
5.65629
11.9254
31.8965
143.299
290.665
0.00683897
0.00599258
0.00556018
0.00518878
0.0048655
0.00457924
0.00427216
0.00413266
0.0944065
0.243285
0.438474
0.681896
0.982153
1.36331
1.80207
2.3919
3.39704
5.56578
11.7019
31.6815
137.158
292.028
0.00685345
0.00605571
0.00566231
0.00532508
0.0050315
0.00477089
0.00452654
0.00386343
0.0902738
0.235296
0.426688
0.66386
0.955999
1.32724
1.75663
2.33429
3.31992
5.4672
11.4609
31.3927
131.081
292.106
0.00716007
0.00636955
0.00597414
0.00563136
0.00533049
0.00506209
0.00482219
0.0036498
0.0854577
0.226632
0.414324
0.645376
0.929329
1.29031
1.70999
2.27482
3.23904
5.36048
11.203
31.0217
125.098
290.885
0.0071566
0.00641248
0.00605553
0.0057473
0.00547719
0.00523599
0.00502188
0.0036922
0.079756
0.217134
0.401318
0.626504
0.902301
1.25272
1.6624
2.21382
3.15479
5.24561
10.9291
30.5606
119.227
288.368
0.00744655
0.00670981
0.00635178
0.00603898
0.00576249
0.00551434
0.00529169
0.00409403
0.0729172
0.206572
0.387547
0.60726
0.875056
1.21469
1.61408
2.15158
3.0676
5.12267
10.6401
30.0035
113.486
284.569
0.00743054
0.00673699
0.0064157
0.00613659
0.00589067
0.00567004
0.00547
0.00465785
0.0646652
0.194625
0.372811
0.587605
0.847704
1.1764
1.56527
2.08841
2.97793
4.99182
10.3371
29.3463
107.882
279.511
0.00770417
0.00701793
0.00669618
0.00641317
0.00616147
0.00593437
0.00572683
0.00524138
0.0547963
0.180871
0.356803
0.56742
0.820311
1.13804
1.51619
2.02462
2.88623
4.85333
10.0212
28.5871
102.42
273.227
0.00767671
0.00703038
0.00674338
0.00649281
0.00627108
0.00607138
0.0058879
0.00561839
0.0434078
0.164797
0.339085
0.546474
0.792877
1.09976
1.46705
1.96047
2.793
4.70759
9.69351
27.7265
97.1016
265.757
0.00793331
0.00729391
0.00700673
0.00675265
0.00652552
0.00631968
0.00612999
0.00592555
0.0312731
0.145865
0.319055
0.524392
0.765303
1.0617
1.41803
1.89624
2.69871
4.5551
9.3552
26.7683
91.9231
257.151
0.0078995
0.00729635
0.00704133
0.00681774
0.00661918
0.00643979
0.00627415
0.00611136
0.0200517
0.123732
0.295923
0.500606
0.737352
1.02389
1.36931
1.83219
2.60386
4.39653
9.00741
25.7189
86.8776
247.471
0.0081412
0.00754446
0.00728933
0.00706242
0.00685864
0.00667321
0.00650163
0.0063383
0.0118711
0.0986564
0.268731
0.4743
0.708594
0.986281
1.32102
1.76855
2.50896
4.23268
8.65126
24.5875
81.9561
236.796
0.00810333
0.00753936
0.00731379
0.00711532
0.00693852
0.00677837
0.0066301
0.00648876
0.00773355
0.0721131
0.236494
0.444356
0.678345
0.948665
1.27322
1.70553
2.41453
4.06453
8.28786
23.3859
77.146
225.222
0.00833026
0.00777212
0.00754642
0.00734476
0.00716291
0.00699684
0.00684273
0.00669688
0.0066073
0.047062
0.1986
0.409321
0.645586
0.910579
1.22586
1.64329
2.32107
3.89324
7.91838
22.128
72.4341
212.862
0.00829263
0.00776376
0.00756483
0.00738925
0.0072324
0.00708999
0.00695789
0.00683213
0.00660419
0.0270886
0.15562
0.367471
0.608874
0.871241
1.17869
1.58191
2.22908
3.72017
7.54412
20.8291
67.8052
199.853
0.00850604
0.00798247
0.00778338
0.00760476
0.00744306
0.00729489
0.00715699
0.00702641
0.00684751
0.0146071
0.110442
0.317188
0.566244
0.829435
1.1312
1.52133
2.139
3.54684
7.16662
19.5058
63.2461
186.346
0.008471
0.00797344
0.00779843
0.00764353
0.00750479
0.00737854
0.00726118
0.00714935
0.00702283
0.00892074
0.0687383
0.257946
0.515185
0.783396
1.08246
1.46128
2.05116
3.37493
6.78779
18.1747
58.7456
172.51
0.00867169
0.00817892
0.00800374
0.00784595
0.00770259
0.00757081
0.0074478
0.00733106
0.00721254
0.0071916
0.0370281
0.192107
0.452923
0.730668
1.03104
1.40114
1.96569
3.20616
6.41
16.8526
54.2999
158.523
0.00864157
0.00817177
0.00801805
0.00788162
0.00775913
0.0076474
0.00754332
0.00744395
0.00734442
0.00697487
0.0184386
0.126608
0.377488
0.668013
0.974811
1.33986
1.8824
3.04216
6.03618
15.5557
49.9126
144.567
0.00883165
0.00836614
0.00821216
0.00807296
0.00794604
0.00782897
0.00771935
0.00761502
0.0075128
0.0072101
0.010486
0.0718699
0.29017
0.591651
0.91081
1.27583
1.80069
2.88428
5.66966
14.2989
45.5997
130.821
0.00880914
0.00836381
0.00822885
0.00810873
0.00800058
0.00790167
0.00780929
0.00772083
0.00763324
0.00745636
0.00804243
0.0357552
0.198693
0.498421
0.835055