/*--------------------------------*- C++ -*----------------------------------*\
| =========                 |                                                 |
| \\      /  F ield         | OpenFOAM: The Open Source CFD Toolbox           |
|  \\    /   O peration     | Version:  v1912                                 |
|   \\  /    A nd           | Website:  www.openfoam.com                      |
|    \\/     M anipulation  |                                                 |
\*---------------------------------------------------------------------------*/
FoamFile
{
    version     2.0;
    format      ascii;
    class       volScalarField;
    location    "320";
    object      p;
}
// * * * * * * * * * * * * * * * * * * * * * * * * * * * * * * * * * * * * * //

dimensions      [0 2 -2 0 0 0 0];


internalField   nonuniform List<scalar> 
12441
(
8.69706
8.99226
9.83517
11.1487
12.8524
14.995
17.6659
20.979
25.1112
30.2188
36.5528
44.3379
53.9031
65.909
81.5114
101.441
129.445
164.383
221.072
283.48
374.643
437.898
8.69705
8.99225
9.83516
11.1487
12.8523
14.9949
17.6658
20.9789
25.1111
30.2186
36.5524
44.3373
53.9021
65.9072
81.5084
101.435
129.429
164.358
220.991
283.405
374.594
437.703
8.69703
8.99223
9.83514
11.1487
12.8523
14.9948
17.6657
20.9787
25.1108
30.2181
36.5517
44.3362
53.9002
65.9036
81.5024
101.421
129.405
164.302
220.822
283.224
374.462
437.348
8.69701
8.99221
9.83511
11.1486
12.8522
14.9947
17.6655
20.9784
25.1103
30.2174
36.5506
44.3344
53.8972
65.8982
81.4934
101.4
129.372
164.216
220.643
282.946
374.221
436.796
8.69698
8.99217
9.83506
11.1485
12.8521
14.9946
17.6653
20.978
25.1097
30.2164
36.5491
44.3321
53.8933
65.8909
81.4816
101.374
129.329
164.108
220.478
282.598
373.883
436.044
8.69694
8.99213
9.835
11.1484
12.852
14.9944
17.665
20.9775
25.109
30.2152
36.5472
44.3293
53.8884
65.8817
81.4668
101.341
129.276
163.982
220.291
282.177
373.452
435.091
8.69689
8.99207
9.83494
11.1483
12.8518
14.9941
17.6646
20.9769
25.1081
30.2138
36.545
44.3259
53.8826
65.8708
81.4491
101.301
129.214
163.833
220.073
281.686
372.932
433.938
8.69684
8.99201
9.83486
11.1482
12.8516
14.9938
17.6642
20.9762
25.1071
30.2121
36.5424
44.3219
53.8758
65.858
81.4285
101.256
129.145
163.664
219.835
281.138
372.329
432.581
8.69678
8.99194
9.83476
11.1481
12.8514
14.9935
17.6637
20.9754
25.1059
30.2102
36.5394
44.3173
53.868
65.8434
81.4056
101.207
129.075
163.482
219.598
280.545
371.646
431.017
8.69671
8.99186
9.83466
11.1479
12.8512
14.9932
17.6632
20.9745
25.1045
30.208
36.5361
44.3121
53.8592
65.8271
81.3816
101.157
129.008
163.298
219.387
279.917
370.884
429.24
8.69663
8.99177
9.83455
11.1477
12.8509
14.9928
17.6626
20.9736
25.103
30.2056
36.5324
44.3064
53.8495
65.8094
81.3578
101.113
128.96
163.13
219.23
279.265
370.041
427.243
8.69654
8.99168
9.83442
11.1476
12.8506
14.9923
17.6619
20.9725
25.1014
30.203
36.5283
44.3002
53.8389
65.7911
81.338
101.083
128.96
163.013
219.159
278.592
369.11
425.016
8.69645
8.99157
9.83429
11.1474
12.8503
14.9919
17.6612
20.9713
25.0996
30.2001
36.5238
44.2933
53.8276
65.7745
81.331
101.089
129.052
162.992
219.181
277.891
368.084
422.549
8.69635
8.99146
9.83414
11.1471
12.85
14.9914
17.6604
20.97
25.0977
30.197
36.519
44.2859
53.8164
65.7641
81.3515
101.158
129.278
163.105
219.266
277.142
366.952
419.828
8.69624
8.99134
9.83398
11.1469
12.8496
14.9908
17.6596
20.9686
25.0956
30.1936
36.5137
44.278
53.8067
65.768
81.4156
101.311
129.656
163.353
219.353
276.32
365.705
416.842
8.69612
8.9912
9.83381
11.1466
12.8492
14.9902
17.6587
20.9671
25.0933
30.19
36.5081
44.2698
53.8015
65.7963
81.5358
101.553
130.166
163.686
219.369
275.399
364.334
413.575
8.696
8.99106
9.83363
11.1463
12.8488
14.9896
17.6577
20.9655
25.0909
30.1862
36.5021
44.2618
53.8056
65.8571
81.714
101.874
130.742
164.008
219.256
274.359
362.833
410.014
8.69587
8.99091
9.83343
11.1461
12.8484
14.9889
17.6567
20.9639
25.0884
30.1821
36.4957
44.2552
53.8252
65.9532
81.9421
102.24
131.282
164.215
218.985
273.19
361.194
406.145
8.69573
8.99076
9.83323
11.1457
12.8479
14.9882
17.6556
20.9621
25.0857
30.1777
36.4888
44.2519
53.8648
66.0808
82.1994
102.604
131.683
164.239
218.56
271.889
359.415
401.952
8.69558
8.99059
9.83301
11.1454
12.8474
14.9874
17.6545
20.9602
25.0829
30.1731
36.4817
44.255
53.9261
66.2298
82.4602
102.91
131.863
164.067
218.005
270.461
357.493
397.42
8.69543
8.99041
9.83278
11.1451
12.8469
14.9866
17.6533
20.9582
25.0799
30.1683
36.4745
44.2679
54.005
66.3877
82.6925
103.112
131.797
163.736
217.349
268.911
355.428
392.533
8.69526
8.99023
9.83254
11.1447
12.8463
14.9858
17.652
20.9562
25.0768
30.1631
36.4677
44.2931
54.096
66.5397
82.8714
103.183
131.517
163.307
216.62
267.248
353.219
387.275
8.69509
8.99004
9.83229
11.1443
12.8458
14.9849
17.6507
20.954
25.0735
30.1577
36.4622
44.3304
54.1902
66.6738
82.977
103.122
131.094
162.831
215.836
265.481
350.869
381.628
8.69491
8.98984
9.83203
11.1439
12.8452
14.984
17.6493
20.9517
25.07
30.1521
36.4594
44.3774
54.2815
66.7783
83.0064
102.952
130.606
162.34
215.006
263.62
348.38
375.574
8.69473
8.98963
9.83176
11.1435
12.8445
14.9831
17.6479
20.9494
25.0664
30.1461
36.4611
44.4299
54.3624
66.8481
82.9644
102.708
130.116
161.844
214.136
261.673
345.753
369.094
8.69453
8.98941
9.83147
11.1431
12.8439
14.9821
17.6464
20.9469
25.0626
30.1399
36.4685
44.4835
54.4305
66.8803
82.8688
102.427
129.655
161.341
213.226
259.65
342.993
362.166
8.69433
8.98918
9.83117
11.1426
12.8432
14.9811
17.6448
20.9443
25.0587
30.1335
36.482
44.5346
54.4809
66.8788
82.7361
102.138
129.234
160.826
212.277
257.561
340.102
354.768
8.69412
8.98894
9.83087
11.1422
12.8425
14.98
17.6432
20.9417
25.0546
30.1272
36.501
44.5802
54.5149
66.8481
82.5852
101.856
128.846
160.292
211.287
255.414
337.08
346.876
8.69391
8.9887
9.83055
11.1417
12.8418
14.9789
17.6415
20.9389
25.0504
30.1212
36.5237
44.6184
54.5304
66.7963
82.4268
101.591
128.479
159.738
210.257
253.216
333.929
338.465
8.69368
8.98844
9.83021
11.1412
12.841
14.9778
17.6397
20.936
25.0459
30.1154
36.5482
44.6482
54.5314
66.729
82.2705
101.341
128.124
159.161
209.184
250.971
330.645
329.505
8.69345
8.98818
9.82987
11.1407
12.8403
14.9766
17.6379
20.933
25.0413
30.1101
36.5726
44.669
54.5175
66.6531
82.1184
101.106
127.774
158.563
208.071
248.681
327.226
319.966
8.69321
8.98791
9.82952
11.1401
12.8394
14.9753
17.6361
20.93
25.0365
30.1056
36.5959
44.681
54.4938
66.5715
81.9732
100.878
127.423
157.944
206.916
246.347
323.663
309.816
8.69296
8.98763
9.82915
11.1396
12.8386
14.9741
17.6341
20.9268
25.0316
30.1022
36.6171
44.6845
54.4602
66.4883
81.8327
100.658
127.068
157.306
205.721
243.968
319.947
299.02
8.6927
8.98734
9.82877
11.139
12.8378
14.9728
17.6322
20.9235
25.0265
30.1003
36.6354
44.6804
54.4214
66.4039
81.6975
100.439
126.708
156.65
204.484
241.544
316.069
287.54
8.69244
8.98704
9.82838
11.1384
12.8369
14.9714
17.6301
20.9201
25.0212
30.1002
36.6505
44.6697
54.3768
66.3205
81.5647
100.222
126.341
155.978
203.208
239.074
312.016
275.337
8.69217
8.98673
9.82798
11.1378
12.836
14.97
17.628
20.9166
25.0158
30.1022
36.6625
44.6533
54.3303
66.2373
81.4348
100.004
125.968
155.29
201.893
236.56
307.776
262.371
8.69189
8.98642
9.82757
11.1372
12.835
14.9686
17.6258
20.913
25.0102
30.1073
36.6714
44.6324
54.2805
66.1555
81.3053
99.7851
125.589
154.588
200.538
234.005
303.338
248.596
8.69161
8.9861
9.82715
11.1365
12.8341
14.9672
17.6236
20.9093
25.005
30.1169
36.6778
44.6079
54.2307
66.0742
81.1769
99.5631
125.202
153.872
199.147
231.413
298.692
233.967
8.69131
8.98576
9.82671
11.1359
12.8331
14.9657
17.6213
20.9055
25.001
30.1317
36.6821
44.5808
54.1791
65.9942
81.0477
99.3395
124.811
153.143
197.72
228.79
293.83
218.435
8.69101
8.98542
9.82626
11.1352
12.8321
14.9641
17.619
20.9015
25.0011
30.1521
36.6846
44.5518
54.1284
65.9147
80.9188
99.1128
124.414
152.403
196.261
226.14
288.746
201.947
8.6907
8.98507
9.8258
11.1345
12.831
14.9625
17.6166
20.8975
25.0096
30.178
36.6854
44.5216
54.0763
65.8366
80.7887
98.8846
124.012
151.651
194.772
223.468
283.44
184.449
8.69038
8.98471
9.82533
11.1338
12.83
14.9609
17.6141
20.8936
25.0305
30.2089
36.6845
44.4907
54.0255
65.7591
80.659
98.6536
123.605
150.888
193.259
220.777
277.909
165.895
8.69006
8.98434
9.82485
11.1331
12.8289
14.9593
17.6115
20.8906
25.0664
30.2438
36.6817
44.4597
53.973
65.6834
80.5279
98.4219
123.195
150.113
191.725
218.063
272.127
146.196
8.68973
8.98397
9.82435
11.1324
12.8278
14.9576
17.6089
20.8921
25.1163
30.281
36.6769
44.429
53.9218
65.609
80.3976
98.1882
122.781
149.323
190.177
215.316
266.015
124.612
-19.0542
-23.6846
-26.612
-23.2931
-18.9287
-16.1377
-13.7075
-11.7427
-9.71117
-7.33303
-5.68623
-5.60035
-8.04432
-9.55431
-4.82118
6.3259
15.634
19.2237
18.338
16.3212
13.7467
12.2073
10.2168
8.35909
6.50731
5.17656
3.54772
4.31794
-0.314483
-1.44188
4.64269
6.22273
4.13698
2.03974
0.850632
-19.0597
-23.6742
-26.6367
-23.293
-18.9261
-16.1351
-13.7077
-11.7428
-9.71134
-7.3328
-5.68726
-5.60063
-8.04192
-9.54877
-4.81347
6.33663
15.6481
19.236
18.3439
16.3242
13.749
12.2091
10.2185
8.36097
6.50944
5.17861
3.54866
4.32529
-0.317557
-1.46564
4.62001
6.22244
4.13748
2.03983
0.850637
-19.0683
-23.6698
-26.679
-23.2937
-18.9235
-16.1318
-13.7077
-11.743
-9.71154
-7.33216
-5.68753
-5.59951
-8.03847
-9.54262
-4.8017
6.35929
15.6818
19.27
18.3655
16.3341
13.7541
12.213
10.2222
8.36466
6.51328
5.1821
3.55058
4.33348
-0.324598
-1.48849
4.59785
6.22237
4.13802
2.03994
0.850646
-19.0804
-23.6793
-26.7386
-23.2968
-18.9215
-16.1281
-13.7073
-11.743
-9.71175
-7.33146
-5.68794
-5.59829
-8.03528
-9.53713
-4.78939
6.38673
15.7271
19.321
18.4024
16.3515
13.7623
12.219
10.2277
8.37016
6.51895
5.1874
3.55355
4.34151
-0.334635
-1.49601
4.57753
6.22231
4.13859
2.04007
0.85066
-19.0958
-23.7074
-26.8123
-23.3025
-18.9192
-16.1237
-13.7061
-11.7428
-9.7118
-7.33074
-5.68852
-5.59684
-8.0331
-9.53425
-4.78107
6.4095
15.7684
19.3721
18.4438
16.3728
13.7727
12.2266
10.2346
8.37711
6.52617
5.19436
3.55774
4.34933
-0.342822
-1.48916
4.56039
6.22234
4.13919
2.04021
0.850678
-19.1141
-23.7585
-26.8965
-23.3099
-18.9151
-16.118
-13.7037
-11.7425
-9.71157
-7.32995
-5.689
-5.59523
-8.03192
-9.53392
-4.77699
6.42533
15.7996
19.414
18.4821
16.395
13.7846
12.2354
10.2426
8.385
6.53449
5.20268
3.56311
4.3572
-0.345532
-1.46882
4.54665
6.22247
4.13981
2.04035
0.850697
-19.135
-23.836
-26.9876
-23.3182
-18.909
-16.1108
-13.6998
-11.742
-9.71101
-7.32901
-5.68926
-5.59329
-8.03143
-9.53527
-4.77545
6.43578
15.8209
19.4446
18.5141
16.4165
13.7975
12.2449
10.2511
8.39331
6.54335
5.2119
3.56948
4.36536
-0.340909
-1.43475
4.53612
6.22272
4.14046
2.04051
0.850717
-19.1579
-23.942
-27.0821
-23.3275
-18.9013
-16.1027
-13.6948
-11.7415
-9.71024
-7.32796
-5.68926
-5.59122
-8.03149
-9.53742
-4.77462
6.44293
15.8342
19.4645
18.5384
16.4363
13.8108
12.2549
10.2597
8.40158
6.55222
5.22149
3.57657
4.37393
-0.328473
-1.38669
4.5287
6.22306
4.14113
2.04066
0.850733
-19.1826
-24.0764
-27.1765
-23.3383
-18.893
-16.0944
-13.6893
-11.7412
-9.70942
-7.32688
-5.68902
-5.58905
-8.03214
-9.54008
-4.77376
6.44792
15.8413
19.4753
18.5548
16.4532
13.8239
12.2649
10.2682
8.40941
6.5606
5.23083
3.58403
4.3829
-0.308669
-1.32526
4.52425
6.22351
4.14181
2.0408
0.850744
-19.2084
-24.2372
-27.2675
-23.3511
-18.8848
-16.0866
-13.6837
-11.7412
-9.70876
-7.32602
-5.68864
-5.58703
-8.03351
-9.54304
-4.77264
6.45131
15.8435
19.4785
18.5635
16.4658
13.8357
12.2743
10.276
8.41646
6.56802
5.23933
3.59138
4.39213
-0.282721
-1.25222
4.52285
6.22405
4.14252
2.04094
0.850748
-19.2349
-24.4205
-27.3524
-23.366
-18.8772
-16.0799
-13.6786
-11.7417
-9.70848
-7.32554
-5.68821
-5.58519
-8.03556
-9.54619
-4.77164
6.45308
15.8419
19.4759
18.5653
16.4732
13.8451
12.2825
10.2829
8.42237
6.57414
5.24645
3.59813
4.40146
-0.252511
-1.17061
4.52463
6.22467
4.14324
2.04105
0.850742
-19.2618
-24.6204
-27.4291
-23.3828
-18.8707
-16.0749
-13.6746
-11.7429
-9.70882
-7.32573
-5.68794
-5.58372
-8.03817
-9.54924
-4.77107
6.45314
15.8375
19.4692
18.5616
16.4752
13.851
12.2886
10.2883
8.42683
6.57866
5.25181
3.60378
4.41066
-0.220357
-1.08464
4.53003
6.22536
4.14398
2.04115
0.850723
-19.2886
-24.829
-27.4966
-23.401
-18.866
-16.0719
-13.6722
-11.745
-9.71
-7.32676
-5.688
-5.58264
-8.0411
-9.552
-4.77136
6.45129
15.8308
19.4597
18.5541
16.4728
13.8531
12.292
10.2916
8.4296
6.58146
5.25521
3.60793
4.41954
-0.188544
-0.999418
4.5396
6.22613
4.14473
2.04122
0.85069
-19.3149
-25.0374
-27.5544
-23.4197
-18.8634
-16.0713
-13.6717
-11.7481
-9.71223
-7.32885
-5.68864
-5.58211
-8.04406
-9.55421
-4.77245
6.44756
15.8222
19.4481
18.544
16.4671
13.852
12.2927
10.2928
8.43056
6.58256
5.25674
3.6104
4.42794
-0.15877
-0.920407
4.55424
6.22695
4.14548
2.04127
0.85064
-19.3404
-25.2358
-27.603
-23.4376
-18.8633
-16.0732
-13.6734
-11.7525
-9.71563
-7.33211
-5.69004
-5.58216
-8.04684
-9.55578
-4.77417
6.44211
15.8113
19.4344
18.532
16.4592
13.8485
12.291
10.2919
8.42983
6.58214
5.25665
3.61125
4.43578
-0.131728
-0.852668
4.5748
6.22784
4.14625
2.04128
0.850574
-19.3647
-25.415
-27.6428
-23.4531
-18.8658
-16.078
-13.6775
-11.7584
-9.72038
-7.3367
-5.69243
-5.58291
-8.04929
-9.55651
-4.77589
6.43537
15.7982
19.4184
18.5184
16.45
13.8436
12.2876
10.2894
8.42765
6.58049
5.25529
3.6108
4.44314
-0.107065
-0.799966
4.60207
6.22879
4.14702
2.04125
0.850488
-19.3876
-25.5672
-27.675
-23.4642
-18.8711
-16.0861
-13.6842
-11.7661
-9.72662
-7.34267
-5.69588
-5.58433
-8.05148
-9.55639
-4.77713
6.42771
15.7827
19.3997
18.5028
16.4397
13.8379
12.2831
10.2856
8.42432
6.57787
5.25303
3.60942
4.45021
-0.0837608
-0.76382
4.63606
6.22982
4.14779
2.04119
0.850383
-19.4086
-25.6872
-27.701
-23.4694
-18.8799
-16.0978
-13.6939
-11.7757
-9.7346
-7.35023
-5.70059
-5.58653
-8.05361
-9.5553
-4.77727
6.41961
15.7649
19.3779
18.4851
16.4282
13.8317
12.278
10.281
8.42015
6.57454
5.25015
3.60744
4.45725
-0.0606957
-0.743167
4.67606
6.23093
4.14855
2.04109
0.850257
-19.4272
-25.7739
-27.723
-23.4685
-18.8923
-16.1132
-13.7069
-11.7879
-9.74456
-7.35946
-5.70659
-5.58957
-8.05603
-9.55342
-4.77606
6.41123
15.7448
19.3531
18.4649
16.4153
13.825
12.2725
10.2758
8.41539
6.57066
5.24685
3.6051
4.46452
-0.0370883
-0.734912
4.72039
6.23214
4.1493
2.04095
0.850112
-19.4434
-25.8291
-27.7433
-23.4627
-18.9079
-16.1329
-13.7238
-11.8031
-9.75696
-7.37073
-5.71416
-5.59369
-8.05913
-9.55073
-4.7731
6.40278
15.7222
19.325
18.4422
16.401
13.8178
12.2666
10.2703
8.41018
6.56639
5.24327
3.60251
4.47218
-0.0126441
-0.735289
4.76717
6.23344
4.15003
2.04077
0.849945
-19.4573
-25.8575
-27.7631
-23.4541
-18.9264
-16.1571
-13.7453
-11.8222
-9.77237
-7.38433
-5.72351
-5.59907
-8.06334
-9.54747
-4.76839
6.39413
15.697
19.2936
18.417
16.3851
13.8101
12.2604
10.2644
8.40462
6.56183
5.2395
3.59974
4.48033
0.0125757
-0.740964
4.81448
6.23485
4.15073
2.04054
0.849757
-19.469
-25.8662
-27.7804
-23.4447
-18.9471
-16.1865
-13.7722
-11.8462
-9.79161
-7.40089
-5.73517
-5.60614
-8.06918
-9.54374
-4.76179
6.38526
15.669
19.2588
18.3891
16.3677
13.8017
12.2537
10.2581
8.39875
6.55706
5.23559
3.59683
4.48903
0.0383138
-0.749557
4.86106
6.23634
4.15141
2.04027
0.849548
-19.4778
-25.8618
-27.7913
-23.4361
-18.9699
-16.2216
-13.8056
-11.8762
-9.81554
-7.42083
-5.74941
-5.61521
-8.07738
-9.54022
-4.75374
6.37581
15.6379
19.2202
18.3586
16.3488
13.7927
12.2466
10.2515
8.39257
6.55213
5.23157
3.5938
4.49827
0.0642806
-0.759465
4.9061
6.23796
4.15205
2.03995
0.849319
-19.4831
-25.8485
-27.7903
-23.4291
-18.9945
-16.2632
-13.8465
-11.9134
-9.84518
-7.44485
-5.76667
-5.6268
-8.08891
-9.53778
-4.74472
6.36548
15.6034
19.178
18.3254
16.3284
13.7832
12.2392
10.2445
8.38609
6.54709
5.22746
3.5907
4.50804
0.0901708
-0.769618
4.94954
6.23966
4.15265
2.03958
0.84907
-19.4844
-25.8295
-27.7691
-23.4238
-19.021
-16.3124
-13.8963
-11.9591
-9.88139
-7.4731
-5.78661
-5.64087
-8.1048
-9.53816
-4.73612
6.35348
15.5652
19.1318
18.2896
16.3066
13.7731
12.2313
10.237
8.37932
6.54196
5.22327
3.58758
4.51829
0.115723
-0.779125
4.9915
6.24148
4.15321
2.03917
0.848802
-19.4809
-25.8085
-27.7179
-23.4195
-19.0495
-16.3703
-13.9565
-12.0144
-9.92493
-7.50584
-5.8088
-5.65731
-8.12571
-9.54285
-4.72937
6.33906
15.523
19.0818
18.2511
16.2833
13.7625
12.223
10.2292
8.37226
6.53677
5.21904
3.5845
4.52889
0.140649
-0.787275
5.03252
6.2434
4.15371
2.03871
0.848514
-19.4723
-25.7898
-27.6294
-23.4146
-19.0805
-16.438
-14.0279
-12.0798
-9.9758
-7.54224
-5.83168
-5.67495
-8.15163
-9.55328
-4.72645
6.321
15.4765
19.028
18.2102
16.2588
13.7515
12.2144
10.2209
8.36492
6.53154
5.21477
3.58153
4.53973
0.164692
-0.793382
5.07302
6.24547
4.15415
2.0382
0.848209
-19.4587
-25.778
-27.503
-23.4066
-19.1146
-16.5161
-14.1107
-12.1546
-10.0333
-7.58132
-5.85372
-5.69263
-8.18159
-9.56904
-4.72826
6.29847
15.4254
18.9704
18.1668
16.233
13.74
12.2053
10.2121
8.35732
6.52629
5.21052
3.57876
4.55061
0.187524
-0.796967
5.11364
6.24765
4.15453
2.03764
0.847885
-19.441
-25.7786
-27.3454
-23.3926
-19.1525
-16.6039
-14.203
-12.2365
-10.095
-7.62054
-5.87229
-5.7083
-8.21393
-9.58884
-4.7351
6.27075
15.3696
18.9094
18.1212
16.2059
13.7282
12.1957
10.2029
8.34945
6.52104
5.20631
3.57624
4.56136
0.208843
-0.797571
5.15473
6.25003
4.15485
2.03703
0.847546
-19.421
-25.7971
-27.1678
-23.3701
-19.1953
-16.6996
-14.301
-12.3213
-10.1575
-7.65726
-5.88531
-5.72051
-8.24631
-9.6095
-4.74526
6.23832
15.3094
18.8452
18.0735
16.1778
13.716
12.1856
10.1931
8.34131
6.51581
5.20223
3.57406
4.57174
0.228217
-0.794981
5.19685
6.25255
4.1551
2.03637
0.84719
-19.4009
-25.8399
-26.9826
-23.3375
-19.2443
-16.7994
-14.3985
-12.4031
-10.2157
-7.68756
-5.89004
-5.72738
-8.27616
-9.62816
-4.75681
6.20208
15.2453
18.7784
18.0239
16.1484
13.7033
12.1748
10.1827
8.33291
6.51063
5.19832
3.57224
4.58156
0.245245
-0.788932
5.24021
6.2553
4.15527
2.03566
0.84682
-19.3829
-25.9142
-26.8011
-23.296
-19.3009
-16.8981
-14.4879
-12.4746
-10.2645
-7.70815
-5.88503
-5.72815
-8.30071
-9.64133
-4.76672
6.16406
15.1783
18.7093
17.9727
16.1178
13.6899
12.1634
10.1716
8.32423
6.50552
5.19469
3.57086
4.59054
0.259341
-0.779402
5.28526
6.25824
4.15537
2.0349
0.846435
-19.3687
-26.0295
-26.633
-23.2506
-19.3662
-16.9894
-14.5607
-12.5286
-10.2982
-7.71546
-5.86886
-5.72187
-8.31771
-9.64719
-4.77319
6.12579
15.1096
18.6387
17.9203
16.086
13.6757
12.151
10.1599
8.3153
6.50053
5.19139
3.56994
4.59847
0.269994
-0.766243
5.3321
6.26147
4.15539
2.03409
0.846038
-19.3596
-26.1975
-26.4863
-23.2107
-19.4409
-17.0666
-14.61
-12.5594
-10.3129
-7.70785
-5.84224
-5.70899
-8.32575
-9.64418
-4.77407
6.08911
15.0401
18.5671
17.867
16.053
13.6605
12.1375
10.1474
8.30608
6.4957
5.18854
3.56957
4.60504
0.276473
-0.749558
5.38106
6.26491
4.15531
2.03322
0.845627
-19.3555
-26.4329
-26.3671
-23.1889
-19.5246
-17.1246
-14.6308
-12.5636
-10.3064
-7.68483
-5.80662
-5.69032
-8.32527
-9.63292
-4.76907
6.05456
14.9708
18.4951
17.8132
16.019
13.6438
12.1228
10.134
8.29662
6.49109
5.18621
3.56977
4.60996
0.278202
-0.729264
5.43216
6.26869
4.15516
2.0323
0.845204
-19.3553
-26.753
-26.2779
-23.1973
-19.6156
-17.1604
-14.6224
-12.5413
-10.2793
-7.64875
-5.76579
-5.66865
-8.31843
-9.61397
-4.75748
6.02285
14.902
18.4229
17.759
15.9841
13.6256
12.1064
10.1197
8.28691
6.48674
5.18454
3.57067
4.61284
0.274356
-0.705552
5.48571
6.27273
4.15491
2.03132
0.844768
-19.356
-27.1759
-26.217
-23.2439
-19.7114
-17.1744
-14.5879
-12.496
-10.2349
-7.60354
-5.72452
-5.64792
-8.30878
-9.58924
-4.7403
5.99346
14.8337
18.3507
17.7048
15.9487
13.6057
12.0884
10.1044
8.277
6.48273
5.1836
3.57234
4.61332
0.264379
-0.678389
5.54166
6.27713
4.15457
2.03029
0.844321
-19.3536
-27.7144
-26.1785
-23.3306
-19.8087
-17.1696
-14.533
-12.4338
-10.1786
-7.55525
-5.68922
-5.63322
-8.29941
-9.55941
-4.71756
5.96643
14.7657
18.278
17.6504
15.9129
13.5842
12.0686
10.0882
8.26692
6.47912
5.18354
3.57495
4.61084
0.247405
-0.648011
5.60037
6.28185
4.15412
2.02919
0.843859
-19.3444
-28.3638
-26.1536
-23.4536
-19.9041
-17.1503
-14.4652
-12.3617
-10.1167
-7.5107
-5.66555
-5.62824
-8.29211
-9.5257
-4.69057
5.94073
14.6976
18.2045
17.5956
15.877
13.5612
12.047
10.071
8.25675
6.47599
5.18443
3.57859
4.60487
0.222933
-0.614264
5.66183
6.28697
4.15357
2.02802
0.843383
-19.3251
-29.082
-26.1321
-23.6051
-19.9946
-17.1211
-14.3913
-12.2865
-10.0567
-7.47698
-5.65696
-5.63419
-8.28662
-9.48774
-4.65948
5.91571
14.6282
18.1296
17.5402
15.8411
13.5372
12.0237
10.053
8.24649
6.47335
5.18638
3.58346
4.59456
0.190216
-0.577089
5.7264
6.29242
4.15288
2.02677
0.842889
-19.2885
-29.772
-26.103
-23.7752
-20.0769
-17.086
-14.3171
-12.2141
-10.0065
-7.45828
-5.66254
-5.6492
-8.28145
-9.44594
-4.62642
5.88906
14.5565
18.0532
17.4846
15.8056
13.5126
11.999
10.0341
8.23607
6.47115
5.18939
3.58968
4.57938
0.149412
-0.536425
5.79355
6.29827
4.15207
2.02544
0.842379
-19.2148
-30.2744
-26.0542
-23.9519
-20.1473
-17.0471
-14.2462
-12.151
-9.97253
-7.45385
-5.67846
-5.66952
-8.27431
-9.4007
-4.59383
5.8588
14.4819
17.976
17.4298
15.7713
13.4878
11.9729
10.0141
8.22519
6.46926
5.19367
3.59785
4.55973
0.10077
-0.494708
5.8619
6.30433
4.15116
2.02403
0.841845
-19.1088
-30.3911
-25.974
-24.1234
-20.2016
-17.0053
-14.1819
-12.1045
-9.95506
-7.45856
-5.69901
-5.6901
-8.26417
-9.35652
-4.5677
5.82282
14.4062
17.9009
17.3778
15.7385
13.4619
11.9444
9.99213
8.21364
6.4679
5.19971
3.60892
4.53685
0.0441889
-0.455308
5.93025
6.31088
4.15019
2.02253
0.841289
-19.1742
-29.964
-25.8578
-24.2852
-20.2419
-16.9625
-14.1292
-12.0774
-9.94861
-7.46786
-5.7208
-5.70926
-8.25385
-9.31852
-4.54991
5.7848
14.3349
17.8318
17.3294
15.7054
13.4314
11.9107
9.9675
8.20218
6.46868
5.20937
3.62377
4.50089
-0.0323354
-0.405964
6.01412
6.31943
4.14867
2.0208
0.840707
8.68946
8.98367
9.82396
11.1318
12.8269
14.9562
17.6068
20.9056
25.1635
30.3093
36.6706
44.4044
53.8817
65.5557
80.297
98.0069
122.458
148.695
188.971
213.14
260.965
102.916
8.68927
8.98345
9.82367
11.1313
12.8262
14.9552
17.6053
20.9271
25.1978
30.3264
36.6634
44.3857
53.8556
65.52
80.2269
97.8744
122.223
148.233
188.098
211.559
257.108
99.988
8.68906
8.98321
9.82337
11.1309
12.8255
14.9541
17.6036
20.9537
25.227
30.3384
36.6539
44.366
53.8277
65.4849
80.1545
97.7394
121.98
147.754
187.202
209.918
253.093
101.669
8.68885
8.98297
9.82304
11.1304
12.8248
14.953
17.6019
20.9805
25.2506
30.3463
36.6436
44.3461
53.8013
65.4478
80.0817
97.5983
121.727
147.254
186.283
208.209
248.964
101.559
8.68862
8.98271
9.8227
11.1299
12.824
14.9518
17.6001
21.0036
25.2693
30.3509
36.6332
44.3261
53.7733
65.4102
80.006
97.4532
121.463
146.734
185.334
206.431
244.711
99.765
8.68838
8.98244
9.82235
11.1293
12.8232
14.9506
17.5982
21.0191
25.2834
30.3528
36.6231
44.3065
53.7473
65.3708
79.9294
97.3011
121.186
146.191
184.35
204.588
240.33
97.7167
8.68812
8.98215
9.82197
11.1288
12.8224
14.9493
17.5962
21.0243
25.2932
30.3525
36.6136
44.2872
53.7201
65.3308
79.8496
97.1438
120.893
145.626
183.326
202.68
235.826
95.8095
8.68786
8.98185
9.82157
11.1282
12.8215
14.9479
17.594
21.0194
25.2989
30.3505
36.6051
44.2685
53.695
65.2891
79.7686
96.9786
120.584
145.036
182.255
200.707
231.203
93.8807
8.68757
8.98153
9.82115
11.1276
12.8205
14.9464
17.5917
21.0071
25.3006
30.347
36.5974
44.2503
53.6688
65.2469
79.684
96.8075
120.258
144.42
181.131
198.67
226.467
91.832
8.68728
8.98119
9.82071
11.1269
12.8195
14.9449
17.5894
20.9897
25.2984
30.3423
36.5906
44.2328
53.6446
65.203
79.5978
96.628
119.912
143.777
179.948
196.569
221.621
89.6877
8.68696
8.98083
9.82024
11.1262
12.8185
14.9432
17.5869
20.9688
25.2922
30.3363
36.5845
44.216
53.6193
65.1584
79.5076
96.4419
119.546
143.105
178.702
194.402
216.67
87.4828
8.68663
8.98045
9.81974
11.1255
12.8174
14.9414
17.5842
20.9455
25.2815
30.3289
36.5789
44.1998
53.5956
65.1118
79.4152
96.247
119.161
142.401
177.386
192.17
211.619
85.2281
8.68628
8.98005
9.81922
11.1247
12.8162
14.9396
17.5814
20.9212
25.266
30.3199
36.5736
44.1842
53.5707
65.0643
79.3184
96.045
118.755
141.666
175.998
189.869
206.473
82.9279
8.68591
8.97963
9.81866
11.1238
12.8149
14.9376
17.5784
20.8972
25.2449
30.3087
36.568
44.1692
53.5472
65.0144
79.2188
95.8336
118.327
140.897
174.532
187.5
201.237
80.5907
8.68551
8.97919
9.81807
11.123
12.8136
14.9355
17.5752
20.8746
25.2178
30.2948
36.5617
44.1545
53.5222
64.9631
79.114
95.6143
117.879
140.093
172.987
185.061
195.917
78.2288
8.6851
8.97871
9.81745
11.122
12.8122
14.9333
17.5719
20.8544
25.1842
30.2774
36.554
44.14
53.4983
64.909
79.0056
95.3847
117.409
139.252
171.361
182.549
190.516
75.8553
8.68466
8.97821
9.81679
11.1211
12.8107
14.931
17.5683
20.8371
25.1443
30.2553
36.5439
44.1255
53.4726
64.8528
78.8912
95.146
116.917
138.372
169.651
179.965
185.038
73.4842
8.68419
8.97768
9.81609
11.12
12.8092
14.9285
17.5646
20.8228
25.0987
30.2277
36.5303
44.1107
53.4478
64.7932
78.772
94.8956
116.4
137.453
167.856
177.305
179.489
71.1295
8.6837
8.97712
9.81535
11.1189
12.8075
14.9259
17.5606
20.8112
25.049
30.1932
36.5116
44.0947
53.421
64.7308
78.6459
94.6347
115.86
136.493
165.977
174.568
173.872
68.8039
8.68317
8.97653
9.81457
11.1178
12.8057
14.9231
17.5563
20.8016
24.9974
30.151
36.4859
44.0768
53.3947
64.6644
78.5138
94.3605
115.294
135.49
164.011
171.754
168.191
66.5177
8.68262
8.9759
9.81374
11.1165
12.8039
14.9201
17.5518
20.7933
24.9464
30.1006
36.451
44.0553
53.3659
64.5945
78.3733
94.0741
114.701
134.443
161.959
168.86
162.451
64.2779
8.68203
8.97523
9.81285
11.1152
12.8019
14.917
17.547
20.7855
24.8988
30.0426
36.4042
44.0282
53.3365
64.5199
78.2256
93.7725
114.079
133.349
159.819
165.886
156.657
62.0874
8.6814
8.97452
9.81192
11.1138
12.7998
14.9137
17.5419
20.7777
24.8565
29.9786
36.3433
43.9923
53.3029
64.4411
78.0681
93.4566
113.427
132.208
157.592
162.829
150.814
59.9442
8.68074
8.97376
9.81092
11.1124
12.7976
14.9102
17.5364
20.7696
24.8206
29.9112
36.2668
43.9434
53.2656
64.3568
77.9018
93.1237
112.743
131.017
155.277
159.688
144.931
57.8413
8.68004
8.97296
9.80986
11.1108
12.7952
14.9064
17.5306
20.7611
24.7907
29.8436
36.1749
43.876
53.219
64.2671
77.7243
92.7744
112.026
129.775
152.873
156.461
139.015
55.7666
8.67929
8.97211
9.80874
11.1091
12.7927
14.9024
17.5245
20.752
24.7658
29.7791
36.07
43.7846
53.1598
64.1696
77.5364
92.4059
111.273
128.478
150.38
153.147
133.075
53.7037
8.67849
8.97121
9.80755
11.1074
12.79
14.8982
17.518
20.7424
24.7441
29.7198
35.957
43.6646
53.0777
64.0624
77.3354
92.0189
110.484
127.127
147.797
149.744
127.124
51.6327
8.67765
8.97025
9.80627
11.1055
12.7872
14.8937
17.511
20.732
24.7242
29.6667
35.8419
43.5151
52.9642
63.9399
77.1211
91.6106
109.657
125.717
145.125
146.25
121.171
49.5311
8.67675
8.96923
9.80492
11.1035
12.7841
14.889
17.5036
20.7209
24.7048
29.6197
35.7307
43.3405
52.8053
63.7943
76.8889
91.1814
108.792
124.249
142.363
142.664
115.232
47.3754
8.67579
8.96814
9.80348
11.1013
12.7809
14.8839
17.4958
20.7091
24.6852
29.5774
35.6277
43.1503
52.5941
63.6118
76.6348
90.7275
107.886
122.719
139.512
138.985
109.318
45.1423
8.67478
8.96699
9.80195
11.0991
12.7775
14.8786
17.4875
20.6965
24.6648
29.538
35.5347
42.9568
52.3286
63.3761
76.3475
90.2474
106.94
121.126
136.572
135.211
103.444
42.8101
8.67369
8.96576
9.80032
11.0967
12.7739
14.8729
17.4786
20.6831
24.6434
29.4998
35.4514
42.7713
52.0208
63.0701
76.0125
89.7335
105.952
119.47
133.545
131.343
97.6255
40.3599
8.67254
8.96445
9.79858
11.0941
12.77
14.8668
17.4692
20.6688
24.6206
29.4614
35.3753
42.6009
51.6907
62.6858
75.6074
89.1776
104.918
117.748
130.431
127.38
91.8764
37.7768
8.67131
8.96305
9.79673
11.0914
12.7659
14.8604
17.4592
20.6536
24.5963
29.4217
35.3033
42.4474
51.3623
62.2296
75.1105
88.5625
103.834
115.959
127.233
123.324
86.2112
35.0503
8.67
8.96156
9.79475
11.0885
12.7615
14.8535
17.4485
20.6373
24.5704
29.3802
35.2324
42.3081
51.0535
61.7258
74.5064
87.8686
102.692
114.102
123.953
119.179
80.6439
32.1758
8.6686
8.95998
9.79264
11.0854
12.7568
14.8462
17.4372
20.6201
24.5429
29.3362
35.1602
42.1778
50.7728
61.2076
73.8003
87.0721
101.479
112.174
120.594
114.946
75.188
29.1545
8.66711
8.95829
9.7904
11.0821
12.7518
14.8384
17.4251
20.6016
24.5137
29.2896
35.085
42.0508
50.5182
60.7058
73.0192
86.1583
100.179
110.175
117.16
110.633
69.8565
25.9936
8.66552
8.95648
9.788
11.0785
12.7465
14.8301
17.4122
20.582
24.4825
29.24
35.0059
41.9223
50.2814
60.2376
72.2077
85.1277
98.7748
108.101
113.66
106.246
64.6618
22.7063
8.66382
8.95456
9.78544
11.0748
12.7408
14.8212
17.3986
20.5611
24.4493
29.1873
34.9221
41.7888
50.0518
59.8044
71.4083
84.0047
97.2566
105.952
110.104
101.797
59.6166
19.3113
8.66201
8.95251
9.7827
11.0707
12.7347
14.8118
17.384
20.5388
24.4139
29.1313
34.8333
41.6483
49.8203
59.3952
70.6476
82.8298
95.6263
103.73
106.511
97.2989
54.7339
15.8323
8.66007
8.95031
9.77978
11.0664
12.7283
14.8018
17.3684
20.515
24.3763
29.0717
34.7389
41.4998
49.5801
58.9944
69.9282
81.6461
93.9033
101.441
102.904
92.7727
50.0284
12.2975
8.658
8.94797
9.77666
11.0619
12.7214
14.7911
17.3519
20.4896
24.3362
29.0082
34.6386
41.3423
49.3276
58.5874
69.2347
80.4811
92.1185
99.095
99.3152
88.2451
45.5166
8.73899
8.65579
8.94547
9.77333
11.057
12.714
14.7797
17.3342
20.4626
24.2935
28.9408
34.532
41.1753
49.061
58.1641
68.544
79.3402
90.3034
96.704
95.7776
83.7509
41.218
5.19223
8.65343
8.94279
9.76976
11.0517
12.7061
14.7675
17.3154
20.4337
24.248
28.869
34.4188
40.9981
48.779
57.7188
67.8352
78.209
88.4787
94.2752
92.3204
79.3316
37.154
1.69595
8.6509
8.93994
9.76595
11.0461
12.6977
14.7545
17.2953
20.4029
24.1995
28.7925
34.2984
40.8099
48.4808
57.2494
67.0942
77.0638
86.6498
91.8065
88.9563
75.0308
33.3471
-1.70871
8.6482
8.93688
9.76187
11.0402
12.6887
14.7406
17.2738
20.37
24.1478
28.7112
34.1705
40.6101
48.1652
56.7545
66.3145
75.8816
84.8067
89.2882
85.6702
70.8854
29.8176
-4.97924
8.64531
8.93361
9.75751
11.0338
12.6791
14.7258
17.2509
20.3349
24.0927
28.6246
34.0345
40.3981
47.8312
56.2329
65.4944
74.6472
82.9298
86.7123
82.4184
66.9131
26.5794
-8.07368
8.64222
8.93011
9.75284
11.0269
12.6688
14.7099
17.2265
20.2975
24.034
28.5324
33.89
40.1732
47.4778
55.6831
64.634
73.3545
80.9974
84.0759
79.1447
63.1002
23.6328
-10.9535
8.6389
8.92637
9.74784
11.0196
12.6578
14.693
17.2005
20.2575
23.9714
28.4343
33.7365
39.9345
47.104
55.1037
63.7328
72.0036
78.9954
81.3762
75.8073
59.3992
20.9572
-13.5873
8.63536
8.92236