/*--------------------------------*- C++ -*----------------------------------*\
| =========                 |                                                 |
| \\      /  F ield         | OpenFOAM: The Open Source CFD Toolbox           |
|  \\    /   O peration     | Version:  v1912                                 |
|   \\  /    A nd           | Website:  www.openfoam.com                      |
|    \\/     M anipulation  |                                                 |
\*---------------------------------------------------------------------------*/
FoamFile
{
    version     2.0;
    format      ascii;
    class       volVectorField;
    location    "320";
    object      U;
}
// * * * * * * * * * * * * * * * * * * * * * * * * * * * * * * * * * * * * * //

dimensions      [0 1 -1 0 0 0 0];


internalField   nonuniform List<vector> 
12441
(
(29.9989 1.68082e-05 0)
(29.9856 5.08992e-05 0)
(29.957 8.78148e-05 0)
(29.9134 0.000135398 0)
(29.8562 0.00019804 0)
(29.7831 0.000281828 0)
(29.6923 0.000393767 0)
(29.5784 0.0005579 0)
(29.4363 0.000777074 0)
(29.2589 0.00109349 0)
(29.0374 0.001529 0)
(28.7672 0.00214238 0)
(28.4177 0.00291753 0)
(27.9676 0.00452426 0)
(27.4503 0.00626 0)
(26.621 0.0112582 0)
(25.5918 0.0149044 0)
(23.9513 0.0310324 0)
(21.6368 0.0523358 0)
(17.9797 0.0909805 0)
(12.1998 0.122626 0)
(5.86092 0.198079 0)
(29.9989 4.99785e-05 0)
(29.9855 0.000152086 0)
(29.9569 0.000261708 0)
(29.9134 0.00040377 0)
(29.8562 0.000590774 0)
(29.7831 0.000840945 0)
(29.6924 0.00117725 0)
(29.5785 0.00166854 0)
(29.4364 0.00232405 0)
(29.259 0.00327301 0)
(29.037 0.00458354 0)
(28.768 0.00642033 0)
(28.4159 0.00873268 0)
(27.964 0.0135179 0)
(27.4501 0.0188593 0)
(26.6219 0.0334879 0)
(25.6001 0.0473802 0)
(23.9528 0.08898 0)
(21.6366 0.136645 0)
(17.9775 0.263249 0)
(12.2007 0.360296 0)
(5.86447 0.591527 0)
(29.9989 8.30446e-05 0)
(29.9855 0.000253425 0)
(29.9569 0.000434879 0)
(29.9133 0.000670847 0)
(29.8562 0.000981865 0)
(29.7831 0.00139931 0)
(29.6924 0.0019586 0)
(29.5785 0.00277729 0)
(29.4364 0.00386917 0)
(29.2591 0.00544867 0)
(29.037 0.00763806 0)
(28.7681 0.0106832 0)
(28.4161 0.0145813 0)
(27.9647 0.0224839 0)
(27.4551 0.0314914 0)
(26.6208 0.054813 0)
(25.6025 0.0805542 0)
(23.9571 0.145215 0)
(21.6398 0.218474 0)
(17.9769 0.433171 0)
(12.2063 0.594486 0)
(5.87239 0.982995 0)
(29.9989 0.000116537 0)
(29.9855 0.000355438 0)
(29.957 0.000608834 0)
(29.9134 0.000939174 0)
(29.8563 0.00137468 0)
(29.7832 0.00195966 0)
(29.6924 0.00274273 0)
(29.5785 0.00388955 0)
(29.4364 0.00541828 0)
(29.2591 0.00763048 0)
(29.0371 0.0107004 0)
(28.768 0.014958 0)
(28.4163 0.0204301 0)
(27.9646 0.0314865 0)
(27.4491 0.0441289 0)
(26.6232 0.0762158 0)
(25.6053 0.112992 0)
(23.9623 0.204445 0)
(21.6483 0.325042 0)
(17.9813 0.611111 0)
(12.2184 0.832649 0)
(5.88507 1.37613 0)
(29.9989 0.000150086 0)
(29.9855 0.000457299 0)
(29.957 0.000782587 0)
(29.9134 0.0012073 0)
(29.8562 0.00176716 0)
(29.7832 0.00251947 0)
(29.6924 0.00352619 0)
(29.5785 0.00500093 0)
(29.4365 0.00696627 0)
(29.2592 0.00981097 0)
(29.0372 0.0137604 0)
(28.7683 0.019229 0)
(28.417 0.0262707 0)
(27.966 0.0404879 0)
(27.4563 0.0567845 0)
(26.6225 0.0973556 0)
(25.6072 0.14492 0)
(23.9662 0.264424 0)
(21.6592 0.414407 0)
(17.9915 0.785234 0)
(12.2383 1.07059 0)
(5.90283 1.77054 0)
(29.9989 0.000183627 0)
(29.9855 0.000559072 0)
(29.957 0.000956311 0)
(29.9134 0.00147544 0)
(29.8563 0.0021596 0)
(29.7832 0.0030793 0)
(29.6925 0.00430975 0)
(29.5786 0.00611242 0)
(29.4365 0.00851447 0)
(29.2592 0.0119917 0)
(29.0373 0.0168208 0)
(28.7681 0.0235006 0)
(28.4168 0.0321175 0)
(27.9656 0.0494808 0)
(27.4481 0.0694313 0)
(26.6246 0.118436 0)
(25.6096 0.176594 0)
(23.971 0.323856 0)
(21.6719 0.502207 0)
(18.0084 0.95805 0)
(12.2675 1.30821 0)
(5.92603 2.16606 0)
(29.9989 0.00021716 0)
(29.9855 0.000660785 0)
(29.957 0.00113002 0)
(29.9134 0.0017436 0)
(29.8563 0.00255199 0)
(29.7832 0.0036391 0)
(29.6925 0.0050933 0)
(29.5786 0.00722389 0)
(29.4366 0.0100626 0)
(29.2594 0.0141722 0)
(29.0374 0.0198811 0)
(28.7686 0.0277712 0)
(28.4178 0.0379594 0)
(27.9679 0.0584614 0)
(27.4577 0.0820852 0)
(26.6251 0.139345 0)
(25.6115 0.20757 0)
(23.9746 0.380785 0)
(21.6886 0.592153 0)
(18.0346 1.13097 0)
(12.3083 1.54592 0)
(5.95515 2.56298 0)
(29.9989 0.000250688 0)
(29.9855 0.00076245 0)
(29.957 0.0013037 0)
(29.9134 0.00201174 0)
(29.8563 0.00294429 0)
(29.7833 0.00419884 0)
(29.6925 0.00587681 0)
(29.5787 0.00833527 0)
(29.4366 0.0116106 0)
(29.2594 0.0163525 0)
(29.0375 0.0229415 0)
(28.7682 0.0320386 0)
(28.4174 0.0438088 0)
(27.9672 0.06742 0)
(27.4481 0.0945276 0)
(26.6277 0.159975 0)
(25.6154 0.240111 0)
(23.9809 0.439715 0)
(21.7172 0.683222 0)
(18.0762 1.30339 0)
(12.3638 1.78392 0)
(5.99078 2.96177 0)
(29.9989 0.000284211 0)
(29.9855 0.000864062 0)
(29.957 0.00147736 0)
(29.9134 0.00227987 0)
(29.8563 0.00333655 0)
(29.7833 0.00475855 0)
(29.6925 0.0066603 0)
(29.5787 0.00944662 0)
(29.4367 0.0131586 0)
(29.2595 0.0185326 0)
(29.0378 0.0260014 0)
(28.7691 0.0363085 0)
(28.4192 0.0496437 0)
(27.9704 0.0765011 0)
(27.4537 0.107106 0)
(26.6306 0.180979 0)
(25.6212 0.271108 0)
(23.9902 0.4981 0)
(21.7668 0.773992 0)
(18.1399 1.47496 0)
(12.437 2.02245 0)
(6.03353 3.36293 0)
(29.9989 0.000317728 0)
(29.9855 0.000965627 0)
(29.957 0.001651 0)
(29.9134 0.00254797 0)
(29.8564 0.00372872 0)
(29.7833 0.0053182 0)
(29.6926 0.00744374 0)
(29.5788 0.0105579 0)
(29.4368 0.0147063 0)
(29.2596 0.0207123 0)
(29.0378 0.0290611 0)
(28.7682 0.0405694 0)
(28.4182 0.0554971 0)
(27.9705 0.085384 0)
(27.4404 0.12032 0)
(26.6313 0.202276 0)
(25.6312 0.302594 0)
(24.0107 0.554619 0)
(21.8389 0.864426 0)
(18.228 1.64591 0)
(12.5302 2.26189 0)
(6.08406 3.76704 0)
(29.9989 0.000351239 0)
(29.9855 0.00106714 0)
(29.957 0.00182463 0)
(29.9134 0.00281608 0)
(29.8563 0.00412084 0)
(29.7833 0.00587782 0)
(29.6926 0.00822716 0)
(29.5788 0.0116691 0)
(29.4368 0.016254 0)
(29.2597 0.0228918 0)
(29.0382 0.0321223 0)
(28.7694 0.0448264 0)
(28.422 0.0613912 0)
(27.9761 0.0943253 0)
(27.4377 0.132882 0)
(26.6311 0.222454 0)
(25.644 0.335074 0)
(24.0431 0.610422 0)
(21.9209 0.954609 0)
(18.3346 1.81614 0)
(12.6438 2.50251 0)
(6.14295 4.17469 0)
(29.9989 0.000384742 0)
(29.9855 0.00116861 0)
(29.957 0.00199827 0)
(29.9134 0.00308417 0)
(29.8564 0.00451288 0)
(29.7834 0.00643737 0)
(29.6927 0.00901052 0)
(29.5789 0.0127801 0)
(29.4369 0.0178015 0)
(29.2598 0.0250694 0)
(29.0382 0.0351842 0)
(28.7682 0.0490626 0)
(28.4218 0.0672277 0)
(27.9788 0.103475 0)
(27.4292 0.146344 0)
(26.6329 0.242959 0)
(25.6573 0.367408 0)
(24.0796 0.6646 0)
(21.9979 1.04383 0)
(18.4494 1.98514 0)
(12.776 2.74443 0)
(6.21068 4.58652 0)
(29.9989 0.000418237 0)
(29.9856 0.00127003 0)
(29.957 0.0021719 0)
(29.9134 0.00335225 0)
(29.8564 0.00490488 0)
(29.7834 0.00699689 0)
(29.6927 0.00979386 0)
(29.5789 0.0138911 0)
(29.437 0.0193488 0)
(29.26 0.0272479 0)
(29.0386 0.0382463 0)
(28.7689 0.0533524 0)
(28.427 0.0730401 0)
(27.9816 0.112704 0)
(27.4252 0.16011 0)
(26.635 0.26308 0)
(25.6678 0.399261 0)
(24.111 0.716936 0)
(22.0623 1.13172 0)
(18.5629 2.15235 0)
(12.9234 2.9875 0)
(6.28749 5.00308 0)
(29.9989 0.000451722 0)
(29.9855 0.0013714 0)
(29.957 0.00234555 0)
(29.9135 0.00362031 0)
(29.8564 0.00529681 0)
(29.7834 0.00755633 0)
(29.6928 0.0105771 0)
(29.579 0.0150019 0)
(29.4371 0.0208957 0)
(29.2601 0.0294267 0)
(29.0386 0.0413253 0)
(28.768 0.0576468 0)
(28.4266 0.0792883 0)
(27.9802 0.121904 0)
(27.4221 0.173487 0)
(26.6373 0.282586 0)
(25.675 0.430602 0)
(24.1349 0.767807 0)
(22.1141 1.21832 0)
(18.6693 2.31741 0)
(13.0819 3.23143 0)
(6.37334 5.42488 0)
(29.9989 0.000485197 0)
(29.9856 0.00147272 0)
(29.957 0.00251921 0)
(29.9135 0.00388838 0)
(29.8564 0.0056887 0)
(29.7834 0.00811574 0)
(29.6927 0.0113603 0)
(29.579 0.0161127 0)
(29.4371 0.0224426 0)
(29.2603 0.031604 0)
(29.0388 0.0444248 0)
(28.7689 0.0618475 0)
(28.4271 0.0855075 0)
(27.9782 0.130884 0)
(27.4208 0.186725 0)
(26.6391 0.301879 0)
(25.6795 0.461687 0)
(24.1519 0.817691 0)
(22.1557 1.30372 0)
(18.7662 2.48007 0)
(13.2479 3.47582 0)
(6.46799 5.85233 0)
(29.9989 0.00051866 0)
(29.9856 0.00157399 0)
(29.957 0.0026929 0)
(29.9135 0.00415642 0)
(29.8565 0.00608053 0)
(29.7835 0.00867507 0)
(29.6928 0.0121434 0)
(29.5791 0.0172234 0)
(29.4372 0.0239874 0)
(29.2606 0.0337842 0)
(29.039 0.0475253 0)
(28.7691 0.066188 0)
(28.4248 0.0917695 0)
(27.9763 0.139674 0)
(27.4202 0.199866 0)
(26.6406 0.321109 0)
(25.6821 0.492646 0)
(24.164 0.866923 0)
(22.19 1.38804 0)
(18.8533 2.64021 0)
(13.4183 3.72029 0)
(6.57102 6.28576 0)
(29.9989 0.000552111 0)
(29.9856 0.00167522 0)
(29.9571 0.00286661 0)
(29.9135 0.00442446 0)
(29.8564 0.00647233 0)
(29.7835 0.00923437 0)
(29.6928 0.0129265 0)
(29.5791 0.018334 0)
(29.4373 0.0255321 0)
(29.2609 0.0359587 0)
(29.0397 0.050685 0)
(28.7687 0.0705562 0)
(28.4229 0.0979391 0)
(27.975 0.148446 0)
(27.4199 0.213 0)
(26.6417 0.340333 0)
(25.6834 0.52353 0)
(24.1727 0.91569 0)
(22.2193 1.47135 0)
(18.9317 2.79772 0)
(13.5909 3.96445 0)
(6.68192 6.72543 0)
(29.9989 0.000585551 0)
(29.9856 0.0017764 0)
(29.9571 0.00304035 0)
(29.9135 0.00469247 0)
(29.8565 0.00686407 0)
(29.7835 0.00979357 0)
(29.6929 0.0137094 0)
(29.5792 0.0194441 0)
(29.4374 0.0270762 0)
(29.261 0.0381262 0)
(29.0402 0.0538617 0)
(28.7672 0.0749596 0)
(28.4211 0.104081 0)
(27.9741 0.157182 0)
(27.4197 0.226137 0)
(26.6426 0.359558 0)
(25.6838 0.554358 0)
(24.1791 0.964096 0)
(22.2455 1.55371 0)
(19.0028 2.95253 0)
(13.7644 4.20796 0)
(6.80018 7.17157 0)
(29.9989 0.000618976 0)
(29.9856 0.00187754 0)
(29.9571 0.00321412 0)
(29.9135 0.00496049 0)
(29.8564 0.00725577 0)
(29.7835 0.0103527 0)
(29.6929 0.0144923 0)
(29.5792 0.0205542 0)
(29.4375 0.0286191 0)
(29.2613 0.0403033 0)
(29.0408 0.0570242 0)
(28.7659 0.0792412 0)
(28.4199 0.110202 0)
(27.9736 0.165934 0)
(27.4197 0.239277 0)
(26.6434 0.37879 0)
(25.6838 0.585144 0)
(24.1841 1.0122 0)
(22.27 1.63518 0)
(19.068 3.10462 0)
(13.938 4.45053 0)
(6.92532 7.62434 0)
(29.9989 0.000652389 0)
(29.9856 0.00197862 0)
(29.9571 0.00338792 0)
(29.9135 0.00522848 0)
(29.8565 0.00764743 0)
(29.7836 0.0109118 0)
(29.693 0.015275 0)
(29.5793 0.021664 0)
(29.4376 0.0301629 0)
(29.2614 0.0424881 0)
(29.0408 0.06024 0)
(28.7649 0.0834423 0)
(28.4191 0.116341 0)
(27.9733 0.174683 0)
(27.4198 0.252416 0)
(26.6443 0.398029 0)
(25.6837 0.615898 0)
(24.1885 1.06002 0)
(22.2937 1.71578 0)
(19.1289 3.25395 0)
(14.1118 4.69189 0)
(7.05692 8.08391 0)
(29.9989 0.000685788 0)
(29.9856 0.00207966 0)
(29.9571 0.00356176 0)
(29.9135 0.00549647 0)
(29.8564 0.00803905 0)
(29.7836 0.0114708 0)
(29.6929 0.0160578 0)
(29.5793 0.0227733 0)
(29.4377 0.0317067 0)
(29.2617 0.0446895 0)
(29.0405 0.0634536 0)
(28.7643 0.0876377 0)
(28.4186 0.122479 0)
(27.9731 0.183442 0)
(27.4199 0.265551 0)
(26.6451 0.417278 0)
(25.6836 0.646629 0)
(24.1929 1.10757 0)
(22.3177 1.79555 0)
(19.1868 3.40054 0)
(14.2861 4.93183 0)
(7.19466 8.55045 0)
(29.9989 0.000719172 0)
(29.9856 0.00218066 0)
(29.9571 0.00373563 0)
(29.9135 0.00576443 0)
(29.8566 0.00843062 0)
(29.7837 0.0120297 0)
(29.6931 0.0168403 0)
(29.5795 0.023883 0)
(29.4378 0.0332471 0)
(29.2618 0.0469492 0)
(29.0397 0.0666168 0)
(28.7639 0.09185 0)
(28.4183 0.128636 0)
(27.9732 0.192197 0)
(27.4202 0.278681 0)
(26.6461 0.436535 0)
(25.6839 0.677345 0)
(24.1976 1.15481 0)
(22.3422 1.87448 0)
(19.2429 3.54437 0)
(14.4614 5.17016 0)
(7.3383 9.02411 0)
(29.9989 0.000752542 0)
(29.9856 0.0022816 0)
(29.9571 0.00390954 0)
(29.9135 0.00603239 0)
(29.8565 0.00882215 0)
(29.7836 0.0125886 0)
(29.693 0.0176228 0)
(29.5795 0.0249924 0)
(29.4378 0.0347869 0)
(29.2622 0.0492487 0)
(29.0392 0.0697501 0)
(28.7637 0.0960953 0)
(28.4181 0.134794 0)
(27.9733 0.200953 0)
(27.4205 0.291805 0)
(26.6473 0.4558 0)
(25.6848 0.708046 0)
(24.203 1.20172 0)
(22.3678 1.95262 0)
(19.2981 3.68544 0)
(14.6387 5.40672 0)
(7.4877 9.50507 0)
(29.9989 0.000785899 0)
(29.9856 0.0023825 0)
(29.9571 0.00408348 0)
(29.9136 0.00630033 0)
(29.8566 0.00921364 0)
(29.7837 0.0131473 0)
(29.6932 0.0184052 0)
(29.5796 0.0261018 0)
(29.438 0.0363242 0)
(29.2622 0.0515728 0)
(29.0388 0.0727879 0)
(28.7636 0.100366 0)
(28.418 0.140961 0)
(27.9736 0.209704 0)
(27.4211 0.304922 0)
(26.6489 0.475068 0)
(25.6865 0.73872 0)
(24.2093 1.24824 0)
(22.3945 2.02996 0)
(19.3534 3.82374 0)
(14.8189 5.64139 0)
(7.64284 9.99351 0)
(29.9989 0.000819239 0)
(29.9856 0.00248336 0)
(29.9571 0.00425746 0)
(29.9135 0.00656826 0)
(29.8565 0.00960508 0)
(29.7837 0.013706 0)
(29.6931 0.0191873 0)
(29.5796 0.0272111 0)
(29.4381 0.0378591 0)
(29.2624 0.0538761 0)
(29.0387 0.0757556 0)
(28.7636 0.104653 0)
(28.418 0.147126 0)
(27.9739 0.218452 0)
(27.4218 0.31803 0)
(26.6508 0.49433 0)
(25.6892 0.76934 0)
(24.2166 1.29437 0)
(22.4224 2.10653 0)
(19.4094 3.95922 0)
(15.0033 5.87405 0)
(7.80376 10.4897 0)
(29.9989 0.000852566 0)
(29.9856 0.00258416 0)
(29.9571 0.00443148 0)
(29.9136 0.00683615 0)
(29.8566 0.0099965 0)
(29.7838 0.0142646 0)
(29.6933 0.0199696 0)
(29.5797 0.0283187 0)
(29.4384 0.0394091 0)
(29.2619 0.0561577 0)
(29.0388 0.0786925 0)
(28.7637 0.10895 0)
(28.4181 0.153293 0)
(27.9744 0.227194 0)
(27.4227 0.331127 0)
(26.6531 0.513572 0)
(25.6931 0.799881 0)
(24.225 1.34013 0)
(22.4514 2.18232 0)
(19.4666 4.09184 0)
(15.1931 6.10461 0)
(7.97059 10.9937 0)
(29.9989 0.000885877 0)
(29.9857 0.00268493 0)
(29.9571 0.00460553 0)
(29.9135 0.00710404 0)
(29.8565 0.0103879 0)
(29.7837 0.014823 0)
(29.6932 0.0207519 0)
(29.5797 0.0294273 0)
(29.4387 0.0409674 0)
(29.2615 0.0585336 0)
(29.0389 0.0816364 0)
(28.7638 0.113252 0)
(28.4183 0.159456 0)
(27.975 0.235931 0)
(27.4238 0.344207 0)
(26.6559 0.53278 0)
(25.698 0.830324 0)
(24.2345 1.38551 0)
(22.4815 2.25734 0)
(19.5254 4.22149 0)
(15.3895 6.33296 0)
(8.14357 11.506 0)
(29.9988 0.000919174 0)
(29.9856 0.00278564 0)
(29.9571 0.00477962 0)
(29.9136 0.00737189 0)
(29.8567 0.0107792 0)
(29.7839 0.0153813 0)
(29.6934 0.0215339 0)
(29.5798 0.0305349 0)
(29.4391 0.0425357 0)
(29.2606 0.0608664 0)
(29.0391 0.0846055 0)
(28.764 0.117558 0)
(28.4185 0.165617 0)
(27.9756 0.244661 0)
(27.4252 0.357263 0)
(26.6592 0.551939 0)
(25.7039 0.860665 0)
(24.2452 1.43053 0)
(22.5126 2.33157 0)
(19.586 4.34806 0)
(15.5938 6.55905 0)
(8.32295 12.0268 0)
(29.9988 0.000952456 0)
(29.9857 0.00288632 0)
(29.9571 0.00495375 0)
(29.9136 0.00763973 0)
(29.8565 0.0111705 0)
(29.7838 0.0159395 0)
(29.6933 0.0223165 0)
(29.5797 0.0316382 0)
(29.4394 0.0441575 0)
(29.26 0.063057 0)
(29.0394 0.0876022 0)
(28.7641 0.121865 0)
(28.4188 0.171773 0)
(27.9764 0.25338 0)
(27.4268 0.370292 0)
(26.663 0.571038 0)
(25.7109 0.890901 0)
(24.2572 1.47518 0)
(22.5446 2.405 0)
(19.6485 4.47141 0)
(15.8068 6.78277 0)
(8.50908 12.5565 0)
(29.9988 0.000985724 0)
(29.9857 0.00298694 0)
(29.9571 0.00512791 0)
(29.9136 0.00790753 0)
(29.8567 0.0115618 0)
(29.7839 0.0164975 0)
(29.6935 0.0230989 0)
(29.5799 0.0327411 0)
(29.4397 0.0458003 0)
(29.2595 0.065222 0)
(29.0397 0.0906202 0)
(28.7644 0.126173 0)
(28.4192 0.177925 0)
(27.9773 0.262088 0)
(27.4286 0.383287 0)
(26.6672 0.59007 0)
(25.7187 0.921028 0)
(24.2705 1.51948 0)
(22.5775 2.47763 0)
(19.7127 4.59139 0)
(16.0294 7.00404 0)
(8.70229 13.0953 0)
(29.9988 0.00101898 0)
(29.9857 0.00308753 0)
(29.9571 0.0053021 0)
(29.9136 0.00817531 0)
(29.8566 0.011953 0)
(29.7839 0.0170554 0)
(29.6934 0.0238811 0)
(29.5799 0.033844 0)
(29.4398 0.0474512 0)
(29.2594 0.0673771 0)
(29.04 0.093651 0)
(28.7646 0.13048 0)
(28.4196 0.184072 0)
(27.9783 0.270781 0)
(27.4308 0.396245 0)
(26.6719 0.609029 0)
(25.7274 0.951038 0)
(24.2851 1.56342 0)
(22.6114 2.54945 0)
(19.7786 4.70781 0)
(16.2619 7.22276 0)
(8.90295 13.6437 0)
(29.9988 0.00105222 0)
(29.9857 0.00318806 0)
(29.9571 0.00547633 0)
(29.9136 0.00844307 0)
(29.8568 0.0123442 0)
(29.784 0.0176131 0)
(29.6936 0.0246633 0)
(29.5801 0.0349462 0)
(29.44 0.04911 0)
(29.2596 0.0695108 0)
(29.0403 0.0966899 0)
(28.7649 0.134787 0)
(28.4201 0.190212 0)
(27.9794 0.279459 0)
(27.4331 0.409163 0)
(26.677 0.627909 0)
(25.7369 0.980918 0)
(24.3011 1.607 0)
(22.6462 2.62046 0)
(19.846 4.8205 0)
(16.5046 7.43884 0)
(9.11141 14.2021 0)
(29.9988 0.00108544 0)
(29.9857 0.00328856 0)
(29.9571 0.00565058 0)
(29.9136 0.0087108 0)
(29.8566 0.0127352 0)
(29.7839 0.0181708 0)
(29.6935 0.0254451 0)
(29.5801 0.0360487 0)
(29.4399 0.0507728 0)
(29.26 0.0716296 0)
(29.0407 0.0997344 0)
(28.7652 0.139093 0)
(28.4207 0.196346 0)
(27.9806 0.288119 0)
(27.4356 0.422039 0)
(26.6824 0.646706 0)
(25.7473 1.01066 0)
(24.3185 1.65021 0)
(22.682 2.69066 0)
(19.9146 4.92929 0)
(16.7573 7.65214 0)
(9.328 14.7709 0)
(29.9988 0.00111865 0)
(29.9857 0.00338902 0)
(29.9571 0.00582486 0)
(29.9137 0.00897849 0)
(29.8568 0.0131263 0)
(29.7841 0.0187283 0)
(29.6937 0.0262262 0)
(29.5804 0.0371517 0)
(29.4399 0.0524372 0)
(29.2605 0.0737357 0)
(29.0411 0.102784 0)
(28.7655 0.143397 0)
(28.4213 0.202473 0)
(27.982 0.29676 0)
(27.4383 0.434871 0)
(26.6881 0.665412 0)
(25.7583 1.04024 0)
(24.3373 1.69306 0)
(22.719 2.76005 0)
(19.9846 5.03402 0)
(17.0198 7.86253 0)
(9.55301 15.3504 0)
(29.9988 0.00115185 0)
(29.9857 0.00348944 0)
(29.9571 0.00599916 0)
(29.9136 0.00924617 0)
(29.8566 0.0135172 0)
(29.784 0.019286 0)
(29.6936 0.027007 0)
(29.5805 0.0382514 0)
(29.4396 0.0540999 0)
(29.2612 0.0758325 0)
(29.0415 0.105837 0)
(28.7659 0.1477 0)
(28.4219 0.208591 0)
(27.9834 0.305382 0)
(27.4412 0.447658 0)
(26.6942 0.684023 0)
(25.7702 1.06965 0)
(24.3577 1.73554 0)
(22.7572 2.82863 0)
(20.0559 5.13453 0)
(17.2918 8.06989 0)
(9.7867 15.9411 0)
(29.9988 0.00118504 0)
(29.9857 0.00358982 0)
(29.9571 0.00617348 0)
(29.9137 0.00951378 0)
(29.8568 0.0139082 0)
(29.7842 0.019843 0)
(29.6938 0.0277899 0)
(29.5808 0.0393486 0)
(29.4395 0.0556941 0)
(29.2618 0.0779212 0)
(29.042 0.108893 0)
(28.7663 0.152002 0)
(28.4226 0.214701 0)
(27.9848 0.313984 0)
(27.4443 0.460396 0)
(26.7006 0.70253 0)
(25.7827 1.09887 0)
(24.3795 1.77764 0)
(22.7968 2.8964 0)
(20.1287 5.23067 0)
(17.573 8.27407 0)
(10.0293 16.5435 0)
(29.9988 0.00121822 0)
(29.9857 0.00369016 0)
(29.9572 0.00634781 0)
(29.9136 0.00978141 0)
(29.8567 0.0142988 0)
(29.7841 0.0204013 0)
(29.6937 0.0285655 0)
(29.5809 0.0404908 0)
(29.4391 0.0570971 0)
(29.2625 0.0800126 0)
(29.0424 0.111952 0)
(28.7667 0.156301 0)
(28.4234 0.220802 0)
(27.9864 0.322563 0)
(27.4475 0.473085 0)
(26.7072 0.720928 0)
(25.7959 1.12789 0)
(24.4027 1.81935 0)
(22.838 2.96337 0)
(20.2032 5.32231 0)
(17.8636 8.47491 0)
(10.2811 17.1578 0)
(29.9988 0.00125138 0)
(29.9857 0.00379046 0)
(29.9572 0.00652216 0)
(29.9137 0.010049 0)
(29.8569 0.0146895 0)
(29.7843 0.0209581 0)
(29.6939 0.0293481 0)
(29.5812 0.041603 0)
(29.4391 0.0589013 0)
(29.2632 0.0821359 0)
(29.0429 0.115014 0)
(28.7671 0.160598 0)
(28.4242 0.226894 0)
(27.9881 0.33112 0)
(27.4509 0.485721 0)
(26.7142 0.739212 0)
(25.8099 1.1567 0)
(24.4274 1.86066 0)
(22.881 3.02953 0)
(20.2795 5.40931 0)
(18.1638 8.67227 0)
(10.5422 17.7846 0)
(29.9988 0.00128454 0)
(29.9858 0.00389072 0)
(29.9572 0.00669653 0)
(29.9137 0.0103165 0)
(29.8567 0.0150803 0)
(29.7842 0.0215145 0)
(29.6938 0.0301269 0)
(29.5811 0.0427549 0)
(29.4394 0.0606668 0)
(29.2637 0.0842917 0)
(29.0433 0.118077 0)
(28.7676 0.164893 0)
(28.425 0.232976 0)
(27.9898 0.339653 0)
(27.4544 0.498304 0)
(26.7214 0.757373 0)
(25.8244 1.18528 0)
(24.4534 1.90155 0)
(22.926 3.09486 0)
(20.3578 5.49152 0)
(18.4738 8.86599 0)
(10.8129 18.4242 0)
(29.9988 0.00131768 0)
(29.9857 0.00399093 0)
(29.9572 0.00687088 0)
(29.9137 0.0105841 0)
(29.8569 0.0154702 0)
(29.7844 0.0220753 0)
(29.6941 0.0308875 0)
(29.5812 0.0439277 0)
(29.4396 0.0621633 0)
(29.2642 0.0864614 0)
(29.0438 0.121141 0)
(28.7681 0.169184 0)
(28.4259 0.239047 0)
(27.9916 0.348161 0)
(27.4581 0.51083 0)
(26.7289 0.775408 0)
(25.8396 1.21361 0)
(24.4808 1.94201 0)
(22.9734 3.15936 0)
(20.4377 5.56882 0)
(18.7937 9.05591 0)
(11.0935 19.0772 0)
(29.9988 0.00135082 0)
(29.9858 0.00409112 0)
(29.9572 0.00704525 0)
(29.9137 0.0108514 0)
(29.8568 0.0158612 0)
(29.7842 0.0226279 0)
(29.6941 0.0317015 0)
(29.5807 0.044832 0)
(29.4397 0.0635935 0)
(29.2647 0.0886324 0)
(29.0442 0.124205 0)
(28.7686 0.173472 0)
(28.4268 0.245107 0)
(27.9934 0.356646 0)
(27.4619 0.523298 0)
(26.7367 0.793312 0)
(25.8554 1.24169 0)
(24.5094 1.98199 0)
(23.0234 3.22305 0)
(20.5187 5.64105 0)
(19.1229 9.24191 0)
(11.3841 19.7438 0)
(29.9988 0.00138393 0)
(29.9857 0.00419132 0)
(29.9572 0.00721969 0)
(29.9138 0.0111188 0)
(29.857 0.0162516 0)
(29.7843 0.0231851 0)
(29.6947 0.0324956 0)
(29.5794 0.0461051 0)
(29.4397 0.065055 0)
(29.265 0.0908018 0)
(29.0446 0.127267 0)
(28.7691 0.177757 0)
(28.4277 0.251155 0)
(27.9953 0.365102 0)
(27.4658 0.535705 0)
(26.7448 0.811078 0)
(25.8717 1.26951 0)
(24.5392 2.02148 0)
(23.0766 3.28591 0)
(20.6002 5.70813 0)
(19.4582 9.42399 0)
(11.685 20.4255 0)
(29.9988 0.00141688 0)
(29.9858 0.00429137 0)
(29.9572 0.00739426 0)
(29.9137 0.0113866 0)
(29.8569 0.0166425 0)
(29.7842 0.0237413 0)
(29.6949 0.0332994 0)
(29.5783 0.0474844 0)
(29.4396 0.0665552 0)
(29.2652 0.0929714 0)
(29.045 0.130329 0)
(28.7696 0.182039 0)
(28.4286 0.257191 0)
(27.9972 0.373531 0)
(27.4699 0.54805 0)
(26.7531 0.828704 0)
(25.8886 1.29704 0)
(24.5699 2.06042 0)
(23.1334 3.34797 0)
(20.6815 5.77004 0)
(19.7925 9.60184 0)
(11.9957 21.1294 0)
(29.9988 0.00144938 0)
(29.9857 0.00439027 0)
(29.9572 0.0075671 0)
(29.9138 0.0116527 0)
(29.8571 0.0170326 0)
(29.7844 0.0242882 0)
(29.6952 0.0341549 0)
(29.578 0.0486049 0)
(29.4396 0.0680671 0)
(29.2654 0.0951373 0)
(29.0454 0.133389 0)
(28.7701 0.186318 0)
(28.4296 0.263213 0)
(27.9992 0.381933 0)
(27.4741 0.560339 0)
(26.7616 0.846197 0)
(25.9058 1.32428 0)
(24.6016 2.09875 0)
(23.1942 3.40925 0)
(20.7626 5.82686 0)
(20.1147 9.77346 0)
(12.4024 21.8773 0)
(-0.586661 0.0345243 0)
(-2.44104 0.0327357 0)
(-3.58976 0.00872171 0)
(-3.25968 -0.0112636 0)
(-2.34594 -0.012944 0)
(-1.74536 -0.00757403 0)
(-1.382 -0.00325763 0)
(-1.3025 -0.000956346 0)
(-1.23585 -0.000937929 0)
(-1.14015 -0.000488977 0)
(-1.14328 0.000380342 0)
(-1.17834 -0.000324902 0)
(-1.13183 -0.00140945 0)
(-0.914248 -0.00386986 0)
(-0.211965 -0.00736354 0)
(1.02864 -0.0101599 0)
(2.65028 -0.0113034 0)
(4.43267 -0.0110104 0)
(6.2307 -0.00987643 0)
(7.9082 -0.00845858 0)
(9.48076 -0.00728642 0)
(10.9688 -0.00633003 0)
(12.377 -0.00555063 0)
(13.7198 -0.00491164 0)
(15.0088 -0.00452353 0)
(16.3445 -0.00431845 0)
(17.7293 -0.0032365 0)
(18.5379 -0.00481743 0)
(21.2454 -0.0118809 0)
(28.1722 -0.00962025 0)
(29.5799 -0.00152854 0)
(29.5902 -3.29768e-05 0)
(29.613 -7.33658e-05 0)
(29.6709 -9.66103e-05 0)
(29.728 -4.59384e-05 0)
(-0.566702 0.10229 0)
(-2.40389 0.0976601 0)
(-3.54743 0.0262327 0)
(-3.22167 -0.0332981 0)
(-2.31691 -0.038655 0)
(-1.72518 -0.0226472 0)
(-1.36358 -0.00981454 0)
(-1.28465 -0.00291965 0)
(-1.21844 -0.0029095 0)
(-1.11893 -0.00161938 0)
(-1.11189 0.000955824 0)
(-1.12833 -0.000756571 0)
(-1.08669 -0.00348477 0)
(-0.916739 -0.0107746 0)
(-0.275007 -0.021525 0)
(0.954816 -0.0299752 0)
(2.61485 -0.0333153 0)
(4.4268 -0.0324749 0)
(6.22711 -0.029127 0)
(7.88953 -0.0250241 0)
(9.44255 -0.0217116 0)
(10.9211 -0.0189654 0)
(12.3329 -0.016632 0)
(13.6824 -0.0146965 0)
(14.9767 -0.0135179 0)
(16.3094 -0.0129325 0)
(17.694 -0.00974148 0)
(18.5241 -0.0136714 0)
(20.9279 -0.0353533 0)
(28.0119 -0.0299091 0)
(29.5767 -0.0048013 0)
(29.5954 -9.91291e-05 0)
(29.6142 -0.000213373 0)
(29.6714 -0.000288899 0)
(29.7284 -0.000137799 0)
(-0.540605 0.168603 0)
(-2.36225 0.161987 0)
(-3.49942 0.0436342 0)
(-3.17127 -0.0552912 0)
(-2.27099 -0.064184 0)
(-1.69011 -0.0375219 0)
(-1.33026 -0.0163096 0)
(-1.2535 -0.00483773 0)
(-1.18643 -0.0048773 0)
(-1.08182 -0.00287431 0)
(-1.06698 0.00141013 0)
(-1.06836 -0.00171098 0)
(-1.04549 -0.00542512 0)
(-0.930182 -0.0167976 0)
(-0.334173 -0.0349215 0)
(0.900619 -0.0498785 0)
(2.60087 -0.0556058 0)
(4.4378 -0.0537002 0)
(6.23723 -0.0479419 0)
(7.88506 -0.0412323 0)
(9.42047 -0.0359403 0)
(10.8894 -0.0315415 0)
(12.3043 -0.0277654 0)
(13.6603 -0.0245635 0)
(14.9594 -0.0225457 0)
(16.2887 -0.0215206 0)
(17.6716 -0.0163011 0)
(18.5247 -0.0219799 0)
(20.6715 -0.058483 0)
(27.8634 -0.050533 0)
(29.5727 -0.00847661 0)
(29.6005 -0.000182909 0)
(29.6156 -0.000343773 0)
(29.6719 -0.000479488 0)
(29.7289 -0.00022956 0)
(-0.50949 0.233234 0)
(-2.31643 0.225886 0)
(-3.44351 0.0608122 0)
(-3.10351 -0.077417 0)
(-2.20564 -0.0894439 0)
(-1.63906 -0.0521739 0)
(-1.28327 -0.0227258 0)
(-1.21061 -0.00673519 0)
(-1.14241 -0.00693203 0)
(-1.03414 -0.00427269 0)
(-1.01201 0.00159171 0)
(-0.999235 -0.0024966 0)
(-0.99848 -0.00662038 0)
(-0.935886 -0.022064 0)
(-0.378985 -0.0483054 0)
(0.862477 -0.0705459 0)
(2.60315 -0.0788422 0)
(4.46581 -0.0755559 0)
(6.26428 -0.0669865 0)
(7.89846 -0.0574232 0)
(9.41719 -0.0500867 0)
(10.8758 -0.0441069 0)
(12.2924 -0.0389364 0)
(13.6541 -0.0344645 0)
(14.9575 -0.0315745 0)
(16.2835 -0.0300948 0)
(17.6631 -0.0229196 0)
(18.5394 -0.0296748 0)
(20.4749 -0.0810497 0)
(27.7258 -0.0718167 0)
(29.5678 -0.0124693 0)
(29.6054 -0.000277061 0)
(29.6169 -0.000465894 0)
(29.6725 -0.000668535 0)
(29.7293 -0.000321156 0)
(-0.473041 0.295997 0)
(-2.26644 0.289193 0)
(-3.37815 0.0774467 0)
(-3.01606 -0.0997854 0)
(-2.12071 -0.11434 0)
(-1.57195 -0.0664461 0)
(-1.22354 -0.0289773 0)
(-1.15638 -0.00857884 0)
(-1.08696 -0.00903267 0)
(-0.976603 -0.00578416 0)
(-0.945635 0.00150262 0)
(-0.91863 -0.00318579 0)
(-0.942651 -0.00716575 0)
(-0.930369 -0.026589 0)
(-0.404245 -0.0614341 0)
(0.84814 -0.0915967 0)
(2.63099 -0.102709 0)
(4.52054 -0.0977369 0)
(6.31615 -0.0860344 0)
(7.93547 -0.0734833 0)
(9.43661 -0.0641055 0)
(10.8828 -0.056626 0)
(12.2994 -0.0501344 0)
(13.6657 -0.0444064 0)
(14.9731 -0.0406131 0)
(16.2953 -0.0386486 0)
(17.6699 -0.0295908 0)
(18.5692 -0.0369335 0)
(20.331 -0.103201 0)
(27.598 -0.0934712 0)
(29.5622 -0.0167684 0)
(29.6101 -0.000385455 0)
(29.6184 -0.000580129 0)
(29.6731 -0.000855914 0)
(29.7298 -0.000412512 0)
(-0.430883 0.356655 0)
(-2.2122 0.351814 0)
(-3.30152 0.0932058 0)
(-2.90602 -0.122598 0)
(-2.01549 -0.138852 0)
(-1.48826 -0.0802498 0)
(-1.15128 -0.0350041 0)
(-1.09053 -0.0103551 0)
(-1.01995 -0.0111629 0)
(-0.90919 -0.00741328 0)
(-0.867047 0.00111787 0)
(-0.825096 -0.00376359 0)
(-0.875501 -0.00705837 0)
(-0.909896 -0.0304462 0)
(-0.404193 -0.0743433 0)
(0.868182 -0.112892 0)
(2.69951 -0.126992 0)
(4.61886 -0.120075 0)
(6.4066 -0.104957 0)
(8.00548 -0.0893369 0)
(9.48499 -0.0779611 0)
(10.9152 -0.0690741 0)
(12.329 -0.0613415 0)
(13.6987 -0.054379 0)
(15.0097 -0.0496554 0)
(16.3276 -0.0471713 0)
(17.6943 -0.0363072 0)
(18.6161 -0.0438444 0)
(20.2322 -0.124965 0)
(27.479 -0.115364 0)
(29.5558 -0.02135 0)
(29.6147 -0.000509817 0)
(29.6199 -0.000687018 0)
(29.6738 -0.00104154 0)
(29.7303 -0.000503553 0)
(-0.382622 0.414962 0)
(-2.1535 0.413621 0)
(-3.21138 0.107707 0)
(-2.76955 -0.146066 0)
(-1.88859 -0.162891 0)
(-1.38679 -0.0934758 0)
(-1.06583 -0.0407364 0)
(-1.01208 -0.0120518 0)
(-0.940479 -0.0133018 0)
(-0.830881 -0.00916759 0)
(-0.775105 0.000395607 0)
(-0.716952 -0.00422297 0)
(-0.794025 -0.00634467 0)
(-0.870592 -0.0337897 0)
(-0.374152 -0.0872437 0)
(0.932481 -0.134579 0)
(2.82709 -0.151729 0)
(4.78612 -0.142538 0)
(6.55824 -0.123676 0)
(8.12336 -0.104898 0)
(9.57192 -0.0915963 0)
(10.98 -0.0814141 0)
(12.3872 -0.0725373 0)
(13.7586 -0.064374 0)
(15.0726 -0.0586973 0)
(16.3855 -0.055651 0)
(17.7404 -0.0430548 0)
(18.6834 -0.050469 0)
(20.173 -0.146307 0)
(27.3677 -0.1374 0)
(29.5486 -0.0261942 0)
(29.6189 -0.000651733 0)
(29.6215 -0.000787126 0)
(29.6746 -0.00122534 0)
(29.7308 -0.000594202 0)
(-0.327864 0.470663 0)
(-2.09002 0.474445 0)
(-3.10504 0.120488 0)
(-2.60229 -0.17036 0)
(-1.73855 -0.186284 0)
(-1.26599 -0.105989 0)
(-0.96587 -0.0460964 0)
(-0.91944 -0.0136608 0)
(-0.846852 -0.0154292 0)
(-0.739702 -0.0110567 0)
(-0.66771 -0.000691815 0)
(-0.59141 -0.00459921 0)
(-0.694002 -0.00508465 0)
(-0.807744 -0.0367708 0)
(-0.309107 -0.100386 0)
(1.05024 -0.156964 0)
(3.03203 -0.177176 0)
(5.05437 -0.165191 0)
(6.80663 -0.142104 0)
(8.31291 -0.120021 0)
(9.71228 -0.10491 0)
(11.0878 -0.0935878 0)
(12.4826 -0.0836927 0)
(13.8533 -0.074381 0)
(15.1702 -0.0677333 0)
(16.4771 -0.0640699 0)
(17.8143 -0.0498133 0)
(18.7759 -0.056842 0)
(20.1514 -0.167178 0)
(27.2633 -0.159493 0)
(29.5408 -0.031284 0)
(29.6229 -0.000812725 0)
(29.6232 -0.000881058 0)
(29.6754 -0.00140724 0)
(29.7313 -0.000684383 0)
(-0.266247 0.523482 0)
(-2.02129 0.53406 0)
(-2.97938 0.131009 0)
(-2.40034 -0.195615 0)
(-1.56452 -0.208799 0)
(-1.12441 -0.117652 0)
(-0.849779 -0.0510077 0)
(-0.810595 -0.0151802 0)
(-0.736783 -0.017532 0)
(-0.632825 -0.0130962 0)
(-0.541559 -0.00220041 0)
(-0.444197 -0.0049345 0)
(-0.569612 -0.00334838 0)
(-0.714824 -0.0395246 0)
(-0.201364 -0.114016 0)
(1.23259 -0.180433 0)
(3.33024 -0.203775 0)
(5.45252 -0.188264 0)
(7.19988 -0.160139 0)
(8.61191 -0.134475 0)
(9.92965 -0.117735 0)
(11.2549 -0.105502 0)
(12.6282 -0.0947634 0)
(13.9945 -0.0843859 0)
(15.314 -0.0767581 0)
(16.6144 -0.072402 0)
(17.9253 -0.0565507 0)
(18.9003 -0.0629765 0)
(20.1692 -0.187526 0)
(27.1658 -0.181555 0)
(29.5324 -0.036604 0)
(29.6266 -0.000994163 0)
(29.6249 -0.000969472 0)
(29.6763 -0.00158716 0)
(29.7318 -0.000774019 0)
(-0.197453 0.573123 0)
(-1.94673 0.592178 0)
(-2.83085 0.138671 0)
(-2.16189 -0.22191 0)
(-1.36696 -0.23017 0)
(-0.961275 -0.128352 0)
(-0.715941 -0.055408 0)
(-0.683308 -0.0166196 0)
(-0.60755 -0.0196095 0)
(-0.506648 -0.0153176 0)
(-0.392118 -0.00419193 0)
(-0.26956 -0.00531574 0)
(-0.413225 -0.00123241 0)
(-0.582556 -0.0422015 0)
(-0.0387045 -0.128386 0)
(1.49458 -0.205382 0)
(3.73361 -0.232023 0)
(5.98887 -0.212174 0)
(7.77831 -0.177744 0)
(9.07306 -0.147934 0)
(10.2607 -0.129808 0)
(11.5058 -0.11701 0)
(12.8425 -0.105681 0)
(14.1984 -0.0943681 0)
(15.5202 -0.0857685 0)
(16.8149 -0.0806135 0)
(18.0872 -0.0632167 0)
(19.0662 -0.0688669 0)
(20.2331 -0.207285 0)
(27.0756 -0.203488 0)
(29.5235 -0.0421382 0)
(29.63 -0.00119729 0)
(29.6267 -0.00105308 0)
(29.6773 -0.00176504 0)
(29.7324 -0.000863031 0)
(-0.121227 0.619268 0)
(-1.8656 0.648441 0)
(-2.65567 0.142883 0)
(-1.8889 -0.249236 0)
(-1.14805 -0.250134 0)