/*--------------------------------*- C++ -*----------------------------------*\
| =========                 |                                                 |
| \\      /  F ield         | OpenFOAM: The Open Source CFD Toolbox           |
|  \\    /   O peration     | Version:  v1912                                 |
|   \\  /    A nd           | Website:  www.openfoam.com                      |
|    \\/     M anipulation  |                                                 |
\*---------------------------------------------------------------------------*/
FoamFile
{
    version     2.0;
    format      ascii;
    class       volScalarField;
    location    "320";
    object      yPlus;
}
// * * * * * * * * * * * * * * * * * * * * * * * * * * * * * * * * * * * * * //

dimensions      [0 0 0 0 0 0 0];


internalField   uniform 0;

boundaryField
{
    inlet
    {
        type            calculated;
        value           uniform 0;
    }
    outlet
    {
        type            calculated;
        value           uniform 0;
    }
    lowerSymmetry
    {
        type            symmetryPlane;
    }
    obstical
    {
        type            calculated;
        value           nonuniform List<scalar> 
88
(
482.948
485.149
489.546
496.128
504.83
515.562
528.233
542.753
559.032
576.986
596.534
617.597
640.088
663.915
688.985
715.202
742.477
770.731
799.892
829.904
860.717
892.294
924.61
957.645
991.39
1025.84
1061.01
1096.89
1133.52
1170.9
1209.06
1248.01
1287.79
1328.4
1369.88
1412.24
1455.51
1499.71
1544.86
1590.98
1638.1
1686.29
1735.94
1790.99
62.6351
61.5711
60.7073
60.1696
59.9596
60.0795
60.5404
61.3674
62.6013
64.2969
66.5185
69.3315
72.7939
76.9465
81.8056
87.3555
93.5419
100.261
107.342
114.523
121.621
128.473
134.916
140.781
145.89
150.059
153.087
154.757
154.817
152.982
148.939
142.381
133.066
120.877
105.888
88.4054
69.1372
50.2958
40.9046
53.8099
79.7291
110.36
143.765
179.951
)
;
    }
    obsticalTop
    {
        type            calculated;
        value           nonuniform List<scalar> 
20
(
53.3446
38.69
47.0852
53.2022
56.0652
57.7167
58.3355
58.0487
57.1198
55.6819
53.7121
51.1024
47.7606
43.5032
38.3
31.5109
25.1601
15.6831
14.1213
11.1519
)
;
    }
    top
    {
        type            calculated;
        value           uniform 0;
    }
    defaultFaces
    {
        type            empty;
    }
}


// ************************************************************************* //
