/*--------------------------------*- C++ -*----------------------------------*\
| =========                 |                                                 |
| \\      /  F ield         | OpenFOAM: The Open Source CFD Toolbox           |
|  \\    /   O peration     | Version:  v1912                                 |
|   \\  /    A nd           | Website:  www.openfoam.com                      |
|    \\/     M anipulation  |                                                 |
\*---------------------------------------------------------------------------*/
FoamFile
{
    version     2.0;
    format      ascii;
    class       volScalarField;
    location    "500";
    object      mag(U);
}
// * * * * * * * * * * * * * * * * * * * * * * * * * * * * * * * * * * * * * //

dimensions      [0 1 -1 0 0 0 0];


internalField   nonuniform List<scalar> 
2000
(
0.55349
0.240754
0.0994577
0.0575328
0.0417708
0.0316676
0.0255188
0.0213823
0.0183576
0.0158859
0.0139074
0.012222
0.010695
0.00926893
0.00784932
0.00636902
0.00481704
0.00317735
0.00138759
0.000563252
0.00249807
0.00441532
0.00625376
0.0079431
0.00938792
0.0104956
0.0112137
0.0115541
0.0115882
0.011414
0.0111291
0.0108039
0.0104803
0.0101769
0.00989894
0.00964465
0.00941135
0.00919683
0.00899999
0.00882047
0.00865787
0.00851223
0.00838319
0.00827233
0.00818243
0.00811914
0.00808763
0.00809144
0.00812813
0.00818791
0.0082548
0.00831538
0.00837312
0.00846348
0.00865045
0.00901684
0.00968219
0.0107601
0.0122481
0.0139589
0.0155568
0.0166108
0.017825
0.023878
0.0284342
0.0161271
0.0945149
0.224504
0.304408
0.326888
0.30964
0.272339
0.214244
0.138542
0.0500811
0.0531044
0.150701
0.280769
0.356869
0.581641
0.900747
0.265432
0.0998213
0.0906226
0.0759782
0.0617652
0.0516554
0.0446814
0.0393713
0.0348991
0.0312079
0.0279955
0.0250566
0.0223014
0.0195936
0.0168371
0.0140113
0.0111197
0.00806811
0.00493106
0.0022621
0.00290186
0.00576362
0.00878636
0.0116536
0.0142043
0.0163141
0.017919
0.019027
0.019706
0.0200499
0.0201555
0.0201066
0.0199653
0.0197705
0.0195439
0.0192985
0.0190431
0.0187847
0.0185293
0.0182813
0.0180445
0.0178211
0.0176148
0.0174305
0.0172771
0.0171643
0.0171
0.0170843
0.0171053
0.0171383
0.0171549
0.0171427
0.0171272
0.0171639
0.0173205
0.0176819
0.0182644
0.0189915
0.0198163
0.0207766
0.0216441
0.0223146
0.0232809
0.0190393
0.134803
0.268014
0.332771
0.320483
0.289425
0.2576
0.206247
0.139629
0.0683459
0.079369
0.177293
0.28469
0.421814
0.512802
0.754408
1.0002
0.66874
0.233641
0.0360291
0.0738788
0.0729529
0.0636419
0.0562399
0.0507323
0.0458828
0.0418501
0.0383372
0.0351372
0.0321845
0.029354
0.0265396
0.0237145
0.0209153
0.0179862
0.0148863
0.0117299
0.00865668
0.00584324
0.00389408
0.00423345
0.00641261
0.008978
0.0113915
0.0134755
0.0151811
0.0165235
0.0175518
0.0183238
0.0188907
0.0192955
0.0195715
0.0197449
0.0198377
0.0198667
0.019846
0.0197858
0.0196944
0.0195766
0.0194364
0.0192779
0.0191075
0.0189326
0.0187605
0.0185938
0.0184261
0.0182387
0.0180023
0.0176858
0.017261
0.016664
0.0157435
0.0141888
0.0114902
0.00766556
0.0036233
0.000758188
0.00120583
0.00409649
0.0318786
0.119973
0.234376
0.286955
0.245598
0.19246
0.167607
0.13348
0.0933636
0.0756339
0.124071
0.208092
0.306936
0.409387
0.533076
0.622543
0.835831
1.01421
0.889151
0.580708
0.242753
0.0126739
0.0556303
0.0641773
0.0597524
0.0559932
0.0519276
0.0484249
0.0454098
0.0426708
0.0402269
0.0379799
0.0358079
0.0336808
0.0316912
0.0296038
0.0272889
0.0248326
0.0223199
0.0197169
0.0169324
0.0139235
0.0107635
0.0076251
0.00476485
0.00274385
0.00284764
0.00438691
0.00604018
0.00752244
0.00879488
0.00986677
0.0107587
0.0114916
0.0120839
0.0125524
0.0129109
0.0131707
0.0133399
0.013422
0.0134165
0.0133188
0.013124
0.0128268
0.0124248
0.0119206
0.0113229
0.0106371
0.00984609
0.00887447
0.00752282
0.0053659
0.00189932
0.00519546
0.0158352
0.0283749
0.0392836
0.0468073
0.0528226
0.0670624
0.110562
0.187337
0.242914
0.205712
0.110384
0.0759521
0.0646679
0.0709864
0.109581
0.173735
0.252919
0.340285
0.433666
0.528178
0.638119
0.721849
0.906483
1.0034
0.974678
0.820155
0.556812
0.271637
0.0571009
0.0338402
0.0499786
0.0536123
0.0529377
0.051052
0.0493391
0.047562
0.0460642
0.0447676
0.0435726
0.0424533
0.0416132
0.0407242
0.0395692
0.0382585
0.036892
0.0353756
0.0335224
0.0312171
0.0284944
0.0255093
0.0224544
0.019494
0.0167359
0.0142289
0.0119818
0.00998539
0.0082239
0.0066808
0.00534086
0.00419079
0.00321989
0.0024201
0.0017869
0.00132058
0.00102644
0.000912569
0.000979996
0.00123372
0.00170306
0.00243302
0.00345636
0.00477209
0.00634059
0.00811516
0.0101222
0.0126186
0.0163829
0.0229805
0.0342892
0.0509422
0.0710984
0.0908547
0.106619
0.116714
0.122294
0.130764
0.156017
0.191728
0.185373
0.0940421
0.0113514
0.0551848
0.101366
0.158016
0.226918
0.30453
0.386567
0.46971
0.554056
0.637645
0.732827
0.807707
0.964744
0.99316
0.989922
0.939403
0.794357
0.569359
0.321953
0.12108
0.00444532
0.031058
0.0438741
0.0466778
0.048269
0.0482114
0.0482516
0.0481645
0.0481441
0.0481562
0.0486163
0.0491031
0.0492966
0.0493823
0.0495187
0.049551
0.0491837
0.0482193
0.0466583
0.0446543
0.0424101
0.0401011
0.0378455
0.0357074
0.0337159
0.0318838
0.0302182
0.0287241
0.0274069
0.0262712
0.0253233
0.0245716
0.0240282
0.0237085
0.0236354
0.0238385
0.0243581
0.0252588
0.0266138
0.0284881
0.030915
0.0338817
0.0373546
0.0413629
0.046126
0.0522061
0.0606447
0.0728366
0.0897194
0.110458
0.131969
0.150249
0.162403
0.166899
0.162958
0.15372
0.149035
0.144183
0.0993799
0.0514054
0.107744
0.155908
0.213404
0.28316
0.360749
0.440291
0.517743
0.591484
0.663388
0.733683
0.813498
0.877792
1.00954
0.9901
0.983047
0.976003
0.924057
0.798166
0.608321
0.39525
0.202307
0.0629692
0.00988484
0.0248104
0.0370794
0.0407227
0.0442032
0.045986
0.047493
0.0488115
0.0506426
0.052575
0.0541517
0.0557008
0.0575238
0.0594064
0.0609228
0.0617857
0.0619624
0.0615995
0.0608896
0.0599908
0.0590072
0.0579989
0.0570029
0.0560493
0.0551679
0.0543887
0.0537405
0.0532507
0.0529466
0.0528598
0.0530289
0.0534999
0.0543094
0.0554989
0.0571554
0.0593746
0.0622572
0.0658789
0.0702599
0.0753462
0.0810366
0.0872595
0.0940708
0.101757
0.110915
0.122277
0.135927
0.150322
0.162442
0.169536
0.170813
0.165881
0.151905
0.126824
0.0968997
0.0694187
0.0664652
0.142038
0.207517
0.270445
0.342206
0.420617
0.499313
0.573066
0.639713
0.699846
0.757008
0.812965
0.877853
0.931285
1.04125
0.991724
0.977593
0.975756
0.969182
0.924529
0.822059
0.668034
0.487303
0.308999
0.160306
0.0551798
0.00283581
0.0145439
0.0280089
0.0344046
0.0382106
0.0418902
0.045428
0.0488456
0.0517375
0.0546218
0.0580665
0.0618304
0.0653445
0.0682431
0.0704731
0.0721829
0.0735412
0.0746581
0.0755911
0.0763738
0.0770377
0.0776234
0.0781798
0.0787589
0.0794102
0.0801781
0.0811047
0.0822328
0.0835987
0.0852144
0.0871302
0.0894071
0.0921075
0.0953051
0.0990615
0.103395
0.108246
0.113448
0.118751
0.123877
0.128572
0.132649
0.13607
0.138881
0.140619
0.139591
0.133535
0.121558
0.106201
0.0916354
0.0753421
0.0475247
0.00599845
0.069181
0.158558
0.248816
0.329101
0.406473
0.485542
0.562928
0.633482
0.694259
0.745492
0.789741
0.831688
0.873897
0.92548
0.969054
1.06149
0.994344
0.978461
0.969781
0.971925
0.968138
0.934981
0.858475
0.740319
0.59362
0.437754
0.291158
0.168494
0.0794055
0.0200753
0.0032971
0.0113175
0.0224688
0.0297517
0.0346543
0.0389354
0.043326
0.0482353
0.0535687
0.0587637
0.0634862
0.0676742
0.071468
0.0749866
0.0782574
0.0812617
0.0839905
0.0864622
0.0887222
0.0908303
0.0928474
0.0948248
0.0967994
0.0987892
0.100815
0.102902
0.10508
0.10735
0.109714
0.112174
0.114738
0.117395
0.120093
0.122711
0.125026
0.126722
0.127407
0.126588
0.123647
0.11798
0.109212
0.0968963
0.079745
0.056991
0.0287419
0.00494506
0.0348707
0.065524
0.101821
0.152103
0.220503
0.306277
0.39578
0.4797
0.558113
0.6316
0.697314
0.752196
0.795606
0.829699
0.858288
0.886495
0.917008
0.957835
0.993423
1.0727
0.99621
0.982683
0.969539
0.965846
0.970033
0.969802
0.949676
0.899017
0.815595
0.705218
0.578715
0.448331
0.325679
0.218587
0.133766
0.0717259
0.0293495
0.00848029
0.0029243
0.00878669
0.017633
0.0249543
0.0313278
0.0372479
0.0430342
0.0488529
0.0545218
0.0599152
0.0649565
0.0695573
0.0736895
0.0773777
0.0806801
0.0836649
0.0863923
0.0889034
0.0912193
0.0933561
0.0953175
0.0970966
0.0986655
0.0999704
0.100946
0.101525
0.101641
0.101216
0.100165
0.0983717
0.0956662
0.0918098
0.0865083
0.0793067
0.0693292
0.055504
0.0372108
0.0156314
0.0183454
0.0517802
0.0904086
0.130547
0.173737
0.220292
0.271748
0.331447
0.401701
0.481136
0.562246
0.637712
0.704923
0.763076
0.8106
0.846493
0.871905
0.890161
0.905551
0.923001
0.944814
0.977883
1.00772
1.07783
0.997187
0.986925
0.974103
0.965176
0.963871
0.968337
0.971374
0.963147
0.935257
0.883664
0.809357
0.717172
0.6141
0.507683
0.40459
0.310434
0.228481
0.161045
0.108944
0.0697638
0.0417371
0.0244741
0.0150064
0.00855695
0.00340448
0.00824891
0.016184
0.0234421
0.0297501
0.0351711
0.0398058
0.0437647
0.0471518
0.0500504
0.0525151
0.0545712
0.0562172
0.0574394
0.0582276
0.0585535
0.058348
0.0575074
0.0559123
0.0534312
0.0499103
0.0451865
0.0391127
0.031573
0.0224627
0.011694
0.00338045
0.0173941
0.0354184
0.0570785
0.0834248
0.115841
0.154327
0.198369
0.246679
0.29765
0.350719
0.405299
0.461668
0.521399
0.58577
0.653567
0.719791
0.778817
0.827889
0.866433
0.894318
0.912186
0.92229
0.928353
0.934463
0.944885
0.961265
0.989461
1.01564
1.07979
0.997682
0.989887
0.979545
0.969865
0.963634
0.962525
0.966161
0.971029
0.971257
0.960772
0.935297
0.893271
0.835688
0.765575
0.686897
0.604024
0.52104
0.441311
0.367524
0.301374
0.243673
0.194914
0.155054
0.123216
0.0980255
0.0780955
0.0625125
0.0505855
0.0415773
0.034721
0.029372
0.0250945
0.0216524
0.0189523
0.0169852
0.0157673
0.0153409
0.0157491
0.0169445
0.0189289
0.0218153
0.0257547
0.0308092
0.0371232
0.0450039
0.054759
0.0666768
0.0810116
0.0979564
0.117679
0.140354
0.166167
0.195242
0.227777
0.264117
0.304639
0.349279
0.397481
0.448151
0.499876
0.551479
0.602092
0.651666
0.701124
0.751279
0.80122
0.84757
0.886378
0.915636
0.935374
0.94649
0.950577
0.95024
0.948936
0.950082
0.957076
0.970874
0.996499
1.02065
1.08098
0.998007
0.99174
0.983729
0.975715
0.968676
0.963579
0.96177
0.96381
0.968439
0.972691
0.972833
0.965435
0.948149
0.920068
0.881607
0.83419
0.779932
0.721191
0.660253
0.599217
0.539874
0.483635
0.431525
0.384174
0.341853
0.304591
0.272261
0.244619
0.221338
0.20203
0.186288
0.173724
0.163989
0.156789
0.151883
0.149074
0.148218
0.149183
0.151855
0.156324
0.16261
0.170762
0.18088
0.193102
0.207567
0.224415
0.243779
0.26576
0.290405
0.317689
0.347518
0.37975
0.414204
0.450716
0.489203
0.529595
0.571616
0.61466
0.657754
0.69972
0.739551
0.776667
0.811218
0.844032
0.875832
0.906103
0.932688
0.953002
0.965813
0.971576
0.971637
0.967821
0.962492
0.958444
0.958271
0.964567
0.977757
1.00228
1.0254
1.08309
0.998278
0.993011
0.986559
0.980311
0.974555
0.96917
0.964681
0.96211
0.962225
0.964968
0.969318
0.973487
0.975379
0.973063
0.965127
0.950827
0.930113
0.903493
0.871838
0.836259
0.798001
0.758294
0.71823
0.678738
0.640596
0.604445
0.570779
0.539935
0.512114
0.48741
0.465845
0.447385
0.431969
0.419511
0.409916
0.403081
0.39893
0.397332
0.398413
0.402164
0.408532
0.417444
0.428826
0.442603
0.458692
0.47701
0.497454
0.5199
0.544182
0.570083
0.59734
0.62566
0.654741
0.684324
0.714217
0.74425
0.77414
0.803392
0.831292
0.857055
0.8801
0.900278
0.918009
0.934148
0.949392
0.963531
0.975214
0.982776
0.985464
0.983803
0.979059
0.972809
0.966892
0.963392
0.964204
0.97133
0.984898
1.00897
1.03148
1.08694
0.99851
0.994028
0.988629
0.983525
0.97904
0.974823
0.970675
0.966848
0.963895
0.962421
0.962809
0.965023
0.968556
0.972532
0.975885
0.97758
0.976766
0.972871
0.965615
0.955011
0.941329
0.92501
0.906583
0.886606
0.865659
0.844317
0.823121
0.802541
0.782971
0.76473
0.748071
0.733196
0.720256
0.709363
0.70059
0.693982
0.689553
0.687317
0.687213
0.689169
0.69312
0.698986
0.706667
0.716046
0.726993
0.739363
0.752992
0.7677
0.783276
0.799484
0.816069
0.832776
0.849373
0.865682
0.881587
0.896992
0.911729
0.9255
0.937888
0.948477
0.957053
0.96375
0.9691
0.973876
0.978659
0.983354
0.987065
0.98864
0.987511
0.984026
0.979128
0.974
0.969986
0.968621
0.971324
0.979728
0.993848
1.0175
1.03942
1.09255
0.998705
0.994903
0.990359
0.98599
0.982221
0.978927
0.975831
0.972764
0.96974
0.966957
0.964746
0.963458
0.96334
0.964454
0.966655
0.969613
0.972886
0.975992
0.978468
0.979937
0.980147
0.978971
0.97638
0.972433
0.967272
0.961109
0.9542
0.946814
0.939213
0.931639
0.924316
0.917444
0.9112
0.905731
0.901157
0.897568
0.895017
0.893564
0.893107
0.893604
0.89502
0.897303
0.900387
0.904198
0.90865
0.913649
0.919093
0.924863
0.930832
0.936859
0.942804
0.948542
0.953983
0.95908
0.963829
0.968236
0.972254
0.975747
0.978507
0.980349
0.981235
0.981378
0.981241
0.981398
0.98225
0.983703
0.985106
0.985594
0.984667
0.982471
0.979638
0.977022
0.975615
0.976587
0.981053
0.990426
1.00473
1.02761
1.04864
1.09911
0.99887
0.995677
0.991903
0.988129
0.984772
0.981924
0.979461
0.977207
0.97502
0.972825
0.970632
0.968544
0.966726
0.965363
0.964614
0.964573
0.965258
0.966605
0.96848
0.970708
0.973103
0.975491
0.977703
0.979604
0.981097
0.982138
0.982728
0.982899
0.982699
0.982195
0.981454
0.980554
0.979575
0.978587
0.977658
0.97684
0.976178
0.975683
0.975367
0.975236
0.975286
0.975503
0.97587
0.976362
0.976959
0.977631
0.978349
0.979075
0.979769
0.980385
0.980885
0.981242
0.981457
0.981557
0.981597
0.981623
0.981639
0.981584
0.98135
0.980841
0.980062
0.979182
0.978526
0.978477
0.979281
0.980846
0.98269
0.984167
0.984846
0.984745
0.984271
0.984037
0.984781
0.987415
0.992859
1.00241
1.01614
1.03767
1.05737
1.10475
0.999023
0.996396
0.993327
0.990081
0.987049
0.98446
0.982283
0.980403
0.978725
0.977169
0.97566
0.974148
0.972621
0.971107
0.969671
0.968392
0.967351
0.966616
0.966232
0.966213
0.966549
0.967208
0.968138
0.969265
0.970516
0.971824
0.973138
0.974413
0.975613
0.976708
0.977675
0.978502
0.979185
0.979727
0.980132
0.980406
0.980562
0.980598
0.980575
0.980508
0.980402
0.980265
0.980098
0.979905
0.979689
0.979452
0.979198
0.978923
0.978624
0.978295
0.977933
0.977546
0.977156
0.976801
0.97653
0.976387
0.97638
0.976474
0.9766
0.976701
0.976786
0.976973
0.97748
0.978562
0.980378
0.982852
0.985642
0.988265
0.990357
0.991846
0.992959
0.994102
0.99582
0.998851
1.00402
1.01259
1.02481
1.04429
1.06221
1.10638
0.999178
0.997123
0.994702
0.991906
0.989156
0.986792
0.984814
0.983111
0.981625
0.980326
0.979174
0.978118
0.977111
0.976122
0.975132
0.974143
0.973162
0.972215
0.971328
0.97053
0.969846
0.969299
0.968897
0.968641
0.968518
0.968519
0.96863
0.968833
0.969109
0.969436
0.969791
0.970153
0.970507
0.970838
0.971137
0.971395
0.971609
0.971793
0.971958
0.972107
0.972242
0.972369
0.972491
0.972609
0.972729
0.972855
0.972989
0.973134
0.97329
0.973456
0.973635
0.973838
0.974085
0.974407
0.974841
0.975418
0.976151
0.977021
0.977988
0.979021
0.980127
0.981385
0.982937
0.98494
0.987482
0.990485
0.993679
0.996675
0.999131
1.0009
1.00205
1.00284
1.00372
1.00538
1.00867
1.01497
1.02476
1.04173
1.05766
1.09928
0.999351
0.997928
0.996114
0.993681
0.991161
0.989004
0.987211
0.985657
0.984288
0.983097
0.982065
0.981163
0.980361
0.979635
0.978967
0.978338
0.977737
0.977152
0.976584
0.97603
0.975496
0.97499
0.974517
0.974082
0.973689
0.973342
0.973048
0.97281
0.972628
0.972502
0.972425
0.972393
0.972402
0.972447
0.972525
0.972633
0.972774
0.972942
0.97313
0.973339
0.973569
0.97382
0.974092
0.974389
0.974712
0.975065
0.975453
0.975878
0.976345
0.976858
0.977425
0.978055
0.978769
0.97959
0.980544
0.981652
0.982919
0.984328
0.985843
0.987426
0.989062
0.990772
0.992612
0.994641
0.996865
0.999178
1.00133
1.00298
1.0038
1.00361
1.00242
1.00048
0.998291
0.996659
0.996619
0.999771
1.00676
1.02156
1.03596
1.07711
0.999569
0.998895
0.997658
0.995502
0.993162
0.991184
0.989557
0.988137
0.986878
0.985781
0.984832
0.984006
0.983276
0.98263
0.982058
0.981549
0.981093
0.980684
0.980313
0.979977
0.979673
0.979395
0.979142
0.978914
0.978706
0.978521
0.978361
0.978228
0.978128
0.978058
0.978019
0.978011
0.978035
0.978088
0.978169
0.978285
0.978431
0.978613
0.978829
0.979082
0.979376
0.979715
0.980104
0.980548
0.981051
0.98162
0.982257
0.982966
0.983745
0.984591
0.985505
0.986481
0.987517
0.988611
0.989758
0.990945
0.992143
0.993308
0.994378
0.995285
0.995972
0.996402
0.996561
0.996439
0.995997
0.995118
0.993592
0.991145
0.987524
0.982617
0.976537
0.969677
0.962737
0.956786
0.953094
0.953492
0.958689
0.97304
0.987528
1.03234
0.999871
1.00013
0.999426
0.997472
0.995294
0.993493
0.99202
0.99072
0.989562
0.988555
0.987687
0.986929
0.98626
0.985666
0.98514
0.98467
0.984252
0.983881
0.983553
0.983263
0.983011
0.982791
0.982601
0.982439
0.9823
0.982183
0.982087
0.982014
0.981964
0.981932
0.981915
0.981913
0.981932
0.982014
0.982167
0.98239
0.982683
0.983045
0.983472
0.983957
0.984495
0.985077
0.985691
0.986324
0.986959
0.98758
0.988162
0.988685
0.989118
0.989434
0.989598
0.989582
0.989352
0.988874
0.988116
0.98704
0.985601
0.983738
0.981389
0.978486
0.974973
0.970815
0.966003
0.960538
0.954404
0.947535
0.939801
0.931037
0.921129
0.910123
0.898336
0.886403
0.875294
0.866339
0.860985
0.861212
0.867565
0.884973
0.902392
0.957013
1.00034
1.00183
1.00151
0.999547
0.997379
0.995602
0.994102
0.992732
0.991482
0.990373
0.989395
0.98852
0.987727
0.987003
0.986338
0.98572
0.985141
0.984596
0.984077
0.983579
0.983098
0.982629
0.982165
0.981701
0.981232
0.980751
0.980256
0.979744
0.979202
0.978718
0.978299
0.977935
0.977608
0.977258
0.976857
0.976377
0.975794
0.975081
0.974211
0.973158
0.971894
0.970392
0.968627
0.966573
0.964206
0.961502
0.958439
0.954993
0.951142
0.946867
0.942148
0.936969
0.931317
0.925181
0.918552
0.911417
0.90376
0.895558
0.886784
0.877418
0.867457
0.85692
0.845855
0.834319
0.822349
0.809937
0.797023
0.783534
0.769479
0.755065
0.740794
0.727517
0.716397
0.708922
0.706572
0.711394
0.723456
0.748809
0.772344
0.844608
1.00148
1.00381
1.001
0.994988
0.988362
0.981959
0.975743
0.969684
0.963871
0.958381
0.953221
0.948377
0.94382
0.939516
0.935432
0.93153
0.927778
0.924151
0.920616
0.917144
0.913707
0.910275
0.906823
0.903324
0.899752
0.896084
0.892301
0.888375
0.884299
0.879941
0.875271
0.870272
0.864935
0.859258
0.85324
0.846879
0.840176
0.833135
0.825759
0.818057
0.810038
0.801712
0.793091
0.784188
0.775018
0.765592
0.755925
0.746031
0.735921
0.72561
0.715114
0.704449
0.693633
0.682684
0.671621
0.660454
0.649188
0.637819
0.626343
0.614765
0.603111
0.591438
0.579823
0.568343
0.557052
0.545944
0.534962
0.524047
0.513242
0.502808
0.493317
0.485705
0.481176
0.481284
0.487438
0.501967
0.523948
0.561783
0.592868
0.688295
0.953433
0.887298
0.829945
0.778784
0.734432
0.696268
0.663024
0.633765
0.607937
0.585093
0.564794
0.546624
0.530251
0.515414
0.501887
0.48947
0.477987
0.467278
0.457214
0.447678
0.438576
0.42982
0.421339
0.413067
0.404955
0.396957
0.389037
0.381165
0.373324
0.365519
0.357745
0.349996
0.342268
0.334563
0.326892
0.319265
0.311695
0.304197
0.296787
0.289486
0.282313
0.275289
0.268433
0.261768
0.25531
0.249076
0.243081
0.237336
0.231855
0.226644
0.221713
0.217068
0.212722
0.208679
0.204942
0.201507
0.198357
0.195469
0.192815
0.190377
0.188155
0.186178
0.184493
0.183144
0.182141
0.181425
0.180881
0.180385
0.179916
0.179681
0.180202
0.182358
0.187283
0.196335
0.210378
0.231563
0.257711
0.298872
0.327533
0.420175
)
;

boundaryField
{
    inlet
    {
        type            calculated;
        value           uniform 1;
    }
    outlet
    {
        type            calculated;
        value           nonuniform List<scalar> 
25
(
0.581641
0.754408
0.835831
0.906483
0.964744
1.00954
1.04125
1.06149
1.0727
1.07783
1.07979
1.08098
1.08309
1.08694
1.09255
1.09911
1.10475
1.10638
1.09928
1.07711
1.03234
0.957013
0.844608
0.688295
0.420175
)
;
    }
    fixedWalls
    {
        type            calculated;
        value           uniform 0;
    }
    frontAndBack
    {
        type            empty;
    }
}


// ************************************************************************* //
