/*--------------------------------*- C++ -*----------------------------------*\
| =========                 |                                                 |
| \\      /  F ield         | OpenFOAM: The Open Source CFD Toolbox           |
|  \\    /   O peration     | Version:  v1912                                 |
|   \\  /    A nd           | Website:  www.openfoam.com                      |
|    \\/     M anipulation  |                                                 |
\*---------------------------------------------------------------------------*/
FoamFile
{
    version     2.0;
    format      ascii;
    class       volScalarField;
    location    "500";
    object      p;
}
// * * * * * * * * * * * * * * * * * * * * * * * * * * * * * * * * * * * * * //

dimensions      [0 2 -2 0 0 0 0];


internalField   nonuniform List<scalar> 
2000
(
-0.0319848
0.0729007
0.087902
0.0917281
0.0935691
0.0945986
0.0952586
0.0957087
0.0960409
0.0962865
0.0964728
0.0966176
0.0967289
0.0968138
0.0968764
0.0969178
0.0969378
0.0969379
0.0969168
0.0968728
0.0968064
0.0967196
0.0966148
0.0964951
0.0963655
0.0962319
0.0961009
0.0959774
0.0958642
0.0957621
0.0956703
0.0955875
0.0955122
0.0954429
0.0953785
0.0953182
0.0952613
0.0952073
0.0951556
0.0951059
0.0950578
0.095011
0.0949653
0.0949202
0.0948755
0.0948307
0.0947856
0.0947395
0.094692
0.0946426
0.094591
0.0945373
0.0944813
0.0944228
0.0943602
0.0942907
0.0942097
0.0941083
0.0939743
0.093796
0.0935697
0.0933056
0.0930273
0.0926854
0.091933
0.0906476
0.0875988
0.0815975
0.0782073
0.08388
0.099211
0.121735
0.147951
0.173321
0.192229
0.200678
0.193739
0.169493
0.118333
0.0672665
0.00146005
0.0712037
0.0879217
0.0915507
0.0934542
0.0945282
0.0952108
0.0956709
0.0960116
0.0962636
0.0964541
0.0966022
0.0967162
0.0968032
0.0968676
0.0969109
0.0969326
0.0969342
0.0969146
0.096872
0.0968068
0.0967209
0.0966167
0.096497
0.0963668
0.0962323
0.0961005
0.0959766
0.0958635
0.0957618
0.0956705
0.0955881
0.0955128
0.0954435
0.095379
0.0953185
0.0952614
0.0952072
0.0951553
0.0951054
0.0950572
0.0950103
0.0949643
0.0949191
0.0948742
0.0948294
0.0947841
0.0947377
0.0946899
0.0946401
0.0945881
0.0945342
0.0944782
0.0944198
0.0943574
0.0942882
0.0942071
0.0941044
0.0939673
0.0937842
0.0935512
0.093282
0.093015
0.0927089
0.0921681
0.0903134
0.0845674
0.0760964
0.0739945
0.0826272
0.0997196
0.122787
0.148916
0.173618
0.191902
0.199582
0.191238
0.165474
0.113014
0.0610373
0.0236987
0.0696557
0.0880629
0.0917549
0.0934271
0.0944763
0.095177
0.0956401
0.0959867
0.0962438
0.0964367
0.0965873
0.0967032
0.0967915
0.0968567
0.0969023
0.096925
0.0969275
0.0969095
0.0968687
0.0968048
0.0967199
0.096616
0.0964961
0.0963649
0.0962292
0.0960959
0.0959712
0.0958581
0.095757
0.0956665
0.0955848
0.0955102
0.0954413
0.0953769
0.0953166
0.0952595
0.0952053
0.0951535
0.0951036
0.0950554
0.0950084
0.0949625
0.0949173
0.0948725
0.0948278
0.0947825
0.0947361
0.094688
0.0946378
0.0945854
0.0945312
0.0944756
0.0944181
0.0943568
0.0942892
0.0942114
0.0941119
0.0939758
0.0937888
0.0935425
0.0932606
0.0930286
0.0929115
0.0924354
0.0875993
0.0759648
0.0680381
0.0699706
0.0809772
0.0990091
0.122393
0.148373
0.172691
0.190191
0.196534
0.186815
0.160083
0.107374
0.0566052
0.0310218
0.0669814
0.0880442
0.0921773
0.0936052
0.0944784
0.0951628
0.0956259
0.0959694
0.0962312
0.0964236
0.0965746
0.0966915
0.0967798
0.0968441
0.0968921
0.0969151
0.0969168
0.0969001
0.0968618
0.0967999
0.0967162
0.0966131
0.0964938
0.0963627
0.0962263
0.0960923
0.095967
0.0958536
0.0957524
0.0956622
0.0955809
0.0955068
0.0954381
0.0953741
0.0953138
0.0952569
0.0952028
0.0951511
0.0951013
0.0950532
0.0950063
0.0949604
0.0949154
0.0948708
0.0948264
0.0947814
0.0947353
0.0946872
0.0946367
0.094584
0.0945295
0.0944741
0.0944176
0.0943578
0.094293
0.0942208
0.0941273
0.0939858
0.0937774
0.093512
0.0932706
0.0932397
0.0937484
0.0927739
0.0832481
0.0689478
0.0643797
0.0684467
0.0803087
0.0985689
0.121774
0.147326
0.17082
0.1871
0.191946
0.180939
0.15354
0.101273
0.0521906
0.0384048
0.0659645
0.0868826
0.0924574
0.0938418
0.0946456
0.0951904
0.09564
0.0959554
0.0962306
0.0964148
0.0965654
0.0966819
0.0967692
0.0968296
0.0968813
0.0969039
0.0969013
0.0968849
0.0968507
0.0967921
0.0967094
0.096607
0.0964892
0.0963604
0.096226
0.0960928
0.0959672
0.0958531
0.0957513
0.0956608
0.0955794
0.0955052
0.0954366
0.0953726
0.0953124
0.0952556
0.0952015
0.0951499
0.0951003
0.0950522
0.0950054
0.0949597
0.0949148
0.0948704
0.0948263
0.0947817
0.0947359
0.0946881
0.0946378
0.0945848
0.0945296
0.0944738
0.0944193
0.0943666
0.0943107
0.0942383
0.0941188
0.0939139
0.0936271
0.0933936
0.0935612
0.0945833
0.096213
0.093951
0.080935
0.0671752
0.0639629
0.0680878
0.0801748
0.0982882
0.121033
0.145759
0.167986
0.182685
0.185886
0.173697
0.145986
0.0949094
0.0480035
0.0478317
0.0675328
0.0855214
0.0921322
0.0940315
0.0948191
0.0954059
0.0956743
0.0959619
0.0962427
0.0964103
0.0965656
0.0966755
0.0967641
0.0968153
0.0968721
0.0968949
0.096883
0.0968643
0.0968366
0.0967831
0.0967001
0.0965959
0.0964795
0.0963559
0.0962279
0.0960995
0.0959759
0.0958615
0.0957582
0.0956658
0.095583
0.0955078
0.0954385
0.095374
0.0953135
0.0952564
0.0952023
0.0951506
0.0951009
0.095053
0.0950063
0.0949607
0.094916
0.094872
0.0948281
0.0947839
0.0947382
0.0946904
0.09464
0.0945874
0.0945345
0.0944856
0.0944461
0.0944156
0.0943682
0.0942304
0.093912
0.0934256
0.0929978
0.093146
0.094546
0.097396
0.0999147
0.0961646
0.0818484
0.0685105
0.0641165
0.0688215
0.0807815
0.0983156
0.120263
0.143739
0.164243
0.177041
0.178554
0.165415
0.137803
0.0885905
0.0440485
0.0563296
0.0700311
0.0850198
0.0917427
0.09408
0.0950605
0.0956085
0.0958134
0.0961087
0.0962286
0.0964205
0.0965713
0.0966692
0.0967733
0.0968024
0.0968654
0.0968941
0.0968657
0.0968394
0.0968211
0.0967759
0.0966902
0.0965788
0.096461
0.096345
0.0962293
0.0961119
0.0959946
0.0958816
0.0957767
0.0956815
0.0955958
0.0955182
0.0954473
0.0953817
0.0953204
0.0952628
0.0952083
0.0951565
0.0951069
0.0950592
0.095013
0.0949681
0.0949245
0.0948816
0.0948388
0.0947945
0.0947475
0.0946972
0.094645
0.094595
0.0945574
0.0945484
0.094578
0.0946149
0.0945451
0.0941684
0.0933407
0.0922934
0.0917487
0.0926599
0.0957428
0.100319
0.103099
0.098469
0.0844819
0.0703755
0.0655489
0.0704741
0.0818814
0.0986287
0.11946
0.141238
0.159631
0.170355
0.170277
0.156488
0.12937
0.0825045
0.0403834
0.0630823
0.0726986
0.0854082
0.0918747
0.0942715
0.095416
0.0959419
0.096081
0.0962273
0.0963569
0.0965311
0.0965386
0.0966705
0.0967957
0.0967821
0.0968605
0.0969111
0.0968536
0.0968088
0.0968063
0.0967761
0.0966841
0.0965561
0.0964305
0.0963232
0.0962266
0.096128
0.0960226
0.0959138
0.0958076
0.0957087
0.0956191
0.0955386
0.0954657
0.0953989
0.0953368
0.0952788
0.0952243
0.0951728
0.0951234
0.0950762
0.0950315
0.0949894
0.0949492
0.0949095
0.0948678
0.0948205
0.0947651
0.0947034
0.0946442
0.0946051
0.0946157
0.0947114
0.0948897
0.0950329
0.09487
0.0940779
0.0925612
0.0909641
0.090501
0.0920326
0.0961308
0.101438
0.104175
0.099916
0.0866839
0.0726878
0.0677839
0.0724916
0.0834282
0.0992918
0.118613
0.138278
0.154316
0.162953
0.16148
0.147359
0.121056
0.0768003
0.0370728
0.0686648
0.0756303
0.0864148
0.0925314
0.094868
0.0960202
0.0965863
0.0966671
0.0965757
0.0965707
0.0966204
0.0966405
0.0967856
0.0967871
0.0967434
0.0968667
0.0969416
0.0968385
0.0967701
0.0967972
0.096791
0.0966866
0.0965287
0.0963861
0.096288
0.0962175
0.0961449
0.0960556
0.0959524
0.0958447
0.0957417
0.0956481
0.095565
0.0954909
0.0954236
0.0953615
0.0953037
0.0952495
0.0951986
0.0951506
0.0951057
0.0950649
0.0950288
0.094996
0.0949629
0.0949231
0.0948687
0.094795
0.0947083
0.0946325
0.0946081
0.0946898
0.0949283
0.0952878
0.0955354
0.0952541
0.0941437
0.0922874
0.0906159
0.0902475
0.0917678
0.095935
0.101362
0.104162
0.100059
0.0878467
0.075108
0.0706343
0.0751451
0.08557
0.100264
0.117677
0.134953
0.148569
0.15524
0.152619
0.138439
0.113163
0.0715696
0.0341522
0.0735497
0.0787907
0.0878222
0.0935119
0.0958337
0.0969679
0.0975707
0.0976617
0.0974558
0.0972
0.0969745
0.0968666
0.0968818
0.0968546
0.0968428
0.0969332
0.0969365
0.0967942
0.0967428
0.0968016
0.0968132
0.0966904
0.0964957
0.0963342
0.0962491
0.0962083
0.096161
0.0960849
0.0959843
0.0958737
0.0957662
0.0956696
0.0955855
0.095512
0.0954458
0.0953846
0.0953277
0.0952753
0.0952267
0.095181
0.095139
0.0951031
0.0950747
0.0950515
0.0950258
0.0949859
0.0949184
0.0948155
0.0946897
0.0945841
0.094562
0.0946899
0.0950202
0.0954829
0.0957736
0.0954327
0.0942884
0.0924407
0.0907019
0.0902919
0.091902
0.0958685
0.100712
0.102921
0.0990458
0.0887835
0.0782265
0.0744297
0.0785683
0.0881734
0.101394
0.116656
0.131446
0.142717
0.147623
0.144094
0.130051
0.105897
0.066859
0.0316231
0.0779286
0.0819998
0.0894871
0.0946882
0.0970202
0.098186
0.0988358
0.0989916
0.0988005
0.098441
0.0980208
0.0976356
0.0973372
0.0971334
0.0970252
0.097007
0.0969892
0.0968759
0.0967997
0.0968219
0.0968027
0.0966552
0.0964531
0.0963017
0.096232
0.0962036
0.0961662
0.096094
0.0959918
0.0958774
0.0957669
0.0956695
0.0955868
0.0955157
0.0954518
0.0953922
0.0953363
0.0952851
0.0952378
0.0951927
0.095151
0.0951166
0.0950923
0.0950743
0.0950523
0.0950109
0.094934
0.0948141
0.0946693
0.0945532
0.0945306
0.0946635
0.0950092
0.0954932
0.0958074
0.09551
0.0943934
0.092636
0.0910539
0.0907872
0.0924092
0.0959352
0.099998
0.101708
0.0984484
0.0903176
0.0819093
0.0788025
0.0824674
0.0910206
0.102577
0.115603
0.127963
0.137069
0.140437
0.136196
0.122401
0.0993655
0.0626769
0.029456
0.0819058
0.0851573
0.0913413
0.0960188
0.0983328
0.0995525
0.100272
0.100526
0.100421
0.100106
0.0996659
0.0991554
0.0986433
0.098175
0.0977761
0.0974855
0.0972832
0.0970861
0.0969338
0.0968872
0.0968485
0.0967124
0.0965069
0.0963291
0.0962327
0.096189
0.0961437
0.0960687
0.0959673
0.0958562
0.0957505
0.0956577
0.0955787
0.0955099
0.0954473
0.0953881
0.0953324
0.0952812
0.0952339
0.0951887
0.0951471
0.0951135
0.0950909
0.095075
0.0950547
0.0950142
0.0949367
0.0948151
0.0946673
0.0945452
0.0945198
0.0946575
0.0949987
0.0954537
0.0957317
0.0954516
0.0944585
0.0929934
0.0917763
0.091725
0.0933024
0.0963473
0.0996384
0.100924
0.0983241
0.0921356
0.0857687
0.0834496
0.0866148
0.0939379
0.103728
0.114572
0.124677
0.13185
0.133894
0.129086
0.115578
0.0935906
0.0590048
0.0276029
0.0855681
0.0882421
0.0933486
0.0974942
0.0997458
0.101005
0.101791
0.102152
0.102165
0.101957
0.101603
0.10114
0.100614
0.100052
0.0994856
0.0989663
0.098499
0.0980502
0.0976675
0.097407
0.0972045
0.096968
0.0967003
0.0964751
0.0963378
0.0962631
0.0961983
0.0961122
0.0960032
0.0958847
0.0957709
0.0956701
0.0955842
0.0955103
0.0954445
0.0953837
0.0953275
0.0952758
0.0952271
0.095181
0.0951403
0.0951081
0.0950861
0.0950706
0.0950519
0.0950158
0.0949486
0.0948469
0.0947316
0.094654
0.0946814
0.0948686
0.0952316
0.0956756
0.0959561
0.09578
0.0950464
0.0939918
0.0931994
0.0933696
0.0948447
0.0973717
0.0999244
0.100857
0.0988999
0.094393
0.089773
0.0881089
0.0906918
0.0967085
0.104771
0.113611
0.121706
0.127184
0.128084
0.122803
0.109577
0.0885378
0.0558085
0.0260117
0.0889869
0.0912492
0.0954659
0.099098
0.101258
0.102538
0.103369
0.103817
0.103946
0.103858
0.103623
0.103274
0.102842
0.102347
0.101808
0.101255
0.100694
0.100119
0.0995697
0.0990919
0.0986568
0.0982111
0.0977643
0.0973778
0.0970891
0.096879
0.0967027
0.0965303
0.0963558
0.0961876
0.0960355
0.0959053
0.0957967
0.0957061
0.0956287
0.0955608
0.0955013
0.0954444
0.0953891
0.0953433
0.0953106
0.095293
0.0952917
0.0953034
0.0953195
0.0953281
0.0953194
0.0952943
0.0952743
0.0953038
0.0954373
0.0957135
0.0961285
0.0965925
0.096915
0.0968871
0.0964518
0.095813
0.0954147
0.0957541
0.0970499
0.0990411
0.100933
0.101582
0.100154
0.0969392
0.0936315
0.0924234
0.0944274
0.0992138
0.105698
0.112764
0.119101
0.123098
0.123
0.117309
0.104341
0.0841452
0.0530484
0.0246357
0.09222
0.0941749
0.0976464
0.100802
0.102863
0.104156
0.105015
0.105527
0.105749
0.105769
0.105646
0.105415
0.1051
0.10472
0.10429
0.103825
0.10333
0.102803
0.102266
0.101745
0.101232
0.1007
0.100161
0.0996601
0.0992289
0.0988624
0.0985344
0.0982247
0.0979296
0.0976556
0.0974105
0.0971986
0.0970194
0.0968695
0.0967445
0.0966415
0.0965584
0.0964978
0.0964595
0.0964401
0.0964377
0.0964558
0.0964965
0.0965568
0.0966292
0.0967047
0.0967771
0.0968493
0.0969397
0.097082
0.0973141
0.0976577
0.0980969
0.0985546
0.0988938
0.0989774
0.098779
0.0984557
0.0983204
0.0987049
0.0997411
0.101213
0.102542
0.10295
0.101892
0.0995843
0.0971904
0.0962706
0.0977481
0.101442
0.106532
0.11205
0.116859
0.119561
0.118584
0.112531
0.0997955
0.0803465
0.0506877
0.0234395
0.0953162
0.0970208
0.099852
0.102579
0.104546
0.105852
0.106732
0.107294
0.107597
0.107707
0.107678
0.107545
0.107333
0.107061
0.106742
0.106387
0.106001
0.105585
0.105148
0.104705
0.104254
0.103783
0.103295
0.102821
0.102384
0.101986
0.101613
0.101256
0.100912
0.100588
0.100292
0.100028
0.0997981
0.0996016
0.0994365
0.0993016
0.0991972
0.0991328
0.0991046
0.0990945
0.0990994
0.0991256
0.0991763
0.0992491
0.0993383
0.0994373
0.0995427
0.0996574
0.099795
0.0999779
0.100229
0.100558
0.100946
0.101333
0.101627
0.101743
0.101669
0.101516
0.101496
0.101826
0.102585
0.103612
0.104498
0.104713
0.103894
0.102193
0.10041
0.0996564
0.100677
0.103432
0.10731
0.111484
0.11496
0.116521
0.114763
0.108389
0.0958668
0.0770853
0.0486964
0.0224026
0.0983192
0.0997915
0.102053
0.104403
0.106293
0.107613
0.108512
0.109119
0.109496
0.109691
0.109747
0.109699
0.109574
0.10939
0.109163
0.1089
0.10861
0.108295
0.10796
0.107615
0.10726
0.106889
0.106503
0.106121
0.105759
0.105421
0.105097
0.104782
0.104476
0.104182
0.103907
0.103657
0.103433
0.103236
0.103067
0.102925
0.102811
0.102728
0.102671
0.102634
0.102617
0.102622
0.102652
0.102703
0.102771
0.102852
0.102943
0.103047
0.103173
0.103335
0.103546
0.10381
0.104109
0.1044
0.104623
0.104722
0.104696
0.104618
0.104629
0.104871
0.105394
0.106077
0.106636
0.106703
0.106034
0.104733
0.103351
0.102683
0.103309
0.105262
0.108083
0.111076
0.113375
0.113922
0.111468
0.104816
0.0924994
0.0743236
0.047055
0.0215224
0.101269
0.10249
0.104222
0.106256
0.108093
0.109429
0.110344
0.110993
0.111443
0.111721
0.11186
0.111894
0.111851
0.111749
0.111601
0.111417
0.111205
0.110969
0.110716
0.110451
0.110177
0.109889
0.109592
0.109297
0.109013
0.108744
0.108485
0.108232
0.107984
0.107744
0.107517
0.107307
0.107116
0.106943
0.106791
0.106658
0.106544
0.106446
0.106365
0.106306
0.10627
0.106254
0.106257
0.106277
0.106312
0.106359
0.106417
0.106489
0.10658
0.1067
0.106857
0.107049
0.107263
0.107469
0.107625
0.107697
0.107683
0.107634
0.107642
0.107801
0.108138
0.108568
0.108889
0.108846
0.10827
0.107232
0.106111
0.10547
0.10575
0.107005
0.108893
0.110834
0.112081
0.111723
0.108652
0.101769
0.0896621
0.0720476
0.0457567
0.0208172
0.104207
0.105112
0.106334
0.108123
0.10994
0.111289
0.112217
0.112909
0.113431
0.113791
0.114013
0.114131
0.114171
0.114152
0.114083
0.113977
0.11384
0.113678
0.113496
0.1133
0.113091
0.112871
0.112642
0.112411
0.112186
0.11197
0.11176
0.111553
0.111348
0.111148
0.110957
0.110776
0.110608
0.110452
0.11031
0.11018
0.110062
0.109955
0.109865
0.109796
0.109746
0.109712
0.109693
0.109688
0.109697
0.109718
0.10975
0.109795
0.109858
0.109944
0.110058
0.110196
0.110348
0.110491
0.110598
0.110646
0.110634
0.110594
0.110588
0.110675
0.11087
0.111111
0.111254
0.111125
0.110604
0.109736
0.108779
0.108122
0.108086
0.108722
0.109773
0.110764
0.111065
0.109898
0.10629
0.0992343
0.0873555
0.0702736
0.044812
0.0203296
0.107177
0.107643
0.108362
0.109996
0.11183
0.113189
0.114125
0.114859
0.11545
0.115888
0.116188
0.116387
0.11651
0.116573
0.116587
0.116561
0.116503
0.116418
0.116312
0.116187
0.116048
0.115896
0.115734
0.115566
0.115399
0.115235
0.115073
0.114911
0.114749
0.114587
0.11443
0.11428
0.114137
0.114003
0.113877
0.113759
0.113648
0.113546
0.113455
0.113377
0.113312
0.113258
0.113215
0.113185
0.113165
0.113156
0.113158
0.113172
0.113201
0.113248
0.113315
0.1134
0.113494
0.11358
0.11364
0.113658
0.113633
0.113585
0.113552
0.11357
0.113647
0.113737
0.113741
0.113537
0.113041
0.112278
0.111414
0.110707
0.110374
0.11045
0.110742
0.110872
0.110325
0.108448
0.104393
0.097234
0.0856151
0.0690484
0.0442521
0.0201238
0.110229
0.110054
0.110283
0.111866
0.113754
0.115123
0.116073
0.116856
0.117519
0.118035
0.118414
0.118693
0.118897
0.11904
0.119133
0.119184
0.1192
0.119189
0.119153
0.119096
0.119021
0.11893
0.118827
0.118715
0.118597
0.118477
0.118354
0.118226
0.118093
0.117958
0.117823
0.117689
0.117556
0.117427
0.117304
0.117189
0.117079
0.116976
0.116879
0.11679
0.116712
0.116642
0.116582
0.116533
0.116493
0.116463
0.116443
0.116434
0.116439
0.116458
0.116492
0.11654
0.116593
0.116641
0.116669
0.116667
0.116632
0.116575
0.116518
0.11648
0.116462
0.116432
0.116321
0.116048
0.115554
0.114847
0.114023
0.113236
0.112618
0.112184
0.111792
0.111156
0.109872
0.107401
0.103006
0.0958253
0.0845036
0.0684416
0.0441298
0.0202715
0.113427
0.112278
0.112099
0.113753
0.115693
0.11705
0.118009
0.118841
0.119572
0.120161
0.120617
0.120978
0.121267
0.121498
0.121678
0.121816
0.121921
0.121996
0.122046
0.122073
0.122079
0.122069
0.122043
0.122004
0.121956
0.121901
0.121838
0.121766
0.121683
0.121593
0.121502
0.121409
0.121309
0.121202
0.121092
0.120983
0.120875
0.120766
0.12066
0.120557
0.12046
0.120369
0.120285
0.120208
0.120139
0.120079
0.120027
0.119986
0.119955
0.119936
0.119927
0.119928
0.119932
0.11993
0.119914
0.119874
0.119807
0.119716
0.11961
0.119497
0.119372
0.119213
0.118978
0.118614
0.11808
0.117371
0.116529
0.11563
0.114737
0.11385
0.11287
0.111596
0.109719
0.106801
0.102188
0.095071
0.0840804
0.0685167
0.0445212
0.0208183
0.116861
0.114157
0.113784
0.11573
0.117751
0.11909
0.120073
0.120966
0.121761
0.122411
0.122929
0.123352
0.123703
0.123995
0.124235
0.124432
0.124594
0.124725
0.124828
0.124905
0.124961
0.124997
0.125014
0.125017
0.125006
0.124983
0.124949
0.124903
0.12484
0.124762
0.124681
0.124598
0.124513
0.124425
0.124333
0.124237
0.124137
0.124036
0.123934
0.123834
0.123736
0.123641
0.12355
0.123465
0.123385
0.123311
0.123244
0.123183
0.123129
0.123081
0.123039
0.122999
0.122958
0.12291
0.122847
0.122764
0.122654
0.122516
0.122349
0.122152
0.121919
0.121636
0.121277
0.120813
0.120215
0.119469
0.11858
0.117568
0.116453
0.115223
0.113816
0.112092
0.10982
0.106632
0.101935
0.0949578
0.0843161
0.0692547
0.0454882
0.0217611
0.120712
0.115584
0.115092
0.117475
0.119588
0.120899
0.121921
0.122902
0.123797
0.12455
0.125176
0.125711
0.126177
0.126582
0.126937
0.127247
0.127521
0.12776
0.127969
0.128149
0.128302
0.128431
0.128538
0.128623
0.128689
0.128737
0.128767
0.12878
0.128782
0.128774
0.128749
0.128706
0.128645
0.128567
0.128473
0.128364
0.12824
0.128105
0.12796
0.127806
0.127646
0.127481
0.127313
0.127144
0.126975
0.126807
0.126641
0.126479
0.12632
0.126163
0.126009
0.125855
0.125698
0.125536
0.125362
0.125172
0.124961
0.124722
0.12445
0.12414
0.123784
0.123373
0.122893
0.122325
0.12165
0.120846
0.119899
0.118803
0.117553
0.116135
0.114504
0.112561
0.110113
0.106838
0.102176
0.0953836
0.085078
0.0704948
0.0470198
0.0230049
0.124829
0.117412
0.116827
0.119578
0.121736
0.122946
0.123885
0.12481
0.125653
0.126356
0.126939
0.127438
0.127872
0.128249
0.128577
0.128864
0.129118
0.129339
0.129529
0.12969
0.129825
0.129934
0.130019
0.130082
0.130124
0.130145
0.130148
0.130131
0.130097
0.130045
0.129973
0.12988
0.12977
0.129643
0.1295
0.129343
0.129172
0.12899
0.128798
0.1286
0.128396
0.128188
0.12798
0.127772
0.127566
0.127364
0.127166
0.126973
0.126786
0.126603
0.126423
0.126246
0.126068
0.125886
0.125696
0.125493
0.12527
0.125022
0.124742
0.124423
0.124058
0.123639
0.123155
0.122589
0.121923
0.121134
0.120204
0.119119
0.11787
0.116442
0.114797
0.112847
0.110418
0.107214
0.102698
0.0961558
0.0862175
0.0721674
0.0492448
0.0254052
)
;

boundaryField
{
    inlet
    {
        type            zeroGradient;
    }
    outlet
    {
        type            fixedValue;
        value           uniform 0;
    }
    fixedWalls
    {
        type            zeroGradient;
    }
    frontAndBack
    {
        type            empty;
    }
}


// ************************************************************************* //
