/*--------------------------------*- C++ -*----------------------------------*\
| =========                 |                                                 |
| \\      /  F ield         | OpenFOAM: The Open Source CFD Toolbox           |
|  \\    /   O peration     | Version:  v1912                                 |
|   \\  /    A nd           | Website:  www.openfoam.com                      |
|    \\/     M anipulation  |                                                 |
\*---------------------------------------------------------------------------*/
FoamFile
{
    version     2.0;
    format      ascii;
    class       surfaceScalarField;
    location    "500";
    object      phi;
}
// * * * * * * * * * * * * * * * * * * * * * * * * * * * * * * * * * * * * * //

dimensions      [0 3 -1 0 0 0 0];
oriented        oriented;


internalField   nonuniform List<scalar> 
3895
(
1.84644e-05
0.000371284
-4.74292e-05
6.58935e-05
-3.31726e-05
-1.42566e-05
-2.45207e-05
-8.65194e-06
-1.92502e-05
-5.27051e-06
-1.5844e-05
-3.40627e-06
-1.35869e-05
-2.25715e-06
-1.20509e-05
-1.53596e-06
-1.07774e-05
-1.27359e-06
-9.72372e-06
-1.05369e-06
-8.83215e-06
-8.91586e-07
-7.99225e-06
-8.39939e-07
-7.17627e-06
-8.16033e-07
-6.33512e-06
-8.41203e-07
-5.40856e-06
-9.26596e-07
-4.35836e-06
-1.05017e-06
-3.20415e-06
-1.15415e-06
-1.88225e-06
-1.32173e-06
-3.68112e-07
-1.51399e-06
1.27667e-06
-1.64458e-06
2.97046e-06
-1.69368e-06
4.66809e-06
-1.69753e-06
6.31727e-06
-1.64915e-06
7.82978e-06
-1.51244e-06
9.10426e-06
-1.27445e-06
1.00573e-05
-9.52972e-07
1.06573e-05
-5.99924e-07
1.09345e-05
-2.77181e-07
1.09632e-05
-2.86788e-08
1.08315e-05
1.31744e-07
1.06167e-05
2.14727e-07
1.03723e-05
2.44726e-07
1.01274e-05
2.45498e-07
9.8938e-06
2.34513e-07
9.67378e-06
2.21261e-07
9.46608e-06
2.0895e-07
9.26913e-06
1.98688e-07
9.08183e-06
1.88523e-07
8.90446e-06
1.79232e-07
8.73669e-06
1.68611e-07
8.57937e-06
1.58809e-07
8.43188e-06
1.47588e-07
8.29582e-06
1.36681e-07
8.17263e-06
1.22373e-07
8.06761e-06
1.04473e-07
7.98547e-06
8.05968e-08
7.93115e-06
5.29306e-08
7.90434e-06
2.52097e-08
7.89889e-06
4.37852e-09
7.90083e-06
-2.66956e-09
7.89473e-06
5.93868e-09
7.87437e-06
2.02484e-08
7.85746e-06
1.7172e-08
7.89185e-06
-3.41082e-08
8.04245e-06
-1.49865e-07
8.38869e-06
-3.4542e-07
9.03764e-06
-6.48108e-07
1.00412e-05
-1.00305e-06
1.13005e-05
-1.25942e-06
1.25572e-05
-1.25684e-06
1.34595e-05
-9.02542e-07
1.38586e-05
-3.98862e-07
1.56799e-05
-1.8211e-06
2.01735e-05
-4.49375e-06
1.50279e-05
5.14572e-06
-2.92632e-05
4.42918e-05
-0.000111993
8.27307e-05
-0.000183494
7.15023e-05
-0.000214269
3.07747e-05
-0.000209407
-4.8624e-06
-0.000184745
-2.46634e-05
-0.000149261
-3.54833e-05
-0.00010534
-4.39207e-05
-5.58598e-05
-4.94802e-05
-8.52702e-07
-5.5007e-05
5.52745e-05
-5.61278e-05
0.000103871
-4.85966e-05
0.000151485
-4.76134e-05
0.000188767
-3.72822e-05
-6.33573e-05
0.000236351
0.000524681
3.93401e-05
0.000262904
-4.12015e-05
6.6285e-05
-4.20865e-05
-7.76701e-06
-3.66905e-05
-1.06665e-05
-3.17335e-05
-8.36334e-06
-2.81334e-05
-5.85726e-06
-2.56207e-05
-4.04878e-06
-2.35068e-05
-3.38755e-06
-2.16827e-05
-2.87778e-06
-2.0096e-05
-2.47833e-06
-1.8585e-05
-2.3509e-06
-1.70974e-05
-2.30367e-06
-1.55661e-05
-2.37257e-06
-1.39129e-05
-2.57975e-06
-1.20739e-05
-2.88914e-06
-1.00803e-05
-3.14752e-06
-7.85459e-06
-3.54712e-06
-5.34378e-06
-4.02437e-06
-2.60859e-06
-4.3793e-06
2.60908e-07
-4.56276e-06
3.18935e-06
-4.62559e-06
6.12219e-06
-4.58168e-06
8.98564e-06
-4.37557e-06
1.16612e-05
-3.94972e-06
1.40152e-05
-3.30671e-06
1.59457e-05
-2.53014e-06
1.7413e-05
-1.74436e-06
1.84414e-05
-1.05695e-06
1.90979e-05
-5.2485e-07
1.94663e-05
-1.53463e-07
1.96292e-05
8.24202e-08
1.96548e-05
2.21098e-07
1.95909e-05
3.00249e-07
1.94669e-05
3.47391e-07
1.93006e-05
3.77965e-07
1.91031e-05
3.98814e-07
1.8883e-05
4.11495e-07
1.86473e-05
4.17311e-07
1.84019e-05
4.16217e-07
1.81516e-05
4.10489e-07
1.78997e-05
4.00235e-07
1.76498e-05
3.86418e-07
1.74062e-05
3.64802e-07
1.7177e-05
3.3186e-07
1.69712e-05
2.83816e-07
1.67979e-05
2.23571e-07
1.66605e-05
1.60152e-07
1.65524e-05
1.11009e-07
1.64538e-05
9.53498e-08
1.63372e-05
1.22688e-07
1.61829e-05
1.75191e-07
1.59989e-05
2.02372e-07
1.58283e-05
1.38159e-07
1.57244e-05
-4.34895e-08
1.57437e-05
-3.62052e-07
1.59476e-05
-8.49266e-07
1.63064e-05
-1.36006e-06
1.67552e-05
-1.70803e-06
1.72904e-05
-1.79313e-06
1.78008e-05
-1.41466e-06
1.77807e-05
-3.80704e-07
1.74467e-05
-1.48931e-06
2.82975e-06
1.01211e-05
-5.47984e-05
6.27735e-05
-0.000145873
0.000135367
-0.000213824
0.000150682
-0.000227205
8.48843e-05
-0.000206015
9.58393e-06
-0.000176359
-3.45214e-05
-0.00014165
-5.93727e-05
-9.86171e-05
-7.85151e-05
-4.88765e-05
-9.36595e-05
7.48684e-06
-0.000105842
6.50646e-05
-0.000112584
0.000119213
-0.000110277
0.000170905
-0.000100289
0.000217554
-9.42625e-05
0.000263652
-8.33814e-05
-0.000113113
0.000350324
0.000564105
0.000204328
0.0004089
4.91688e-05
0.000221444
-2.73108e-05
6.87125e-05
-3.93046e-05
1.32723e-06
-3.84865e-05
-9.18149e-06
-3.5187e-05
-9.15683e-06
-3.27537e-05
-6.4821e-06
-3.07103e-05
-5.43094e-06
-2.88847e-05
-4.70347e-06
-2.73114e-05
-4.05161e-06
-2.58215e-05
-3.8409e-06
-2.43717e-05
-3.75353e-06
-2.29103e-05
-3.83398e-06
-2.13789e-05
-4.11118e-06
-1.96805e-05
-4.58756e-06
-1.78793e-05
-4.94858e-06
-1.58961e-05
-5.53008e-06
-1.36245e-05
-6.29581e-06
-1.10961e-05
-6.90748e-06
-8.40195e-06
-7.25682e-06
-5.57976e-06
-7.44775e-06
-2.62441e-06
-7.53698e-06
4.40859e-07
-7.44076e-06
3.51823e-06
-7.02695e-06
6.47541e-06
-6.26368e-06
9.18619e-06
-5.24068e-06
1.15601e-05
-4.11794e-06
1.35585e-05
-3.05517e-06
1.51852e-05
-2.15136e-06
1.64753e-05
-1.44319e-06
1.74798e-05
-9.2127e-07
1.82488e-05
-5.46345e-07
1.88255e-05
-2.74419e-07
1.92453e-05
-7.00212e-08
1.95363e-05
8.9678e-08
1.97214e-05
2.16253e-07
1.98195e-05
3.16348e-07
1.98452e-05
3.93692e-07
1.98111e-05
4.52663e-07
1.97261e-05
4.96551e-07
1.95973e-05
5.30142e-07
1.94288e-05
5.54496e-07
1.92257e-05
5.67232e-07
1.89939e-05
5.61708e-07
1.87415e-05
5.34051e-07
1.84763e-05
4.86043e-07
1.82038e-05
4.30406e-07
1.79219e-05
3.91247e-07
1.76171e-05
3.99667e-07
1.72639e-05
4.75322e-07
1.68342e-05
6.04924e-07
1.63061e-05
7.30184e-07
1.56538e-05
7.90987e-07
1.47726e-05
8.38397e-07
1.34328e-05
9.78826e-07
1.13346e-05
1.24936e-06
8.29495e-06
1.67913e-06
4.7723e-06
1.81306e-06
1.99687e-06
9.80276e-07
8.79381e-07
-2.98635e-07
-4.4996e-07
9.47811e-07
-1.31278e-05
1.11883e-05
-5.62053e-05
5.31987e-05
-0.000125526
0.000132094
-0.000182275
0.000192117
-0.000187199
0.000155607
-0.000152209
4.98964e-05
-0.000120841
-2.17845e-05
-9.20136e-05
-6.33515e-05
-5.72384e-05
-9.41494e-05
-1.56804e-05
-0.000120072
3.32515e-05
-0.000142591
8.53599e-05
-0.000157951
0.000136143
-0.000163368
0.000183941
-0.000158075
0.000228532
-0.000144881
0.000267942
-0.000133672
0.000307514
-0.000122953
-0.000149218
0.000400008
0.000553846
0.000331993
0.000476915
0.000198794
0.000354643
6.3656e-05
0.00020385
-1.28817e-05
7.78649e-05
-3.38809e-05
1.18177e-05
-3.64863e-05
-6.55143e-06
-3.55179e-05
-7.45062e-06
-3.44081e-05
-6.54075e-06
-3.31087e-05
-6.00284e-06
-3.20229e-05
-5.13748e-06
-3.10099e-05
-4.85394e-06
-3.00503e-05
-4.71316e-06
-2.91311e-05
-4.75317e-06
-2.8242e-05
-5.00033e-06
-2.72118e-05
-5.61766e-06
-2.61722e-05
-5.98811e-06
-2.50509e-05
-6.65131e-06
-2.36582e-05
-7.6883e-06
-2.19896e-05
-8.57586e-06
-2.01363e-05
-9.10985e-06
-1.81125e-05
-9.47134e-06
-1.58516e-05
-9.79765e-06
-1.33035e-05
-9.98865e-06
-1.05015e-05
-9.82873e-06
-7.56809e-06
-9.19674e-06
-4.65806e-06
-8.1504e-06
-1.90319e-06
-6.8725e-06
6.10232e-07
-5.56848e-06
2.84946e-06
-4.3905e-06
4.81132e-06
-3.40479e-06
6.50517e-06
-2.61425e-06
7.95177e-06
-1.99137e-06
9.17553e-06
-1.49592e-06
1.02009e-05
-1.09248e-06
1.10503e-05
-7.56544e-07
1.17432e-05
-4.73093e-07
1.2296e-05
-2.33058e-07
1.27227e-05
-2.98807e-08
1.30354e-05
1.4244e-07
1.32431e-05
2.90588e-07
1.33509e-05
4.22915e-07
1.33598e-05
5.44868e-07
1.32686e-05
6.56775e-07
1.3074e-05
7.53557e-07
1.27729e-05
8.31831e-07
1.23639e-05
8.91748e-07
1.18499e-05
9.417e-07
1.12385e-05
1.00117e-06
1.0536e-05
1.10161e-06
9.73444e-06
1.27693e-06
8.78955e-06
1.55022e-06
7.58409e-06
1.93639e-06
5.86269e-06
2.51371e-06
3.10859e-06
3.5943e-06
-1.62005e-06
5.7095e-06
-9.31142e-06
8.94204e-06
-1.93677e-05
1.17359e-05
-2.91718e-05
1.16171e-05
-3.6256e-05
8.06399e-06
-4.09524e-05
4.39717e-06
-4.83747e-05
8.36939e-06
-6.98888e-05
3.27014e-05
-0.000108682
9.19913e-05
-0.000145566
0.000168978
-0.000148157
0.000194707
-0.000107316
0.000114767
-6.27904e-05
5.37337e-06
-3.85065e-05
-4.607e-05
-9.90748e-06
-9.19541e-05
2.53135e-05
-0.000129372
6.77168e-05
-0.000162474
0.000114315
-0.000189188
0.000161458
-0.000205093
0.000206026
-0.000207936
0.000246519
-0.000198568
0.000283017
-0.000181379
0.000314517
-0.000165172
0.00034558
-0.000154016
-0.000173948
0.000415382
0.000528212
0.000404234
0.000488062
0.000330691
0.000428186
0.000210209
0.000324333
8.73939e-05
0.00020068
6.20294e-06
9.30087e-05
-2.47912e-05
2.44427e-05
-3.17027e-05
-5.39169e-07
-3.40955e-05
-4.14794e-06
-3.42986e-05
-5.79983e-06
-3.43051e-05
-5.1309e-06
-3.4142e-05
-5.01715e-06
-3.39625e-05
-4.89267e-06
-3.38231e-05
-4.89262e-06
-3.38317e-05
-4.99174e-06
-3.36875e-05
-5.76189e-06
-3.36399e-05
-6.03567e-06
-3.36629e-05
-6.62815e-06
-3.34486e-05
-7.90251e-06
-3.29559e-05
-9.06856e-06
-3.23078e-05
-9.75793e-06
-3.1505e-05
-1.02741e-05
-3.04071e-05
-1.08956e-05
-2.88777e-05
-1.15181e-05
-2.68959e-05
-1.18104e-05
-2.45656e-05
-1.1527e-05
-2.20483e-05
-1.06675e-05
-1.94964e-05
-9.42418e-06
-1.70219e-05
-8.04283e-06
-1.46948e-05
-6.71734e-06
-1.25495e-05
-5.54976e-06
-1.05971e-05
-4.5658e-06
-8.83988e-06
-3.7472e-06
-7.27482e-06
-3.05903e-06
-5.89591e-06
-2.46891e-06
-4.69585e-06
-1.9538e-06
-3.66713e-06
-1.4987e-06
-2.80378e-06
-1.09346e-06
-2.10109e-06
-7.29658e-07
-1.55661e-06
-3.99938e-07
-1.16875e-06
-9.56357e-08
-9.41317e-07
1.95742e-07
-8.84336e-07
4.87372e-07
-1.01703e-06
7.87581e-07
-1.36549e-06
1.09949e-06
-1.9599e-06
1.42302e-06
-2.82364e-06
1.75256e-06
-3.959e-06
2.07481e-06
-5.33653e-06
2.37758e-06
-6.90799e-06
2.67246e-06
-8.65657e-06
3.0252e-06
-1.07101e-05
3.60317e-06
-1.35448e-05
4.77066e-06
-1.81929e-05
7.16137e-06
-2.60988e-05
1.14998e-05
-3.82791e-05
1.78893e-05
-5.4082e-05
2.47445e-05
-7.08518e-05
2.85051e-05
-8.50849e-05
2.58497e-05
-9.43968e-05
1.73755e-05
-9.91472e-05
9.14726e-06
-0.000103348
1.25701e-05
-0.000112897
4.22504e-05
-0.000123987
0.000103081
-0.000117964
0.000162955
-7.8525e-05
0.00015527
-1.36947e-05
4.9941e-05
9.03998e-06
-1.7357e-05
3.91196e-05
-7.615e-05
7.14048e-05
-0.000124241
0.000109029
-0.000166996
0.000151326
-0.000204771
0.000194887
-0.000232749
0.000236253
-0.000246459
0.000273194
-0.000244877
0.000305082
-0.000230456
0.00033256
-0.000208858
0.00035556
-0.000188171
0.000377435
-0.00017589
-0.000188969
0.000416474
0.000501486
0.000433793
0.000470743
0.000415043
0.000446936
0.00034514
0.000394236
0.00023739
0.00030843
0.000123579
0.000206819
3.46014e-05
0.00011342
-1.05197e-05
4.45819e-05
-2.40926e-05
9.42491e-06
-2.97532e-05
-1.39241e-07
-3.25095e-05
-2.3746e-06
-3.39615e-05
-3.5651e-06
-3.50328e-05
-3.8214e-06
-3.58554e-05
-4.07005e-06
-3.69152e-05
-3.93198e-06
-3.772e-05
-4.95714e-06
-3.8693e-05
-5.0627e-06
-3.99584e-05
-5.36271e-06
-4.10422e-05
-6.81869e-06
-4.18588e-05
-8.25192e-06
-4.26191e-05
-8.99754e-06
-4.33403e-05
-9.55291e-06
-4.37987e-05
-1.04372e-05
-4.37528e-05
-1.15639e-05
-4.31138e-05
-1.24493e-05
-4.19627e-05
-1.26779e-05
-4.04618e-05
-1.21683e-05
-3.87697e-05
-1.11161e-05
-3.70066e-05
-9.80588e-06
-3.52513e-05
-8.47267e-06
-3.35508e-05
-7.25005e-06
-3.19342e-05
-6.18211e-06
-3.04218e-05
-5.25902e-06
-2.90295e-05
-4.45029e-06
-2.77706e-05
-3.72652e-06
-2.66561e-05
-3.06682e-06
-2.56961e-05
-2.457e-06
-2.4902e-05
-1.88596e-06
-2.42873e-05
-1.34292e-06
-2.38681e-05
-8.18105e-07
-2.36641e-05
-2.98915e-07
-2.37025e-05
2.33969e-07
-2.40178e-05
8.02298e-07
-2.46596e-05
1.4281e-06
-2.56908e-05
2.12923e-06
-2.71729e-05
2.90337e-06
-2.91446e-05
3.72266e-06
-3.16042e-05
4.53334e-06
-3.45149e-05
5.28776e-06
-3.78563e-05
6.01364e-06
-4.17247e-05
6.89341e-06
-4.64619e-05
8.34034e-06
-5.27678e-05
1.10764e-05
-6.16548e-05
1.60483e-05
-7.40049e-05
2.38498e-05
-8.97199e-05
3.36043e-05
-0.00010709
4.21152e-05
-0.00012308
4.44949e-05
-0.000134427
3.7197e-05
-0.000139167
2.21159e-05
-0.000137339
7.31873e-06
-0.000130618
5.84957e-06
-0.000120024
3.16555e-05
-0.000100567
8.36237e-05
-6.01843e-05
0.000122572
8.22136e-06
8.68653e-05
5.07453e-05
7.42022e-06
8.63375e-05
-5.29479e-05
0.000118782
-0.000108595
0.000154739
-0.0001602
0.000194821
-0.000207079
0.000235876
-0.000245826
0.000274294
-0.000271167
0.000307679
-0.000279844
0.000335202
-0.000272399
0.00035734
-0.000252594
0.000375316
-0.000226834
0.000389695
-0.000202551
0.000402632
-0.000188826
-0.000195764
0.000414535
0.000476699
0.000440084
0.000445195
0.000454053
0.000432966
0.000435063
0.000413226
0.00037397
0.000369523
0.000279842
0.000300948
0.000174335
0.000218927
8.05037e-05
0.000138413
1.70778e-05
7.28508e-05
-1.16711e-05
2.86097e-05
-2.11334e-05
7.08771e-06
-2.72688e-05
2.5703e-06
-3.09835e-05
-1.06723e-07
-3.3371e-05
-1.68255e-06
-3.58921e-05
-1.41092e-06
-3.77675e-05
-3.08176e-06
-3.96912e-05
-3.13895e-06
-4.21922e-05
-2.8617e-06
-4.45728e-05
-4.43808e-06
-4.66571e-05
-6.16764e-06
-4.8841e-05
-6.81373e-06
-5.12247e-05
-7.16935e-06
-5.34947e-05
-8.16718e-06
-5.52822e-05
-9.77645e-06
-5.64244e-05
-1.1307e-05
-5.6983e-05
-1.21192e-05
-5.71152e-05
-1.2036e-05
-5.69658e-05
-1.12654e-05
-5.66354e-05
-1.01362e-05
-5.61879e-05
-8.92004e-06
-5.56659e-05
-7.77184e-06
-5.51045e-05
-6.74316e-06
-5.45384e-05
-5.82471e-06
-5.40025e-05
-4.98547e-06
-5.35311e-05
-4.19707e-06
-5.3156e-05
-3.44102e-06
-5.29074e-05
-2.70462e-06
-5.28172e-05
-1.97525e-06
-5.29218e-05
-1.23762e-06
-5.32641e-05
-4.75088e-07
-5.38848e-05
3.21996e-07
-5.48219e-05
1.17119e-06
-5.61359e-05
2.11594e-06
-5.79104e-05
3.20206e-06
-6.02337e-05
4.45156e-06
-6.31797e-05
5.84827e-06
-6.67799e-05
7.32187e-06
-7.10012e-05
8.7539e-06
-7.57467e-05
1.00328e-05
-8.09033e-05
1.11699e-05
-8.64335e-05
1.24233e-05
-9.24698e-05
1.43762e-05
-9.93572e-05
1.79631e-05
-0.000107555
2.42457e-05
-0.000117262
3.35557e-05
-0.000127813
4.41548e-05
-0.000137456
5.17582e-05
-0.000144038
5.10772e-05
-0.000145824
3.89817e-05
-0.000142071
1.83623e-05
-0.000133017
-1.73502e-06
-0.000117096
-1.00721e-05
-9.06002e-05
5.15895e-06
-4.83842e-05
4.14067e-05
1.67246e-05
5.74635e-05
8.04983e-05
2.30934e-05
0.000123316
-3.53954e-05
0.000163206
-9.28363e-05
0.000202762
-0.000148151
0.000243471
-0.000200911
0.000283506
-0.000247114
0.000319629
-0.000281949
0.000349538
-0.000301076
0.000372551
-0.000302857
0.000389319
-0.000289167
0.000401262
-0.000264537
0.000409959
-0.000235532
0.000416242
-0.000208834
0.000421208
-0.000193792
-0.000195847
0.000413776
0.000452671
0.000438595
0.000420376
0.000464388
0.000407173
0.000477906
0.000399709
0.000463827
0.000383601
0.000415005
0.000349769
0.000336446
0.000297486
0.000241732
0.000233127
0.000148212
0.000166372
7.04559e-05
0.000106365
1.84478e-05
5.90959e-05
-6.21012e-06
2.72282e-05
-1.57498e-05
9.43298e-06
-2.25511e-05
5.11871e-06
-2.80538e-05
4.09176e-06
-3.15638e-05
4.28158e-07
-3.46281e-05
-7.47087e-08
-3.84611e-05
9.71322e-07
-4.21097e-05
-7.89464e-07
-4.52435e-05
-3.03389e-06
-4.86136e-05
-3.44378e-06
-5.25304e-05
-3.25253e-06
-5.65958e-05
-4.10182e-06
-6.02905e-05
-6.08169e-06
-6.33784e-05
-8.21906e-06
-6.59174e-05
-9.58007e-06
-6.80673e-05
-9.88609e-06
-6.99423e-05
-9.39031e-06
-7.15943e-05
-8.48411e-06
-7.30452e-05
-7.4691e-06
-7.43143e-05
-6.50265e-06
-7.54317e-05
-5.62555e-06
-7.644e-05
-4.81614e-06
-7.73889e-05
-4.03616e-06
-7.83289e-05
-3.25646e-06
-7.93067e-05
-2.46243e-06
-8.03654e-05
-1.64511e-06
-8.1546e-05
-7.93876e-07
-8.28846e-05
1.01622e-07
-8.44049e-05
1.04582e-06
-8.61368e-05
2.05418e-06
-8.81291e-05
3.16344e-06
-9.04359e-05
4.42243e-06
-9.31159e-05
5.88137e-06
-9.62235e-05
7.55819e-06
-9.97835e-05
9.40706e-06
-0.00010376
1.12978e-05
-0.000108034
1.30263e-05
-0.000112389
1.43876e-05
-0.00011655
1.53301e-05
-0.000120247
1.61199e-05
-0.000123277
1.74055e-05
-0.000125489
2.01753e-05
-0.000126716
2.54718e-05
-0.000126601
3.344e-05
-0.000124377
4.19303e-05
-0.000118753
4.61347e-05
-0.000109194
4.15182e-05
-9.64642e-05
2.62509e-05
-8.24035e-05
4.30054e-06
-7.03887e-05
-1.37507e-05
-5.55422e-05
-2.49191e-05
-2.71829e-05
-2.32012e-05
2.82534e-05
-1.403e-05
9.61825e-05
-1.04649e-05
0.000156506
-3.72285e-05
0.000206893
-8.57814e-05
0.000253604
-0.000139546
0.000297594
-0.000192141
0.000337544
-0.000240862
0.000371606
-0.000281176
0.00039805
-0.000308393
0.000416413
-0.000319438
0.000427602
-0.000314046
0.000433361
-0.000294925
0.000435631
-0.000266808
0.000436034
-0.000235935
0.000435335
-0.000208136
0.000433769
-0.000192226
-0.000190732
0.000414443
0.000427976
0.000437331
0.000397488
0.000463446
0.000381058
0.000489422
0.000373733
0.000505103
0.00036792
0.000499091
0.000355781
0.000465085
0.000331493
0.000404461
0.000293751
0.000325086
0.000245747
0.000238298
0.000193153
0.000155647
0.000141747
8.65146e-05
9.63603e-05
3.59327e-05
6.00149e-05
7.1264e-06
3.3925e-05
-6.04739e-06
1.72655e-05
-1.35588e-05
7.93956e-06
-1.9987e-05
6.35349e-06
-2.60385e-05
7.02274e-06
-3.10519e-05
4.22393e-06
-3.5108e-05
1.02216e-06
-3.94074e-05
8.55509e-07
-4.44931e-05
1.83311e-06
-4.99762e-05
1.38129e-06
-5.52561e-05
-8.01769e-07
-6.00381e-05
-3.43695e-06
-6.43908e-05
-5.22719e-06
-6.84867e-05
-5.79009e-06
-7.2388e-05
-5.48887e-06
-7.60657e-05
-4.80625e-06
-7.94773e-05
-4.05734e-06
-8.2607e-05
-3.37281e-06
-8.54727e-05
-2.75967e-06
-8.8117e-05
-2.17149e-06
-9.05933e-05
-1.55942e-06
-9.29527e-05
-8.96557e-07
-9.52347e-05
-1.79717e-07
-9.74623e-05
5.83115e-07
-9.9649e-05
1.39343e-06
-0.000101812
2.26541e-06
-0.000103975
3.20951e-06
-0.000106151
4.23024e-06
-0.000108334
5.34602e-06
-0.000110517
6.60506e-06
-0.000112696
8.05993e-06
-0.00011486
9.72112e-06
-0.000116969
1.15147e-05
-0.000118933
1.32611e-05
-0.000120595
1.4687e-05
-0.000121709
1.5501e-05
-0.000121936
1.55559e-05
-0.000120863
1.50468e-05
-0.000118037
1.45789e-05
-0.000112894
1.50307e-05
-0.000104765
1.73417e-05
-9.29429e-05
2.1617e-05
-7.70905e-05
2.60772e-05
-5.6325e-05
2.53688e-05
-3.09114e-05
1.61036e-05
-5.5534e-06
8.90984e-07
1.44781e-05
-1.57329e-05
3.59098e-05
-3.51833e-05
6.17152e-05
-5.07251e-05
9.73872e-05
-5.88739e-05
0.000145768
-6.24116e-05
0.000205119
-6.98156e-05
0.000262793
-9.49015e-05
0.000313925
-0.000136912
0.000359245
-0.000184866
0.000398326
-0.000231222
0.000429623
-0.000272159
0.000452084
-0.000303637
0.000465558
-0.000321867
0.00047107
-0.00032495
0.000470569
-0.000313545
0.000466326
-0.000290681
0.000460358
-0.00026084
0.000454043
-0.00022962
0.000447859
-0.000201952
0.000441392
-0.00018576
-0.000181833
0.000415603
0.000402121
0.000438131
0.00037496
0.000461828
0.000357362
0.000488331
0.000347229
0.000514803
0.000341448
0.000534014
0.00033657
0.000537512
0.000327995
0.000519509
0.000311754
0.000478917
0.000286339
0.000419245
0.000252825
0.000346981
0.000214012
0.000269982
0.000173359
0.000195737
0.00013426
0.00013045
9.92116e-05
7.79483e-05
6.97674e-05
3.91931e-05
4.66947e-05
1.53935e-05
3.01531e-05
3.29333e-06
1.91229e-05
-4.40354e-06
1.19208e-05
-1.1333e-05
7.95148e-06
-1.78026e-05
7.32505e-06
-2.40671e-05
8.09749e-06
-3.02996e-05
7.61373e-06
-3.63634e-05
5.26209e-06
-4.2199e-05
2.39888e-06
-4.79195e-05
4.93565e-07
-5.35493e-05
-1.60003e-07
-5.90028e-05
-3.51816e-08
-6.41539e-05
3.45044e-07
-6.89048e-05
6.93844e-07
-7.32225e-05
9.45105e-07
-7.7125e-05
1.14307e-06
-8.06583e-05
1.36207e-06
-8.3874e-05
1.65679e-06
-8.6814e-05
2.04408e-06
-8.95042e-05
2.51126e-06
-9.19561e-05
3.03588e-06
-9.41684e-05
3.60653e-06
-9.61314e-05
4.22905e-06
-9.78255e-05
4.90424e-06
-9.92106e-05
5.6155e-06
-0.000100223
6.35833e-06
-0.000100788
7.16979e-06
-0.000100834
8.10518e-06
-0.00010029
9.17493e-06
-9.90753e-05
1.02985e-05
-9.71027e-05
1.12868e-05
-9.4269e-05
1.18517e-05
-9.04415e-05
1.16718e-05
-8.53935e-05
1.0506e-05
-7.87833e-05
8.4344e-06
-7.02059e-05
5.99932e-06
-5.89176e-05
3.74045e-06
-4.39217e-05
2.344e-06
-2.40076e-05
1.7016e-06
2.45406e-06
-3.85335e-07
3.30272e-05
-5.20538e-06
6.4154e-05
-1.50244e-05
9.52725e-05
-3.02284e-05
0.000127942
-4.8403e-05
0.000161204
-6.84458e-05
0.000197078
-8.65993e-05
0.000238066
-9.98618e-05
0.000285281
-0.000109626
0.00033722
-0.000121755
0.000387145
-0.000144826
0.000430286
-0.000180053
0.000465602
-0.000220182
0.000492455
-0.000258075
0.00050998
-0.000289685
0.000518131
-0.000311789
0.000517961
-0.000321697
0.000511414
-0.000318403
0.000500886
-0.000303017
0.000488666
-0.000278461
0.000476496
-0.00024867
0.000465333
-0.000218458
0.000455265
-0.000191884
0.00044545
-0.000175945
-0.000170347
0.000416574
0.000375295
0.000440011
0.000351522
0.000462633
0.00033474
0.000486578
0.000323284
0.000512833
0.000315193
0.000539694
0.000309709
0.000562449
0.00030524
0.000575076
0.000299127
0.000572575
0.000288841
0.000552494
0.000272905
0.000515301
0.000251205
0.000463902
0.000224758
0.000402769
0.000195393
0.000336904
0.000165077
0.00027113
0.000135541
0.000209483
0.000108342
0.000155118
8.45179e-05
0.000109926
6.43152e-05
7.40439e-05
4.78026e-05
4.6934e-05
3.50614e-05
2.84661e-05
2.57929e-05
1.7196e-05
1.93676e-05
9.86498e-06
1.49448e-05
3.3595e-06
1.17678e-05
-3.71656e-06
9.47529e-06
-1.11561e-05
7.93349e-06
-1.83568e-05
7.04109e-06
-2.49526e-05
6.561e-06
-3.08221e-05
6.21487e-06
-3.59685e-05
5.8406e-06
-4.0443e-05
5.41998e-06
-4.4318e-05
5.01835e-06
-4.76656e-05
4.71014e-06
-5.05427e-05
4.53462e-06
-5.29822e-05
4.4846e-06
-5.49937e-05
4.52399e-06
-5.65656e-05
4.60908e-06
-5.76687e-05
4.71101e-06
-5.82716e-05
4.83294e-06
-5.83319e-05
4.96537e-06
-5.77761e-05
5.0599e-06
-5.64937e-05
5.07564e-06
-5.43492e-05
5.02419e-06
-5.11994e-05
4.95377e-06
-4.68926e-05
4.86602e-06
-4.1273e-05
4.67667e-06
-3.42052e-05
4.21682e-06
-2.55936e-05
3.23821e-06
-1.54141e-05
1.49035e-06
-3.7845e-06
-1.12601e-06
9.28039e-06
-4.633e-06
2.44022e-05
-9.12459e-06
4.23779e-05
-1.42368e-05
6.42534e-05
-1.95326e-05
9.09596e-05
-2.50052e-05
0.000122183
-3.16093e-05
0.000157418
-4.044e-05
0.00019513
-5.27373e-05
0.000233759
-6.88583e-05
0.000272863
-8.75068e-05
0.000311526
-0.000107109
0.000349957
-0.00012503
0.000389206
-0.000139111
0.000429809
-0.00015023
0.000470644
-0.00016259
0.000507703
-0.000181884
0.000537177
-0.000209526
0.000557705
-0.00024071
0.000569111
-0.000269481
0.00057152
-0.000292094
0.000565812
-0.000306081
0.000553755
-0.00030964
0.000537639
-0.000302286
0.000519794
-0.000285172
0.00050216
-0.000260827
0.000485998
-0.000232508
0.000471799
-0.000204259
0.000459281
-0.000179366
0.000447381
-0.000164045
-0.000157172
0.000417187
0.000347856
0.000441803
0.000326907
0.000464911
0.000311632
0.00048762
0.000300575
0.00051125
0.000291563
0.00053672
0.000284239
0.000563341
0.000278619
0.000588461
0.000274006
0.000608206
0.000269097
0.000618688
0.000262422
0.000617096
0.000252797
0.000602226
0.000239628
0.000574573
0.000223046
0.000535961
0.000203689
0.000489025
0.000182477
0.000436837
0.00016053
0.000382467
0.000138888
0.000328566
0.000118216
0.000277282
9.90866e-05
0.000230277
8.20664e-05
0.000188693
6.73768e-05
0.000153159
5.4901e-05
0.000123676
4.44279e-05
9.96598e-05
3.57841e-05
8.03052e-05
2.883e-05
6.48706e-05
2.33682e-05
5.27679e-05
1.91439e-05
4.34285e-05
1.59006e-05
3.62415e-05
1.34021e-05
3.06305e-05
1.14519e-05
2.61491e-05
9.90164e-06
2.25201e-05
8.64768e-06
1.96145e-05
7.61626e-06
1.7402e-05
6.74784e-06
1.59021e-05
5.98564e-06
1.51496e-05
5.27797e-06
1.51891e-05
4.57116e-06
1.60452e-05
3.85624e-06
1.77068e-05
3.17253e-06
2.02089e-05
2.46405e-06
2.36493e-05
1.61971e-06
2.81237e-05
6.0087e-07
3.3751e-05
-6.04146e-07
4.0741e-05
-2.03756e-06
4.93672e-05
-3.76162e-06
5.98946e-05
-5.85214e-06
7.25344e-05
-8.42397e-06
8.74088e-05
-1.16371e-05
0.000104567
-1.56685e-05
0.000124079
-2.06391e-05
0.000146028
-2.6582e-05
0.000170369
-3.34664e-05
0.000197196
-4.10643e-05
0.000226741
-4.90781e-05
0.000259195
-5.746e-05
0.000294281
-6.66955e-05
0.000331362
-7.75211e-05
0.000369288
-9.06639e-05
0.000406712
-0.000106282
0.000442648
-0.000123443
0.000476179
-0.000140641
0.000507117
-0.000155968
0.000536038
-0.000168033
0.000563363
-0.000177554
0.000588388
-0.000187614
0.000608644
-0.000202139
0.000621489
-0.000222371
0.000625944
-0.000245165
0.000622344
-0.000265881
0.000611535
-0.000281286
0.000594904
-0.00028945
0.000574387
-0.000289123
0.000552119
-0.000280018
0.000530015
-0.000263068
0.000509481
-0.000240293
0.000491274
-0.000214301
0.000475491
-0.000188476
0.00046159
-0.000165465
0.000448463
-0.000150918
-0.000142883
0.00041755
0.000320054
0.00044308
0.000301377
0.00046718
0.000287532
0.000490256
0.0002775
0.000512826
0.000268992
0.000535823
0.000261243
0.000560061
0.00025438
0.000585566
0.000248501
0.000611231
0.000243431
0.000634962
0.000238692
0.000654196
0.000233563
0.000666538
0.000227286
0.000670287
0.000219296
0.000664655
0.000209321
0.000649744
0.000197389
0.000626448
0.000183826
0.000596221
0.000169115
0.000560726
0.000153712
0.000521702
0.00013811
0.000480906
0.000122863
0.000439905
0.000108377
0.000399972
9.48347e-05
0.000362082
8.2318e-05
0.000326937
7.09291e-05
0.000294998
6.07685e-05
0.00026651
5.18569e-05
0.000241536
4.41175e-05
0.000220018
3.74189e-05
0.000201803
3.16174e-05
0.000186674
2.65802e-05
0.000174386
2.21902e-05
0.000164689
1.83442e-05
0.000157358
1.49478e-05
0.000152194
1.19116e-05
0.000149032
9.1484e-06
0.000147733
6.57693e-06
0.000148186
4.11867e-06
0.00015029
1.753e-06
0.000154034
-5.71718e-07
0.000159468
-2.96949e-06
0.000166615
-5.52754e-06
0.000175528
-8.31261e-06
0.000186302
-1.13779e-05
0.000199036
-1.47724e-05
0.000213821
-1.85476e-05
0.000230733
-2.27639e-05
0.000249808
-2.74993e-05
0.00027102
-3.28499e-05
0.000294263
-3.89109e-05
0.000319359
-4.57354e-05
0.000346081
-5.33044e-05
0.000374138
-6.1524e-05
0.000403269
-7.01952e-05
0.000433284
-7.90929e-05
0.00046399
-8.8166e-05
0.000494995
-9.77011e-05
0.000525668
-0.000108193
0.000555086
-0.000120082
0.000582185
-0.000133382
0.000606112
-0.00014737
0.000626308
-0.000160837
0.000642791
-0.000172451
0.00065615
-0.000181393
0.000666908
-0.000188313
0.000674781
-0.000195487
0.000678326
-0.000205683
0.00067587
-0.000219915
0.00066685
-0.000236145
0.00065186
-0.00025089
0.000632015
-0.000261441
0.000608751
-0.000266186
0.000583759
-0.000264131
0.000558722
-0.00025498
0.000535014
-0.00023936
0.000513534
-0.000218813
0.000494644
-0.000195411
0.000478201
-0.000172034
0.000463543
-0.000150808
0.000449638
-0.000137012
-0.000127763
0.000417795
0.000292006
0.000443943
0.000275229
0.000468854
0.00026262
0.000492791
0.000253563
0.0005158
0.000245983
0.000538159
0.000238884
0.000560429
0.00023211
0.000583242
0.000225689
0.000606976
0.000219698
0.000631469
0.000214199
0.000655916
0.000209116
0.000679005
0.000204197
0.000699211
0.00019909
0.000715101
0.000193431
0.000725565
0.000186925
0.00072997
0.000179421
0.000728178
0.000170907
0.000720444
0.000161446
0.00070735
0.000151204
0.000689754
0.000140459
0.000668647
0.000129484
0.000645017
0.000118464
0.000619794
0.000107542
0.000593838
9.68846e-05
0.000567934
8.66722e-05
0.000542754
7.70374e-05
0.000518833
6.80381e-05
0.000496579
5.96735e-05
0.000476283
5.19131e-05
0.000458147
4.47164e-05
0.000442297
3.80397e-05
0.000428805
3.18362e-05
0.000417699
2.6054e-05
0.000408976
2.06348e-05
0.000402609
1.55153e-05
0.00039856
1.06267e-05
0.000396773
5.90542e-06
0.000397274
1.25263e-06
0.000400127
-3.42456e-06
0.000405311
-8.15402e-06
0.000412755
-1.29711e-05
0.000422362
-1.79193e-05
0.000434024
-2.304e-05
0.000447621
-2.83699e-05
0.000463018
-3.3945e-05
0.000480059
-3.98054e-05
0.000498559
-4.59994e-05
0.000518289
-5.258e-05
0.00053897
-5.95913e-05
0.000560275
-6.70413e-05
0.000581852
-7.48811e-05
0.00060333
-8.30025e-05
0.00062438
-9.12447e-05
0.00064474
-9.94536e-05
0.00066418
-0.000107606
0.000682379
-0.0001159
0.000698867
-0.000124682
0.000713016
-0.000134231
0.000724149
-0.000144515
0.000731788
-0.000155008
0.000735785
-0.000164835
0.00073644
-0.000173105
0.000734425
-0.000179378
0.000730333
-0.000184221
0.000724135
-0.000189289
0.000714988
-0.000196536
0.000701825
-0.000206752
0.000684298
-0.000218618
0.000662964
-0.000229556
0.000638828
-0.000237306
0.000613066
-0.000240424
0.000586939
-0.000238004
0.000561632
-0.000229672
0.00053806
-0.000215788
0.000516762
-0.000197515
0.00049788
-0.000176529
0.000481177
-0.000155331
0.000465996
-0.000135626
0.000451438
-0.000122455
-0.000111887
0.000417993
0.000263762
0.000444593
0.00024863
0.000470041
0.000237172
0.000494645
0.000228959
0.000518424
0.000222204
0.000541355
0.000215953
0.000563522
0.000209943
0.000585181
0.000204029
0.000606738
0.000198141
0.0006286
0.000192337
0.000650997
0.000186719
0.000673854
0.00018134
0.000696768
0.000176176
0.000719072
0.000171128
0.000739954
0.000166042
0.000758613
0.000160762
0.000774369
0.000155151
0.000786722
0.000149093
0.000795396
0.00014253
0.000800365
0.00013549
0.000801811
0.000128039
0.000800049
0.000120226
0.000795485
0.000112106
0.000788595
0.000103774
0.000779907
9.53612e-05
0.000769955
8.69895e-05
0.00075925
7.87427e-05
0.000748256
7.06677e-05
0.000737379
6.27903e-05
0.000726969
5.51264e-05
0.000717322
4.76864e-05
0.000708684
4.04742e-05
0.000701253
3.34852e-05
0.000695182
2.67058e-05
0.000690584
2.01132e-05
0.000687534
1.36765e-05
0.00068608
7.36009e-06
0.000686224
1.10839e-06
0.000687917
-5.11772e-06
0.000691096
-1.13325e-05
0.00069568
-1.75551e-05
0.000701565
-2.38049e-05
0.000708624
-3.00987e-05
0.000716704
-3.64504e-05
0.000725634
-4.28749e-05
0.00073522
-4.93916e-05
0.000745245
-5.6025e-05
0.000755467
-6.28017e-05
0.000765614
-6.97387e-05
0.0007754
-7.68268e-05
0.000784536
-8.40172e-05
0.000792756
-9.12227e-05
0.000799845
-9.83337e-05
0.000805654
-0.000105263
0.000810066
-0.000112018
0.00081292
-0.000118755
0.00081396
-0.000125721
0.000812842
-0.000133113
0.000809227
-0.0001409
0.000802943
-0.000148725
0.000794098
-0.00015599
0.000783109
-0.000162117
0.000770602
-0.000166871
0.000757088
-0.000170706
0.000742593
-0.000174794
0.000726553
-0.000180496
0.000708206