/*--------------------------------*- C++ -*----------------------------------*\
| =========                 |                                                 |
| \\      /  F ield         | OpenFOAM: The Open Source CFD Toolbox           |
|  \\    /   O peration     | Version:  v1912                                 |
|   \\  /    A nd           | Website:  www.openfoam.com                      |
|    \\/     M anipulation  |                                                 |
\*---------------------------------------------------------------------------*/
FoamFile
{
    version     2.0;
    format      ascii;
    class       volVectorField;
    location    "500";
    object      U;
}
// * * * * * * * * * * * * * * * * * * * * * * * * * * * * * * * * * * * * * //

dimensions      [0 1 -1 0 0 0 0];


internalField   nonuniform List<vector> 
2000
(
(0.545548 0.0934285 0)
(-0.240565 0.00952698 -1.26864e-16)
(-0.0990033 0.00949595 -1.90815e-16)
(-0.0570252 0.00762573 -4.86731e-16)
(-0.0413046 0.0062236 0)
(-0.0312948 0.00484496 0)
(-0.0252174 0.00391019 0)
(-0.0211268 0.00329589 3.90391e-16)
(-0.0181477 0.00276809 -4.14725e-16)
(-0.015711 0.00235083 4.37664e-16)
(-0.0137606 0.00201552 -4.59171e-16)
(-0.0121011 0.00171475 0)
(-0.0105963 0.00144965 4.99904e-16)
(-0.00919042 0.00120384 1.42846e-20)
(-0.00779021 0.000961467 0)
(-0.00632876 0.000715006 -2.82959e-16)
(-0.00479247 0.000485955 0)
(-0.00316762 0.000248506 0)
(-0.00138758 4.88539e-06 -3.30882e-16)
(0.000518943 -0.000218976 0)
(0.00246427 -0.00040957 3.26028e-16)
(0.00437809 -0.000572206 -6.21515e-16)
(0.00621435 -0.000700981 0)
(0.00790468 -0.000780307 2.85263e-16)
(0.00935352 -0.000802921 2.76117e-16)
(0.0104672 -0.000772055 0)
(0.0111916 -0.000704319 0)
(0.0115373 -0.000622279 1.3257e-16)
(0.0115754 -0.000543627 0)
(0.0114041 -0.000476052 0)
(0.0111212 -0.000419224 2.68198e-16)
(0.0107976 -0.000368709 1.35238e-16)
(0.0104754 -0.000320229 2.72945e-16)
(0.0101733 -0.000271369 0)
(0.00989645 -0.000221928 0)
(0.00964311 -0.000172597 -6.99497e-17)
(0.00941053 -0.000124144 0)
(0.00919651 -7.7169e-05 -2.25318e-23)
(0.00899993 -3.1668e-05 -1.78249e-17)
(0.00882046 1.21853e-05 0)
(0.0086577 5.48306e-05 0)
(0.00851169 9.60406e-05 1.80707e-17)
(0.00838209 0.000136098 3.62622e-17)
(0.00827049 0.000174349 0)
(0.00817971 0.00021096 7.28585e-17)
(0.00811541 0.000246005 0)
(0.00808275 0.00028084 7.29324e-17)
(0.00808523 0.000317059 -2.9136e-16)
(0.0081203 0.000356728 -1.45317e-16)
(0.00817809 0.000400895 -2.89596e-16)
(0.00824261 0.000448386 0)
(0.00830065 0.000494771 1.43548e-16)
(0.00835608 0.000533923 0)
(0.00844482 0.000561682 0)
(0.00863092 0.000581022 0)
(0.00899722 0.000594454 -3.81834e-21)
(0.0096636 0.000599759 -3.75664e-21)
(0.0107421 0.000622826 0)
(0.0122277 0.000707142 0)
(0.0139303 0.000892967 0)
(0.0155097 0.00120997 0)
(0.0165352 0.0015835 0)
(0.0177604 0.00151661 1.40221e-20)
(0.023878 -4.56106e-05 -1.896e-16)
(0.0283513 -0.00216993 0)
(0.0155219 0.00437642 0)
(-0.093751 0.0119924 6.05777e-17)
(-0.224445 -0.0051644 -7.4678e-17)
(-0.302859 -0.0306682 0)
(-0.323737 -0.0452799 0)
(-0.305904 -0.0479525 0)
(-0.268648 -0.0446827 0)
(-0.21089 -0.0377629 0)
(-0.13564 -0.0282079 2.4037e-16)
(-0.046761 -0.0179312 0)
(0.0528983 -0.00467457 -4.12697e-16)
(0.150009 0.0144221 0)
(0.278382 0.0365337 -3.3907e-16)
(0.352477 0.0558149 0)
(0.574739 0.0893361 8.57928e-17)
(0.890142 0.137811 0)
(0.259319 0.0566381 4.22648e-17)
(-0.098988 0.0128711 0)
(-0.0904315 0.00588265 2.31077e-16)
(-0.0755648 0.0079155 -2.47306e-16)
(-0.0613145 0.00744803 0)
(-0.0512335 0.00658863 0)
(-0.0442917 0.00588806 -3.49819e-16)
(-0.0390429 0.00507483 0)
(-0.0346218 0.00439064 0)
(-0.0309741 0.00381256 4.23473e-16)
(-0.0278087 0.00322904 0)
(-0.0249128 0.00268086 2.33782e-16)
(-0.0221989 0.00213615 2.8311e-20)
(-0.019531 0.00156514 0)
(-0.0168093 0.000967596 0)
(-0.0140052 0.00041225 0)
(-0.0111182 -0.00018327 0)
(-0.00802811 -0.000802406 0)
(-0.00474215 -0.00135179 3.64808e-16)
(-0.00137946 -0.00179281 0)
(0.00195979 -0.0021401 4.02653e-16)
(0.00524361 -0.00239247 0)
(0.00841772 -0.00251835 -3.27516e-16)
(0.0113841 -0.00249153 0)
(0.0140149 -0.00231163 1.42391e-16)
(0.0161888 -0.00201829 0)
(0.0178404 -0.00167639 -1.31932e-16)
(0.0189793 -0.00134702 1.29246e-16)
(0.0196771 -0.00106759 0)
(0.0200319 -0.000849038 -1.26024e-16)
(0.0201439 -0.000682659 0)
(0.020099 -0.00055153 -1.24817e-16)
(0.0199605 -0.000439446 0)
(0.0197677 -0.000335343 0)
(0.0195425 -0.000234378 0)
(0.019298 -0.000134848 -3.15486e-17)
(0.0190431 -3.82004e-05 -3.17213e-17)
(0.0187846 5.58284e-05 1.59551e-17)
(0.0185287 0.000145592 0)
(0.0182798 0.000232686 0)
(0.0180417 0.000315855 -1.62653e-17)
(0.0178167 0.000396269 4.79192e-22)
(0.0176085 0.000471034 3.29537e-17)
(0.0174222 0.00053935 0)
(0.0172667 0.000599599 -6.67214e-17)
(0.0171518 0.000654282 0)
(0.0170853 0.000708732 1.34726e-16)
(0.0170669 0.000771715 0)
(0.0170841 0.000851998 1.35296e-16)
(0.0171118 0.000952055 0)
(0.0171221 0.00106041 -1.35413e-16)
(0.017104 0.00115094 0)
(0.0170856 0.00119231 -1.36028e-16)
(0.0171239 0.00117169 0)
(0.0172873 0.00107216 -4.03717e-16)
(0.0176611 0.000857327 -5.27912e-16)
(0.0182551 0.000583541 0)
(0.0189867 0.000427752 0)
(0.0198073 0.000597886 0)
(0.0207407 0.00122063 0)
(0.0215539 0.00197343 0)
(0.02231 0.000454988 2.35e-16)
(0.0231273 -0.00266994 0)
(-0.0127202 0.0141665 0)
(-0.128068 0.0420768 -4.12558e-17)
(-0.265123 0.0392608 0)
(-0.332771 -0.000573879 -2.19993e-17)
(-0.317881 -0.0407553 0)
(-0.282558 -0.0626737 0)
(-0.247296 -0.0721294 0)
(-0.192796 -0.0732627 5.97629e-17)
(-0.121502 -0.0687998 0)
(-0.0341485 -0.0592034 -2.59697e-16)
(0.065174 -0.0452967 0)
(0.175673 -0.0239119 1.93609e-16)
(0.284657 0.00436407 -1.49331e-16)
(0.420234 0.0364717 3.12366e-18)
(0.508618 0.0653748 0)
(0.747486 0.101963 -3.06835e-17)
(0.985878 0.168645 5.63531e-18)
(0.660305 0.10588 0)
(0.228233 0.0499783 0)
(-0.0347964 0.00934367 0)
(-0.0737774 0.00386984 4.17453e-16)
(-0.0727861 0.00493075 0)
(-0.0634182 0.00533112 0)
(-0.0559856 0.00534252 0)
(-0.0505006 0.00484261 0)
(-0.0456828 0.00427891 0)
(-0.041675 0.00382482 -1.76981e-16)
(-0.0381991 0.00325064 0)
(-0.0350349 0.00267909 -1.92481e-16)
(-0.0321174 0.00207784 3.99662e-16)
(-0.0293199 0.00141471 0)
(-0.0265308 0.000681942 0)
(-0.0237145 2.29776e-05 0)
(-0.0209031 -0.000714032 0)
(-0.017922 -0.00151875 2.42322e-16)
(-0.0147183 -0.0022301 -2.56182e-16)
(-0.0113955 -0.00278068 0)
(-0.00804275 -0.00320191 2.9901e-16)
(-0.0046676 -0.00351525 0)
(-0.001261 -0.00368426 0)
(0.00214447 -0.00365012 -1.83839e-16)
(0.00543771 -0.00339896 -3.38095e-16)
(0.0084694 -0.00297887 0)
(0.0111194 -0.00247505 0)
(0.0133303 -0.00197275 -7.41745e-21)
(0.0151041 -0.0015266 0)
(0.0164827 -0.00116097 0)
(0.0175299 -0.000877037 0)
(0.018312 -0.000658357 0)
(0.0188845 -0.000483097 0)
(0.0192926 -0.00033312 0)
(0.0195705 -0.00019721 0)
(0.0197448 -7.04465e-05 3.11887e-17)
(0.0198376 4.86333e-05 -3.10179e-17)
(0.0198661 0.000160489 0)
(0.0198442 0.000265572 -3.86077e-18)
(0.0197824 0.000364816 3.86235e-18)
(0.019689 0.000459073 0)
(0.0195689 0.000548392 6.2083e-17)
(0.0194262 0.000630124 -3.11667e-17)
(0.0192652 0.000700459 0)
(0.0190925 0.000756266 1.26093e-16)
(0.0189158 0.000798521 0)
(0.018742 0.000833953 0)
(0.0185731 0.000876176 0)
(0.018402 0.000941994 0)
(0.0182089 0.00104157 0)
(0.0179646 0.00116475 0)
(0.01764 0.00127197 -1.32357e-16)
(0.0172116 0.00130507 1.34243e-16)
(0.0166184 0.00123228 0)
(0.015709 0.00104102 1.40022e-16)
(0.0141708 0.000713775 2.90536e-16)
(0.0114855 0.000328634 0)
(0.00766446 0.000129732 0)
(0.00361765 0.00020218 0)
(0.000751776 9.84004e-05 0)
(-0.000185423 -0.00119149 0)
(-0.00146553 -0.00382537 2.79825e-16)
(-0.0291014 0.0130136 1.06008e-16)
(-0.108217 0.0517946 0)
(-0.219372 0.0825117 1.02074e-18)
(-0.279363 0.0655723 -1.97242e-17)
(-0.245334 0.0113898 5.22956e-17)
(-0.190149 -0.0297379 0)
(-0.159045 -0.0528857 0)
(-0.116227 -0.0656368 0)
(-0.0588543 -0.0724771 -7.53804e-17)
(0.0147578 -0.0741801 -8.6791e-17)
(0.102746 -0.0695475 0)
(0.200133 -0.0570019 0)
(0.304866 -0.035587 0)
(0.409308 -0.00806025 1.03569e-16)
(0.53262 0.0220558 8.12721e-17)
(0.620677 0.0481632 -4.83467e-17)
(0.832669 0.0726381 0)
(0.995539 0.193712 -5.41132e-18)
(0.876314 0.150544 0)
(0.57193 0.100585 -1.46647e-17)
(0.238054 0.0475309 -3.0563e-17)
(0.00702071 0.0105516 -1.75724e-16)
(-0.0555902 0.00211258 0)
(-0.0641382 0.00224019 -1.37982e-16)
(-0.0596534 0.00343883 0)
(-0.0558778 0.00359296 0)
(-0.0518254 0.00325659 0)
(-0.0483232 0.00313633 1.59769e-16)
(-0.0453291 0.00270624 0)
(-0.0426105 0.00226806 0)
(-0.0401886 0.00175501 -1.73759e-16)
(-0.0379623 0.00115503 0)
(-0.0358056 0.000405634 0)
(-0.0336801 -0.000217784 0)
(-0.0316765 -0.000964542 0)
(-0.0295446 -0.00187164 -1.8755e-16)
(-0.0271562 -0.0026881 1.91193e-16)
(-0.0246123 -0.00330044 0)
(-0.0219976 -0.00377944 -2.04728e-16)
(-0.0192675 -0.00418548 0)
(-0.0163315 -0.0044707 0)
(-0.0131649 -0.00453313 1.22341e-16)
(-0.00985753 -0.00432215 2.18549e-21)
(-0.00656747 -0.00387434 0)
(-0.00344788 -0.00328876 0)
(-0.000604747 -0.00267638 -2.00942e-16)
(0.00190358 -0.00211789 0)
(0.00406485 -0.00164985 0)
(0.005904 -0.00127536 0)
(0.00745847 -0.000978927 -8.97729e-17)
(0.0087638 -0.000738704 0)
(0.00985221 -0.000535745 0)
(0.0107528 -0.000357652 0)
(0.0114899 -0.000198135 -3.99787e-17)
(0.0120838 -5.40049e-05 3.92317e-17)
(0.0125522 7.63048e-05 1.9332e-17)
(0.0129094 0.000194573 4.76084e-18)
(0.0131672 0.00030238 -4.70262e-18)
(0.0133338 0.000402866 -1.86478e-17)
(0.0134128 0.000497001 -3.70985e-17)
(0.0134038 0.000582662 3.70251e-17)
(0.0133027 0.000654284 0)
(0.0131049 0.000707445 -7.45837e-17)
(0.0128054 0.000741163 0)
(0.0124014 0.000761537 7.63009e-17)
(0.0118949 0.000782889 0)
(0.0112927 0.000826226 0)
(0.0105981 0.000909599 0)
(0.00979196 0.00103099 0)
(0.00880038 0.00114432 1.68723e-16)
(0.00743229 0.00116358 0)
(0.00525858 0.00106781 1.8663e-16)
(0.00158043 0.0010534 0)
(-0.00498066 0.00147847 0)
(-0.0156966 0.0020907 0)
(-0.0283263 0.00166007 0)
(-0.039275 -0.000822436 0)
(-0.0465941 -0.00446283 0)
(-0.0526088 -0.00474811 -1.33244e-16)
(-0.0666848 0.00710698 -9.05424e-17)
(-0.103169 0.0397505 -1.01287e-16)
(-0.166913 0.0850603 0)
(-0.218873 0.105366 2.31249e-17)
(-0.194588 0.0667289 1.51287e-18)
(-0.110337 0.00320717 -4.83768e-17)
(-0.0699466 -0.0296007 0)
(-0.0354445 -0.0540891 -6.33778e-17)
(0.0114452 -0.0700577 0)
(0.073907 -0.0809061 5.62482e-17)
(0.150897 -0.0861035 5.14408e-17)
(0.238844 -0.083197 0)
(0.332778 -0.0710816 0)
(0.430772 -0.0500201 -4.27989e-17)
(0.527673 -0.0230908 3.80175e-17)
(0.638089 0.00619589 3.06558e-17)
(0.721225 0.0300179 4.08362e-17)
(0.905108 0.0499147 0)
(0.982496 0.203759 0)
(0.958308 0.177885 -7.06272e-18)
(0.807091 0.1458 1.56343e-19)
(0.54789 0.0992792 3.2074e-17)
(0.266837 0.0508412 -6.62275e-20)
(0.0550448 0.0151848 0)
(-0.0338302 0.000824627 1.68338e-16)
(-0.049952 0.00163108 1.67659e-16)
(-0.0535775 0.00193199 0)
(-0.0528954 0.00211593 0)
(-0.0510013 0.00227457 1.53954e-16)
(-0.0492969 0.00203965 0)
(-0.0475271 0.00182113 0)
(-0.0460414 0.00144961 -1.59668e-16)
(-0.0447556 0.00103609 0)
(-0.0435714 0.000320911 0)
(-0.0424529 -0.000181056 0)
(-0.0416047 -0.000838847 0)
(-0.040684 -0.00180813 0)
(-0.039476 -0.00271459 -1.55275e-16)
(-0.0381101 -0.00336653 0)
(-0.0366861 -0.00389223 7.82783e-17)
(-0.0350981 -0.0044219 0)
(-0.0331616 -0.0049053 -8.03233e-17)
(-0.0307845 -0.00517913 8.27784e-17)
(-0.0280298 -0.00512439 8.68324e-17)
(-0.0250633 -0.00474902 9.26772e-17)
(-0.0220653 -0.00416185 0)
(-0.0191771 -0.00350053 1.09359e-16)
(-0.0164875 -0.00287275 5.98307e-17)
(-0.0140368 -0.00233037 0)
(-0.0118329 -0.00188326 0)
(-0.00986902 -0.00152 7.75045e-17)
(-0.00813291 -0.00121994 0)
(-0.0066108 -0.000964589 -9.02728e-17)
(-0.00528913 -0.000741576 4.83739e-17)
(-0.00415535 -0.000543827 1.0315e-16)
(-0.00319883 -0.000367649 0)
(-0.00241092 -0.000210616 -5.75704e-17)
(-0.00178551 -7.05746e-05 7.47297e-18)
(-0.00131941 5.56349e-05 -7.68691e-18)
(-0.00101174 0.000173116 6.21266e-17)
(-0.00086684 0.000285256 0)
(-0.000898712 0.000390779 -1.21918e-16)
(-0.00113409 0.000485702 -5.94571e-17)
(-0.00160576 0.000567406 1.14704e-16)
(-0.00234861 0.000635317 0)
(-0.0033866 0.000690932 -1.03361e-16)
(-0.00471476 0.000737488 0)
(-0.00629234 0.000780706 0)
(-0.00807344 0.000821814 -8.3729e-17)
(-0.0100865 0.000848848 0)
(-0.0125877 0.000882554 0)
(-0.0163441 0.00112727 0)
(-0.0228864 0.00207771 -1.93232e-16)
(-0.0340413 0.0041158 0)
(-0.0505126 0.00660215 -5.65904e-17)
(-0.0706813 0.00768996 0)
(-0.0906821 0.00559771 0)
(-0.106618 0.000562118 0)
(-0.116648 -0.00392742 -3.71764e-17)
(-0.12229 -0.00092765 6.97122e-17)
(-0.129486 0.0182399 0)
(-0.145306 0.0568112 3.93579e-17)
(-0.164872 0.0978615 0)
(-0.155087 0.101544 0)
(-0.0801124 0.0492536 8.90567e-17)
(0.0113179 0.000871987 -1.43501e-16)
(0.0449184 -0.0320577 0)
(0.0828838 -0.0583556 8.48016e-17)
(0.13733 -0.0781635 0)
(0.207105 -0.0927314 -2.18522e-19)
(0.287562 -0.100232 0)
(0.373887 -0.0981983 -3.48142e-17)
(0.461779 -0.0859511 3.46713e-17)
(0.550275 -0.0646139 3.4804e-17)
(0.63652 -0.0378532 -6.25612e-17)
(0.732767 -0.00934724 -2.6614e-17)
(0.807613 0.0123159 0)
(0.964314 0.0287952 0)
(0.971696 0.20536 5.34659e-18)
(0.971935 0.187852 6.97128e-18)
(0.923209 0.173678 9.44847e-18)
(0.781084 0.144605 -4.54974e-20)
(0.560015 0.102726 1.60331e-17)
(0.316577 0.0585892 0)
(0.118899 0.0228755 0)
(-0.00318371 0.00310239 -1.36309e-16)
(-0.0310539 0.000503193 0)
(-0.0438451 0.00159564 1.8051e-16)
(-0.0466564 0.00141246 -3.33019e-16)
(-0.0482422 0.00160892 0)
(-0.0481898 0.00144305 0)
(-0.0482368 0.00119371 1.56573e-16)
(-0.0481519 0.00110289 0)
(-0.0481425 0.000396341 -7.57045e-17)
(-0.0481562 6.64052e-05 0)
(-0.0486149 -0.000371734 0)
(-0.0490843 -0.00135691 0)
(-0.0492409 -0.00234198 0)
(-0.0492918 -0.00298807 0)
(-0.0493943 -0.00350804 -6.46882e-21)
(-0.0493769 -0.00415067 0)
(-0.0489414 -0.00487634 9.26418e-21)
(-0.0479112 -0.00544225 -6.38416e-17)
(-0.0463164 -0.00563816 -6.46626e-17)
(-0.0443234 -0.00542588 -6.65068e-17)
(-0.0421243 -0.00491486 0)
(-0.0398736 -0.00426512 -1.08757e-16)
(-0.0376729 -0.00360992 5.03235e-21)
(-0.0355791 -0.00302411 -3.9991e-17)
(-0.0336208 -0.00253087 0)
(-0.0318131 -0.00212258 0)
(-0.0301657 -0.00177988 0)
(-0.0286857 -0.0014846 4.75726e-17)
(-0.0273795 -0.00122444 -2.46751e-17)
(-0.0262525 -0.000992078 -2.55171e-17)
(-0.0253112 -0.000782866 0)
(-0.0245645 -0.000592317 1.34971e-17)
(-0.0240246 -0.000415861 -3.44877e-18)
(-0.0237072 -0.000248614 3.50786e-18)
(-0.0236352 -8.58613e-05 -1.40576e-17)
(-0.0238384 7.73626e-05 0)
(-0.0243568 0.000247428 2.70615e-17)
(-0.0252551 0.00042946 2.62162e-17)
(-0.0266065 0.000622393 -7.54887e-17)
(-0.0284764 0.000814821 0)
(-0.0308995 0.000980328 0)
(-0.0338643 0.00108677 0)
(-0.0373377 0.00112453 3.97704e-17)
(-0.041347 0.00114763 -2.17855e-21)
(-0.0461068 0.00133127 0)
(-0.0521659 0.00204809 0)
(-0.0605223 0.0038507 0)
(-0.0724844 0.00715434 8.91078e-17)
(-0.0889666 0.0115982 0)
(-0.109366 0.0154935 3.06466e-17)
(-0.130982 0.0161093 0)
(-0.149818 0.0113776 0)
(-0.162385 0.0024342 0)
(-0.166821 -0.00508956 2.75272e-17)
(-0.162941 -0.00233112 0)
(-0.152567 0.0187885 0)
(-0.137897 0.0565308 0)
(-0.11389 0.0884189 0)
(-0.0608759 0.0785525 0)
(0.0466517 0.0215902 -8.42751e-17)
(0.107349 -0.00922257 -6.21115e-19)
(0.150272 -0.0415418 0)
(0.201754 -0.0695445 -2.61372e-17)
(0.267788 -0.0920273 0)
(0.344015 -0.108598 -2.5409e-17)
(0.424557 -0.116652 2.62114e-17)
(0.505035 -0.114006 7.0463e-19)
(0.582847 -0.100713 -2.90064e-17)
(0.6587 -0.0787271 -2.77319e-17)
(0.731829 -0.0521301 5.27697e-17)
(0.813126 -0.0246011 2.15061e-17)
(0.877778 -0.0048892 0)
(1.0095 0.00937925 -6.5502e-18)
(0.968276 0.206736 -5.5021e-18)
(0.964507 0.190018 -7.61127e-18)
(0.958378 0.184646 0)
(0.90784 0.17236 -1.02506e-17)
(0.784608 0.146492 0)
(0.598315 0.109878 0)
(0.388998 0.0700235 -2.23965e-17)
(0.199228 0.0351589 3.86545e-17)
(0.0620271 0.0108519 0)
(-0.00983021 0.00103776 -1.84759e-16)
(-0.0248014 0.00066808 3.30542e-16)
(-0.0370228 0.00204846 -9.73624e-17)
(-0.0407049 0.00120514 0)
(-0.0441856 0.00124866 8.52364e-17)
(-0.0459624 0.00147253 0)
(-0.0474894 0.000584363 7.80247e-17)
(-0.0488093 0.000465038 0)
(-0.0506407 0.000443982 0)
(-0.0525724 -0.000523982 0)
(-0.0541279 -0.00160564 0)
(-0.0556587 -0.00216454 0)
(-0.057467 -0.00255561 -6.13828e-17)
(-0.0593182 -0.0032368 0)
(-0.0607779 -0.00419964 5.65406e-17)
(-0.0615753 -0.00509508 0)
(-0.0617098 -0.00558937 5.3927e-17)
(-0.0613459 -0.00558415 0)
(-0.0606678 -0.00519224 -2.72331e-17)
(-0.0598141 -0.00460161 5.53881e-17)
(-0.0588734 -0.00397186 -2.82407e-17)
(-0.0578994 -0.00339525 2.88171e-17)
(-0.0569289 -0.00290292 2.9394e-17)
(-0.055994 -0.00248912 0)
(-0.0551266 -0.00213442 0)
(-0.0543582 -0.00182048 0)
(-0.0537186 -0.00153486 -1.57187e-17)
(-0.0532356 -0.00126916 7.9616e-18)
(-0.0529369 -0.00101597 0)
(-0.0528542 -0.000767643 0)
(-0.0530264 -0.000518429 0)
(-0.0534992 -0.00026532 0)
(-0.0543094 4.68764e-07 0)
(-0.0554981 0.000297779 0)
(-0.0571517 0.000646303 -7.54926e-18)
(-0.0593652 0.00105656 1.45164e-17)
(-0.0622386 0.00152039 -2.80987e-21)
(-0.0658484 0.00200349 0)
(-0.0702172 0.00244856 0)
(-0.075294 0.00280534 -2.34476e-17)
(-0.0809777 0.00309017 -2.21031e-17)
(-0.0871912 0.00345268 2.08033e-17)
(-0.0939756 0.00423158 0)
(-0.101581 0.00598051 0)
(-0.110522 0.00933367 -1.63403e-17)
(-0.121414 0.0145031 -2.89944e-17)
(-0.134371 0.0205092 0)
(-0.148265 0.0247809 2.32228e-17)
(-0.160672 0.0239115 0)
(-0.168795 0.0158383 -2.2188e-17)
(-0.170786 0.00301243 0)
(-0.165723 -0.0072425 0)
(-0.15176 -0.00662923 0)
(-0.126294 0.0115845 0)
(-0.0872379 0.0421794 -3.33844e-17)
(-0.0311162 0.0620543 3.40072e-17)
(0.0518896 0.0415343 0)
(0.141901 0.00623545 2.42888e-17)
(0.205757 -0.0269716 4.04403e-17)
(0.263951 -0.0589092 -1.04929e-17)
(0.330957 -0.0870187 -9.48692e-18)
(0.40588 -0.110363 0)
(0.482944 -0.126801 0)
(0.5573 -0.133497 -4.27627e-17)
(0.626568 -0.129016 2.33579e-17)
(0.690465 -0.114203 0)
(0.751448 -0.091578 4.88546e-17)
(0.810335 -0.0653401 -2.36642e-17)
(0.876985 -0.0390335 -2.01493e-17)
(0.931048 -0.0209971 0)
(1.04122 -0.0084098 1.21999e-17)
(0.969334 0.209541 7.15211e-18)
(0.958641 0.191562 7.83752e-18)
(0.95776 0.186538 0)
(0.951739 0.183046 0)
(0.908345 0.172229 0)
(0.808163 0.150511 0)
(0.657214 0.119746 1.42055e-17)
(0.479854 0.084879 -1.87965e-17)
(0.304627 0.0517976 -1.39491e-17)
(0.158268 0.0254813 0)
(0.0546108 0.00790416 -4.75109e-17)
(-0.00226147 0.00171102 9.75181e-17)
(-0.0145321 0.000585835 -1.29555e-16)
(-0.0279115 0.00233368 -1.10155e-16)
(-0.0343265 0.0023171 -9.82609e-17)
(-0.0382003 0.000889285 0)
(-0.0418736 0.00117755 0)
(-0.0453962 0.00169972 0)
(-0.0488413 0.000645459 0)
(-0.051734 -0.000598354 0)
(-0.0546138 -0.000935824 6.68212e-17)
(-0.0580579 -0.000998542 0)
(-0.0618099 -0.0015915 2.98103e-17)
(-0.0652863 -0.0027569 0)
(-0.0681265 -0.00398807 0)
(-0.070311 -0.00477701 0)
(-0.0720122 -0.00496072 -2.4478e-17)
(-0.0733922 -0.00467857 2.41204e-17)
(-0.0745421 -0.00415932 -2.39285e-17)
(-0.075506 -0.00358665 0)
(-0.0763125 -0.00306033 2.37394e-17)
(-0.0769935 -0.00260905 -2.36662e-17)
(-0.0775916 -0.00222139 0)
(-0.0781574 -0.00187332 0)
(-0.0787438 -0.00154456 0)
(-0.0794008 -0.00122299 1.17305e-17)
(-0.080173 -0.00090146 -5.84815e-18)
(-0.0811027 -0.000573587 0)
(-0.0822325 -0.000232753 0)
(-0.0835986 0.000126877 -7.12822e-19)
(-0.0852129 0.000513049 6.98454e-19)
(-0.0871251 0.000943467 0)
(-0.0893954 0.00144639 0)
(-0.0920847 0.00205017 5.09306e-18)
(-0.095265 0.00276506 -9.80414e-18)
(-0.0989972 0.00356837 9.40298e-18)
(-0.103302 0.0043939 0)
(-0.108124 0.00514019 0)
(-0.113304 0.0057146 1.65089e-17)
(-0.118593 0.00611962 -1.58911e-17)
(-0.123704 0.00654972 0)
(-0.128356 0.00744637 0)
(-0.13231 0.00947383 0)
(-0.135419 0.0132986 1.369e-17)
(-0.137583 0.0189457 1.30512e-17)
(-0.138391 0.0249335 0)
(-0.136738 0.0280765 -1.21702e-17)
(-0.131171 0.0250149 1.26263e-17)
(-0.120683 0.0145597 2.90532e-17)
(-0.106201 0.000315799 0)
(-0.0908573 -0.0119162 0)
(-0.0730175 -0.0185707 0)
(-0.0457431 -0.0128904 0)
(-0.00153885 0.0057977 6.75268e-17)
(0.0669021 0.0176103 -4.17488e-17)
(0.158509 0.0039517 0)
(0.247803 -0.0224238 -1.32875e-17)
(0.324896 -0.052438 -8.86016e-18)
(0.398158 -0.0817938 7.47279e-18)
(0.473211 -0.10873 1.45682e-17)
(0.54752 -0.130805 7.59904e-18)
(0.616676 -0.144948 0)
(0.678118 -0.148835 2.74077e-17)
(0.731862 -0.141905 9.79315e-18)
(0.779692 -0.125586 0)
(0.82533 -0.102643 -2.22975e-17)
(0.870486 -0.0771353 0)
(0.923999 -0.0523439 -8.49969e-18)
(0.968392 -0.0358255 1.10167e-17)
(1.0612 -0.024663 -5.77176e-18)
(0.971383 0.212451 -7.34938e-18)
(0.958981 0.194273 4.35865e-18)
(0.951674 0.186527 4.87162e-18)
(0.954313 0.184189 -5.10002e-18)
(0.951023 0.181237 5.17659e-18)
(0.918922 0.172543 0)
(0.844266 0.155545 -5.7727e-18)
(0.728656 0.130889 0)
(0.584822 0.101821 -5.05047e-20)
(0.431763 0.0721745 0)
(0.287576 0.0455284 0)
(0.166677 0.0246774 0)
(0.0787745 0.00999036 4.04753e-17)
(0.0198001 0.00331263 0)
(-0.00254917 0.00209108 1.2679e-16)
(-0.0112569 0.00116969 1.40429e-16)
(-0.0222933 0.00280244 6.00136e-17)
(-0.0295327 0.00360282 0)
(-0.0345983 0.00196982 -4.71895e-17)
(-0.0389304 0.000623726 0)
(-0.0433199 0.000724804 -8.14069e-17)
(-0.0482213 0.00116376 -3.74798e-17)
(-0.0535636 0.000737146 -3.44961e-17)
(-0.0587604 -0.000620801 3.16694e-17)
(-0.0634496 -0.00215542 0)
(-0.0676008 -0.00315187 -2.68039e-17)
(-0.0713856 -0.00343157 5.0916e-17)
(-0.0749181 -0.00320397 0)
(-0.0782091 -0.00274764 0)
(-0.0812303 -0.00225726 0)
(-0.0839707 -0.00182184 -1.12743e-17)
(-0.08645 -0.00145324 0)
(-0.0887151 -0.00112625 0)
(-0.0908267 -0.000810049 -1.0633e-17)
(-0.0928461 -0.000484611 0)
(-0.0948247 -0.000142887 0)
(-0.0967992 0.000216415 0)
(-0.0987874 0.000597097 0)
(-0.10081 0.00100759 0)
(-0.102892 0.0014554 1.18598e-18)
(-0.105062 0.00195066 -1.15533e-18)
(-0.107321 0.00251235 0)
(-0.109668 0.00317255 0)
(-0.112104 0.00396431 0)
(-0.114634 0.00489475 0)
(-0.117246 0.00592069 0)
(-0.119893 0.00693599 7.83882e-18)
(-0.122464 0.00778139 0)
(-0.12475 0.00830048 0)
(-0.12644 0.00845456 7.45825e-18)
(-0.127126 0.00845309 0)
(-0.126283 0.00878519 0)
(-0.123232 0.0101238 0)
(-0.117252 0.0130887 -1.57127e-17)
(-0.107788 0.0175765 -1.61041e-17)
(-0.0943749 0.0219607 -1.69674e-17)
(-0.0762862 0.0232309 2.15445e-20)
(-0.0535154 0.0195979 -2.48545e-17)
(-0.0263613 0.0114534 4.40375e-17)
(0.00475669 0.00135186 -5.70131e-17)
(0.0334634 -0.00980647 0)
(0.0627826 -0.0187548 0)
(0.0992871 -0.0225734 0)
(0.150558 -0.0216275 0)
(0.219564 -0.0203324 0)
(0.304823 -0.0298125 0)
(0.39237 -0.0518391 -8.90508e-18)
(0.473083 -0.0793985 0)
(0.547802 -0.106787 0)
(0.617811 -0.131255 1.67079e-19)
(0.680981 -0.150037 -6.44691e-18)
(0.734881 -0.160464 0)
(0.779148 -0.160989 -1.61774e-17)
(0.815711 -0.15171 -9.13784e-18)
(0.847707 -0.134353 0)
(0.879435 -0.111661 9.61431e-18)
(0.912837 -0.0873608 0)
(0.955669 -0.0643828 5.40728e-19)
(0.992198 -0.049327 -1.09175e-17)
(1.07197 -0.0394725 -2.45579e-18)
(0.972814 0.214632 0)
(0.962627 0.197522 -9.12723e-18)
(0.951189 0.187736 -1.01235e-17)
(0.948304 0.183243 5.26354e-18)
(0.952941 0.181292 -5.27532e-18)
(0.953177 0.178801 0)
(0.933894 0.172415 5.32555e-18)
(0.884663 0.160009 0)
(0.803212 0.14158 6.00847e-18)
(0.695149 0.118745 0)
(0.571036 0.0939631 -4.08342e-18)
(0.442903 0.0695546 5.10894e-18)
(0.322168 0.0476956 -6.75641e-18)
(0.216524 0.0299613 -9.46708e-18)
(0.132717 0.0167194 -1.41034e-17)
(0.071309 0.0077222 -4.47904e-17)
(0.0291031 0.00379508 -3.64096e-17)
(0.00766543 0.0036272 0)
(-0.000153126 0.00292029 -1.16999e-20)
(-0.00852612 0.00212395 7.58957e-17)
(-0.0173655 0.00306002 0)
(-0.0246195 0.00407391 1.06405e-16)
(-0.0311214 0.00359027 -4.70994e-17)
(-0.0371978 0.00193075 -2.15664e-17)
(-0.0430334 0.000260609 0)
(-0.0488476 -0.00072119 1.78203e-17)
(-0.0545129 -0.000985629 -1.63879e-17)
(-0.0599099 -0.000794935 0)
(-0.064955 -0.000440538 1.43061e-17)
(-0.0695572 -9.90759e-05 0)
(-0.0736893 0.000172392 -2.57333e-17)
(-0.0773767 0.000389795 0)
(-0.0806779 0.000595098 0)
(-0.0836608 0.000823374 1.15009e-17)
(-0.0863854 0.00108933 5.58714e-18)
(-0.0888925 0.00139047 0)
(-0.0912031 0.00171944 0)
(-0.093333 0.00207788 0)
(-0.0952854 0.0024746 0)
(-0.0970529 0.00291282 -9.19788e-19)
(-0.0986072 0.00338995 9.01073e-19)
(-0.0998937 0.0039153 0)
(-0.100845 0.00451963 0)
(-0.10139 0.00523521 0)
(-0.10146 0.00605968 0)
(-0.100979 0.0069276 -4.52798e-18)
(-0.099869 0.00769927 -9.05966e-18)
(-0.0980315 0.00817392 0)
(-0.0953181 0.00815333 0)
(-0.0914974 0.00756689 1.94741e-17)
(-0.0862564 0.00659698 0)
(-0.0791063 0.00563463 0)
(-0.0691358 0.00517439 1.26359e-17)
(-0.0552045 0.00575801 2.94092e-17)
(-0.036466 0.0074079 0)
(-0.012782 0.00899781 2.60925e-17)
(0.0162903 0.00843691 -4.48986e-17)
(0.0516377 0.00383893 -2.73815e-17)
(0.0903255 -0.0038747 -1.94493e-17)
(0.129841 -0.013561 1.35693e-17)
(0.171903 -0.0251758 1.04461e-17)
(0.217425 -0.0354247 0)
(0.268555 -0.0415382 -7.74176e-18)
(0.328487 -0.0442002 0)
(0.398848 -0.047794 5.64407e-18)
(0.477422 -0.0596684 -4.35098e-18)
(0.55637 -0.0810715 9.69109e-18)
(0.628775 -0.106386 2.78511e-18)
(0.692731 -0.13054 0)
(0.748007 -0.1509 -7.99569e-18)
(0.793574 -0.165264 0)
(0.828907 -0.171648 0)
(0.855348 -0.169108 3.8795e-18)
(0.876004 -0.158125 0)
(0.894587 -0.140485 0)
(0.915334 -0.11872 -5.25057e-19)
(0.939913 -0.0961125 -8.53388e-18)
(0.974987 -0.075203 7.79968e-18)
(1.00583 -0.0616269 0)
(1.07653 -0.0530125 4.79124e-18)
(0.973494 0.216084 0)
(0.966341 0.200512 4.77837e-18)
(0.955362 0.19016 5.24125e-18)
(0.94753 0.183717 0)
(0.946948 0.179822 2.79144e-18)
(0.951909 0.177609 0)
(0.955412 0.175373 0)
(0.947864 0.170895 0)
(0.921027 0.162529 0)
(0.870878 0.149776 0)
(0.798323 0.133188 3.01849e-18)
(0.708056 0.113981 -3.343e-18)
(0.606893 0.0938089 1.89688e-18)
(0.502255 0.0740419 4.53078e-18)
(0.400723 0.0558072 5.54295e-18)
(0.307827 0.0401477 3.51474e-18)
(0.226813 0.0275545 0)
(0.160039 0.0179725 0)
(0.108382 0.0110516 1.6767e-17)
(0.0694532 0.00657536 -2.34407e-17)
(0.0414873 0.00455958 0)
(0.024064 0.00446131 -4.28861e-17)
(0.014233 0.00475524 8.19204e-17)
(0.00737255 0.0043436 -7.0597e-17)
(0.000424859 0.00337787 0)
(-0.00782256 0.00261765 3.96694e-17)
(-0.0160114 0.00235721 -3.24041e-17)
(-0.0233208 0.00238142 0)
(-0.0296503 0.0024342 -2.39682e-17)
(-0.0350883 0.00241222 0)
(-0.0397373 0.00233499 1.98162e-17)
(-0.0437062 0.00226132 -9.26518e-18)
(-0.0470986 0.00223996 0)
(-0.0499979 0.00229119 0)
(-0.0524598 0.00240847 -8.03836e-18)
(-0.0545106 0.00257181 0)
(-0.0561493 0.00276132 0)
(-0.0573627 0.00296775 1.84859e-18)
(-0.0581401 0.00319091 -9.09848e-19)
(-0.0584534 0.00342256 4.50603e-19)
(-0.0582339 0.00364794 -4.49568e-19)
(-0.0573772 0.00386792 9.0489e-19)
(-0.0557609 0.00411158 -1.83975e-18)
(-0.0532482 0.00441781 0)
(-0.0496795 0.00479399 0)
(-0.0448872 0.00519191 1.26091e-17)
(-0.0387239 0.00550123 0)
(-0.0310805 0.00555505 0)
(-0.0218593 0.00517153 1.29514e-17)
(-0.0109051 0.00422236 -3.4984e-17)
(0.0020652 0.00267627 0)
(0.0173833 0.00061341 -1.37264e-17)
(0.0353763 -0.00172582 -2.89194e-17)
(0.05694 -0.00397321 0)
(0.0832089 -0.00599861 1.07296e-17)
(0.115528 -0.00851469 1.65679e-17)
(0.153851 -0.012108 0)
(0.197558 -0.0179173 1.48381e-17)
(0.245248 -0.0265274 0)
(0.295311 -0.0372446 0)
(0.347287 -0.0489433 -5.63694e-18)
(0.400909 -0.0594941 0)
(0.456745 -0.0672441 4.81565e-18)
(0.516293 -0.0727908 0)
(0.580384 -0.0792499 -3.93494e-18)
(0.647193 -0.0910562 4.90246e-18)
(0.711469 -0.109136 -2.64824e-18)
(0.767902 -0.129932 -3.57993e-18)
(0.814293 -0.149422 0)
(0.85056 -0.165088 2.47668e-18)
(0.877012 -0.175086 -2.79765e-18)
(0.894657 -0.177969 0)
(0.905879 -0.17321 9.38904e-20)
(0.914204 -0.161464 -3.87402e-18)
(0.923239 -0.144395 -4.15503e-18)
(0.936686 -0.124202 -1.32495e-17)
(0.955656 -0.103692 8.59022e-18)
(0.985802 -0.0850178 0)
(1.01302 -0.072958 0)
(1.0778 -0.0655077 -3.44471e-18)
(0.973784 0.217058 0)
(0.968874 0.20288 0)
(0.960387 0.192781 0)
(0.951937 0.185617 -7.24192e-19)
(0.946661 0.180063 -2.87647e-18)
(0.9463 0.175986 0)
(0.95051 0.173198 7.11676e-19)
(0.95589 0.170799 0)
(0.956707 0.167489 0)
(0.947002 0.162079 6.82314e-19)
(0.922556 0.153856 0)
(0.881793 0.142737 -7.0785e-19)
(0.825639 0.129209 2.20335e-18)
(0.757034 0.114038 7.95452e-19)
(0.679854 0.0981135 -8.69958e-19)
(0.598381 0.0823737 -9.51518e-19)
(0.516647 0.0675192 0)
(0.438002 0.0539386 0)
(0.365112 0.0420396 0)
(0.299659 0.0321083 0)
(0.242476 0.024127 0)
(0.19409 0.0179072 0)
(0.154489 0.0132203 -6.31384e-18)
(0.122824 0.0098268 5.73472e-18)
(0.0977405 0.00746955 -2.30874e-18)
(0.0778708 0.00592037 0)
(0.0623123 0.00499957 0)
(0.0503837 0.00451442 0)
(0.0413577 0.00426765 -4.34789e-18)
(0.034478 0.00410048 0)
(0.029108 0.00392941 0)
(0.024814 0.00374171 1.19896e-17)
(0.0213577 0.00355998 0)
(0.0186435 0.00340747 0)
(0.0166638 0.00328848 3.70616e-18)
(0.0154411 0.00319057 0)
(0.0150265 0.00308973 0)
(0.0154638 0.00298423 -3.90311e-18)
(0.0166945 0.00289972 9.50601e-19)
(0.0187186 0.00281344 0)
(0.0216523 0.00266205 0)
(0.0256408 0.00241914 -7.87566e-19)
(0.0307383 0.0020889 2.83868e-18)
(0.0370852 0.00168033 0)
(0.0449883 0.00118532 0)
(0.054756 0.000569427 -3.74936e-18)
(0.0666764 -0.000238851 0)
(0.0810003 -0.00135403 0)
(0.0979131 -0.00291213 -4.73067e-18)
(0.117572 -0.0050153 0)
(0.14014 -0.0077427 0)
(0.165793 -0.011139 2.92854e-18)
(0.19466 -0.0150595 2.52857e-18)
(0.226962 -0.0192529 0)
(0.263058 -0.0236333 -4.83426e-18)
(0.303298 -0.0285491 -3.38649e-18)
(0.347564 -0.0345743 -7.40957e-19)
(0.395215 -0.0423848 -2.57106e-18)
(0.4451 -0.0522011 0)
(0.495846 -0.0633461 0)
(0.546387 -0.0747649 0)
(0.596058 -0.0850247 0)
(0.644992 -0.0930251 8.76265e-19)
(0.69407 -0.0992036 -8.39265e-19)
(0.743792 -0.1058 -7.80267e-19)
(0.792805 -0.115817 -1.37273e-18)
(0.837515 -0.130168 6.2876e-19)
(0.874182 -0.146535 1.70486e-18)
(0.90126 -0.161615 -5.92332e-19)
(0.919217 -0.173101 6.28485e-19)
(0.929307 -0.179533 2.7268e-18)
(0.93339 -0.179942 0)
(0.93416 -0.174074 3.51159e-18)
(0.934908 -0.162565 3.9093e-18)