/*--------------------------------*- C++ -*----------------------------------*\
| =========                 |                                                 |
| \\      /  F ield         | OpenFOAM: The Open Source CFD Toolbox           |
|  \\    /   O peration     | Version:  v1912                                 |
|   \\  /    A nd           | Website:  www.openfoam.com                      |
|    \\/     M anipulation  |                                                 |
\*---------------------------------------------------------------------------*/
FoamFile
{
    version     2.0;
    format      ascii;
    class       volScalarField;
    location    "1000";
    object      alphat;
}
// * * * * * * * * * * * * * * * * * * * * * * * * * * * * * * * * * * * * * //

dimensions      [0 2 -1 0 0 0 0];


internalField   nonuniform List<scalar> 
4000
(
0.000465937
0.000444558
0.000415189
0.000362758
0.000170551
0.000143782
0.000131599
0.000123283
0.000126092
0.000105352
0.000167183
0.000128146
0.000123718
0.000129868
0.000140919
0.000169987
0.00036745
0.000417603
0.00044641
0.000467533
0.000487737
0.000462462
0.000418049
0.000372972
0.000311439
0.000228918
0.000167701
0.000165622
0.000160872
0.000133352
0.000188657
0.000170781
0.000167841
0.000168876
0.000229548
0.000312425
0.000375453
0.000419658
0.000463871
0.000489253
0.000501266
0.000480511
0.000437318
0.000385841
0.000344725
0.000301924
0.000262083
0.000202286
0.000180749
0.00018794
0.000194888
0.000185264
0.000203354
0.000262479
0.000302014
0.000345013
0.000386546
0.00043838
0.000481727
0.000502672
0.000509421
0.000494966
0.00046002
0.000410485
0.000365481
0.000323866
0.000287487
0.000249278
0.000209001
0.000198062
0.000198649
0.000211448
0.000250473
0.000288241
0.000324283
0.000366067
0.000411026
0.000461172
0.000496176
0.000510743
0.000515775
0.000509069
0.000487847
0.000456986
0.000424223
0.000388309
0.000349981
0.000312531
0.000280693
0.000264318
0.000269738
0.00028642
0.000317228
0.000353906
0.000391598
0.00042604
0.0004584
0.00048913
0.000510316
0.000517047
0.000521762
0.000524276
0.00051703
0.000504204
0.00049019
0.000475048
0.000459522
0.000442987
0.000427433
0.00041315
0.000414428
0.000429331
0.000444997
0.00046149
0.000476886
0.000491845
0.000505726
0.000518456
0.000525625
0.000523019
0.000528575
0.000540443
0.000545896
0.000546819
0.000545572
0.00054141
0.000534498
0.00052458
0.0005117
0.000494554
0.000495057
0.000512399
0.000525545
0.000535673
0.000542732
0.000546977
0.00054827
0.000547343
0.000541839
0.000529807
0.000536693
0.00055805
0.000574277
0.000585178
0.00059248
0.000595548
0.000594522
0.000588525
0.000576496
0.000555953
0.000556107
0.000576661
0.000589047
0.000595345
0.000596623
0.000593748
0.000586569
0.000575715
0.000559462
0.0005379
0.000547293
0.000579608
0.0006055
0.000624486
0.000638474
0.000646936
0.000650268
0.000647249
0.000635533
0.000611252
0.000611181
0.000635399
0.000647551
0.000650963
0.000647945
0.00063971
0.000625859
0.000606929
0.000581009
0.000548467
0.000563019
0.000605248
0.000638953
0.000663545
0.000682494
0.000696297
0.000705086
0.000707805
0.000701884
0.000680421
0.000680159
0.000701632
0.000707938
0.00070556
0.000697055
0.000683481
0.000664703
0.000640218
0.000606536
0.000564141
0.000444556
0.000445162
0.000411565
0.000361974
0.000201311
0.000195135
0.000181072
0.000151258
0.000115335
0.000248986
0.000100024
0.000146627
0.000159148
0.000180656
0.000190806
0.000200493
0.000368336
0.000415111
0.000447861
0.000446867
0.000462449
0.000665851
0.000611252
0.000478927
0.000421758
0.000416407
0.000401592
0.000368925
0.000383939
0.000438385
0.000418826
0.000387265
0.00037177
0.000405243
0.000417368
0.000424594
0.000485512
0.00061954
0.000664511
0.000464787
0.000480496
0.000738595
0.00080526
0.00066136
0.000541987
0.000479975
0.000451213
0.000421076
0.000415378
0.000479369
0.000475774
0.000416198
0.000422926
0.00045206
0.000481021
0.000544245
0.000664637
0.000805575
0.000737492
0.000482663
0.000494951
0.000731915
0.00077102
0.000698432
0.000586698
0.00050576
0.000450779
0.00041189
0.000405373
0.000486611
0.00048371
0.000404581
0.000412831
0.00045238
0.000508241
0.000590238
0.000702766
0.000774533
0.000734334
0.000496946
0.000509058
0.000743946
0.00077476
0.000696539
0.000583139
0.00049808
0.000437929
0.000387399
0.000351286
0.000356986
0.000357556
0.00035229
0.000389645
0.000440947
0.000501827
0.000586863
0.000700829
0.000779355
0.000747696
0.000510858
0.000524272
0.000763236
0.000802902
0.000757293
0.000652911
0.000541311
0.000477033
0.000424148
0.000388511
0.000378354
0.000379427
0.000390601
0.00042666
0.000479853
0.000544414
0.000655738
0.000761536
0.000807472
0.000767132
0.000525872
0.000540443
0.000778506
0.00083004
0.000831577
0.000793974
0.000714488
0.000611353
0.000537734
0.000497109
0.000476221
0.000477426
0.000499112
0.000540209
0.000615675
0.00071935
0.000798321
0.000836068
0.000834383
0.000782316
0.000541872
0.000558052
0.000783874
0.00084728
0.000899321
0.000941071
0.000952884
0.000936207
0.000885504
0.000812936
0.000733481
0.000735366
0.000815613
0.000889587
0.000939879
0.000957273
0.000946061
0.000904412
0.000851557
0.00078754
0.000559372
0.000579611
0.000760825
0.000849699
0.000915958
0.000961514
0.000976032
0.000971391
0.000943387
0.000878977
0.00077335
0.000773376
0.000878038
0.000944377
0.000974057
0.000979893
0.000965968
0.000920353
0.000853573
0.00076396
0.000580853
0.000605252
0.000652005
0.000690851
0.00072081
0.000745312
0.000764481
0.000778099
0.000784361
0.00077987
0.000758505
0.000758044
0.000779511
0.000784455
0.000778593
0.000765306
0.00074639
0.000722055
0.000692169
0.000653287
0.000606309
0.000415195
0.00041155
0.00038285
0.000318669
0.000211308
0.000224365
0.000204049
0.000168035
0.000209288
0.000109628
0.000250568
0.000122487
0.000186037
0.000205013
0.000220645
0.000211833
0.000331954
0.000388657
0.000415108
0.000417994
0.000418006
0.000611222
0.000545689
0.000448406
0.000456464
0.000476889
0.000457281
0.000442643
0.000460002
0.000504106
0.000505789
0.000454408
0.000445545
0.000457727
0.000472505
0.000451116
0.000457104
0.00055878
0.000622565
0.000421111
0.000437258
0.000805244
0.000820406
0.000679304
0.000592265
0.000553844
0.000540656
0.000522104
0.000519681
0.000566541
0.000562322
0.000517681
0.000520866
0.000538345
0.000551449
0.000592204
0.000685009
0.000833393
0.000807922
0.000440328
0.00045996
0.000771006
0.000860539
0.000791916
0.00068507
0.000606774
0.000556125
0.000526955
0.00053435
0.000590582
0.000587537
0.000532577
0.000527352
0.00055766
0.000609767
0.000690445
0.000800867
0.000869318
0.000776689
0.000462774
0.000487809
0.000774749
0.000845296
0.000787115
0.00067898
0.000591313
0.000529496
0.000483683
0.000460126
0.000489145
0.00048852
0.00045993
0.000485415
0.000532554
0.000595688
0.000684777
0.000794804
0.000853799
0.000781593
0.000490107
0.00051701
0.000802897
0.000880506
0.000835366
0.000713097
0.000591768
0.000509187
0.000445734
0.000399142
0.00038629
0.000386346
0.000399644
0.000447364
0.00051179
0.000594998
0.000716698
0.000841049
0.000887994
0.00080947
0.000518952
0.00054589
0.000830039
0.000924212
0.000909935
0.000811112
0.000684056
0.000574965
0.000496102
0.000443972
0.000419383
0.00041995
0.000444458
0.000497716
0.000577965
0.000687741
0.000814756
0.000915146
0.000931008
0.000836216
0.00054749
0.000574278
0.000847283
0.000974193
0.00102178
0.000997767
0.000918675
0.000840114
0.000765557
0.000691405
0.000610201
0.000610039
0.000692013
0.000768605
0.000844038
0.000923815
0.00100326
0.00102791
0.000981073
0.000853123
0.000575666
0.000605503
0.000849701
0.00105652
0.00123043
0.00133303
0.00135371
0.00134476
0.00130931
0.00122013
0.0010296
0.00102935
0.00121816
0.00131142
0.00134979
0.00136051
0.00134055
0.00123771
0.00106308
0.000854596
0.000606804
0.000638958
0.000690853
0.000734203
0.000768778
0.000797975
0.000821633
0.000839425
0.000848921
0.000845964
0.000822731
0.000822077
0.000845523
0.000848996
0.000839936
0.000822504
0.000799107
0.000770058
0.000735524
0.0006921
0.000639964
0.000363256
0.000362178
0.000318723
0.000224563
0.000234423
0.000232881
0.000212093
0.000193391
0.00018249
0.00016906
0.000172165
0.00017742
0.000195092
0.000214416
0.000232907
0.000227874
0.000269004
0.000331572
0.000368362
0.000368247
0.000373031
0.000478971
0.000448424
0.000453872
0.000500282
0.000500291
0.000489915
0.000492058
0.000514408
0.000570481
0.000561913
0.000510718
0.000490505
0.00048492
0.000486059
0.000465956
0.00041388
0.000457462
0.000486919
0.000376568
0.000385805
0.000661333
0.000679293
0.000629495
0.000601185
0.00059384
0.000590873
0.000577882
0.000583446
0.000635043
0.000628741
0.000578707
0.000573068
0.000583338
0.000583886
0.000588958
0.000620393
0.000686558
0.000668358
0.000388316
0.000410379
0.000698396
0.000791897
0.000760331
0.000699883
0.000650164
0.000617688
0.000602967
0.000613969
0.000657523
0.000654858
0.000611693
0.000602432
0.000618187
0.000651659
0.000703156
0.000767374
0.000803328
0.000707151
0.000413108
0.000456916
0.000696509
0.000787099
0.000775
0.000712786
0.000649725
0.000600805
0.00056659
0.000557545
0.000605438
0.000605959
0.000558114
0.000568645
0.000604336
0.000654855
0.000719798
0.000784452
0.000798191
0.000705932
0.000459697
0.000504158
0.000757276
0.000835355
0.000822138
0.000746454
0.000653725
0.000578105
0.000518529
0.000474222
0.000463322
0.000463262
0.000474562
0.000520449
0.0005816
0.000658602
0.000752563
0.00083005
0.000845206
0.000766388
0.000506353
0.000546803
0.00083158
0.000909931
0.000909376
0.000838183
0.000727621
0.000625843
0.000544625
0.0004811
0.000446585
0.000446362
0.000481461
0.000546904
0.000629949
0.00073303
0.000844507
0.000917171
0.000919445
0.000839817
0.000548476
0.000585175
0.000899342
0.00102179
0.00107342
0.00104661
0.000959895
0.000867955
0.000782729
0.000697903
0.000610021
0.000608971
0.000698449
0.000786232
0.000873787
0.000967408
0.00105528
0.00108341
0.00103179
0.00090653
0.000586563
0.000624488
0.000915969
0.00123044
0.00149899
0.00160041
0.00161041
0.00159713
0.00154916
0.00142578
0.00120768
0.00120417
0.00142517
0.0015537
0.00160486
0.00162047
0.00161116
0.00150947
0.00123971
0.000922109
0.000625779
0.00066355
0.000720813
0.000768779
0.00080825
0.000843014
0.000872266
0.000894988
0.000908349
0.000907675
0.000887883
0.000886907
0.000907163
0.000908398
0.000895486
0.000873143
0.000844151
0.000809514
0.000770043
0.000721964
0.00066446
0.000169424
0.000200069
0.000211179
0.000234891
0.000240398
0.000230779
0.000216135
0.000201434
0.000187843
0.000181465
0.000180318
0.00018898
0.000203131
0.000217844
0.000231135
0.000237729
0.000228011
0.000212028
0.000200765
0.00017049
0.000311555
0.000421878
0.000456506
0.00050029
0.000515419
0.000513228
0.000513477
0.000519989
0.000551276
0.000629063
0.000617478
0.00054474
0.000516716
0.000507633
0.000500476
0.000493022
0.000466532
0.000452025
0.000425676
0.000313808
0.000344698
0.000541978
0.000592261
0.000601185
0.000609918
0.000618555
0.000616335
0.000606032
0.000619385
0.000693236
0.000683386
0.000613318
0.000600568
0.000607636
0.000607692
0.000597879
0.000589659
0.000593898
0.000546885
0.000346512
0.000365439
0.000586671
0.000685053
0.000699877
0.000683904
0.00066478
0.000652488
0.000648294
0.000659366
0.000709258
0.000704766
0.000656596
0.000647369
0.00065296
0.000665885
0.000686148
0.000704067
0.000692899
0.000593548
0.000367929
0.000424223
0.000583128
0.000678972
0.000712783
0.00069966
0.000670275
0.000641948
0.000622837
0.00062903
0.000690431
0.000690704
0.000630374
0.000625519
0.000646078
0.000675938
0.000706799
0.000721272
0.000688345
0.000591082
0.000427358
0.000490123
0.000652884
0.000713081
0.000746447
0.000729944
0.000682271
0.00063079
0.000586962
0.000560401
0.000576224
0.000577356
0.000562037
0.0005903
0.000636009
0.000689279
0.000738345
0.000755858
0.000723167
0.000662327
0.000492478
0.000545543
0.000793981
0.000811105
0.000838177
0.000823064
0.000760352
0.000684455
0.000615245
0.000560433
0.000543796
0.000544794
0.000562549
0.000619605
0.00069107
0.000768957
0.000833242
0.000849401
0.000822473
0.000803381
0.00054721
0.000592472
0.000941111
0.000997775
0.00104661
0.00104089
0.000978288
0.000899819
0.000820892
0.000736114
0.000648795
0.000648464
0.000738183
0.000826187
0.000908243
0.00098895
0.00105327
0.00106029
0.00101096
0.000949183
0.000593783
0.000638473
0.000961533
0.00133305
0.00160041
0.00172624
0.0017912
0.00181629
0.00178356
0.00163729
0.00136578
0.00136185
0.0016365
0.00178707
0.00182441
0.00180275
0.00173946
0.00161391
0.0013442
0.000968208
0.000639678
0.000682497
0.000745313
0.000797975
0.000843014
0.000885035
0.000920895
0.000949654
0.00096837
0.000972514
0.000958932
0.000957751
0.00097187
0.000968275
0.000949992
0.000921612
0.000886058
0.00084417
0.000799092
0.000746295
0.000683263
0.0001397
0.000190331
0.000223317
0.000233331
0.000230857
0.000224887
0.000216074
0.000205762
0.000195509
0.000192484
0.0001915
0.000196779
0.000207206
0.000217486
0.000225912
0.000231269
0.000233213
0.000221114
0.000191107
0.000141073
0.000229489
0.000416168
0.000476712
0.000500205
0.000513202
0.000522999
0.0005288
0.000539644
0.000579497
0.000665845
0.000653317
0.000570718
0.000535365
0.000523856
0.000514826
0.000501163
0.000487635
0.000474552
0.000419104
0.000232755
0.000301944
0.000479916
0.000553801
0.000593808
0.00061853
0.000627561
0.00062298
0.000616877
0.000640401
0.000716777
0.000706871
0.00063357
0.000612336
0.000616214
0.000618007
0.000608255
0.000584798
0.00055286
0.000482636
0.000303215
0.000323931
0.000505741
0.000606751
0.000650145
0.000664769
0.000668825
0.000669159
0.000667708
0.000678677
0.000727513
0.000723541
0.000676238
0.000666896
0.000669427
0.000670014
0.000666255
0.000652567
0.000611379
0.000510056
0.000325378
0.000388712
0.000498186
0.000591338
0.000649726
0.000670271
0.000669005
0.000660264
0.000655729
0.000674736
0.000731244
0.000731769
0.000676381
0.000658947
0.000664637
0.000674396
0.000676343
0.000656093
0.000597733
0.000503799
0.000393087
0.000475013
0.000541319
0.000591769
0.000653723
0.000682269
0.000676316
0.00065395
0.000631521
0.000628267
0.000667946
0.000670554
0.000631478
0.000636329
0.000660381
0.000684031
0.000690532
0.000661778
0.000599113
0.000547272
0.000477449
0.000541379
0.000714492
0.000684052
0.000727619
0.000760351
0.000747951
0.000707155
0.000661031
0.000630237
0.000648137
0.000651176
0.000634729
0.00066765
0.000715892
0.000758401
0.000771751
0.000738985
0.000694577
0.000724757
0.000542975
0.000595537
0.00095294
0.000918704
0.000959904
0.000978292
0.000952969
0.000904184
0.000842316
0.000763581
0.000682678
0.000684069
0.000767573
0.000849228
0.00091416
0.000965509
0.000992008
0.000973776
0.000930585
0.000961106
0.000596687
0.000646932
0.000976063
0.00135374
0.00161043
0.00179121
0.00190777
0.0019654
0.00192782
0.00172445
0.00134201
0.00133889
0.0017244
0.00193088
0.00197165
0.00191786
0.00180409
0.00162355
0.00136403
0.00098195
0.000647933
0.000696296
0.000764479
0.000821632
0.000872265
0.000920895
0.000963287
0.000998335
0.00102305
0.00103367
0.00102848
0.00102714
0.00103297
0.00102285
0.000998482
0.000963724
0.000921635
0.000873163
0.000822476
0.000765209
0.000696872
0.000127152
0.000174195
0.000201288
0.000212828
0.000216397
0.000216133
0.000212894
0.000208162
0.00020375
0.000207165
0.000206231
0.000204441
0.000209315
0.000214218
0.000217597
0.000218066
0.000214806
0.000206213
0.000181053
0.000130935
0.00016781
0.000401076
0.00045686
0.000489849
0.000513492
0.000528809
0.00054026
0.000560125
0.000611701
0.000697722
0.000686752
0.000601138
0.000554706
0.000536201
0.000524434
0.000508631
0.000486397
0.000459555
0.000406343
0.000170004
0.000262359
0.00045107
0.000540531
0.000590805
0.000616299
0.000622968
0.000620166
0.000623503
0.000656625
0.00068853
0.000683707
0.00064961
0.000619744
0.000616059
0.000617033
0.000609057
0.000584944
0.00053984
0.000452883
0.000263151
0.000287769
0.000450752
0.00055607
0.000617647
0.00065246
0.000669146
0.000672404
0.00067053
0.0006824
0.000658685
0.000661615
0.000681034
0.000670363
0.000672755
0.000669948
0.000653649
0.000619057
0.000558742
0.000453357
0.000288931
0.000350797
0.000438116
0.000529531
0.000600796
0.000641933
0.000660255
0.000666429
0.000673328
0.000692366
0.000647636
0.00065422
0.000695002
0.000676822
0.000670671
0.000664805
0.000646425
0.000604995
0.000533497
0.000441972
0.000355278
0.000459609
0.000477084
0.000509189
0.000578097
0.000630782
0.000653945
0.000656674
0.000654944
0.000662882
0.000611353
0.000618535
0.000667607
0.000660409
0.000663115
0.000660749
0.000637159
0.000583627
0.000514011
0.000481558
0.000462037
0.000534475
0.000611371
0.000574961
0.000625842
0.000684454
0.000707154
0.000697465
0.000677492
0.000670394
0.00064523
0.000651426
0.000676565
0.000685235
0.000706664
0.000717074
0.000694125
0.000634499
0.000582468
0.000619501
0.000535934
0.000594514
0.000936276
0.000840152
0.000867974
0.000899831
0.00090419
0.000881011
0.000832197
0.0007582
0.000677163
0.00068035
0.000763577
0.000839586
0.000890526
0.000915581
0.000911653
0.000878944
0.00084911
0.00094418
0.000595461
0.00065026
0.000971427
0.0013448
0.00159715
0.00181631
0.00196541
0.0020291
0.00194834
0.00163493
0.00109434
0.00109355
0.00163835
0.00195241
0.00203394
0.00197251
0.00182579
0.00160707
0.00135262
0.000975996
0.000651
0.000705079
0.000778093
0.000839421
0.000894986
0.000949655
0.000998336
0.00103999
0.00107217
0.00109333
0.0011058
0.00110425
0.00109262
0.00107189
0.00103997
0.000998515
0.000950045
0.000895513
0.000839914
0.000778519
0.000705428
0.000122194
0.000152533
0.000179339
0.000194314
0.000201697
0.000205696
0.000208085
0.000210619
0.000214164
0.00022474
0.00022356
0.000214233
0.000211517
0.000209459
0.000207453
0.000203547
0.000196089
0.000189421
0.000158064
0.000124236
0.000166739
0.000367856
0.000443562
0.000491725
0.00051983
0.000539616
0.00056013
0.000593378
0.000627834
0.000559469
0.000552967
0.000618029
0.000586506
0.000556037
0.000537102
0.000518572
0.000492295
0.000446654
0.000372211
0.00016842
0.000206357
0.000421395
0.000522055
0.000577717
0.000605943
0.000616856
0.000623508
0.000640005
0.000616771
0.000414833
0.000414253
0.000614646
0.000636618
0.000621151
0.000614376
0.000603048
0.000575712
0.000522998
0.000423858
0.000205013
0.000249861
0.000411828
0.000526852
0.00060288
0.000648239
0.000667687
0.000670529
0.000668731
0.000594293
0.000375749
0.000376463
0.00060039
0.000670001
0.000671492
0.000668466
0.000648958
0.000603763
0.000528311
0.000413397
0.000250987
0.000314656
0.000387878
0.000483769
0.000566571
0.000622807
0.000655712
0.000673322
0.000678594
0.000574776
0.000407769
0.000405773
0.000584758
0.000683159
0.000677219
0.000659286
0.000625751
0.000568892
0.000485832
0.000390485
0.000318791
0.000443208
0.000424274
0.000445745
0.00051852
0.000586949
0.000631511
0.00065494
0.000660132
0.000537092
0.000447606
0.000442928
0.000547492
0.000666345
0.000660495
0.000636557
0.000590964
0.000521646
0.000448741
0.000427847
0.000445553
0.000524556
0.000537786
0.000496122
0.000544636
0.000615247
0.000661029
0.00067749
0.000678912
0.000588708
0.000526406
0.000522805
0.000598375
0.000686836
0.000685641
0.000668896
0.000622031
0.000550079
0.000500552
0.000542583
0.000525844
0.000588516
0.000885587
0.00076561
0.000782757
0.000820908
0.000842328
0.000832202
0.00078599
0.000706838
0.000648431
0.000646363
0.000712969
0.000793265
0.000840335
0.000851003
0.000829272
0.000790101
0.000772022
0.000894093
0.000589232
0.000647235
0.000943418
0.00130935
0.00154918
0.00178358
0.00192785
0.00194835
0.00175177
0.00129713
0.00111812
0.00111312
0.00130494
0.00175926
0.00195384
0.00193305
0.00178939
0.00155557
0.00131439
0.000946684
0.000647671
0.000707789
0.000784348
0.000848912
0.000908345
0.000968369
0.00102306
0.00107217
0.00111546
0.00115725
0.00121251
0.00121041
0.00115634
0.00111502
0.00107193
0.00102294
0.000968377
0.000908458
0.000849008
0.00078442
0.000707866
0.000125265
0.000190298
0.000121763
0.000175493
0.000188211
0.000195899
0.000203884
0.000214219
0.00022174
0.000234428
0.000233345
0.000221483
0.000214605
0.000204946
0.000197443
0.000190109
0.0001792
0.000121567
0.000163355
0.000125262
0.000166531
0.000389321
0.000455029
0.000513867
0.000551159
0.000579473
0.000611711
0.000627861
0.000495426
0.000544472
0.000537234
0.000490711
0.000621023
0.000605565
0.000575218
0.00054896
0.000514108
0.000456466
0.000389994
0.00016806
0.000190395
0.000415708
0.00051885
0.000583258
0.000619295
0.000640363
0.000656622
0.000616786
0.000390214
0.000675855
0.00066437
0.000389911
0.000617082
0.000653951
0.000638016
0.000617637
0.000582676
0.00052077
0.000418492
0.000186177
0.000211606
0.000405753
0.000534227
0.00061384
0.000659292
0.000678644
0.000682396
0.000594299
0.000390646
0.000917574
0.000901428
0.000390101
0.000601835
0.000684035
0.000679282
0.000659585
0.000614235
0.000534522
0.000405736
0.000212646
0.000285584
0.000352817
0.000460463
0.000557561
0.000628987
0.000674704
0.000692355
0.000574776
0.000441657
0.00120832
0.0011869
0.000437501
0.000585417
0.000696173
0.000676753
0.000629934
0.000557467
0.000459976
0.00035369
0.000289073
0.000427993
0.00038891
0.000399203
0.000474221
0.000560387
0.000628252
0.000662876
0.000537092
0.000500786
0.00148161
0.00145543
0.000492067
0.000547642
0.000667499
0.000630808
0.000561598
0.000474934
0.000400707
0.000391853
0.000430072
0.000511742
0.000497228
0.000444015
0.000481116
0.000560431
0.000630228
0.000670387
0.000588703
0.000595585
0.00167107
0.00164276
0.000586496
0.000598425
0.000676593
0.000635137
0.000564063
0.000483872
0.000446734
0.00050102
0.000512773
0.000576486
0.000813032
0.000691457
0.000697923
0.000736121
0.000763588
0.000758208
0.000706835
0.000748198
0.00176215
0.00173518
0.000741418
0.000713678
0.00076482
0.000769707
0.000741461
0.000702497
0.000695999
0.000820282
0.000576881
0.000635508
0.000878978
0.00122012
0.00142577
0.00163728
0.00172445
0.00163492
0.00129709
0.00118144
0.00171031
0.00169273
0.00117514
0.00130709
0.0016422
0.00172905
0.0016409
0.00142942
0.00122254
0.000880867
0.000635547
0.000701854
0.000779845
0.000845945
0.000907663
0.000972508
0.00103367
0.00109334
0.00115726
0.00124078
0.00134876
0.0013464
0.001239
0.00115628
0.00109263
0.00103307
0.000971986
0.000907243
0.000845533
0.000779453
0.000701565
0.000176769
9.06804e-05
0.000209936
0.000169647
0.000180813
0.000191985
0.000206969
0.000224705
0.000234435
0.000242744
0.000242007
0.000234072
0.000224611
0.000207391
0.000192728
0.000181355
0.000170266
0.000211558
9.7195e-05
0.000170407
0.000207412
0.000424511
0.000511331
0.00057008
0.000628974
0.000665808
0.000697727
0.000559502
0.000544505
0.000363363
0.000361065
0.000540345
0.000557642
0.000692799
0.000659907
0.000624008
0.000566284
0.000508183
0.000420633
0.000185889
0.000204134
0.000479877
0.000567275
0.000635018
0.000693189
0.00071675
0.00068854
0.000414846
0.000675862
0.000528687
0.000525714
0.000668429
0.000417058
0.000688548
0.000712763
0.000689128
0.000633381
0.000566161
0.000478835
0.000195049
0.000202733
0.000487158
0.000590663
0.000657477
0.000709234
0.000727496
0.000658693
0.000375746
0.000917566
0.000704574
0.000701962
0.000905947
0.000378088
0.00066335
0.000726207
0.000707036
0.000657344
0.00059063
0.000486172
0.000199767
0.000273758
0.000361007
0.000490333
0.000605672
0.000690444
0.000731232
0.00064764
0.000407758
0.00120832
0.000903227
0.000901827
0.00119151
0.000407319
0.000653448
0.000730331
0.00068727
0.000601246
0.00048531
0.000358562
0.000273796
0.000413962
0.000379208
0.000386498
0.000463385
0.000576252
0.000667943
0.000611349
0.000447593
0.00148162
0.00111909
0.00111953
0.00145943
0.000443956
0.000616417
0.000666657
0.000573107
0.000460865
0.000386345
0.000381374
0.000415641
0.000494621
0.000476415
0.000419467
0.000446616
0.000543802
0.000648129
0.000645218
0.000526402
0.00167113
0.0013336
0.00133653
0.00164609
0.000523108
0.000650192
0.000649225
0.000543885
0.0004471
0.000421367
0.000479616
0.000495284
0.000555929
0.000733557
0.000610239
0.000610024
0.000648784
0.000682674
0.000677165
0.000648432
0.00176228
0.00149246
0.00149784
0.00173708
0.00064673
0.000681802
0.000686298
0.000651636
0.000612685
0.000613623
0.000739232
0.000555835
0.000611205
0.000773308
0.00102952
0.00120757
0.00136569
0.00134196
0.00109431
0.00111817
0.00171041
0.00160558
0.00161005
0.00169282
0.00111274
0.0010987
0.00134565
0.00136664
0.00120805
0.00103127
0.000773834
0.000610643
0.000680368
0.000758459
0.000822695
0.000887854
0.000958912
0.00102847
0.0011058
0.00121252
0.00134878
0.00138702
0.00139184
0.00134626
0.00121005
0.00110397
0.00102701
0.000957596
0.000886653
0.000821649
0.000757479
0.000679496
9.96603e-05
0.000213851
0.000108165
0.000169011
0.000181749
0.000192416
0.000206609
0.000223689
0.000233383
0.000242014
0.000242276
0.000233981
0.000224448
0.000207275
0.000192924
0.000181979
0.00016883
0.000104977
0.000230917
9.83699e-05
0.000146482
0.000430868
0.000498104
0.000562355
0.00061752
0.000653362
0.000686773
0.000552989
0.000537214
0.000361035
0.000362227
0.000541135
0.00055772
0.000693318
0.00066059
0.000624498
0.000567766
0.000501146
0.000433637
0.000148523
0.00019048
0.000475876
0.000561817
0.000628765
0.000683413
0.000706869
0.000683676
0.000414223
0.000664343
0.000525679
0.000526765
0.000668819
0.000415421
0.000686919
0.000711348
0.000687811
0.000632159
0.00056433
0.000477251
0.000189454
0.000202052
0.00048439
0.000587638
0.000654858
0.000704784
0.000723528
0.00066156
0.000376418
0.000901413
0.000701919
0.000702159
0.000905273
0.000375669
0.000660574
0.000723311
0.000704359
0.000655014
0.000588416
0.000484248
0.000200483
0.000274618
0.000359957
0.000489412
0.000606209
0.000690754
0.000731761
0.000654171
0.000405731
0.0011869
0.000901775
0.000900621
0.00118956
0.000404039
0.000650282
0.000727058
0.000684428
0.00059914
0.000483939
0.000358549
0.000276196
0.000414796
0.000379947
0.000386598
0.000463408
0.00057743
0.000670565
0.000618506
0.00044289
0.00145543
0.00111946
0.0011166
0.00145662
0.000440654
0.000613808
0.000664301
0.000571164
0.000459334
0.000385635
0.000381504
0.000415755
0.000495072
0.000477565
0.000420048
0.000446433
0.000544829
0.000651178
0.000651412
0.000522753
0.00164271
0.00133646
0.00133186
0.00164273
0.000520199
0.000648192
0.000647578
0.000542445
0.000446087
0.000421196
0.000479759
0.000494991
0.00055607
0.000735389
0.000610065
0.000608982
0.000648466
0.000684076
0.000680355
0.000646322
0.00173505
0.00149776
0.00149186
0.00173301
0.00064417
0.000680361
0.00068501
0.000650283
0.000611507
0.000612906
0.000738996
0.000555322
0.000611131
0.000773324
0.00102926
0.00120411
0.00136185
0.00133897
0.0010936
0.00111303
0.00169263
0.00160998
0.0016038
0.0016899
0.00110992
0.00109644
0.00134367
0.00136404
0.00120536
0.00102988
0.00077264
0.000609938
0.000680109
0.000758004
0.000822046
0.000886883
0.000957736
0.00102713
0.00110424
0.0012104
0.00134639
0.00139181
0.00138709
0.00134359
0.00120782
0.00110203
0.0010253
0.000956042
0.000885233
0.000820416
0.000756407
0.000678585
0.000118821
0.000148411
0.000219484
0.000179987
0.000188327
0.000196393
0.000204303
0.000214177
0.000221441
0.000234077
0.000233942
0.000221349
0.000214137
0.000204203
0.000196289
0.000188236
0.000179253
0.000219909
0.000130942
0.000131674
0.000158092
0.000387089
0.000458952
0.000511007
0.000544753
0.000570685
0.000601117
0.000618015
0.000490702
0.000540352
0.000541088
0.000492241
0.000621945
0.000605802
0.000574983
0.00054831
0.000512428
0.000459685
0.000386009
0.000163342
0.00018215
0.000416257
0.000518176
0.000578744
0.000613286
0.000633541
0.000649583
0.000614601
0.000389885
0.000668521
0.000668768
0.000389373
0.00061538
0.000652199
0.000636324
0.000616034
0.000581148
0.00051968
0.000416451
0.000182008
0.000212831
0.000405076
0.000532731
0.000611726
0.000656585
0.000676211
0.000680994
0.000600315
0.000390088
0.000906116
0.000905218
0.000388536
0.000597999
0.00068044
0.000675925
0.000656454
0.00061138
0.000532268
0.000404467
0.000213298
0.000288871
0.000353342
0.000460318
0.000558232
0.00063039
0.000676361
0.000694964
0.000584685
0.000437526
0.00119177
0.00118949
0.00043539
0.000580851
0.000691842
0.000672934
0.000626813
0.000555158
0.000458387
0.000353096
0.000290184
0.000429488
0.000390828
0.000399788
0.00047464
0.000562062
0.000631472
0.000667577
0.000547432
0.000492121
0.00145976
0.00145654
0.000489963
0.000543959
0.000664055
0.000627899
0.000559186
0.000472949
0.000399487
0.000391709
0.000429782
0.000512391
0.000499164
0.000444515
0.000481509
0.000562566
0.00063472
0.000676536
0.00059833
0.000586545
0.00164647
0.00164261
0.000584309
0.000595542
0.000673795
0.000632596
0.000561751
0.000482018
0.000445752
0.000500637
0.000512046
0.000576636
0.000815611
0.000692018
0.000698449
0.000738173
0.00076756
0.000763561
0.000712953
0.000741451
0.00173748
0.00173285
0.000739114
0.000712133
0.000763078
0.000767738
0.000739346
0.00070052
0.000694357
0.000818556
0.000575905
0.000635373
0.000878033
0.00121815
0.00142514
0.0016365
0.00172445
0.00163843
0.00130499
0.00117517
0.00169308
0.0016898
0.00117229
0.00130742
0.00164155
0.00172669
0.0016378
0.00142618
0.00121914
0.000878234
0.00063439
0.000701612
0.000779495
0.000845511
0.000907155
0.000971868
0.00103298
0.00109263
0.00115634
0.00123903
0.00134631
0.00134357
0.00123647
0.00115413
0.00109074
0.00103131
0.000970325
0.000905684
0.000844091
0.000778134
0.00070036
0.000124815
0.000151146
0.000167411
0.000195394
0.000203245
0.000207173
0.000209271
0.000211478
0.000214543
0.000224666
0.000224351
0.000214165
0.00021103
0.000208828
0.000206723
0.000202638
0.000194121
0.000165928
0.000151377
0.000127837
0.000165927
0.000371317
0.000444327
0.000490354
0.000516706
0.000535362
0.000554708
0.000586516
0.000621051
0.000557664
0.000557672
0.000621887
0.000588011
0.000556219
0.000536829
0.000518023
0.000491217
0.000443733
0.000370214
0.000168407
0.000203377
0.000422927
0.000520716
0.00057305
0.000600546
0.000612315
0.00061973
0.000636613
0.000617078
0.000417046
0.000415387
0.000615345
0.000636503
0.000620477
0.000613787
0.000602636
0.00057512
0.00052154
0.000422018
0.000204924
0.000250691
0.000412916
0.000527369
0.00060243
0.000647355
0.000666875
0.000670339
0.000669977
0.000601787
0.000378078
0.00037565
0.000597978