/*--------------------------------*- C++ -*----------------------------------*\
| =========                 |                                                 |
| \\      /  F ield         | OpenFOAM: The Open Source CFD Toolbox           |
|  \\    /   O peration     | Version:  v1912                                 |
|   \\  /    A nd           | Website:  www.openfoam.com                      |
|    \\/     M anipulation  |                                                 |
\*---------------------------------------------------------------------------*/
FoamFile
{
    version     2.0;
    format      ascii;
    class       volScalarField;
    location    "1000";
    object      epsilon;
}
// * * * * * * * * * * * * * * * * * * * * * * * * * * * * * * * * * * * * * //

dimensions      [0 2 -3 0 0 0 0];


internalField   nonuniform List<scalar> 
4000
(
5.62394e-07
4.88473e-07
3.97867e-07
2.65704e-07
2.72424e-08
1.59764e-08
1.25365e-08
1.07365e-08
1.07114e-08
1.13479e-08
1.31689e-08
1.03916e-08
1.06117e-08
1.23865e-08
1.55705e-08
2.73289e-08
2.75927e-07
4.04864e-07
4.94652e-07
5.68317e-07
6.45217e-07
5.49952e-07
4.06152e-07
2.88501e-07
1.67919e-07
6.75421e-08
2.6581e-08
2.56586e-08
2.41386e-08
2.1971e-08
2.62064e-08
2.495e-08
2.60818e-08
2.69988e-08
6.75433e-08
1.69546e-07
2.94218e-07
4.10895e-07
5.55066e-07
6.51322e-07
7.00458e-07
6.16943e-07
4.64981e-07
3.1944e-07
2.27828e-07
1.53286e-07
1.00672e-07
4.66665e-08
3.36354e-08
3.84376e-08
3.90013e-08
3.43451e-08
4.67249e-08
1.00595e-07
1.53219e-07
2.28342e-07
3.21143e-07
4.68469e-07
6.21732e-07
7.06441e-07
7.35243e-07
6.74366e-07
5.41266e-07
3.84592e-07
2.7155e-07
1.89096e-07
1.32443e-07
8.6534e-08
5.15619e-08
4.42874e-08
4.39909e-08
5.28722e-08
8.7464e-08
1.33164e-07
1.89632e-07
2.7274e-07
3.86143e-07
5.45477e-07
6.79421e-07
7.41057e-07
7.63145e-07
7.3374e-07
6.4567e-07
5.30661e-07
4.24638e-07
3.26063e-07
2.39071e-07
1.71084e-07
1.25136e-07
1.06571e-07
1.09656e-07
1.31238e-07
1.77665e-07
2.46362e-07
3.33725e-07
4.29975e-07
5.35692e-07
6.50895e-07
7.39226e-07
7.6887e-07
7.90075e-07
8.01544e-07
7.68708e-07
7.12831e-07
6.54999e-07
5.96212e-07
5.39767e-07
4.83667e-07
4.34763e-07
3.92641e-07
3.95715e-07
4.39939e-07
4.89847e-07
5.4639e-07
6.03013e-07
6.61682e-07
7.19405e-07
7.75178e-07
8.07804e-07
7.95848e-07
8.21472e-07
8.78075e-07
9.04903e-07
9.09463e-07
9.03228e-07
8.82716e-07
8.49335e-07
8.02891e-07
7.45324e-07
6.72908e-07
6.74693e-07
7.48075e-07
8.07173e-07
8.54816e-07
8.89138e-07
9.10245e-07
9.16773e-07
9.12164e-07
8.84932e-07
8.27265e-07
8.59958e-07
9.66801e-07
1.05362e-06
1.11476e-06
1.15703e-06
1.17511e-06
1.16908e-06
1.13406e-06
1.06594e-06
9.55941e-07
9.56509e-07
1.06654e-06
1.1368e-06
1.17374e-06
1.18138e-06
1.16444e-06
1.12274e-06
1.06157e-06
9.74165e-07
8.65789e-07
9.11983e-07
1.08332e-06
1.23509e-06
1.35498e-06
1.44812e-06
1.50649e-06
1.5299e-06
1.50869e-06
1.42819e-06
1.27057e-06
1.26988e-06
1.42696e-06
1.5105e-06
1.5346e-06
1.51341e-06
1.45648e-06
1.36391e-06
1.24385e-06
1.09117e-06
9.17867e-07
9.92952e-07
1.23362e-06
1.45143e-06
1.62558e-06
1.7689e-06
1.87843e-06
1.95047e-06
1.97309e-06
1.92392e-06
1.75265e-06
1.7503e-06
1.92152e-06
1.9739e-06
1.95415e-06
1.88439e-06
1.77646e-06
1.63403e-06
1.46001e-06
1.24146e-06
9.98871e-07
4.88462e-07
4.90378e-07
3.87408e-07
2.63683e-07
4.49061e-08
4.02194e-08
3.23487e-08
2.04939e-08
1.57124e-08
2.27948e-08
1.50507e-08
1.72787e-08
2.10517e-08
3.23937e-08
3.86146e-08
4.47891e-08
2.777e-07
3.97587e-07
4.99441e-07
4.96205e-07
5.49928e-07
6.37904e-07
4.80147e-07
3.05263e-07
2.11073e-07
1.53119e-07
6.65216e-08
4.18984e-08
2.9931e-08
2.38409e-08
2.44299e-08
3.05219e-08
4.29436e-08
6.85285e-08
1.55423e-07
2.14521e-07
3.1171e-07
4.85219e-07
6.34712e-07
5.58389e-07
6.16918e-07
7.20164e-07
7.14693e-07
4.74468e-07
3.00972e-07
2.06516e-07
1.54505e-07
1.0277e-07
5.67465e-08
3.66218e-08
3.69695e-08
5.70395e-08
1.03251e-07
1.54494e-07
2.06433e-07
3.01139e-07
4.74039e-07
7.09761e-07
7.16947e-07
6.25386e-07
6.74344e-07
6.93032e-07
6.29901e-07
4.85116e-07
3.25977e-07
2.24381e-07
1.59285e-07
1.12428e-07
7.98707e-08
6.07392e-08
6.15171e-08
8.09244e-08
1.13482e-07
1.60575e-07
2.2623e-07
3.28883e-07
4.89365e-07
6.34076e-07
6.9694e-07
6.82604e-07
7.33725e-07
7.20367e-07
6.50286e-07
5.14446e-07
3.71846e-07
2.64865e-07
1.89142e-07
1.31657e-07
9.11795e-08
7.35049e-08
7.45718e-08
9.36675e-08
1.35075e-07
1.93775e-07
2.70628e-07
3.77545e-07
5.20735e-07
6.56792e-07
7.26768e-07
7.41591e-07
8.01543e-07
7.6956e-07
7.08831e-07
6.16292e-07
5.05226e-07
3.91074e-07
3.17168e-07
2.57243e-07
2.18854e-07
2.01075e-07
2.02553e-07
2.21755e-07
2.60956e-07
3.2164e-07
3.96188e-07
5.10272e-07
6.22605e-07
7.15292e-07
7.76275e-07
8.08944e-07
8.78084e-07
8.27284e-07
7.79029e-07
7.26089e-07
6.7522e-07
5.93926e-07
4.89627e-07
4.13601e-07
3.70031e-07
3.42511e-07
3.43699e-07
3.71753e-07
4.15784e-07
4.9365e-07
5.98794e-07
6.8033e-07
7.31992e-07
7.8481e-07
8.3395e-07
8.8509e-07
9.66816e-07
9.20939e-07
9.04407e-07
8.9469e-07
9.07259e-07
8.95623e-07
8.59024e-07
7.87108e-07
7.01379e-07
5.96594e-07
5.97967e-07
7.0269e-07
7.89445e-07
8.61207e-07
8.99564e-07
9.13088e-07
9.01668e-07
9.11038e-07
9.28177e-07
9.73691e-07
1.08334e-06
1.14813e-06
1.24413e-06
1.31592e-06
1.38652e-06
1.42819e-06
1.43915e-06
1.39499e-06
1.2678e-06
1.02554e-06
1.02489e-06
1.26571e-06
1.39672e-06
1.44438e-06
1.43611e-06
1.396e-06
1.32559e-06
1.25342e-06
1.15685e-06
1.09028e-06
1.23364e-06
1.54223e-06
1.83471e-06
2.08398e-06
2.30385e-06
2.48626e-06
2.62152e-06
2.68528e-06
2.63933e-06
2.42815e-06
2.42327e-06
2.63517e-06
2.68577e-06
2.62613e-06
2.49405e-06
2.31369e-06
2.09468e-06
1.84517e-06
1.55131e-06
1.24004e-06
3.97854e-07
3.87389e-07
3.11668e-07
1.79334e-07
5.22061e-08
6.18556e-08
4.64647e-08
3.00226e-08
2.62611e-08
1.87721e-08
2.65544e-08
2.12273e-08
3.14195e-08
4.74179e-08
5.97336e-08
5.27586e-08
2.02915e-07
3.26169e-07
3.9761e-07
4.06052e-07
4.06102e-07
4.80107e-07
3.60415e-07
2.35945e-07
1.94645e-07
1.51427e-07
8.3804e-08
5.59538e-08
3.91538e-08
3.06269e-08
3.03545e-08
4.07008e-08
5.73499e-08
8.69324e-08
1.53353e-07
1.95208e-07
2.46322e-07
3.70748e-07
4.89627e-07
4.15262e-07
4.64924e-07
7.14619e-07
6.42308e-07
4.23959e-07
2.8806e-07
2.12405e-07
1.66095e-07
1.17657e-07
7.33786e-08
4.71576e-08
4.81875e-08
7.49461e-08
1.17801e-07
1.65362e-07
2.11425e-07
2.88504e-07
4.28361e-07
6.53159e-07
7.14974e-07
4.74818e-07
5.41219e-07
6.29853e-07
5.98728e-07
4.67141e-07
3.27881e-07
2.35202e-07
1.74154e-07
1.30687e-07
9.90513e-08
7.08565e-08
7.2117e-08
1.00391e-07
1.3212e-07
1.75953e-07
2.38036e-07
3.33015e-07
4.76401e-07
6.07342e-07
6.37181e-07
5.51228e-07
6.45643e-07
6.50248e-07
5.64964e-07
4.41485e-07
3.21887e-07
2.3552e-07
1.74313e-07
1.26793e-07
9.03537e-08
6.79586e-08
6.86686e-08
9.21154e-08
1.29473e-07
1.7794e-07
2.40081e-07
3.27436e-07
4.48751e-07
5.7365e-07
6.59461e-07
6.54816e-07
7.68702e-07
7.08802e-07
6.07293e-07
4.86334e-07
3.71001e-07
2.74206e-07
2.08793e-07
1.58943e-07
1.2484e-07
1.08717e-07
1.0926e-07
1.26197e-07
1.61173e-07
2.11905e-07
2.77794e-07
3.7461e-07
4.91349e-07
6.14633e-07
7.17451e-07
7.77397e-07
9.04916e-07
7.79004e-07
6.79762e-07
5.48486e-07
4.37718e-07
3.47555e-07
2.73181e-07
2.2017e-07
1.87834e-07
1.70256e-07
1.7072e-07
1.88197e-07
2.21061e-07
2.75006e-07
3.49857e-07
4.39918e-07
5.51935e-07
6.86176e-07
7.87028e-07
9.12888e-07
1.05364e-06
9.04386e-07
8.58669e-07
7.28139e-07
5.58801e-07
5.06956e-07
4.5956e-07
4.09026e-07
3.52751e-07
2.82453e-07
2.81822e-07
3.52104e-07
4.09672e-07
4.60794e-07
5.09362e-07
5.61998e-07
7.32401e-07
8.6682e-07
9.12996e-07
1.06128e-06
1.23512e-06
1.24412e-06
1.43558e-06
1.60742e-06
1.74744e-06
1.78589e-06
1.79458e-06
1.71417e-06
1.46472e-06
1.01032e-06
1.00933e-06
1.46531e-06
1.72169e-06
1.80727e-06
1.80199e-06
1.76424e-06
1.62222e-06
1.44837e-06
1.25483e-06
1.24306e-06
1.45146e-06
1.83473e-06
2.20235e-06
2.52848e-06
2.82773e-06
3.08683e-06
3.29173e-06
3.40465e-06
3.36905e-06
3.09887e-06
3.09085e-06
3.36306e-06
3.40486e-06
3.29719e-06
3.09625e-06
2.83951e-06
2.54095e-06
2.21414e-06
1.8446e-06
1.45823e-06
2.65813e-07
2.63663e-07
1.79314e-07
6.29143e-08
7.1746e-08
7.01702e-08
5.29308e-08
4.00988e-08
3.1272e-08
2.65403e-08
2.6656e-08
3.16298e-08
4.14952e-08
5.46653e-08
7.0155e-08
6.587e-08
1.07365e-07
2.02307e-07
2.77782e-07
2.7766e-07
2.8847e-07
3.05246e-07
2.35937e-07
1.97883e-07
1.80552e-07
1.25199e-07
8.15824e-08
6.16227e-08
4.62718e-08
3.78443e-08
3.8951e-08
4.83193e-08
6.36256e-08
8.42445e-08
1.24756e-07
1.64938e-07
1.75508e-07
2.46659e-07
3.13762e-07
2.96912e-07
3.19376e-07
4.74416e-07
4.23943e-07
3.19404e-07
2.46703e-07
1.99263e-07
1.59487e-07
1.14655e-07
7.66073e-08
5.37047e-08
5.49634e-08
7.79771e-08
1.14485e-07
1.57184e-07
1.95257e-07
2.41162e-07
3.1575e-07
4.30384e-07
4.80262e-07
3.25663e-07
3.84519e-07
4.85036e-07
4.67105e-07
3.77187e-07
2.87208e-07
2.20154e-07
1.71887e-07
1.35687e-07
1.04413e-07
7.33724e-08
7.486e-08
1.06077e-07
1.37337e-07
1.73812e-07
2.22757e-07
2.91552e-07
3.85524e-07
4.79004e-07
4.95136e-07
3.9212e-07
5.30623e-07
5.14366e-07
4.41444e-07
3.56503e-07
2.76156e-07
2.13224e-07
1.65467e-07
1.26956e-07
9.57152e-08
7.2594e-08
7.35105e-08
9.7708e-08
1.29626e-07
1.68851e-07
2.17444e-07
2.81581e-07
3.64073e-07
4.51335e-07
5.25869e-07
5.40279e-07
7.12819e-07
6.16223e-07
4.86292e-07
3.81583e-07
2.95842e-07
2.24511e-07
1.71393e-07
1.29527e-07
9.71192e-08
7.68658e-08
7.69924e-08
9.8101e-08
1.315e-07
1.74273e-07
2.2801e-07
2.99766e-07
3.86606e-07
4.93874e-07
6.26409e-07
7.22084e-07
9.09478e-07
7.26047e-07
5.48443e-07
4.21616e-07
3.33051e-07
2.60468e-07
2.03312e-07
1.5991e-07
1.28275e-07
1.08117e-07
1.07916e-07
1.28357e-07
1.60911e-07
2.05259e-07
2.62974e-07
3.35775e-07
4.25196e-07
5.54941e-07
7.34145e-07
9.17792e-07
1.11479e-06
8.94667e-07
7.28086e-07
5.57457e-07
4.9678e-07
4.64674e-07
4.3364e-07
3.94008e-07
3.31484e-07
2.44472e-07
2.42707e-07
3.31491e-07
3.96613e-07
4.37985e-07
4.70165e-07
5.0239e-07
5.63266e-07
7.38095e-07
9.02696e-07
1.12268e-06
1.35502e-06
1.31591e-06
1.60741e-06
1.88041e-06
2.11363e-06
2.35624e-06
2.52778e-06
2.54375e-06
2.23827e-06
1.62045e-06
1.60771e-06
2.23711e-06
2.55623e-06
2.54705e-06
2.38131e-06
2.13884e-06
1.90322e-06
1.62428e-06
1.3274e-06
1.36337e-06
1.62563e-06
2.08401e-06
2.5285e-06
2.93844e-06
3.33425e-06
3.69359e-06
3.98984e-06
4.17112e-06
4.16166e-06
3.8951e-06
3.88147e-06
4.15366e-06
4.17087e-06
3.99575e-06
3.70419e-06
3.34737e-06
2.95197e-06
2.54078e-06
2.09386e-06
1.63218e-06
2.71849e-08
4.47811e-08
5.22173e-08
7.18267e-08
7.7406e-08
6.84721e-08
5.61991e-08
4.54748e-08
3.65993e-08
3.26905e-08
3.25621e-08
3.74436e-08
4.66881e-08
5.74257e-08
6.85771e-08
7.46932e-08
6.60159e-08
5.29942e-08
4.50382e-08
2.76245e-08
1.6797e-07
2.11072e-07
1.94655e-07
1.80545e-07
1.39506e-07
9.93543e-08
7.60109e-08
6.01339e-08
4.81522e-08
4.48826e-08
4.51304e-08
4.96587e-08
6.17141e-08
7.74002e-08
9.91037e-08
1.33586e-07
1.65312e-07
1.95984e-07
2.15972e-07
1.71895e-07
2.27778e-07
3.0096e-07
2.88056e-07
2.46698e-07
2.10314e-07
1.77823e-07
1.40946e-07
1.02162e-07
7.19718e-08
5.58229e-08
5.6734e-08
7.33792e-08
1.02374e-07
1.38991e-07
1.74444e-07
2.05918e-07
2.41795e-07
2.90371e-07
3.04907e-07
2.31425e-07
2.71492e-07
3.25939e-07
3.27855e-07
2.87199e-07
2.37526e-07
1.94208e-07
1.59431e-07
1.29444e-07
9.93356e-08
7.17828e-08
7.3243e-08
1.01238e-07
1.31361e-07
1.61748e-07
1.96788e-07
2.40983e-07
2.92309e-07
3.35348e-07
3.32868e-07
2.76993e-07
4.2463e-07
3.71796e-07
3.21841e-07
2.76138e-07
2.29236e-07
1.87341e-07
1.52101e-07
1.22211e-07
9.76124e-08
7.89889e-08
8.01088e-08
9.9763e-08
1.24908e-07
1.55346e-07
1.91303e-07
2.34189e-07
2.82567e-07
3.30192e-07
3.82099e-07
4.33983e-07
6.54983e-07
5.05174e-07
3.70943e-07
2.95816e-07
2.39086e-07
1.90533e-07
1.50728e-07
1.17841e-07
9.1403e-08
7.44689e-08
7.47115e-08
9.25841e-08
1.19938e-07
1.5367e-07
1.94245e-07
2.43552e-07
3.01329e-07
3.78284e-07
5.15288e-07
6.64247e-07
9.03243e-07
6.75177e-07
4.37652e-07
3.33019e-07
2.71064e-07
2.20577e-07
1.78704e-07
1.44994e-07
1.18112e-07
1.01018e-07
1.00889e-07
1.18706e-07
1.46677e-07
1.81353e-07
2.23986e-07
2.75053e-07
3.37628e-07
4.43461e-07
6.83215e-07
9.11393e-07
1.15706e-06
9.0723e-07
5.5874e-07
4.96748e-07
5.04872e-07
5.09165e-07
5.05132e-07
4.81526e-07
4.12766e-07
3.041e-07
3.02212e-07
4.13806e-07
4.85822e-07
5.11801e-07
5.17538e-07
5.13611e-07
5.04424e-07
5.64459e-07
9.14603e-07
1.16462e-06
1.44817e-06
1.38652e-06
1.74742e-06
2.11361e-06
2.69932e-06
3.21629e-06
3.60924e-06
3.73221e-06
3.3053e-06
2.40149e-06
2.38309e-06
3.29917e-06
3.74182e-06
3.62629e-06
3.24431e-06
2.73078e-06
2.14211e-06
1.76823e-06
1.39788e-06
1.45623e-06
1.76895e-06
2.30391e-06
2.82778e-06
3.33427e-06
3.85826e-06
4.3466e-06
4.76665e-06
5.05392e-06
5.11885e-06
4.90716e-06
4.8881e-06
5.10754e-06
5.0513e-06
4.77076e-06
4.35599e-06
3.87108e-06
3.34756e-06
2.83931e-06
2.31276e-06
1.7747e-06
1.57434e-08
3.9676e-08
6.18533e-08
7.02701e-08
6.84635e-08
6.33351e-08
5.61603e-08
4.84609e-08
4.1606e-08
3.94016e-08
3.92116e-08
4.23107e-08
4.94743e-08
5.71747e-08
6.40671e-08
6.87565e-08
7.05262e-08
6.0183e-08
3.88891e-08
1.57327e-08
6.72736e-08
1.53146e-07
1.5145e-07
1.2521e-07
9.93355e-08
8.23084e-08
6.85319e-08
5.67783e-08
4.9123e-08
5.08975e-08
5.05511e-08
5.00748e-08
5.80696e-08
6.97069e-08
8.31052e-08
9.93318e-08
1.25599e-07
1.54915e-07
1.57313e-07
7.02895e-08
1.5318e-07
2.06559e-07
2.12429e-07
1.99246e-07
1.77803e-07
1.4892e-07
1.16255e-07
8.65704e-08
6.56229e-08
5.65479e-08
5.70817e-08
6.70134e-08
8.75166e-08
1.15745e-07
1.46778e-07
1.74806e-07
1.96008e-07
2.12884e-07
2.08685e-07
1.5514e-07
1.89056e-07
2.24399e-07
2.35202e-07
2.20146e-07
1.942e-07
1.67073e-07
1.41204e-07
1.14899e-07
8.84524e-08
6.94159e-08
7.06526e-08
9.05658e-08
1.17034e-07
1.43609e-07
1.69817e-07
1.97055e-07
2.23501e-07
2.39542e-07
2.28374e-07
1.91609e-07
3.26167e-07
2.64875e-07
2.35498e-07
2.13207e-07
1.87332e-07
1.60425e-07
1.35168e-07
1.12743e-07
9.45603e-08
8.22952e-08
8.34346e-08
9.67487e-08
1.15434e-07
1.38259e-07
1.6402e-07
1.91568e-07
2.18276e-07
2.41711e-07
2.73091e-07
3.37452e-07
5.96221e-07
3.91079e-07
2.74179e-07
2.24488e-07
1.90522e-07
1.59842e-07
1.32168e-07
1.08287e-07
9.00976e-08
8.41674e-08
8.477e-08
9.15999e-08
1.10531e-07
1.35094e-07
1.63427e-07
1.94749e-07
2.29404e-07
2.79977e-07
3.98574e-07
6.05147e-07
8.82735e-07
5.93943e-07
3.47514e-07
2.60435e-07
2.20563e-07
1.90417e-07
1.63843e-07
1.41523e-07
1.24183e-07
1.21617e-07
1.22094e-07
1.25565e-07
1.43891e-07
1.67046e-07
1.94289e-07
2.24929e-07
2.65127e-07
3.52834e-07
6.02422e-07
8.9032e-07
1.17515e-06
8.95596e-07
5.06894e-07
4.64639e-07
5.09155e-07
5.53293e-07
5.82958e-07
5.76041e-07
4.9446e-07
3.62934e-07
3.61811e-07
4.96637e-07
5.81324e-07
5.90347e-07
5.62198e-07
5.18705e-07
4.72432e-07
5.11422e-07
9.01514e-07
1.18175e-06
1.50654e-06
1.42821e-06
1.7859e-06
2.35624e-06
3.21629e-06
3.98822e-06
4.60667e-06
4.80174e-06
4.1238e-06
2.82952e-06
2.81006e-06
4.11699e-06
4.80906e-06
4.61851e-06
4.00355e-06
3.24557e-06
2.38366e-06
1.80441e-06
1.43731e-06
1.5133e-06
1.87849e-06
2.48632e-06
3.08689e-06
3.69365e-06
4.34663e-06
4.97499e-06
5.53791e-06
5.9593e-06
6.14648e-06
6.05405e-06
6.02937e-06
6.13268e-06
5.95441e-06
5.53912e-06
4.98073e-06
4.35627e-06
3.70439e-06
3.09587e-06
2.49305e-06
1.88284e-06
1.21922e-08
3.13774e-08
4.60681e-08
5.30405e-08
5.62661e-08
5.61842e-08
5.36864e-08
5.0155e-08
4.70781e-08
4.9349e-08
4.88886e-08
4.74984e-08
5.09924e-08
5.46555e-08
5.72866e-08
5.76734e-08
5.50506e-08
4.7996e-08
3.27466e-08
1.26629e-08
2.63534e-08
6.64299e-08
8.38925e-08
8.18432e-08
7.60954e-08
6.85533e-08
6.04781e-08
5.40174e-08
5.34034e-08
7.05763e-08
6.87977e-08
5.35206e-08
5.49807e-08
6.16106e-08
6.97638e-08
7.75526e-08
8.46069e-08
8.76503e-08
7.0173e-08
2.7317e-08
1.00542e-07
1.54489e-07
1.66169e-07
1.59514e-07
1.40952e-07
1.16256e-07
9.22189e-08
7.31785e-08
6.35245e-08
7.21926e-08
7.13806e-08
6.43978e-08
7.4495e-08
9.29853e-08
1.15996e-07
1.3966e-07
1.5823e-07
1.66746e-07
1.55643e-07
1.01427e-07
1.32412e-07
1.59323e-07
1.74176e-07
1.71896e-07
1.59428e-07
1.412e-07
1.19662e-07
9.70948e-08
8.06791e-08
8.75472e-08
8.72016e-08
8.24745e-08
9.94158e-08
1.22093e-07
1.43807e-07
1.62118e-07
1.74445e-07
1.76947e-07
1.61744e-07
1.34143e-07
2.39207e-07
1.89188e-07
1.74309e-07
1.6546e-07
1.52092e-07
1.35162e-07
1.17355e-07
1.01281e-07
9.1988e-08
1.11191e-07
1.10735e-07
9.38704e-08
1.03864e-07
1.20269e-07
1.38362e-07
1.55607e-07
1.69378e-07
1.78844e-07
1.95234e-07
2.48945e-07
5.39845e-07
3.17234e-07
2.08801e-07
1.71382e-07
1.50717e-07
1.32162e-07
1.1411e-07
9.83313e-08
9.18545e-08
1.29962e-07
1.2916e-07
9.32846e-08
1.00533e-07
1.16797e-07
1.35261e-07
1.54164e-07
1.75194e-07
2.13174e-07
3.23343e-07
5.48274e-07
8.49371e-07
4.89691e-07
2.73174e-07
2.03291e-07
1.78689e-07
1.63837e-07
1.50468e-07
1.39089e-07
1.3558e-07
1.88185e-07
1.87671e-07
1.37248e-07
1.41695e-07
1.53682e-07
1.67413e-07
1.82368e-07
2.06892e-07
2.76995e-07
4.9634e-07
8.56045e-07
1.16912e-06
8.5901e-07
4.595e-07
4.33612e-07
5.05125e-07
5.82962e-07
6.41081e-07
6.36522e-07
5.24755e-07
4.13665e-07
4.12916e-07
5.28276e-07
6.42325e-07
6.48121e-07
5.90801e-07
5.13088e-07
4.39707e-07
4.62416e-07
8.6342e-07
1.17443e-06
1.52996e-06
1.43918e-06
1.79463e-06
2.5278e-06
3.60925e-06
4.60674e-06
5.42764e-06
5.54607e-06
4.32296e-06
2.94293e-06
2.92409e-06
4.32992e-06
5.55975e-06
5.44084e-06
4.61845e-06
3.62967e-06
2.54843e-06
1.80822e-06
1.4453e-06
1.53484e-06
1.95051e-06
2.62158e-06
3.2918e-06
3.98992e-06
4.76672e-06
5.53796e-06
6.26023e-06
6.85918e-06
7.27303e-06
7.52416e-06
7.49116e-06
7.25729e-06
6.85227e-06
6.25839e-06
5.53964e-06
4.7715e-06
3.99605e-06
3.29687e-06
2.62533e-06
1.953e-06
1.04905e-08
1.99042e-08
3.01012e-08
4.02903e-08
4.54706e-08
4.84453e-08
5.01482e-08
5.19692e-08
5.46552e-08
6.31056e-08
6.21942e-08
5.46766e-08
5.26245e-08
5.11062e-08
4.9674e-08
4.69807e-08
4.18798e-08
3.18798e-08
2.11655e-08
1.0877e-08
2.54942e-08
4.21608e-08
5.61814e-08
6.16338e-08
6.01042e-08
5.67491e-08
5.40006e-08
5.52139e-08
6.7609e-08
1.10049e-07
1.05566e-07
6.61087e-08
5.56157e-08
5.50701e-08
5.81753e-08
6.18621e-08
6.38546e-08
5.74405e-08
4.29333e-08
2.64471e-08
4.69536e-08
1.02689e-07
1.17636e-07
1.14658e-07
1.02141e-07
8.65472e-08
7.31642e-08
6.67819e-08
7.83167e-08
1.87814e-07
1.8124e-07
7.74542e-08
6.78967e-08
7.46163e-08
8.78059e-08
1.03005e-07
1.15575e-07
1.19044e-07
1.04189e-07
4.75627e-08
8.63529e-08
1.12363e-07
1.30666e-07
1.35683e-07
1.29433e-07
1.14883e-07
9.70838e-08
8.38229e-08
9.98144e-08
3.41677e-07
3.27707e-07
9.92568e-08
8.59548e-08
9.96072e-08
1.17428e-07
1.31914e-07
1.37976e-07
1.3275e-07
1.14072e-07
8.79177e-08
1.71341e-07
1.31671e-07
1.26761e-07
1.26941e-07
1.22197e-07
1.1273e-07
1.01274e-07
9.32139e-08
1.26201e-07
6.0262e-07
5.78389e-07
1.25247e-07
9.55032e-08
1.03961e-07
1.15573e-07
1.25115e-07
1.29973e-07
1.30091e-07
1.36259e-07
1.79769e-07
4.83791e-07
2.57307e-07
1.58946e-07
1.29515e-07
1.17827e-07
1.08276e-07
9.83261e-08
9.31048e-08
1.45857e-07
8.75297e-07
8.39657e-07
1.43731e-07
9.49291e-08
1.00603e-07
1.10716e-07
1.20343e-07
1.32182e-07
1.62076e-07
2.62189e-07
4.91555e-07
8.02935e-07
4.13589e-07
2.20141e-07
1.59885e-07
1.44978e-07
1.41515e-07
1.39085e-07
1.41359e-07
2.14971e-07
1.14427e-06
1.10411e-06
2.12737e-07
1.43615e-07
1.41825e-07
1.4429e-07
1.47504e-07
1.6205e-07
2.22214e-07
4.17284e-07
8.08525e-07
1.1341e-06
7.87171e-07
4.0896e-07
3.93982e-07
4.81526e-07
5.76052e-07
6.36535e-07
6.01518e-07
5.18614e-07
1.33236e-06
1.29629e-06
5.20076e-07
6.07954e-07
6.42905e-07
5.82225e-07
4.87059e-07
3.97883e-07
4.10426e-07
7.91293e-07
1.13789e-06
1.50872e-06
1.395e-06
1.71423e-06
2.54379e-06
3.73226e-06
4.80185e-06
5.54624e-06
5.14902e-06
3.51417e-06
5.08045e-06
5.01273e-06
3.53491e-06
5.18175e-06
5.56488e-06
4.81582e-06
3.74626e-06
2.55754e-06
1.72321e-06
1.39812e-06
1.51135e-06
1.97311e-06
2.68531e-06
3.40469e-06
4.17119e-06
5.054e-06
5.95938e-06
6.85924e-06
7.72357e-06
8.62416e-06
9.91894e-06
9.86552e-06
8.60184e-06
7.71279e-06
6.85302e-06
5.95598e-06
5.05285e-06
4.17166e-06
3.40498e-06
2.6854e-06
1.97328e-06
1.05821e-08
1.93217e-08
2.05392e-08
3.07963e-08
3.67223e-08
4.16841e-08
4.71109e-08
5.46693e-08
6.06492e-08
7.16529e-08
7.06845e-08
6.04168e-08
5.49526e-08
4.7831e-08
4.26751e-08
3.78876e-08
3.21945e-08
2.15445e-08
1.8472e-08
1.0648e-08
2.42623e-08
3.04429e-08
3.93643e-08
4.66473e-08
4.82973e-08
4.91571e-08
5.34103e-08
6.76176e-08
1.05748e-07
7.61347e-07
7.32525e-07
1.02486e-07
6.66965e-08
5.39683e-08
5.03536e-08
4.98791e-08
4.84907e-08
4.07285e-08
3.08817e-08
2.51702e-08
3.49484e-08
5.66451e-08
7.39091e-08
7.67657e-08
7.2016e-08
6.56262e-08
6.3521e-08
7.83208e-08
2.29481e-07
2.83513e-06
2.75293e-06
2.22856e-07
7.80335e-08
6.47997e-08
6.73001e-08
7.37751e-08
7.8536e-08
7.58694e-08
5.74487e-08
3.49975e-08
5.19089e-08
8.01648e-08
9.91238e-08
1.04456e-07
9.93499e-08
8.84459e-08
8.06717e-08
9.98159e-08
4.76135e-07
5.74811e-06
5.58949e-06
4.57282e-07
9.99114e-08
8.28823e-08
9.09606e-08
1.01829e-07
1.06774e-07
1.01094e-07
8.14496e-08
5.35517e-08
1.26125e-07
9.15489e-08
9.04377e-08
9.57471e-08
9.76197e-08
9.45527e-08
9.19808e-08
1.26202e-07
8.57534e-07
9.65131e-06
9.38448e-06
8.20987e-07
1.25915e-07
9.41901e-08
9.6887e-08
9.98391e-08
9.78753e-08
9.27121e-08
9.50942e-08
1.33967e-07
4.35091e-07
2.19094e-07
1.24918e-07
9.71323e-08
9.13999e-08
9.00902e-08
9.18505e-08
1.4586e-07
1.28146e-06
1.35447e-05
1.31643e-05
1.22151e-06
1.44142e-07
9.34056e-08
9.16898e-08
9.28783e-08
9.87035e-08
1.27054e-07
2.23043e-07
4.41987e-07
7.45397e-07
3.70085e-07
1.87837e-07
1.2826e-07
1.18099e-07
1.24174e-07
1.35575e-07
2.14973e-07
1.70054e-06
1.607e-05
1.56131e-05
1.62483e-06
2.12839e-07
1.37307e-07
1.25824e-07
1.19381e-07
1.29282e-07
1.89051e-07
3.72863e-07
7.49653e-07
1.06595e-06
7.01491e-07
3.52691e-07
3.31451e-07
4.12758e-07
4.94462e-07
5.24758e-07
5.18617e-07
1.95796e-06
1.554e-05
1.51077e-05
1.8839e-06
5.20706e-07
5.29783e-07
4.98478e-07
4.1587e-07
3.3346e-07
3.53266e-07
7.04471e-07
1.06777e-06
1.42817e-06
1.26775e-06
1.46477e-06
2.23819e-06
3.30521e-06
4.12377e-06
4.32291e-06
3.51426e-06
4.76349e-06
1.25496e-05
1.23148e-05
4.68218e-06
3.53608e-06
4.34408e-06
4.13211e-06
3.31008e-06
2.24403e-06
1.47032e-06
1.26784e-06
1.42801e-06
1.92388e-06
2.63927e-06
3.369e-06
4.16163e-06
5.11886e-06
6.14654e-06
7.27315e-06
8.62429e-06
1.06292e-05
1.3652e-05
1.35776e-05
1.05812e-05
8.60059e-06
7.25754e-06
6.13447e-06
5.10942e-06
4.15481e-06
3.36325e-06
2.63466e-06
1.92102e-06
1.44787e-08
1.47289e-08
2.46605e-08
2.66184e-08
3.26492e-08
3.9382e-08
4.93621e-08
6.31281e-08
7.16704e-08
7.95593e-08
7.88245e-08
7.13093e-08
6.30171e-08
4.96388e-08
3.98923e-08
3.32414e-08
2.71342e-08
2.5265e-08
1.47084e-08
1.35117e-08
2.66683e-08
2.47421e-08
2.99441e-08
3.81211e-08
4.48463e-08
5.08789e-08
7.05837e-08
1.10059e-07
7.61446e-07
1.14559e-06
1.12979e-06
7.41798e-07
1.07569e-07
7.00637e-08
5.1292e-08
4.57355e-08
3.91954e-08
3.04187e-08
2.46212e-08
2.65037e-08
3.99514e-08
3.69252e-08
4.72667e-08
5.37641e-08
5.58403e-08
5.65477e-08
7.22033e-08
1.87821e-07
2.83527e-06
2.53267e-06
2.51463e-06
2.77147e-06
1.83771e-07
7.22863e-08
5.74343e-08
5.70164e-08
5.54145e-08
4.84113e-08
3.73742e-08
3.9687e-08
4.4584e-08
6.12661e-08
7.09411e-08
7.34176e-08
7.18041e-08
6.94181e-08
8.75592e-08
3.41679e-07
5.74828e-06
4.38502e-06
4.38296e-06
5.61428e-06
3.32016e-07
8.78669e-08
7.07128e-08
7.33227e-08
7.53369e-08
7.29718e-08
6.25678e-08
4.4474e-08
1.08191e-07
7.40914e-08
6.80776e-08
7.26423e-08
7.90181e-08
8.23013e-08
1.11204e-07
6.02626e-07
9.65161e-06
6.79355e-06
6.82986e-06
9.41219e-06
5.83854e-07
1.11101e-07
8.31654e-08
7.97098e-08
7.33996e-08
6.94439e-08
7.69366e-08
1.14307e-07
3.93156e-07
2.01406e-07
1.08832e-07
7.68826e-08
7.44753e-08
8.41716e-08
1.29975e-07
8.75314e-07
1.35453e-05
9.58576e-06
9.68203e-06
1.31868e-05
8.4414e-07
1.28916e-07
8.43804e-08
7.46666e-08
7.75194e-08
1.10359e-07
2.04742e-07
3.98953e-07
6.72971e-07
3.42633e-07
1.70292e-07
1.08109e-07
1.0101e-07
1.21613e-07
1.88191e-07
1.14433e-06
1.6071e-05
1.23608e-05
1.25368e-05
1.56252e-05
1.10618e-06
1.87095e-07
1.21883e-07
1.01201e-07
1.0852e-07
1.71343e-07
3.44986e-07
6.75485e-07
9.55905e-07
5.96701e-07
2.82391e-07
2.44416e-07
3.0406e-07
3.62903e-07
4.13654e-07
1.33244e-06
1.55416e-05
1.38361e-05
1.40815e-05
1.51046e-05
1.29562e-06
4.14236e-07
3.6423e-07
3.0459e-07
2.44509e-07
2.8221e-07
5.98492e-07
9.55118e-07
1.27048e-06
1.0254e-06
1.01013e-06
1.62001e-06
2.40097e-06
2.8291e-06
2.9427e-06
5.08063e-06
1.25504e-05
1.42551e-05
1.44719e-05
1.23026e-05
5.00282e-06
2.92897e-06
2.82417e-06
2.39147e-06
1.61271e-06
1.00876e-06
1.02213e-06
1.26666e-06
1.75249e-06
2.42794e-06
3.09862e-06
3.89484e-06
4.90696e-06
6.05396e-06
7.52424e-06
9.91925e-06
1.36525e-05
1.48463e-05
1.49982e-05
1.35737e-05
9.85694e-06
7.48588e-06
6.02735e-06
4.88598e-06
3.87836e-06
3.08623e-06
2.41807e-06
1.74537e-06
1.05463e-08
2.07399e-08
1.90338e-08
2.67976e-08
3.28116e-08
3.93406e-08
4.89411e-08
6.22034e-08
7.06735e-08
7.88103e-08
7.91718e-08
7.13056e-08
6.2912e-08
4.94762e-08
3.97401e-08
3.31313e-08
2.68448e-08
1.80988e-08
2.17594e-08
1.0926e-08
2.35838e-08
2.40178e-08
3.08597e-08
3.86864e-08
4.51937e-08
5.05718e-08
6.88003e-08
1.05568e-07
7.32512e-07
1.12975e-06
1.13423e-06
7.46206e-07
1.07937e-07
7.0001e-08
5.10964e-08
4.54757e-08
3.86865e-08
3.08502e-08
2.43244e-08
2.43882e-08
3.89154e-08
3.66703e-08
4.80902e-08
5.49881e-08
5.67442e-08
5.70762e-08
7.13719e-08
1.81238e-07
2.753e-06
2.51453e-06
2.51329e-06
2.7803e-06
1.83602e-07
7.18036e-08
5.70784e-08
5.67015e-08
5.48693e-08
4.83184e-08
3.72088e-08
3.92531e-08
4.43973e-08
6.15129e-08
7.21378e-08
7.49028e-08
7.32617e-08
7.0648e-08
8.71912e-08
3.27716e-07
5.58984e-06
4.38272e-06
4.36376e-06
5.62478e-06
3.30606e-07
8.6969e-08
7.0162e-08
7.28379e-08
7.48018e-08
7.2589e-08
6.21671e-08
4.43538e-08
1.10845e-07
7.50272e-08
6.88092e-08
7.35703e-08
8.01399e-08
8.34378e-08
1.10727e-07
5.78412e-07
9.38536e-06
6.82941e-06
6.77937e-06
9.423e-06
5.80009e-07
1.09742e-07
8.23552e-08
7.90023e-08
7.27761e-08
6.90678e-08
7.70903e-08
1.15403e-07
3.95953e-07
2.02662e-07
1.09328e-07
7.70106e-08
7.47225e-08
8.47754e-08
1.29155e-07
8.39687e-07
1.31656e-05
9.68132e-06
9.58943e-06
1.32004e-05
8.39347e-07
1.27641e-07
8.37332e-08
7.41751e-08
7.71923e-08
1.10335e-07
2.05022e-07
3.99171e-07
6.74668e-07
3.43701e-07
1.70712e-07
1.07902e-07
1.00884e-07
1.22092e-07
1.87661e-07
1.10408e-06
1.56144e-05
1.25359e-05
1.23961e-05
1.56423e-05
1.10189e-06
1.86067e-07
1.21312e-07
1.00745e-07
1.0826e-07
1.71354e-07
3.44915e-07
6.74418e-07
9.56418e-07
5.97964e-07
2.81749e-07
2.42663e-07
3.02198e-07
3.61818e-07
4.12916e-07
1.29622e-06
1.51082e-05
1.40803e-05
1.39083e-05
1.51087e-05
1.29107e-06
4.12287e-07
3.62288e-07
3.02682e-07
2.43066e-07
2.8145e-07
5.97718e-07
9.5265e-07
1.26976e-06
1.02471e-06
1.0091e-06
1.60745e-06
2.38291e-06
2.81012e-06
2.92407e-06
5.0126e-06
1.23152e-05
1.4471e-05
1.42992e-05
1.2287e-05
4.9864e-06
2.91366e-06
2.80967e-06
2.37703e-06
1.60111e-06
1.00366e-06
1.0183e-06
1.26251e-06
1.75013e-06
2.42306e-06
3.09061e-06
3.88126e-06
4.88794e-06
6.02922e-06
7.49089e-06
9.86511e-06
1.35773e-05
1.49973e-05
1.48511e-05
1.34966e-05
9.80491e-06
7.44808e-06
5.99855e-06
4.86329e-06
3.86061e-06
3.07305e-06
2.40831e-06
1.73868e-06
1.01167e-08
1.71264e-08
2.70388e-08
3.16952e-08
3.73408e-08
4.22576e-08
4.74695e-08
5.46509e-08
6.03922e-08
7.12995e-08
7.12977e-08
6.04065e-08
5.46962e-08
4.74385e-08
4.21797e-08
3.72554e-08
3.16129e-08
2.69764e-08
1.6301e-08
1.08123e-08
2.42934e-08
3.06788e-08
4.03338e-08
4.82967e-08
4.96256e-08
5.0051e-08
5.35007e-08
6.60929e-08
1.02487e-07
7.4203e-07
7.46048e-07
1.03427e-07
6.6674e-08
5.35991e-08
4.98721e-08
4.93333e-08
4.75647e-08
4.00784e-08
3.08611e-08
2.48149e-08
3.42018e-08
5.73502e-08
7.4737e-08
7.79754e-08
7.33694e-08
6.69908e-08
6.43732e-08
7.74356e-08
2.22883e-07
2.77224e-06
2.77993e-06
2.2401e-07
7.75855e-08
6.41949e-08
6.67081e-08
7.3172e-08
7.79403e-08
7.50305e-08
5.7911e-08
3.42454e-08
5.30209e-08
8.09727e-08
1.00413e-07
1.06088e-07
1.0123e-07
9.05438e-08
8.24475e-08
9.92384e-08
4.57403e-07
5.61601e-06
5.62429e-06
4.58994e-07
9.89125e-08
8.18372e-08
8.99039e-08
1.00691e-07
1.05625e-07
1.0016e-07
8.10163e-08
5.36605e-08
1.31796e-07
9.38295e-08
9.21564e-08
9.77244e-08
9.97634e-08
9.67353e-08
9.38498e-08
1.25235e-07
8.2125e-07
9.41537e-06
9.42239e-06
8.21421e-07
1.24405e-07
9.28591e-08
9.56234e-08
9.86284e-08
9.68077e-08
9.19359e-08
9.4931e-08
1.34955e-07
4.4e-07
2.21814e-07
1.26219e-07
9.8103e-08
9.25806e-08
9.15911e-08
9.32714e-08
1.4373e-07
1.22193e-06
1.31915e-05
1.31996e-05
1.22097e-06
1.42764e-07
9.23974e-08
9.07777e-08
9.20005e-08
9.79161e-08
1.2655e-07
2.22852e-07
4.41124e-07
7.48026e-07
3.71726e-07
1.88173e-07
1.28337e-07
1.18694e-07
1.25555e-07
1.37236e-07
2.1274e-07
1.62533e-06
1.5631e-05
1.56413e-05
1.6238e-06
2.1157e-07
1.36395e-07
1.24956e-07
1.18522e-07
1.28515e-07
1.88421e-07
3.71866e-07
7.46625e-07
1.06648e-06
7.02671e-07
3.52025e-07
3.31439e-07
4.1378e-07
4.9663e-07
5.28283e-07
5.20085e-07
1.88436e-06
1.51105e-05
1.51074e-05
1.87953e-06
5.18984e-07
5.2767e-07
4.95906e-07
4.13367e-07
3.31401e-07
3.51544e-07
7.01484e-07
1.06258e-06
1.42691e-06
1.26563e-06
1.46519e-06
2.23693e-06
3.2991e-06
4.11713e-06
4.33024e-06
3.53489e-06
4.68277e-06
1.2306e-05
1.22863e-05
4.65231e-06
3.52449e-06
4.33117e-06
4.11216e-06
3.29089e-06
2.2296e-06
1.46052e-06
1.26036e-06
1.42052e-06
1.92147e-06
2.6351e-06
3.363e-06
4.15362e-06
5.10755e-06
6.13275e-06
7.25739e-06
8.602e-06
1.05817e-05
1.35752e-05
1.34961e-05
1.05194e-05
8.55506e-06
7.22174e-06
6.10475e-06
5.08458e-06
4.13449e-06
3.34687e-06
2.62186e-06
1.9115e-06
1.07114e-08
2.05451e-08
2.99303e-08
4.14726e-08
4.66775e-08
4.94551e-08
5.09695e-08
5.25993e-08
5.49275e-08
6.30149e-08
6.28958e-08
5.47014e-08
5.23363e-08
5.06968e-08
4.91732e-08
4.63649e-08
4.10212e-08
2.9799e-08
2.05792e-08
1.08916e-08
2.58877e-08
4.28142e-08
5.80355e-08
6.36731e-08
6.16912e-08
5.80442e-08
5.49582e-08
5.55973e-08
6.66928e-08
1.07593e-07
1.07922e-07
6.66582e-08
5.53736e-08
5.45903e-08
5.75927e-08
6.11697e-08
6.30928e-08
5.75776e-08
4.24219e-08
2.62312e-08
4.67345e-08
1.03367e-07
1.1801e-07
1.14498e-07
1.0235e-07
8.74854e-08
7.44652e-08
6.78719e-08
7.80327e-08