/*--------------------------------*- C++ -*----------------------------------*\
| =========                 |                                                 |
| \\      /  F ield         | OpenFOAM: The Open Source CFD Toolbox           |
|  \\    /   O peration     | Version:  v1912                                 |
|   \\  /    A nd           | Website:  www.openfoam.com                      |
|    \\/     M anipulation  |                                                 |
\*---------------------------------------------------------------------------*/
FoamFile
{
    version     2.0;
    format      ascii;
    class       volScalarField;
    location    "1000";
    object      k;
}
// * * * * * * * * * * * * * * * * * * * * * * * * * * * * * * * * * * * * * //

dimensions      [0 2 -2 0 0 0 0];


internalField   nonuniform List<scalar> 
4000
(
4.97491e-05
4.52886e-05
3.95003e-05
3.019e-05
6.61469e-06
4.61339e-06
3.90382e-06
3.53835e-06
3.57989e-06
4.38618e-06
3.50771e-06
3.42558e-06
3.54982e-06
3.94088e-06
4.57335e-06
6.635e-06
3.09522e-05
3.99612e-05
4.56686e-05
5.00959e-05
5.45186e-05
4.90114e-05
4.0044e-05
3.18812e-05
2.22294e-05
1.21018e-05
6.52002e-06
6.40548e-06
6.23374e-06
6.59335e-06
6.0477e-06
6.10483e-06
6.40299e-06
6.57326e-06
1.21135e-05
2.23712e-05
3.23017e-05
4.03561e-05
4.93141e-05
5.4861e-05
5.75867e-05
5.29139e-05
4.38225e-05
3.41168e-05
2.72331e-05
2.09044e-05
1.57917e-05
9.5327e-06
7.70063e-06
8.60548e-06
8.36233e-06
7.68121e-06
9.46501e-06
1.5794e-05
2.09084e-05
2.72779e-05
3.42406e-05
4.40415e-05
5.31864e-05
5.79132e-05
5.9477e-05
5.61474e-05
4.8493e-05
3.8611e-05
3.06139e-05
2.40488e-05
1.8969e-05
1.43146e-05
1.01283e-05
9.1893e-06
9.13299e-06
1.02895e-05
1.43834e-05
1.9038e-05
2.40986e-05
3.07068e-05
3.8716e-05
4.87435e-05
5.64266e-05
5.97892e-05
6.09717e-05
5.93956e-05
5.45426e-05
4.78562e-05
4.12466e-05
3.45863e-05
2.81219e-05
2.25403e-05
1.83316e-05
1.65342e-05
1.6823e-05
1.8892e-05
2.30867e-05
2.86985e-05
3.51323e-05
4.15944e-05
4.81588e-05
5.48357e-05
5.96903e-05
6.12754e-05
6.23971e-05
6.29998e-05
6.12675e-05
5.82613e-05
5.50649e-05
5.17171e-05
4.83994e-05
4.49898e-05
4.19085e-05
3.91691e-05
3.93656e-05
4.22396e-05
4.53733e-05
4.88e-05
5.2115e-05
5.54415e-05
5.86194e-05
6.16101e-05
6.33265e-05
6.27001e-05
6.40388e-05
6.69477e-05
6.83044e-05
6.85336e-05
6.82195e-05
6.71821e-05
6.5478e-05
6.30704e-05
6.00169e-05
5.60635e-05
5.6166e-05
6.01681e-05
6.32964e-05
6.57627e-05
6.75107e-05
6.85739e-05
6.89005e-05
6.86688e-05
6.72951e-05
6.4339e-05
6.6023e-05
7.13838e-05
7.55953e-05
7.84921e-05
8.04632e-05
8.12988e-05
8.10197e-05
7.93941e-05
7.61818e-05
7.08471e-05
7.08789e-05
7.62155e-05
7.95266e-05
8.1239e-05
8.15905e-05
8.08077e-05
7.88664e-05
7.59749e-05
7.17454e-05
6.63208e-05
6.8659e-05
7.70089e-05
8.40427e-05
8.93964e-05
9.34467e-05
9.59407e-05
9.6932e-05
9.60338e-05
9.25874e-05
8.56446e-05
8.56176e-05
9.25393e-05
9.61157e-05
9.71342e-05
9.62372e-05
9.38076e-05
8.97892e-05
8.44394e-05
7.73804e-05
6.8954e-05
7.26645e-05
8.39754e-05
9.35889e-05
0.000100932
0.00010678
0.000111144
0.000113967
0.000114847
0.000112932
0.000106127
0.000106037
0.000112843
0.000114883
0.000114115
0.000111381
0.000107086
0.000101283
9.39582e-05
8.43312e-05
7.29532e-05
4.52883e-05
4.54081e-05
3.88061e-05
3.00301e-05
9.21716e-06
8.52484e-06
7.3242e-06
5.44831e-06
5.24001e-06
4.56726e-06
5.47863e-06
4.90678e-06
5.50706e-06
7.41761e-06
8.35268e-06
9.21416e-06
3.10856e-05
3.94827e-05
4.59642e-05
4.57639e-05
4.90101e-05
6.33374e-05
5.26531e-05
3.71624e-05
2.90001e-05
2.45367e-05
1.58843e-05
1.20962e-05
1.0492e-05
9.80553e-06
9.9721e-06
1.05621e-05
1.22695e-05
1.61992e-05
2.47556e-05
2.93328e-05
3.78095e-05
5.32878e-05
6.31149e-05
4.95101e-05
5.29122e-05
7.08781e-05
7.3728e-05
5.44415e-05
3.9252e-05
3.05962e-05
2.5661e-05
2.02395e-05
1.49336e-05
1.28824e-05
1.28929e-05
1.49713e-05
2.03046e-05
2.56838e-05
3.06256e-05
3.93452e-05
5.45516e-05
7.34865e-05
7.06664e-05
5.33941e-05
5.61459e-05
6.92162e-05
6.77295e-05
5.65714e-05
4.25016e-05
3.27383e-05
2.60418e-05
2.09218e-05
1.74959e-05
1.67109e-05
1.677e-05
1.75888e-05
2.10348e-05
2.61931e-05
3.29545e-05
4.28194e-05
5.69938e-05
6.81072e-05
6.95251e-05
5.66024e-05
5.93945e-05
7.1146e-05
6.89835e-05
5.81772e-05
4.52553e-05
3.52999e-05
2.79714e-05
2.19633e-05
1.74221e-05
1.58076e-05
1.59039e-05
1.7668e-05
2.22986e-05
2.84085e-05
3.58152e-05
4.57462e-05
5.87112e-05
6.9532e-05
7.16407e-05
5.98174e-05
6.29994e-05
7.44822e-05
7.33177e-05
6.63948e-05
5.58166e-05
4.4714e-05
3.78016e-05
3.21055e-05
2.83459e-05
2.68237e-05
2.69527e-05
2.86063e-05
3.2429e-05
3.81805e-05
4.51356e-05
5.6217e-05
6.692e-05
7.38594e-05
7.49964e-05
6.33861e-05
6.69478e-05
7.79932e-05
7.81498e-05
7.55181e-05
7.11586e-05
6.33073e-05
5.31699e-05
4.58338e-05
4.16827e-05
3.92527e-05
3.93717e-05
4.18648e-05
4.60605e-05
5.3579e-05
6.37846e-05
7.16229e-05
7.60279e-05
7.86431e-05
7.84975e-05
6.73032e-05
7.13843e-05
8.25723e-05
8.50732e-05
8.71756e-05
8.9801e-05
8.9782e-05
8.71557e-05
8.11368e-05
7.33859e-05
6.4291e-05
6.44502e-05
7.35787e-05
8.14468e-05
8.74382e-05
9.01858e-05
9.03263e-05
8.77607e-05
8.55984e-05
8.3089e-05
7.17224e-05
7.70095e-05
9.083e-05
9.99211e-05
0.000106695
0.00011221
0.00011474
0.000114905
0.000111486
0.00010259
8.65491e-05
8.65248e-05
0.000102454
0.000111616
0.000115272
0.000115284
0.000112852
0.000107342
0.000100521
9.13618e-05
7.73387e-05
8.39762e-05
9.74521e-05
0.000109412
0.000119109
0.000127346
0.000133981
0.000138797
0.000141039
0.000139426
0.000131888
0.000131717
0.000139286
0.000141063
0.000138965
0.000134265
0.00012771
0.000119518
0.000109828
9.78347e-05
8.4267e-05
3.95005e-05
3.88064e-05
3.3571e-05
2.32368e-05
1.02025e-05
1.1434e-05
9.4025e-06
7.16662e-06
5.60243e-06
6.16816e-06
5.11984e-06
6.5611e-06
7.05949e-06
9.55038e-06
1.11569e-05
1.02737e-05
2.52258e-05
3.46035e-05
3.94839e-05
4.00389e-05
4.00425e-05
5.26506e-05
4.31036e-05
3.16122e-05
2.89665e-05
2.61136e-05
1.9021e-05
1.53033e-05
1.29889e-05
1.21653e-05
1.19383e-05
1.32821e-05
1.55142e-05
1.93863e-05
2.61612e-05
2.88393e-05
3.26125e-05
4.42376e-05
5.36592e-05
4.06406e-05
4.38189e-05
7.37233e-05
7.05531e-05
5.21558e-05
4.01415e-05
3.33317e-05
2.91207e-05
2.40912e-05
1.89653e-05
1.58952e-05
1.59886e-05
1.91512e-05
2.40686e-05
2.89959e-05
3.31839e-05
4.0171e-05
5.26459e-05
7.17058e-05
7.38628e-05
4.44376e-05
4.84891e-05
6.7726e-05
6.9762e-05
5.91132e-05
4.60614e-05
3.67143e-05
3.02446e-05
2.55057e-05
2.23589e-05
1.98806e-05
2.00043e-05
2.24731e-05
2.56524e-05
3.04426e-05
3.70261e-05
4.6602e-05
6.00315e-05
7.06178e-05
6.83685e-05
4.90849e-05
5.45403e-05
6.89807e-05
6.71627e-05
5.72918e-05
4.54352e-05
3.62687e-05
2.95258e-05
2.40709e-05
1.98213e-05
1.77316e-05
1.78063e-05
2.00065e-05
2.43642e-05
2.99172e-05
3.67531e-05
4.602e-05
5.8042e-05
6.80155e-05
6.9773e-05
5.50556e-05
6.12663e-05
7.33157e-05
7.10678e-05
6.19461e-05
4.9988e-05
3.91485e-05
3.16878e-05
2.58685e-05
2.16942e-05
1.99172e-05
1.99689e-05
2.18263e-05
2.60963e-05
3.20051e-05
3.95114e-05
5.0357e-05
6.24752e-05
7.17982e-05
7.40621e-05
6.17277e-05
6.83042e-05
7.81482e-05
7.7031e-05
6.86578e-05
5.7908e-05
4.73864e-05
3.85156e-05
3.21191e-05
2.80645e-05
2.59689e-05
2.60233e-05
2.81084e-05
3.22368e-05
3.87458e-05
4.76713e-05
5.81829e-05
6.90688e-05
7.76762e-05
7.88406e-05
6.87053e-05
7.55957e-05
8.50719e-05
8.88857e-05
8.38272e-05
7.25664e-05
6.63216e-05
6.03844e-05
5.43815e-05
4.79942e-05
4.03464e-05
4.02976e-05
4.79733e-05
5.45338e-05
6.06072e-05
6.66642e-05
7.29726e-05
8.43214e-05
8.96196e-05
8.57693e-05
7.59615e-05
8.40433e-05
9.99204e-05
0.000119686
0.000136673
0.000148322
0.000151102
0.000150967
0.000145587
0.000129915
9.91158e-05
9.90575e-05
0.000129839
0.000146026
0.000151784
0.000152162
0.000149451
0.000137704
0.000120589
0.000100638
8.4404e-05
9.35897e-05
0.000109412
0.000123577
0.000135493
0.000145982
0.000154767
0.000161543
0.000165217
0.000164064
0.000155172
0.000154912
0.000163878
0.000165232
0.000161728
0.000155087
0.00014639
0.00013594
0.000124019
0.000109806
9.38821e-05
3.02006e-05
3.00405e-05
2.32384e-05
1.15483e-05
1.26155e-05
1.24346e-05
1.03028e-05
8.55442e-06
7.20467e-06
6.52147e-06
6.50093e-06
7.34133e-06
8.76222e-06
1.05163e-05
1.24223e-05
1.19097e-05
1.65203e-05
2.5175e-05
3.10909e-05
3.10799e-05
3.18837e-05
3.71654e-05
3.16135e-05
2.91224e-05
2.92063e-05
2.43223e-05
1.94264e-05
1.69218e-05
1.49798e-05
1.42741e-05
1.4379e-05
1.52714e-05
1.71666e-05
1.96417e-05
2.3931e-05
2.69398e-05
2.61903e-05
3.26478e-05
3.79881e-05
3.24972e-05
3.41168e-05
5.44395e-05
5.21554e-05
4.35774e-05
3.74265e-05
3.34299e-05
2.98323e-05
2.50153e-05
2.05432e-05
1.79473e-05
1.80661e-05
2.06459e-05
2.48926e-05
2.94269e-05
3.28128e-05
3.66246e-05
4.30119e-05
5.28295e-05
5.50614e-05
3.45602e-05
3.86067e-05
5.65656e-05
5.91104e-05
5.2047e-05
4.35733e-05
3.67687e-05
3.16668e-05
2.77983e-05
2.46059e-05
2.13459e-05
2.15171e-05
2.47562e-05
2.79541e-05
3.18564e-05
3.70275e-05
4.40032e-05
5.2861e-05
6.02874e-05
5.75072e-05
3.91145e-05
4.78536e-05
5.81713e-05
5.72885e-05
5.10855e-05
4.31193e-05
3.61737e-05
3.06429e-05
2.6066e-05
2.24507e-05
2.03741e-05
2.05105e-05
2.26944e-05
2.63855e-05
3.10451e-05
3.66735e-05
4.37537e-05
5.19381e-05
5.83325e-05
5.92141e-05
4.84334e-05
5.82596e-05
6.63898e-05
6.19427e-05
5.44344e-05
4.56709e-05
3.72327e-05
3.05918e-05
2.51869e-05
2.08566e-05
1.83397e-05
1.83539e-05
2.0969e-05
2.54245e-05
3.09406e-05
3.7661e-05
4.61599e-05
5.50537e-05
6.279e-05
6.73375e-05
5.8765e-05
6.85331e-05
7.55154e-05
6.86545e-05
6.01771e-05
5.13483e-05
4.23088e-05
3.46668e-05
2.86805e-05
2.41428e-05
2.13546e-05
2.133e-05
2.41597e-05
2.88301e-05
3.49463e-05
4.26691e-05
5.17509e-05
6.06892e-05
6.94191e-05
7.63101e-05
6.89518e-05
7.84924e-05
8.71746e-05
8.38235e-05
7.51767e-05
7.00751e-05
6.49039e-05
5.962e-05
5.39676e-05
4.67415e-05
3.75291e-05
3.73622e-05
4.67618e-05
5.42675e-05
6.01189e-05
6.55403e-05
7.07591e-05
7.59162e-05
8.48083e-05
8.79136e-05
7.88641e-05
8.93969e-05
0.000106694
0.000136672
0.000163158
0.000178732
0.000189298
0.000195255
0.000192906
0.000173599
0.000135945
0.000135216
0.000173523
0.000193668
0.000196475
0.000190896
0.000180397
0.000164715
0.000137902
0.000107518
8.97656e-05
0.000100933
0.000119109
0.000135493
0.000149767
0.000162929
0.000174434
0.000183641
0.000189163
0.000188878
0.000180726
0.000180312
0.000188646
0.000189165
0.000183831
0.000174774
0.000163361
0.000150229
0.000135934
0.000119487
0.000101207
6.58714e-06
9.19156e-06
1.01925e-05
1.26182e-05
1.32658e-05
1.22201e-05
1.07097e-05
9.30444e-06
8.0571e-06
7.48092e-06
7.4746e-06
8.17053e-06
9.47285e-06
1.08701e-05
1.22354e-05
1.29513e-05
1.19258e-05
1.03036e-05
9.24426e-06
6.67403e-06
2.2226e-05
2.89996e-05
2.89679e-05
2.92055e-05
2.60598e-05
2.19462e-05
1.91995e-05
1.71854e-05
1.58305e-05
1.63292e-05
1.62232e-05
1.59854e-05
1.73551e-05
1.92634e-05
2.16428e-05
2.49397e-05
2.69869e-05
2.89253e-05
2.94676e-05
2.25725e-05
2.72342e-05
3.92523e-05
4.01417e-05
3.74261e-05
3.48062e-05
3.2231e-05
2.86437e-05
2.41825e-05
2.05187e-05
1.91179e-05
1.91364e-05
2.06176e-05
2.40977e-05
2.82422e-05
3.16404e-05
3.40975e-05
3.66943e-05
4.03579e-05
3.96856e-05
2.75211e-05
3.06144e-05
4.24995e-05
4.60595e-05
4.35726e-05
3.91707e-05
3.49203e-05
3.13454e-05
2.81534e-05
2.48722e-05
2.19282e-05
2.20802e-05
2.50567e-05
2.83406e-05
3.15834e-05
3.51799e-05
3.95183e-05
4.40886e-05
4.68476e-05
4.31983e-05
3.10253e-05
4.12498e-05
4.52527e-05
4.54318e-05
4.31178e-05
3.89223e-05
3.44393e-05
3.03687e-05
2.68133e-05
2.40812e-05
2.2694e-05
2.28589e-05
2.4371e-05
2.71654e-05
3.07891e-05
3.49478e-05
3.95401e-05
4.3875e-05
4.63333e-05
4.61867e-05
4.18538e-05
5.50643e-05
5.5814e-05
4.99836e-05
4.56687e-05
4.06007e-05
3.50409e-05
2.99675e-05
2.55601e-05
2.19953e-05
2.01309e-05
2.01833e-05
2.21687e-05
2.58592e-05
3.0383e-05
3.55613e-05
4.12125e-05
4.63812e-05
5.08311e-05
5.6776e-05
5.55853e-05
6.82192e-05
7.11568e-05
5.79031e-05
5.13456e-05
4.59045e-05
3.98007e-05
3.39893e-05
2.9027e-05
2.50039e-05
2.27775e-05
2.27838e-05
2.51136e-05
2.92976e-05
3.44048e-05
4.03326e-05
4.6525e-05
5.20437e-05
5.86927e-05
7.20019e-05
6.8632e-05
8.04634e-05
8.98001e-05
7.25625e-05
7.00727e-05
7.04497e-05
6.85874e-05
6.55172e-05
6.10973e-05
5.35662e-05
4.31651e-05
4.30207e-05
5.37101e-05
6.15672e-05
6.62556e-05
6.95235e-05
7.14765e-05
7.10704e-05
7.34124e-05
9.05503e-05
8.08168e-05
9.34472e-05
0.00011221
0.000148321
0.000178731
0.000209771
0.000233245
0.000248804
0.000250717
0.000226062
0.000175992
0.000175066
0.000225804
0.000251294
0.000249953
0.000235014
0.000211796
0.000180688
0.000149824
0.000113059
9.3797e-05
0.000106781
0.000127346
0.000145982
0.000162929
0.00017958
0.00019443
0.000206763
0.00021499
0.000216829
0.000210811
0.000210274
0.00021652
0.000214927
0.000206891
0.000194718
0.000179984
0.000163368
0.000146384
0.000127676
0.000107016
4.568e-06
8.45865e-06
1.13823e-05
1.2429e-05
1.22235e-05
1.16003e-05
1.07045e-05
9.70488e-06
8.77193e-06
8.46223e-06
8.44369e-06
8.86367e-06
9.84171e-06
1.08378e-05
1.16921e-05
1.2256e-05
1.24655e-05
1.1215e-05
8.38505e-06
4.59085e-06
1.21431e-05
2.45446e-05
2.61146e-05
2.43211e-05
2.19422e-05
2.01641e-05
1.85012e-05
1.70125e-05
1.6397e-05
1.78914e-05
1.76622e-05
1.64296e-05
1.71357e-05
1.85709e-05
2.01012e-05
2.16823e-05
2.40504e-05
2.63514e-05
2.4957e-05
1.24409e-05
2.09155e-05
3.0603e-05
3.33342e-05
3.34276e-05
3.22284e-05
2.97097e-05
2.61544e-05
2.24597e-05
1.99234e-05
1.95661e-05
1.95222e-05
2.00256e-05
2.24978e-05
2.5954e-05
2.92687e-05
3.16877e-05
3.29011e-05
3.33402e-05
3.08429e-05
2.10812e-05
2.4056e-05
3.27422e-05
3.67149e-05
3.6768e-05
3.49193e-05
3.24873e-05
2.9874e-05
2.69192e-05
2.3812e-05
2.184e-05
2.19736e-05
2.40514e-05
2.71512e-05
3.01328e-05
3.27815e-05
3.52134e-05
3.71148e-05
3.71916e-05
3.31688e-05
2.42662e-05
3.46089e-05
3.53057e-05
3.62685e-05
3.61727e-05
3.44386e-05
3.18394e-05
2.90341e-05
2.64252e-05
2.45483e-05
2.38403e-05
2.40133e-05
2.48608e-05
2.68038e-05
2.94608e-05
3.23229e-05
3.49823e-05
3.67781e-05
3.69407e-05
3.60485e-05
3.53963e-05
5.17211e-05
4.47171e-05
3.91474e-05
3.7231e-05
3.504e-05
3.19547e-05
2.85726e-05
2.54152e-05
2.31224e-05
2.30424e-05
2.31695e-05
2.33734e-05
2.57742e-05
2.90283e-05
3.24942e-05
3.56398e-05
3.78669e-05
3.98034e-05
4.53907e-05
5.22397e-05
6.71829e-05
6.33115e-05
4.73842e-05
4.23062e-05
3.97995e-05
3.66771e-05
3.30809e-05
2.97255e-05
2.71884e-05
2.72848e-05
2.74019e-05
2.74359e-05
3.01221e-05
3.36076e-05
3.73052e-05
4.04908e-05
4.30171e-05
4.81114e-05
6.42184e-05
6.75712e-05
8.12994e-05
8.97819e-05
6.63186e-05
6.49017e-05
6.85868e-05
7.05658e-05
7.05534e-05
6.76908e-05
5.97113e-05
4.83716e-05
4.83462e-05
5.99993e-05
6.82787e-05
7.13889e-05
7.15966e-05
6.97095e-05
6.59142e-05
6.70435e-05
9.04642e-05
8.16083e-05
9.59412e-05
0.000114741
0.000151103
0.000189298
0.000233246
0.000268047
0.000292398
0.000295658
0.000259139
0.000189361
0.00018849
0.000258926
0.000296124
0.000293245
0.000269274
0.000235147
0.000191172
0.000152461
0.000115454
9.62326e-05
0.000111144
0.000133981
0.000154768
0.000174435
0.00019443
0.000212743
0.000228504
0.000239956
0.000244957
0.000242497
0.000241847
0.000244601
0.000239836
0.000228549
0.000212917
0.000194726
0.000174781
0.000155075
0.000134229
0.000111321
3.90806e-06
7.28938e-06
9.30509e-06
1.02839e-05
1.07264e-05
1.0712e-05
1.03896e-05
9.92951e-06
9.52084e-06
9.82709e-06
9.76811e-06
9.57551e-06
1.00408e-05
1.05164e-05
1.08516e-05
1.09012e-05
1.0569e-05
9.63322e-06
7.47342e-06
3.97953e-06
6.54308e-06
1.58643e-05
1.90282e-05
1.94594e-05
1.92104e-05
1.85041e-05
1.75674e-05
1.69052e-05
1.75654e-05
2.15667e-05
2.11252e-05
1.74319e-05
1.69718e-05
1.76636e-05
1.85885e-05
1.9301e-05
1.97141e-05
1.9509e-05
1.64189e-05
6.63418e-06
1.58076e-05
2.56612e-05
2.91281e-05
2.98347e-05
2.86439e-05
2.61543e-05
2.32419e-05
2.076e-05
1.98489e-05
2.16682e-05
2.14705e-05
1.98778e-05
2.08819e-05
2.326e-05
2.59992e-05
2.83429e-05
2.95652e-05
2.91582e-05
2.58024e-05
1.58791e-05
1.89801e-05
2.6048e-05
3.02472e-05
3.16676e-05
3.13449e-05
2.98733e-05
2.75678e-05
2.47982e-05
2.28041e-05
2.33391e-05
2.33444e-05
2.30332e-05
2.50893e-05
2.78531e-05
3.01652e-05
3.1636e-05
3.19365e-05
3.05579e-05
2.63163e-05
1.91314e-05
2.81602e-05
2.7984e-05
2.95283e-05
3.0643e-05
3.03678e-05
2.90333e-05
2.71795e-05
2.538e-05
2.45269e-05
2.60808e-05
2.61586e-05
2.48235e-05
2.57677e-05
2.76018e-05
2.94754e-05
3.0823e-05
3.11104e-05
3.00193e-05
2.85476e-05
2.89002e-05
4.84106e-05
3.78113e-05
3.16903e-05
3.05914e-05
2.99664e-05
2.85719e-05
2.66043e-05
2.46638e-05
2.39815e-05
2.7394e-05
2.74685e-05
2.4253e-05
2.50417e-05
2.70469e-05
2.90543e-05
3.04592e-05
3.10764e-05
3.21706e-05
3.83507e-05
4.89157e-05
6.54799e-05
5.3179e-05
3.85166e-05
3.46655e-05
3.39881e-05
3.30803e-05
3.1484e-05
2.98335e-05
2.92997e-05
3.3864e-05
3.3979e-05
2.9614e-05
3.02824e-05
3.20268e-05
3.36723e-05
3.45772e-05
3.52117e-05
3.90373e-05
5.38929e-05
6.5827e-05
8.10209e-05
8.71575e-05
6.03823e-05
5.96189e-05
6.55171e-05
7.05538e-05
7.30318e-05
7.07264e-05
6.12962e-05
5.14326e-05
5.15067e-05
6.17191e-05
7.13625e-05
7.38266e-05
7.14719e-05
6.64636e-05
6.04148e-05
6.08963e-05
8.77507e-05
8.12716e-05
9.69322e-05
0.000114906
0.00015097
0.000195257
0.000248806
0.000292401
0.000322487
0.000319436
0.000258346
0.000174393
0.000173771
0.000258825
0.000320169
0.000323271
0.000293306
0.000250165
0.000196664
0.000151983
0.000115423
9.71445e-05
0.000113967
0.000138797
0.000161543
0.000183641
0.000206764
0.000228505
0.000247967
0.000263544
0.000274044
0.000280319
0.00027951
0.00027366
0.000263379
0.00024793
0.000228563
0.000206913
0.00018384
0.000161717
0.000138937
0.00011407
3.60903e-06
5.48458e-06
6.91224e-06
8.55659e-06
9.30141e-06
9.70336e-06
9.92823e-06
1.01673e-05
1.0515e-05
1.15745e-05
1.14629e-05
1.05179e-05
1.02535e-05
1.00558e-05
9.86839e-06
9.51335e-06
8.81512e-06
7.06622e-06
5.53965e-06
3.59307e-06
6.41893e-06
1.20956e-05
1.53333e-05
1.69168e-05
1.71767e-05
1.70062e-05
1.6902e-05
1.75908e-05
2.00228e-05
2.4116e-05
2.34819e-05
1.9644e-05
1.75519e-05
1.70058e-05
1.71786e-05
1.74065e-05
1.72292e-05
1.5546e-05
1.22815e-05
6.4767e-06
9.49706e-06
2.02178e-05
2.40854e-05
2.50129e-05
2.41778e-05
2.24554e-05
2.07574e-05
2.00921e-05
2.136e-05
2.7129e-05
2.66315e-05
2.12053e-05
2.02051e-05
2.09223e-05
2.25721e-05
2.42214e-05
2.50693e-05
2.42438e-05
2.04174e-05
9.5603e-06
1.42865e-05
2.09124e-05
2.55017e-05
2.77969e-05
2.81513e-05
2.69167e-05
2.47965e-05
2.30101e-05
2.36715e-05
3.48244e-05
3.41381e-05
2.37256e-05
2.33227e-05
2.51343e-05
2.72283e-05
2.84345e-05
2.80495e-05
2.5736e-05
2.11029e-05
1.44295e-05
2.25867e-05
2.19732e-05
2.40708e-05
2.60654e-05
2.68118e-05
2.64234e-05
2.53788e-05
2.44433e-05
2.61766e-05
4.81763e-05
4.70836e-05
2.6302e-05
2.48243e-05
2.57872e-05
2.68266e-05
2.71927e-05
2.64262e-05
2.44319e-05
2.24167e-05
2.32626e-05
4.50043e-05
3.21164e-05
2.58708e-05
2.51864e-05
2.55587e-05
2.54139e-05
2.46631e-05
2.40943e-05
2.72027e-05
6.08288e-05
5.92681e-05
2.72628e-05
2.44429e-05
2.50521e-05
2.58003e-05
2.59174e-05
2.55196e-05
2.62098e-05
3.25519e-05
4.54841e-05
6.30723e-05
4.58378e-05
3.21191e-05
2.86793e-05
2.90258e-05
2.97247e-05
2.98331e-05
3.01074e-05
3.45728e-05
7.5422e-05
7.38356e-05
3.46729e-05
3.05223e-05
3.03053e-05
3.01921e-05
2.94377e-05
2.9016e-05
3.24131e-05
4.62458e-05
6.33695e-05
7.93953e-05
8.11463e-05
5.43796e-05
5.39671e-05
6.10979e-05
6.76917e-05
7.07272e-05
6.68181e-05
5.88363e-05
9.03246e-05
8.89542e-05
5.91737e-05
6.74844e-05
7.14267e-05
6.84033e-05
6.17609e-05
5.44884e-05
5.47056e-05
8.17494e-05
7.95784e-05
9.60331e-05
0.000111486
0.000145591
0.00019291
0.00025072
0.000295663
0.000319442
0.000291854
0.000207477
0.000231617
0.000229559
0.000208712
0.000293405
0.000320434
0.000296499
0.000251606
0.000193835
0.000146257
0.000111807
9.61518e-05
0.000114845
0.000141037
0.000165216
0.000189163
0.000214991
0.000239957
0.000263545
0.000285248
0.000307015
0.000337026
0.000335829
0.000306498
0.000284994
0.000263398
0.000239878
0.00021497
0.000189189
0.000165235
0.000141049
0.000114859
3.63592e-06
4.76685e-06
6.46651e-06
7.18843e-06
8.06443e-06
8.77847e-06
9.52424e-06
1.0517e-05
1.12702e-05
1.25963e-05
1.24824e-05
1.1242e-05
1.05538e-05
9.62103e-06
8.91567e-06
8.23376e-06
7.40918e-06
6.60979e-06
4.8038e-06
3.49877e-06
6.26407e-06
1.05197e-05
1.30759e-05
1.5056e-05
1.58576e-05
1.64028e-05
1.75666e-05
2.00244e-05
2.22451e-05
6.25725e-05
6.09672e-05
2.17947e-05
1.97788e-05
1.75687e-05
1.65393e-05
1.60812e-05
1.53435e-05
1.33246e-05
1.06348e-05
6.17614e-06
7.85046e-06
1.49287e-05
1.90483e-05
2.05682e-05
2.05255e-05
1.99235e-05
1.98482e-05
2.13606e-05
2.90832e-05
0.000134529
0.000131436
2.86493e-05
2.13262e-05
2.00056e-05
2.01378e-05
2.07449e-05
2.07889e-05
1.93323e-05
1.5062e-05
7.77011e-06
1.02287e-05
1.75507e-05
2.2372e-05
2.46119e-05
2.4874e-05
2.38107e-05
2.28028e-05
2.36715e-05
4.19155e-05
0.000223192
0.000218153
4.10494e-05
2.38318e-05
2.31402e-05
2.4157e-05
2.51858e-05
2.48871e-05
2.25911e-05
1.76653e-05
1.03713e-05
1.84946e-05
1.74907e-05
1.98425e-05
2.24588e-05
2.40834e-05
2.45475e-05
2.45258e-05
2.61764e-05
5.98088e-05
0.000331873
0.000324352
5.82467e-05
2.63865e-05
2.48861e-05
2.48848e-05
2.43712e-05
2.26995e-05
2.00681e-05
1.78223e-05
1.91266e-05
4.19376e-05
2.83807e-05
2.1708e-05
2.08602e-05
2.19958e-05
2.31217e-05
2.3981e-05
2.72028e-05
7.785e-05
0.000435345
0.000425397
7.53468e-05
2.73052e-05
2.42665e-05
2.33722e-05
2.21951e-05
2.10411e-05
2.19283e-05
2.87328e-05
4.23737e-05
6.00235e-05
4.16959e-05
2.80696e-05
2.41433e-05
2.50033e-05
2.71876e-05
2.92992e-05
3.45728e-05
9.77991e-05
0.000503601
0.000492187
9.48697e-05
3.46826e-05
2.96211e-05
2.74732e-05
2.52189e-05
2.43072e-05
2.8244e-05
4.20076e-05
6.02558e-05
7.61829e-05
7.34006e-05
4.7994e-05
4.6741e-05
5.35664e-05
5.97117e-05
6.12965e-05
5.88362e-05
0.000117618
0.000508545
0.000497589
0.000114853
5.9239e-05
6.18576e-05
6.01943e-05
5.39638e-05
4.70365e-05
4.81908e-05
7.38835e-05
7.62759e-05
9.25846e-05
0.000102586
0.000129916
0.000173596
0.000226058
0.000259138
0.000258343
0.000207477
0.000230537
0.000450233
0.000443716
0.000227958
0.000208918
0.000259553
0.000259751
0.000226482
0.000174051
0.000130295
0.000102705
9.25848e-05
0.000112927
0.000139422
0.000164061
0.000188876
0.000216828
0.000244957
0.000274046
0.000307018
0.000352929
0.000417019
0.00041552
0.00035188
0.000306468
0.000273665
0.000244647
0.000216572
0.00018868
0.000163883
0.000139268
0.000112822
3.6448e-06
5.94345e-06
5.00046e-06
6.39536e-06
7.43641e-06
8.45052e-06
9.82523e-06
1.15756e-05
1.25974e-05
1.3506e-05
1.34232e-05
1.25562e-05
1.15634e-05
9.86354e-06
8.52637e-06
7.53899e-06
6.50158e-06
5.042e-06
5.64781e-06
3.54294e-06
6.36803e-06
1.01281e-05
1.19616e-05
1.4328e-05
1.63197e-05
1.78868e-05
2.15676e-05
2.4117e-05
6.25784e-05
6.27026e-05
6.20725e-05
6.15299e-05
2.38026e-05
2.14114e-05
1.78796e-05
1.64177e-05
1.44875e-05
1.20086e-05
1.00393e-05
6.01479e-06
8.4927e-06
1.29475e-05
1.59124e-05
1.79604e-05
1.91215e-05
1.9566e-05
2.16698e-05
2.7129e-05
0.000134534
0.000112457
0.000111743
0.000132279
2.69056e-05
2.16814e-05
1.96624e-05
1.92628e-05
1.82109e-05
1.6079e-05
1.30057e-05
8.40615e-06
9.27828e-06
1.68104e-05
1.98983e-05
2.13548e-05
2.19329e-05
2.18406e-05
2.33405e-05
3.48237e-05
0.000223196
0.000170823
0.000170469
0.00021918
3.44339e-05
2.34627e-05
2.2022e-05
2.21262e-05
2.16268e-05
2.01725e-05
1.69524e-05
9.16553e-06
1.67961e-05
1.59324e-05
1.7772e-05
2.03902e-05
2.27016e-05
2.3842e-05
2.60822e-05
4.81756e-05
0.000331879
0.000240737
0.000241197
0.000325455
4.73937e-05
2.61854e-05
2.395e-05
2.27442e-05
2.04128e-05
1.78374e-05
1.6145e-05
1.72094e-05
3.92016e-05
2.68758e-05
1.99422e-05
1.83471e-05
2.01346e-05
2.30443e-05
2.73955e-05
6.08286e-05
0.000435359
0.000318303
0.000319965
0.000426338
5.94934e-05
2.73953e-05
2.30488e-05
2.01023e-05
1.83675e-05
2.00662e-05
2.7158e-05
3.95766e-05
5.60724e-05
3.92747e-05
2.59799e-05
2.13574e-05
2.27785e-05
2.72852e-05
3.38645e-05
7.54237e-05
0.000503626
0.000394573
0.000397818
0.000492869
7.39251e-05
3.38948e-05
2.73373e-05
2.27999e-05
2.14067e-05
2.61139e-05
3.95339e-05
5.62134e-05
7.08468e-05
6.43056e-05
4.03464e-05
3.75266e-05
4.3163e-05
4.83697e-05
5.14319e-05
9.03273e-05
0.00050859
0.000441619
0.000446331
0.000497803
8.8956e-05
5.16442e-05
4.85866e-05
4.32955e-05
3.7615e-05
4.04436e-05
6.46484e-05
7.08121e-05
8.56385e-05
8.65397e-05
9.91051e-05
0.000135922
0.000175967
0.000189343
0.000174383
0.000231626
0.000450261
0.000464932
0.00046912
0.000443503
0.000229291
0.000174323
0.000189437
0.000175682
0.000135644
9.91224e-05
8.64338e-05
8.54723e-05
0.000106118
0.000131878
0.000155164
0.000180717
0.000210804
0.000242493
0.00028032
0.000337032
0.000417028
0.000441002
0.000444022
0.000415436
0.000335631
0.000279376
0.000241789
0.00021021
0.000180213
0.000154756
0.000131527
0.000105836
4.02763e-06
4.40668e-06
6.24952e-06
6.52092e-06
7.47354e-06
8.44186e-06
9.76791e-06
1.14624e-05
1.24809e-05
1.34217e-05
1.3459e-05
1.25522e-05
1.15471e-05
9.83773e-06
8.49644e-06
7.51502e-06
6.54781e-06
6.4956e-06
4.44787e-06
4.12814e-06
6.40565e-06
9.78378e-06
1.2135e-05
1.433e-05
1.6235e-05
1.76657e-05
2.11256e-05
2.3482e-05
6.09661e-05
6.20693e-05
6.22879e-05
6.17507e-05
2.38436e-05
2.14079e-05
1.78527e-05
1.63756e-05
1.43895e-05
1.21713e-05
9.85374e-06
6.50344e-06
8.41993e-06
1.28403e-05
1.59863e-05
1.80727e-05
1.91388e-05
1.95212e-05
2.14685e-05
2.66296e-05
0.000131436
0.000111737
0.000111815
0.000132513
2.68401e-05
2.15829e-05
1.95815e-05
1.91916e-05
1.80974e-05
1.60559e-05
1.29433e-05
8.45285e-06
9.14819e-06
1.67734e-05
2.00122e-05
2.15257e-05
2.20841e-05
2.19729e-05
2.33418e-05
3.41358e-05
0.000218159
0.00017046
0.000170107
0.000219285
3.42504e-05
2.3294e-05
2.18926e-05
2.20119e-05
2.15115e-05
2.00856e-05
1.68562e-05
9.11844e-06
1.68233e-05
1.59384e-05
1.78314e-05
2.05243e-05
2.2866e-05
2.40143e-05
2.61564e-05
4.70818e-05
0.000324368
0.000241182
0.000240129
0.000325354
4.70465e-05
2.59625e-05
2.37803e-05
2.25972e-05
2.02911e-05
1.77613e-05
1.61315e-05
1.72655e-05
3.93688e-05
2.69631e-05
1.99806e-05
1.83596e-05
2.01873e-05
2.31714e-05
2.74675e-05
5.92667e-05
0.000425419
0.000319944
0.000317999
0.000426126
5.91023e-05
2.72026e-05
2.29203e-05
2.00027e-05
1.82989e-05
2.00464e-05
2.71782e-05
3.95832e-05
5.61674e-05
3.93768e-05
2.60264e-05
2.13312e-05
2.27851e-05
2.74026e-05
3.39779e-05
7.38311e-05
0.000492203
0.000397791
0.000394868
0.000492614
7.35746e-05
3.375e-05
2.72389e-05
2.27185e-05
2.13567e-05
2.61094e-05
3.9535e-05
5.61513e-05
7.08752e-05
6.44534e-05
4.02944e-05
3.736e-05
4.30204e-05
4.83471e-05
5.15068e-05
8.89491e-05
0.000497581
0.000446299
0.000442672
0.00049727
8.86216e-05
5.14675e-05
4.84106e-05
4.31137e-05
3.74666e-05
4.03644e-05
6.45945e-05
7.06869e-05
8.56101e-05
8.65136e-05
9.90435e-05
0.000135203
0.000175059
0.000188497
0.000173774
0.000229547
0.00044371
0.000469093
0.000465384
0.000442827
0.000228619
0.000173688
0.000188809
0.00017498
0.000135002
9.88027e-05
8.62037e-05
8.52817e-05
0.000106028
0.000131708
0.000154903
0.000180305
0.000210268
0.000241842
0.000279503
0.00033582
0.000415512
0.000444005
0.00044108
0.000413836
0.00033443
0.000278421
0.000241007
0.000209548
0.000179655
0.000154307
0.000131167
0.000105561
3.49262e-06
4.83167e-06
5.56872e-06
7.3115e-06
8.17616e-06
8.86526e-06
9.57407e-06
1.05151e-05
1.1239e-05
1.25549e-05
1.25509e-05
1.12371e-05
1.05177e-05
9.56673e-06
8.84875e-06
8.14873e-06
7.26871e-06
5.54759e-06
5.02132e-06
3.46994e-06
6.26905e-06
1.05945e-05
1.31581e-05
1.52648e-05
1.59791e-05
1.64254e-05
1.74285e-05
1.96414e-05
2.17944e-05
6.15397e-05
6.17414e-05
2.19262e-05
1.97878e-05
1.75099e-05
1.64554e-05
1.59844e-05
1.5173e-05
1.31264e-05
1.0638e-05
6.24186e-06
7.7392e-06
1.502e-05
1.91196e-05
2.06462e-05
2.06159e-05
2.00217e-05
1.98734e-05
2.12017e-05
2.86498e-05
0.000132306
0.000132499
2.87015e-05
2.12347e-05
1.98841e-05
2.00212e-05
2.06323e-05
2.06826e-05
1.91829e-05
1.50942e-05
7.71189e-06
1.03057e-05
1.75986e-05
2.24783e-05
2.4759e-05
2.50562e-05
2.40481e-05
2.30287e-05
2.37215e-05
4.10539e-05
0.000219234
0.000219269
4.10414e-05
2.3637e-05
2.29332e-05
2.39568e-05
2.49857e-05
2.46965e-05
2.24383e-05
1.75869e-05
1.03788e-05
1.89079e-05
1.76818e-05
2.00149e-05
2.26994e-05
2.43723e-05
2.48592e-05
2.48201e-05
2.62988e-05
5.82574e-05
0.000325545
0.000325334
5.8118e-05
2.61262e-05
2.4633e-05
2.46526e-05
2.41634e-05
2.25289e-05
1.99472e-05
1.77805e-05
1.91901e-05
4.22414e-05
2.86127e-05
2.18309e-05
2.09714e-05
2.21695e-05
2.33725e-05
2.42508e-05
2.72609e-05
7.53641e-05
0.000426464
0.000426101
7.51642e-05
2.70836e-05
2.40731e-05
2.32024e-05
2.20427e-05
2.09131e-05
2.18509e-05
2.87127e-05
4.23113e-05
6.01682e-05
4.18658e-05
2.81085e-05
2.41594e-05
2.51133e-05
2.74349e-05
2.96121e-05
3.46716e-05
9.48885e-05
0.000493019
0.000492581
9.46576e-05
3.4496e-05
2.94617e-05
2.73234e-05
2.50763e-05
2.41879e-05
2.81649e-05
4.19337e-05
6.00899e-05
7.62135e-05
7.35793e-05
4.79684e-05
4.67585e-05
5.37083e-05
5.99984e-05
6.17187e-05
5.91734e-05
0.00011487
0.000497959
0.000497228
0.000114536
5.90759e-05
6.16621e-05
5.996e-05
5.37222e-05
4.68232e-05
4.80145e-05
7.3646e-05
7.60243e-05
9.25359e-05
0.000102449
0.000129833
0.000173514
0.000225802
0.000258934
0.00025884
0.000208715
0.000227975
0.000443598
0.000442803
0.000226946
0.0002086
0.000259109
0.000258936
0.000225601
0.000173287
0.000129676
0.000102246
9.22562e-05
0.000112839
0.000139283
0.000163875
0.000188644
0.00021652
0.000244602
0.000273662
0.000306502
0.000351891
0.000415467
0.000413827
0.000350485
0.000305367
0.000272749
0.000243842
0.000215857
0.000188053
0.000163342
0.00013881
0.000112444
3.5445e-06
5.57334e-06
7.27428e-06
8.75474e-06
9.46581e-06
9.8378e-06
1.00374e-05
1.025e-05
1.05505e-05
1.15623e-05
1.15452e-05
1.05181e-05
1.02128e-05
9.99896e-06
9.79903e-06
9.42678e-06
8.69607e-06
7.31945e-06
5.57723e-06
3.56211e-06
6.42289e-06
1.2265e-05
1.56293e-05
1.71754e-05
1.73513e-05
1.71315e-05
1.69682e-05
1.7549e-05
1.97788e-05
2.38059e-05
2.38411e-05
1.97844e-05
1.75338e-05
1.69322e-05
1.70858e-05
1.7298e-05
1.71118e-05
1.55591e-05
1.21873e-05
6.4359e-06
9.49474e-06
2.03244e-05
2.40971e-05
2.48947e-05
2.40944e-05
2.24932e-05
2.08772e-05
2.02012e-05
2.1326e-05
2.69093e-05
2.68367e-05