/*--------------------------------*- C++ -*----------------------------------*\
| =========                 |                                                 |
| \\      /  F ield         | OpenFOAM: The Open Source CFD Toolbox           |
|  \\    /   O peration     | Version:  v1912                                 |
|   \\  /    A nd           | Website:  www.openfoam.com                      |
|    \\/     M anipulation  |                                                 |
\*---------------------------------------------------------------------------*/
FoamFile
{
    version     2.0;
    format      ascii;
    class       volScalarField;
    location    "1000";
    object      nut;
}
// * * * * * * * * * * * * * * * * * * * * * * * * * * * * * * * * * * * * * //

dimensions      [0 2 -1 0 0 0 0];


internalField   nonuniform List<scalar> 
4000
(
0.00039607
0.000377903
0.000352944
0.000308725
0.000144549
0.000119896
0.000109407
0.000104949
0.00010768
0.000152581
8.40889e-05
0.000101631
0.000106874
0.000112845
0.000120895
0.000144978
0.000312487
0.000354985
0.00037947
0.000397427
0.000414597
0.000393108
0.000355328
0.000317076
0.000264848
0.000195151
0.000143936
0.000143917
0.000144886
0.000178076
0.000125608
0.000134437
0.000141472
0.000144032
0.000195523
0.000265664
0.000319173
0.000356723
0.000394312
0.000415887
0.000426093
0.000408448
0.000371707
0.000327937
0.000292975
0.000256575
0.00022294
0.000175255
0.000158671
0.000173395
0.000161368
0.00015461
0.000172559
0.000223176
0.000256784
0.000293278
0.00032857
0.000372637
0.000409487
0.000427289
0.000433022
0.000420733
0.000391012
0.000348871
0.000310621
0.000275262
0.000244514
0.000213114
0.000179056
0.000171604
0.00017065
0.000180219
0.00021288
0.000244962
0.000275623
0.000311144
0.000349361
0.000392011
0.000421766
0.000434147
0.000438422
0.000432721
0.000414671
0.000388421
0.000360578
0.000330179
0.000297718
0.000267271
0.000241692
0.000230872
0.000232283
0.000244759
0.00027
0.000300876
0.000332864
0.000362134
0.000389653
0.000415776
0.000433783
0.000439504
0.00044351
0.000445649
0.000439482
0.000428565
0.000416631
0.000403749
0.000390586
0.000376638
0.000363575
0.00035167
0.000352447
0.000364997
0.000378254
0.000392265
0.000405361
0.000418084
0.000429884
0.000440702
0.000446793
0.000444578
0.000449299
0.00045939
0.000464022
0.000464798
0.000463727
0.000460181
0.000454312
0.0004459
0.000434955
0.000420386
0.000420807
0.000435542
0.000446718
0.000455333
0.000461337
0.000464946
0.000466043
0.000465252
0.000460573
0.000450347
0.0004562
0.000474357
0.000488146
0.000497407
0.00050361
0.000506212
0.000505338
0.000500244
0.000490019
0.000472559
0.000472702
0.000490176
0.000500705
0.000506059
0.000507145
0.000504699
0.000498594
0.000489367
0.000475552
0.000457226
0.000465212
0.000492684
0.000514687
0.000530822
0.000542709
0.000549899
0.000552729
0.000550164
0.000540206
0.000519569
0.000519523
0.000540112
0.000550441
0.00055334
0.000550771
0.000543767
0.000531991
0.0005159
0.000493869
0.000466211
0.000478584
0.000514477
0.00054312
0.000564021
0.000580126
0.000591858
0.000599327
0.000601637
0.000596605
0.000578365
0.000578157
0.00059641
0.000601769
0.000599745
0.000592513
0.000580972
0.000565008
0.000544196
0.000515568
0.000479536
0.000377905
0.000378424
0.000349843
0.000307804
0.000170267
0.000162622
0.000149247
0.000130359
0.000157277
8.23606e-05
0.000179485
0.000125407
0.000129657
0.000152866
0.000162608
0.000170601
0.000313174
0.000352877
0.000380713
0.000379864
0.000393105
0.000565988
0.000519656
0.00040717
0.000358598
0.000353872
0.000341363
0.000314299
0.00033101
0.000362963
0.000366348
0.000328953
0.000315496
0.000344634
0.000354876
0.000360976
0.000412756
0.000526696
0.000564845
0.000395088
0.000408439
0.00062782
0.000684522
0.000562208
0.000460724
0.000407966
0.000383573
0.000358738
0.000353698
0.000407844
0.000404672
0.00035366
0.000359364
0.000384282
0.000408916
0.000462657
0.000564995
0.000684771
0.000626875
0.00041028
0.000420724
0.000622164
0.000655429
0.000593731
0.000498731
0.000429902
0.000383185
0.000350404
0.000344925
0.000413786
0.000411446
0.000344063
0.000350909
0.000384537
0.000432037
0.000501744
0.000597399
0.000658395
0.00062421
0.000422419
0.000432715
0.000632397
0.00065861
0.000592119
0.0004957
0.000423414
0.000372291
0.000329757
0.000299602
0.000305957
0.000305265
0.000299935
0.000331301
0.000374836
0.000426584
0.000498868
0.000595754
0.000662498
0.000635573
0.000434243
0.000445645
0.00064879
0.000682524
0.00064376
0.000554987
0.000460119
0.000405485
0.000360626
0.000330423
0.000322049
0.000322781
0.000332119
0.000362697
0.000407901
0.000462785
0.000557412
0.000647354
0.000686389
0.00065209
0.000447004
0.000459388
0.000661762
0.000705578
0.000706894
0.00067492
0.000607321
0.000519648
0.000457122
0.000422588
0.000404861
0.000405912
0.000424314
0.000459232
0.000523374
0.000611499
0.000678619
0.000710693
0.000709249
0.000664988
0.000460603
0.000474356
0.000666316
0.000720218
0.000764469
0.00079997
0.00081002
0.000795846
0.000752739
0.000691059
0.000623539
0.000625193
0.000693399
0.000756256
0.000798982
0.000813742
0.000804189
0.00076877
0.000723832
0.00066942
0.000475479
0.000492683
0.000646712
0.000722255
0.000778576
0.000817293
0.000829629
0.000825678
0.000801878
0.000747144
0.00065738
0.000657429
0.000746386
0.000802754
0.000827962
0.000832909
0.000821065
0.000782293
0.000725534
0.000649371
0.000493738
0.000514478
0.00055421
0.000587226
0.000612688
0.000633513
0.000649804
0.000661378
0.000666701
0.000662886
0.000644726
0.000644352
0.000662601
0.000666803
0.000661818
0.00065052
0.000634438
0.000613751
0.000588349
0.000555303
0.000515373
0.000352959
0.000349867
0.000325445
0.000270977
0.000179445
0.000190221
0.00017124
0.000153965
0.000107568
0.000182406
8.88422e-05
0.000182516
0.000142755
0.000173118
0.000187546
0.000180056
0.000282239
0.000330401
0.000352879
0.000355325
0.000355345
0.00051965
0.000463945
0.00038119
0.000387966
0.000405296
0.000388547
0.00037669
0.000387805
0.000434895
0.000422576
0.000390099
0.000377718
0.000389092
0.000401666
0.000383455
0.000388604
0.000475058
0.000529256
0.000357966
0.000371692
0.000684507
0.000697479
0.000577463
0.00050344
0.000470754
0.000459505
0.000443958
0.000441159
0.000482197
0.000477452
0.00044044
0.000442582
0.000457595
0.00046875
0.000503404
0.000582319
0.000708487
0.000686759
0.000374297
0.000390983
0.000655413
0.000731561
0.000673229
0.000582372
0.000515789
0.00047272
0.000448004
0.000454238
0.000502022
0.000499402
0.000452766
0.000448258
0.000474036
0.00051834
0.000586932
0.000680813
0.000738989
0.000660224
0.000393375
0.000414653
0.000658595
0.000718586
0.000669132
0.000577198
0.000502666
0.00045011
0.000411277
0.000391348
0.000416383
0.00041556
0.000391068
0.000412637
0.000452702
0.000506376
0.000582114
0.000675649
0.00072579
0.000664398
0.000416607
0.000439469
0.000682513
0.000748496
0.000710127
0.000606177
0.000503031
0.000432824
0.000378917
0.000339296
0.000328399
0.000328465
0.000339743
0.000380283
0.00043505
0.000505784
0.000609233
0.000714936
0.000754838
0.000688086
0.000441123
0.000464012
0.000705571
0.000785627
0.000773494
0.000689485
0.000581468
0.000488725
0.000421707
0.000377383
0.00035649
0.000357012
0.000377834
0.000423093
0.000491303
0.00058461
0.000692566
0.000777891
0.000791376
0.000710808
0.000465378
0.00048814
0.000720213
0.000828095
0.000868556
0.000848118
0.000780877
0.000714084
0.00065072
0.000587694
0.000518688
0.000518592
0.000588263
0.000653338
0.000717438
0.000785238
0.000852762
0.000873713
0.00083391
0.000725165
0.000489328
0.000514682
0.000722251
0.000898049
0.00104587
0.00113306
0.00115062
0.00114299
0.00111285
0.00103707
0.00087512
0.000874956
0.00103544
0.00111468
0.00114728
0.00115638
0.00113942
0.00105202
0.000903601
0.000726405
0.000515795
0.000543118
0.000587223
0.000624066
0.000653452
0.000678267
0.000698375
0.000713497
0.000721569
0.000719057
0.000699307
0.000698769
0.000718703
0.000721656
0.000713953
0.000699132
0.000679241
0.000654548
0.000625196
0.000588291
0.000543977
0.000308815
0.00030804
0.000271044
0.000190778
0.000199644
0.000198313
0.000180487
0.000164245
0.000149388
0.000144221
0.000142692
0.000153354
0.000166523
0.000182078
0.000197963
0.0001938
0.000228779
0.00028195
0.000313187
0.000313104
0.00031716
0.000407257
0.000381234
0.000385735
0.000425201
0.000425256
0.000416322
0.000418212
0.000436456
0.000484548
0.000477727
0.000434388
0.00041685
0.000412154
0.000413147
0.000396013
0.000351743
0.000388915
0.00041394
0.000320115
0.000328001
0.000562227
0.000577474
0.000535086
0.000511006
0.00050476
0.000502216
0.000491201
0.000495801
0.000539792
0.000534437
0.000491973
0.000487115
0.000495821
0.000496274
0.000500587
0.000527323
0.000583632
0.000568146
0.000330085
0.000348859
0.000593708
0.000673218
0.000646365
0.00059496
0.00055268
0.000525058
0.000512556
0.000521875
0.000558908
0.000556624
0.00051998
0.00051209
0.000525481
0.000553936
0.000597717
0.000652321
0.000682899
0.000601121
0.000351155
0.000388405
0.00059209
0.000669116
0.000658833
0.00060594
0.000552325
0.000510727
0.000481655
0.000473939
0.000514635
0.000515047
0.000474406
0.000483371
0.000513719
0.000556672
0.000611883
0.000666849
0.000678524
0.000600089
0.000390764
0.000428547
0.000643736
0.00071011
0.000698878
0.000634544
0.000555717
0.000491428
0.000440792
0.000403112
0.000393818
0.000393777
0.00040339
0.000442405
0.000494392
0.000559851
0.00063972
0.000705582
0.000718467
0.000651475
0.000430419
0.000464783
0.000706885
0.000773481
0.000773014
0.000712498
0.000618514
0.000531994
0.000462958
0.000408952
0.000379604
0.000379434
0.000409268
0.000464891
0.00053548
0.000623097
0.000717845
0.000779608
0.000781545
0.00071388
0.000466218
0.000497397
0.00076447
0.000868544
0.000912425
0.000889622
0.000815897
0.000737729
0.000665278
0.000593178
0.000518499
0.000517636
0.000593682
0.000668276
0.000742686
0.00082226
0.000896946
0.000920869
0.000877014
0.000770572
0.000498591
0.000530812
0.000778571
0.00104587
0.00127411
0.00136025
0.00136872
0.00135739
0.00131661
0.00121178
0.00102644
0.0010235
0.00121134
0.00132056
0.00136402
0.00137727
0.00136937
0.00128299
0.00105372
0.000783788
0.000531925
0.000564014
0.000612682
0.000653448
0.000686996
0.000716545
0.000741408
0.000760721
0.000772079
0.000771508
0.000754687
0.000753872
0.000771093
0.000772143
0.000761166
0.000742171
0.000717526
0.000688083
0.000654535
0.000613674
0.000564799
0.000143651
0.000169796
0.000179055
0.000199503
0.000204615
0.000196282
0.000183681
0.000171338
0.000159635
0.000154075
0.000154421
0.00016046
0.000172981
0.000185186
0.000196472
0.000202112
0.000193895
0.000180298
0.000170768
0.000145119
0.000264688
0.000358589
0.000387983
0.000425195
0.000438117
0.00043629
0.000436462
0.00044202
0.0004684
0.00053468
0.000524866
0.00046312
0.000439251
0.000431485
0.000425383
0.000419049
0.000396502
0.000384218
0.000361854
0.000266771
0.000293062
0.000460749
0.000503452
0.000511006
0.000518426
0.000525778
0.000523898
0.000515177
0.000526479
0.000589267
0.000580927
0.000521368
0.000510509
0.000516478
0.000516499
0.00050815
0.000501177
0.000504832
0.000464879
0.000294554
0.000310697
0.00049874
0.00058237
0.000594959
0.000581371
0.000565107
0.00055465
0.000551089
0.000560488
0.000602878
0.000599077
0.000558148
0.000550295
0.000555038
0.000566021
0.000583247
0.000598486
0.000589008
0.000504548
0.000312755
0.000360641
0.00049571
0.000577192
0.000605939
0.000594782
0.000569797
0.00054571
0.000529458
0.00053468
0.000586811
0.00058705
0.00053582
0.000531722
0.000549207
0.000574593
0.000600829
0.000613133
0.000585142
0.000502458
0.000363278
0.000416632
0.000554994
0.000606165
0.000634539
0.000620518
0.000579993
0.000536227
0.000498966
0.000476369
0.000489773
0.000490726
0.000477736
0.000501783
0.000540647
0.000585933
0.000627638
0.000642518
0.000614729
0.000563018
0.000418633
0.000463715
0.000674928
0.000689473
0.000712492
0.00069965
0.000646345
0.000581827
0.000522992
0.000476391
0.000462229
0.000463074
0.000478176
0.000526679
0.000587429
0.000653634
0.000708272
0.000722005
0.000699127
0.000682924
0.000465146
0.000503597
0.00079998
0.000848119
0.000889618
0.000884746
0.00083152
0.000764801
0.000697696
0.000625634
0.000551432
0.00055117
0.000627418
0.000702205
0.000771946
0.00084055
0.000895229
0.000901206
0.00085931
0.000806845
0.000504732
0.000542696
0.00081729
0.00113305
0.00136024
0.00146717
0.00152234
0.00154363
0.0015158
0.00139151
0.00116077
0.00115746
0.00139092
0.00151888
0.00155059
0.00153217
0.0014784
0.0013717
0.00114252
0.000822971
0.000543741
0.000580116
0.000633502
0.00067826
0.000716541
0.000752259
0.000782741
0.000807187
0.000823097
0.000826621
0.000815078
0.000814088
0.000826092
0.000823037
0.000807495
0.000783369
0.000753145
0.00071754
0.000679226
0.000634356
0.000580783
0.000119288
0.000162299
0.000188511
0.000197855
0.000196416
0.000191223
0.000183633
0.000174917
0.000166447
0.000163568
0.000163641
0.000167116
0.000176199
0.000184893
0.00019204
0.00019662
0.000198294
0.000188089
0.000162715
0.000120567
0.000197268
0.000354036
0.000405266
0.000425177
0.000436212
0.000444584
0.000449522
0.000458773
0.000492589
0.000566025
0.000555397
0.000485149
0.000455089
0.000445278
0.000437582
0.000425956
0.000414478
0.00040342
0.000356339
0.000198178
0.000257028
0.000408062
0.000470771
0.000504737
0.000525751
0.000533443
0.00052957
0.000524423
0.000544392
0.000609306
0.000600901
0.000538585
0.000520515
0.000523779
0.000525274
0.000516972
0.000497039
0.000469933
0.000410263
0.000257815
0.000275486
0.00042997
0.000515806
0.000552678
0.0005651
0.000568545
0.000568829
0.00056761
0.00057693
0.000618426
0.000615061
0.000574854
0.000566902
0.000569039
0.000569531
0.000566331
0.000554698
0.000519697
0.000433568
0.000276586
0.000330505
0.000423536
0.000502706
0.000552336
0.000569799
0.00056872
0.000561287
0.000557428
0.000573558
0.000621569
0.000622012
0.000574949
0.000560148
0.000564988
0.000573282
0.000574934
0.000557718
0.000508108
0.000428263
0.000334154
0.000403804
0.000460177
0.000503053
0.000555725
0.000579995
0.000574937
0.000555923
0.000536851
0.000534065
0.000567745
0.000569948
0.000536772
0.000540917
0.00056137
0.000581475
0.000586997
0.000562549
0.000509283
0.000465231
0.000405866
0.000460182
0.000607384
0.000581482
0.000618519
0.000646347
0.00063581
0.000601131
0.000561919
0.000535732
0.000550923
0.000553492
0.000539527
0.000567518
0.000608529
0.000644664
0.000656011
0.000628162
0.000590429
0.000616114
0.000461551
0.000506202
0.000810043
0.000780901
0.000815903
0.000831521
0.000809984
0.000768495
0.000715892
0.00064897
0.000580224
0.000581413
0.000652373
0.000721764
0.000776955
0.000820613
0.000843153
0.000827679
0.000791
0.000817003
0.000507206
0.000549884
0.000829632
0.00115062
0.00136873
0.00152235
0.00162138
0.00167033
0.00163841
0.00146558
0.00114054
0.00113789
0.00146559
0.00164108
0.00167572
0.00163
0.00153332
0.0013799
0.00115938
0.000834659
0.000550761
0.000591843
0.000649791
0.000698365
0.0007414
0.000782737
0.000818772
0.000848566
0.000869579
0.000878608
0.000874195
0.000873073
0.00087803
0.000869426
0.00084871
0.000819164
0.000783386
0.000742185
0.000699104
0.000650435
0.000592352
0.000112742
0.000152408
0.000169154
0.000179453
0.000184037
0.000183809
0.000180958
0.000176923
0.00017329
0.000176122
0.000175653
0.000173735
0.000177941
0.000182114
0.000185002
0.000185445
0.000182621
0.000174012
0.000153502
0.000112557
0.000146207
0.000340973
0.000388431
0.000416409
0.000436472
0.000449523
0.00045926
0.000476159
0.000519983
0.00059313
0.000583809
0.000510989
0.000471509
0.000455769
0.000445759
0.000432319
0.000413419
0.000390802
0.000345749
0.000145006
0.00022368
0.000383618
0.000459532
0.000502211
0.000523883
0.00052956
0.00052719
0.000530044
0.00055818
0.000585323
0.000581226
0.000552214
0.000526809
0.000523659
0.000524469
0.000517677
0.000497183
0.000458892
0.000384976
0.000223737
0.000244856
0.000383278
0.000472743
0.000525059
0.00055464
0.000568821
0.000571596
0.000570018
0.000580105
0.000559973
0.00056245
0.000578939
0.000569855
0.000571872
0.000569475
0.000555614
0.000526209
0.000474947
0.000385358
0.000245566
0.000298359
0.000372536
0.000450195
0.000510754
0.000545712
0.000561283
0.00056653
0.000572394
0.000588568
0.000550574
0.000556142
0.000590799
0.000575349
0.000570118
0.000565127
0.000549496
0.000514274
0.000453494
0.000375685
0.000301953
0.000390711
0.000405607
0.000432874
0.000491446
0.000536231
0.000555922
0.00055824
0.000556765
0.0005635
0.00051968
0.000525755
0.000567495
0.00056139
0.000563695
0.000561681
0.000541623
0.000496115
0.000436944
0.000409379
0.000392773
0.000454319
0.000519757
0.000488765
0.00053201
0.000581833
0.000601131
0.000592897
0.000575916
0.000569869
0.000548445
0.00055369
0.000575085
0.000582465
0.000600685
0.000609536
0.00059003
0.000539352
0.000495142
0.000526655
0.000455569
0.000505334
0.000795891
0.000714127
0.00073775
0.000764809
0.000768498
0.000748779
0.000707281
0.000644397
0.000575534
0.000578241
0.000648964
0.000713555
0.000756854
0.000778166
0.000774851
0.000747079
0.000721758
0.000802642
0.000506168
0.000552713
0.000825684
0.001143
0.00135742
0.00154365
0.00167034
0.00172447
0.00165586
0.00138952
0.000930077
0.000929408
0.00139244
0.00165938
0.00172867
0.00167645
0.00155177
0.0013659
0.00114969
0.000829609
0.000553371
0.000599307
0.000661362
0.000713485
0.000760711
0.000807181
0.000848563
0.000883973
0.000911331
0.000929324
0.000939918
0.000938618
0.000928733
0.000911109
0.000883973
0.000848736
0.000807535
0.000761184
0.000713929
0.000661751
0.000599627
0.000111745
0.000136014
0.000142855
0.000163547
0.000171242
0.000174919
0.000176901
0.000179024
0.000182068
0.000191065
0.000190145
0.000182095
0.000179805
0.000178074
0.000176443
0.000173376
0.000166992
0.000140962
0.000130491
0.000106823
0.000145455
0.000312314
0.000376635
0.00041789
0.000441789
0.000458665
0.000476123
0.000504389
0.000533691
0.000475628
0.000470094
0.000525345
0.000498532
0.00047263
0.000456541
0.000440797
0.000418389
0.00037867
0.000316191
0.000142749
0.000172883
0.000358251
0.00044382
0.000491097
0.000515083
0.000524362
0.000530019
0.000544043
0.000524314
0.000352679
0.000352191
0.000522501
0.000541148
0.000527994
0.000522233
0.000512607
0.000489396
0.000444362
0.000360098
0.000172949
0.000212724
0.000350291
0.00044794
0.000512518
0.000551055
0.000567581
0.000570003
0.000568484
0.000505244
0.000319445
0.000320062
0.000510406
0.000569547
0.000570801
0.000568215
0.000551623
0.000513202
0.000449045
0.000351355
0.000213142
0.00026797
0.000330018
0.000411376
0.00048169
0.00052946
0.000557418
0.000572386
0.000576874
0.000488659
0.000346629
0.000344955
0.000497112
0.000580736
0.000575677
0.000560424
0.000531909
0.000483571
0.000412964
0.000331912
0.00027092
0.000376784
0.000360782
0.000378976
0.000440814
0.000498972
0.000536848
0.000556763
0.000561177
0.000456602
0.000380457
0.000376515
0.000465405
0.000566433
0.00056146
0.000541108
0.000502345
0.00044342
0.000381461
0.000363731
0.000378782
0.000445903
0.000457216
0.000421761
0.00046299
0.000523005
0.00056192
0.000575914
0.000577116
0.000500418
0.000447413
0.000444386
0.000508603
0.000583818
0.000582811
0.000568581
0.000528746
0.000467593
0.000425511
0.00046127
0.000447002
0.000500245
0.000752854
0.000650781
0.000665311
0.000697711
0.000715899
0.000707283
0.000668008
0.000600743
0.000551104
0.000549381
0.000605945
0.000674184
0.000714194
0.000723279
0.000704835
0.000671574
0.000656254
0.000760107
0.000500879
0.000550143
0.000801877
0.00111287
0.00131665
0.00151582
0.00163842
0.00165587
0.00148884
0.00110245
0.000950346
0.000946148
0.00110907
0.00149521
0.0016606
0.00164293
0.00152086
0.00132216
0.00111721
0.000804712
0.000550546
0.000601612
0.00066668
0.000721554
0.000772067
0.000823089
0.000869576
0.000911331
0.000948133
0.00098366
0.00103063
0.00102887
0.000982893
0.000947771
0.00091114
0.000869499
0.000823117
0.000772188
0.000721661
0.000666769
0.000601703
0.000112435
0.000105843
0.000183231
0.000151012
0.00015939
0.000166383
0.000173293
0.000182087
0.000188488
0.000199293
0.000198388
0.000188266
0.000182418
0.000174171
0.00016764
0.000161043
0.000153462
0.000182508
0.000112434
0.000103468
0.000145554
0.00032716
0.000390915
0.000437355
0.000468593
0.000492597
0.000519987
0.000533708
0.000421152
0.000462835
0.000456681
0.000417137
0.000527885
0.000514735
0.000488932
0.000466616
0.000436949
0.00039233
0.000329608
0.000136392
0.00015871
0.000354097
0.00044183
0.000495982
0.000526501
0.000544372
0.000558171
0.000524317
0.000331727
0.000574513
0.000564773
0.000331473
0.000524554
0.000555869
0.000542316
0.000524996
0.000495264
0.000443346
0.000355407
0.00015526
0.000181403
0.000345819
0.000454438
0.000521915
0.000560489
0.000576913
0.000580094
0.000505237
0.000332094
0.000779963
0.000766292
0.000331644
0.000511613
0.000581451
0.000577396
0.000560638
0.000522066
0.000454351
0.000344821
0.000180774
0.000244079
0.000300748
0.00039182
0.00047412
0.000534738
0.000573563
0.000588563
0.00048865
0.000375423
0.00102707
0.00100894
0.000371919
0.000497656
0.000591765
0.000575237
0.000535421
0.000473809
0.000390948
0.00030062
0.000245765
0.000363806
0.000330869
0.000339516
0.000403196
0.000476405
0.000534076
0.000563502
0.000456596
0.000425652
0.00125933
0.00123719
0.000418288
0.000465525
0.000567391
0.000536193
0.000477356
0.00040369
0.000340617
0.000333127
0.000365616
0.000435008
0.000422793
0.000377513
0.000409019
0.000476421
0.000535738
0.000569866
0.000500411
0.000506205
0.00142036
0.00139641
0.00049853
0.000508646
0.00057511
0.000539877
0.000479468
0.000411314
0.000379766
0.000425941
0.000435894
0.00049003
0.000691224
0.000587789
0.000593224
0.000625651
0.000648976
0.000644399
0.000600738
0.000635895
0.00149778
0.00147498
0.000630184
0.000606549
0.000650025
0.000654195
0.000630215
0.000597131
0.000591654
0.000697388
0.000490386
0.000540181
0.000747117
0.00103705
0.00121179
0.0013915
0.00146558
0.00138951
0.00110242
0.00100415
0.00145374
0.00143888
0.000998857
0.0011109
0.00139572
0.00146955
0.00139467
0.00121497
0.00103917
0.000748787
0.000540244
0.00059657
0.000662857
0.000719036
0.000771492
0.000826609
0.000878602
0.000929325
0.000983664
0.00105467
0.00114645
0.00114446
0.00105317
0.000982841
0.000928736
0.000878105
0.000826183
0.000771154
0.000718708
0.00066255
0.000596349
8.25773e-05
0.000215849
9.12557e-05
0.00013829
0.000152439
0.000163197
0.000176009
0.000191031
0.000199281
0.000206349
0.000205727
0.000198981
0.000190965
0.000176395
0.000164014
0.000153883
0.000140205
9.05583e-05
0.000195181
8.361e-05
0.000136854
0.000373131
0.000430042
0.000484676
0.000534492
0.000565942
0.00059312
0.000475623
0.000462862
0.000308875
0.000306932
0.000459335
0.000474029
0.000588895
0.000560932
0.000530413
0.000481941
0.000426668
0.000368415
0.00012285
0.000162481
0.000408593
0.000482126
0.000539987
0.000589306
0.000609304
0.000585324
0.000352669
0.000574525
0.000449407
0.000446895
0.000568215
0.000354528
0.000585275
0.000605823
0.000585708
0.000538618
0.000480633
0.000407325
0.000160246
0.000173779
0.000415125
0.000502313
0.000559027
0.000602956
0.00061844
0.000559963
0.000319429
0.000779967
0.000598915
0.000596715
0.000770107
0.000321406
0.000563864
0.000617246
0.000600922
0.000558752
0.000501889
0.000413386
0.000170001
0.000234676
0.000308345
0.000417551
0.000515105
0.00058699
0.000621614
0.000550567
0.000346616
0.00102708
0.000767771
0.000766607
0.00101282
0.000346241
0.000555447
0.00062074
0.00058408
0.000510921
0.000412354
0.00030492
0.000233185
0.000351791
0.000322768
0.000328874
0.000394049
0.000489911
0.000567809
0.000519686
0.000380447
0.00125935
0.000951254
0.000951655
0.00124054
0.000377369
0.000523949
0.000566626
0.000487086
0.000391681
0.000328371
0.000324214
0.000353344
0.000420479
0.000405171
0.000356717
0.00037973
0.000462304
0.000550955
0.000548445
0.000447411
0.00142042
0.00113358
0.00113611
0.0013992
0.000444631
0.000552647
0.000551838
0.0004623
0.000380042
0.000358194
0.000407737
0.000421023
0.000472573
0.000623711
0.000518802
0.000518552
0.000551449
0.000580228
0.000575534
0.000551103
0.0014979
0.0012686
0.00127324
0.00147655
0.000549686
0.000579477
0.000583311
0.000553875
0.000520798
0.000521638
0.000628492
0.000472498
0.000519533
0.000657324
0.000875099
0.00102638
0.0011607
0.00114049
0.000930046
0.000950381
0.00145382
0.00136475
0.00136862
0.00143893
0.000945807
0.000933765
0.00114362
0.00116153
0.00102681
0.000876595
0.000657817
0.000519079
0.000578316
0.000644688
0.000699283
0.000754659
0.000815055
0.000874182
0.000939917
0.00103064
0.00114647
0.00117897
0.00118308
0.00114433
0.00102855
0.000938377
0.000872952
0.000813946
0.000753649
0.000698405
0.000643876
0.000577596
0.000138434
8.42671e-05
0.000184675
0.000142812
0.000153203
0.000163034
0.000175457
0.000190098
0.000198372
0.000205719
0.00020592
0.000198864
0.000190747
0.00017605
0.000163489
0.000153414
0.000143739
0.000209812
8.18276e-05
0.000140375
0.000156587
0.000358693
0.000429471
0.000477726
0.000524895
0.000555385
0.000583805
0.00047009
0.000456673
0.000306911
0.000307858
0.000459904
0.000474038
0.000589234
0.000561385
0.000530711
0.000481695
0.000432175
0.000359254
0.000156081
0.00016396
0.000404649
0.000478282
0.000534591
0.000580965
0.0006009
0.000581191
0.000352147
0.000564758
0.000446869
0.000447712
0.000568421
0.000353129
0.000583869
0.000604591
0.000584613
0.000537211
0.000480175
0.000405217
0.000163823
0.000169651
0.000411642
0.000499656
0.00055675
0.000599138
0.00061506
0.000562389
0.000320012
0.000766287
0.000596681
0.000596799
0.000769405
0.000319348
0.000561522
0.000614803
0.000598688
0.000556766
0.000500196
0.000411339
0.000168715
0.000229799
0.000304729
0.000415877
0.000515321
0.000587182
0.000622039
0.000556093
0.000344914
0.00100895
0.000766563
0.000765494
0.00101103
0.00034345
0.000552792
0.000617998
0.000581718
0.00050917
0.000411071
0.000303804
0.000232479
0.000352291
0.000322858
0.000328645
0.00039393
0.000490851
0.000570005
0.000525737
0.000376484
0.00123719
0.000951602
0.000949079
0.00123803
0.00037455
0.000521765
0.000564657
0.000485471
0.000390408
0.000327797
0.000324252
0.000353269
0.000420844
0.000406014
0.000357115
0.000379527
0.00046315
0.000553524
0.000553684
0.000444344
0.00139639
0.00113605
0.00113204
0.00139623
0.00044214
0.000550961
0.000550453
0.000461082
0.000379177
0.00035805
0.000407844
0.000420759
0.000472697
0.000625257
0.000518644
0.000517671
0.000551189
0.000581424
0.000578243
0.000549346
0.00147488
0.00127316
0.00126804
0.00147299
0.000547482
0.000578241
0.000582196
0.000552696
0.000519765
0.000521001
0.000628257
0.000472049
0.000519485
0.000657367
0.000874906
0.00102347
0.00115746
0.00113795
0.000929444
0.000946072
0.0014388
0.00136856
0.00136318
0.00143637
0.000943369
0.00093184
0.00114191
0.00115927
0.00102447
0.000875371
0.000656775
0.000518466
0.000578114
0.000644318
0.000698746
0.000753849
0.000814069
0.000873059
0.000938605
0.00102885
0.00114445
0.00118305
0.00117901
0.00114202
0.00102662
0.000936702
0.000871477
0.000812607
0.000752424
0.00069734
0.000642948
0.000576806
0.000108519
0.00012268
0.000103221
0.000151797
0.000161123
0.000167387
0.000173788
0.000182085
0.000188242
0.000198966
0.000198845
0.000188134
0.000182022
0.000173636
0.000167072
0.000160411
0.000150416
0.000102675
0.000139208
0.000100223
0.000145599
0.000329277
0.00038633
0.000434219
0.000463065
0.000485133
0.000510978
0.00052533
0.000417122
0.000459338
0.000459863
0.000418343
0.000528546
0.000514816
0.000488656
0.000466119
0.00043561
0.000386924
0.000330031
0.000141305
0.000157611
0.000354037
0.000440216
0.000492002
0.000521355
0.000538555
0.000552182
0.000522448
0.000331442
0.000568292
0.000568376
0.000330966
0.000523063
0.000554314
0.000540811
0.000523591
0.000493959
0.0004414
0.000354082
0.000156301
0.00018028
0.000344239
0.000452876
0.000520047
0.000558166
0.000574836
0.000578898
0.000510326
0.000331628
0.00077025
0.000769356
0.000330278
0.000508365
0.000578388
0.000574543
0.000558
0.000519693
0.000452405
0.000343598
0.000180667
0.000244133
0.000299886
0.000391221
0.000474535
0.000535877
0.000574952
0.000590767
0.000497036
0.000371937
0.00101304
0.00101098
0.000370083
0.000493804
0.0005881
0.000572011
0.000532792
0.000471858
0.000389513
0.000299724
0.000245589
0.000364978
0.000332177
0.000339831
0.000403473
0.000477787
0.000536785
0.000567474
0.000465344
0.000418335
0.00124083
0.00123796
0.000416446
0.000462421
0.00056448
0.000533738
0.000475316
0.000402001
0.000339562
0.000332947
0.000365253
0.000435572
0.000424364
0.000377887
0.000409322
0.000478211
0.00053953
0.000575062
0.000508559
0.000498573
0.00139953
0.00139613
0.000496616
0.000506202
0.000572739
0.000537721
0.000477495
0.000409717
0.000378905
0.00042558
0.000435254
0.000490175
0.00069343
0.000588273
0.00059369
0.000627416
0.000652363
0.000648948
0.000605927
0.000630214
0.0014769
0.00147287
0.000628167
0.000605214
0.00064851
0.000652479
0.00062837
0.000595402
0.000590211
0.000695861
0.000489537
0.000540091
0.000746366
0.00103543
0.00121133
0.00139092
0.00146563
0.0013925
0.00110911
0.000998883
0.00143915
0.00143629
0.000996365
0.00111116
0.0013951
0.00146743
0.00139191
0.00121212
0.00103623
0.000746512
0.000539244
0.000596388
0.000662582
0.000718689
0.000771081
0.000826085
0.000878027
0.000928733
0.000982898
0.00105318
0.00114438
0.00114201
0.00105097
0.000980986
0.0009271
0.000876584
0.000824747
0.000769807
0.000717463
0.000661411
0.000595309
0.000105561
0.00013607
0.000159115
0.000166329
0.000172763
0.000176128
0.000177899
0.000179767
0.000182389
0.000190937
0.000190731
0.000182019
0.000179363
0.000177489
0.000175744
0.000172496
0.000165913
0.000161807
0.000136035
0.000104849
0.00014342
0.00031622
0.000378816
0.000416966
0.000439221
0.000455064
0.000471499
0.000498535
0.000527912
0.000474053
0.000474005
0.000528486
0.000499678
0.000472663
0.000456193
0.000440249
0.000417689
0.000378406
0.000315116
0.000142116
0.000173608
0.000359663
0.000442845
0.000487146
0.00051049
0.000520487
0.000526786
0.000541137
0.000524548
0.000354521
0.000353099
0.000523031
0.000540979
0.000527351
0.000521658
0.000512187
0.00048884
0.000443499
0.000358773
0.000174387
0.000213088
0.000350997
0.000448311
0.000512108
0.00055029
0.000566882