/*--------------------------------*- C++ -*----------------------------------*\
| =========                 |                                                 |
| \\      /  F ield         | OpenFOAM: The Open Source CFD Toolbox           |
|  \\    /   O peration     | Version:  v1912                                 |
|   \\  /    A nd           | Website:  www.openfoam.com                      |
|    \\/     M anipulation  |                                                 |
\*---------------------------------------------------------------------------*/
FoamFile
{
    version     2.0;
    format      ascii;
    class       surfaceScalarField;
    location    "1000";
    object      phi;
}
// * * * * * * * * * * * * * * * * * * * * * * * * * * * * * * * * * * * * * //

dimensions      [0 3 -1 0 0 0 0];
oriented        oriented;


internalField   nonuniform List<scalar> 
11200
(
0.00391347
-0.00783103
0.00391426
0.00520159
-0.0044704
0.00318226
0.00356962
-0.00060388
0.00223581
-0.000320811
0.00248938
0.00140106
-0.00141945
0.000849776
0.00024944
-0.00124891
-0.000159347
-8.9019e-06
-0.000917598
-0.000264759
-6.36299e-05
-0.000656194
-0.000191623
-6.68198e-05
-0.00046162
-0.000112942
-9.93665e-05
0.000268837
-0.000749308
-5.49026e-06
0.000375436
0.000149817
-0.000253652
0.000670855
-0.000221703
-8.22838e-05
0.000968638
-0.000225666
-7.04391e-05
0.0013074
-0.000279864
-6.57124e-05
0.00144627
-0.000154564
1.59224e-05
0.000287139
0.000869939
0.000289105
-0.00371393
0.00245691
0.00154397
-0.00530708
-0.000722567
0.00231565
-0.00397398
-0.00454447
0.00321135
-0.00789908
0.00392507
0.00186484
-0.0115611
0.00186527
0.00297315
-0.00723619
0.00165748
0.00325379
-0.00211591
0.00123153
0.00287779
0.00181008
0.00105576
0.00093074
0.00177074
0.00102749
-0.000813921
0.000949857
0.000637168
-0.00126894
0.000198899
-8.46972e-06
-0.00102706
-0.000245729
-0.000198464
-0.000525537
-0.000309575
-0.000338623
-0.000148087
-0.000609428
-0.000546884
0.000679968
-0.000326938
-0.000375518
0.00107875
-0.000302931
-0.000308712
0.00129318
-0.000249272
-0.000198597
0.000831277
0.000196306
-1.3498e-05
-0.000921282
0.00095012
0.000648106
-0.00285635
0.00177959
0.00102519
-0.00325447
0.00178875
0.00106619
-0.00298585
-0.00223048
0.00123927
-0.00188111
-0.0073101
0.00166085
-0.0116471
0.0018669
0.000945709
-0.0134527
0.000945856
0.00160129
-0.00906962
0.00117779
0.00270459
-0.00429051
0.00107131
0.00360663
-0.000101378
0.00100972
0.00318343
0.00115104
0.0010437
0.00208291
0.00117503
0.000877134
0.000649599
0.000861292
0.000772211
-0.000318271
0.000360068
0.000351426
-0.000347943
6.45591e-05
-0.000313285
-6.22213e-05
-5.60545e-05
-0.000861406
0.000445174
-3.83237e-05
-0.000789421
0.00035474
5.91545e-05
-0.000273141
-0.000634609
0.000367842
0.000373763
-0.00207472
0.000861053
0.000776161
-0.00316238
0.00116771
0.000870248
-0.00356067
0.00114912
0.00102883
-0.00264207
-0.000110506
0.000980674
-0.00157122
-0.00436125
0.00105989
-0.000936952
-0.00912123
0.00117683
-0.013532
0.000947888
0.000394828
-0.0142423
0.000394752
0.000397257
-0.010098
0.00102584
0.000900627
-0.00607103
0.00127694
0.00204524
-0.0027327
0.00148655
0.00264233
-0.000898298
0.00145247
0.00245927
7.10706e-05
0.00128804
0.00182184
0.000399769
0.00109977
0.000912892
0.000452377
0.000805364
0.00013201
0.000485366
0.000367557
6.91445e-06
0.000470663
-0.00040138
-0.000123894
0.000475076
-0.000377397
-0.000945519
0.000483164
0.000401372
-0.0018456
0.000438903
0.000830949
-0.00246944
0.000367695
0.001118
-0.00262116
2.31444e-05
0.00129668
-0.00199064
-0.000933624
0.00145239
-0.000827569
-0.00275423
0.00148069
-0.000353597
-0.00611243
0.00127717
-0.000373297
-0.0101305
0.00102897
-0.0143072
0.000401879
4.85184e-06
-0.0142519
4.60825e-06
-0.000499501
-0.0105422
0.000948376
-0.00069177
-0.0072677
0.00138871
-0.000475135
-0.00473615
0.00178661
-0.000246291
-0.00314492
0.00201802
-7.18856e-05
-0.00204111
0.00193934
1.87645e-05
-0.00137222
0.00168468
-6.98678e-05
-0.000895349
0.0014373
-0.00013397
-0.000641518
0.00119333
-5.04424e-06
-0.000561493
0.000903452
0.00014741
-0.000591115
0.000916074
0.000106138
-0.000691232
0.00121831
4.00029e-05
-0.000953976
0.00146078
0.000136738
-0.00143484
0.00170685
0.00030412
-0.00210284
0.00195904
0.000526216
-0.00318963
0.00203397
0.000746913
-0.0047701
0.00179508
0.000539684
-0.00729971
0.00139441
2.1004e-05
-0.0105684
0.000956483
-0.0143056
1.93155e-05
-0.000298452
-0.0136547
-0.000298797
-0.0011536
-0.0105314
0.000844179
-0.00174868
-0.00798178
0.00130896
-0.00195052
-0.00615597
0.0016215
-0.00194097
-0.00498527
0.00183087
-0.00170392
-0.00416509
0.00188763
-0.00130886
-0.00356641
0.00180048
-0.000839872
-0.00307776
0.00171443
-0.000377415
-0.0027744
0.00167226
1.08322e-05
-0.00261704
0.00166858
0.000408407
-0.00265301
0.0016663
0.000880762
-0.00283423
0.00167216
0.0013537
-0.00314097
0.00171498
0.001746
-0.00362776
0.001801
0.00197783
-0.00422185
0.00188724
0.00198868
-0.00503328
0.0018327
0.00178869
-0.00619479
0.00162455
0.00118925
-0.00801452
0.00131412
0.000324947
-0.0105584
0.000854161
-0.0137014
-0.000279313
-0.000596044
-0.0124623
-0.00059642
-0.00172936
-0.0099827
0.000584398
-0.00253067
-0.00816016
0.000979487
-0.00284848
-0.00699338
0.00115506
-0.002798
-0.0062779
0.00124207
-0.00245053
-0.00580328
0.00129079
-0.00189799
-0.00543544
0.00131658
-0.00120699
-0.00508911
0.00132017
-0.000514705
-0.00482539
0.00135918
2.41041e-05
-0.00460974
0.00145471
0.000560281
-0.00463734
0.00144896
0.00124902
-0.00487285
0.00135038
0.00193727
-0.00513923
0.00131022
0.00248842
-0.00548374
0.00130484
0.00283516
-0.00584892
0.00128023
0.00288593
-0.00631892
0.0012347
0.00256811
-0.00702909
0.00115195
0.00176424
-0.0081912
0.000980375
0.000622856
-0.0100095
0.000592262
-0.0125021
-0.000576631
-0.00100418
-0.0104537
-0.00100457
-0.00240366
-0.00859295
9.46884e-06
-0.00335162
-0.00744963
0.00023719
-0.00371607
-0.00684672
0.000217595
-0.00360417
-0.00653315
0.000143186
-0.00311897
-0.0063664
7.78248e-05
-0.00237313
-0.0062406
5.93169e-05
-0.00147535
-0.00608493
9.80275e-05
-0.000599589
-0.0059122
0.00021113
2.28224e-05
-0.00567819
0.000446146
0.000644224
-0.00569525
0.000436562
0.00151714
-0.00594039
0.00019457
0.00241346
-0.00611459
7.88947e-05
0.00315859
-0.00627028
4.11959e-05
0.0036432
-0.00639554
6.17685e-05
0.00375476
-0.00656086
0.000130151
0.00338929
-0.0068725
0.000208648
0.00243899
-0.00747324
0.000232084
0.00103102
-0.00861544
1.3646e-05
-0.0104846
-0.000986732
-0.00174224
-0.00696897
-0.00174261
-0.00343194
-0.00578398
-0.00111962
-0.00445236
-0.00529514
-0.00113434
-0.00480215
-0.00516322
-0.00133395
-0.00459922
-0.00515648
-0.00157985
-0.00398013
-0.00521762
-0.00176811
-0.0030469
-0.00527365
-0.0019004
-0.00190726
-0.00528482
-0.00193998
-0.00076513
-0.00524096
-0.00181363
2.28029e-05
-0.00512717
-0.00133924
0.000810714
-0.00513524
-0.00134825
0.0019491
-0.00525307
-0.00182605
0.00308752
-0.00529732
-0.00195601
0.00402064
-0.00528651
-0.00191722
0.00463978
-0.00523067
-0.00178432
0.00484249
-0.00516953
-0.00159434
0.00449166
-0.00517605
-0.00134594
0.00346781
-0.00530785
-0.00114187
0.00176883
-0.00579716
-0.00111969
-0.00698715
-0.00172901
-0.00348444
-0.00348478
-0.00552901
-0.00373978
-0.00648591
-0.0043385
-0.00673832
-0.00491103
-0.00640937
-0.00548565
-0.0056074
-0.00601984
-0.0043958
-0.00648553
-0.00284921
-0.0068317
-0.00115271
-0.00693778
2.46561e-05
-0.00630492
0.0011989
-0.00630988
0.00289173
-0.00694624
0.00443869
-0.0068446
0.00565138
-0.00649949
0.00645385
-0.00603342
0.0067824
-0.00549836
0.00652817
-0.00492212
0.00556656
-0.00434659
0.00351155
-0.00374256
-0.00347601
0.00318149
-0.00446998
0.00520272
0.00419795
-0.00203322
0.00419905
0.002933
0.000920319
0.00258065
-7.261e-05
0.00310337
0.00130396
-0.000926162
0.000777149
0.000328109
-0.000754269
-0.000182809
5.42268e-06
-0.000472549
-0.000374761
3.00671e-05
-0.000310304
-0.00021487
-3.23747e-05
-0.000117338
-0.000361511
5.44492e-05
-5.13585e-05
3.65981e-05
-0.00013799
0.000205742
-0.000513555
6.02932e-06
0.000354238
-0.000183114
-6.97125e-05
0.000543621
-0.00024369
-1.51763e-05
0.00083603
-0.000388232
3.09303e-05
0.000977378
-0.000160896
3.53426e-05
2.71861e-05
0.000827513
0.000411146
-0.00313742
0.00304316
0.00166514
-0.00436165
0.000749658
0.00279012
-0.00326883
-0.00219628
0.00431475
-0.00461667
0.00527286
0.00165687
-0.00723559
0.00297399
0.00284801
-0.0044157
0.00284895
0.00324818
-0.000493304
0.0022453
0.00315414
0.00236419
0.00188973
0.00165446
0.00179408
0.00151212
0.000204504
0.000973362
0.000933888
-0.000410228
3.3366e-06
0.000228698
-0.000363654
-0.000331389
-0.000153683
-0.000245786
-0.000390657
-0.000421223
6.11624e-05
-0.000296135
-0.0005283
0.00015707
-0.000335165
-0.000651113
0.000391678
-0.000394337
-0.000333547
0.00043366
-0.000341795
-0.000140446
-0.000210507
1.83519e-05
0.000224726
-0.00168671
0.00101185
0.000951344
-0.00317412
0.00183603
0.00150378
-0.00327139
0.00235801
0.0018485
-0.00288965
-0.000645645
0.0022528
-0.00169584
-0.00457917
0.00284989
-0.00741093
0.00296531
0.00117746
-0.00906894
0.00160174
0.00222503
-0.00651097
0.00222552
0.00335221
-0.00284828
0.00229905
0.00402407
0.000531686
0.00217047
0.00360624
0.00134827
0.0019081
0.00271248
0.00122053
0.00152574
0.00152903
0.000815151
0.00114443
0.000581602
0.000323678
0.00063538
9.62136e-05
-8.35197e-05
-0.000129693
7.02304e-06
-0.0002444
-0.000814633
-8.95811e-05
-0.00023744
-0.000793146
-0.000583575
-8.21957e-05
-8.87253e-05
-0.0015414
0.000329191
0.00066237
-0.00272398
0.00082402
0.00115356
-0.00360507
0.00124275
0.00152056
-0.00400902
0.0013837
0.00188514
-0.00331437
0.000547087
0.00209695
-0.00221504
-0.00293523
0.00225011
-0.00118863
-0.00662545
0.00219667
-0.00922368
0.00157199
0.00102574
-0.0100973
0.000397397
0.00164611
-0.00775183
0.00164628
0.00237707
-0.00448179
0.00217929
0.0032764
-0.00127157
0.00239034
0.00346675
0.000381655
0.00222926
0.00302344
0.00101799
0.00193584
0.00229381
0.00105451
0.00159332
0.00142815
0.000860561
0.00113399
0.000610309
0.000649374
0.000456091
5.72848e-07
0.000436523
-0.000468356
-0.000616917
0.0004395
-0.000432451
-0.00145388
0.000654788
0.00050441
-0.00232306
0.000858755
0.00117194
-0.00304605
0.00104545
0.00162017
-0.00346823
0.0010128
0.00194903
-0.00325113
0.000396973
0.00222204
-0.00232875
-0.00124992
0.00235524
-0.00162169
-0.00451881
0.00215361
-0.00102204
-0.00782519
0.001629
-0.0102216
0.000377731
0.000948446
-0.0105417
-0.000499604
0.00117523
-0.00820553
0.00117516
0.00122606
-0.00520701
0.00206288
0.00145583
-0.00225671
0.00254177
0.00154528
-0.00035227
0.00266271
0.00139924
0.000670025
0.00243455
0.00104727
0.00102579
0.00206751
0.000590333
0.00112312
0.00163247
0.000200402
0.00109522
0.00113939
6.79484e-06
0.00100702
0.00052921
-0.000180449
0.00100288
0.000543323
-0.00056602
0.00108968
0.00117138
-0.00102279
0.00111109
0.00166652
-0.00137804
0.0010064
0.0021017
-0.0015236
0.000651373
0.00246614
-0.0014252
-0.000351801
0.00268424
-0.00118305
-0.00224334
0.00254618
-0.00114777
-0.00521963
0.0020598
-0.000937427
-0.00825598
0.0011768
-0.0106397
-0.000500109
0.000844337
-0.010531
-0.00115389
0.00076637
-0.00804974
0.000766163
0.00038039
-0.00530297
0.00179067
8.81104e-05
-0.00269456
0.0023514
-9.24383e-05
-0.000927679
0.00258682
-0.000151125
0.000112855
0.00250387
-0.000203194
0.000636121
0.00224274
-0.000233066
0.000915388
0.00195187
-0.000186466
0.00100569
0.00171666
1.45974e-05
0.000965473
0.00151109
0.000220914
0.00095228
0.00151249
0.000275612
0.000982465
0.00172588
0.000247247
0.000890527
0.0019645
0.000187808
0.000609716
0.00225728
0.000121184
8.65485e-05
0.00251858
-5.86503e-05
-0.000939952
0.00260045
-0.000344151
-0.00269559
0.00236206
-0.000738163
-0.00530988
0.00179818
-0.000830023
-0.00808923
0.000779087
-0.0106082
-0.00114099
0.000584588
-0.00998245
-0.00172976
0.000244058
-0.0073688
0.000243753
-0.000323512
-0.005059
0.00130283
-0.000687537
-0.00303608
0.00186035
-0.000870037
-0.00162456
0.00212131
-0.00085271
-0.000733843
0.00212032
-0.00074285
-0.000184773
0.00202808
-0.000579858
0.00016878
0.00190413
-0.000336229
0.000296737
0.0018253
2.62586e-05
0.00029243
0.00176614
0.000387143
0.000279246
0.00176179
0.000631271
0.000271542
0.00181751
0.000792338
0.000144593
0.00189511
0.000896064
-0.000207802
0.00201842
0.000906317
-0.000757061
0.00211326
0.000721456
-0.00164191
0.00212118
0.000358577
-0.00304812
0.00186705
-0.000212696
-0.00507023
0.0013117
-0.000567258
-0.00740098
0.000258262
-0.0100411
-0.00171118
9.68025e-06
-0.00859281
-0.00240411
-0.000613208
-0.00612322
-0.000613566
-0.00127372
-0.00442883
0.000267198
-0.00158833
-0.00316849
0.000664284
-0.00162921
-0.00229526
0.000854429
-0.00142871
-0.00168439
0.000827597
-0.00107473
-0.00128058
0.000800988
-0.000670519
-0.000974501
0.000836917
-0.000263624
-0.000813022
0.000913895
2.90563e-05
-0.000596242
0.00104199
0.000320743
-0.000609094
0.00103294
0.000725664
-0.000834101
0.000894896
0.0011268
-0.000992012
0.000813879
0.00147623
-0.0012967
0.000780146
0.00167249
-0.0017008
0.000808737
0.00162907
-0.00231056
0.000841751
0.00131032
-0.00318322
0.000662047
0.000647139
-0.00444463
0.0002692
1.08318e-05
-0.00614764
-0.000603868
-0.00863264
-0.00238477
-0.00111942
-0.00578392
-0.0034324
-0.00221272
-0.00393689
-0.00221308
-0.00298463
-0.00300595
-0.00178569
-0.00326955
-0.00248819
-0.0017297
-0.00312534
-0.00218659
-0.00183313
-0.00269859
-0.00202035
-0.00185933
-0.00208428
-0.00191286
-0.00188288
-0.00137856
-0.00181111
-0.00180959
-0.000676309
-0.0017312
-0.00159825
3.27162e-05
-0.00148558
-0.0011596
0.00073646
-0.00149125
-0.00117055
0.0014337
-0.0017379
-0.00162013
0.00213668
-0.00181706
-0.00183452
0.00274871
-0.00191881
-0.00190769
0.00317316
-0.00202687
-0.00188321
0.00331483
-0.0021938
-0.00185327
0.00302619
-0.00249617
-0.00174484
0.00224733
-0.00301545
-0.00179273
0.00113988
-0.00395031
-0.00221019
-0.00580521
-0.00341704
-0.0037396
-0.00552946
-0.00570813
-0.00570845
-0.00666045
-0.00639237
-0.00690926
-0.00715065
-0.00663053
-0.00795123
-0.0059295
-0.0087415
-0.00486646
-0.00946174
-0.00347497
-0.0100346
-0.00185039
-0.0102939
3.08771e-05
-0.0096722
0.0019069
-0.00967757
0.00352811
-0.0103057
0.00491811
-0.010052
0.00597973
-0.00948022
0.00667875
-0.00875961
0.00695465
-0.00796836
0.00670152
-0.0071655
0.00574182
-0.00640274
0.00376035
-0.00571188
-0.0055211
0.00223496
-0.000603562
0.00357135
0.00257942
0.000920374
0.00293445
0.00129276
0.00257338
0.00129429
-0.000468766
0.00310427
-3.81143e-05
-0.000552526
0.000266077
0.000147735
-0.000211215
-0.000370556
3.78427e-05
4.58014e-05
-0.000422963
0.000198196
7.43195e-05
-0.000297936
0.000220796
-3.67658e-05
-0.000101814
0.00024603
8.07017e-05
-0.000432839
0.000204654
-4.45659e-05
-3.48804e-05
0.000176628
-6.54026e-06
-0.000398533
0.000292463
2.34007e-05
-0.000255079
0.000208914
0.000305048
-0.000430701
0.000181763
0.000657052
-0.000341391
2.42347e-05
0.0004826
0.00041006
0.000174685
-0.00163798
0.00314381
0.00064159
-0.0028385
0.00238614
0.00160439
-0.00236519
0.00072456
0.0031168
-0.000817393
0.00372503
0.00123081
-0.00211509
0.0032549
0.0022444
-0.000493158
0.00324929
0.00265923
0.00174413
0.00266006
0.0026621
0.00253611
0.00245549
0.00147391
0.00151212
0.0014558
0.000515592
0.000643417
0.000881211
8.11988e-05
-0.000175576
0.000418471
3.35937e-05
-0.000496723
0.000107968
0.000108306
-0.000481964
-0.000118403
-7.14078e-05
-0.000356454
-0.000420176
-2.49751e-05
-0.000385173
-0.000339651
-0.000128224
-0.000488915
-0.000141288
-0.000123796
-0.000513956
0.000116579
-0.000594063
-0.000151809
0.000415992
-0.00158793
0.000710964
0.000892299
-0.00277902
0.00162583
0.00147868
-0.00267134
0.00270056
0.00218392
-0.0022947
0.0016167
0.00264551
-0.00127407
-0.000701098
0.00325486
-0.00238892
0.00326272
0.00107078
-0.00428969
0.00270581
0.00229848
-0.00284792
0.00335307
0.00343111
-0.000521219
0.00343182
0.00388419
0.00111173
0.00314173
0.00350143
0.00127912
0.00252429
0.00268509
0.00102748
0.00195958
0.00165944
0.000608636
0.00139013
0.000822228
0.000141538
0.000834467
0.000290755
-0.000237223
0.000162049
-6.27911e-06
-0.000395487
-0.000475508
-0.000326306
-0.000412024
-0.00044443
-0.000865051
-0.000246646
0.000210149
-0.00171202
0.000130259
0.000866015
-0.00273317
0.000612857
0.00141021
-0.00353262
0.00106185
0.00196909
-0.00390183
0.00135983
0.00252031
-0.00338772
0.0012208
0.00306254
-0.00227702
-0.000607444
0.0033635
-0.00107232
-0.00300762
0.00329847
-0.00451296
0.00262368
0.0012767
-0.00607041
0.000901706
0.00217901
-0.0044814
0.00237774
0.00316908
-0.00250163
0.00316961
0.00385183
-0.000446375
0.00326557
0.00380187
0.000664944
0.00289345
0.00324322
0.00109532
0.00242731
0.00245585
0.00104053
0.00195032
0.0015683
0.000769356
0.00139446
0.00071788
0.000432731
0.000637896
-6.59397e-06
0.000129269
-0.000265699
-0.000747163
0.000125439
-0.00022646
-0.00161001
0.000426495
0.000695987
-0.00250526
0.000753332
0.00144491
-0.00329031
0.00102167
0.00199669
-0.00383522
0.00109194
0.00246389
-0.0038615
0.000696345
0.00291175
-0.00313302
-0.000394666
0.00324216
-0.00215816
-0.00254595
0.00311721
-0.00126905
-0.00458681
0.00231905
-0.00622409
0.000819783
0.00138868
-0.00726729
-0.000691258
0.00206284
-0.00520665
0.00122637
0.00245523
-0.00328665
0.00245545
0.00274217
-0.00119365
0.00300196
0.00269456
0.000357458
0.00301781
0.00230449
0.00120306
0.00271727
0.00172668
0.00139632
0.00229045
0.00108723
0.00127169
0.00177038
0.000488519
0.00104454
0.00112802
1.53421e-05
0.000844388
0.000289998
-0.000461805
0.00084504
0.000303534
-0.00107047
0.00104258
0.00116539
-0.00172279
0.00125821
0.00181458
-0.0023101
0.00137389
0.00233701
-0.00270096
0.00118686
0.00276208
-0.00273757
0.000365598
0.00305151
-0.00242824
-0.00117104
0.00301312
-0.00204304
-0.00331061
0.00243917
-0.00137793
-0.00528107
0.00120587
-0.0073773
-0.000724901
0.00130903
-0.00798149
-0.00174869
0.00179077
-0.00530265
0.000380421
0.00179512
-0.00329554
0.00179512
0.00162546
-0.00121415
0.00254143
0.0013722
0.00036351
0.00283402
0.00108554
0.00126453
0.00272936
0.000754083
0.0015506
0.00242063
0.000419336
0.001541
0.00201803
0.00015035
0.00143886
0.00159266
1.6123e-05
0.00135897
0.00113244
-0.000110701
0.0013555
0.00113024
-0.000373813
0.00143059
0.00160174
-0.00071345
0.00152777
0.00203489
-0.00105585
0.00153097
0.00244265
-0.00135149
0.00124776
0.00275321
-0.00160466
0.000363599
0.00285545
-0.00176757
-0.00120234
0.00255612
-0.00176854
-0.00331337
0.00180176
-0.00129611
-0.00536324
0.000388677
-0.00806743
-0.00174709
0.000979581
-0.00815998
-0.0025309
0.00130305
-0.00505878
-0.000323671
0.00114791
-0.00298541
0.00114773
0.000838776
-0.00100109
0.00195628
0.000527659
0.000429013
0.00236681
0.000324892
0.00118295
0.0024047
0.000179213
0.00145654
0.00226809
5.93131e-05
0.00150315
0.00206225
-1.84094e-06
0.00145597
0.00186991
2.12105e-05
0.00145334
0.0016493
5.08984e-05
0.00144796
0.00164004
-3.14657e-06
0.00144414
0.00185816
-0.000125261
0.00149113
0.00205382
-0.000279598
0.0014407
0.00226285
-0.000490772
0.00116751
0.00240445
-0.000803637
0.000423735
0.00237367
-0.00111336
-0.000994495
0.00196869
-0.00127341
-0.00300262
0.00116077
-0.000963865
-0.00510598
-0.000308808
-0.0082241
-0.00251857
0.000237274
-0.00744953
-0.00335197
0.00026748
-0.00442875
-0.00127401
6.58716e-05
-0.00258238
6.55471e-05
-8.26029e-05
-0.00100437
0.00081577
-0.000134697
9.22399e-05
0.00124298
-0.000107458
0.000645485
0.00133753
-3.47301e-05
0.000864844
0.00131974
4.93304e-05
0.00096319
0.00129259
0.00012364
0.000986829
0.00130854
2.71225e-05
0.0012515
0.00134012
-6.75458e-05
0.00124398
0.00133131
8.11659e-06
0.000972931
0.00129011
8.98519e-05
0.000949499
0.00127338
0.000158243
0.000850251
0.00130179
0.000180012
0.000630628
0.00132343
0.000126517
8.05572e-05
0.00123798
-2.19201e-05
-0.00100829
0.000823817
-0.000231397
-0.00259901
7.45906e-05
-0.000219543
-0.00445851
-0.00126364
-0.00749177
-0.00333694
-0.00113425
-0.00529509
-0.0044528
-0.00178542
-0.00300593
-0.00298502
-0.00213885
-0.00187568
-0.00213923
-0.00212183
-0.00116583
-0.00158555
-0.00176209
-0.000720917
-0.00138006
-0.00125928
-0.000430912
-0.00128614
-0.000766165
-0.000268771
-0.00124281
-0.000339411
-0.00012301
-0.00115062
-2.54466e-05
-6.67309e-06
-0.000919237
3.40727e-05
0.000531682
-0.000499872
9.49995e-05
0.000524488
-0.000512535
0.000409925
-1.31936e-05
-0.000949423
0.000834222
-0.000128287
-0.0011815
0.00132227
-0.000273678
-0.00127226
0.00181863
-0.000436501
-0.00131289
0.0021715
-0.000726537
-0.0013995
0.00218568
-0.00117084
-0.00159693
0.00182176
-0.00188394
-0.00214438
0.00115395
-0.00301941
-0.00298199
-0.00531593
-0.0044393
-0.00433839
-0.00648637
-0.00639211
-0.00666085
-0.00732998
-0.00733033
-0.00751854
-0.00812807
-0.00719909
-0.00899176
-0.00647934
-0.00989236
-0.00542354
-0.0107865
-0.00402218
-0.0115592
-0.00230656
-0.0120165
3.49721e-05
-0.0114823
0.00236825
-0.0114866
0.00407987
-0.0120307
0.00547827
-0.0115788
0.00653116
-0.010807
0.00724736
-0.0099125
0.00756281
-0.00901055
0.00736969
-0.00814345
0.0064241
-0.00734137
0.00435769
-0.00666523
-0.00647952
0.00140024
0.0024898
-0.000318424
0.00130193
0.00310292
-6.98489e-05
-4.26008e-05
0.00310405
-0.000464944
-0.000295091
0.000501795
-0.00028665
5.40694e-05
-0.000333908
0.000133697
0.000303265
-0.000524535
0.000315603
0.000458719
-0.000449862
0.000495957
0.000424774
-0.000330276
0.000599759
0.000259602
-0.000263477
0.00067378
-7.14432e-06
-0.000208725
0.00067841
-0.000252568
-0.00022671
0.000661905
-0.000434053
-0.000242518
0.000713329
-0.000478605
-0.000344896
0.000599669
-0.000319493
-0.000473317
0.00049572
-3.30366e-05
-0.000546856
0.000283648
0.000274888
-0.000285658
0.000151181
-0.000657466
0.00184617
-0.000272794
-0.00169303
0.00313363
-0.000493873
-0.00157731
0.00303154
-3.05428e-05
0.00242555
-0.000277895
0.00105521
0.00180955
0.00288029
0.00188884
0.00236351
0.00315534
0.00245445
0.00253565
0.00266301
0.00185239
0.001706
0.00185357
0.00101445
0.0008904
0.0010704
0.000498801
0.000127669
0.000746323
0.000354479
-0.000412488
0.000533348
0.000342674
-0.000622187
0.000410672
0.000248498
-0.00054795
0.000274346
-5.43951e-05
-0.00040866
8.0498e-05
-0.000315076
-0.000415651
0.000113738
-0.000439623
-0.000568304
0.000310434
-0.000465841
-0.000645092
0.000443244
-0.000664756
-0.000429791
0.000570902
-0.00123924
0.000131298
0.000787913
-0.00211774
0.00094805
0.00112286
-0.00220433
0.002007
0.00210945
-0.00188224
0.00268535
0.00277154
-0.0010974
0.00231764
0.00318381
0.00169279
0.00289797
0.00100908
-0.000101557
0.00360811
0.00216981
0.000531627
0.00402492
0.003141
0.00111159
0.00388492
0.00337721
0.00123344
0.00337801
0.0030469
0.00104762
0.00269734
0.00234028
0.00074063
0.00205351
0.00150898
0.000337609
0.00147312
0.000827456
-9.10552e-05
0.000985782
0.000357799
-0.000396438
0.000483856
-2.9767e-05
-0.000495082
4.55253e-07
-0.000420578
-0.000507433
3.99868e-05
-0.000896444
-0.000422903
0.000541734
-0.00158014
-0.000126887
0.00103186
-0.0024059
0.000297906
0.00150821
-0.00310098
0.000712636
0.00208269
-0.00340726
0.00105636
0.00271814
-0.00309018
0.00136105
0.00339129
-0.00212864
0.00119364
0.0038936
-0.000999613
0.000474288
0.00401272
-0.000238621
0.00355538
0.00148611
-0.00273247
0.00204723
0.00238991
-0.00127123
0.00327755
0.00326505
-0.000446284
0.00385255
0.00371661
0.000330205
0.0037172
0.00360618
0.00082426
0.00322717
0.00309374
0.000999398
0.00268113
0.00235672
0.000872268
0.00215346
0.00151142
0.000572092
0.00157752
0.00069356
0.000180783
0.000880123
-1.48704e-05
-0.000176449
0.000126295
-0.000731538
-0.000184171
0.000168918
-0.00156106
0.000159628
0.000944001
-0.00241396
0.000533905
0.00163742
-0.00315586
0.00082284
0.00221376
-0.00366467
0.000949766
0.00273554
-0.00376375
0.000797525
0.00326959
-0.00326562
0.000362141
0.00374286
-0.00237068
-0.000430311
0.00384617
-0.00147716
-0.00133396
0.00323377
-0.00285517
0.00195914
0.0017864
-0.00473618
-0.000473393
0.00254156
-0.00225648
0.00145696
0.00300169
-0.00119351
0.00274273
0.00323705
-0.000140617
0.00323744
0.00313447
0.000752603
0.00319204
0.002708
0.00127327
0.00287003
0.00209289
0.00133646
0.00244191
0.0014039
0.00110278
0.00192944
0.000697825
0.000738564
0.00127766
1.88603e-05
0.000369439
0.000425063
-0.000668143
0.000365818
0.000442212
-0.0013913
0.000731188
0.00131779
-0.00209824
0.00107857
0.00197718
-0.00272656
0.0012971
0.00249116
-0.00316165
0.00123104
0.00291587
-0.00326688
0.000726199
0.00322801
-0.00301196
-0.000139335
0.0032596
-0.00253401
-0.0012074
0.00273826
-0.00177627
-0.00231271
0.00142683
-0.00483817
-0.000518234
0.00162147
-0.00615596
-0.00195008
0.00235136
-0.0026944
8.87745e-05
0.00254137
-0.00121401
0.00162578
0.00247603
-1.00203e-05
0.00247622
0.00226826
0.0009605
0.00283392
0.00192827
0.00155435
0.0027884
0.00148736
0.00167346
0.00252493
0.000995109
0.00149121
0.00212242
0.000499998
0.00120656
0.00162064
2.26111e-05
0.000991608
0.000988737
-0.000451636
0.000987421
0.000983734
-0.00094766
0.00120017
0.00162922
-0.00144964
0.00147599
0.00213964
-0.0019039
0.00164774
0.00254631
-0.00225638
0.00152727
0.00280943
-0.00247074
0.000944613
0.00285134
-0.00252998
-1.45094e-05
0.00249047
-0.00233493
-0.00123663
0.00163586
-0.00160673
-0.00274965
9.73143e-05
-0.00623996
-0.00195213
0.00115507
-0.00699337
-0.00284845
0.00186045
-0.003036
-0.000687308
0.0019564
-0.00100096
0.00083883
0.0017541
0.00039455
0.00175405
0.0015264
0.0012405
0.0023145
0.00129696
0.00169703
0.00249149
0.00103075
0.00177328
0.0024346
0.000706094
0.0016416
0.00223671
0.000354439
0.00145145
0.00197697
2.4683e-05
0.00137552
0.00159547
-0.000298702
0.00136872
0.00158236
-0.000645819
0.00144149
0.00196406
-0.00097543
0.00163023
0.00222918
-0.00125198
0.00175585
0.00243123
-0.00149123
0.00167895
0.00249194
-0.00172344
0.00122977
0.00232062
-0.00192436
0.00038803
0.00176694
-0.0018311
-0.00102572
0.000856417
-0.00113731
-0.00308081
-0.000671668
-0.00705663
-0.00283936
0.000217617
-0.00684671
-0.00371626
0.000664481
-0.00316847
-0.00158843
0.00081608
-0.0010043
-8.27619e-05
0.000778546
0.000469502
0.000778276
0.000767714
0.00115386
0.00134031
0.000782649
0.00142516
0.00159432
0.000763991
0.00145499
0.00165651
0.000668999
0.00140958
0.00161943
0.000479849
0.00136286
0.00158611
3.42328e-05
0.00164561
0.0015155
-0.000413157
0.001644
0.00150326
-0.000603911
0.00135635
0.00156582
-0.000703378
0.00140134
0.00160153
-0.000728519
0.00144108
0.00164147
-0.000719824
0.00141058
0.00158287
-0.000733283
0.00114301
0.00133793
-0.000768997
0.000459846
0.00078739
-0.000626087
-0.00102571
-6.87495e-05
-0.000197782
-0.00319638
-0.00157679
-0.00688743
-0.00370418
-0.00133393
-0.00516321
-0.00480249
-0.00172953
-0.00248819
-0.00326987
-0.00158523
-0.00116582
-0.00212214
-0.00120358
-0.000293934
-0.00120394
-0.00081506
0.000226328
-0.000841269
-0.000440825
0.000460781
-0.000696287
-0.000130899
0.000577826
-0.00067593
8.12103e-05
0.000723127
-0.000676672
0.000188158
0.000889228
-0.000552951
3.53357e-05
0.00154776
-0.000249563
-0.000114052
0.00153975
-0.000259213
-3.20863e-06
0.000875356
-0.000579569
0.000206908
0.0007174
-0.00070798
0.000508363
0.000574312
-0.000707264
0.00087393
0.000456043
-0.000724246
0.00125663
0.00022131
-0.000860836
0.00163307
-0.000299116
-0.00121479
0.00176446
-0.00117299
-0.00212892
0.0013535
-0.00250011
-0.00326774
-0.00518246
-0.00479107
-0.00491099
-0.00673873
-0.00715048
-0.00690968
-0.00812778
-0.00751895
-0.00827475
-0.00827513
-0.00790143
-0.00913886
-0.00718394
-0.0101492
-0.00615558
-0.0112372
-0.00472793
-0.0122639
-0.00284992
-0.0130054
4.01845e-05
-0.0128248
0.00291929
-0.012826
0.0047873
-0.0130235
0.00621014
-0.0122844
0.00723514
-0.0112578
0.00794839
-0.0101699
0.00831667
-0.00915768
0.00816439
-0.00829047
0.00717978
-0.00752996
0.0049289
-0.00691472
-0.00673325
0.000248099
0.000854508
-0.00142048
0.00032378
0.000779794
-0.00092589
0.000141566
0.000267594
-0.000550986
0.000126439
-0.000332316
6.00439e-05
0.000394574
-0.000534026
0.000399864
0.000634997
-0.000560142
0.000636113
0.000755648
-0.000453379
0.000832961
0.000689579
-0.000352724
0.00101729
0.000436367
-0.000274435
0.00121042
-4.61523e-06
-0.000235464
0.00135227
-0.000452997
-0.000240524
0.00135413
-0.000709931
-0.00026893
0.00123928
-0.000782044
-0.000362468
0.00103409
-0.000659313
-0.000476801
0.000849207
-0.000420472
-0.000596961
0.000640839
-0.00013502
-0.000564558
0.000429172
-0.000162567
-0.000284889
3.88113e-05
-0.000406869
0.000407542
-0.000657776
-0.00028985
0.000827934
-0.000975841
0.000875653
-0.00144359
0.0010269
0.00177099
0.000936831
0.00151101
0.00179402
0.00165585
0.00145428
0.00151207
0.00147455
0.0010688
0.000890211
0.00101625
0.000693797
0.000215619
0.000695863
0.000536648
-0.0003115
0.000654611
0.0005387
-0.000599522
0.00067934
0.000538582
-0.000666091
0.000723545
0.000368574
-0.000563771
0.000737641
-5.83488e-05
-0.000417256
0.000688667
-0.000470533
-0.000426565
0.000712578
-0.00062904
-0.000583134
0.000783241
-0.000624568
-0.000693102
0.000769109
-0.000616715
-0.000645133
0.000730757
-0.000763876
-0.000369828
0.000707403
-0.001125
0.000155444
0.000763359
-0.00148817
0.000949529
0.00123765
-0.00151985
0.00161974
0.00159076
-0.00103981
0.00182251
0.00170907
0.00175768
0.000976044
0.00104323
0.00115024
0.00318547
0.00190739
0.00134782
0.00360731
0.00252346
0.00127879
0.00350242
0.00269646
0.00104744
0.00304789
0.0024261
0.000756166
0.00242703
0.00187936
0.000434721
0.00185372
0.00127214
6.45903e-05
0.00141653
0.000771957
-0.000283623
0.00110349
0.000370487
-0.000504023
0.000826742
-4.1099e-05
-0.000543314
0.000538756
-0.000446464
-0.0005545
0.000573938
-0.000844251
-0.000529709
0.000886378
-0.00133361
-0.000327702
0.00115582
-0.00192798
-9.37637e-07
0.00145819
-0.00246378
0.000360211
0.0018882
-0.00273389
0.000690677
0.0024528
-0.00254222
0.00105646
0.00309255
-0.00190862
0.0013469
0.00353275
-0.00104368
0.0013549
0.00361526
0.00110017
0.00316898
0.00145203
-0.00089865
0.00264479
0.00222865
0.000381403
0.00346823
0.00289283
0.00066481
0.00380282
0.00322656
0.000824177
0.00360689
0.00314807
0.000913146
0.00314868
0.00274111
0.000881723
0.00264106
0.00210291
0.000700538
0.00215593
0.0013521
0.000383698
0.00166132
0.000606939
-9.18855e-06
0.00113125
-2.30411e-05