/*--------------------------------*- C++ -*----------------------------------*\
| =========                 |                                                 |
| \\      /  F ield         | OpenFOAM: The Open Source CFD Toolbox           |
|  \\    /   O peration     | Version:  v1912                                 |
|   \\  /    A nd           | Website:  www.openfoam.com                      |
|    \\/     M anipulation  |                                                 |
\*---------------------------------------------------------------------------*/
FoamFile
{
    version     2.0;
    format      ascii;
    class       volVectorField;
    location    "1000";
    object      U;
}
// * * * * * * * * * * * * * * * * * * * * * * * * * * * * * * * * * * * * * //

dimensions      [0 1 -1 0 0 0 0];


internalField   nonuniform List<vector> 
4000
(
(0.0101788 -0.0273588 0.0101801)
(0.019057 -0.0161772 0.00882669)
(0.0207125 -0.00544481 0.00719573)
(0.0100971 0.00528615 0.00509663)
(-0.0100377 -0.00101653 0.000488358)
(-0.00447023 -0.0021396 -0.000167165)
(-0.00471045 -0.000827443 -0.000493075)
(-0.00292449 -0.000653522 -0.000591158)
(-0.00172314 -0.000622026 -0.000473557)
(-0.00117024 -0.00249649 -0.00222409)
(0.000811431 -0.000358909 -0.00072834)
(0.00258251 -0.000938442 -0.000771437)
(0.00313641 -0.000645747 -0.000514421)
(0.00500137 -0.000837884 -0.000443245)
(0.00462869 -0.00210669 -9.77961e-05)
(0.0102704 -0.000918156 0.000552084)
(-0.0107849 0.00502136 0.00535877)
(-0.0211564 -0.00581707 0.00728411)
(-0.0194106 -0.0164844 0.00885644)
(-0.0103069 -0.0276231 0.0101821)
(0.00438456 -0.0398762 0.0043848)
(0.00980401 -0.0231012 0.00400467)
(0.0133571 -0.00265442 0.00294473)
(0.0135562 0.0108683 0.00295427)
(0.00865468 0.00767499 0.00280529)
(-0.000426674 0.00172404 0.00141521)
(-0.00594355 -0.00156195 -0.000573602)
(-0.00447825 -0.00141349 -0.000947784)
(-0.00282647 -0.000678738 -0.00142757)
(-0.00172381 -0.00237297 -0.00254902)
(0.000755065 -0.000123972 -0.00160858)
(0.00378913 -0.000974934 -0.001408)
(0.004646 -0.00150496 -0.000971084)
(0.00601854 -0.00161423 -0.000605317)
(0.000460502 0.00169232 0.00142367)
(-0.00848118 0.00768436 0.00280531)
(-0.0136458 0.0107707 0.00299269)
(-0.0133012 -0.00320381 0.00296286)
(-0.0099123 -0.0234135 0.00400401)
(-0.00439663 -0.0402005 0.00439767)
(0.00219042 -0.0515559 0.00219004)
(0.00510585 -0.0338575 0.00272744)
(0.00750137 -0.0135992 0.00248249)
(0.0141646 0.00475527 0.00231363)
(0.0145031 0.00709946 0.00257878)
(0.010858 0.00557685 0.0022461)
(0.00615565 0.00328655 0.00211963)
(-0.000567968 -0.000194503 0.000635442)
(-0.00218921 -0.00168303 -0.00176607)
(-0.000858602 -0.00306557 -0.00328555)
(0.000943063 -0.00152919 -0.00313924)
(0.00246212 -0.00162674 -0.00175388)
(0.000604848 -0.000171354 0.000654514)
(-0.00615149 0.00329918 0.00212032)
(-0.0108172 0.00559171 0.00222555)
(-0.0143386 0.00714547 0.00255064)
(-0.0139722 0.00472137 0.00226558)
(-0.00724959 -0.0139503 0.00246838)
(-0.00507292 -0.0341114 0.00273017)
(-0.0021484 -0.0518994 0.00221876)
(0.00106272 -0.0561594 0.0010619)
(0.00189712 -0.0389397 0.00242125)
(0.00130416 -0.0211157 0.0030808)
(0.00576887 -0.00615509 0.00417612)
(0.0102441 0.00159206 0.00428767)
(0.0110097 0.00421434 0.00384204)
(0.00891389 0.00409332 0.00339326)
(0.00563362 0.00321188 0.00259396)
(0.00183156 0.00251084 0.0012954)
(-0.000509335 0.00180234 -0.00145489)
(0.000596761 0.00197987 -0.00133674)
(-0.00193633 0.00258766 0.00142189)
(-0.00574505 0.00326401 0.00266818)
(-0.00900348 0.00409121 0.00344998)
(-0.0110027 0.00416282 0.00387925)
(-0.0100686 0.00153511 0.0043168)
(-0.00549308 -0.00617104 0.00419722)
(-0.00104497 -0.0213129 0.00309171)
(-0.00178715 -0.0390944 0.00243289)
(-0.000996175 -0.0564466 0.00110951)
(0.000264123 -0.0576602 0.000263003)
(-0.000475713 -0.0416871 0.00214514)
(-0.00338074 -0.0271495 0.00296731)
(-0.00231502 -0.0155372 0.00423584)
(-0.00157873 -0.00865853 0.00527481)
(-0.000648953 -0.00366426 0.0055367)
(0.000209066 -0.000742973 0.00503165)
(7.47797e-05 0.000978124 0.00455723)
(-0.000418908 0.00194296 0.00400037)
(-0.000588157 0.00227669 0.00314608)
(0.000515464 0.00220544 0.00323469)
(0.000536451 0.00179189 0.00408288)
(0.000153122 0.000764557 0.00460307)
(4.28441e-05 -0.00101961 0.00506567)
(0.000940235 -0.00398422 0.00556281)
(0.00175121 -0.00885397 0.00530105)
(0.00254319 -0.0156747 0.00425131)
(0.00357352 -0.0272812 0.00297875)
(0.000611113 -0.0417901 0.00216068)
(-0.000188103 -0.0578882 0.000327446)
(-0.000470808 -0.0563278 -0.000472093)
(-0.00228566 -0.0425972 0.00151644)
(-0.00673285 -0.0309198 0.00193279)
(-0.00747107 -0.0222649 0.002349)
(-0.00810301 -0.0167019 0.00261719)
(-0.00744076 -0.0129255 0.0027779)
(-0.00614224 -0.0103543 0.00282336)
(-0.00434958 -0.00827452 0.0029174)
(-0.0023456 -0.00709669 0.00313275)
(-0.000693135 -0.00666182 0.00353209)
(0.000798746 -0.00677834 0.00349211)
(0.00249233 -0.0073334 0.00307529)
(0.00452351 -0.00853736 0.00285318)
(0.00631761 -0.0106033 0.00276248)
(0.00759706 -0.0131461 0.0027232)
(0.00824687 -0.0168931 0.00258139)
(0.00763209 -0.0224169 0.00232802)
(0.0068864 -0.0310519 0.00192647)
(0.00241896 -0.0427054 0.0015274)
(0.000552647 -0.0565302 -0.000403412)
(-0.00141838 -0.0530551 -0.00141964)
(-0.00397322 -0.0417851 0.000248968)
(-0.00953235 -0.0330356 1.34184e-05)
(-0.010979 -0.0271236 -0.000404058)
(-0.0117085 -0.0233979 -0.000934259)
(-0.010708 -0.0208175 -0.0014486)
(-0.00886179 -0.0188513 -0.0018171)
(-0.00632336 -0.017163 -0.00197351)
(-0.00327927 -0.0160189 -0.00176886)
(-0.000872643 -0.0152608 -0.00104289)
(0.00106585 -0.0153837 -0.00107601)
(0.00345412 -0.0162334 -0.00182086)
(0.00648389 -0.0173936 -0.00204002)
(0.00901478 -0.0190771 -0.00188011)
(0.0108573 -0.0210316 -0.00150318)
(0.0118566 -0.0235847 -0.000978384)
(0.0111309 -0.0272805 -0.000434558)
(0.00967815 -0.0331679 -6.90761e-06)
(0.0041073 -0.0418954 0.00025017)
(0.00150128 -0.0532293 -0.00135798)
(-0.00293516 -0.0467653 -0.00293637)
(-0.00617739 -0.0382533 -0.00188312)
(-0.0125981 -0.0324584 -0.00272485)
(-0.0144851 -0.0290906 -0.00376371)
(-0.0151184 -0.0271806 -0.00482171)
(-0.0137184 -0.02604 -0.00580521)
(-0.011179 -0.0251857 -0.0066113)
(-0.00784346 -0.0243088 -0.00715558)
(-0.00389029 -0.0235489 -0.00716848)
(-0.0010173 -0.0226938 -0.00626135)
(0.00120232 -0.0227767 -0.00627629)
(0.00406198 -0.0236923 -0.00719268)
(0.00800548 -0.0244634 -0.00719891)
(0.0113386 -0.0253389 -0.00666126)
(0.0138756 -0.0261882 -0.0058535)
(0.0152738 -0.0273193 -0.00486441)
(0.0146393 -0.0292171 -0.00379686)
(0.0127456 -0.0325721 -0.00274994)
(0.00631218 -0.038356 -0.00188872)
(0.00301811 -0.0469088 -0.0028845)
(-0.00569174 -0.0348816 -0.00569291)
(-0.0100132 -0.029318 -0.00524658)
(-0.0168828 -0.0265942 -0.00642735)
(-0.0189535 -0.0255811 -0.00774353)
(-0.0193041 -0.0253208 -0.00903809)
(-0.0174705 -0.0254569 -0.0101704)
(-0.0142943 -0.025635 -0.0111194)
(-0.0101141 -0.0256112 -0.0117918)
(-0.00502343 -0.0253253 -0.0119103)
(-0.00143054 -0.024583 -0.0107702)
(0.00161839 -0.0246253 -0.0107766)
(0.00519552 -0.0253973 -0.0119229)
(0.0102767 -0.0256861 -0.0118236)
(0.0144563 -0.0257116 -0.011159)
(0.0176329 -0.0255342 -0.0102108)
(0.0194663 -0.0253971 -0.00907573)
(0.0191144 -0.0256552 -0.00777571)
(0.0170358 -0.026666 -0.00645157)
(0.0101467 -0.0293913 -0.00525452)
(0.00577602 -0.0349786 -0.0056513)
(-0.0111121 -0.0209384 -0.0111133)
(-0.0185229 -0.0164836 -0.0123321)
(-0.025108 -0.014685 -0.0145338)
(-0.0269439 -0.0140089 -0.01654)
(-0.0268111 -0.0136052 -0.0185153)
(-0.0244042 -0.0132595 -0.0203459)
(-0.0203226 -0.0127266 -0.0219664)
(-0.0147795 -0.0119094 -0.0232154)
(-0.00771144 -0.0108477 -0.0236734)
(-0.0025441 -0.00981997 -0.0215105)
(0.00274244 -0.00986943 -0.021522)
(0.00788216 -0.010901 -0.0236917)
(0.0149489 -0.0119527 -0.0232536)
(0.0204967 -0.012765 -0.0220111)
(0.0245819 -0.0132957 -0.0203907)
(0.0269892 -0.0136404 -0.0185577)
(0.0271185 -0.0140433 -0.0165777)
(0.0252713 -0.0147198 -0.0145627)
(0.0186583 -0.0165208 -0.0123445)
(0.011202 -0.0209913 -0.0110822)
(0.00882534 -0.0161762 0.0190595)
(0.0159246 -0.00786106 0.0159272)
(0.016654 7.23974e-05 0.0107941)
(0.00827561 0.00881315 0.00645227)
(-0.00736089 -0.00187572 0.00145309)
(-0.00234428 -0.00326805 2.15991e-05)
(-0.00293433 -0.00135445 -0.000145606)
(-0.000976238 -0.000417383 -0.000255857)
(-0.00159332 -0.00160445 -0.000468511)
(-0.000320654 -0.00109495 -0.000519179)
(0.00118776 -0.00265481 -0.000189057)
(0.000606117 -0.000406365 0.000174551)
(0.0015639 -0.000489206 -0.000275373)
(0.00325054 -0.00142818 -9.75214e-05)
(0.00255855 -0.00328271 0.000159875)
(0.007737 -0.00167016 0.00173193)
(-0.00919603 0.0083976 0.00736596)
(-0.0173889 -0.000541847 0.0113425)
(-0.0164096 -0.00841351 0.0161739)
(-0.0090247 -0.0166648 0.0192253)
(0.0040039 -0.023099 0.00980521)
(0.00909798 -0.0112939 0.00909984)
(0.0133452 0.00475311 0.00721644)
(0.013351 0.0133846 0.00608816)
(0.0104812 0.00808984 0.00528442)
(0.00390576 0.00274569 0.00354885)
(-0.00215589 -0.00214433 0.000425239)
(-0.00154799 -0.0020877 -0.000796359)
(-0.00133359 -0.00172844 -0.00165276)
(-0.000251976 3.99877e-05 -0.0027729)
(0.00035314 -0.00133088 -0.00203041)
(0.00126184 -0.00138585 -0.00143445)
(0.00161703 -0.00216203 -0.000780777)
(0.00218222 -0.00215132 0.000406836)
(-0.00408879 0.00289222 0.00361332)
(-0.0104332 0.00821094 0.00528174)
(-0.0136025 0.0132927 0.00607522)
(-0.0133767 0.00399989 0.00724759)
(-0.00931188 -0.012035 0.00915175)
(-0.00408815 -0.0238045 0.00984476)
(0.00272723 -0.0338548 0.00510587)
(0.00682952 -0.0231496 0.00683012)
(0.0109148 -0.0078663 0.0065749)
(0.0157326 0.0063443 0.00619497)
(0.0161112 0.00695063 0.00587371)
(0.0128809 0.00510062 0.00486062)
(0.00888995 0.00272331 0.00394016)
(0.00373771 -4.9622e-05 0.00221189)
(0.000726514 -0.0017479 -0.000713339)
(4.02748e-05 -0.00168918 -0.00348068)
(5.54496e-05 -0.00188141 -0.00337026)
(-0.000712303 -0.00178812 -0.000615686)
(-0.00380973 -3.64802e-05 0.00227618)
(-0.00894858 0.00278107 0.00394657)
(-0.0129136 0.00522869 0.00482725)
(-0.0160544 0.00712429 0.00578722)
(-0.0156576 0.00637996 0.00600477)
(-0.0107492 -0.00832131 0.00649135)
(-0.00687885 -0.0237022 0.00682699)
(-0.00275136 -0.0345317 0.0051189)
(0.00242147 -0.0389369 0.00189622)
(0.00587674 -0.0292549 0.00587637)
(0.00726484 -0.0154574 0.00724694)
(0.0115517 -0.00235341 0.00779337)
(0.0143882 0.00355916 0.00732175)
(0.013481 0.00483822 0.0064652)
(0.0108569 0.00407166 0.00543356)
(0.00751294 0.00275248 0.00392086)
(0.00394237 0.00138724 0.00165767)
(0.00107536 2.29293e-05 -0.00177351)
(-0.00103548 4.36539e-05 -0.00164233)
(-0.00402659 0.00143498 0.00182234)
(-0.00764312 0.00278409 0.00403506)
(-0.0109782 0.00409745 0.00550798)
(-0.0135369 0.00490144 0.00649006)
(-0.0143357 0.00369039 0.00728742)
(-0.0113898 -0.00223663 0.00770999)
(-0.00708052 -0.0156739 0.007231)
(-0.00584899 -0.0296097 0.00589051)
(-0.00240968 -0.0394902 0.00191843)
(0.0021456 -0.0416843 -0.000477302)
(0.00534851 -0.0325775 0.00534748)
(0.00416174 -0.0201475 0.0079387)
(0.00535197 -0.00784916 0.00951735)
(0.00615936 -0.000492195 0.0100259)
(0.00623934 0.00336449 0.00914234)
(0.00509898 0.00455766 0.00779178)
(0.00333141 0.00456898 0.00633975)
(0.00142336 0.00431203 0.00484485)
(0.000174824 0.00403971 0.00309029)
(-0.000101613 0.00402603 0.00319244)
(-0.00133916 0.00429708 0.0049764)
(-0.00322854 0.00451744 0.00646134)
(-0.00501565 0.00446328 0.00791009)
(-0.00614658 0.00327174 0.00925392)
(-0.00607634 -0.000488792 0.0101109)
(-0.0051852 -0.00778199 0.00955359)
(-0.00400145 -0.0202252 0.00796456)
(-0.00528378 -0.0328104 0.00539496)
(-0.00211629 -0.042126 -0.000420741)
(0.00151689 -0.0425952 -0.00228757)
(0.00483112 -0.0330466 0.00482977)
(0.00154828 -0.0215023 0.00790219)
(0.00116363 -0.0101805 0.00960382)
(-0.000454062 -0.00245127 0.0105167)
(-0.000360568 0.00195171 0.0104513)
(-0.00070269 0.00368979 0.00962657)
(-0.000893967 0.00449565 0.00878381)
(-0.000934441 0.00462452 0.00819444)
(-0.00048053 0.00431352 0.00774874)
(0.000604088 0.00427063 0.00776736)
(0.00109043 0.00455582 0.0082422)
(0.00107432 0.00441628 0.0088397)
(0.000866973 0.00359982 0.00968058)
(0.00048894 0.0018669 0.0104967)
(0.000557726 -0.00246617 0.0105589)
(-0.00102729 -0.0101484 0.0096409)
(-0.00140334 -0.0215351 0.00794058)
(-0.00474741 -0.0332215 0.00489443)
(-0.00148208 -0.0429416 -0.00220274)
(0.000249336 -0.0417837 -0.00397524)
(0.00359713 -0.0315543 0.00359563)
(-0.0011471 -0.0211242 0.00675311)
(-0.00188471 -0.0117166 0.00819735)
(-0.00345693 -0.00549295 0.00901525)
(-0.00355861 -0.00182577 0.00945998)
(-0.00322047 0.000412054 0.00970033)
(-0.00270472 0.00171334 0.00964821)
(-0.00188842 0.00219925 0.00957483)
(-0.000712245 0.00210363 0.00949428)
(0.000920321 0.00204428 0.00948959)
(0.00209354 0.00208558 0.0095677)
(0.00290932 0.00159294 0.00963696)
(0.00340745 0.000290812 0.00967141)
(0.0037185 -0.00194535 0.00942892)
(0.0035903 -0.00557193 0.00900178)
(0.0020221 -0.0117567 0.00820309)
(0.0012906 -0.0211469 0.00677825)
(-0.0034915 -0.0316975 0.00365481)
(-0.000211792 -0.0420569 -0.00388072)
(-0.00188279 -0.0382525 -0.00617941)
(0.000659258 -0.0274679 0.000657646)
(-0.00489322 -0.0193127 0.00319868)
(-0.00575555 -0.0124152 0.00381768)
(-0.00678249 -0.00727477 0.00394875)
(-0.00624055 -0.00362051 0.00409323)
(-0.0050995 -0.0012087 0.00443798)
(-0.00350765 0.000513913 0.00504634)
(-0.00178549 0.00111844 0.00566816)
(-0.000456672 0.00107124 0.006401)
(0.000689608 0.00103254 0.00635698)
(0.00200976 0.0010384 0.00558771)
(0.00372398 0.000452309 0.00495296)
(0.00529823 -0.00126196 0.00435953)
(0.00642166 -0.00367917 0.00402234)
(0.00694977 -0.00732996 0.00389233)
(0.00591203 -0.0124667 0.00378114)
(0.0050331 -0.0193753 0.00318648)
(-0.000529958 -0.0275794 0.000697321)
(0.00192212 -0.0384478 -0.0060892)
(-0.0052462 -0.0293177 -0.0100151)
(-0.00560888 -0.0210963 -0.00561021)
(-0.0114181 -0.0164033 -0.004633)
(-0.0127552 -0.0137263 -0.00507258)
(-0.0131898 -0.0123006 -0.0059694)
(-0.0118133 -0.0116588 -0.00662923)
(-0.00969433 -0.0115291 -0.00703877)
(-0.00700688 -0.0115501 -0.00702034)
(-0.00396587 -0.0116458 -0.00636545)
(-0.00158287 -0.0105734 -0.00431693)
(0.00184054 -0.0106026 -0.00436093)
(0.00419347 -0.0116965 -0.00642505)
(0.00722084 -0.0116017 -0.0070978)
(0.00989925 -0.011582 -0.00711949)
(0.0120097 -0.0117137 -0.00670849)
(0.013376 -0.0123552 -0.0060419)
(0.0129315 -0.013782 -0.00513493)
(0.0115737 -0.0164619 -0.00466619)
(0.00573003 -0.0211745 -0.0056006)
(0.00529476 -0.0294332 -0.00994823)
(-0.0123316 -0.0164835 -0.0185246)
(-0.0192258 -0.00957887 -0.019227)
(-0.025871 -0.00632308 -0.021859)
(-0.0275871 -0.00440118 -0.0246292)
(-0.0275616 -0.00300249 -0.0275104)
(-0.025455 -0.00179377 -0.0302824)
(-0.0219016 -0.000477926 -0.0327398)
(-0.0170305 0.0010342 -0.0346395)
(-0.0105457 0.00262466 -0.0354087)
(-0.00478802 0.00440275 -0.0330746)
(0.00503241 0.00435041 -0.0330925)
(0.0107582 0.00258518 -0.0354476)
(0.01724 0.00101033 -0.0347008)
(0.0221059 -0.00049469 -0.0328059)
(0.0256527 -0.00180837 -0.0303469)
(0.0277497 -0.00301774 -0.0275714)
(0.027762 -0.00441822 -0.0246826)
(0.0260247 -0.0063456 -0.021896)
(0.0193398 -0.0096122 -0.019237)
(0.0123935 -0.0165401 -0.0184862)
(0.00719437 -0.00544453 0.0207171)
(0.0107912 7.24013e-05 0.0166584)
(0.00965244 0.00649757 0.00965675)
(0.00160269 0.0098109 0.0039213)
(-0.00500578 -0.00392327 0.000976732)
(-0.000526231 -0.00355595 7.79888e-05)
(-0.000737965 -0.0017574 0.00047291)
(0.000305219 -0.000700643 0.000198526)
(0.000289436 -0.000129001 2.60837e-05)
(-0.000162118 -0.00224009 0.000801592)
(1.25065e-05 -0.000449335 -0.000288753)
(0.000546447 -0.00152127 0.000296555)
(-0.000615613 -0.000548574 0.000209815)
(0.00113096 -0.00189369 0.000369855)
(0.000698659 -0.00364482 8.02915e-05)
(0.00604925 -0.00341483 0.00124948)
(-0.0030303 0.00977063 0.00575157)
(-0.0108566 0.0055963 0.0106925)
(-0.0115654 -0.000559282 0.0172392)
(-0.00743018 -0.00592588 0.0210519)
(0.00294368 -0.00265164 0.013361)
(0.00721426 0.0047536 0.0133491)
(0.0108927 0.0118648 0.0108951)
(0.0102909 0.0131487 0.00901887)
(0.00973184 0.00664722 0.00648546)
(0.0035681 0.00142241 0.00395161)
(0.000291692 -0.00223857 0.00150038)
(0.000284566 -0.00254259 -0.000164016)
(0.000179241 -0.0013844 -0.001278)
(0.000189262 -0.00134779 -0.00226852)
(-0.000284852 -0.000571387 -0.00224445)
(-0.000280451 -0.00206455 -0.00122505)
(-0.000463848 -0.00250875 -0.000176047)
(-0.00049016 -0.00217524 0.00144159)
(-0.00412632 0.00172438 0.00400052)
(-0.0100465 0.00707222 0.00648976)
(-0.0106711 0.0136552 0.00866434)
(-0.01095 0.0113349 0.0107955)
(-0.00741889 0.00381905 0.0132243)
(-0.00305144 -0.00382974 0.0132037)
(0.00248202 -0.0135956 0.00750349)
(0.00657378 -0.00786522 0.0109167)
(0.0118352 0.00286056 0.0118367)
(0.0152017 0.00804262 0.0110587)
(0.0155863 0.00619786 0.00925251)
(0.012625 0.00397717 0.00725554)
(0.0089514 0.00154624 0.0052629)
(0.00459826 -0.000860747 0.00300774)
(0.00187242 -0.00207344 1.30621e-05)
(0.000471429 -0.00200017 -0.00275824)
(-0.00054038 -0.00205727 -0.00264969)
(-0.00204275 -0.00211764 0.000180462)
(-0.00480629 -0.000878287 0.00310566)
(-0.00916723 0.00162383 0.00531022)
(-0.0127833 0.00419457 0.00724554)
(-0.0156994 0.00665081 0.0091785)
(-0.0151412 0.00867078 0.0107177)
(-0.0116441 0.0023744 0.011516)
(-0.00657159 -0.00859615 0.0106529)
(-0.00248004 -0.0146092 0.00719715)
(0.00308091 -0.0211125 0.00130478)
(0.00724685 -0.0154557 0.00726507)
(0.0103794 -0.00746782 0.0103798)
(0.0145667 0.000604424 0.0113461)
(0.0160524 0.00382096 0.0104327)
(0.0144913 0.00433902 0.00893096)
(0.0115677 0.00342496 0.00724914)
(0.00812949 0.00205192 0.00515318)
(0.00447357 0.000414986 0.00213388)
(0.00140622 -0.00101025 -0.00170003)
(-0.00146388 -0.00104083 -0.00155185)
(-0.00462156 0.000375462 0.00234588)
(-0.00832762 0.00199625 0.00532605)
(-0.0117743 0.00339411 0.00738521)
(-0.0146609 0.00440343 0.00901442)
(-0.0161485 0.00404457 0.0104281)
(-0.014504 0.000940838 0.011186)
(-0.0102138 -0.00767366 0.0101799)
(-0.00722373 -0.0159662 0.00710264)
(-0.00304066 -0.021854 0.00109596)
(0.00296764 -0.0271472 -0.00338102)
(0.00793925 -0.0201458 0.00416102)
(0.00879368 -0.0125343 0.00879309)
(0.0105325 -0.00434908 0.0110827)
(0.0112779 0.00134741 0.0114895)
(0.0103372 0.00430631 0.0104599)
(0.00820977 0.00485193 0.00884056)
(0.00566625 0.0041424 0.00684258)
(0.00302875 0.00306559 0.004436)
(0.000936189 0.00207608 0.00135548)
(-0.00080263 0.0020792 0.00141671)
(-0.00294079 0.00305412 0.00457697)
(-0.00562855 0.00407214 0.00700047)
(-0.00822286 0.00474235 0.00900339)
(-0.0103668 0.00422918 0.0106124)
(-0.0113013 0.00138353 0.011595)
(-0.0104542 -0.00425275 0.0111057)
(-0.00867463 -0.012661 0.00874557)
(-0.00789732 -0.0204829 0.00412417)
(-0.0029208 -0.0276437 -0.00345263)
(0.00193309 -0.0309181 -0.00673403)
(0.00790307 -0.0215007 0.00154698)
(0.00688724 -0.0136482 0.00688612)
(0.00712817 -0.0051377 0.00985039)
(0.00588932 0.00156194 0.0111154)
(0.00507181 0.00537068 0.0107184)
(0.00371611 0.00642068 0.009461)
(0.00234304 0.00619762 0.00794969)
(0.00100948 0.00557571 0.00656617)
(0.000197709 0.00505883 0.00524287)
(-6.12723e-05 0.00504929 0.00524249)
(-0.000828565 0.00555595 0.00660086)
(-0.00216361 0.00614777 0.0080066)
(-0.00357506 0.00634092 0.00953544)
(-0.00497616 0.00530807 0.0108004)
(-0.00581902 0.00158205 0.0111923)
(-0.00702821 -0.00506254 0.00990717)
(-0.00676762 -0.0137227 0.00691476)
(-0.00784575 -0.0217652 0.00158855)
(-0.0018836 -0.0313095 -0.00671382)
(1.35721e-05 -0.0330345 -0.00953396)
(0.00675411 -0.0211228 -0.00114868)
(0.00437229 -0.0129027 0.00437074)
(0.00435161 -0.00489573 0.0076382)
(0.0025368 0.000868526 0.00924624)
(0.00168349 0.00427789 0.00922467)
(0.000983648 0.005479 0.00856857)
(0.000448763 0.00557046 0.00779625)
(2.6017e-05 0.00529009 0.00727588)
(-5.44726e-05 0.00512605 0.00684162)
(0.00022745 0.00510289 0.00681432)
(0.00019321 0.00523637 0.00722577)
(-0.000220768 0.00550263 0.00774845)
(-0.000782678 0.00538973 0.00852823)
(-0.00152464 0.0041977 0.00920626)
(-0.00239585 0.00084491 0.0092609)
(-0.00421786 -0.00487935 0.00768375)
(-0.00422129 -0.0129735 0.00441736)
(-0.00667077 -0.0213465 -0.00109049)
(3.27762e-05 -0.0333346 -0.0094779)
(-0.00272476 -0.0324577 -0.0126)
(0.00319958 -0.019312 -0.00489485)
(-0.000301436 -0.0108403 -0.00030331)
(0.000241097 -0.0025822 0.00249082)
(-0.000505385 0.00345567 0.00429257)
(-0.000500325 0.00622492 0.00436468)
(-0.000305011 0.00737462 0.004174)
(8.72904e-07 0.00781712 0.00412277)
(0.000440578 0.0077804 0.00435556)
(0.000397375 0.00779252 0.00478334)
(-0.00017945 0.00778253 0.00474685)
(-0.000211091 0.00776305 0.00427092)
(0.000229031 0.00780453 0.00402642)
(0.000517754 0.00734802 0.00407809)
(0.000690874 0.00619148 0.00428294)
(0.000680013 0.00344081 0.00424741)
(-6.81048e-05 -0.00254035 0.00250857)
(0.000484501 -0.0109045 -0.000278354)
(-0.00309584 -0.0194629 -0.00485756)
(0.00276795 -0.0326713 -0.012535)
(-0.00642723 -0.026594 -0.0168847)
(-0.00463212 -0.0164031 -0.0114198)
(-0.0088983 -0.0108356 -0.00889982)
(-0.00854259 -0.00721635 -0.00788978)
(-0.00810504 -0.00510894 -0.00764573)
(-0.00597038 -0.00394647 -0.00695524)
(-0.00402442 -0.00387607 -0.00648159)
(-0.00216719 -0.00411295 -0.00566846)
(-0.00048581 -0.0045147 -0.00431026)
(0.00010409 -0.00224934 -0.00237292)
(0.000168343 -0.0022843 -0.00243607)
(0.000769227 -0.00458328 -0.00444715)
(0.00244733 -0.00417985 -0.00580349)
(0.00428757 -0.0039375 -0.00660751)
(0.0062121 -0.00400883 -0.00707123)
(0.00831525 -0.00516441 -0.0077344)
(0.00873819 -0.00726453 -0.00794289)
(0.00906886 -0.0108911 -0.00892398)
(0.00475366 -0.0164827 -0.011408)
(0.00646986 -0.0267086 -0.0168283)
(-0.0145335 -0.0146849 -0.02511)
(-0.0218582 -0.00632302 -0.0258725)
(-0.0286695 -0.00243303 -0.0286708)
(-0.0301416 -1.85873e-05 -0.0319122)
(-0.0298869 0.0017207 -0.035392)
(-0.027655 0.0032149 -0.0388594)
(-0.0241161 0.00485097 -0.0420986)
(-0.0192905 0.00672381 -0.0447551)
(-0.012712 0.00870346 -0.0460945)
(-0.006174 0.0106869 -0.0433713)
(0.00644785 0.0106388 -0.0433962)
(0.0129428 0.00867607 -0.0461434)
(0.0195149 0.00671013 -0.0448297)
(0.0243298 0.00484206 -0.0421787)
(0.0278562 0.00320725 -0.0389377)
(0.0300724 0.00171153 -0.0354658)
(0.0303108 -2.93583e-05 -0.0319753)
(0.0288169 -0.00245261 -0.0287161)
(0.0219648 -0.0063558 -0.0258898)
(0.0145911 -0.0147386 -0.025081)
(0.0050952 0.00528436 0.0101085)
(0.00644733 0.00881001 0.00828164)
(0.00391473 0.00980939 0.0016079)
(-0.00314552 -0.00346072 -0.00312753)
(-0.000194708 -0.00466682 0.000402641)
(0.000791177 -0.00318759 0.000618933)
(0.00146916 -0.00171137 0.00133823)
(0.00197568 -0.000744335 0.00160379)
(0.00141392 -0.000484863 0.00195174)
(0.000695649 -0.000459741 0.00129128)
(-0.000628466 -0.000612546 0.00186828)
(-0.00146544 -0.000371636 0.00172837)
(-0.00202971 -0.000826781 0.00161867)
(-0.00150441 -0.00188708 0.00125626)
(-0.0011469 -0.00340824 0.000457463)
(0.00152347 -0.00461252 0.000415484)
(0.000190441 0.00505523 -0.000235466)
(-0.00583264 0.00974061 0.00291743)
(-0.00750587 0.00839343 0.00915518)
(-0.00549159 0.00497836 0.0109042)
(0.00295324 0.0108653 0.013557)
(0.0060862 0.0133815 0.0133519)
(0.00901672 0.0131467 0.0102916)
(0.00943369 0.0080308 0.00943615)
(0.00622865 0.00313453 0.00546258)
(0.00224301 -0.000907331 0.0032209)
(0.00147672 -0.0026821 0.00191606)
(0.00143969 -0.00262426 0.00108195)
(0.00127069 -0.0018962 0.000242464)
(0.000554374 -0.00125704 -0.000831624)
(-0.000908425 -0.00127843 -0.000700659)
(-0.00160151 -0.00195579 0.000364268)
(-0.0018296 -0.00270298 0.00116538)
(-0.00193903 -0.00270386 0.00198777)
(-0.00309231 -0.000780024 0.00329774)
(-0.00787969 0.00357739 0.00548015)
(-0.00851751 0.00929229 0.00846297)
(-0.00877904 0.0136117 0.0106076)
(-0.00622364 0.0132043 0.0136007)
(-0.00309433 0.010555 0.0137761)
(0.00231252 0.00475553 0.0141689)
(0.00619351 0.00634324 0.0157347)
(0.011057 0.00804156 0.0152033)
(0.0137074 0.006554 0.0137092)
(0.0133315 0.00445217 0.0108906)
(0.0111068 0.00236681 0.00839145)
(0.00777854 8.88414e-05 0.00592232)
(0.00439504 -0.00188467 0.00369787)
(0.00219202 -0.00250055 0.00130523)
(0.000663629 -0.002182 -0.00106135)
(-0.000903627 -0.00222178 -0.000899946)
(-0.00245391 -0.00259307 0.00152598)
(-0.00469418 -0.00198884 0.00386237)
(-0.00804808 -3.87229e-05 0.00603991)
(-0.0113318 0.00229971 0.00846828)
(-0.0136399 0.00459617 0.0108795)
(-0.0135174 0.00752264 0.0134298)
(-0.0108512 0.00859865 0.0150754)
(-0.00611085 0.0061581 0.0156293)
(-0.00232556 0.00415097 0.013875)
(0.00417574 -0.00615373 0.00577485)
(0.00779241 -0.00235197 0.0115549)
(0.0113453 0.000604647 0.0145683)
(0.0145036 0.00302444 0.0145048)
(0.015191 0.00390142 0.0126618)
(0.0137332 0.00364742 0.0105134)
(0.0110722 0.0026439 0.00839603)
(0.00784437 0.00125106 0.00605401)
(0.00430424 -0.000427262 0.00303868)
(0.00136257 -0.00159625 -0.000364689)
(-0.00148159 -0.00163749 -0.00018929)
(-0.00448485 -0.000542797 0.00328128)
(-0.00806046 0.00108128 0.00627983)
(-0.0113226 0.00245862 0.00862061)
(-0.0139787 0.00347949 0.0107062)
(-0.015439 0.00382579 0.0127843)
(-0.0145822 0.00326012 0.0144828)
(-0.0112671 0.00078965 0.0144178)
(-0.00774937 -0.00261517 0.0112915)
(-0.00413817 -0.00663646 0.00538881)
(0.00423575 -0.0155365 -0.00231194)
(0.0095171 -0.00784764 0.00535354)
(0.0110829 -0.00434841 0.010533)
(0.0127346 -0.000567005 0.0127348)
(0.0131227 0.00253889 0.0126399)
(0.0119845 0.00422287 0.0113358)
(0.00974277 0.00426988 0.00955846)
(0.00705455 0.0032571 0.00741299)
(0.00415426 0.00174434 0.00470822)
(0.00155949 2.10444e-05 0.00115829)
(-0.00140458 2.18495e-06 0.00121155)
(-0.0040682 0.0016953 0.00486382)
(-0.00704524 0.00312581 0.00760228)
(-0.00979759 0.00406806 0.00976018)
(-0.0120796 0.00400531 0.0115299)
(-0.0132554 0.0023922 0.0127889)
(-0.0128209 -0.000562976 0.0128008)
(-0.0110672 -0.00438942 0.0104785)
(-0.00949434 -0.00807377 0.00524852)
(-0.00417203 -0.0159986 -0.00248854)
(0.00234912 -0.0222645 -0.00747081)
(0.00960418 -0.0101791 0.00116385)
(0.00985115 -0.00513672 0.00712776)
(0.0102758 -0.000515643 0.0102753)
(0.00957049 0.00353342 0.0114942)
(0.00856093 0.00602995 0.0111206)
(0.00691052 0.0065259 0.00990502)
(0.00500848 0.0057402 0.00820226)
(0.00294012 0.00445899 0.00621861)
(0.00108103 0.00335831 0.00389634)
(-0.000895543 0.00334406 0.00387542)
(-0.00273876 0.00443842 0.00625064)
(-0.00483326 0.00567102 0.0082732)
(-0.00678667 0.00640671 0.00999984)
(-0.00849171 0.00590254 0.0112219)
(-0.00954771 0.00345839 0.0115827)
(-0.0102492 -0.000521685 0.0103391)
(-0.00977837 -0.00521566 0.00716113)
(-0.00955498 -0.0104118 0.00119518)
(-0.0022769 -0.0226378 -0.0074762)
(-0.000404042 -0.0271231 -0.0109798)
(0.00819792 -0.0117157 -0.00188532)
(0.00763943 -0.004895 0.00435053)
(0.00771547 3.31053e-05 0.00771433)
(0.00649467 0.0037535 0.00953018)
(0.0056917 0.00601236 0.00987074)
(0.00470025 0.00643757 0.00938189)
(0.00352871 0.00571645 0.00847654)
(0.00209731 0.00464452 0.00747884)
(0.000759389 0.00397618 0.00620506)
(-0.000558163 0.00395273 0.00615551)
(-0.00185484 0.00460826 0.00742607)
(-0.00328995 0.00565865 0.00844481)
(-0.00449798 0.00634592 0.00937004)
(-0.00553612 0.00591861 0.00987986)
(-0.00636792 0.00369729 0.00956544)
(-0.00759746 9.71945e-07 0.00777153)
(-0.00749346 -0.00499308 0.00441423)
(-0.00811558 -0.0119228 -0.00182149)
(0.000467695 -0.0274207 -0.0109376)
(-0.00376377 -0.0290904 -0.0144865)
(0.00381822 -0.0124146 -0.00575687)
(0.00249258 -0.00258127 0.000239344)
(0.00365523 0.00399888 0.00365334)
(0.00297566 0.00703835 0.00543509)
(0.00312802 0.00848206 0.00607802)
(0.00314813 0.00882033 0.00608703)
(0.00291659 0.00866858 0.00587316)
(0.00244849 0.00837361 0.0057657)
(0.00128632 0.00844546 0.00563808)
(-0.00101373 0.00841998 0.00559656)
(-0.00218597 0.00834667 0.00568962)
(-0.00265988 0.00864959 0.00580506)
(-0.00291805 0.00878781 0.00602962)
(-0.00292743 0.00844337 0.00603711)
(-0.00279176 0.00701739 0.00543291)
(-0.00347951 0.00398676 0.00369616)
(-0.00228935 -0.0026815 0.000285279)
(-0.00371189 -0.0125599 -0.00571053)
(0.00381723 -0.0292995 -0.0144323)
(-0.00774357 -0.025581 -0.0189553)
(-0.00507212 -0.0137263 -0.0127569)
(-0.00788859 -0.00721635 -0.00854438)
(-0.00511442 -0.00264571 -0.0051162)
(-0.00403317 -0.000255433 -0.00353599)
(-0.00245336 0.000228982 -0.00328015)
(-0.00107459 -0.000316976 -0.00333939)
(-5.4234e-05 -0.000968701 -0.00334636)
(0.00074007 -0.00153333 -0.00279665)
(0.000599552 0.000859714 -0.00136063)
(-0.000311203 0.000859871 -0.00139733)
(-0.000438871 -0.00160162 -0.00290327)
(0.000372643 -0.00101784 -0.00346725)
(0.00136298 -0.000373633 -0.00345817)
(0.00270614 0.000168446 -0.00338497)
(0.00425157 -0.00030856 -0.00360805)
(0.00532886 -0.00269414 -0.00515889)
(0.0080514 -0.00726737 -0.00856215)
(0.00518908 -0.0137961 -0.0127452)
(0.007788 -0.025687 -0.0189053)
(-0.01654 -0.0140088 -0.0269459)
(-0.0246287 -0.00440113 -0.0275889)
(-0.0319112 -1.85651e-05 -0.0301433)
(-0.0332858 0.00257751 -0.0332872)
(-0.0327391 0.00433254 -0.0366497)
(-0.0304126 0.00592798 -0.0403242)
(-0.0270207 0.00776208 -0.0441951)
(-0.0222586 0.00989936 -0.0476801)
(-0.0153603 0.0122324 -0.0499206)
(-0.00784775 0.0148778 -0.0482893)
(0.00816151 0.0148208 -0.0483018)
(0.01561 0.0122185 -0.0499943)
(0.0224836 0.00989211 -0.047765)
(0.0272315 0.00775471 -0.0442811)
(0.0306103 0.00592118 -0.0404099)
(0.0329183 0.00432429 -0.0367275)
(0.0334432 0.00256523 -0.0333473)
(0.0320455 -3.81585e-05 -0.0301866)
(0.0247264 -0.00443175 -0.0276075)
(0.016595 -0.0140584 -0.0269214)
(0.000479103 -0.00102189 -0.0100057)
(0.00143183 -0.001875 -0.00733176)
(0.00095182 -0.00391912 -0.00498656)
(0.000378742 -0.00465751 -0.000173223)
(0.000977584 -0.00367518 0.00099259)
(0.00205826 -0.00260252 0.00187194)
(0.00287923 -0.00150674 0.00263635)
(0.00309445 -0.000789319 0.00319936)
(0.00240349 -0.000501674 0.00371845)
(0.0011727 -0.000555814 0.00393331)
(-0.0012073 -0.000562945 0.00392614)
(-0.00248697 -0.000459511 0.00381572)
(-0.00320116 -0.000817898 0.00324146)
(-0.00296262 -0.00161068 0.00267049)
(-0.00221155 -0.00277889 0.00182601)
(-0.00100847 -0.00387153 0.0010664)