/*--------------------------------*- C++ -*----------------------------------*\
| =========                 |                                                 |
| \\      /  F ield         | OpenFOAM: The Open Source CFD Toolbox           |
|  \\    /   O peration     | Version:  v1912                                 |
|   \\  /    A nd           | Website:  www.openfoam.com                      |
|    \\/     M anipulation  |                                                 |
\*---------------------------------------------------------------------------*/
FoamFile
{
    version     2.0;
    format      ascii;
    class       volScalarField;
    location    "130";
    object      epsilon;
}
// * * * * * * * * * * * * * * * * * * * * * * * * * * * * * * * * * * * * * //

dimensions      [0 2 -3 0 0 0 0];


internalField   nonuniform List<scalar> 
12441
(
0.0102961
0.00908206
0.00832452
0.00770033
0.00718014
0.0067445
0.00637824
0.0060672
0.00580092
0.00557251
0.00537536
0.00520412
0.00504311
0.00491223
0.00479359
0.00469135
0.00465846
0.0176781
0.24303
2.88015
21.003
39.25
0.0101184
0.00891613
0.00818038
0.00757355
0.00706698
0.0066425
0.00628576
0.00598264
0.00572297
0.00550028
0.00530812
0.00514128
0.00498342
0.00485618
0.00474092
0.00464321
0.00465547
0.0174277
0.229294
2.8738
21.2961
40.2318
0.00989636
0.00871355
0.00799678
0.00740573
0.00691261
0.00649956
0.00615243
0.00585764
0.0056053
0.00538914
0.0052029
0.00504156
0.00488806
0.00476605
0.00465576
0.00456325
0.00457403
0.0159112
0.195791
2.84735
21.6791
41.3784
0.00967275
0.00850997
0.00781142
0.00723544
0.00675487
0.00635247
0.00601447
0.00572756
0.00548212
0.00527213
0.00509144
0.00493528
0.00478806
0.00467065
0.00456551
0.00447803
0.00447224
0.0140644
0.162126
2.82946
22.1493
42.5504
0.00942857
0.00828568
0.00760579
0.00704535
0.00657812
0.00618714
0.00585877
0.00558026
0.00534229
0.00513904
0.00496454
0.00481422
0.00467157
0.00456009
0.00446063
0.00438017
0.00433986
0.0124073
0.14558
2.84052
22.665
43.6698
0.00922256
0.00809603
0.00743134
0.0068835
0.00642668
0.00604455
0.0057238
0.00545183
0.00521956
0.00502135
0.00485135
0.00470518
0.00456834
0.00446057
0.00436556
0.0042889
0.00426632
0.0127928
0.166407
2.94706
23.2837
44.7472
0.00900195
0.00789278
0.00724447
0.00671027
0.0062652
0.00589314
0.00558081
0.0053162
0.00509045
0.00489809
0.00473343
0.00459226
0.0044589
0.0043571
0.00426486
0.00419577
0.0060266
0.0221209
0.270509
3.2362
24.0955
45.7945
0.00882345
0.00772801
0.00709255
0.00656897
0.00613256
0.00576781
0.00546178
0.00520253
0.00498138
0.00479302
0.00463188
0.00449387
0.00436581
0.00426809
0.00418435
0.0051743
0.0349915
0.0799867
0.576201
3.83388
25.2083
46.8732
0.00862937
0.00754917
0.00692816
0.00641661
0.00599061
0.00563478
0.00533616
0.00508337
0.00486793
0.00468469
0.00452816
0.00439445
0.00426908
0.00413921
0.00540591
0.0275845
0.184958
0.311108
1.24856
4.87413
26.7354
48.0153
0.00847463
0.00740611
0.00679612
0.00629365
0.00587498
0.00552529
0.005232
0.00498371
0.00477212
0.00459217
0.00443851
0.00430755
0.00418683
0.00427352
0.0258271
0.159288
0.585936
0.865042
2.34053
6.41306
28.7593
49.2846
0.00830525
0.00725004
0.0066527
0.00616078
0.00575129
0.00540946
0.00512265
0.00488
0.00467337
0.00449784
0.00434814
0.00422185
0.00407043
0.00963385
0.122061
0.497102
1.25883
1.74886
3.69447
8.37269
31.3063
50.6975
0.00817018
0.00712511
0.00653739
0.00605337
0.00565017
0.00531358
0.00503135
0.00479256
0.0045892
0.00441646
0.00426917
0.00414676
0.00415547
0.0508572
0.370249
1.02373
2.03281
2.7569
5.06369
10.5752
34.3358
52.295
0.00802111
0.00698786
0.0064114
0.00593677
0.0055418
0.00521223
0.00493574
0.00470193
0.00450295
0.00433406
0.00419021
0.00403463
0.00846654
0.185033
0.755656
1.59445
2.72923
3.67056
6.28628
12.8319
37.7601
54.0597
0.00790016
0.00687596
0.00630812
0.00584057
0.00545118
0.00512627
0.00485391
0.00462357
0.00442754
0.00426119
0.00411952
0.00388038
0.038851
0.419104
1.16348
2.08801
3.27891
4.40096
7.31639
15.0033
41.4659
56.0037
0.00776884
0.00675504
0.00619714
0.00573787
0.00535579
0.0050371
0.00476976
0.00454376
0.00435154
0.00418851
0.00404978
0.00427265
0.126186
0.693185
1.52071
2.47874
3.69402
4.95863
8.17154
17.0121
45.3409
58.0812
0.0076597
0.00665408
0.00610396
0.00565108
0.00527401
0.0049595
0.0046959
0.00447306
0.00428354
0.00412284
0.00398618
0.00966614
0.269076
0.95071
1.80955
2.78137
4.00723
5.3849
8.88723
18.8277
49.2848
60.2902
0.00754385
0.00654745
0.00600618
0.00556066
0.00519009
0.00488108
0.00462186
0.00440279
0.00421653
0.00405864
0.00392491
0.0343593
0.436249
1.17098
2.03955
3.01741
4.24775
5.71866
9.49705
20.4479
53.2201
62.571
0.00744225
0.00645356
0.00591962
0.00548014
0.00511431
0.0048093
0.0045537
0.0043377
0.00415411
0.00399855
0.00386959
0.0920256
0.598441
1.3535
2.22444
3.20482
4.43707
5.98874
10.0271
21.8838
57.0898
64.9213
0.00733972
0.00635911
0.00583296
0.00539992
0.00503982
0.00473962
0.00448779
0.00427501
0.00409418
0.003941
0.00380696
0.176106
0.742559
1.50523
2.37586
3.35682
4.59014
6.2148
10.4962
23.1517
60.8601
67.2818
0.00724501
0.00627163
0.00575237
0.00532502
0.00496938
0.00467296
0.00442461
0.00421481
0.00403658
0.0038857
0.00429544
0.269957
0.866726
1.63341
2.50247
3.48286
4.71724
6.40982
10.9169
24.2685
64.5135
69.6617
0.00715488
0.00618858
0.00567615
0.00525443
0.00490379
0.00461152
0.00436632
0.00415917
0.0039832
0.00383428
0.0102487
0.362169
0.973884
1.74387
2.61054
3.5897
4.82553
6.58199
11.2973
25.2506
68.0508
72.0102
0.00706401
0.00610482
0.00559914
0.00518302
0.00483684
0.00454839
0.00430675
0.00410268
0.00392941
0.0037834
0.0308557
0.447686
1.06783
1.8409
2.70466
3.68218
4.92001
6.73611
11.6424
26.1122
71.4851
74.3523
0.00698482
0.00603167
0.00553185
0.00512055
0.00477863
0.00449367
0.00425459
0.00405267
0.0038812
0.00373883
0.069216
0.525638
1.15181
1.92767
2.78821
3.76386
5.00407
6.87464
11.9551
26.8667
74.8442
76.6493
0.00689823
0.00595193
0.00545862
0.00505275
0.00471518
0.004434
0.00419847
0.00399963
0.00383089
0.003699
0.11839
0.596741
1.22832
2.00652
2.86376
3.83731
5.07989
6.99867
12.237
27.5252
78.1664
78.9445
0.00683007
0.00588888
0.00540055
0.0049987
0.00466466
0.00438627
0.00415268
0.0039554
0.00378794
0.00368137
0.170545
0.6623
1.29918
2.07928
2.93322
3.90435
5.1487
7.10867
12.4892
28.0983
81.5027
81.212
0.00674428
0.00581016
0.00532853
0.00493232
0.00460289
0.00432857
0.00409879
0.00390486
0.0037404
0.00364388
0.221738
0.723667
1.36577
2.14734
2.99801
3.96624
5.21104
7.20499
12.7125
28.5947
84.9125
83.5114
0.00668524
0.00575527
0.00527773
0.00488476
0.00455815
0.00428598
0.0040576
0.00386475
0.0037012
0.00385939
0.27108
0.78201
1.42911
2.21178
3.05914
4.02375
5.26713
7.28805
12.9079
29.0221
88.4645
85.8273
0.00660141
0.0056785
0.00520762
0.00482032
0.00449839
0.0042304
0.00400595
0.00381657
0.00365618
0.00595565
0.319004
0.838276
1.49002
2.27345
3.11733
4.07733
5.31704
7.35839
13.0763
29.3867
92.2301
88.2307
0.00655186
0.0056322
0.00516456
0.00477973
0.00445989
0.00419335
0.00396968
0.00378083
0.00362124
0.0120219
0.366289
0.8932
1.54912
2.33298
3.17303
4.12726
5.36091
7.41664
13.2187
29.6937
96.2825
90.7106
0.00646766
0.00555544
0.00509478
0.00471593
0.00440113
0.00413913
0.00391971
0.00373461
0.00357936
0.0240072
0.413673
0.947361
1.60696
2.39084
3.22654
4.17371
5.39893
7.46351
13.3367
29.9471
100.688
93.3406
0.00642555
0.0055157
0.00505746
0.00468039
0.00436702
0.00410591
0.00388679
0.00370183
0.00354895
0.0434722
0.461743
1.00122
1.66394
2.44738
3.27809
4.21683
5.43136
7.49978
13.4316
30.1503
105.505
96.1058
0.00634297
0.00544054
0.00498927
0.00461821
0.00430995
0.00405348
0.00383872
0.00365758
0.0035127
0.0711175
0.510938
1.05516
1.72041
2.50287
3.32782
4.25683
5.45857
7.52625
13.505
30.3065
110.776
99.0732
0.00630941
0.00540858
0.00495895
0.00458894
0.00428142
0.00402516
0.00381008
0.00362855
0.00349256
0.106995
0.561573
1.10948
1.77666
2.55753
3.37591
4.29394
5.48094
7.54377
13.5589
30.4191
116.534
102.217
0.00622481
0.00533199
0.00488983
0.0045263
0.00422441
0.00397329
0.00376301
0.00358568
0.00347142
0.150721
0.613866
1.16445
1.83291
2.61153
3.42254
4.32845
5.49895
7.55325
13.5951
30.4916
122.794
105.592
0.0061981
0.00530607
0.00486478
0.00450162
0.00419979
0.00394828
0.00373719
0.00355907
0.00347774
0.201784
0.667933
1.22026
1.88934
2.66507
3.46793
4.3607
5.5131
7.55564
13.6155
30.5279
129.567
109.157
0.00611099
0.00522766
0.0047944
0.00443822
0.00414253
0.00389664
0.00369073
0.00351713
0.0035546
0.259524
0.72378
1.27706
1.94612
2.71831
3.51233
4.39107
5.52395
7.55195
13.6225
30.5319
136.854
112.957
0.00608757
0.00520466
0.00477188
0.00441571
0.00411971
0.00387309
0.00366613
0.00349155
0.00663769
0.323006
0.781284
1.33495
2.00335
2.77144
3.55604
4.42
5.53212
7.54323
13.6181
30.5074
144.648
116.938
0.00599544
0.00512237
0.00469848
0.00435003
0.00406085
0.00382043
0.00361913
0.00344947
0.0367243
0.390661
0.840181
1.39398
2.06113
2.82466
3.59937
4.44794
5.53829
7.53062
13.6048
30.4576
152.925
121.137
0.00596728
0.00509529
0.00467243
0.0043244
0.00403526
0.00379444
0.00359239
0.00342274
0.101768
0.459312
0.90007
1.45415
2.11953
2.87816
3.64266
4.47544
5.54317
7.51532
13.5852
30.3855
161.622
125.495
0.00586246
0.00500211
0.00458968
0.00425071
0.0039696
0.00373607
0.00354062
0.00338237
0.165148
0.525179
0.960459
1.51538
2.1786
2.93213
3.68629
4.50302
5.54753
7.49862
13.5621
30.2939
170.588
130.045
0.00582099
0.004963
0.00455273
0.00421514
0.00393492
0.00370179
0.00350639
0.00339666
0.21492
0.586093
1.02084
1.57757
2.23837
2.98676
3.73063
4.53129
5.55221
7.48188
13.5383
30.1861
179.531
134.727
0.00569926
0.00485529
0.00445714
0.0041298
0.00385864
0.00363363
0.00344554
0.00468601
0.252907
0.641349
1.08074
1.64057
2.29886
3.0422
3.77607
4.56083
5.55805
7.46657
13.5169
30.0663
187.946
139.588
0.00561708
0.00478918
0.0044033
0.00408463
0.00381936
0.00359799
0.00341189
0.00818864
0.282121
0.690974
1.13976
1.70416
2.36007
3.09858
3.82297
4.59227
5.56596
7.45423
13.5011
29.9398
195.11
144.654
0.00525446
0.00445967
0.00410994
0.00382327
0.00358613
0.00338833
0.00322199
0.010846
0.304736
0.7352
1.19759
1.76808
2.42202
3.15594
3.87169
4.62623
5.57683
7.44653
13.4938
29.8118
200.199
150.447
95.0235
123.554
78.2971
61.2062
51.212
41.1898
38.3042
35.696
34.4926
33.2267
32.0391
31.6644
38.3878
45.7183
45.8978
43.5788
45.1077
53.3053
53.4539
35.9632
25.5774
21.5336
18.7144
15.9979
11.4814
6.74286
5.43744
5.09208
4.9894
5.21732
5.62556
5.86617
5.83046
5.21892
4.44717
94.6475
124.352
80.6654
65.7577
55.2906
43.8298
40.6239
37.7764
36.6828
35.2984
33.0011
31.9753
38.8539
47.0119
47.4868
44.6568
45.6258
53.4298
54.4031
36.8754
26.0256
21.8043
18.8826
16.02
11.4815
6.73817
5.43008
5.08545
4.98325
5.21126
5.61873
5.8579
5.82156
5.21032
4.44021
93.9266
125.836
84.7366
72.8549
61.8694
48.4067
44.9625
41.9268
41.1836
39.4578
35.1213
32.8885
39.2956
46.968
48.3099
45.857
46.2687
52.9092
54.2885
37.8603
26.7814
22.3363
19.232
16.0565
11.3942
6.7138
5.4152
5.07224
4.97101
5.19918
5.60512
5.8414
5.80381
5.19314
4.42631
92.8104
127.823
90.2917
82.1983
71.0013
55.2282
51.5035
48.2532
48.1046
45.9351
39.0827
34.9953
40.7706
47.8357
49.98
47.9799
47.6161
52.5119
53.7361
39.0533
27.9159
23.1753
19.7959
16.1402
11.2487
6.6725
5.39292
5.05254
4.95276
5.18115
5.58477
5.81671
5.77726
5.16745
4.40552
91.3035
130.125
97.0611
92.8247
82.2044
64.2518
60.1921
56.7714
57.5603
55.2157
45.9274
39.1407
44.4993
51.4933
54.1715
52.1191
50.5394
53.1779
53.4449
40.6222
29.5351
24.3901
20.6215
16.3077
11.0715
6.61699
5.36346
5.02646
4.92863
5.15723
5.55775
5.78388
5.74198
5.13329
4.37789
89.3553
132.537
104.562
103.297
94.5799
75.1844
70.8273
67.2722
69.294
67.5509
56.9245
46.4177
51.6568
59.4604
62.694
59.8757
56.4155
56.281
54.5229
42.9236
31.8139
26.0826
21.7739
16.6006
10.8864
6.54991
5.32705
4.99414
4.89873
5.12752
5.5241
5.74297
5.69805
5.09073
4.34349
87.0012
134.848
112.106
112.289
106.897
87.3311
82.9161
79.0685
82.2465
82.223
72.7827
57.8849
63.0725
72.7568
77.2014
73.2223
67.1706
63.7636
58.6751
46.6796
35.0486
28.4047
23.3421
17.0684
10.7142
6.47384
5.28397
4.95573
4.86322
5.09211
5.48392
5.69405
5.64557
5.03987
4.30241
84.2135
136.851
118.932
119.257
117.975
99.5303
95.5626
90.8922
94.3774
96.6935
91.3355
73.3561
78.087
90.6738
97.9737
93.6183
84.7945
77.9347
68.2869
53.1626
39.7356
31.5825
25.4462
17.7714
10.5738
6.39131
5.23454
4.91141
4.82227
5.0511
5.43728
5.63718
5.58466
4.98082
4.25474
81.0699
138.368
124.433
124.627
127.21
110.414
107.576
101.267
103.488
107.201
105.885
89.2134
93.061
108.815
121.103
119.149
109.063
99.7092
85.8267
64.2921
46.666
35.9466
28.2456
18.7846
10.4829
6.30477
5.17914
4.86137
4.77609
5.00464
5.3843
5.57248
5.51547
4.91373
4.20064
77.574
139.265
128.37
129.375
134.841
119.003
117.858
109.23
108.628
111.53
110.704
99.1922
103.093
121.074
138.691
142.029
133.803
124.268
110.356
82.0041
56.9416
41.9539
31.9434
20.2015
10.4589
6.21665
5.11817
4.80585
4.72489
4.95287
5.32509
5.50006
5.43819
4.83877
4.14026
73.8369
139.467
130.953
134.442
141.664
125.184
125.832
114.751
110.585
110.76
107.28
101.072
106.839
125.851
146.499
154.579
149.703
141.382
132.431
105.196
71.5306
50.1338
36.772
22.136
10.5191
6.12929
5.05207
4.74511
4.66892
4.89596
5.25981
5.42009
5.35304
4.75616
4.0738
69.8857
138.958
132.799
140.428
148.557
129.67
131.601
118.483
110.96
107.791
101.196
98.4193
106.951
126.335
147.347
157.137
154.146
146.299
141.347
125.644
89.6418
60.7907
42.9267
24.7163
10.6816
6.0449
4.9813
4.67943
4.60844
4.83409
5.18862
5.33274
5.2603
4.66617
4.0015
65.8489
137.771
134.846
147.572
156.123
133.54
135.776
121.294
111.279
105.081
96.3208
95.4775
106.514
125.89
145.658
154.676
151.517
143
138.096
133.621
106.579
73.2487
50.3862
28.0607
10.9637
5.96554
4.90634
4.6091
4.54375
4.76748
5.11171
5.23825
5.16026
4.56912
3.92363
61.7626
135.981
138.322
155.879
164.622
137.816
139.171
123.985
112.538
103.95
94.116
94.425
107.22
126.041
143.69
150.709
146.244
136.529
129.767
129.209
115.588
85.0004
58.5943
32.2184
11.3807
5.89298
4.82767
4.53444
4.47511
4.69635
5.02931
5.13687
5.0533
4.46539
3.84052
57.7502
133.678
144.778
165.206
174.018
143.261
142.588
127.252
115.218
104.916
94.7619
95.9093
109.664
127.154
141.998
146.438
140.257
129.266
120.607
119.051
114.304
92.3581
66.2032
37.0675
11.9416
5.82863
4.74573
4.45576
4.40285
4.62093
4.94164
5.02892
4.93981
4.35538
3.75252
53.8399
130.942
155.935
175.328
184.088
150.33
146.771
131.54
119.52
108.14
98.2
100.028
113.976
129.174
140.527
142.002
133.988
121.824
111.76
107.946
106.156
93.18
71.3947
42.2028
12.6439
5.77337
4.66094
4.3734
4.32726
4.54147
4.84897
4.91473
4.82026
4.23957
3.66002
50.1273
127.759
171.999
185.939
194.651
159.053
152.233
137.217
125.577
113.656
104.32
106.801
120.212
132.068
139.217
137.386
127.48
114.291
103.285
97.5854
95.597
88.4826
72.9237
46.9212
13.4685
5.72742
4.57367
4.28765
4.24865
4.45823
4.75158
4.7947
4.69513
4.11848
3.56345
46.6135
123.964
190.92
196.682
205.52
169.267
159.292
144.553
133.482
121.505
113.196
116.345
128.491
135.856
138.069
132.636
120.805
106.746
95.1425
88.2528
85.2115
80.923
70.9234
50.4173
14.3782
5.69031
4.48423
4.19882
4.16729
4.37147
4.64976
4.66924
4.56495
3.99268
3.46327
43.349
119.309
207.878
207.095
216.488
180.778
168.096
153.739
143.353
131.747
124.924
128.885
139.043
140.701
137.199
127.899
114.129
99.3409
87.3982
79.8942
75.9446
72.7356
66.5837
52.1354
15.3219
5.66083
4.39284
4.10719
4.08347
4.28145
4.54383
4.53882
4.4303
3.86277
3.35994
40.3033
113.715
218.145
216.706
227.363
193.356
178.644
164.864
155.263
144.473
139.748
144.736
152.17
146.803
136.75
123.346
107.654
92.2678
80.178
72.4481
67.9741
65.1092
61.251
52.0176
16.2449
5.63707
4.29968
4.01304
3.99745
4.18843
4.43411
4.40392
4.29177
3.72937
3.25398
37.4893
107.537
221.149
225.159
237.951
206.712
190.805
177.908
169.258
159.737
157.802
164.205
168.192
154.448
136.93
119.177
101.587
85.7057
73.602
65.8816
61.2174
58.471
55.8731
50.4462
17.0975
5.61656
4.20486
3.91661
3.9095
4.09268
4.32095
4.26507
4.14998
3.59314
3.14588
34.8769
101.684
219.895
232.39
248.084
220.518
204.33
192.716
185.27
177.531
179.193
187.471
187.28
163.823
137.896
115.553
96.0966
79.7946
67.7531
60.1653
55.5291
52.8696
50.9385
47.9809
17.8399
5.59636
4.10842
3.81814
3.81983
3.99446
4.20469
4.12281
4.00554
3.45474
3.03616
32.4767
97.1944
217.398
238.603
257.629
234.419
218.881
209.013
203.139
197.709
203.688
214.355
209.252
174.968
139.757
112.605
91.3055
74.6236
62.6674
55.2569
50.7623
48.2062
46.6225
45.1217
18.4422
5.57309
4.01036
3.71784
3.72868
3.89401
4.08569
3.97771
3.85911
3.31486
2.92533
30.2708
94.0885
215.335
244.045
266.488
248.063
234.058
226.42
222.571
220.012
230.892
244.176
233.265
187.459
142.421
110.351
87.2651
70.2275
58.3416
51.0974
46.7833
44.3433
42.9358
42.2109
18.8814
5.54308
3.91065
3.61593
3.63625
3.7916
3.96432
3.83035
3.71131
3.17414
2.81389
28.2673
92.511
213.818
248.866
274.577
261.121
249.439
244.507
243.22
244.06
260.079
275.711
257.755
200.338
145.59
108.72
83.957
66.5888
54.7403
47.6171
43.4742
41.1462
39.8184
39.4376
19.1396
5.50251
3.80922
3.5126
3.54275
3.68748
3.84094
3.68133
3.56278
3.03326
2.70233
26.4614
92.5499
212.696
253.129
281.826
273.307
264.606
262.84
264.697
269.474
290.595
307.486
280.701
212.033
148.659
107.504
81.2897
63.6436
51.8055
44.7413
40.7322
38.4971
37.1879
36.8824
19.2026
5.44757
3.70603
3.40806
3.44835
3.5819
3.71594
3.53124
3.41413
2.89283
2.59111
24.8623
94.2087
211.85
256.829
288.17
284.401
279.203
281.053
286.702
295.952
321.808
338.117
300.333
221.015
150.93
106.448
79.1272
61.2937
49.4607
42.3951
38.4686
36.2965
34.9616
34.5607
19.0614
5.3748
3.60106
3.30252
3.35325
3.47511
3.58969
3.38069
3.26596
2.75347
2.48068
23.4808
97.3323
211.221
259.937
293.574
294.276
292.975
298.903
309.074
323.425
353.508
366.678
315.574
226.33
151.789
105.281
77.3132
59.4216
47.618
40.5061
36.607
34.4629
33.0649
32.4543
18.7133
5.2814
3.49432
3.19618
3.25762
3.36736
3.46258
3.23026
3.11884
2.61575
2.37144
22.3333
101.433
210.769
262.415
298.026
302.901
305.813
316.347
331.932
352.138
385.771
392.752
326.2
228.004
151.063
103.842
75.7103
57.9079
46.1819
39.0046
35.0817
32.9283
31.4332
30.5295
18.1639
5.16558
3.38588
3.08926
3.16164
3.25891
3.33499
3.08052
2.97329
2.48019
2.26377
21.4546
105.598
210.463
264.236
301.553
310.342
317.764
333.57
355.726
382.795
419.195
416.38
332.5
226.556
148.917
102.069
74.2131
56.6447
45.0577
37.8238
33.8359
31.6372
30.0116
28.7481
17.4281
5.02686
3.27589
2.982
3.06548
3.15001
3.2073
2.93205
2.82983
2.34727
2.15801
20.8892
108.71
210.266
265.385
304.208
316.736
329.034
351.037
381.364
416.591
454.591
437.768
335.007
222.699
145.707
100.004
72.7552
55.5424
44.1564
36.8992
32.82
30.543
28.7541
27.0734
16.5302
4.86614
3.16457
2.87463
2.96933
3.04092
3.07988
2.78536
2.6889
2.21743
2.05447
20.7351
110.16
210.136
265.867
306.071
322.28
339.98
369.519
410.265
455.251
492.906
456.976
334.144
216.967
141.712
97.6941
71.2938
54.5311
43.4007
36.1688
31.9898
29.6069
27.6221
25.4728
15.502
4.6857
3.0522
2.76741
2.87335
2.93188
2.95309
2.64096
2.55094
2.09104
1.95341
21.1259
110.371
210.021
265.698
307.242
327.218
351.107
390.133
444.432
500.745
534.331
473.383
330.087
209.723
137.116
95.1778
69.7984
53.5569
42.7265
35.5747
31.3058
28.7958
26.5831
23.9194
14.3806
4.48894
2.93915
2.66061
2.77772
2.82315
2.8273
2.49932
2.41631
1.96845
1.85507
22.2957
110.472
209.859
264.903
307.833
331.836
363.068
414.359
486.286
554.465
577.184
485.174
322.602
201.097
131.968
92.4464
68.2364
52.5769
42.0831
35.0647
30.7317
28.0818
25.6102
22.3932
13.2047
4.28001
2.82581
2.55448
2.68262
2.71498
2.70285
2.36087
2.28534
1.84993
1.75964
24.5223
111.464
209.581
263.506
307.965
336.46
376.67
444.015
538.068
615.082
615.812
488.932
311.101
191.092
126.257
89.4654
66.5706
51.5537
41.43
34.5941
30.2348
27.4408
24.6808
20.8813
12.012
4.06336
2.71261
2.44929
2.58822
2.6076
2.58007
2.226
2.15834
1.73572
1.66729
28.1637
113.794
209.118
261.525
307.772
341.464
392.883
481.074
600.055
675.106
639.798
480.182
294.831
179.618
119.92
86.1736
64.7551
50.4519
40.7345
34.1263
29.7855
26.8523
23.7768
19.3777
10.8356
3.84333
2.59998
2.34533
2.4947
2.50127
2.45929
2.09506
2.03554
1.62602
1.57816
33.4954
117.404
208.406
258.967
307.401
347.281
412.856
527.154
667.118
718.414
636.565
455.308
273.366
166.64
112.908
82.5077
62.7401
49.2361
39.9678
33.632
29.3579
26.2985
22.8834
17.8825
9.70296
3.62376
2.48834
2.24284
2.40224
2.39623
2.34082
1.96838
1.91717
1.52098
1.49235
40.701
121.969
207.389
255.837
307.03
354.441
437.935
582.173
724.692
725.131
599.344
414.316
247.115
152.259
105.199
78.4096
60.4741
47.8705
39.1042
33.0878
28.9304
25.7646
21.9892
16.4011
8.63436
3.40787
2.37809
2.14208
2.31101
2.29269
2.22495
1.84623
1.80341
1.42073
1.40996
49.6321
127.091
206.02
252.132
306.885
363.637
469.631
641.536
750.388
685.125
533.109
361.824
217.56
136.823
96.8604
73.853
57.9132
46.3209
38.1199
32.4752
28.4854
25.2377
21.0854
14.9429
7.64328
3.19804
2.26957
2.0433
2.22119
2.19091
2.11198
1.72888
1.69441
1.32534
1.33105
59.8743
132.436
204.255
247.85
307.283
375.853
509.26
691.961
726.914
606.917
451.963
305.035
186.864
120.887
88.0447
68.8528
55.0286
44.5582
36.9948
31.7794
28.0092
24.7072
20.1657
13.5193
6.73704
2.99595
2.16313
1.94675
2.13295
2.09111
2.00219
1.61655
1.5903
1.23488
1.25567
70.5911
137.787
202.05
242.991
308.702
392.583
556.286
710.956
656.176
510.377
370.031
250.346
157.171
105.13
79
63.4832
51.8188
42.5642
35.7149
30.9909
27.4919
24.1642
19.2257
12.1431
5.91792
2.80257
2.05905
1.85266
2.04647
1.99353
1.89583
1.50942
1.49117
1.14939
1.18386
80.9187
143.063
199.354
237.552
311.933
416.015
602.98
678.608
556.296
413.511
296.072
201.565
130.022
90.1775
70.0211
57.8721
48.3168
40.339
34.2774
30.1061
26.9274
23.6016
18.2626
10.8267
5.1845
2.61836
1.9576
1.76126
1.96193
1.89841
1.79316
1.40765
1.3971
1.06886
1.11564
89.3733
148.33
196.094
231.535
318.338
448.18
625.376
594.781
447.967
326.537
233.304
160.037
106.213
76.509
61.4118
52.193
44.5941
37.9067
32.6944
29.1306
26.3136
23.0136
17.2756
9.58176
4.53278
2.44338
1.85903
1.67277
1.8795
1.80598
1.69442
1.31137
1.30813
0.993281
1.05101
95.1437
153.875
192.157
224.959
330.162
484.618
588.869
479.403
345.954
253.136
181.862
125.667
85.9302
64.3869
53.4207
46.6287
40.7522
35.3177
30.9977
28.0806
25.6529
22.3966
16.2656
8.41823
3.95729
2.2774
1.76356
1.5874
1.79938
1.71648
1.59981
1.22064
1.22426
0.922594
0.989965
0.00337748
0.00251719
0.00226828
0.00213188
0.00209954
0.00211375
0.00214846
0.01179
0.317889
0.764475
1.23968
1.81558
2.46815
3.19849
3.90836
4.65258
5.58695
7.44492
13.4973
29.7217
201.914
159.79
0.00334394
0.00224494
0.00183847
0.00158881
0.00146675
0.00143256
0.00146606
0.0121975
0.324527
0.78044
1.26414
1.84294
2.4938
3.22108
3.9273
4.66611
5.59277
7.44531
13.5041
29.6733
202.431
169.625
0.00354012
0.0023745
0.001881
0.00153975
0.00131535
0.00118419
0.00115415
0.0124414
0.328972
0.792085
1.28336
1.86404
2.51251
3.23636
3.93948
4.67487
5.59773
7.44789
13.5151
29.6435
202.137
179.009
0.00367036
0.00251499
0.00200296
0.00162948
0.00135564
0.00116315
0.00103122
0.0125763
0.331479
0.799578
1.29716
1.8787
2.52415
3.24431
3.94499
4.67908
5.60219
7.45323
13.5298
29.6325
201.098
187.781
0.00392227
0.00276109
0.00222623
0.00182499
0.00151543
0.00127983
0.00100275
0.012628
0.332214
0.803048
1.30544
1.88674
2.52862
3.24496
3.94394
4.67893
5.60638
7.46181
13.5478
29.6407
199.366
196.41
0.00405979
0.00292687
0.00239778
0.00199442
0.0016762
0.00142522
0.000993734
0.0126103
0.331293
0.802615
1.30811
1.8881
2.52589
3.23836
3.93639
4.67448
5.61039
7.47402
13.5686
29.6685
196.977
205.071
0.00434022
0.00320492
0.00265947
0.0022376
0.00189879
0.0016262
0.00106479
0.0125299
0.328811
0.798414
1.30523
1.88278
2.51598
3.22459
3.92242
4.66575
5.61418
7.49009
13.5914
29.7164
193.974
213.769
0.00447818
0.00337636
0.00284319
0.00242626
0.002088
0.00181202
0.00119233
0.0123886
0.324859
0.790606
1.2969
1.87088
2.499
3.20374
3.90207
4.65265
5.61752
7.51013
13.6155
29.7846
190.409
222.444
0.00478382
0.00368147
0.00313467
0.0027017
0.00234538
0.00205117
0.00131794
0.0121859
0.319526
0.779393
1.28335
1.85258
2.4751
3.17594
3.87535
4.635
5.62007
7.53405
13.6402
29.8732
186.339
231.033
0.00490832
0.00384603
0.00331879
0.00289756
0.00254851
0.00225724
0.00140744
0.0119201
0.312909
0.765012
1.26489
1.82816
2.44454
3.14134
3.8423
4.61256
5.62126
7.56158
13.6647
29.9817
181.827
239.458
0.00522921
0.00416811
0.00363019
0.00319563
0.00283084
0.00252351
0.00152142
0.0115897
0.305107
0.747735
1.2419
1.79797
2.4076
3.10015
3.80291
4.585
5.62042
7.59221
13.6882
30.109
176.937
247.615
0.00533895
0.00432201
0.00380914
0.0033919
0.00304018
0.0027414
0.00163963
0.011192
0.296221
0.727859
1.21482
1.76245
2.36467
3.05257
3.75722
4.55195
5.61668
7.62519
13.7098
30.2532
171.736
255.378
0.00567194
0.00465788
0.00413697
0.00370876
0.00334316
0.00302997
0.00184416
0.0107241
0.286344
0.705695
1.1841
1.7221
2.31614
2.9989
3.70526
4.51302
5.60903
7.65948
13.7287
30.4114
166.292
262.609
0.00575594
0.00479045
0.00430039
0.00389551
0.0035493
0.00325084
0.00212085
0.0101806
0.275558
0.68155
1.15025
1.67744
2.26252
2.93942
3.64709
4.4678
5.59637
7.69376
13.7436
30.5797
160.671
269.164
0.00609197
0.00513046
0.00463463
0.00422096
0.00386283
0.00355185
0.00252636
0.0095561
0.263921
0.655718
1.11374
1.62905
2.20429
2.87451
3.58283
4.41591
5.57747
7.72638
13.7533
30.753
154.934
274.906
0.00615189
0.00524076
0.00477939
0.00439325
0.00405928
0.00376803
0.00299141
0.0088429
0.251465
0.628461
1.07502
1.57753
2.14202
2.80455
3.51261
4.35701
5.55108
7.75539
13.7563
30.9248
149.141
279.713
0.00648666
0.00558047
0.00511518
0.00472201
0.00437761
0.00407515
0.00350473
0.00803658
0.238178
0.599993
1.03452
1.52347
2.07626
2.72998
3.43665
4.29084
5.51594
7.77851
13.7509
31.0877
143.343
283.485
0.00651811
0.00566355
0.00523573
0.00487372
0.00455773
0.00427953
0.00389819
0.00713474
0.224004
0.570469
0.992606
1.46742
2.00761
2.65126
3.35521
4.21721
5.47085
7.79322
13.7351
31.2327
137.587
286.146
0.00683894
0.00599017
0.00556024
0.00519308
0.00486852
0.00458094
0.0042757
0.00616583
0.208833
0.539963
0.949567
1.40994
1.93667
2.56892
3.26863
4.13606
5.41475
7.79676
13.7063
31.35
131.91
287.646
0.00685328
0.00605408
0.00566155
0.00532638
0.0050317
0.00477041
0.00452785
0.00519909
0.192501
0.508459
0.905615
1.35151
1.86402
2.48347
3.17729
4.04746
5.34674
7.78626
13.662
31.4286
126.345
287.956
0.00716006
0.00636743
0.00597426
0.00563534
0.0053334
0.00506378
0.00482486
0.00441283
0.174801
0.475831
0.860852
1.29253
1.79025
2.39548
3.08165
3.9516
5.26618
7.75884
13.5991
31.4568
120.917
287.064
0.00715645
0.00641108
0.00605481
0.00574827
0.0054772
0.00523543
0.00502257
0.00406647
0.155514
0.441835
0.815255
1.23331
1.71589
2.30553
2.98222
3.8488
5.17268
7.71173
13.5142
31.4222
115.643
284.971
0.00744656
0.00670801
0.00635196
0.00604252
0.00576518
0.00551595
0.00529403
0.00424781
0.134482
0.406116
0.768645
1.17404
1.64143
2.21421
2.87956
3.73953
5.06617
7.64245
13.4039
31.3124
110.536
281.687
0.0074304
0.00673579
0.00641503
0.00613727
0.00589052
0.00566943
0.00547042
0.0047105
0.111743
0.368229
0.72067
1.11474
1.56727
2.12208
2.77426
3.62436
4.94688
7.54892
13.2647
31.1148
105.602
277.227
0.00770419
0.00701641
0.0066964
0.00641625
0.0061639
0.00593587
0.00572893
0.00525869
0.0877781
0.327706
0.670778
1.05523
1.49371
2.02973
2.66697
3.50399
4.81538
7.42962
13.0932
30.8176
100.841
271.609
0.00767659
0.00702936
0.00674275
0.00649324
0.00627078
0.00607072
0.00588812
0.00562387
0.0638131
0.284204
0.618227
0.995069
1.42086
1.93766
2.55833
3.37919
4.67252
7.28369
12.8863
30.41
96.2477
264.858
0.00793335
0.00729266
0.007007
0.00675529
0.00652768
0.00632105
0.00613185
0.00592939
0.0419337
0.237766
0.562114
0.933528
1.34861
1.8463
2.449
3.25083
4.51942
7.11104
12.6414
29.8832
91.814
257.006
0.0078994
0.00729547
0.00704074
0.00681798
0.00661879
0.00643911
0.00627422
0.00611282
0.0245929
0.189229
0.501481
0.86953
1.27655
1.75593
2.3396
3.1198
4.35746
6.91234
12.3564
29.2304
87.5242
248.094
0.00814125
0.00754344
0.00728963
0.00706468
0.00686054
0.00667444
0.00650327
0.00634065
0.0134717
0.140653
0.43555
0.80165
1.20384
1.66662
2.2307
2.98706
4.18821
6.68907
12.0304
28.4482
83.359
238.179
0.00810325
0.0075386
0.00731324
0.00711542
0.00693807
0.00677769
0.00663006
0.00648956
0.00824232
0.0955223
0.364181
0.728165
1.12919
1.57806
2.12271
2.85349
4.01339
6.44349
11.6632
27.5363
79.293
227.336
0.00833032
0.00777131
0.00754674
0.00734667
0.00716457
0.00699795
0.00684418
0.0066988
0.00676183
0.058046
0.288593
0.647243
1.05076
1.48948
2.01581
2.71995
3.83484
6.17857
11.2558
26.4989
75.2975
215.66
0.00829256
0.00776309
0.00756434
0.00738926
0.00723195
0.00708935
0.00695779
0.0068327
0.00664479
0.0313946
0.212216
0.557407
0.966154
1.3995
1.90979
2.58709
3.65441
5.89794
10.8105
25.3441
71.3389
203.272
0.00850611
0.0079818
0.00778371
0.00760637
0.00744451
0.00729589
0.00715827
0.00702805
0.00685657
0.0161011
0.141089
0.458474
0.87251
1.30601
1.8039
2.45531
3.47387
5.60578
10.3307
24.0846
67.3834
190.309
0.00847094
0.00797285
0.00779798
0.00764349
0.00750436
0.00737795
0.00726105
0.00714977
0.00702427
0.00942861
0.0826572
0.353057
0.766895
1.2061
1.69665
2.32454
3.29476
5.30663
9.82131
22.737
63.398
176.933
0.00867176
0.00817839
0.00800406
0.00784729
0.00770386
0.0075717
0.00744893
0.00733248
0.00721346
0.00737632
0.0424033
0.248085
0.647293
1.09614
1.58565
2.19407
3.11821
5.0052
9.28872
21.3218
59.3569
163.315
0.00864153
0.00817124
0.00801765
0.00788156
0.00775874
0.00764688
0.0075432
0.00744428
0.00734453
0.00704769
0.0203423
0.154592
0.514627
0.972031
1.46757
2.06236
2.94465
4.70601
8.74044
19.8622
55.245
149.633
0.00883172
0.0083657
0.00821248
0.00807409
0.00794715
0.00782978
0.00772037
0.00761628
0.00751346
0.00723605
0.011149
0.0837932
0.375637
0.830326
1.33805
1.9269
2.77366
4.41295
8.18503
18.384
51.0644
136.064
0.00880911
0.00836334
0.00822849
0.00810868
0.00800025
0.00790124
0.00780919
0.00772112
0.00763333
0.00746202
0.00827104
0.0403467
0.244406
0.670531
1.19203
1.78412
2.60373
4.12881
7.63148
16.9135
46.8365
122.777
0.00898975
0.00854789
0.00841332
0.00829127
0.00817903