/*--------------------------------*- C++ -*----------------------------------*\
| =========                 |                                                 |
| \\      /  F ield         | OpenFOAM: The Open Source CFD Toolbox           |
|  \\    /   O peration     | Version:  v1912                                 |
|   \\  /    A nd           | Website:  www.openfoam.com                      |
|    \\/     M anipulation  |                                                 |
\*---------------------------------------------------------------------------*/
FoamFile
{
    version     2.0;
    format      ascii;
    class       volScalarField;
    location    "130";
    object      nut;
}
// * * * * * * * * * * * * * * * * * * * * * * * * * * * * * * * * * * * * * //

dimensions      [0 2 -1 0 0 0 0];


internalField   nonuniform List<scalar> 
12441
(
5.82204e-24
1.79105e-20
8.1072e-20
3.32632e-19
1.0688e-18
3.89084e-18
1.01119e-17
2.50202e-17
6.14264e-17
1.27621e-16
3.05871e-16
7.72035e-16
2.18189e-15
7.40961e-15
1.03751e-13
1.89533e-11
0.000203196
0.00107791
0.00342346
0.0027643
0.00363821
0.00775321
6.34216e-24
3.03473e-20
1.11776e-19
4.24117e-19
1.30296e-18
4.81162e-18
1.22091e-17
3.00359e-17
7.36808e-17
1.54606e-16
3.80173e-16
1.03025e-15
2.82994e-15
9.38674e-15
1.1322e-13
3.90247e-11
5.95743e-05
0.00130873
0.00391336
0.00300865
0.0039995
0.00781733
6.36492e-24
3.59096e-20
1.20826e-19
4.48313e-19
1.37865e-18
4.91106e-18
1.29401e-17
3.20687e-17
8.05927e-17
1.71945e-16
4.18306e-16
1.11862e-15
2.78675e-15
7.6751e-15
5.35977e-14
6.57748e-12
1.12768e-05
0.000953734
0.00154813
0.00283577
0.00415173
0.0078909
6.3194e-24
3.77066e-20
1.18581e-19
4.2949e-19
1.32627e-18
4.71794e-18
1.25248e-17
3.13556e-17
7.85754e-17
1.73859e-16
4.24207e-16
1.15526e-15
2.61218e-15
8.48583e-15
3.85606e-14
1.54423e-12
1.63639e-06
0.000659491
0.00114841
0.00275174
0.00431374
0.0079647
6.28534e-24
4.38992e-20
1.29828e-19
4.58502e-19
1.40362e-18
4.78348e-18
1.3102e-17
3.2823e-17
8.43807e-17
1.87717e-16
4.54627e-16
1.28602e-15
3.02115e-15
4.07767e-14
2.4759e-13
2.29941e-12
1.4008e-07
0.000460969
0.0011182
0.00273415
0.00445434
0.00803394
6.23518e-24
4.13037e-20
1.20587e-19
4.29372e-19
1.34367e-18
4.62638e-18
1.2762e-17
3.2423e-17
8.29811e-17
1.92896e-16
4.7746e-16
1.44715e-15
4.53561e-15
1.3308e-12
1.19153e-11
5.10774e-11
4.59935e-07
0.000415695
0.00117072
0.00278908
0.00458285
0.00809948
6.20027e-24
5.02813e-20
1.37846e-19
4.75963e-19
1.46112e-18
4.79654e-18
1.36046e-17
3.44832e-17
9.07923e-17
2.11343e-16
5.21379e-16
2.0022e-15
2.50411e-14
4.15131e-11
6.58918e-10
9.3837e-09
1.87723e-05
0.000418617
0.00134209
0.00297948
0.00473383
0.00816218
6.15051e-24
4.34682e-20
1.23219e-19
4.40346e-19
1.40918e-18
4.7272e-18
1.35247e-17
3.48774e-17
9.14166e-17
2.24095e-16
5.73136e-16
5.44205e-15
6.10142e-13
2.25575e-09
8.42643e-08
4.97112e-06
0.000192605
0.000462248
0.00179277
0.00337806
0.00493594
0.00822577
6.1177e-24
5.57227e-20
1.46183e-19
4.9988e-19
1.55516e-18
4.96282e-18
1.46239e-17
3.76028e-17
1.02176e-16
2.51207e-16
6.46017e-16
6.14157e-14
2.59248e-11
7.42993e-08
1.04157e-05
0.000151539
0.000765932
0.000798561
0.00273941
0.0040676
0.00522456
0.00829204
6.07087e-24
4.43656e-20
1.25484e-19
4.56828e-19
1.50864e-18
4.95826e-18
1.47611e-17
3.87617e-17
1.04991e-16
2.75427e-16
7.49444e-16
1.68386e-12
1.08402e-09
4.43508e-06
0.0001878
0.00058318
0.00154223
0.00145321
0.00444298
0.00512713
0.00561502
0.00836448
6.04168e-24
6.02792e-20
1.53487e-19
5.26119e-19
1.67384e-18
5.21026e-18
1.60383e-17
4.20703e-17
1.19413e-16
3.177e-16
8.93002e-16
5.2364e-11
5.51174e-08
8.11939e-05
0.000680863
0.00151393
0.00313655
0.00275391
0.00725885
0.00664835
0.00612042
0.00844366
5.9963e-24
4.46447e-20
1.27784e-19
4.77148e-19
1.6349e-18
5.28589e-18
1.64174e-17
4.41064e-17
1.25635e-16
3.65035e-16
1.15988e-15
1.45824e-09
3.24647e-06
0.000333579
0.00139998
0.00312268
0.00607674
0.00523376
0.0115343
0.00866103
0.00672713
0.00853143
5.97066e-24
6.4169e-20
1.60504e-19
5.54031e-19
1.81617e-18
5.54642e-18
1.79229e-17
4.82624e-17
1.46849e-16
4.45187e-16
1.6963e-15
3.52458e-08
7.18854e-05
0.000985357
0.00316951
0.00637614
0.0113811
0.00960709
0.0173557
0.0111321
0.00742228
0.00862633
5.92672e-24
4.43407e-20
1.29718e-19
4.99529e-19
1.78452e-18
5.69722e-18
1.85495e-17
5.1432e-17
1.60023e-16
5.59773e-16
3.60529e-15
7.96961e-07
0.000333479
0.00236193
0.0065032
0.0119692
0.0198663
0.0164465
0.0244111
0.0139212
0.00816942
0.00872852
5.90431e-24
6.75354e-20
1.66709e-19
5.8285e-19
1.97929e-18
5.94483e-18
2.02851e-17
5.68294e-17
1.96247e-16
7.79504e-16
1.65339e-14
1.51694e-05
0.00103078
0.00516589
0.0121528
0.0204589
0.0318091
0.0257489
0.0319938
0.0168617
0.00894516
0.00883515
5.86066e-24
4.39739e-20
1.32046e-19
5.25032e-19
1.95926e-18
6.19128e-18
2.12215e-17
6.17366e-17
2.28411e-16
1.2176e-15
3.02485e-13
0.000135539
0.00239809
0.00997722
0.0206109
0.0319254
0.0466605
0.0366563
0.039274
0.0197501
0.0097098
0.00894576
5.84153e-24
7.05603e-20
1.7356e-19
6.1536e-19
2.172e-18
6.44452e-18
2.33287e-17
6.94344e-17
3.08528e-16
2.30726e-15
1.2615e-11
0.000500333
0.0051222
0.0172391
0.0317198
0.0458926
0.0629252
0.0476341
0.0455474
0.0224505
0.0104472
0.00905718
5.79762e-24
4.35167e-20
1.34542e-19
5.53378e-19
2.16229e-18
6.77784e-18
2.46407e-17
7.73015e-17
4.089e-16
5.45151e-15
5.48554e-10
0.00121942
0.0096974
0.027062
0.0450911
0.061225
0.0784156
0.0570203
0.0504854
0.0248464
0.0111286
0.00916919
5.78122e-24
7.32839e-20
1.80344e-19
6.49382e-19
2.38953e-18
7.01695e-18
2.72032e-17
8.91419e-17
6.62353e-16
1.69398e-14
4.41196e-08
0.00279358
0.0165709
0.0388751
0.0595859
0.0763482
0.0908624
0.0637295
0.0540929
0.0269147
0.0117541
0.00927899
5.73673e-24
4.30674e-20
1.36921e-19
5.8266e-19
2.38868e-18
7.445e-18
2.90336e-17
1.02411e-16
1.08156e-15
7.53517e-14
8.53025e-06
0.00560279
0.0256673
0.0520162
0.0740844
0.0894999
0.0986207
0.0675837
0.0566527
0.0286341
0.0123097
0.00938714
5.72362e-24
7.57497e-20
1.86859e-19
6.83439e-19
2.63092e-18
7.67871e-18
3.23281e-17
1.22341e-16
2.1958e-15
7.80945e-13
0.000163727
0.0102083
0.0364767
0.0653875
0.087047
0.0992698
0.101218
0.0692326
0.0584996
0.0300502
0.0128098
0.00949146
5.67831e-24
4.2448e-20
1.38623e-19
6.11198e-19
2.63712e-18
8.20079e-18
3.49712e-17
1.46598e-16
4.34466e-15
1.34198e-11
0.000615864
0.0168249
0.0482073
0.0781691
0.0974667
0.10488
0.0994234
0.0696554
0.0599564
0.0311823
0.0132527
0.00959327
5.66789e-24
7.80429e-20
1.92528e-19
7.15749e-19
2.89166e-18
8.42435e-18
3.94617e-17
1.83722e-16
1.0285e-14
1.66255e-10
0.00153738
0.0252466
0.060011
0.0893627
0.104458
0.106438
0.0948474
0.0697126
0.0612247
0.0320977
0.0136645
0.00969106
5.62204e-24
4.19777e-20
1.39843e-19
6.38288e-19
2.90481e-18
9.0458e-18
4.35398e-17
2.31701e-16
2.24432e-14
1.55951e-09
0.00333531
0.03498
0.0711485
0.0984433
0.108026
0.104732
0.0892508
0.0698814
0.0624361
0.0328312
0.0140533
0.00978684
5.61514e-24
8.02956e-20
1.97636e-19
7.46086e-19
3.1731e-18
9.2738e-18
5.02997e-17
3.06654e-16
5.64903e-14
1.37903e-08
0.00635361
0.0452581
0.0810649
0.10495
0.10848
0.100974
0.083973
0.0703091
0.0636343
0.0334619
0.0144542
0.00987966
5.5675e-24
4.18051e-20
1.40814e-19
6.64168e-19
3.19446e-18
1.00015e-17
5.72025e-17
4.08824e-16
1.30612e-13
3.19074e-07
0.0108172
0.0554294
0.0893931
0.108973
0.106713
0.0963438
0.0796977
0.0709441
0.0648413
0.0340372
0.0148813
0.00997203
5.56311e-24
8.25042e-20
2.02154e-19
7.74289e-19
3.47493e-18
1.02392e-17
6.8507e-17
5.73772e-16
3.92879e-13
1.86552e-05
0.0165715
0.0648827
0.0959476
0.110698
0.103527
0.091759
0.076568
0.0716839
0.0660417
0.0346406
0.015373
0.0100634
5.51433e-24
4.18724e-20
1.41272e-19
6.87835e-19
3.50419e-18
1.10788e-17
8.13993e-17
8.11105e-16
1.83175e-12
0.000207586
0.0232969
0.0732698
0.1007
0.110667
0.0997809
0.0877367
0.0744298
0.0724325
0.0672251
0.0353158
0.0159421
0.0101564
5.5133e-24
8.46959e-20
2.05854e-19
7.9949e-19
3.79841e-18
1.13516e-17
1.02581e-16
1.20524e-15
1.28121e-11
0.000674427
0.0304671
0.0803389
0.10376
0.109328
0.0959808
0.0844812
0.0730402
0.0731341
0.0683633
0.0361272
0.0166197
0.0102507
5.46228e-24
4.20471e-20
1.41017e-19
7.0874e-19
3.83653e-18
1.23155e-17
1.28939e-16
1.79731e-15
7.41625e-11
0.00130858
0.0376737
0.086017
0.105334
0.107227
0.0925152
0.0819781
0.0721757
0.0737598
0.069439
0.0370888
0.0174054
0.0103488
5.46327e-24
8.68268e-20
2.09033e-19
8.22073e-19
4.14549e-18
1.26611e-17
1.72588e-16
2.81151e-15
3.56682e-10
0.0021741
0.0445103
0.0902825
0.105684
0.104699
0.0894904
0.0801241
0.0716685
0.0743064
0.0704233
0.0382257
0.0183129
0.01045
5.41119e-24
4.2259e-20
1.39949e-19
7.26944e-19
4.19404e-18
1.37535e-17
2.30328e-16
4.39339e-15
1.38809e-09
0.00331896
0.0507403
0.0932267
0.105083
0.102067
0.086971
0.0787839
0.0714053
0.0747792
0.0712981
0.0395128
0.0193208
0.0105565
5.41529e-24
8.89385e-20
2.11468e-19
8.42649e-19
4.52506e-18
1.42018e-17
3.26601e-16
7.08828e-15
4.74949e-09
0.00480639
0.0561551
0.0949611
0.103792
0.0994689
0.0848882
0.0778374
0.0713151
0.0751922
0.0720357
0.040941
0.0204215
0.010667
5.35974e-24
4.22911e-20
1.37858e-19
7.43225e-19
4.58844e-18
1.54671e-17
4.58642e-16
1.13054e-14
1.44615e-08
0.00666327
0.0606961
0.095661
0.102032
0.097038
0.0832033
0.0771824
0.0713555
0.0755579
0.0726187
0.0424638
0.021574
0.0107831
5.36577e-24
8.84774e-20
2.10391e-19
8.57497e-19
4.93914e-18
1.60573e-17
6.78389e-16
1.85192e-14
4.28164e-08
0.00889846
0.0643401
0.0954921
0.0999839
0.0947872
0.0818221
0.0767438
0.0715026
0.0758912
0.0730212
0.0440653
0.0227578
0.0109032
5.30619e-24
4.14978e-20
1.32623e-19
7.51981e-19
5.01399e-18
1.74779e-17
9.813e-16
2.9944e-14
2.19437e-07
0.0115505
0.0671817
0.0946462
0.0977832
0.0927583
0.0807008
0.0764633
0.0717439
0.0762032
0.0732279
0.045709
0.0239253
0.0110282
5.3126e-24
8.52821e-20
2.03875e-19
8.62325e-19
5.38382e-18
1.8197e-17
1.47558e-15
5.74959e-14
1.09155e-05
0.0146933
0.0693275
0.0932835
0.0955307
0.0909179
0.0797652
0.0763017
0.0720743
0.0765071
0.0732171
0.0474046
0.0250589
0.0111563
5.24626e-24
4.16265e-20
1.2737e-19
7.58069e-19
5.48696e-18
1.98744e-17
2.14417e-15
4.6543e-13
0.000169433
0.0184936
0.0709439
0.0915672
0.0932939
0.0892798
0.0789901
0.076229
0.0724929
0.0768123
0.0729803
0.0491507
0.0261221
0.0112883
5.24956e-24
5.38011e-20
1.54759e-19
7.99729e-19
5.77179e-18
2.06507e-17
3.20342e-15
2.31431e-11
0.000970472
0.0231678
0.0721611
0.089621
0.0911181
0.0878054
0.0783244
0.0762277
0.0730016
0.0771301
0.072506
0.050994
0.0271205
0.011422
5.17286e-24
4.32918e-20
1.14513e-19
7.2465e-19
5.94515e-18
2.35656e-17
4.66664e-15
1.03353e-09
0.00328684
0.0288479
0.0731069
0.087564
0.089027
0.0865103
0.0777627
0.0762847
0.0736035
0.0774668
0.0718007
0.0529577
0.0280485
0.0115584
5.16615e-24
1.9399e-21
1.12119e-20
4.00788e-19
5.45211e-18
2.44526e-17
7.21169e-15
1.81836e-07
0.00804687
0.0354688
0.0738344
0.0854777
0.0870307
0.0853643
0.0772707
0.0763957
0.0743021
0.0778285
0.0708724
0.0550779
0.0289486
0.0116955
5.07807e-24
1.71205e-20
4.47892e-20
4.17616e-19
5.46685e-18
3.62398e-17
1.80217e-14
4.05564e-05
0.015912
0.0428545
0.0743746
0.0834423
0.0851234
0.0843956
0.0768617
0.0765579
0.0750984
0.0782118
0.0697531
0.0572922
0.0298396
0.0118345
5.0392e-24
6.72123e-22
8.46113e-23
2.35326e-19
5.06909e-18
8.28665e-17
3.71009e-13
0.000663952
0.0272617
0.0507603
0.0746923
0.0815074
0.0832905
0.0835775
0.0765098
0.0767782
0.0759919
0.0786083
0.0684796
0.0594175
0.0307272
0.011976
4.8386e-24
2.10367e-19
4.584e-19
1.03046e-18
7.2673e-18
9.14262e-16
7.18603e-12
0.00346729
0.0421767
0.059079
0.0748644
0.0797614
0.0815164
0.0829376
0.0762289
0.0770538
0.0769679
0.0789558
0.0671014
0.0609925
0.0313059
0.0121338
0.00987657
0.0119749
0.0134495
0.00514551
0.00458982
0.00480228
0.00503777
0.005039
0.00489098
0.00519396
0.00752378
0.0069713
0.00568101
0.00543763
0.00677907
0.00912877
0.0109004
0.0106596
0.0109137
0.0140449
0.0174337
0.020558
0.0243451
0.029375
0.0424923
0.074687
0.0947894
0.103014
0.106063
0.101182
0.09394
0.0900486
0.0907849
0.10131
0.119104
0.00986353
0.012117
0.012721
0.00471319
0.00429299
0.00453891
0.00487989
0.00489197
0.00468367
0.00496642
0.00720326
0.0067698
0.00551025
0.0051842
0.00643044
0.00877502
0.0107368
0.0107526
0.0109372
0.013883
0.0171712
0.0202731
0.024082
0.0292658
0.0423888
0.0745536
0.0946937
0.102925
0.106011
0.101103
0.0938858
0.0900049
0.09077
0.101297
0.119104
0.00983842
0.0121748
0.0115573
0.00414263
0.00396606
0.00420187
0.0046697
0.00465269
0.00434117
0.00459384
0.00636011
0.00609277
0.00510997
0.00484555
0.00575189
0.007558
0.00929869
0.00969794
0.0101455
0.0129745
0.0163976
0.0195941
0.0234767
0.0290129
0.0424561
0.0743802
0.0944289
0.102676
0.105849
0.100895
0.0937324
0.0898751
0.0907017
0.10123
0.119063
0.00979929
0.0121612
0.010189
0.0036181
0.00366932
0.00386009
0.00442066
0.00432266
0.00393656
0.00415312
0.00534627
0.00524202
0.0045682
0.0044378
0.00506014
0.00626175
0.00755704
0.00817916
0.00893461
0.0116423
0.0152359
0.0185611
0.0225348
0.0285627
0.0425932
0.0741404
0.0939972
0.10227
0.10558
0.100556
0.0934799
0.0896586
0.0905796
0.10111
0.118981
0.00974597
0.0120477
0.00878105
0.00318875
0.00340696
0.00352618
0.00413162
0.00393227
0.00350584
0.00365912
0.00432757
0.00436154
0.00395738
0.0039645
0.00441689
0.00515447
0.00598556
0.0066226
0.00759519
0.0101475
0.0138089
0.0172304
0.0212784
0.0278699
0.0427161
0.0738248
0.0934176
0.101725
0.105216
0.100101
0.0931388
0.0893655
0.0904126
0.100946
0.11887
0.00967615
0.0118157
0.00745532
0.00285934
0.00318705
0.00321319
0.00381798
0.00353109
0.0030937
0.00315146
0.00338086
0.00350079
0.00330056
0.00339094
0.00374998
0.0042063
0.00468473
0.00520962
0.00626974
0.00864636
0.0122245
0.0156694
0.0197469
0.0269003
0.0427542
0.0734356
0.0927207
0.10107
0.104781
0.0995495
0.0927267
0.0890125
0.0902153
0.100755
0.118745
0.00959042
0.0114619
0.00629026
0.00262223
0.00302708
0.00294735
0.00351444
0.00317207
0.00274932
0.00269892
0.0025883
0.00271571
0.00264866
0.002754
0.00303904
0.00334066
0.00360347
0.00397737
0.00499532
0.00719206
0.0105634
0.0139505
0.0179952
0.0256335
0.0426463
0.0729826
0.0919438
0.100343
0.104304
0.0989289
0.0922648
0.0886205
0.0900065
0.100558
0.118628
0.00948687
0.0109871
0.00532046
0.0024623
0.00294063
0.0027551
0.00325866
0.0028946
0.0025095
0.00236569
0.00202829
0.00209099
0.00209713
0.0021754
0.00237934
0.00257536
0.00271216
0.00294148
0.00379613
0.00578557
0.00888267
0.0121458
0.0160912
0.024068
0.042339
0.0724793
0.0911276
0.0995806
0.103814
0.0982682
0.0917776
0.0882131
0.0898073
0.100378
0.118543
0.00936733
0.0104031
0.00454411
0.00236088
0.00292928
0.00265311
0.00307733
0.00271508
0.00238534
0.00218052
0.0017249
0.00168591
0.00171787
0.00176009
0.0018886
0.00199566
0.0020466
0.00215643
0.00276324
0.00445586
0.00723652
0.0103273
0.0141124
0.0222251
0.0417854
0.0719401
0.0903124
0.0988238
0.103344
0.0975979
0.0912903
0.0878157
0.0896405
0.100241
0.118515
0.0092307
0.00971999
0.00393844
0.00230152
0.00298371
0.0026458
0.00298254
0.00262988
0.0023646
0.00213163
0.00163233
0.0014938
0.00150903
0.00151952
0.00159789
0.00164223
0.00163423
0.0016642
0.00202423
0.00330789
0.00570133
0.00857009
0.0121416
0.0201534
0.0409452
0.0713775
0.0895356
0.0981098
0.102925
0.0969481
0.0908285
0.087454
0.0895294
0.100172
0.118572
0.00908003
0.00895512
0.0034732
0.00227488
0.00309025
0.00272819
0.00297508
0.00262454
0.00242135
0.00218251
0.00167722
0.00145326
0.00141709
0.00139764
0.0014539
0.0014717
0.00143507
0.00142807
0.00162348
0.00247675
0.00438547
0.00695697
0.0102638
0.0179301
0.0397887
0.0708001
0.0888302
0.0974723
0.102583
0.0963471
0.090417
0.0871533
0.0894972
0.1002
0.11874
0.00891508
0.00812372
0.00311984
0.00227917
0.00323782
0.00289015
0.00305047
0.00268429
0.00252947
0.00229029
0.00178798
0.00149189
0.00138258
0.00133249
0.00138517
0.00140668
0.00136965
0.00135815
0.00148508
0.00201402
0.00339819
0.00557702
0.00856201
0.0156582
0.0383021
0.0702117
0.0882229
0.0969404
0.102343
0.0958208
0.0900789
0.0869382
0.0895667
0.100349
0.119046
0.00874002
0.00724963
0.00285416
0.00231798
0.00342265
0.00312055
0.00320354
0.00279901
0.00266775
0.00242078
0.00191446
0.00155386
0.00136472
0.00128641
0.0013447
0.00138694
0.00136921
0.00137305
0.00149734
0.00185439
0.00278783
0.00450961
0.00711137
0.013457
0.0364959
0.0696117
0.0877346
0.0965377
0.102226
0.0953918
0.0898354
0.0868316
0.0897593
0.100646
0.119515
0.00855535
0.00635751
0.00265576
0.00239737
0.00364947
0.00341033
0.00343111
0.00296374
0.00282456
0.00255474
0.00203042
0.00160849
0.00134466
0.00124537
0.00131389
0.0013829
0.00139432
0.00142411
0.0015779
0.00188847
0.00251677
0.00379532
0.00597
0.0114467
0.0344131
0.0689955
0.08738
0.0962827
0.102246
0.0950795
0.0897052
0.0868547
0.0900952
0.101114
0.12017
0.00836592
0.00548084
0.00250469
0.00252483
0.00393098
0.00375503
0.00373231
0.00317616
0.00299849
0.00268677
0.0021307
0.00164666
0.00131852
0.00120694
0.00128929
0.00138648
0.00143048
0.00149139
0.00168623
0.00202614
0.00249961
0.0034192
0.00516634
0.00972835
0.0321331
0.0683575
0.0871686
0.0961892
0.102415
0.0948996
0.0897047
0.087027
0.0905933
0.101777
0.121035
0.00817267
0.00465404
0.00238399
0.00270948
0.00428673
0.0041581
0.00410747
0.00343956
0.00319495
0.00282044
0.00221948
0.00167165
0.00128957
0.00117247
0.00127179
0.00139806
0.00147579
0.00157058
0.0018103
0.00221455
0.00265005
0.00332448
0.00469153
0.00836571
0.0297671
0.0676929
0.0871058
0.0962668
0.102743
0.094865
0.0898481
0.087366
0.0912708
0.102657
0.12213
0.00798033
0.00391646
0.00230324
0.00296383
0.00473955
0.00463837
0.00456278
0.00375984
0.00342209
0.00296456
0.00230731
0.00169195
0.00126324
0.00114343
0.00126195
0.00141927
0.00153225
0.00166309
0.00195032
0.00243154
0.00290312
0.00344076
0.00450508
0.00737683
0.0274411
0.0670007
0.0871937
0.0965219
0.103235
0.0949857
0.0901474
0.0878879
0.0921439
0.103773
0.123476
0.00778933
0.00330605
0.00229633
0.00330538
0.00531803
0.00522736
0.00511208
0.00414826
0.00369138
0.0031304
0.0024049
0.00171716
0.0012453
0.00112161
0.00126006
0.00145112
0.00160175
0.00177085
0.00210861
0.00267117
0.0032179
0.00370351
0.00454997
0.00673958
0.0252709
0.0662856
0.087433
0.0969587
0.103894
0.0952696
0.0906131
0.0886076
0.0932276
0.105148
0.125089
0.00760307
0.00285008
0.00242024
0.00375961
0.00605806
0.00596575
0.0057779
0.00462268
0.00401687
0.0033319
0.00252643
0.00175733
0.00124158
0.001109
0.00126621
0.00149403
0.00168563
0.00189522
0.00228626
0.00293266
0.00357123
0.00406179
0.00476701
0.00640633
0.0233397
0.0655591
0.087823
0.0975798
0.104723
0.0957227
0.0912541
0.0895389
0.094536
0.1068
0.126989
0.00742066
0.00255612
0.00274152
0.00436091
0.00700206
0.00690164
0.00659086
0.00520846
0.00441718
0.00358541
0.00268676
0.00182343
0.00125894
0.00110916
0.00128152
0.00154885
0.00178497
0.00203682
0.00248222
0.00321443
0.00394969
0.00447823
0.00510327
0.00631893
0.0216886
0.064839
0.0883637
0.0983876
0.105723
0.0963501
0.0920784
0.0906952
0.096083
0.108748
0.129191
0.00724378
0.0024125
0.00332407
0.00515305
0.00819917
0.0080877
0.00758653
0.00593606
0.00491369
0.00391024
0.00290563
0.00192901
0.00130649
0.0011275
0.00130848
0.00161725
0.00190159
0.00219659
0.00269435
0.00351265
0.00434375
0.00492627
0.00551555
0.0064195
0.0203227
0.0641489
0.0890556
0.0993839
0.106894
0.0971558
0.0930934
0.0920895
0.0978819
0.111011
0.131712
0.00707145
0.00239411
0.00423194
0.00618883
0.00970547
0.00957856
0.0088025
0.00683799
0.00553014
0.00432638
0.00320278
0.00209089
0.00139766
0.00117353
0.0013527
0.00170316
0.00203883
0.00237652
0.00292027
0.00382093
0.00474475
0.00538668
0.00597051
0.00665653
0.0192253
0.063517
0.0899012
0.100572
0.108238
0.0981438
0.094306
0.0937351
0.0999459
0.11361
0.134566
0.00690537
0.00247222
0.00553838
0.00753437
0.0115883
0.0114329
0.0102776
0.0079448
0.00628846
0.00485216
0.00359818
0.00232901
0.00155161
0.00126277
0.00142414
0.00181383
0.00220308
0.00258136
0.00315938
0.004132
0.00514398
0.00584533
0.00644363
0.00698774
0.0183725
0.0629759
0.0909048
0.101954
0.109756
0.0993175
0.0957231
0.0956453
0.102288
0.116563
0.137768
0.00674534
0.00264255
0.00732019
0.00928123
0.0139333
0.013719
0.0120547
0.00928402
0.00720739
0.00549932
0.00410242
0.00266271
0.00179343
0.00142118
0.00154065
0.00196221
0.00240492
0.00281947
0.00341429
0.00443887
0.0055329
0.00629155
0.00691762
0.00738082
0.0177417
0.062562
0.0920731
0.103537
0.11145
0.100681
0.0973516
0.0978341
0.104923
0.119891
0.141334
0.00659312
0.00289869
0.00966435
0.0115585
0.0168502
0.016518
0.0141803
0.0108771
0.00829688
0.00626938
0.00471507
0.00310553
0.00214999
0.00168735
0.00173176
0.00216911
0.00266092
0.00310437
0.00369296
0.0047374
0.00590403
0.00671783
0.00738116
0.00781304
0.0173169
0.0623148
0.0934156
0.105326
0.113321
0.102238
0.0991983
0.100316
0.107864
0.123615
0.145276
0.00644962
0.00323719
0.01264
0.0145342
0.0204657
0.0199101
0.016694
0.0127319
0.00955265
0.00714712
0.00541587
0.00365798
0.00264231
0.00211065
0.00204478
0.00246705
0.00299457
0.00345443
0.00400905
0.00502776
0.0062519
0.00711924
0.00782771
0.00827014
0.0170896
0.0622769
0.0949442
0.107329
0.115374
0.103993
0.101271
0.103106
0.111124
0.127757
0.149609
0.00631698
0.00365672
0.0162805
0.0184012
0.0249011
0.0239415
0.0196024
0.0148248
0.0109431
0.0080957
0.00616703
0.00430335
0.00327596
0.00273633
0.00254454
0.00290269
0.00343748
0.00389289
0.004382
0.00531692
0.00657416
0.00749383
0.00825487
0.00874525
0.0170587
0.0624924
0.0966731
0.109557
0.117611
0.10595
0.103575
0.10622
0.114719
0.132338
0.154346
0.00619775
0.00416541
0.020593
0.0233509
0.0302349
0.0285785
0.0228458
0.0170813
0.0123992
0.00905061
0.0069091
0.00500533
0.0040358
0.00358553
0.00329965
0.00353549
0.00402795
0.00444529
0.00483435
0.00561872
0.0068725
0.00784227
0.00866355
0.0092377
0.0172302
0.0630061
0.0986186
0.112019
0.120036
0.108114
0.106121
0.109674
0.118664
0.137382
0.159499
0.00609509
0.00479152
0.0255893
0.0295448
0.0364626
0.0336682
0.0262702
0.0193603
0.0138053
0.00992079
0.00756941
0.00571082
0.00488396
0.00463876
0.00434719
0.00442205
0.00480517
0.00513644
0.00538897
0.00595427
0.00715342
0.00816824
0.00905767
0.00975219
0.0176167
0.0638614
0.100798
0.114727
0.122655
0.110489
0.108914
0.113485
0.122973
0.142913
0.165079
0.00601408
0.00560258
0.0313235
0.03708
0.0434556
0.0389206
0.0296205
0.0214553
0.0150059
0.0105945
0.00806593
0.0063547
0.00576362
0.00583635
0.00566082
0.00558553
0.00579356
0.00598153
0.00606277
0.00634873
0.00742856
0.00847795
0.00944348
0.0102979
0.0182367
0.0650992
0.10323
0.117693
0.125471
0.11308
0.111962
0.117671
0.127661
0.148954
0.171099
0.00596079
0.0067109
0.0378895
0.0459186
0.0509139
0.0439124
0.032557
0.0231116
0.0158202
0.0109565
0.00832493
0.00687045
0.00660526
0.00708627
0.00714407
0.00698309
0.0069814
0.00697522
0.00686014
0.00682832
0.00771459
0.00878038
0.00982921
0.0108883
0.0191152
0.066756
0.105932
0.120932
0.128488
0.11589
0.115274
0.12225
0.132746
0.155533
0.177569
0.00594609
0.00826094
0.0453751
0.0557711
0.0583224
0.048118
0.0346974
0.0240636
0.0160767
0.0109126
0.0082954
0.00720271
0.00733842
0.0082814
0.00865452
0.00849946
0.00830254
0.00807783
0.00776242
0.00741239
0.0080321
0.0090863
0.0102244
0.0115398
0.0202831
0.0688623
0.108919
0.124453
0.131711
0.118924
0.118859
0.127241
0.138244
0.162676
0.184501
0.00598322
0.0103822
0.0537514
0.0659789
0.0649533
0.0509801
0.0356824
0.0240872
0.0156548
0.0104241
0.00797392
0.00732384
0.00790491
0.00931807
0.0100389
0.00997505
0.00964162
0.00921323
0.00872281
0.00810621
0.00840355
0.00940817
0.0106395
0.0122726
0.021778
0.0714413
0.112205
0.12827
0.135143
0.122183
0.122725
0.132666
0.144175
0.170416
0.191907
0.00609167
0.0131523
0.0627576
0.0755145
0.0699644
0.0520239
0.0352611
0.0230656
0.0145381
0.00953704
0.00741543
0.00724554
0.00827337
0.0101168
0.0111672
0.01125
0.0108591
0.010278
0.00966657
0.00888989
0.00884914
0.00975825
0.0110847
0.0131089
0.0236434
0.0745075
0.1158
0.132391
0.138787
0.125671
0.126884
0.13855
0.150562
0.178787
0.199803
0.00628805
0.0165765
0.0718306
0.0831798
0.0725958
0.0509863
0.0333675
0.0210432
0.0128485
0.00839363
0.00673167
0.00702193
0.00844742
0.0106376
0.0119583
0.0122061
0.0118319
0.011169
0.0105072
0.00971648
0.00938094
0.0101474
0.0115693
0.0140735
0.025929
0.0780659
0.119709
0.136827
0.142648
0.129394
0.13135
0.144921
0.157431
0.187831
0.208208
0.00658505
0.0206214
0.0802027
0.0879573
0.0723905
0.0479047
0.0301612
0.018246
0.0108416
0.00719797
0.00605588
0.00673383
0.00846446
0.0108851
0.0123886
0.0127852
0.0124788
0.0118054
0.0111653
0.0105147
0.00999515
0.0105819
0.0121004
0.0151929
0.02869
0.0821122
0.123934
0.141586
0.146729
0.133357
0.136141
0.151815
0.164814
0.1976
0.217146
0.00697682
0.0252047
0.0870838
0.0893062
0.0693245
0.0431156
0.0260003
0.0150397
0.00883602
0.00614439
0.0054986
0.00646185
0.00838144
0.0109019
0.0124886
0.012993
0.0127771
0.0121498
0.0115912
0.0112091
0.0106662
0.0110602
0.0126815
0.0164948
0.0319857
0.0866332
0.128473
0.146677
0.151037
0.13757
0.14128
0.159275
0.172752
0.208155
0.22665
0.00744499
0.030178
0.0918398
0.0872441
0.0637809
0.0371629
0.0213575
0.0118391
0.00710537
0.0053453
0.0051104
0.00625745
0.00825442
0.0107509
0.012323
0.0128805
0.0127511
0.0122061
0.0117705
0.0117356
0.0113456
0.0115695
0.0133121
0.0180081
0.0358791
0.0916095
0.133323
0.152113
0.155581
0.142048
0.146799
0.167356
0.181294
0.219571
0.236762
0.00795396
0.0351637
0.0940046
0.0821936
0.0563975
0.0306565
0.0167097
0.00899856
0.00578574
0.00480995
0.00488119
0.00613137
0.00812061
0.0104963
0.0119711
0.0125259
0.0124622
0.012016
0.0117262
0.0120618
0.0119703
0.0120847
0.0139866
0.0197635
0.0404361
0.0970188
0.138487
0.157911
0.160374
0.146813
0.152734
0.176125
0.190499
0.231939
0.247533
0.00846726
0.0394932
0.0932413
0.0747597
0.0478807
0.0241485
0.012451
0.00673393
0.00486355
0.00447483
0.00475851
0.00605929
0.00799218
0.0101856
0.011504
0.0120091
0.0119835
0.0116392
0.011504
0.012185
0.0124767
0.0125697
0.0146955
0.0217947
0.0457258
0.102842
0.14397
0.164096
0.165437
0.151895
0.159135
0.185665
0.200438
0.245364
0.259028
0.00894498
0.0421591
0.0892842
0.0655584
0.0388701
0.0180608
0.00885146
0.0050894
0.00423331
0.00424999
0.00467706
0.00600072
0.00785956
0.00984395
0.010975
0.0114
0.011389
0.0111435
0.011164
0.0121333
0.0128167
0.0129848
0.015428
0.0241412
0.0518218
0.109071
0.149791
0.170703
0.170799
0.157337
0.166059
0.196072
0.211194
0.259971
0.271321
0.0093615
0.0421555
0.0819848
0.0551723
0.0298971
0.0126862
0.00605819
0.00396414
0.00377245
0.00404999
0.0045756
0.00591406
0.00769981
0.00947132
0.0104115
0.0107466
0.010737
0.0105886
0.0107641
0.0119492
0.0129673
0.0132948
0.0161754
0.0268522
0.0588055
0.115714
0.155983
0.177779
0.176495
0.163188
0.173573
0.207456
0.222861
0.275896
0.284498
0.0096768
0.0386471
0.0713354
0.0441767
0.0214342
0.00824322
0.00409261
0.0031905
0.0033798
0.00380752
0.00440839
0.00576741
0.00748492
0.00905308
0.00982359
0.0100775
0.0100703
0.0100244
0.0103572
0.0116851
0.0129346
0.0134794
0.0169356
0.0299914
0.0667701
0.122806
0.162594
0.185383
0.182569
0.16951
0.181752
0.219937
0.235538
0.293288
0.298651
0.00988074
0.0316241
0.0576868
0.0331313
0.0139314
0.00489346
0.00280805
0.00260097
0.00296896
0.00346303
0.00412886
0.00552043
0.00716725
0.00855006
0.00919438
0.00939026
0.00940165
0.00947484
0.00997953
0.0113895
0.0127481
0.0135352
0.0177159
0.033642
0.0758244
0.130408
0.169687
0.193582
0.189074
0.176369
0.190674
0.233643
0.249331
0.312301
0.313875
4.88288e-24
3.13657e-19
1.14584e-18
4.37812e-18
2.52895e-17
3.17474e-14
9.08449e-11
0.0121527
0.0559582
0.0654154
0.0748446
0.0786022
0.0802361
0.0826102
0.076091
0.0773479
0.0778045
0.0790694
0.0660104
0.0614954
0.030998
0.0121685
4.99673e-24
7.38554e-20
8.36811e-20
6.31123e-18
6.31732e-17
2.4819e-13
9.31633e-10
0.0224913
0.0652595
0.069223
0.0746558
0.0779128
0.0794999
0.08254
0.0761397
0.0776395
0.078478
0.0791208
0.0654811
0.0614456
0.0306201
0.0122366
5.10268e-24
2.76764e-19
8.78277e-19
8.92459e-18
1.22843e-16
9.33488e-13
9.37117e-09
0.034721
0.0735903
0.0723718
0.0744168
0.077356
0.0789328
0.0825963
0.0763104
0.0779969
0.0792054
0.0791588
0.0652389
0.0609676
0.030134
0.0124127
5.06254e-24
5.73123e-20
2.14852e-20
6.84968e-18
1.92518e-16
2.28359e-12
1.69677e-07
0.0476246
0.0808646
0.0749963
0.0742782
0.0769711
0.0785596
0.0827972
0.0766178
0.078403
0.0799541
0.0791812
0.0652689
0.0600943
0.0295743
0.0126885
5.16622e-24
2.2153e-19
6.32215e-19
7.21762e-18
2.8784e-16
3.60799e-12
6.52588e-06
0.0593092
0.0871215
0.0772249
0.0743443
0.0767875
0.0784046
0.0831315
0.0770465
0.0788463
0.0806895
0.0791816
0.0655351
0.0589
0.0289874
0.0130552
5.11453e-24
4.5967e-20
1.20699e-20
4.60893e-18
4.09327e-16
4.86807e-12
1.85293e-05
0.0676792
0.0924409
0.0791894
0.0747
0.0768391
0.0784881
0.0836238
0.0776148
0.079316
0.0813774
0.0791505
0.0659979
0.0574464
0.0283836
0.0135299
5.22966e-24
1.78857e-19
4.73337e-19
4.62726e-18
5.79289e-16
5.05326e-12
3.42139e-05
0.0717113
0.0969293
0.0809955
0.0753932
0.0771488
0.0788288
0.0842663
0.0783093
0.0798114
0.0819878
0.0790794
0.0665998
0.0558212
0.0277891
0.0141268
5.17065e-24
3.80724e-20
7.88195e-21
2.77621e-18
7.71337e-16
4.37186e-12
2.55947e-05
0.0716767
0.100664
0.0827389
0.0764639
0.0777442
0.079441
0.0850883
0.0791546
0.0803336
0.0824976
0.0789565
0.0672891
0.0540848
0.0272016
0.0148639
5.29829e-24
1.46782e-19
3.69521e-19
2.85578e-18
9.84132e-16
2.87571e-12
2.71992e-05
0.0686121
0.103699
0.0844802
0.0779243
0.078642
0.0803376
0.086084
0.0801404
0.080895
0.0828946
0.0787731
0.0680034
0.0523158
0.026641
0.0157452
5.22392e-24
3.24647e-20
5.88844e-21
1.68486e-18
1.14672e-15
1.68738e-12
3.50508e-05
0.0634718
0.106021
0.0862637
0.0797873
0.0798646
0.0815278
0.087284
0.0812956
0.0815092
0.0831792
0.0785192
0.0686961
0.0505584
0.0260978
0.0167743
5.35802e-24
1.22021e-19
2.97358e-19
1.83892e-18
1.25015e-15
8.51154e-13
3.9878e-05
0.0568276
0.107572
0.0880932
0.0820421
0.0814239
0.0830211
0.0886814
0.0826125
0.0821995
0.0833657
0.0781915
0.069315
0.0488738
0.0255879
0.0179365
5.2715e-24
2.84448e-20
4.69249e-21
1.07946e-18
1.23774e-15
4.16138e-13
4.08832e-05
0.0492018
0.10821
0.0899508
0.0846809
0.0833395
0.0848251
0.0903056
0.0841219
0.0829873
0.0834806
0.0777878
0.0698306
0.047287
0.0250975
0.019216