/*--------------------------------*- C++ -*----------------------------------*\
| =========                 |                                                 |
| \\      /  F ield         | OpenFOAM: The Open Source CFD Toolbox           |
|  \\    /   O peration     | Version:  v1912                                 |
|   \\  /    A nd           | Website:  www.openfoam.com                      |
|    \\/     M anipulation  |                                                 |
\*---------------------------------------------------------------------------*/
FoamFile
{
    version     2.0;
    format      ascii;
    class       surfaceScalarField;
    location    "130";
    object      phi;
}
// * * * * * * * * * * * * * * * * * * * * * * * * * * * * * * * * * * * * * //

dimensions      [0 3 -1 0 0 0 0];
oriented        oriented;


internalField   nonuniform List<scalar> 
24588
(
6.81656e-05
2.35149e-08
6.81156e-05
6.16375e-08
6.80405e-05
7.03028e-08
6.79193e-05
1.04455e-07
6.77827e-05
1.4417e-07
6.75998e-05
1.90176e-07
6.7368e-05
2.26473e-07
6.70746e-05
2.87853e-07
6.67184e-05
3.60023e-07
6.62695e-05
4.5045e-07
6.57097e-05
5.59059e-07
6.4968e-05
7.16477e-07
6.41755e-05
8.70065e-07
6.29739e-05
1.12558e-06
6.15528e-05
1.44075e-06
5.93153e-05
2.23489e-06
5.65729e-05
2.74425e-06
5.21225e-05
4.44914e-06
4.57535e-05
6.36889e-06
3.47199e-05
1.10338e-05
2.07953e-05
1.39246e-05
2.07953e-05
6.81649e-05
4.89087e-08
6.81122e-05
1.30098e-07
6.80363e-05
1.39739e-07
6.79237e-05
1.946e-07
6.77863e-05
2.91705e-07
6.75995e-05
3.86453e-07
6.73645e-05
4.54596e-07
6.70758e-05
5.69831e-07
6.67227e-05
7.17755e-07
6.62708e-05
9.04079e-07
6.5708e-05
1.12094e-06
6.49656e-05
1.43013e-06
6.41847e-05
1.73501e-06
6.29607e-05
2.2747e-06
6.15455e-05
2.87659e-06
5.93664e-05
4.41194e-06
5.65752e-05
5.53878e-06
5.20791e-05
8.9433e-06
4.57824e-05
1.26655e-05
3.46129e-05
2.22037e-05
2.0738e-05
2.77994e-05
4.15332e-05
6.8165e-05
7.41433e-08
6.81126e-05
1.97804e-07
6.80361e-05
2.09831e-07
6.79228e-05
2.86879e-07
6.77859e-05
4.38143e-07
6.75995e-05
5.81704e-07
6.73644e-05
6.8308e-07
6.70755e-05
8.52197e-07
6.67224e-05
1.07544e-06
6.62705e-05
1.35768e-06
6.57084e-05
1.6822e-06
6.49622e-05
2.14683e-06
6.4183e-05
2.60536e-06
6.29681e-05
3.4001e-06
6.15487e-05
4.31864e-06
5.93998e-05
6.5575e-06
5.65729e-05
8.36975e-06
5.20946e-05
1.34191e-05
4.57443e-05
1.90155e-05
3.4615e-05
3.33336e-05
2.07449e-05
4.16695e-05
6.22781e-05
6.8165e-05
9.94142e-08
6.81124e-05
2.6572e-07
6.80365e-05
2.79319e-07
6.79236e-05
3.77463e-07
6.7786e-05
5.86047e-07
6.75994e-05
7.77645e-07
6.73645e-05
9.11046e-07
6.70756e-05
1.13452e-06
6.67223e-05
1.43346e-06
6.62704e-05
1.81124e-06
6.5708e-05
2.2437e-06
6.49664e-05
2.85962e-06
6.41815e-05
3.47288e-06
6.29602e-05
4.54952e-06
6.1539e-05
5.75958e-06
5.94153e-05
8.67907e-06
5.65951e-05
1.11938e-05
5.21066e-05
1.79053e-05
4.57212e-05
2.54007e-05
3.46286e-05
4.44267e-05
2.07669e-05
5.55312e-05
8.30449e-05
6.81652e-05
1.24408e-07
6.81132e-05
3.32358e-07
6.80365e-05
3.49447e-07
6.79228e-05
4.7098e-07
6.77859e-05
7.3252e-07
6.75997e-05
9.72195e-07
6.73646e-05
1.13945e-06
6.70755e-05
1.41736e-06
6.67222e-05
1.79149e-06
6.62703e-05
2.2648e-06
6.57082e-05
2.80498e-06
6.49613e-05
3.57746e-06
6.41784e-05
4.34857e-06
6.29672e-05
5.67089e-06
6.15422e-05
7.20764e-06
5.9426e-05
1.07918e-05
5.66217e-05
1.40022e-05
5.21058e-05
2.24186e-05
4.57333e-05
3.17728e-05
3.46624e-05
5.54981e-05
2.08049e-05
6.93887e-05
0.00010385
6.81651e-05
1.49552e-07
6.81127e-05
3.99708e-07
6.80369e-05
4.1876e-07
6.79238e-05
5.61826e-07
6.7786e-05
8.81056e-07
6.75995e-05
1.16783e-06
6.73647e-05
1.36715e-06
6.70757e-05
1.69998e-06
6.67221e-05
2.14986e-06
6.62702e-05
2.71832e-06
6.57078e-05
3.36648e-06
6.49678e-05
4.28895e-06
6.41792e-05
5.21667e-06
6.29597e-05
6.82283e-06
6.15339e-05
8.65231e-06
5.94237e-05
1.29001e-05
5.66394e-05
1.67901e-05
5.21123e-05
2.69436e-05
4.57597e-05
3.81253e-05
3.4717e-05
6.65414e-05
2.08602e-05
8.32454e-05
0.00012471
6.81653e-05
1.74345e-07
6.81137e-05
4.65426e-07
6.80368e-05
4.88933e-07
6.79226e-05
6.56604e-07
6.77856e-05
1.02782e-06
6.75998e-05
1.36162e-06
6.73648e-05
1.59538e-06
6.70755e-05
1.98323e-06
6.6722e-05
2.50824e-06
6.627e-05
3.17184e-06
6.57077e-05
3.92805e-06
6.49612e-05
5.00733e-06
6.41772e-05
6.09312e-06
6.297e-05
7.93811e-06
6.15387e-05
1.01073e-05
5.94222e-05
1.50132e-05
5.66594e-05
1.95562e-05
5.21258e-05
3.14746e-05
4.57977e-05
4.4453e-05
3.47955e-05
7.75441e-05
2.09345e-05
9.71065e-05
0.000145644
6.81651e-05
1.99386e-07
6.81129e-05
5.32337e-07
6.80372e-05
5.58097e-07
6.7924e-05
7.47569e-07
6.77859e-05
1.17705e-06
6.75996e-05
1.55697e-06
6.73648e-05
1.82283e-06
6.70757e-05
2.26611e-06
6.67219e-05
2.86695e-06
6.627e-05
3.62532e-06
6.57076e-05
4.48953e-06
6.49702e-05
5.71665e-06
6.41784e-05
6.95941e-06
6.29596e-05
9.09458e-06
6.15224e-05
1.15632e-05
5.9408e-05
1.71265e-05
5.66767e-05
2.22902e-05
5.21515e-05
3.59983e-05
4.58497e-05
5.07549e-05
3.49021e-05
8.84921e-05
2.10297e-05
0.000110979
0.000166674
6.81654e-05
2.2402e-07
6.81141e-05
5.9733e-07
6.80372e-05
6.28199e-07
6.79227e-05
8.43092e-07
6.77856e-05
1.32404e-06
6.76e-05
1.75015e-06
6.7365e-05
2.05092e-06
6.70757e-05
2.54969e-06
6.67219e-05
3.22564e-06
6.627e-05
4.07874e-06
6.57073e-05
5.05151e-06
6.49602e-05
6.43681e-06
6.41721e-05
7.84204e-06
6.29678e-05
1.02082e-05
6.15114e-05
1.30398e-05
5.94058e-05
1.92295e-05
5.66645e-05
2.50331e-05
5.21947e-05
4.04663e-05
4.5916e-05
5.70334e-05
3.50397e-05
9.93686e-05
2.11484e-05
0.00012487
0.000187822
6.81652e-05
2.48959e-07
6.81131e-05
6.63882e-07
6.80375e-05
6.97288e-07
6.79242e-05
9.34007e-07
6.77859e-05
1.47386e-06
6.75996e-05
1.94521e-06
6.7365e-05
2.27821e-06
6.70758e-05
2.83278e-06
6.67218e-05
3.58462e-06
6.627e-05
4.53215e-06
6.57072e-05
5.61326e-06
6.49742e-05
7.14239e-06
6.41731e-05
8.70948e-06
6.29531e-05
1.13733e-05
6.14811e-05
1.45262e-05
5.93967e-05
2.13139e-05
5.66098e-05
2.78215e-05
5.22397e-05
4.48358e-05
4.5996e-05
6.32772e-05
3.52093e-05
0.000110156
2.12925e-05
0.000138787
0.000209115
6.81655e-05
2.73406e-07
6.81145e-05
7.28145e-07
6.80374e-05
7.67551e-07
6.79226e-05
1.03043e-06
6.77854e-05
1.62102e-06
6.76001e-05
2.1377e-06
6.73652e-05
2.50626e-06
6.70757e-05
3.11665e-06
6.67218e-05
3.94353e-06
6.62701e-05
4.98535e-06
6.57068e-05
6.17585e-06
6.49604e-05
7.86366e-06
6.41477e-05
9.6131e-06
6.29447e-05
1.25001e-05
6.14453e-05
1.60363e-05
5.93654e-05
2.3392e-05
5.65362e-05
3.06511e-05
5.22838e-05
4.9087e-05
4.60894e-05
6.94713e-05
3.54075e-05
0.000120838
2.14625e-05
0.000152732
0.000230577
6.81653e-05
2.98223e-07
6.81132e-05
7.94353e-07
6.80377e-05
8.36704e-07
6.79244e-05
1.12128e-06
6.77858e-05
1.77132e-06
6.75997e-05
2.33247e-06
6.73651e-05
2.73349e-06
6.70759e-05
3.39992e-06
6.67218e-05
4.3027e-06
6.62701e-05
5.43854e-06
6.5706e-05
6.73895e-06
6.49747e-05
8.56963e-06
6.41367e-05
1.05028e-05
6.29296e-05
1.36746e-05
6.13934e-05
1.75796e-05
5.93203e-05
2.54658e-05
5.64735e-05
3.34987e-05
5.23288e-05
5.32317e-05
4.61911e-05
7.56091e-05
3.56271e-05
0.000131402
2.16577e-05
0.000166701
0.000252235
6.81656e-05
3.22489e-07
6.81148e-05
8.57987e-07
6.80376e-05
9.07139e-07
6.79227e-05
1.21825e-06
6.77855e-05
1.91844e-06
6.76004e-05
2.52438e-06
6.73655e-05
2.96163e-06
6.7076e-05
3.68401e-06
6.67218e-05
4.66191e-06
6.62702e-05
5.89153e-06
6.57046e-05
7.30397e-06
6.49665e-05
9.2858e-06
6.41037e-05
1.14407e-05
6.29109e-05
1.48284e-05
6.13399e-05
1.91541e-05
5.92788e-05
2.75257e-05
5.64324e-05
3.63451e-05
5.2371e-05
5.72925e-05
4.62935e-05
8.16863e-05
3.58594e-05
0.000141836
2.18759e-05
0.000180685
0.000274111
6.81653e-05
3.47169e-07
6.81134e-05
9.23862e-07
6.80379e-05
9.76454e-07
6.79245e-05
1.30896e-06
6.77858e-05
2.06908e-06
6.75999e-05
2.71883e-06
6.73653e-05
3.18889e-06
6.70761e-05
3.96738e-06
6.67218e-05
5.02129e-06
6.62702e-05
6.34453e-06
6.57003e-05
7.87298e-06
6.49777e-05
9.9884e-06
6.40939e-05
1.23468e-05
6.2884e-05
1.60309e-05
6.12938e-05
2.0747e-05
5.92468e-05
2.95736e-05
5.64079e-05
3.91843e-05
5.24067e-05
6.1294e-05
4.6391e-05
8.77021e-05
3.60971e-05
0.00015213
2.21141e-05
0.000194668
0.000296225
6.81658e-05
3.7121e-07
6.81151e-05
9.86778e-07
6.80378e-05
1.04727e-06
6.79225e-05
1.40674e-06
6.77854e-05
2.2161e-06
6.76006e-05
2.91004e-06
6.73657e-05
3.41717e-06
6.70762e-05
4.25161e-06
6.67218e-05
5.38065e-06
6.62699e-05
6.79787e-06
6.56951e-05
8.4472e-06
6.49696e-05
1.06985e-05
6.407e-05
1.32851e-05
6.28547e-05
1.72279e-05
6.12586e-05
2.23439e-05
5.92229e-05
3.16084e-05
5.63926e-05
4.20144e-05
5.24354e-05
6.52508e-05
4.6481e-05
9.36563e-05
3.63353e-05
0.000162276
2.23693e-05
0.000208634
0.000318594
6.81654e-05
3.95734e-07
6.81135e-05
1.05231e-06
6.8038e-05
1.11686e-06
6.79247e-05
1.49736e-06
6.77859e-05
2.36699e-06
6.76e-05
3.10417e-06
6.73655e-05
3.64451e-06
6.70764e-05
4.53506e-06
6.67222e-05
5.73979e-06
6.62697e-05
7.25174e-06
6.56877e-05
9.02847e-06
6.49654e-05
1.14085e-05
6.40478e-05
1.42026e-05
6.28274e-05
1.84499e-05
6.12322e-05
2.39403e-05
5.92046e-05
3.36367e-05
5.63817e-05
4.48376e-05
5.24583e-05
6.91744e-05
4.65632e-05
9.95515e-05
3.65712e-05
0.000172268
2.26387e-05
0.000222566
0.000341233
6.81659e-05
4.1956e-07
6.81155e-05
1.1146e-06
6.80379e-05
1.18805e-06
6.79226e-05
1.59563e-06
6.77856e-05
2.51373e-06
6.76009e-05
3.29479e-06
6.7366e-05
3.87303e-06
6.70766e-05
4.81939e-06
6.67225e-05
6.09879e-06
6.62695e-05
7.70613e-06
6.56767e-05
9.62079e-06
6.49589e-05
1.21196e-05
6.40241e-05
1.51589e-05
6.28051e-05
1.96588e-05
6.12123e-05
2.55332e-05
5.919e-05
3.56582e-05
5.63727e-05
4.76547e-05
5.2477e-05
7.30698e-05
4.66385e-05
0.00010539
3.68036e-05
0.000182103
2.29201e-05
0.00023645
0.000364153
6.81655e-05
4.43921e-07
6.81136e-05
1.17979e-06
6.80381e-05
1.25795e-06
6.79248e-05
1.68611e-06
6.7786e-05
2.66475e-06
6.76002e-05
3.48857e-06
6.73657e-05
4.10052e-06
6.70768e-05
5.10285e-06
6.67227e-05
6.4577e-06
6.62701e-05
8.16002e-06
6.56657e-05
1.02246e-05
6.49528e-05
1.28279e-05
6.40044e-05
1.6101e-05
6.27869e-05
2.08802e-05
6.11968e-05
2.71241e-05
5.91779e-05
3.76778e-05
5.63647e-05
5.04682e-05
5.24929e-05
7.69418e-05
4.67085e-05
0.000111174
3.70325e-05
0.000191779
2.32121e-05
0.00025027
0.000387365
6.81661e-05
4.67503e-07
6.81158e-05
1.24138e-06
6.8038e-05
1.32967e-06
6.79224e-05
1.78513e-06
6.77856e-05
2.81122e-06
6.76011e-05
3.6785e-06
6.73662e-05
4.3293e-06
6.70769e-05
5.38717e-06
6.67227e-05
6.81674e-06
6.62702e-05
8.61389e-06
6.56572e-05
1.08373e-05
6.49436e-05
1.354e-05
6.39875e-05
1.70704e-05
6.27722e-05
2.20881e-05
6.11844e-05
2.87118e-05
5.91674e-05
3.9694e-05
5.63571e-05
5.32784e-05
5.25076e-05
8.0791e-05
4.6775e-05
0.000116907
3.72588e-05
0.000201295
2.35136e-05
0.000264015
0.000410878
6.81657e-05
4.91693e-07
6.81138e-05
1.30623e-06
6.80382e-05
1.39993e-06
6.79249e-05
1.8755e-06
6.7786e-05
2.96233e-06
6.76005e-05
3.8719e-06
6.73659e-05
4.55701e-06
6.70771e-05
5.67059e-06
6.67227e-05
7.17595e-06
6.62674e-05
9.07049e-06
6.56546e-05
1.14495e-05
6.49337e-05
1.42593e-05
6.39738e-05
1.80228e-05
6.27599e-05
2.33062e-05
6.11741e-05
3.02982e-05
5.91582e-05
4.17104e-05
5.635e-05
5.60867e-05
5.25222e-05
8.46189e-05
4.68398e-05
0.000122589
3.74838e-05
0.000210651
2.38243e-05
0.000277674
0.000434702
6.81662e-05
5.15049e-07
6.81161e-05
1.36722e-06
6.80381e-05
1.47211e-06
6.79225e-05
1.97497e-06
6.77857e-05
3.10839e-06
6.76015e-05
4.06124e-06
6.73664e-05
4.78617e-06
6.70774e-05
5.95491e-06
6.67228e-05
7.53525e-06
6.62595e-05
9.5351e-06
6.56573e-05
1.20516e-05
6.49238e-05
1.49926e-05
6.39622e-05
1.89948e-05
6.27496e-05
2.45127e-05
6.11654e-05
3.18822e-05
5.91501e-05
4.37251e-05
5.63436e-05
5.8893e-05
5.25379e-05
8.84244e-05
4.69044e-05
0.000128223
3.7709e-05
0.000219847
2.41443e-05
0.000291239
0.000458847
6.81658e-05
5.39067e-07
6.81139e-05
1.43174e-06
6.80383e-05
1.54276e-06
6.79251e-05
2.06517e-06
6.77861e-05
3.25951e-06
6.76007e-05
4.25426e-06
6.73661e-05
5.01411e-06
6.70775e-05
6.2384e-06
6.67232e-05
7.89421e-06
6.62502e-05
1.00092e-05
6.56603e-05
1.26413e-05
6.49148e-05
1.57372e-05
6.39523e-05
1.99501e-05
6.27407e-05
2.57285e-05
6.1158e-05
3.34654e-05
5.91428e-05
4.57408e-05
5.63381e-05
6.16979e-05
5.25552e-05
9.22075e-05
4.69702e-05
0.000133808
3.79363e-05
0.000228881
2.44741e-05
0.000304701
0.000483321
6.81664e-05
5.62172e-07
6.81164e-05
1.49205e-06
6.80381e-05
1.61551e-06
6.79224e-05
2.16535e-06
6.77858e-05
3.4052e-06
6.76018e-05
4.44293e-06
6.73667e-05
5.24356e-06
6.70776e-05
6.52295e-06
6.67239e-05
8.25245e-06
6.62422e-05
1.04922e-05
6.566e-05
1.32235e-05
6.49066e-05
1.64907e-05
6.39437e-05
2.09218e-05
6.27329e-05
2.6934e-05
6.11515e-05
3.50465e-05
5.91365e-05
4.77552e-05
5.63337e-05
6.45006e-05
5.25747e-05
9.59662e-05
4.70382e-05
0.000139344
3.81676e-05
0.000237751
2.48144e-05
0.000318054
0.000508135
6.81659e-05
5.86014e-07
6.8114e-05
1.55624e-06
6.80384e-05
1.68656e-06
6.79252e-05
2.25541e-06
6.77863e-05
3.5563e-06
6.7601e-05
4.63558e-06
6.73664e-05
5.47168e-06
6.70776e-05
6.80676e-06
6.67248e-05
8.60984e-06
6.62365e-05
1.09815e-05
6.56571e-05
1.38028e-05
6.48994e-05
1.72478e-05
6.39362e-05
2.18781e-05
6.27259e-05
2.81483e-05
6.11458e-05
3.66271e-05
5.91312e-05
4.97705e-05
5.63306e-05
6.73014e-05
5.25965e-05
9.97005e-05
4.7109e-05
0.000144831
3.84049e-05
0.000246456
2.51664e-05
0.000331293
0.000533301
6.81666e-05
6.08891e-07
6.81167e-05
1.61597e-06
6.80382e-05
1.75981e-06
6.79224e-05
2.35599e-06
6.7786e-05
3.70148e-06
6.76022e-05
4.8237e-06
6.73671e-05
5.70144e-06
6.70778e-05
7.09167e-06
6.67255e-05
8.96657e-06
6.62324e-05
1.14758e-05
6.56529e-05
1.43824e-05
6.48928e-05
1.8008e-05
6.39294e-05
2.28493e-05
6.27197e-05
2.9353e-05
6.11408e-05
3.82057e-05
5.91268e-05
5.17839e-05
5.63289e-05
7.00991e-05
5.26206e-05
0.000103408
4.71832e-05
0.000150269
3.86502e-05
0.000254989
2.55314e-05
0.000344412
0.000558833
6.8166e-05
6.32563e-07
6.81141e-05
1.67987e-06
6.80384e-05
1.83127e-06
6.79254e-05
2.44586e-06
6.77864e-05
3.8525e-06
6.76013e-05
5.01599e-06
6.73668e-05
5.92974e-06
6.70779e-05
7.37571e-06
6.6725e-05
9.32394e-06
6.62305e-05
1.19711e-05
6.56482e-05
1.49646e-05
6.48868e-05
1.87689e-05
6.39232e-05
2.38064e-05
6.2714e-05
3.05662e-05
6.11364e-05
3.97838e-05
5.91234e-05
5.37974e-05
5.63287e-05
7.28939e-05
5.26469e-05
0.000107091
4.7261e-05
0.000155655
3.89055e-05
0.000263344
2.59107e-05
0.000357406
0.000584743
6.81667e-05
6.55193e-07
6.8117e-05
1.73895e-06
6.80383e-05
1.9051e-06
6.79223e-05
2.54708e-06
6.77861e-05
3.99726e-06
6.76025e-05
5.20348e-06
6.73674e-05
6.15977e-06
6.70782e-05
7.66062e-06
6.67205e-05
9.68601e-06
6.62319e-05
1.24606e-05
6.56436e-05
1.5553e-05
6.48813e-05
1.95314e-05
6.39174e-05
2.47775e-05
6.27088e-05
3.177e-05
6.11325e-05
4.13599e-05
5.91209e-05
5.58084e-05
5.63301e-05
7.56846e-05
5.26751e-05
0.000110745
4.73424e-05
0.000160987
3.91725e-05
0.000271514
2.6306e-05
0.000370273
0.000611049
6.81661e-05
6.78694e-07
6.81142e-05
1.80255e-06
6.80385e-05
1.97699e-06
6.79255e-05
2.63681e-06
6.77866e-05
4.14821e-06
6.76016e-05
5.39539e-06
6.73671e-05
6.38834e-06
6.70784e-05
7.9445e-06
6.67138e-05
1.0055e-05
6.62351e-05
1.29395e-05
6.56391e-05
1.61489e-05
6.48761e-05
2.0294e-05
6.39121e-05
2.57352e-05
6.2704e-05
3.29821e-05
6.1129e-05
4.29353e-05
5.91192e-05
5.78188e-05
5.63329e-05
7.84711e-05
5.2705e-05
0.000114373
4.74273e-05
0.000166265
3.94529e-05
0.000279488
2.67188e-05
0.000383007
0.000637768
6.81669e-05
7.01105e-07
6.81173e-05
1.86111e-06
6.80383e-05
2.05133e-06
6.79223e-05
2.73837e-06
6.77863e-05
4.29247e-06
6.76029e-05
5.58233e-06
6.73677e-05
6.61883e-06
6.7079e-05
8.22904e-06
6.67085e-05
1.04295e-05
6.62369e-05
1.34116e-05
6.56348e-05
1.67511e-05
6.48712e-05
2.10577e-05
6.39071e-05
2.67061e-05
6.26995e-05
3.41849e-05
6.1126e-05
4.45085e-05
5.91183e-05
5.98258e-05
5.63371e-05
8.12523e-05
5.27364e-05
0.000117974
4.75155e-05
0.000171486
3.97477e-05
0.000287256
2.71504e-05
0.000395604
0.000664919
6.81662e-05
7.24444e-07
6.81143e-05
1.92443e-06
6.80385e-05
2.12364e-06
6.79257e-05
2.82792e-06
6.77867e-05
4.44332e-06
6.76019e-05
5.77382e-06
6.73673e-05
6.84773e-06
6.70792e-05
8.51249e-06
6.6705e-05
1.08078e-05
6.62372e-05
1.38796e-05
6.56306e-05
1.73576e-05
6.48665e-05
2.18214e-05
6.39023e-05
2.76642e-05
6.26953e-05
3.53959e-05
6.11232e-05
4.60811e-05
5.91181e-05
6.18316e-05
5.63426e-05
8.40279e-05
5.27693e-05
0.000121547
4.76066e-05
0.000176649
4.00575e-05
0.000294805
2.76021e-05
0.000408059
0.000692521
6.8167e-05
7.46614e-07
6.81176e-05
1.98237e-06
6.80383e-05
2.19856e-06
6.79222e-05
2.93017e-06
6.77863e-05
4.5872e-06
6.76032e-05
5.96012e-06
6.73679e-05
7.07856e-06
6.70799e-05
8.79638e-06
6.67026e-05
1.1189e-05
6.62363e-05
1.43462e-05
6.56266e-05
1.79674e-05
6.4862e-05
2.25861e-05
6.38978e-05
2.8635e-05
6.26914e-05
3.65975e-05
6.11208e-05
4.76513e-05
5.91183e-05
6.38334e-05
5.63493e-05
8.67968e-05
5.28034e-05
0.000125093
4.77002e-05
0.000181752
4.03826e-05
0.000302123
2.80746e-05
0.000420367
0.000720595
6.81663e-05
7.69799e-07
6.81144e-05
2.04546e-06
6.80385e-05
2.27128e-06
6.79258e-05
3.01954e-06
6.77868e-05
4.73798e-06
6.76022e-05
6.1512e-06
6.73675e-05
7.3078e-06
6.70801e-05
9.07931e-06
6.67006e-05
1.15723e-05
6.62347e-05
1.48121e-05
6.56226e-05
1.85795e-05
6.48577e-05
2.33506e-05
6.38935e-05
2.95934e-05
6.26877e-05
3.78073e-05
6.11186e-05
4.9221e-05
5.9119e-05
6.58336e-05
5.63571e-05
8.95588e-05
5.28386e-05
0.000128611
4.77958e-05
0.000186794
4.07227e-05
0.000309196
2.85686e-05
0.000432521
0.000749164
6.81672e-05
7.91759e-07
6.81178e-05
2.1029e-06
6.80383e-05
2.34673e-06
6.79222e-05
3.12218e-06
6.77864e-05
4.88137e-06
6.76036e-05
6.33694e-06
6.73682e-05
7.53908e-06
6.70809e-05
9.36261e-06
6.66991e-05
1.19577e-05
6.62325e-05
1.52789e-05
6.56187e-05
1.91933e-05
6.48535e-05
2.4116e-05
6.38893e-05
3.0564e-05
6.26841e-05
3.90076e-05
6.11165e-05
5.07881e-05
5.91201e-05
6.78293e-05
5.63661e-05
9.23127e-05
5.2875e-05
0.000132102
4.78932e-05
0.000191776
4.10771e-05
0.000316012
2.90842e-05
0.000444514
0.000778248
6.81664e-05
8.14813e-07
6.81145e-05
2.1658e-06
6.80386e-05
2.41981e-06
6.7926e-05
3.21128e-06
6.7787e-05
5.0321e-06
6.76026e-05
6.52761e-06
6.73678e-05
7.76866e-06
6.70812e-05
9.6449e-06
6.66976e-05
1.23448e-05
6.623e-05
1.57465e-05
6.56149e-05
1.98084e-05
6.48494e-05
2.48812e-05
6.38852e-05
3.15224e-05
6.26807e-05
4.02162e-05
6.11146e-05
5.23549e-05
5.91215e-05
6.98231e-05
5.6376e-05
9.50584e-05
5.29125e-05
0.000135566
4.79922e-05
0.000196697
4.14451e-05
0.000322559
2.96216e-05
0.000456338
0.000807869
6.81673e-05
8.36593e-07
6.8118e-05
2.22285e-06
6.80383e-05
2.49569e-06
6.79223e-05
3.31414e-06
6.77866e-05
5.17508e-06
6.7604e-05
6.71283e-06
6.73685e-05
8.00042e-06
6.7082e-05
9.92753e-06
6.66963e-05
1.27339e-05
6.62271e-05
1.62159e-05
6.56111e-05
2.04244e-05
6.48454e-05
2.56471e-05
6.38813e-05
3.24926e-05
6.26775e-05
4.14149e-05
6.11129e-05
5.3919e-05
5.91231e-05
7.18122e-05
5.63868e-05
9.77945e-05
5.29511e-05
0.000139001
4.80925e-05
0.000201555
4.1826e-05
0.000328826
3.01807e-05
0.000467983
0.00083805
6.81665e-05
8.59518e-07
6.81145e-05
2.28556e-06
6.80386e-05
2.56915e-06
6.7926e-05
3.40312e-06
6.7787e-05
5.32586e-06
6.76029e-05
6.90303e-06
6.73679e-05
8.23031e-06
6.70821e-05
1.02093e-05
6.6695e-05
1.31241e-05
6.6224e-05
1.66868e-05
6.56074e-05
2.1041e-05
6.48415e-05
2.64126e-05
6.38775e-05
3.34508e-05
6.26744e-05
4.26222e-05
6.11113e-05
5.54828e-05
5.9125e-05
7.37991e-05
5.63985e-05
0.000100521
5.29909e-05
0.000142409
4.81943e-05
0.000206352
4.22195e-05
0.000334801
3.07616e-05
0.000479441
0.000868812
6.81674e-05
8.81121e-07
6.81182e-05
2.34216e-06
6.80383e-05
2.64549e-06
6.79222e-05
3.5065e-06
6.77866e-05
5.46863e-06
6.76042e-05
7.08766e-06
6.73686e-05
8.46239e-06
6.70813e-05
1.04928e-05
6.66955e-05
1.35121e-05
6.62207e-05
1.71617e-05
6.56037e-05
2.16581e-05
6.48376e-05
2.71789e-05
6.38738e-05
3.44207e-05
6.26715e-05
4.38194e-05
6.11098e-05
5.70439e-05
5.91271e-05
7.5781e-05
5.64109e-05
0.000103237
5.30317e-05
0.000145788
4.82975e-05
0.000211086
4.26252e-05
0.000340473
3.13646e-05
0.000490701
0.000900176
6.81665e-05
9.03931e-07
6.81145e-05
2.40471e-06
6.80386e-05
2.7193e-06
6.79261e-05
3.59539e-06
6.77869e-05
5.61962e-06
6.7603e-05
7.27746e-06
6.7368e-05
8.69249e-06
6.70745e-05
1.07827e-05
6.66986e-05
1.38892e-05
6.62173e-05
1.76429e-05
6.55999e-05
2.22754e-05
6.48338e-05
2.79447e-05
6.38702e-05
3.53786e-05
6.26686e-05
4.50253e-05
6.11084e-05
5.86048e-05
5.91293e-05
7.77608e-05
5.64239e-05
0.000105943
5.30737e-05
0.000149138
4.84022e-05
0.000215757
4.3043e-05
0.000345832
3.19899e-05
0.000501754
0.000932166
6.81676e-05
9.25299e-07
6.81185e-05
2.46066e-06
6.80383e-05
2.79628e-06
6.79219e-05
3.69983e-06
6.77864e-05
5.76212e-06
6.76042e-05
7.46153e-06
6.73689e-05
8.92448e-06
6.7068e-05
1.10801e-05
6.67008e-05
1.42569e-05
6.62138e-05
1.813e-05
6.55963e-05
2.2893e-05
6.483e-05
2.8711e-05
6.38667e-05
3.63481e-05
6.26659e-05
4.6221e-05
6.11071e-05
6.01629e-05
5.91317e-05
7.97355e-05
5.64374e-05
0.000108637
5.3117e-05
0.000152458
4.85081e-05
0.000220366
4.34731e-05
0.000350867
3.26382e-05
0.000512589
0.000964804
6.81666e-05
9.47985e-07
6.81146e-05
2.52297e-06
6.80386e-05
2.87044e-06
6.79261e-05
3.78881e-06
6.77868e-05
5.91319e-06
6.7603e-05
7.65106e-06
6.73685e-05
9.15429e-06
6.70645e-05
1.13807e-05
6.67001e-05
1.46216e-05
6.62102e-05
1.86198e-05
6.55926e-05
2.35105e-05
6.48263e-05
2.9477e-05
6.38632e-05
3.73052e-05
6.26632e-05
4.74256e-05
6.1106e-05
6.1721e-05
5.91342e-05
8.1708e-05
5.64514e-05
0.00011132
5.31617e-05
0.000155748
4.86149e-05
0.000224913
4.39147e-05
0.000355567
3.33097e-05
0.000523194
0.000998114
6.81676e-05
9.69338e-07
6.81184e-05
2.57902e-06
6.80383e-05
2.94744e-06
6.79222e-05
3.89257e-06
6.77865e-05
6.05604e-06
6.76044e-05
7.83499e-06
6.73682e-05
9.38741e-06
6.70637e-05
1.16828e-05
6.66983e-05
1.4987e-05
6.62067e-05
1.91115e-05
6.55889e-05
2.41284e-05
6.48226e-05
3.02435e-05
6.38598e-05
3.82755e-05
6.26608e-05
4.86188e-05
6.11051e-05
6.32757e-05
5.91369e-05
8.36753e-05
5.64657e-05
0.000113991
5.32079e-05
0.000159006
4.87218e-05
0.000229399
4.4366e-05
0.000359923
3.40035e-05
0.000533557
0.00103212
6.81668e-05
9.91799e-07
6.8115e-05
2.64058e-06
6.80386e-05
3.0221e-06
6.79259e-05
3.98284e-06
6.77869e-05
6.2064e-06
6.76034e-05
8.02372e-06
6.73623e-05
9.62418e-06
6.70686e-05
1.19749e-05
6.66963e-05
1.53594e-05
6.62033e-05
1.96045e-05
6.55853e-05
2.47463e-05
6.48189e-05
3.10094e-05
6.38565e-05
3.92313e-05
6.26584e-05
4.98221e-05
6.11043e-05
6.48308e-05
5.91398e-05
8.56406e-05
5.64802e-05
0.000116651
5.32557e-05
0.000162231
4.8828e-05
0.000233827
4.48218e-05
0.000363929
3.47162e-05
0.000543662
0.00106683
6.81678e-05
1.01284e-06
6.81189e-05
2.69566e-06
6.80383e-05
3.09986e-06
6.79218e-05
4.08826e-06
6.77863e-05
6.34848e-06
6.76041e-05
8.20751e-06
6.73569e-05
9.86852e-06
6.70761e-05
1.22555e-05
6.66943e-05
1.57412e-05
6.62e-05
2.0099e-05
6.55816e-05
2.53647e-05
6.48153e-05
3.17759e-05
6.38533e-05
4.0201e-05
6.26562e-05
5.10134e-05
6.11037e-05
6.63821e-05
5.91428e-05
8.76006e-05
5.64947e-05
0.000119299
5.33053e-05
0.00016542
4.89328e-05
0.000238199
4.52721e-05
0.00036759
3.54393e-05
0.000553495
0.00110227
6.81663e-05
1.03582e-06
6.81135e-05
2.7592e-06
6.80382e-05
3.17345e-06
6.79265e-05
4.17479e-06
6.77869e-05
6.50089e-06
6.76025e-05
8.39743e-06
6.73545e-05
1.0112e-05
6.70795e-05
1.25302e-05
6.66924e-05
1.61284e-05
6.61967e-05
2.05945e-05
6.5578e-05
2.59833e-05
6.48117e-05
3.25419e-05
6.385e-05
4.1156e-05
6.26541e-05
5.22144e-05
6.11033e-05
6.7934e-05
5.91461e-05
8.95586e-05
5.6509e-05
0.000121936
5.33577e-05
0.000168571
4.90348e-05
0.000242522
4.57124e-05
0.000370912
3.62508e-05
0.000562957
0.00113852
-1.03959e-05
1.03954e-05
-1.94233e-05
9.02686e-06
-2.12081e-05
1.78442e-06
-1.74365e-05
-3.77294e-06
-1.37053e-05
-3.73602e-06
-1.18424e-05
-1.86242e-06
-1.06382e-05
-1.20493e-06
-9.33171e-06
-1.3053e-06
-7.5529e-06
-1.7633e-06
-5.5317e-06
-2.01846e-06
-3.18484e-06
-2.43537e-06
3.02331e-07
-3.42655e-06
5.39202e-06
-5.09368e-06
1.17056e-05
-6.29204e-06
1.80969e-05
-6.38179e-06
2.36272e-05
-5.52685e-06
2.85628e-05
-4.93594e-06
3.38282e-05
-5.26561e-06
3.90576e-05
-5.22983e-06
4.30175e-05
-3.96011e-06
4.57396e-05
-2.72142e-06
4.78785e-05
-2.13984e-06
5.01135e-05
-2.23474e-06
5.43157e-05
-4.20301e-06
6.01871e-05
-5.87163e-06
6.41865e-05
-3.9991e-06
6.55791e-05
-1.39251e-06
6.60401e-05
-4.61149e-07
6.63682e-05
-3.28136e-07
6.66672e-05
-2.98971e-07
6.69191e-05
-2.51916e-07
6.71194e-05
-2.0032e-07
6.72796e-05
-1.60196e-07
6.74158e-05
-1.36182e-07
-6.11455e-08
-1.03166e-05
2.07109e-05
-1.92191e-05
1.79283e-05
-2.08373e-05
3.40173e-06
-1.69165e-05
-7.6964e-06
-1.32533e-05
-7.40844e-06
-1.14867e-05
-3.6284e-06
-1.04083e-05
-2.28458e-06
-9.22193e-06
-2.48923e-06
-7.44577e-06
-3.5094e-06
-5.35669e-06
-4.1024e-06
-3.07286e-06
-4.86491e-06
1.47854e-07
-6.55628e-06
4.82697e-06
-9.77924e-06
1.09785e-05
-1.24013e-05
1.74933e-05
-1.28779e-05
2.32075e-05
-1.1234e-05
2.81645e-05
-9.89353e-06
3.32853e-05
-1.03869e-05
3.84959e-05
-1.04412e-05
4.26562e-05
-8.12088e-06
4.55625e-05
-5.62651e-06
4.77947e-05
-4.3737e-06
5.00252e-05
-4.46489e-06
5.41177e-05
-8.29704e-06
5.99717e-05
-1.17261e-05
6.41008e-05
-8.12769e-06
6.55713e-05
-2.86286e-06
6.60446e-05
-9.34625e-07
6.63699e-05
-6.53566e-07
6.66675e-05
-5.96475e-07
6.69195e-05
-5.04019e-07
6.71204e-05
-4.01187e-07
6.72808e-05
-3.20515e-07
6.74169e-05
-2.72281e-07
-1.22408e-07
-1.0234e-05
3.0944e-05
-1.8899e-05
2.65925e-05
-2.0315e-05
4.81695e-06
-1.63165e-05
-1.16975e-05
-1.27657e-05
-1.09682e-05
-1.11338e-05
-5.25938e-06
-1.01573e-05
-3.26241e-06
-8.99079e-06
-3.65343e-06
-7.14804e-06
-5.32237e-06
-5.0655e-06
-6.17972e-06
-2.9415e-06
-7.14669e-06
9.27015e-09
-9.40941e-06
4.39539e-06
-1.41735e-05
1.04236e-05
-1.83874e-05
1.70158e-05
-1.94509e-05
2.28628e-05
-1.70735e-05
2.78373e-05
-1.48686e-05
3.28273e-05
-1.53773e-05
3.7999e-05
-1.56137e-05
4.23237e-05
-1.2446e-05
4.54024e-05
-8.70409e-06
4.77274e-05
-6.70025e-06
4.99575e-05
-6.69459e-06
5.39447e-05
-1.22857e-05
5.97759e-05
-1.75577e-05
6.40209e-05
-1.23723e-05
6.55647e-05
-4.40641e-06
6.60498e-05
-1.41985e-06
6.63722e-05
-9.76173e-07
6.66683e-05
-8.92491e-07
6.69205e-05
-7.56232e-07
6.71219e-05
-6.02532e-07
6.72822e-05
-4.80854e-07
6.74181e-05
-4.08204e-07
-1.83679e-07
-1.00919e-05
4.10348e-05
-1.84903e-05
3.49899e-05
-1.96794e-05
6.00494e-06
-1.55932e-05
-1.57868e-05
-1.21791e-05
-1.4392e-05
-1.06869e-05
-6.7509e-06
-9.79896e-06
-4.15168e-06
-8.63702e-06
-4.8126e-06
-6.73782e-06
-7.18778e-06
-4.68484e-06
-8.22691e-06
-2.72685e-06
-9.25556e-06
-1.70472e-08
-1.20408e-05
4.13141e-06
-1.83292e-05
1.00405e-05
-2.4248e-05
1.66489e-05
-2.60368e-05
2.2581e-05
-2.29961e-05
2.75696e-05
-1.98579e-05
3.24387e-05
-2.02469e-05
3.75519e-05
-2.0728e-05
4.20123e-05
-1.69069e-05
4.52573e-05
-1.19478e-05
4.76758e-05
-9.12068e-06
4.99095e-05
-8.92787e-06
5.37974e-05
-1.61751e-05
5.9599e-05
-2.33598e-05
6.39466e-05
-1.67194e-05
6.55591e-05
-6.01875e-06
6.60555e-05
-1.91642e-06
6.63751e-05
-1.29595e-06
6.66697e-05
-1.18693e-06
6.69219e-05
-1.00849e-06
6.71237e-05
-8.04271e-07
6.72839e-05
-6.41112e-07
6.74196e-05
-5.43832e-07
-2.44858e-07
-9.89459e-06
5.09286e-05
-1.79908e-05
4.30853e-05
-1.89197e-05
6.93278e-06
-1.4735e-05
-1.99744e-05
-1.1474e-05
-1.76623e-05
-1.01251e-05
-8.09871e-06
-9.3162e-06
-4.96184e-06
-8.14438e-06
-5.98185e-06
-6.19596e-06
-9.10236e-06
-4.1842e-06
-1.02321e-05
-2.39059e-06
-1.12145e-05
1.03051e-07
-1.44531e-05
4.06339e-06
-2.22996e-05
9.86462e-06
-2.9999e-05
1.64386e-05
-3.25873e-05
2.24002e-05
-2.89473e-05
2.73856e-05
-2.48442e-05
3.21345e-05
-2.49963e-05
3.71638e-05
-2.57583e-05
4.17268e-05
-2.14706e-05
4.5129e-05
-1.53485e-05
4.76411e-05
-1.16347e-05
4.98814e-05
-1.11677e-05
5.36749e-05
-1.99701e-05
5.94406e-05
-2.9126e-05
6.38778e-05
-2.1156e-05
6.55547e-05
-7.69551e-06
6.6062e-05
-2.42386e-06
6.63787e-05
-1.61289e-06
6.66716e-05
-1.47971e-06
6.69238e-05
-1.26071e-06
6.71259e-05
-1.00632e-06
6.7286e-05
-8.01185e-07
6.74212e-05
-6.79049e-07
-3.0585e-07
-9.64524e-06
6.05727e-05
-1.73989e-05
5.08379e-05
-1.8036e-05
7.56838e-06
-1.3743e-05
-2.42709e-05
-1.06355e-05
-2.07799e-05
-9.42804e-06
-9.30537e-06
-8.69034e-06
-5.70092e-06
-7.49207e-06
-7.17676e-06
-5.49472e-06
-1.10602e-05
-3.52015e-06
-1.21998e-05
-1.87931e-06
-1.30325e-05
4.19479e-07
-1.66823e-05
4.23519e-06
-2.61247e-05
9.94421e-06
-3.56461e-05
1.64488e-05
-3.90631e-05
2.23855e-05
-3.48705e-05
2.73383e-05
-2.9798e-05
3.19556e-05
-2.96145e-05
3.68636e-05
-3.06676e-05
4.14823e-05
-2.60899e-05
4.50234e-05
-1.8888e-05
4.7626e-05
-1.42396e-05
4.98742e-05
-1.34154e-05
5.35766e-05
-2.36742e-05
5.93e-05
-3.48498e-05
6.38144e-05
-2.56699e-05
6.55514e-05
-9.43235e-06
6.60691e-05
-2.94173e-06
6.6383e-05
-1.92698e-06
6.66742e-05
-1.77073e-06
6.69263e-05
-1.51283e-06
6.71286e-05
-1.20858e-06
6.72883e-05
-9.60964e-07
6.7423e-05
-8.13733e-07
-3.66555e-07
-9.34651e-06
6.99185e-05
-1.67158e-05
5.82065e-05
-1.70402e-05
7.89142e-06
-1.26351e-05
-2.86789e-05
-9.66046e-06
-2.37637e-05
-8.5812e-06
-1.03833e-05
-7.90666e-06
-6.37686e-06
-6.66335e-06
-8.41705e-06
-4.60538e-06
-1.308e-05
-2.63807e-06
-1.41588e-05
-1.12108e-06
-1.47496e-05
1.00167e-06
-1.8731e-05
4.71389e-06
-2.98509e-05
1.03501e-05
-4.12144e-05
1.67619e-05
-4.5444e-05
2.2626e-05
-4.07197e-05
2.75095e-05
-3.46827e-05
3.19694e-05
-3.40751e-05
3.66999e-05
-3.53996e-05
4.1306e-05
-3.06968e-05
4.49515e-05
-2.25318e-05
4.76355e-05
-1.6926e-05
4.989e-05
-1.56694e-05
5.35023e-05
-2.72881e-05
5.91765e-05
-4.05244e-05
6.37566e-05
-3.02497e-05
6.55494e-05
-1.12249e-05
6.6077e-05
-3.46947e-06
6.6388e-05
-2.2382e-06
6.66773e-05
-2.05992e-06
6.69292e-05
-1.76477e-06
6.71316e-05
-1.41097e-06
6.7291e-05
-1.12034e-06
6.74251e-05
-9.47766e-07
-4.26876e-07
-9.00093e-06
7.89183e-05
-1.59467e-05
6.5151e-05
-1.59536e-05
7.89646e-06
-1.14441e-05
-3.31921e-05
-8.56444e-06
-2.66532e-05
-7.58414e-06
-1.13627e-05
-6.96356e-06
-6.99884e-06
-5.65999e-06
-9.71666e-06
-3.51871e-06
-1.51776e-05
-1.49501e-06
-1.61748e-05
-4.3503e-08
-1.64223e-05
1.9249e-06
-2.06336e-05
5.57766e-06
-3.35162e-05
1.11742e-05
-4.6727e-05
1.74843e-05
-5.17151e-05
2.32371e-05
-4.64528e-05
2.80145e-05
-3.94617e-05
3.22771e-05
-3.83389e-05
3.67463e-05
-3.98709e-05
4.1239e-05
-3.51905e-05
4.49315e-05
-2.62221e-05
4.76779e-05
-1.96754e-05
4.99328e-05
-1.79238e-05
5.34524e-05