/*--------------------------------*- C++ -*----------------------------------*\
| =========                 |                                                 |
| \\      /  F ield         | OpenFOAM: The Open Source CFD Toolbox           |
|  \\    /   O peration     | Version:  v1912                                 |
|   \\  /    A nd           | Website:  www.openfoam.com                      |
|    \\/     M anipulation  |                                                 |
\*---------------------------------------------------------------------------*/
FoamFile
{
    version     2.0;
    format      ascii;
    class       volVectorField;
    location    "130";
    object      U;
}
// * * * * * * * * * * * * * * * * * * * * * * * * * * * * * * * * * * * * * //

dimensions      [0 1 -1 0 0 0 0];


internalField   nonuniform List<vector> 
12441
(
(29.9995 2.04008e-05 0)
(29.9836 5.87722e-05 0)
(29.9564 7.15822e-05 0)
(29.9191 0.000116601 0)
(29.8592 0.000207689 0)
(29.7862 0.000288704 0)
(29.6988 0.000381536 0)
(29.5878 0.000541661 0)
(29.4444 0.00077224 0)
(29.2678 0.00109251 0)
(29.0475 0.00151993 0)
(28.7813 0.00216603 0)
(28.4156 0.00296965 0)
(28.0096 0.00433756 0)
(27.4451 0.0061905 0)
(26.6708 0.0108349 0)
(25.6751 0.0140136 0)
(24.1285 0.0291731 0)
(21.9493 0.0501993 0)
(18.4186 0.0899052 0)
(12.6355 0.124957 0)
(6.1152 0.205654 0)
(29.9997 6.14572e-05 0)
(29.9824 0.000179234 0)
(29.9539 0.000218553 0)
(29.9198 0.000356614 0)
(29.861 0.00059232 0)
(29.7866 0.000867751 0)
(29.6979 0.0011413 0)
(29.5874 0.00162378 0)
(29.4455 0.00231183 0)
(29.2687 0.00325963 0)
(29.047 0.00453062 0)
(28.7819 0.00651878 0)
(28.4164 0.00889765 0)
(28.0088 0.0130455 0)
(27.441 0.0186016 0)
(26.6699 0.0323879 0)
(25.6716 0.0449058 0)
(24.1222 0.0834734 0)
(21.9417 0.130764 0)
(18.4091 0.260055 0)
(12.6314 0.366923 0)
(6.11422 0.613554 0)
(29.9997 0.000102711 0)
(29.9825 0.00030733 0)
(29.9542 0.000368719 0)
(29.9194 0.000574617 0)
(29.8607 0.000974163 0)
(29.7866 0.00144814 0)
(29.6979 0.00191624 0)
(29.5873 0.00270291 0)
(29.4454 0.00383206 0)
(29.2687 0.00542517 0)
(29.047 0.00755794 0)
(28.7825 0.0108541 0)
(28.413 0.0148125 0)
(28.0118 0.0217704 0)
(27.4448 0.0310379 0)
(26.6729 0.0530867 0)
(25.673 0.0764916 0)
(24.1263 0.136002 0)
(21.9404 0.208929 0)
(18.4021 0.427923 0)
(12.6289 0.605513 0)
(6.11633 1.01927 0)
(29.9997 0.000144767 0)
(29.9825 0.000435091 0)
(29.954 0.00051701 0)
(29.9199 0.00078928 0)
(29.8609 0.00136438 0)
(29.7865 0.00203911 0)
(29.6979 0.00269273 0)
(29.5874 0.00377456 0)
(29.4454 0.00535455 0)
(29.2687 0.00760216 0)
(29.0471 0.0105946 0)
(28.7822 0.0151997 0)
(28.4169 0.0207487 0)
(28.0085 0.0305061 0)
(27.4414 0.0434813 0)
(26.6711 0.0738857 0)
(25.6737 0.107351 0)
(24.1305 0.191648 0)
(21.9451 0.311895 0)
(18.4016 0.603791 0)
(12.634 0.848075 0)
(6.12368 1.42641 0)
(29.9996 0.000186765 0)
(29.9827 0.000561458 0)
(29.9545 0.000663908 0)
(29.9194 0.0010067 0)
(29.8606 0.0017589 0)
(29.7867 0.00262756 0)
(29.6981 0.00346236 0)
(29.5874 0.00484386 0)
(29.4453 0.00688159 0)
(29.2687 0.00978187 0)
(29.0471 0.0136282 0)
(28.7825 0.0195417 0)
(28.4123 0.026695 0)
(28.0113 0.0392264 0)
(27.4451 0.0559554 0)
(26.6734 0.0944551 0)
(25.6765 0.137679 0)
(24.1349 0.248045 0)
(21.955 0.397596 0)
(18.4085 0.775897 0)
(12.6479 1.09036 0)
(6.13657 1.83463 0)
(29.9996 0.000228601 0)
(29.9826 0.000687207 0)
(29.9542 0.00081103 0)
(29.92 0.00122591 0)
(29.8609 0.00215318 0)
(29.7865 0.00321261 0)
(29.698 0.00423079 0)
(29.5875 0.00591686 0)
(29.4454 0.00841238 0)
(29.2687 0.0119609 0)
(29.0472 0.0166592 0)
(28.7822 0.0238801 0)
(28.4181 0.0326516 0)
(28.008 0.0479471 0)
(27.4421 0.0684277 0)
(26.672 0.114914 0)
(25.6783 0.16773 0)
(24.1388 0.303809 0)
(21.9672 0.481757 0)
(18.4222 0.946803 0)
(12.6715 1.3323 0)
(6.15525 2.24375 0)
(29.9996 0.000270307 0)
(29.9828 0.00081206 0)
(29.9548 0.000958116 0)
(29.9195 0.00144621 0)
(29.8604 0.00254759 0)
(29.7867 0.0037968 0)
(29.6982 0.00500035 0)
(29.5875 0.00699168 0)
(29.4453 0.009943 0)
(29.2687 0.0141385 0)
(29.0472 0.0196903 0)
(28.7823 0.0282193 0)
(28.4125 0.0386006 0)
(28.0127 0.0566377 0)
(27.4469 0.0809132 0)
(26.675 0.135235 0)
(25.6825 0.197148 0)
(24.1436 0.35734 0)
(21.982 0.568204 0)
(18.4432 1.11791 0)
(12.7061 1.57431 0)
(6.18008 2.65408 0)
(29.9996 0.000311885 0)
(29.9827 0.000936538 0)
(29.9543 0.00110528 0)
(29.9202 0.00166695 0)
(29.8609 0.00294251 0)
(29.7865 0.00438073 0)
(29.6981 0.00576976 0)
(29.5876 0.00806659 0)
(29.4454 0.0114736 0)
(29.2687 0.0163151 0)
(29.0473 0.0227215 0)
(28.7822 0.0325535 0)
(28.4201 0.044559 0)
(28.0084 0.0653079 0)
(27.4432 0.0932343 0)
(26.6734 0.155249 0)
(25.6865 0.228008 0)
(24.1483 0.413122 0)
(21.9999 0.655946 0)
(18.473 1.2886 0)
(12.7533 1.81652 0)
(6.21152 3.06605 0)
(29.9996 0.000353363 0)
(29.9829 0.00106034 0)
(29.9551 0.00125218 0)
(29.9196 0.00188802 0)
(29.8604 0.00333798 0)
(29.7868 0.00496413 0)
(29.6983 0.00653888 0)
(29.5876 0.00914169 0)
(29.4454 0.0130047 0)
(29.2688 0.0184924 0)
(29.0474 0.0257548 0)
(28.7821 0.0368952 0)
(28.4119 0.050504 0)
(28.0136 0.0740696 0)
(27.4489 0.105703 0)
(26.6768 0.175715 0)
(25.6882 0.257508 0)
(24.1479 0.468657 0)
(22.0202 0.743457 0)
(18.5133 1.45828 0)
(12.8149 2.05903 0)
(6.25003 3.48012 0)
(29.9996 0.000394718 0)
(29.9827 0.00118383 0)
(29.9544 0.00139919 0)
(29.9204 0.00210948 0)
(29.8609 0.00373396 0)
(29.7866 0.00554677 0)
(29.6982 0.00730752 0)
(29.5877 0.0102173 0)
(29.4454 0.0145368 0)
(29.2688 0.0206693 0)
(29.0475 0.028788 0)
(28.782 0.0412223 0)
(28.4237 0.0564806 0)
(28.0105 0.0826077 0)
(27.4476 0.118818 0)
(26.6722 0.196533 0)
(25.6786 0.287495 0)
(24.1358 0.522601 0)
(22.0428 0.830472 0)
(18.5653 1.62683 0)
(12.8921 2.30192 0)
(6.2961 3.89676 0)
(29.9995 0.000435958 0)
(29.9831 0.00130659 0)
(29.9553 0.00154619 0)
(29.9196 0.00233162 0)
(29.8603 0.00413053 0)
(29.7868 0.00612871 0)
(29.6985 0.00807619 0)
(29.5877 0.0112935 0)
(29.4454 0.0160691 0)
(29.2689 0.0228462 0)
(29.0478 0.0318242 0)
(28.7817 0.0455506 0)
(28.4132 0.0624913 0)
(28.0097 0.0911787 0)
(27.4468 0.131281 0)
(26.6564 0.216457 0)
(25.6588 0.318749 0)
(24.1189 0.576197 0)
(22.0685 0.917038 0)
(18.6274 1.79394 0)
(12.9849 2.54527 0)
(6.3501 4.31648 0)
(29.9996 0.00047706 0)
(29.9828 0.00142907 0)
(29.9545 0.0016934 0)
(29.9205 0.00255417 0)
(29.8609 0.00452756 0)
(29.7866 0.00670989 0)
(29.6983 0.00884461 0)
(29.5878 0.01237 0)
(29.4455 0.017602 0)
(29.2688 0.0250214 0)
(29.0479 0.0348639 0)
(28.7811 0.0498643 0)
(28.4273 0.0685211 0)
(28.0051 0.10006 0)
(27.4345 0.144649 0)
(26.6312 0.237022 0)
(25.638 0.350341 0)
(24.1069 0.628574 0)
(22.0958 1.00261 0)
(18.6957 1.95921 0)
(13.0924 2.78908 0)
(6.4123 4.73978 0)
(29.9995 0.000518042 0)
(29.9832 0.00155093 0)
(29.9554 0.00184068 0)
(29.9196 0.00277679 0)
(29.8603 0.00492455 0)
(29.7869 0.00729049 0)
(29.6986 0.00961342 0)
(29.5878 0.013447 0)
(29.4455 0.0191354 0)
(29.2689 0.027197 0)
(29.0482 0.0379052 0)
(28.7806 0.0541987 0)
(28.4237 0.0745628 0)
(27.9983 0.109137 0)
(27.4158 0.158608 0)
(26.6064 0.257563 0)
(25.6218 0.381814 0)
(24.1018 0.679444 0)
(22.1219 1.08701 0)
(18.7651 2.12235 0)
(13.212 3.03321 0)
(6.48278 5.16715 0)
(29.9995 0.00055887 0)
(29.9829 0.00167252 0)
(29.9545 0.00198827 0)
(29.9206 0.00299976 0)
(29.8609 0.00532183 0)
(29.7867 0.00787027 0)
(29.6984 0.010382 0)
(29.5878 0.0145242 0)
(29.4456 0.0206693 0)
(29.2689 0.0293733 0)
(29.0483 0.0409701 0)
(28.7793 0.0585031 0)
(28.4383 0.0809796 0)
(27.9865 0.118509 0)
(27.396 0.17246 0)
(26.5871 0.277585 0)
(25.6102 0.412914 0)
(24.1005 0.729041 0)
(22.145 1.17033 0)
(18.8319 2.28327 0)
(13.3411 3.27745 0)
(6.56146 5.59901 0)
(29.9995 0.000599556 0)
(29.9834 0.00179337 0)
(29.9556 0.00213611 0)
(29.9196 0.00322323 0)
(29.8602 0.00571926 0)
(29.787 0.00844941 0)
(29.6987 0.0111512 0)
(29.5879 0.0156015 0)
(29.4457 0.0222042 0)
(29.269 0.0315479 0)
(29.0481 0.0440609 0)
(28.7787 0.0626547 0)
(28.4349 0.0873603 0)
(27.9722 0.127851 0)
(27.3797 0.186287 0)
(26.5731 0.297353 0)
(25.6017 0.443789 0)
(24.1004 0.777753 0)
(22.1647 1.25272 0)
(18.8942 2.44188 0)
(13.4771 3.52154 0)
(6.64807 6.03572 0)
(29.9995 0.000640074 0)
(29.983 0.00191395 0)
(29.9545 0.00228434 0)
(29.9207 0.00344716 0)
(29.8609 0.00611694 0)
(29.7868 0.00902765 0)
(29.6985 0.0119201 0)
(29.5879 0.0166792 0)
(29.4458 0.0237375 0)
(29.2693 0.033729 0)
(29.0478 0.0471679 0)
(28.7786 0.0669401 0)
(28.4304 0.0938164 0)
(27.9584 0.137158 0)
(27.367 0.200029 0)
(26.5629 0.31701 0)
(25.595 0.474547 0)
(24.1001 0.825897 0)
(22.1816 1.3343 0)
(18.9513 2.59816 0)
(13.6176 3.76518 0)
(6.74227 6.47759 0)
(29.9995 0.000680445 0)
(29.9835 0.0020339 0)
(29.9558 0.0024329 0)
(29.9196 0.00367103 0)
(29.8602 0.00651417 0)
(29.7872 0.0096054 0)
(29.6989 0.0126898 0)
(29.588 0.017757 0)
(29.4459 0.0252705 0)
(29.2695 0.0359083 0)
(29.0476 0.050344 0)
(28.7775 0.0712549 0)
(28.421 0.100339 0)
(27.9471 0.146451 0)
(27.3574 0.213744 0)
(26.5552 0.336608 0)
(25.5894 0.505231 0)
(24.0993 0.873657 0)
(22.1965 1.41516 0)
(19.0035 2.75204 0)
(13.7611 4.0081 0)
(6.84366 6.92489 0)
(29.9995 0.000720641 0)
(29.9832 0.0021536 0)
(29.9546 0.00258187 0)
(29.9208 0.00389531 0)
(29.8609 0.00691153 0)
(29.7869 0.0101822 0)
(29.6987 0.0134593 0)
(29.588 0.0188346 0)
(29.4461 0.0268034 0)
(29.2696 0.0380838 0)
(29.0482 0.053547 0)
(28.7749 0.0756707 0)
(28.4129 0.10682 0)
(27.938 0.155746 0)
(27.3498 0.227445 0)
(26.5493 0.356175 0)
(25.5844 0.53587 0)
(24.098 0.921141 0)
(22.2102 1.49532 0)
(19.0516 2.90351 0)
(13.9066 4.25005 0)
(6.95182 7.37782 0)
(29.9994 0.000760678 0)
(29.9837 0.00227255 0)
(29.9559 0.00273131 0)
(29.9195 0.00411994 0)
(29.8601 0.00730867 0)
(29.7874 0.0107584 0)
(29.699 0.0142297 0)
(29.5881 0.0199125 0)
(29.4462 0.0283352 0)
(29.2696 0.0402693 0)
(29.0492 0.056743 0)
(28.7707 0.0800608 0)
(28.4054 0.113348 0)
(27.9308 0.165029 0)
(27.3437 0.241134 0)
(26.5445 0.375721 0)
(25.5798 0.56648 0)
(24.0963 0.968406 0)
(22.2236 1.57481 0)
(19.0965 3.05252 0)
(14.0536 4.49078 0)
(7.06639 7.83658 0)
(29.9995 0.000800532 0)
(29.9833 0.00239126 0)
(29.9546 0.00288117 0)
(29.9209 0.00434511 0)
(29.8609 0.00770597 0)
(29.787 0.0113336 0)
(29.6988 0.015 0)
(29.5881 0.0209903 0)
(29.4464 0.0298698 0)
(29.2695 0.0424572 0)
(29.0508 0.0600326 0)
(28.7661 0.0844402 0)
(28.3993 0.119866 0)
(27.9248 0.174322 0)
(27.3387 0.254812 0)
(26.5405 0.395258 0)
(25.5756 0.597075 0)
(24.0945 1.01548 0)
(22.2373 1.65364 0)
(19.1393 3.19906 0)
(14.2021 4.73011 0)
(7.18705 8.30135 0)
(29.9994 0.000840234 0)
(29.9838 0.00250933 0)
(29.9561 0.00303152 0)
(29.9194 0.00457006 0)
(29.8601 0.00810255 0)
(29.7876 0.0119083 0)
(29.6992 0.0157715 0)
(29.5882 0.0220676 0)
(29.4465 0.0314057 0)
(29.2695 0.0446541 0)
(29.052 0.0633433 0)
(28.7616 0.0888645 0)
(28.3941 0.12642 0)
(27.9199 0.183609 0)
(27.3344 0.268477 0)
(26.5372 0.414793 0)
(25.5717 0.62767 0)
(24.0928 1.06235 0)
(22.2519 1.73181 0)
(19.1809 3.34312 0)
(14.3526 4.96785 0)
(7.31359 8.77232 0)
(29.9994 0.000879749 0)
(29.9834 0.00262719 0)
(29.9546 0.00318229 0)
(29.9209 0.0047955 0)
(29.861 0.0084992 0)
(29.7872 0.012482 0)
(29.699 0.0165428 0)
(29.5882 0.0231455 0)
(29.4466 0.0329386 0)
(29.2699 0.0469108 0)
(29.0519 0.0665941 0)
(28.7576 0.0933392 0)
(28.3898 0.132974 0)
(27.9156 0.1929 0)
(27.3307 0.282133 0)
(26.5343 0.434333 0)
(25.5681 0.658277 0)
(24.0914 1.109 0)
(22.2676 1.8093 0)
(19.2221 3.48468 0)
(14.5055 5.20387 0)
(7.44585 9.24967 0)
(29.9994 0.000919104 0)
(29.984 0.00274429 0)
(29.9562 0.00333364 0)
(29.9194 0.00502111 0)
(29.86 0.00889539 0)
(29.7877 0.0130552 0)
(29.6994 0.0173152 0)
(29.5883 0.0242236 0)
(29.4466 0.0344694 0)
(29.2705 0.049211 0)
(29.0504 0.0698315 0)
(28.7539 0.0978722 0)
(28.3859 0.139546 0)
(27.9119 0.202185 0)
(27.3274 0.295779 0)
(26.5318 0.453881 0)
(25.565 0.6889 0)
(24.0907 1.15537 0)
(22.2846 1.88612 0)
(19.2638 3.62371 0)
(14.6617 5.43803 0)
(7.58378 9.73359 0)
(29.9994 0.000958269 0)
(29.9835 0.0028612 0)
(29.9546 0.00348538 0)
(29.921 0.00524735 0)
(29.861 0.0092917 0)
(29.7873 0.0136273 0)
(29.6991 0.0180873 0)
(29.5884 0.0253026 0)
(29.4466 0.0359953 0)
(29.2713 0.051543 0)
(29.0482 0.0730105 0)
(28.7507 0.102444 0)
(28.3826 0.146117 0)
(27.9086 0.21147 0)
(27.3245 0.309419 0)
(26.5297 0.473439 0)
(25.5624 0.719529 0)
(24.0905 1.20142 0)
(22.3031 1.96225 0)
(19.3066 3.76019 0)
(14.8223 5.67024 0)
(7.72739 10.2243 0)
(29.9993 0.000997283 0)
(29.9842 0.00297745 0)
(29.9563 0.00363773 0)
(29.9193 0.00547319 0)
(29.8601 0.00968703 0)
(29.788 0.0141992 0)
(29.6996 0.0188605 0)
(29.5885 0.0263827 0)
(29.4466 0.0375144 0)
(29.272 0.0538571 0)
(29.0458 0.0761453 0)
(28.7479 0.10704 0)
(28.3796 0.152697 0)
(27.9057 0.22075 0)
(27.3219 0.323053 0)
(26.5278 0.493004 0)
(25.5604 0.750143 0)
(24.091 1.24714 0)
(22.3227 2.03769 0)
(19.3509 3.89406 0)
(14.9884 5.90041 0)
(7.87681 10.7221 0)
(29.9994 0.00103611 0)
(29.9837 0.00309356 0)
(29.9547 0.00379045 0)
(29.921 0.00569963 0)
(29.8611 0.0100824 0)
(29.7875 0.0147698 0)
(29.6993 0.0196334 0)
(29.5886 0.0274619 0)
(29.4467 0.039048 0)
(29.2725 0.0561528 0)
(29.0436 0.0792673 0)
(28.7453 0.111651 0)
(28.3768 0.159276 0)
(27.903 0.23003 0)
(27.3196 0.336682 0)
(26.5261 0.51257 0)
(25.559 0.780715 0)
(24.0923 1.29251 0)
(22.3435 2.11243 0)
(19.3972 4.02522 0)
(15.161 6.12845 0)
(8.03221 11.2271 0)
(29.9993 0.00107478 0)
(29.9843 0.00320891 0)
(29.9565 0.00394383 0)
(29.9192 0.00592601 0)
(29.86 0.0104772 0)
(29.7882 0.0153403 0)
(29.6997 0.0204075 0)
(29.5887 0.0285432 0)
(29.4468 0.0405861 0)
(29.2727 0.0585856 0)
(29.0415 0.0824109 0)
(28.743 0.116272 0)
(28.3742 0.165859 0)
(27.9005 0.239307 0)
(27.3174 0.350304 0)
(26.5248 0.532126 0)
(25.5582 0.811231 0)
(24.0943 1.33755 0)
(22.3653 2.18644 0)
(19.4456 4.15358 0)
(15.3415 6.35429 0)
(8.19385 11.7398 0)
(29.9993 0.00111326 0)
(29.9838 0.00332412 0)
(29.9547 0.00409754 0)
(29.921 0.00615316 0)
(29.8611 0.0108721 0)
(29.7877 0.0159094 0)
(29.6994 0.0211808 0)
(29.5887 0.0296247 0)
(29.447 0.0421265 0)
(29.2725 0.0610085 0)
(29.0395 0.0855941 0)
(28.7408 0.1209 0)
(28.3719 0.172442 0)
(27.8982 0.248583 0)
(27.3155 0.363916 0)
(26.5236 0.551663 0)
(25.5579 0.841687 0)
(24.0971 1.38226 0)
(22.3878 2.25971 0)
(19.4964 4.27899 0)
(15.531 6.57786 0)
(8.36203 12.2603 0)
(29.9993 0.0011516 0)
(29.9845 0.0034387 0)
(29.9566 0.00425197 0)
(29.9192 0.0063797 0)
(29.8601 0.011266 0)
(29.7884 0.0164784 0)
(29.6999 0.0219564 0)
(29.5888 0.0307024 0)
(29.4474 0.0437187 0)
(29.2722 0.0632763 0)
(29.0377 0.0888191 0)
(28.7387 0.125533 0)
(28.3696 0.179026 0)
(27.896 0.257855 0)
(27.3137 0.377516 0)
(26.5226 0.571177 0)
(25.558 0.872083 0)
(24.1005 1.42664 0)
(22.4109 2.3322 0)
(19.5494 4.40128 0)
(15.7303 6.79908 0)
(8.53712 12.7892 0)
(29.9993 0.00118976 0)
(29.9839 0.0035532 0)
(29.9547 0.0044067 0)
(29.9211 0.00660701 0)
(29.8611 0.01166 0)
(29.7879 0.017046 0)
(29.6996 0.0227314 0)
(29.5887 0.0317797 0)
(29.4477 0.045333 0)
(29.2717 0.0655157 0)
(29.0359 0.0920779 0)
(28.7367 0.13017 0)
(28.3675 0.185611 0)
(27.894 0.267124 0)
(27.312 0.391103 0)
(26.5218 0.590663 0)
(25.5585 0.902418 0)
(24.1047 1.47069 0)
(22.4346 2.4039 0)
(19.6045 4.52027 0)
(15.9401 7.01788 0)
(8.71947 13.3267 0)
(29.9992 0.00122777 0)
(29.9847 0.00366691 0)
(29.9567 0.00456216 0)
(29.9191 0.00683415 0)
(29.86 0.0120533 0)
(29.7885 0.0176136 0)
(29.7001 0.0235078 0)
(29.5889 0.0328568 0)
(29.4481 0.0469549 0)
(29.2711 0.067762 0)
(29.0342 0.0953602 0)
(28.7348 0.134809 0)
(28.3654 0.192196 0)
(27.892 0.276388 0)
(27.3105 0.404674 0)
(26.5211 0.610122 0)
(25.5594 0.932687 0)
(24.1096 1.51439 0)
(22.4586 2.47478 0)
(19.6613 4.63576 0)
(16.1609 7.23414 0)
(8.90947 13.8733 0)
(29.9993 0.0012656 0)
(29.984 0.00378059 0)
(29.9547 0.00471789 0)
(29.9211 0.00706219 0)
(29.8612 0.0124468 0)
(29.788 0.0181795 0)
(29.6998 0.024284 0)
(29.5888 0.0339326 0)
(29.4484 0.0485869 0)
(29.2703 0.0700023 0)
(29.0325 0.0986581 0)
(28.733 0.139452 0)
(28.3635 0.198783 0)
(27.8901 0.285648 0)
(27.309 0.418232 0)
(26.5206 0.629551 0)
(25.5605 0.962882 0)
(24.1152 1.55777 0)
(22.4831 2.54483 0)
(19.7197 4.74755 0)
(16.3927 7.44778 0)
(9.10747 14.4294 0)
(29.9992 0.00130331 0)
(29.9848 0.00389359 0)
(29.9568 0.00487438 0)
(29.919 0.00728953 0)
(29.86 0.0128392 0)
(29.7887 0.0187456 0)
(29.7003 0.0250619 0)
(29.5889 0.0350076 0)
(29.4488 0.0502283 0)
(29.2694 0.0722417 0)
(29.0309 0.101967 0)
(28.7312 0.144096 0)
(28.3615 0.205369 0)
(27.8884 0.294902 0)
(27.3077 0.431775 0)
(26.5201 0.648951 0)
(25.5619 0.992997 0)
(24.1215 1.6008 0)
(22.5078 2.61405 0)
(19.7792 4.85544 0)
(16.6352 7.65865 0)
(9.31383 14.9954 0)
(29.9993 0.00134086 0)
(29.9841 0.00400665 0)
(29.9547 0.00503097 0)
(29.9211 0.00751777 0)
(29.8612 0.0132322 0)
(29.7882 0.01931 0)
(29.7 0.0258391 0)
(29.5888 0.0360812 0)
(29.4492 0.0518777 0)
(29.2683 0.0744822 0)
(29.0293 0.105285 0)
(28.7295 0.148743 0)
(28.3597 0.211955 0)
(27.8866 0.304151 0)
(27.3064 0.445305 0)
(26.5196 0.668319 0)
(25.5635 1.02302 0)
(24.1284 1.6435 0)
(22.5329 2.68242 0)
(19.8397 4.95924 0)
(16.8882 7.86665 0)
(9.52883 15.5718 0)
(29.9992 0.0013783 0)
(29.9849 0.00411913 0)
(29.9569 0.00518836 0)
(29.9189 0.00774494 0)
(29.8601 0.013624 0)
(29.7889 0.0198749 0)
(29.7005 0.0266181 0)
(29.5889 0.0371509 0)
(29.4497 0.0535323 0)
(29.2671 0.0767276 0)
(29.0277 0.108608 0)
(28.7277 0.153391 0)
(28.3579 0.21854 0)
(27.885 0.313394 0)
(27.3052 0.458821 0)
(26.5193 0.687655 0)
(25.5652 1.05295 0)
(24.1359 1.68586 0)
(22.5584 2.74994 0)
(19.9011 5.05876 0)
(17.1513 8.0716 0)
(9.75276 16.1589 0)
(29.9993 0.00141558 0)
(29.9842 0.00423165 0)
(29.9547 0.00534582 0)
(29.9211 0.00797319 0)
(29.8612 0.0140164 0)
(29.7883 0.0204377 0)
(29.7002 0.0273983 0)
(29.5888 0.0382169 0)
(29.4501 0.0551416 0)
(29.2658 0.0789794 0)
(29.0261 0.111935 0)
(28.726 0.15804 0)
(28.3561 0.225124 0)
(27.8834 0.32263 0)
(27.304 0.472325 0)
(26.519 0.706958 0)
(25.5671 1.08278 0)
(24.144 1.72788 0)
(22.5843 2.8166 0)
(19.9634 5.15385 0)
(17.4242 8.27336 0)
(9.98585 16.7572 0)
(29.9992 0.00145278 0)
(29.985 0.00434352 0)
(29.957 0.00550414 0)
(29.9189 0.00820073 0)
(29.86 0.0144077 0)
(29.789 0.0210015 0)
(29.7007 0.0281774 0)
(29.5889 0.0393078 0)
(29.4508 0.056632 0)
(29.2643 0.0812453 0)
(29.0245 0.115266 0)
(28.7243 0.162691 0)
(28.3544 0.231706 0)
(27.8818 0.331862 0)
(27.303 0.485816 0)
(26.5187 0.726226 0)
(25.5691 1.1125 0)
(24.1526 1.76955 0)
(22.6106 2.88241 0)
(20.0264 5.24432 0)
(17.7067 8.47176 0)
(10.2283 17.3671 0)
(29.9992 0.0014898 0)
(29.9843 0.00445548 0)
(29.9546 0.00566256 0)
(29.9211 0.00842994 0)
(29.8612 0.0147995 0)
(29.7883 0.0215621 0)
(29.7003 0.0289592 0)
(29.5888 0.0403878 0)
(29.4505 0.0583594 0)
(29.2627 0.0835446 0)
(29.0229 0.118599 0)
(28.7227 0.167342 0)
(28.3527 0.238288 0)
(27.8803 0.341087 0)
(27.3019 0.499294 0)
(26.5185 0.74546 0)
(25.5712 1.1421 0)
(24.1616 1.81087 0)
(22.6376 2.94735 0)
(20.0901 5.33001 0)
(17.999 8.66662 0)
(10.4804 17.9891 0)
(29.9991 0.00152672 0)
(29.9852 0.0045665 0)
(29.9571 0.00582169 0)
(29.9187 0.00865924 0)
(29.8599 0.0151917 0)
(29.7891 0.0221221 0)
(29.7007 0.0297401 0)
(29.5892 0.0414921 0)
(29.4495 0.0601399 0)
(29.2611 0.0858749 0)
(29.0213 0.121933 0)
(28.721 0.171994 0)
(28.3511 0.244868 0)
(27.8789 0.350308 0)
(27.301 0.51276 0)
(26.5183 0.764659 0)
(25.5733 1.17158 0)
(24.171 1.85183 0)
(22.6653 3.01142 0)
(20.1542 5.41076 0)
(18.3013 8.85777 0)
(10.7423 18.6236 0)
(29.9992 0.00156351 0)
(29.9844 0.00467765 0)
(29.9547 0.00598022 0)
(29.9211 0.0088892 0)
(29.8612 0.0155868 0)
(29.7884 0.0226838 0)
(29.7003 0.0305047 0)
(29.5892 0.0426188 0)
(29.4487 0.0617382 0)
(29.2595 0.0882223 0)
(29.0197 0.125268 0)
(28.7194 0.176646 0)
(28.3494 0.251447 0)
(27.8774 0.359523 0)
(27.3 0.526213 0)
(26.5182 0.783822 0)
(25.5756 1.20094 0)
(24.1807 1.89241 0)
(22.6939 3.07463 0)
(20.2183 5.4864 0)
(18.6135 9.045 0)
(11.0143 19.271 0)
(29.9991 0.0016002 0)
(29.9852 0.00478916 0)
(29.957 0.00614046 0)
(29.9188 0.00911278 0)
(29.86 0.0159803 0)
(29.7892 0.0232543 0)
(29.7008 0.0312966 0)
(29.5892 0.0436132 0)
(29.4481 0.0632617 0)
(29.2579 0.0905792 0)
(29.0181 0.128603 0)
(28.7177 0.181298 0)
(28.3478 0.258026 0)
(27.8761 0.368729 0)
(27.2992 0.539652 0)
(26.5182 0.80295 0)
(25.5778 1.23017 0)
(24.1906 1.93262 0)
(22.7235 3.13699 0)
(20.2816 5.55676 0)
(18.9346 9.22817 0)
(11.2967 19.9317 0)
(29.9992 0.00163645 0)
(29.9845 0.00490009 0)
(29.9549 0.00630594 0)
(29.9209 0.00933795 0)
(29.8611 0.0163518 0)
(29.7886 0.0238253 0)
(29.7005 0.0321095 0)
(29.5896 0.044725 0)
(29.4476 0.0648138 0)
(29.2565 0.0929421 0)
(29.0165 0.131939 0)
(28.7161 0.18595 0)
(28.3463 0.264603 0)
(27.8747 0.377929 0)
(27.2984 0.553076 0)
(26.5182 0.82204 0)
(25.5802 1.25927 0)
(24.2006 1.97242 0)
(22.7544 3.19852 0)
(20.3432 5.62172 0)
(19.2613 9.40721 0)
(11.5894 20.6071 0)
(29.9991 0.00167263 0)
(29.9854 0.00500483 0)
(29.9573 0.00647482 0)
(29.9186 0.0096045 0)
(29.8598 0.016705 0)
(29.7894 0.024356 0)
(29.7005 0.0329328 0)
(29.5912 0.0459967 0)
(29.4472 0.0664147 0)
(29.2551 0.0953104 0)
(29.015 0.135275 0)
(28.7144 0.190603 0)
(28.3447 0.271177 0)
(27.8734 0.387116 0)
(27.2977 0.566484 0)
(26.5184 0.841098 0)
(25.5826 1.28825 0)
(24.2106 2.01183 0)
(22.7869 3.25927 0)
(20.4022 5.68126 0)
(19.586 9.5818 0)
(11.8921 21.3041 0)
(29.9992 0.00171162 0)
(29.9842 0.00510038 0)
(29.954 0.00659463 0)
(29.9214 0.00991496 0)
(29.8611 0.0171196 0)
(29.7887 0.0248533 0)
(29.6998 0.0336904 0)
(29.5923 0.047171 0)
(29.4468 0.0680467 0)
(29.2537 0.0976767 0)
(29.0134 0.138604 0)
(28.7128 0.195262 0)
(28.3432 0.277754 0)
(27.8721 0.396289 0)
(27.2972 0.57988 0)
(26.5186 0.860126 0)
(25.5851 1.31712 0)
(24.2206 2.05078 0)
(22.821 3.31931 0)
(20.4584 5.73545 0)
(19.8967 9.74988 0)
(12.2901 22.0448 0)
(-2.0584 0.10621 0)
(-7.35151 0.0864255 0)
(-9.8547 0.0167048 0)
(-8.7145 -0.0296252 0)
(-6.54155 -0.027982 0)
(-5.49403 -0.0132791 0)
(-4.91133 -0.00793377 0)
(-4.43369 -0.00762557 0)
(-3.74387 -0.00924147 0)
(-2.86416 -0.0100355 0)
(-1.97389 -0.0118743 0)
(-0.783858 -0.0150161 0)
(1.12439 -0.0202573 0)
(3.73219 -0.0227936 0)
(6.68566 -0.0214005 0)
(9.34288 -0.0172916 0)
(11.535 -0.0144725 0)
(13.6851 -0.0141815 0)
(16.1834 -0.0128332 0)
(18.2708 -0.00878422 0)
(19.6391 -0.00557574 0)
(20.6519 -0.00407637 0)
(21.5158 -0.00399019 0)
(22.628 -0.00694892 0)
(25.2752 -0.00885558 0)
(27.7898 -0.00550573 0)
(28.7319 -0.00176277 0)
(28.9878 -0.000545054 0)
(29.1333 -0.000361547 0)
(29.2764 -0.000303646 0)
(29.3955 -0.000235836 0)
(29.4974 -0.000173054 0)
(29.5706 -0.000127891 0)
(29.6381 -0.000100429 0)
(29.6899 -4.15976e-05 0)
(-2.08305 0.318643 0)
(-7.30732 0.255535 0)
(-9.71042 0.0455765 0)
(-8.48478 -0.0917923 0)
(-6.32279 -0.082823 0)
(-5.32182 -0.0378173 0)
(-4.7883 -0.0223428 0)
(-4.37424 -0.0223449 0)
(-3.70381 -0.0284522 0)
(-2.78115 -0.0304333 0)
(-1.89678 -0.0335935 0)
(-0.777762 -0.0430847 0)
(0.955167 -0.0591602 0)
(3.40831 -0.0680002 0)
(6.3764 -0.0642555 0)
(9.12827 -0.0516549 0)
(11.3807 -0.0424533 0)
(13.4852 -0.0417754 0)
(15.9013 -0.0384294 0)
(18.0619 -0.0271327 0)
(19.5346 -0.0172011 0)
(20.6028 -0.0124165 0)
(21.4921 -0.0118667 0)
(22.573 -0.020545 0)
(25.1525 -0.0266086 0)
(27.7257 -0.0168545 0)
(28.7228 -0.00543682 0)
(28.9904 -0.00165255 0)
(29.1346 -0.00107952 0)
(29.2766 -0.000908914 0)
(29.3955 -0.000707932 0)
(29.4977 -0.000520027 0)
(29.5712 -0.000383886 0)
(29.6386 -0.000301279 0)
(29.6904 -0.000124993 0)
(-2.09191 0.528242 0)
(-7.21993 0.421038 0)
(-9.51712 0.0724768 0)
(-8.20577 -0.155239 0)
(-6.07761 -0.136924 0)
(-5.14181 -0.0614255 0)
(-4.66145 -0.0354239 0)
(-4.28263 -0.0359349 0)
(-3.59094 -0.0474693 0)
(-2.62832 -0.0512438 0)
(-1.79469 -0.055479 0)
(-0.769634 -0.0682179 0)
(0.817834 -0.0944478 0)
(3.16265 -0.11189 0)
(6.13444 -0.107944 0)
(8.95294 -0.0869228 0)
(11.2543 -0.0702997 0)
(13.322 -0.0677911 0)
(15.6583 -0.0633604 0)
(17.8698 -0.0460035 0)
(19.4378 -0.0295886 0)
(20.5608 -0.0211564 0)
(21.4758 -0.0197681 0)
(22.5286 -0.0337508 0)
(25.0421 -0.0442527 0)
(27.6658 -0.0285133 0)
(28.7145 -0.00931746 0)
(28.9933 -0.00279359 0)
(29.1361 -0.00179132 0)
(29.277 -0.00151076 0)
(29.3958 -0.00118016 0)
(29.4983 -0.000867812 0)
(29.5719 -0.000639967 0)
(29.6391 -0.000501903 0)
(29.6909 -0.000208451 0)
(-2.08199 0.735963 0)
(-7.09905 0.582137 0)
(-9.28068 0.0953035 0)
(-7.86625 -0.22058 0)
(-5.78574 -0.188908 0)
(-4.92153 -0.082868 0)
(-4.49236 -0.0472246 0)
(-4.139 -0.049494 0)
(-3.42176 -0.0673763 0)
(-2.43235 -0.0718617 0)
(-1.65654 -0.07574 0)
(-0.725399 -0.0915439 0)
(0.743269 -0.128052 0)
(3.00342 -0.155039 0)
(5.95643 -0.15241 0)
(8.80993 -0.123573 0)
(11.1502 -0.0988225 0)
(13.1888 -0.0938254 0)
(15.4463 -0.0884978 0)
(17.6897 -0.0658015 0)
(19.3475 -0.0427076 0)
(20.5256 -0.0302503 0)
(21.4667 -0.0276631 0)
(22.4944 -0.0466259 0)
(24.944 -0.061827 0)
(27.61 -0.0405023 0)
(28.7069 -0.0133827 0)
(28.9965 -0.00396107 0)
(29.138 -0.00249679 0)
(29.2777 -0.00210958 0)
(29.3963 -0.0016526 0)
(29.499 -0.00121641 0)
(29.5727 -0.000896021 0)
(29.6398 -0.000702192 0)
(29.6915 -0.000291869 0)
(-2.05454 0.940392 0)
(-6.94714 0.737887 0)
(-8.99648 0.113831 0)
(-7.4622 -0.287261 0)
(-5.4401 -0.23858 0)
(-4.65061 -0.10231 0)
(-4.27311 -0.0579624 0)
(-3.93627 -0.0630811 0)
(-3.18901 -0.0877883 0)
(-2.18346 -0.0920302 0)
(-1.46494 -0.0944718 0)
(-0.62899 -0.11303 0)
(0.745189 -0.159969 0)
(2.94194 -0.197143 0)
(5.86273 -0.196638 0)
(8.71945 -0.160661 0)
(11.0817 -0.127564 0)
(13.0935 -0.119344 0)
(15.2705 -0.113338 0)
(17.5246 -0.0861968 0)
(19.2647 -0.0565208 0)
(20.4977 -0.039712 0)
(21.4652 -0.0355802 0)
(22.4703 -0.0591888 0)
(24.8579 -0.0793027 0)
(27.5581 -0.0527624 0)
(28.7 -0.0176211 0)
(29 -0.00515523 0)
(29.1401 -0.00319602 0)
(29.2787 -0.00270513 0)
(29.3971 -0.00212507 0)
(29.5 -0.00156564 0)
(29.5737 -0.00115187 0)
(29.6406 -0.000901966 0)
(29.6922 -0.0003751 0)
(-2.01075 1.14024 0)
(-6.7659 0.88752 0)
(-8.66133 0.127537 0)
(-6.99762 -0.355513 0)
(-5.03705 -0.285916 0)
(-4.31931 -0.119765 0)
(-3.99565 -0.0677572 0)
(-3.66599 -0.0768953 0)
(-2.88279 -0.108704 0)
(-1.86684 -0.111762 0)
(-1.19575 -0.111773 0)
(-0.458059 -0.132748 0)
(0.844721 -0.19046 0)
(2.99583 -0.238214 0)
(5.87853 -0.240085 0)
(8.71252 -0.197444 0)
(11.0749 -0.156074 0)
(13.0565 -0.144135 0)
(15.1465 -0.137595 0)
(17.384 -0.10695 0)
(19.193 -0.0709617 0)
(20.4785 -0.0495323 0)
(21.472 -0.0435261 0)
(22.4563 -0.0714503 0)
(24.783 -0.0966592 0)
(27.5103 -0.065254 0)
(28.6937 -0.0220201 0)
(29.0037 -0.00637482 0)
(29.1426 -0.003889 0)
(29.2799 -0.00329721 0)
(29.398 -0.00259741 0)
(29.5012 -0.00191532 0)
(29.5749 -0.00140734 0)
(29.6415 -0.00110105 0)
(29.6928 -0.000458007 0)
(-1.95168 1.33445 0)
(-6.55665 1.03028 0)
(-8.27471 0.135935 0)
(-6.48445 -0.425559 0)
(-4.5797 -0.331114 0)
(-3.92113 -0.135342 0)
(-3.65334 -0.0767006 0)
(-3.32156 -0.0911312 0)
(-2.49501 -0.130186 0)
(-1.46539 -0.131259 0)
(-0.816855 -0.127963 0)
(-0.181857 -0.15088 0)
(1.07182 -0.21993 0)
(3.19441 -0.278599 0)
(6.03718 -0.282827 0)
(8.82857 -0.23367 0)
(11.1684 -0.184126 0)
(13.1107 -0.168085 0)
(15.1001 -0.161055 0)
(17.2846 -0.127778 0)
(19.139 -0.0859189 0)
(20.4711 -0.0596889 0)
(21.4889 -0.0515002 0)
(22.4526 -0.0834174 0)
(24.7189 -0.113878 0)
(27.4665 -0.0779439 0)
(28.6882 -0.0265682 0)
(29.0078 -0.00761863 0)
(29.1454 -0.00457572 0)
(29.2815 -0.00388566 0)
(29.3992 -0.00306948 0)
(29.5026 -0.0022653 0)
(29.5762 -0.00166225 0)
(29.6425 -0.00129925 0)
(29.6936 -0.000540457 0)
(-1.87826 1.52207 0)
(-6.32073 1.16542 0)
(-7.83959 0.138768 0)
(-5.93954 -0.497392 0)
(-4.08016 -0.374628 0)
(-3.45719 -0.149324 0)
(-3.24419 -0.0848872 0)
(-2.90318 -0.105986 0)
(-2.02713 -0.15243 0)
(-0.970211 -0.151034 0)
(-0.298554 -0.143538 0)
(0.234535 -0.167632 0)
(1.45808 -0.248868 0)
(3.57466 -0.318744 0)
(6.38278 -0.325143 0)
(9.11764 -0.269389 0)
(11.4139 -0.211651 0)
(13.3058 -0.191085 0)
(15.1705 -0.183456 0)
(17.2514 -0.148295 0)
(19.1138 -0.101202 0)
(20.48 -0.0701311 0)
(21.5181 -0.0594902 0)
(22.4601 -0.0950884 0)
(24.6651 -0.130937 0)
(27.4267 -0.0908016 0)
(28.6835 -0.0312541 0)
(29.0121 -0.00888538 0)
(29.1485 -0.00525617 0)
(29.2833 -0.00447031 0)
(29.4007 -0.00354115 0)
(29.5042 -0.00261541 0)
(29.5776 -0.00191643 0)
(29.6437 -0.00149641 0)
(29.6943 -0.000622314 0)
(-1.79132 1.70216 0)
(-6.05969 1.29224 0)
(-7.36196 0.136076 0)
(-5.37825 -0.570748 0)
(-3.5566 -0.417076 0)
(-2.93919 -0.162218 0)
(-2.77382 -0.0924401 0)
(-2.42141 -0.121566 0)
(-1.49694 -0.175692 0)
(-0.395845 -0.171819 0)
(0.352534 -0.158991 0)
(0.806355 -0.183289 0)
(2.00976 -0.277645 0)
(4.14946 -0.358963 0)
(6.94515 -0.367155 0)
(9.62616 -0.304646 0)
(11.8673 -0.238664 0)
(13.7035 -0.213027 0)
(15.4165 -0.204451 0)
(17.3214 -0.167995 0)
(19.1344 -0.116509 0)
(20.5127 -0.0807617 0)
(21.5634 -0.0674646 0)
(22.48 -0.106449 0)
(24.6211 -0.147812 0)
(27.3911 -0.103798 0)
(28.6796 -0.0360666 0)
(29.0168 -0.0101737 0)
(29.1519 -0.00593035 0)
(29.2855 -0.005051 0)
(29.4024 -0.00401224 0)
(29.5061 -0.00296547 0)
(29.5792 -0.00216967 0)
(29.645 -0.00169232 0)
(29.6951 -0.000703444 0)
(-1.69162 1.87386 0)
(-5.77534 1.4102 0)
(-6.84947 0.128121 0)
(-4.81009 -0.64517 0)
(-3.02714 -0.459006 0)
(-2.38781 -0.174682 0)
(-2.25589 -0.0995177 0)
(-1.89529 -0.137793 0)
(-0.933816 -0.200074 0)
(0.218147 -0.194155 0)
(1.07019 -0.174991 0)
(1.49375 -0.198259 0)
(2.68259 -0.306441 0)
(4.8724 -0.399429 0)
(7.69269 -0.408857 0)
(10.3495 -0.339362 0)
(12.5467 -0.265151 0)
(14.3387 -0.233829 0)
(15.9024 -0.223541 0)
(17.5475 -0.186209 0)
(19.227 -0.131382 0)
(20.5805 -0.0914106 0)
(21.6303 -0.0753616 0)
(22.5144 -0.117467 0)
(24.5867 -0.164469 0)
(27.3596 -0.116904 0)
(28.6766 -0.040994 0)
(29.0218 -0.0114819 0)
(29.1556 -0.00659826 0)
(29.2879 -0.00562758 0)
(29.4043 -0.00448262 0)
(29.5082 -0.0033153 0)
(29.581 -0.00242178 0)
(29.6465 -0.00188683 0)
(29.696 -0.00078371 0)
(-1.5799 2.03634 0)
(-5.46957 1.51889 0)
(-6.30946 0.115243 0)
(-4.23844 -0.720054 0)
(-2.50447 -0.50067 0)
(-1.82658 -0.187343 0)
(-1.70909 -0.10632 0)
(-1.34575 -0.154427 0)
(-0.365688 -0.22542 0)
(0.826969 -0.218086 0)
(1.77037 -0.191809 0)
(2.2141 -0.213193 0)
(3.40718 -0.335567 0)
(5.66621 -0.440552 0)
(8.5408 -0.45058 0)