/*--------------------------------*- C++ -*----------------------------------*\
| =========                 |                                                 |
| \\      /  F ield         | OpenFOAM: The Open Source CFD Toolbox           |
|  \\    /   O peration     | Version:  v1912                                 |
|   \\  /    A nd           | Website:  www.openfoam.com                      |
|    \\/     M anipulation  |                                                 |
\*---------------------------------------------------------------------------*/
FoamFile
{
    version     2.0;
    format      ascii;
    class       volScalarField;
    location    "130";
    object      yPlus;
}
// * * * * * * * * * * * * * * * * * * * * * * * * * * * * * * * * * * * * * //

dimensions      [0 0 0 0 0 0 0];


internalField   uniform 0;

boundaryField
{
    inlet
    {
        type            calculated;
        value           uniform 0;
    }
    outlet
    {
        type            calculated;
        value           uniform 0;
    }
    lowerSymmetry
    {
        type            symmetryPlane;
    }
    obstical
    {
        type            calculated;
        value           nonuniform List<scalar> 
88
(
501.61
503.534
507.612
513.966
522.527
533.196
545.871
560.448
576.823
594.893
614.558
635.715
658.265
682.107
707.142
733.277
760.425
788.509
817.465
847.235
877.778
909.057
941.049
973.737
1007.12
1041.18
1075.94
1111.41
1147.59
1184.52
1222.21
1260.68
1299.96
1340.07
1381.03
1422.86
1465.59
1509.23
1553.81
1599.36
1645.9
1693.49
1742.51
1796.87
184.814
188.436
192.376
196.336
200.335
204.381
208.473
212.598
216.733
220.849
224.918
228.908
232.793
236.546
240.144
243.567
246.797
249.821
252.631
255.237
257.67
259.982
262.2
264.225
266.073
267.702
269.059
270.106
270.807
271.155
271.18
270.993
270.765
270.655
270.643
270.351
268.916
265.065
257.298
244.128
224.205
196.37
159.601
113.069
)
;
    }
    obsticalTop
    {
        type            calculated;
        value           nonuniform List<scalar> 
20
(
52.8659
37.5694
46.2904
52.6234
55.6068
57.3516
58.0449
57.8453
56.9992
55.6456
53.7701
51.277
48.085
44.0313
39.0841
32.6361
26.4729
17.3648
15.3785
9.54573
)
;
    }
    top
    {
        type            calculated;
        value           uniform 0;
    }
    defaultFaces
    {
        type            empty;
    }
}


// ************************************************************************* //
