/*--------------------------------*- C++ -*----------------------------------*\
| =========                 |                                                 |
| \\      /  F ield         | OpenFOAM: The Open Source CFD Toolbox           |
|  \\    /   O peration     | Version:  v1912                                 |
|   \\  /    A nd           | Website:  www.openfoam.com                      |
|    \\/     M anipulation  |                                                 |
\*---------------------------------------------------------------------------*/
FoamFile
{
    version     2.0;
    format      ascii;
    class       volScalarField;
    location    "150";
    object      p;
}
// * * * * * * * * * * * * * * * * * * * * * * * * * * * * * * * * * * * * * //

dimensions      [0 2 -2 0 0 0 0];


internalField   nonuniform List<scalar> 
2000
(
-0.0416485
0.0757629
0.130342
0.123453
0.107625
0.101316
0.100707
0.102056
0.102276
0.102049
0.10218
0.101861
0.101607
0.101556
0.101615
0.101565
0.101377
0.101227
0.101118
0.101051
0.100892
0.100535
0.0999817
0.0993406
0.0988314
0.0985909
0.0985928
0.098564
0.0982993
0.0976887
0.0967633
0.0956204
0.0944166
0.0933659
0.0927079
0.0926646
0.093442
0.0952298
0.0977772
0.100878
0.104283
0.107681
0.110764
0.113283
0.115112
0.115481
0.114677
0.11264
0.10929
0.104564
0.0981931
0.089638
0.0783163
0.0639628
0.0471445
0.0298302
0.0156765
0.00878998
0.0110879
0.0237122
0.0444534
0.070669
0.0997123
0.129145
0.157029
0.181955
0.202899
0.219193
0.23065
0.237239
0.238967
0.236021
0.228625
0.216896
0.200762
0.180037
0.153891
0.122263
0.08012
0.0382809
0.0115958
0.0967732
0.135591
0.122396
0.104656
0.100454
0.10398
0.106404
0.103654
0.100437
0.100006
0.101301
0.10176
0.101632
0.101798
0.101607
0.101344
0.101072
0.100945
0.100871
0.10074
0.100353
0.0997636
0.0991218
0.0986041
0.0983499
0.0983808
0.0986365
0.0986842
0.0982578
0.097257
0.095809
0.0941089
0.0924382
0.0911536
0.0906263
0.0910513
0.092837
0.0957045
0.0994605
0.10376
0.108182
0.112263
0.115549
0.117603
0.118772
0.118349
0.116062
0.111762
0.105156
0.0954587
0.0813484
0.0617171
0.0369807
0.0102096
-0.0123517
-0.024033
-0.0211978
-0.00745021
0.0127708
0.0382936
0.0672935
0.0979048
0.128182
0.156381
0.1811
0.20137
0.216715
0.227001
0.232205
0.232433
0.227935
0.21896
0.205647
0.187943
0.165688
0.138172
0.10559
0.0642578
0.0275255
0.0626609
0.0964596
0.119152
0.117594
0.108395
0.104215
0.104245
0.103602
0.101702
0.101054
0.102676
0.10423
0.103171
0.100672
0.099775
0.10064
0.101478
0.101523
0.10104
0.100496
0.100016
0.0995513
0.0992352
0.0989855
0.0988834
0.0990988
0.0996231
0.100199
0.100445
0.100114
0.0988578
0.0966577
0.0937157
0.0904157
0.087352
0.085317
0.0850913
0.0865052
0.0900001
0.0955161
0.102441
0.10991
0.117003
0.122882
0.126872
0.128953
0.128717
0.125542
0.11903
0.108664
0.0937532
0.0737583
0.0491359
0.0221727
-0.00389719
-0.0217322
-0.029164
-0.0260916
-0.0132364
0.00723061
0.0331705
0.0625733
0.0932972
0.123211
0.150596
0.174173
0.193122
0.207075
0.215985
0.219982
0.219296
0.214197
0.204909
0.191552
0.174085
0.152405
0.125993
0.0953148
0.0575429
0.0249565
0.0876468
0.0976607
0.11021
0.114288
0.111593
0.10857
0.106906
0.105175
0.10356
0.102763
0.102581
0.102454
0.102094
0.101412
0.100953
0.101902
0.103007
0.101957
0.10021
0.0991748
0.09857
0.0985734
0.0987198
0.0988745
0.0992353
0.100113
0.101502
0.102935
0.103663
0.103719
0.102113
0.0986487
0.0935197
0.0872128
0.0807019
0.0754879
0.0731844
0.0743593
0.0791842
0.0879997
0.0994666
0.111848
0.123524
0.133212
0.140058
0.143067
0.142878
0.138414
0.129393
0.115565
0.0968508
0.0736596
0.0473065
0.0204012
-0.00338905
-0.0202171
-0.0279128
-0.0252872
-0.0128231
0.00737647
0.0328664
0.061366
0.0906662
0.118736
0.143983
0.165348
0.182242
0.194453
0.202026
0.205141
0.20402
0.198877
0.189866
0.177059
0.160403
0.139822
0.114933
0.0862799
0.051687
0.0218409
0.0999871
0.103587
0.111106
0.115074
0.113942
0.111609
0.110224
0.109183
0.107883
0.106438
0.105085
0.103986
0.10326
0.102434
0.101483
0.10148
0.101957
0.101963
0.101207
0.0998992
0.0988059
0.0981797
0.0979016
0.0980101
0.0987456
0.100355
0.102844
0.105706
0.107889
0.108309
0.10626
0.101278
0.0936173
0.0838767
0.0735015
0.0648084
0.0602351
0.0609478
0.0682262
0.080635
0.0964233
0.113369
0.129245
0.142231
0.151215
0.155852
0.154851
0.149035
0.138001
0.121796
0.100903
0.0763445
0.0498506
0.0240011
0.00198529
-0.0133008
-0.0197018
-0.0164869
-0.00451694
0.0143453
0.0378497
0.0637531
0.0899896
0.114818
0.136951
0.155578
0.170283
0.180927
0.187548
0.190266
0.189223
0.184536
0.176275
0.16445
0.148978
0.129789
0.106569
0.079881
0.0479013
0.0200966
0.108428
0.110261
0.114213
0.116381
0.115562
0.113949
0.112985
0.112304
0.111341
0.110147
0.109013
0.108013
0.106988
0.105653
0.104259
0.103501
0.103261
0.102856
0.101701
0.100034
0.0986939
0.0979648
0.0977357
0.0979279
0.0987787
0.100773
0.104141
0.108034
0.111189
0.111529
0.108851
0.102647
0.0932114
0.0814678
0.0692065
0.059113
0.0540871
0.0561413
0.0648509
0.0790325
0.0967403
0.115596
0.133267
0.147756
0.157612
0.162009
0.16039
0.153108
0.140754
0.123842
0.103071
0.0796731
0.0554203
0.0324706
0.0133254
0.000468069
-0.00461809
-0.00150952
0.00907243
0.0255219
0.0458414
0.0680586
0.0904517
0.111644
0.130635
0.146774
0.159694
0.169225
0.175321
0.177999
0.177295
0.173235
0.165809
0.154969
0.140604
0.122633
0.100768
0.0755655
0.0453546
0.0189537
0.115239
0.116061
0.117296
0.117631
0.116839
0.115848
0.115183
0.114636
0.113961
0.113197
0.11246
0.111722
0.110838
0.109699
0.10849
0.107558
0.106884
0.10597
0.104471
0.102715
0.101293
0.10044
0.100096
0.100246
0.101118
0.103021
0.10589
0.108985
0.111273
0.111435
0.108689
0.102431
0.0929294
0.0813976
0.069887
0.0612228
0.0577554
0.0609823
0.0703361
0.0843786
0.101117
0.118354
0.134095
0.146811
0.155487
0.159498
0.158456
0.152373
0.140886
0.124898
0.10546
0.0840147
0.062354
0.0425087
0.0264538
0.0160336
0.0122262
0.0151032
0.0239378
0.037437
0.0540793
0.0723875
0.0910581
0.109011
0.125404
0.13963
0.151278
0.160097
0.165941
0.168729
0.16841
0.164937
0.158242
0.148237
0.134782
0.117779
0.096937
0.0727941
0.0437324
0.0182838
0.121117
0.121061
0.120143
0.11893
0.118102
0.117578
0.117093
0.116613
0.11616
0.115709
0.11524
0.114718
0.114085
0.113299
0.112431
0.111634
0.11091
0.109981
0.108671
0.107196
0.105928
0.105072
0.104656
0.104727
0.105441
0.106936
0.109063
0.111238
0.112555
0.111957
0.108718
0.102585
0.0940036
0.0841643
0.0749615
0.0686728
0.0669908
0.0707542
0.0794533
0.0917961
0.106141
0.120762
0.134093
0.144875
0.152176
0.155375
0.154136
0.148323
0.13836
0.124618
0.108242
0.0905347
0.07281
0.0567029
0.0436927
0.0349764
0.031219
0.032518
0.0384891
0.0483773
0.0612047
0.0759107
0.0914484
0.106857
0.121318
0.134181
0.144964
0.153332
0.159058
0.161991
0.162018
0.15904
0.15295
0.143626
0.1309
0.114651
0.0945689
0.0711581
0.0428152
0.0179188
0.126521
0.12553
0.122563
0.120016
0.119254
0.119158
0.118815
0.118395
0.118117
0.117883
0.117591
0.117236
0.116807
0.116274
0.115659
0.115049
0.114447
0.113696
0.11269
0.111555
0.110547
0.10985
0.109526
0.109623
0.11022
0.111352
0.112849
0.114234
0.114799
0.113789
0.110704
0.105458
0.0985003
0.0908516
0.0840092
0.0795052
0.0786617
0.0819689
0.089083
0.0990558
0.110634
0.122482
0.133364
0.14226
0.148414
0.151327
0.150708
0.146435
0.138692
0.127834
0.114687
0.10024
0.0856253
0.0719935
0.0604767
0.0520147
0.0472362
0.046433
0.0495803
0.0563485
0.06613
0.078111
0.0913675
0.104973
0.118087
0.130015
0.140217
0.148301
0.153987
0.157073
0.157408
0.154855
0.149277
0.140522
0.128398
0.112752
0.093244
0.0703345
0.0424148
0.0177581
0.131751
0.129562
0.124365
0.120716
0.120246
0.120565
0.120326
0.11999
0.11989
0.119839
0.119691
0.119465
0.119178
0.118805
0.118357
0.117891
0.117413
0.11682
0.116044
0.115176
0.11441
0.113901
0.113713
0.113872
0.114411
0.115308
0.116393
0.117283
0.117445
0.116347
0.113643
0.109314
0.103745
0.0977166
0.0923461
0.0888585
0.0882357
0.0908612
0.0965472
0.104623
0.114134
0.124023
0.133275
0.141014
0.14656
0.149426
0.149309
0.146113
0.139961
0.13117
0.120335
0.108261
0.0958185
0.0838803
0.0733191
0.0648946
0.0592106
0.0567113
0.0576512
0.0620235
0.0694994
0.0794467
0.091025
0.103322
0.115474
0.126748
0.136562
0.144481
0.150187
0.153446
0.154072
0.151903
0.146777
0.138516
0.126904
0.111757
0.0926955
0.0701276
0.0424151
0.0177722
0.13699
0.133138
0.125442
0.121047
0.121132
0.121815
0.121632
0.121405
0.121491
0.121606
0.121589
0.12148
0.121309
0.121057
0.120729
0.120367
0.119977
0.119491
0.118869
0.118185
0.117596
0.117227
0.117134
0.117336
0.117835
0.118588
0.119428
0.12004
0.120007
0.118927
0.116549
0.112884
0.108255
0.103286
0.0988691
0.0959867
0.0954068
0.0974809
0.102124
0.108859
0.116941
0.125501
0.133661
0.140634
0.145786
0.148657
0.148965
0.146611
0.141671
0.13441
0.125302
0.114969
0.104093
0.093361
0.0834407
0.0749539
0.0684797
0.0645703
0.063699
0.066126
0.07176
0.0801206
0.0904284
0.101768
0.113245
0.124086
0.13367
0.14153
0.147318
0.150772
0.151683
0.149871
0.145151
0.137325
0.126158
0.111433
0.092726
0.0703918
0.0427202
0.0179537
0.142356
0.136185
0.125768
0.121104
0.121964
0.122918
0.122756
0.122665
0.122933
0.123191
0.12329
0.123291
0.123228
0.123083
0.122858
0.122584
0.122268
0.121865
0.121355
0.120803
0.120335
0.120059
0.120024
0.120245
0.120711
0.121364
0.122048
0.122495
0.122361
0.121325
0.119198
0.116003
0.112015
0.107763
0.103977
0.101449
0.10083
0.102458
0.106324
0.112089
0.119162
0.126807
0.134245
0.140748
0.14571
0.14868
0.149373
0.147673
0.143639
0.137496
0.12963
0.120553
0.110827
0.100992
0.0915588
0.0830139
0.07588
0.0707711
0.0683444
0.0691105
0.073207
0.0802929
0.0896304
0.100283
0.11131
0.121893
0.131376
0.139261
0.145177
0.14884
0.150027
0.148541
0.144183
0.13674
0.12596
0.111595
0.0931774
0.0710103
0.0432515
0.0183068
0.147928
0.138599
0.125376
0.121008
0.122764
0.123871
0.123725
0.123797
0.124233
0.12461
0.124811
0.124912
0.124946
0.124897
0.124765
0.124573
0.124327
0.124001
0.123584
0.123135
0.122761
0.122553
0.122559
0.122788
0.123226
0.123806
0.124386
0.124729
0.124545
0.123571
0.121652
0.118813
0.115296
0.111551
0.108185
0.105863
0.105158
0.106402
0.109645
0.114661
0.120979
0.127965
0.134912
0.141127
0.146015
0.149124
0.150162
0.149004
0.145689
0.140412
0.133506
0.125411
0.116594
0.107482
0.098442
0.0898263
0.0820793
0.0758562
0.0719931
0.0712604
0.0740268
0.0800759
0.0886846
0.098869
0.109629
0.120095
0.129575
0.137543
0.143616
0.14749
0.148931
0.147739
0.143698
0.136585
0.12614
0.112087
0.0939106
0.0718779
0.043937
0.018831
0.153747
0.14026
0.124362
0.120875
0.123529
0.124678
0.124571
0.124823
0.125405
0.125879
0.126171
0.126363
0.126483
0.126518
0.126467
0.126349
0.126171
0.125914
0.125578
0.125216
0.124918
0.124768
0.124806
0.125043
0.125459
0.125989
0.126499
0.126781
0.126584
0.125683
0.123948
0.121398
0.118241
0.114864
0.111782
0.109567
0.108735
0.10962
0.112331
0.116733
0.12246
0.12896
0.135575
0.141633
0.146538
0.149826
0.151194
0.150506
0.147783
0.143199
0.137055
0.129741
0.121653
0.113127
0.104404
0.095693
0.087345
0.0800504
0.0748372
0.0727486
0.074378
0.0796064
0.0876938
0.0975869
0.108216
0.118662
0.128198
0.136279
0.142515
0.146585
0.148252
0.147313
0.143544
0.13671
0.126551
0.112769
0.094803
0.072899
0.0447163
0.0195086
0.159821
0.141063
0.122875
0.120796
0.124242
0.125351
0.12532
0.125757
0.126461
0.127017
0.12739
0.127663
0.127859
0.127966
0.127986
0.127935
0.127818
0.127624
0.127358
0.127069
0.126836
0.126733
0.126799
0.127044
0.127444
0.12794
0.128406
0.128657
0.128472
0.127651
0.12608
0.123769
0.120896
0.117791
0.1149
0.112727
0.111741
0.112287
0.114527
0.118413
0.123666
0.129804
0.136205
0.142202
0.147186
0.150676
0.152356
0.152075
0.149845
0.145823
0.140292
0.133608
0.126116
0.118074
0.109599
0.100755
0.0918038
0.0834884
0.0770419
0.0737722
0.0744666
0.0790673
0.0867935
0.096514
0.107091
0.117564
0.127179
0.135373
0.141758
0.145999
0.147857
0.14713
0.143591
0.137012
0.127077
0.113533
0.0957527
0.0739879
0.0455424
0.0203035
0.166128
0.14093
0.12109
0.12082
0.12488
0.12591
0.125998
0.126608
0.12741
0.128038
0.128485
0.12883
0.129092
0.129263
0.129346
0.129354
0.129291
0.129153
0.128947
0.12872
0.128542
0.128479
0.128568
0.128819
0.12921
0.129683
0.130123
0.130362
0.130203
0.129464
0.12804
0.12593
0.123284
0.120387
0.117626
0.115448
0.114292
0.114513
0.116329
0.119769
0.124637
0.130506
0.136778
0.142781
0.147886
0.151591
0.153559
0.153633
0.151811
0.148248
0.143206
0.137021
0.130001
0.122328
0.114008
0.104984
0.0954588
0.0862435
0.0787601
0.0745342
0.0744982
0.0786265
0.0860927
0.0956979
0.106249
0.116754
0.12644
0.13473
0.141237
0.145622
0.147644
0.147083
0.143733
0.137356
0.127632
0.114298
0.0966876
0.0750792
0.0463823
0.0211757
0.172617
0.139851
0.119186
0.120957
0.125421
0.126379
0.126619
0.127382
0.128264
0.128954
0.129468
0.129876
0.130197
0.130425
0.130563
0.130623
0.13061
0.130521
0.130367
0.130192
0.130059
0.130029
0.130138
0.130394
0.130779
0.131236
0.131661
0.131901
0.131774
0.131114
0.129822
0.12788
0.125418
0.122678
0.119997
0.11778
0.116441
0.116353
0.117786
0.120844
0.1254
0.131074
0.137279
0.143334
0.14858
0.152492
0.154716
0.155085
0.153591
0.150386
0.145715
0.139899
0.13321
0.125775
0.117518
0.108302
0.0983025
0.0883925
0.0801308
0.0751932
0.0746093
0.078374
0.0856296
0.0951312
0.105649
0.116168
0.125903
0.134282
0.140862
0.145361
0.147514
0.147101
0.143912
0.137707
0.128166
0.115019
0.0975637
0.0761262
0.0472096
0.0220867
0.179205
0.137848
0.117324
0.121189
0.125861
0.126781
0.127191
0.128083
0.129028
0.129774
0.130347
0.13081
0.131181
0.131457
0.131643
0.131748
0.131777
0.131729
0.131619
0.131487
0.131391
0.131387
0.13151
0.131769
0.132147
0.132593
0.133009
0.133254
0.13316
0.132568
0.131387
0.129578
0.127255
0.12462
0.121975
0.119691
0.11817
0.117804
0.118912
0.121659
0.125977
0.131517
0.137698
0.143819
0.1492
0.153292
0.155727
0.156326
0.155077
0.152128
0.147712
0.142134
0.135644
0.128333
0.120079
0.110708
0.100385
0.0900189
0.0812426
0.0758167
0.0748324
0.0783068
0.0853728
0.0947639
0.105229
0.11574
0.125497
0.133923
0.140578
0.145168
0.147431
0.147143
0.144089
0.138033
0.128649
0.115668
0.0983567
0.0770989
0.0480063
0.0230037
0.185799
0.135019
0.115616
0.121474
0.1262
0.127132
0.127713
0.128704
0.129695
0.130487
0.131107
0.131613
0.132023
0.132337
0.132559
0.132699
0.13276
0.132745
0.132668
0.132567
0.132497
0.13251
0.13264
0.132899
0.133269
0.133704
0.134112
0.134361
0.134294
0.133755
0.132645
0.130931
0.128696
0.126119
0.123475
0.121114
0.119437
0.118854
0.119719
0.122242
0.126394
0.131845
0.13802
0.144201
0.149691
0.153922
0.156514
0.157277
0.156199
0.15341
0.14915
0.143705
0.137315
0.130053
0.121783
0.112317
0.101819
0.0912071
0.0821361
0.0764008
0.0751301
0.0783678
0.0852586
0.0945321
0.104929
0.115412
0.125175
0.133634
0.140348
0.145012
0.147365
0.147182
0.144246
0.138317
0.129071
0.116238
0.0990578
0.0779813
0.0487612
0.023902
0.192308
0.131492
0.114131
0.121762
0.126445
0.127427
0.128157
0.129214
0.130235
0.131056
0.131708
0.132242
0.132677
0.133015
0.13326
0.133422
0.133504
0.133508
0.133452
0.133371
0.133316
0.133338
0.133471
0.133725
0.134087
0.134512
0.134913
0.135163
0.135109
0.134608
0.13353
0.131871
0.129682
0.127128
0.12447
0.12205
0.120266
0.11954
0.120251
0.122633
0.12668
0.132075
0.138245
0.144468
0.150031
0.154356
0.157052
0.157924
0.156953
0.15426
0.150086
0.144707
0.138357
0.131106
0.122818
0.113311
0.102748
0.0920394
0.0828297
0.0769151
0.0754447
0.0784905
0.0852236
0.0943663
0.104703
0.115149
0.124908
0.133389
0.140149
0.144874
0.147303
0.147211
0.144375
0.138557
0.129431
0.116729
0.0996684
0.0787678
0.0494681
0.0247661
0.198653
0.127429
0.112908
0.122015
0.126606
0.12765
0.128485
0.129575
0.130608
0.131445
0.132113
0.132661
0.133109
0.13346
0.133717
0.133891
0.133984
0.133999
0.133953
0.133882
0.133836
0.133862
0.133994
0.134245
0.134601
0.135018
0.135413
0.135661
0.135612
0.135124
0.134067
0.132431
0.13026
0.127712
0.125043
0.122588
0.120746
0.119945
0.120573
0.122879
0.126864
0.132224
0.138389
0.144632
0.150236
0.154616
0.157374
0.158312
0.157405
0.154769
0.150641
0.145292
0.138953
0.131697
0.123397
0.11388
0.103314
0.092595
0.0833421
0.0773345
0.0757288
0.0786232
0.08522
0.0942563
0.104521
0.114928
0.124678
0.133175
0.139971
0.144749
0.147243
0.147228
0.144479
0.138758
0.129735
0.117149
0.100195
0.0794595
0.050124
0.025588
0.204836
0.123095
0.111976
0.122207
0.126689
0.127782
0.128677
0.129781
0.130817
0.131661
0.132336
0.132891
0.133345
0.133702
0.133965
0.134144
0.134242
0.134262
0.134222
0.134156
0.134114
0.134142
0.134274
0.134524
0.134877
0.13529
0.135681
0.135926
0.135878
0.13539
0.134344
0.132713
0.130547
0.128
0.125325
0.122855
0.120989
0.120158
0.120751
0.123021
0.126975
0.132311
0.138467
0.144715
0.150338
0.154746
0.15754
0.158517
0.157647
0.155045
0.150943
0.145608
0.13927
0.132006
0.123697
0.114183
0.103639
0.0929475
0.0836997
0.0776506
0.0759556
0.0787346
0.0852128
0.0941642
0.104363
0.114736
0.124477
0.132986
0.139814
0.144635
0.147186
0.147238
0.144564
0.138925
0.129992
0.117506
0.100649
0.0800628
0.0507287
0.0263671
0.210999
0.119007
0.111341
0.122324
0.126707
0.127831
0.128756
0.129866
0.130905
0.131752
0.132431
0.132989
0.133446
0.133805
0.134071
0.134253
0.134353
0.134376
0.134338
0.134275
0.134234
0.134264
0.134397
0.134647
0.135
0.135412
0.1358
0.136043
0.135993
0.135502
0.134459
0.132827
0.130661
0.128113
0.125435
0.122961
0.121091
0.120252
0.120835
0.123091
0.12703
0.132354
0.138499
0.144745
0.150373
0.154795
0.157608
0.158608
0.157761
0.15518
0.151094
0.145769
0.139432
0.132161
0.123847
0.114339
0.10382
0.0931639
0.083937
0.0778712
0.076117
0.0788098
0.0851885
0.0940756
0.104222
0.114565
0.1243
0.13282
0.139675
0.144536
0.147136
0.147245
0.144636
0.13907
0.130215
0.117818
0.101048
0.0805955
0.051292
0.0271216
0.217096
0.115801
0.110945
0.122373
0.126687
0.127824
0.128764
0.129881
0.130923
0.131772
0.132454
0.133013
0.133471
0.133832
0.1341
0.134282
0.134384
0.134407
0.13437
0.134308
0.134269
0.1343
0.134435
0.134685
0.135039
0.135451
0.13584
0.136081
0.136029
0.135536
0.134488
0.132856
0.130687
0.128138
0.125459
0.122986
0.121116
0.120278
0.12086
0.123115
0.127046
0.132364
0.138503
0.144745
0.150375
0.154804
0.157628
0.158642
0.157811
0.155244
0.151172
0.145855
0.13952
0.132248
0.123932
0.114432
0.103934
0.0933037
0.084091
0.0780111
0.0762109
0.0788368
0.085141
0.093977
0.104085
0.114408
0.12414
0.132674
0.139555
0.144452
0.147098
0.14726
0.14471
0.139209
0.130426
0.118109
0.101419
0.0810892
0.0518317
0.0278882
0.221823
0.113858
0.110719
0.1224
0.126664
0.1278
0.128748
0.129871
0.130915
0.131767
0.132449
0.13301
0.133468
0.13383
0.134097
0.13428
0.134382
0.134405
0.134369
0.134307
0.134269
0.134301
0.134437
0.134689
0.135044
0.135457
0.135845
0.136087
0.136033
0.135537
0.134486
0.132851
0.130681
0.128131
0.125453
0.12298
0.121111
0.120275
0.120858
0.123112
0.127039
0.132354
0.138491
0.144732
0.150363
0.154797
0.157629
0.158654
0.157836
0.155284
0.151223
0.145914
0.139584
0.132315
0.124001
0.114507
0.104021
0.0934071
0.0841982
0.0780977
0.0762522
0.0788223
0.0850754
0.0938676
0.103951
0.114265
0.124001
0.13255
0.139454
0.144384
0.14707
0.147278
0.144781
0.139338
0.130616
0.118369
0.101749
0.0815273
0.0523049
0.0286172
)
;

boundaryField
{
    inlet
    {
        type            zeroGradient;
    }
    outlet
    {
        type            fixedValue;
        value           uniform 0;
    }
    fixedWalls
    {
        type            zeroGradient;
    }
    frontAndBack
    {
        type            empty;
    }
}


// ************************************************************************* //
