/*--------------------------------*- C++ -*----------------------------------*\
| =========                 |                                                 |
| \\      /  F ield         | OpenFOAM: The Open Source CFD Toolbox           |
|  \\    /   O peration     | Version:  v1912                                 |
|   \\  /    A nd           | Website:  www.openfoam.com                      |
|    \\/     M anipulation  |                                                 |
\*---------------------------------------------------------------------------*/
FoamFile
{
    version     2.0;
    format      ascii;
    class       surfaceScalarField;
    location    "150";
    object      phi;
}
// * * * * * * * * * * * * * * * * * * * * * * * * * * * * * * * * * * * * * //

dimensions      [0 3 -1 0 0 0 0];
oriented        oriented;


internalField   nonuniform List<scalar> 
3895
(
0.000814744
0.000381432
0.000499356
0.000315389
0.000251557
0.000247799
6.48563e-05
0.0001867
-6.22006e-05
0.000127057
-0.000127355
6.51549e-05
-0.000137705
1.035e-05
-0.000113729
-2.39762e-05
-9.02503e-05
-2.34789e-05
-8.45537e-05
-5.69666e-06
-6.58406e-05
-1.87131e-05
-4.48476e-05
-2.09929e-05
-4.05766e-05
-4.27101e-06
-4.76308e-05
7.05421e-06
-4.11053e-05
-6.52557e-06
-2.15957e-05
-1.95095e-05
-7.25161e-06
-1.43441e-05
-1.72109e-07
-7.0795e-06
4.49052e-06
-4.66263e-06
1.44108e-05
-9.92026e-06
3.45707e-05
-2.016e-05
6.34278e-05
-2.88571e-05
9.50227e-05
-3.15949e-05
0.000122333
-2.73103e-05
0.000140738
-1.84053e-05
0.00014786
-7.12197e-06
0.000143784
4.07635e-06
0.000130898
1.28855e-05
0.000113304
1.75944e-05
9.44069e-05
1.88971e-05
7.6138e-05
1.82689e-05
5.8945e-05
1.7193e-05
4.31549e-05
1.579e-05
2.94283e-05
1.37266e-05
1.88541e-05
1.05742e-05
1.26957e-05
6.15847e-06
1.35018e-05
-8.06141e-07
2.18415e-05
-8.33968e-06
3.64957e-05
-1.46542e-05
5.62481e-05
-1.97524e-05
7.9048e-05
-2.27999e-05
0.000101977
-2.29285e-05
0.000121679
-1.97022e-05
0.00013513
-1.34518e-05
0.000140304
-5.17368e-06
0.000131067
9.23763e-06
0.000107747
2.33198e-05
6.64195e-05
4.13272e-05
5.56656e-07
6.58628e-05
-9.63051e-05
9.68618e-05
-0.000226615
0.00013031
-0.000385883
0.000159268
-0.000561681
0.000175798
-0.00073649
0.000174809
-0.000891478
0.000154987
-0.00100939
0.000117917
-0.00107634
6.69486e-05
-0.00108288
6.54014e-06
-0.00104957
-3.33085e-05
-0.000983058
-6.65162e-05
-0.000891421
-9.16374e-05
-0.000781997
-0.000109425
-0.000660359
-0.000121638
-0.00053237
-0.000127989
-0.000402115
-0.000130255
-0.000272894
-0.000129221
-0.000147387
-0.000125507
-2.75748e-05
-0.000119812
8.47846e-05
-0.000112359
0.000188925
-0.00010414
0.00028494
-9.60152e-05
0.000373217
-8.82769e-05
0.000454316
-8.10991e-05
0.000528982
-7.46663e-05
0.000598092
-6.91096e-05
0.000662878
-6.47863e-05
0.000724472
-6.15939e-05
0.000786189
-6.17168e-05
0.000848178
-6.19897e-05
-8.12914e-05
0.00108795
0.000349295
0.00104738
0.000355954
0.000933264
0.000361915
0.000775717
0.000344247
0.000598381
0.000304393
0.000410336
0.0002532
0.000221228
0.000199458
5.38843e-05
0.000143368
-6.053e-05
9.09355e-05
-0.000110354
4.4127e-05
-0.000131981
2.91413e-06
-0.000124185
-2.8789e-05
-0.000107074
-2.13816e-05
-0.000110555
1.0535e-05
-0.000108725
-8.35577e-06
-0.000100978
-2.72563e-05
-9.3219e-05
-2.21032e-05
-0.000100535
2.3627e-07
-0.000110343
5.14602e-06
-0.000115186
-5.0776e-06
-0.000113057
-2.22891e-05
-0.000105565
-3.63487e-05
-9.13754e-05
-4.57848e-05
-7.19306e-05
-4.67552e-05
-5.09455e-05
-3.93904e-05
-3.15609e-05
-2.65065e-05
-1.57202e-05
-1.17644e-05
-4.52257e-06
1.68789e-06
8.48758e-07
1.22231e-05
-4.32564e-07
2.01784e-05
-8.85359e-06
2.66899e-05
-2.40603e-05
3.23997e-05
-4.49193e-05
3.6649e-05
-6.89992e-05
3.78066e-05
-9.28173e-05
3.43922e-05
-0.000112524
2.58656e-05
-0.000126635
1.33048e-05
-0.000130449
-4.52597e-06
-0.000124653
-2.04504e-05
-0.000110764
-3.36412e-05
-9.1493e-05
-4.2071e-05
-7.02376e-05
-4.41839e-05
-5.05707e-05
-3.9369e-05
-3.65938e-05
-2.74288e-05
-3.32201e-05
-8.54738e-06
-4.11457e-05
1.71633e-05
-6.61789e-05
4.8353e-05
-0.000109313
8.44609e-05
-0.000168549
0.000125099
-0.000239844
0.000168158
-0.000317294
0.00020776
-0.000392746
0.000234719
-0.000456556
0.000239609
-0.000497807
0.00021606
-0.000506961
0.000164141
-0.000477739
8.86952e-05
-0.000429436
1.86454e-05
-0.000370917
-5.19786e-05
-0.000303845
-0.000100381
-0.000230785
-0.000139576
-0.000150871
-0.000171551
-6.40821e-05
-0.000196214
2.68743e-05
-0.000212594
0.000120364
-0.000221478
0.00021332
-0.000223211
0.000303155
-0.000219056
0.000388022
-0.000210374
0.00046669
-0.000198481
0.000538913
-0.000184582
0.000604584
-0.000169811
0.000663659
-0.000155091
0.000716453
-0.000141071
0.000763543
-0.000128189
0.000805642
-0.000116766
0.000843579
-0.000107046
0.000878156
-9.93631e-05
0.000910496
-9.39342e-05
0.000940952
-9.21726e-05
0.000971365
-9.24031e-05
-0.000105253
0.000975283
0.000305927
0.00102604
0.000305197
0.00106096
0.000326991
0.0010586
0.000346609
0.00101214
0.000350853
0.000924999
0.000340344
0.000805677
0.000318779
0.000661668
0.000287377
0.00050475
0.000247854
0.000345437
0.00020344
0.000189768
0.000158583
4.72026e-05
0.000113777
-4.85562e-05
7.43772e-05
-8.43225e-05
4.63013e-05
-0.000104944
1.22655e-05
-0.000114371
-1.7829e-05
-0.000106662
-2.98128e-05
-0.000106037
-3.88817e-07
-0.00012529
2.43996e-05
-0.000147021
1.66529e-05
-0.000168056
-1.25366e-06
-0.000187084
-1.73209e-05
-0.000198324
-3.45448e-05
-0.000201826
-4.32527e-05
-0.000197258
-4.39583e-05
-0.000185622
-3.81429e-05
-0.000170094
-2.72924e-05
-0.000155723
-1.26826e-05
-0.000146572
3.07159e-06
-0.000146591
2.01979e-05
-0.00015812
3.82187e-05
-0.000180779
5.50585e-05
-0.000211988
6.78584e-05
-0.000247597
7.34156e-05
-0.000282239
6.9034e-05
-0.000310159
5.37857e-05
-0.000325594
2.87397e-05
-0.000330124
3.67364e-09
-0.000320419
-3.01547e-05
-0.000297483
-5.65779e-05
-0.000265435
-7.4119e-05
-0.000229418
-8.02009e-05
-0.00019427
-7.45171e-05
-0.000164562
-5.71368e-05
-0.00014164
-3.14687e-05
-0.000124927
4.49693e-07
-0.000115597
3.90236e-05
-0.000112384
8.12477e-05
-0.000111287
0.000124002
-0.000106482
0.000163353
-9.25219e-05
0.000193799
-6.57227e-05
0.00020792
-2.52264e-05
0.000199112
2.58491e-05
0.000164984
8.41487e-05
0.000105842
0.000134906
3.79379e-05
0.000183806
-3.02543e-05
0.00022569
-9.38627e-05
0.000274028
-0.000148719
0.000329788
-0.000195337
0.000391421
-0.000233183
0.000456061
-0.000260854
0.000521211
-0.000277744
0.00058415
-0.000284417
0.000643133
-0.000282195
0.000696907
-0.000272829
0.000744798
-0.000258265
0.000786671
-0.000240354
0.000822783
-0.000220694
0.000853566
-0.000200593
0.000879539
-0.000181064
0.000901289
-0.000162821
0.000919433
-0.000146334
0.000934571
-0.000131903
0.000947266
-0.000119741
0.000957963
-0.00011006
0.000967121
-0.000103092
0.00097449
-9.95423e-05
0.000980979
-9.88917e-05
-0.000107051
0.00085711
0.000271375
0.000897356
0.00026495
0.000950165
0.000274182
0.00100471
0.000292069
0.00104637
0.000309192
0.00106529
0.000321424
0.00105659
0.000327474
0.00101784
0.000326125
0.00094938
0.000316317
0.000854803
0.000298018
0.000740517
0.000272869
0.000611404
0.00024289
0.000475955
0.000209826
0.000347594
0.000174662
0.000222464
0.000137396
0.000101458
0.000103177
1.731e-06
6.99139e-05
-4.52632e-05
4.66054e-05
-5.56115e-05
3.47479e-05
-6.27354e-05
2.37767e-05
-7.78614e-05
1.38724e-05
-9.99434e-05
4.76102e-06
-0.000131134
-3.3538e-06
-0.000163331
-1.10565e-05
-0.000188191
-1.90982e-05
-0.000200615
-2.57192e-05
-0.000200563
-2.73438e-05
-0.000193295
-1.99511e-05
-0.00018737
-2.8529e-06
-0.00018461
1.74376e-05
-0.000190233
4.38421e-05
-0.000205072
6.9897e-05
-0.000227226
9.00125e-05
-0.000253059
9.9249e-05
-0.000277917
9.3892e-05
-0.000296067
7.19357e-05
-0.000301838
3.45108e-05
-0.000297149
-4.68576e-06
-0.000279999
-4.73042e-05
-0.000250037
-8.65404e-05
-0.000209938
-0.000114218
-0.000163501
-0.000126638
-0.000115541
-0.000122478
-7.00683e-05
-0.000102609
-3.01868e-05
-7.13502e-05
6.68896e-07
-3.0406e-05
3.07603e-05
8.93222e-06
6.04798e-05
5.15282e-05
9.43254e-05
9.01563e-05
0.000136427
0.000121251
0.000189629
0.000140597
0.000253488
0.000144062
0.000324183
0.000128417
0.000395834
9.33334e-05
0.000460396
4.12802e-05
0.000517505
-1.91711e-05
0.000570094
-8.28435e-05
0.000620477
-0.000144246
0.000671585
-0.000199827
0.000722793
-0.000246545
0.000771789
-0.00028218
0.000816438
-0.000305503
0.00085527
-0.000316577
0.000887511
-0.000316658
0.00091308
-0.000307763
0.000932422
-0.000292171
0.000946274
-0.000272118
0.000955505
-0.000249585
0.000960996
-0.000226184
0.00096355
-0.000203148
0.000963846
-0.00018136
0.000962432
-0.000161407
0.000959744
-0.000143645
0.000956108
-0.000128268
0.000951753
-0.000115385
0.00094678
-0.000105087
0.000941187
-9.74997e-05
0.000934587
-9.29419e-05
0.000926893
-9.11977e-05
-9.54202e-05
0.000759397
0.000238011
0.000790536
0.000233812
0.000828352
0.000236366
0.000874988
0.000245433
0.000927006
0.000257173
0.000978874
0.000269556
0.00102441
0.000281941
0.00105752
0.000293012
0.00107311
0.000300725
0.00106772
0.000303411
0.00104018
0.000300406
0.000991153
0.000291918
0.000922558
0.000278421
0.000837808
0.000259413
0.000740032
0.000235171
0.000634576
0.000208634
0.000529414
0.000175076
0.000431851
0.000144168
0.000349084
0.000117514
0.000278687
9.41742e-05
0.000218095
7.44645e-05
0.000164908
5.7948e-05
0.000117485
4.40691e-05
7.51639e-05
3.12644e-05
3.82506e-05
1.78151e-05
9.14979e-06
3.38165e-06
-9.95336e-06
-8.24062e-06
-1.71627e-05
-1.27417e-05
-1.4414e-05
-5.60168e-06
-7.63051e-06
1.06542e-05
-7.15911e-07
3.69275e-05
5.28292e-06
6.38982e-05
1.04508e-05
8.48446e-05
1.5635e-05
9.40649e-05
2.21598e-05
8.73672e-05
3.09734e-05
6.31222e-05
4.31542e-05
2.23299e-05
6.17471e-05
-2.32787e-05
8.30893e-05
-6.86463e-05
0.000103237
-0.000106688
0.000122244
-0.000133225
0.000141826
-0.00014622
0.000164721
-0.000145373
0.000193437
-0.000131325
0.000227493
-0.000105406
0.000266898
-6.9811e-05
0.00030566
-2.983e-05
0.00034676
1.04276e-05
0.000391855
4.50614e-05
0.000443364
6.97426e-05
0.000502341
8.162e-05
0.000567651
7.87511e-05
0.000635866
6.02026e-05
0.000702488
2.67108e-05
0.000763689
-1.99206e-05
0.000819356
-7.48375e-05
0.000870076
-0.000133564
0.000916396
-0.000190566
0.000957383
-0.000240813
0.000991322
-0.000280484
0.00101669
-0.000307545
0.00103288
-0.000321698
0.00104032
-0.000324013
0.00104013
-0.000316472
0.00103383
-0.000301465
0.00102304
-0.000281376
0.00100925
-0.000258324
0.000993711
-0.000234049
0.00097741
-0.000209883
0.000961043
-0.000186781
0.000945065
-0.000165381
0.000929733
-0.000146076
0.00091516
-0.000129072
0.000901349
-0.000114457
0.000888215
-0.000102251
0.000875581
-9.24518e-05
0.000863167
-8.50856e-05
0.000850477
-8.02527e-05
0.000837044
-7.77642e-05
-7.95426e-05
0.000672434
0.000206414
0.000702275
0.00020397
0.000733372
0.000205268
0.000767841
0.000210964
0.000806619
0.000218396
0.000850044
0.00022613
0.000897313
0.000234673
0.000946042
0.000244283
0.000992642
0.000254125
0.00103303
0.000263023
0.00106342
0.000270011
0.00108102
0.000274319
0.00108414
0.000275302
0.00107152
0.000272041
0.00104277
0.000263916
0.00099959
0.000251815
0.000947011
0.000227655
0.00088933
0.00020185
0.000829795
0.000177049
0.000770917
0.000153052
0.00071484
0.000130541
0.000662765
0.000110024
0.00061537
9.14643e-05
0.00057233
7.43036e-05
0.000531952
5.81931e-05
0.000491487
4.38473e-05
0.000450369
3.28773e-05
0.000411103
2.65244e-05
0.000379588
2.59133e-05
0.000359697
3.05455e-05
0.000356222
4.04018e-05
0.000367855
5.22653e-05
0.000391505
6.11945e-05
0.000423945
6.16251e-05
0.000462358
4.89541e-05
0.000503737
2.1743e-05
0.000543348
-1.7281e-05
0.000579065
-5.89956e-05
0.000607228
-9.68094e-05
0.000625563
-0.000125023
0.000632799
-0.00014046
0.00062914
-0.000142561
0.000616805
-0.000133038
0.000600453
-0.000114973
0.000586753
-9.17063e-05
0.00058289
-6.59483e-05
0.000593105
-4.00448e-05
0.000618269
-1.47368e-05
0.000655901
7.42935e-06
0.000701996
2.36477e-05
0.000753493
3.01233e-05
0.000807917
2.43269e-05
0.000863132
4.98798e-06
0.000917489
-2.76465e-05
0.000969277
-7.17089e-05
0.00101705
-0.000122614
0.00105838
-0.000174892
0.00109073
-0.000222917
0.00111207
-0.000262151
0.00112148
-0.000289898
0.00111935
-0.000305416
0.00110716
-0.000309506
0.00108708
-0.000303935
0.00106152
-0.000290911
0.00103274
-0.000272682
0.00100264
-0.000251272
0.000972664
-0.000228353
0.000943834
-0.000205219
0.000916766
-0.000182815
0.000891773
-0.000161788
0.00086894
-0.000142549
0.000848198
-0.000125334
0.000829378
-0.000110252
0.000812246
-9.73251e-05
0.000796527
-8.65319e-05
0.000781889
-7.78139e-05
0.000767944
-7.11411e-05
0.000754148
-6.64561e-05
0.00074
-6.36163e-05
-6.36697e-05
0.000594386
0.000177666
0.00062317
0.000175186
0.000652324
0.000176115
0.000682117
0.000181172
0.000712928
0.000187585
0.000745619
0.000193438
0.000781192
0.0001991
0.00082021
0.000205264
0.000862435
0.000211901
0.000906738
0.000218719
0.000951254
0.000225496
0.000993696
0.000231876
0.00103172
0.000237276
0.00106292
0.000240842
0.00108511
0.000241722
0.00109716
0.000239769
0.00109923
0.000225586
0.00109309
0.000207987
0.00108031
0.000189827
0.00106241
0.000170954
0.0010411
0.000151847
0.00101797
0.000133155
0.000994185
0.000115252
0.000970195
9.8294e-05
0.000945762
8.2626e-05
0.000920494
6.91154e-05
0.00089442
5.89511e-05
0.000867945
5.29989e-05
0.000842525
5.13333e-05
0.000820394
5.26769e-05
0.000805691
5.51044e-05
0.000802071
5.58857e-05
0.000811293
5.19729e-05
0.000832593
4.03248e-05
0.000863274
1.82732e-05
0.000898666
-1.36494e-05
0.000932299
-5.09138e-05
0.000960438
-8.71345e-05
0.000980604
-0.000116975
0.000992268
-0.000136687
0.000996284
-0.000144477
0.000994234
-0.00014051
0.000987678
-0.000126482
0.000977699
-0.000104993
0.000965054
-7.90616e-05
0.000950992
-5.1886e-05
0.000937794
-2.68473e-05
0.000929448
-6.3901e-06
0.000929356
7.52109e-06
0.000939995
1.30087e-05
0.000961143
8.97496e-06
0.000991016
-5.54609e-06
0.00102685
-3.08483e-05
0.00106489
-6.56796e-05
0.0011006
-0.000107421
0.00112981
-0.000151825
0.00114903
-0.000194112
0.00115615
-0.000230043
0.00115073
-0.000256727
0.0011338
-0.000272969
0.00110748
-0.00027909
0.00107439
-0.000276416
0.00103721
-0.000266759
0.000998324
-0.000252024
0.000959607
-0.000233965
0.000922402
-0.000214067
0.00088756
-0.000193511
0.000855532
-0.000173191
0.00082647
-0.000153754
0.000800326
-0.000135643
0.000776919
-0.000119142
0.000755995
-0.00010441
0.000737261
-9.15182e-05
0.000720407
-8.04715e-05
0.000705112
-7.12362e-05
0.000691022
-6.37239e-05
0.000677758
-5.78773e-05
0.000664791
-5.34888e-05
0.000651711
-5.05367e-05
-4.92119e-05
0.000525111
0.000151816
0.000551937
0.00014836
0.000579147
0.000148904
0.00060647
0.000153849
0.00063401
0.000160044
0.00066196
0.000165489
0.000690637
0.000170422
0.000720619
0.000175282
0.000752556
0.000179963
0.000786909
0.000184367
0.000823779
0.000188626
0.000862818
0.000192838
0.000903208
0.000196886
0.000943661
0.000200389
0.000982543
0.00020284
0.00101835
0.000203966
0.00104878
0.000195156
0.00107345
0.000183314
0.00109256
0.000170721
0.00110641
0.000157097
0.00111559
0.000142666
0.00112083
0.000127916
0.0011228
0.000113286
0.00112194
9.91562e-05
0.0011185
8.60592e-05
0.00111281
7.4813e-05
0.00110543
6.63297e-05
0.0010973
6.11268e-05
0.00108974
5.88929e-05
0.00108417
5.8246e-05
0.00108223
5.70493e-05
0.00108537
5.27419e-05
0.00109448
4.28652e-05
0.00110911
2.56925e-05
0.00112675
6.37456e-07
0.00114333
-3.02363e-05
0.00115525
-6.28355e-05
0.00116057
-9.24448e-05
0.00115862
-0.000115031
0.0011501
-0.000128165
0.00113667
-0.000131044
0.00112048
-0.000124329
0.00110378
-0.000109782
0.0010886
-8.98058e-05
0.00107654
-6.70068e-05
0.00106852
-4.38659e-05
0.0010644
-2.27269e-05
0.00106394
-5.92604e-06
0.00106739
4.07023e-06
0.00107487
5.52424e-06
0.00108643
-2.5845e-06
0.0011009
-2.0009e-05
0.00111621
-4.61603e-05
0.0011297
-7.91737e-05
0.00113829
-0.000116008
0.00113934
-0.000152875
0.00113123
-0.000186006
0.00111367
-0.000212476
0.00108757
-0.000230627
0.00105471
-0.000240115
0.00101726
-0.00024164
0.000977361
-0.000236515
0.000936874
-0.000226272
0.000897254
-0.000212405
0.000859519
-0.00019623
0.000824296
-0.000178843
0.000791901
-0.000161116
0.000762426
-0.000143716
0.000735808
-0.000127136
0.000711885
-0.000111721
0.00069044
-9.76969e-05
0.000671225
-8.51943e-05
0.000653978
-7.42711e-05
0.000638432
-6.49255e-05
0.000624315
-5.7119e-05
0.000611327
-5.07358e-05
0.000599149
-4.56995e-05
0.000587311
-4.16515e-05
0.00057549
-3.87155e-05
-3.62332e-05
0.00046394
0.000128551
0.00048864
0.00012366
0.000513481
0.000124062
0.000538162
0.000129169
0.000563127
0.000135079
0.000588452
0.000140164
0.00061398
0.000144894
0.000639778
0.000149485
0.000666103
0.000153638
0.000693276
0.000157195
0.000721659
0.000160243
0.000751598
0.000162899
0.000783295
0.000165188
0.000816672
0.000167012
0.000851313
0.0001682
0.000886605
0.000168673
0.000920432
0.000161329
0.00095191
0.000151836
0.000980614
0.000142016
0.00100618
0.00013153
0.00102843
0.000120414
0.00104739
0.000108962
0.00106316
9.75125e-05
0.0010759
8.64172e-05
0.00108581
7.6149e-05
0.00109327
6.73489e-05
0.00109895
6.06484e-05
0.00110377
5.63078e-05
0.00110877
5.39008e-05
0.00111482
5.21896e-05
0.00112254
4.93301e-05
0.00113205
4.32346e-05
0.00114285
3.20683e-05
0.00115355
1.49847e-05
0.00116196
-7.77415e-06
0.00116573
-3.40018e-05
0.00116333
-6.04335e-05
0.00115433
-8.3448e-05
0.00113945
-0.000100147
0.00112024
-0.000108952
0.00109876
-0.000109573
0.00107722
-0.000102784
0.00105754
-9.01035e-05
0.00104119
-7.34511e-05
0.00102906
-5.48788e-05
0.0010216
-3.64046e-05
0.00101887
-1.99988e-05
0.00102052
-7.57322e-06
0.00102558
-9.98276e-07
0.00103281
-1.70335e-06
0.00104075
-1.05215e-05
0.00104799
-2.72535e-05
0.00105278
-5.09523e-05
0.00105333
-7.97219e-05
0.00104816
-0.000110831
0.00103643
-0.000141152
0.00101817
-0.000167739
0.000994064
-0.000188374
0.000965292
-0.000201855
0.000933201
-0.000208023
0.000899121
-0.00020756
0.000864249
-0.000201643
0.000829583
-0.000191606
0.000795902
-0.000178723
0.000763768
-0.000164096
0.000733554
-0.000148629
0.000705473
-0.000133036
0.000679617
-0.00011786
0.000655983
-0.000103501
0.000634497
-9.02348e-05
0.000615037
-7.8237e-05
0.000597446
-6.76037e-05
0.000581547
-5.83715e-05
0.000567144
-5.05228e-05
0.00055403
-4.4005e-05
0.000541969
-3.86744e-05
0.000530701
-3.44317e-05
0.000519831
-3.07815e-05
0.000509066
-2.79507e-05
-2.45419e-05
0.000410013
0.000107502
0.000432754
0.000100919
0.000455184
0.000101632
0.000477155
0.000107198
0.00049946
0.000112775
0.00052221
0.000117413
0.000545214
0.000121891
0.000568456
0.000126243
0.000591962
0.000130132
0.000615717
0.000133439
0.000639767
0.000136193
0.000664257
0.000138409
0.000689384
0.000140061
0.000715315
0.000141082
0.000742125
0.00014139
0.000769809
0.00014099
0.00079709
0.000134047
0.000823483
0.000125444
0.000848719
0.00011678
0.000872446
0.000107803
0.000894352
9.85081e-05
0.000914227
8.90873e-05
0.000931951
7.97884e-05
0.000947485
7.08836e-05
0.000960907
6.2727e-05
0.000972491
5.57647e-05
0.000982744
5.03952e-05
0.000992339
4.67132e-05
0.00100195
4.42889e-05
0.00101204
4.20978e-05
0.00102269
3.86812e-05
0.00103347
3.24566e-05
0.0010434
2.21416e-05
0.00105109
7.29062e-06
0.0010549
-1.15883e-05
0.0010536
-3.26964e-05
0.00104656
-5.3395e-05
0.00103406
-7.09487e-05
0.00101716
-8.32496e-05
0.000997422
-8.92098e-05
0.000976599
-8.8751e-05
0.00095642
-8.26049e-05
0.000938366
-7.20497e-05
0.000923559
-5.8644e-05
0.000912708
-4.40278e-05
0.000906125
-2.98212e-05
0.000903726
-1.75995e-05
0.000904993
-8.84059e-06
0.000908915
-4.92054e-06
0.000914176
-6.9646e-06
0.000919295
-1.56403e-05
0.000922874
-3.08322e-05
0.000923608
-5.16868e-05
0.000920496
-7.66096e-05
0.000913018
-0.000103353
0.000901166
-0.0001293
0.00088532
-0.000151892
0.000866025
-0.00016908
0.00084384
-0.00017967
0.000819296
-0.00018348
0.000792944
-0.000181209
0.000765389
-0.000174087
0.000737271
-0.000163488
0.000709217
-0.00015067
0.000681786
-0.000136665
0.00065543
-0.000122273
0.000630484
-0.00010809
0.000607171
-9.45463e-05
0.000585607
-8.19374e-05
0.000565824
-7.0452e-05
0.000547785
-6.01973e-05
0.000531399
-5.12184e-05
0.000516544
-4.3516e-05
0.000503068
-3.70472e-05
0.000490804
-3.17413e-05
0.000479561
-2.74307e-05
0.00046912
-2.39907e-05
0.000459162
-2.0824e-05
0.00044938
-1.81686e-05
-1.40935e-05
0.000362528
8.82941e-05
0.000383496
7.99505e-05
0.000403598
8.15307e-05
0.000423067
8.77291e-05
0.000442885
9.29562e-05
0.000463085
9.72126e-05
0.000483536
0.00010144
0.000504313
0.000105465
0.000525443
0.000109003
0.000546839
0.000112044
0.000568414
0.000114617
0.000590126
0.000116697
0.000611963
0.000118224
0.000633928
0.000119116
0.000656033
0.000119286
0.000678309
0.000118714
0.000699858
0.000112498
0.000720484
0.000104818
0.000740166
9.70978e-05
0.00075878
8.91891e-05
0.000776172
8.11157e-05
0.000792215
7.3045e-05
0.000806814
6.51888e-05
0.000819928
5.77702e-05
0.000831601
5.10539e-05
0.000842023
4.5342e-05
0.000851549
4.08692e-05
0.000860641
3.76218e-05
0.000869738
3.51914e-05
0.000879095
3.27408e-05
0.00088864
2.9137e-05
0.000897889
2.32073e-05
0.00090596
1.40699e-05
0.00091179
1.46105e-06
0.000914289
-1.4087e-05
0.000912662
-3.10696e-05
0.000906615
-4.73476e-05
0.000896454
-6.07883e-05
0.000882996
-6.97915e-05
0.000867366
-7.35795e-05
0.000850825
-7.22099e-05
0.000834623
-6.64029e-05
0.000819875
-5.73017e-05
0.000807467
-4.62368e-05
0.000798001
-3.45616e-05
0.000791768
-2.35876e-05
0.000788732
-1.45639e-05
0.00078853
-8.63817e-06
0.000790453
-6.84428e-06
0.000793515
-1.00266e-05
0.000796575
-1.87002e-05
0.000798557
-3.28145e-05
0.000798572
-5.17011e-05
0.000796037
-7.40747e-05
0.000790745
-9.80617e-05
0.000782783
-0.000121338
0.000772314
-0.000141423
0.000759373
-0.000156139
0.000743854
-0.00016415
0.000725679
-0.000165305
0.000704995
-0.000160525
0.000682241
-0.000151333
0.000658075
-0.000139322
0.00063324
-0.000125835
0.000608444
-0.000111869
0.000584284
-9.81129e-05
0.000561215
-8.50211e-05
0.000539547
-7.28781e-05
0.000519461
-6.18513e-05
0.000501029
-5.20202e-05
0.00048424
-4.34085e-05
0.000469022
-3.60007e-05
0.000455263
-2.97569e-05
0.000442823
-2.46068e-05
0.000431548
-2.04664e-05
0.000421273
-1.71556e-05
0.000411807
-1.45246e-05
0.000402909
-1.19263e-05
0.00039423
-9.48921e-06
-5.0137e-06
0.000320758
7.05694e-05
0.000340087
6.06208e-05
0.000357963
6.36545e-05
0.000375209
7.04838e-05
0.000392824
7.53407e-05
0.000410697
7.93395e-05
0.000428768
8.33697e-05
0.000447178
8.70548e-05
0.000465962
9.02185e-05
0.000485057
9.29496e-05
0.000504394
9.52796e-05
0.000523914
9.7177e-05
0.000543543
9.85952e-05
0.000563196
9.94635e-05
0.000582784
9.96974e-05
0.000602243
9.92549e-05
0.000620729
9.40111e-05
0.000638083
8.74644e-05
0.000654345
8.0836e-05
0.000669498
7.40363e-05
0.000683502
6.7111e-05
0.000696326
6.02209e-05
0.000707953
5.3562e-05
0.000718393
4.73306e-05
0.000727711
4.17356e-05
0.000736067
3.69859e-05
0.000743727
3.32092e-05
0.000751027
3.03222e-05
0.000758283
2.79347e-05
0.000765683
2.53418e-05
0.000773177
2.1643e-05
0.000780424
1.59598e-05
0.000786817
7.67694e-06
0.000791597
-3.31855e-06
0.000793969
-1.64599e-05
0.000793323
-3.04235e-05
0.000789395
-4.34191e-05
0.000782316
-5.37091e-05
0.000772566
-6.00424e-05
0.000760879
-6.18917e-05
0.000748132
-5.94633e-05
0.000735258
-5.35291e-05
0.000723143
-4.51866e-05
0.000712541
-3.56349e-05
0.000704012
-2.6032e-05
0.000697874
-1.74498e-05
0.000694179
-1.08691e-05
0.000692708
-7.16686e-06
0.000692983
-7.11957e-06
0.00069432
-1.13633e-05
0.000695912
-2.02917e-05
0.000696977
-3.38801e-05
0.000696892
-5.16159e-05
0.000695293
-7.24752e-05
0.000692094
-9.48636e-05
0.000687313
-0.000116557
0.000680771
-0.000134881
0.00067197
-0.000147338
0.000660286
-0.000152467
0.00064533
-0.000150349
0.00062719
-0.000142385
0.000606423
-0.000130566
0.000583879
-0.000116777
0.000560478
-0.000102434
0.00053706
-8.84503e-05
0.000514297
-7.53495e-05
0.000492674
-6.33983e-05
0.000472502
-5.27066e-05
0.000453948
-4.3297e-05
0.000437059
-3.51312e-05
0.000421799
-2.81488e-05
0.000408076
-2.2277e-05
0.000395759
-1.74406e-05
0.0003847
-1.35477e-05
0.000374747
-1.05133e-05
0.000365749
-8.15749e-06
0.000357534
-6.30995e-06
0.000349945
-4.33731e-06
0.000342581
-2.1252e-06
2.49412e-06
0.000284047
5.3996e-05
0.000301804
4.28631e-05
0.000317588
4.78707e-05
0.000332895
5.51765e-05
0.000348563
5.96727e-05
0.000364363
6.35401e-05
0.000380331
6.74015e-05
0.000396626
7.07595e-05
0.000413259
7.35861e-05
0.000430178
7.60301e-05
0.000447348
7.81099e-05
0.000464729
7.97956e-05
0.000482264
8.10601e-05
0.000499874
8.18538e-05
0.000517463
8.21087e-05
0.000534936
8.17814e-05
0.000551488
7.7459e-05
0.000566933
7.20194e-05
0.000581292
6.64772e-05
0.000594557
6.07717e-05
0.000606712
5.49555e-05
0.000617755
4.91777e-05
0.000627699
4.36179e-05
0.00063658
3.845e-05
0.000644474
3.38414e-05
0.000651524
2.99365e-05
0.000657942
2.67913e-05
0.000663988
2.42763e-05
0.000669906
2.20157e-05
0.000675852
1.9396e-05
0.000681816
1.56791e-05
0.000687585
1.01905e-05
0.000692748
2.51437e-06
0.000696744
-7.31499e-06
0.000698968
-1.86835e-05
0.000698926
-3.03816e-05
0.000696355
-4.08484e-05
0.000691259
-4.8613e-05
0.0006839
-5.26827e-05
0.000674755
-5.27475e-05
0.000664467
-4.91754e-05
0.00065377
-4.28321e-05
0.000643408
-3.48239e-05
0.000634045
-2.62724e-05
0.0006262
-1.81864e-05
0.000620188
-1.1438e-05
0.000616101
-6.78265e-06
0.000613809
-4.87419e-06
0.000612977
-6.28808e-06
0.00061311
-1.14962e-05
0.000613612
-2.07937e-05
0.000613907
-3.41751e-05
0.00061357
-5.12788e-05
0.000612406
-7.13112e-05
0.000610353
-9.28103e-05
0.000607188
-0.000113392
0.000602292
-0.000129985
0.000594752
-0.000139799
0.000583775
-0.000141489
0.000569075
-0.000135649
0.000551004
-0.000124313
0.000530395
-0.000109958
0.000508295
-9.46771e-05
0.000485719
-7.98592e-05
0.000463513
-6.62442e-05
0.000442299
-5.41351e-05
0.000422484
-4.35833e-05
0.000404292
-3.45148e-05
0.000387811
-2.68161e-05
0.000373022
-2.03417e-05
0.000359834
-1.49611e-05
0.000348118
-1.05607e-05
0.000337719
-7.04212e-06
0.000328472
-4.30084e-06
0.000320228
-2.26914e-06
0.000312847
-7.76018e-07
0.000306174
3.6304e-07
0.000300138
1.698e-06
0.000294308
3.70508e-06
8.27425e-06
0.000251798
3.82842e-05
0.000267992
2.66695e-05
0.000281862
3.40001e-05
0.000295503
4.15351e-05
0.000309437
4.57393e-05
0.000323397
4.95802e-05
0.000337529
5.32695e-05
0.000351974
5.6314e-05
0.000366713
5.88478e-05
0.0003817
6.10431e-05
0.000396911
6.28989e-05
0.000412317
6.43897e-05
0.000427873
6.55033e-05
0.000443521
6.62057e-05
0.000459187
6.64433e-05
0.000474789
6.61793e-05
0.000489598
6.26504e-05
0.00050343
5.8187e-05
0.000516292
5.36149e-05
0.000528171
4.88928e-05
0.000539051
4.40756e-05
0.000548928
3.93002e-05
0.000557817
3.47291e-05
0.000565754
3.05136e-05
0.000572809
2.67866e-05
0.000579102
2.36433e-05
0.000584805
2.10876e-05
0.000590124
1.8958e-05
0.000595248
1.68914e-05
0.000600302
1.43422e-05
0.000605291
1.06901e-05
0.000610069
5.41186e-06
0.000614336
-1.75259e-06
0.00061768
-1.06582e-05
0.000619645
-2.0649e-05
0.000619841
-3.05773e-05
0.000618018
-3.9026e-05
0.000614109
-4.47035e-05
0.000608237
-4.6811e-05
0.00060072
-4.523e-05
0.000592044
-4.04992e-05
0.000582816
-3.36042e-05
0.000573684
-2.5692e-05
0.000565247
-1.78356e-05
0.000557979
-1.09188e-05
0.000552182
-5.64054e-06
0.00054796
-2.56089e-06
0.000545227
-2.14073e-06
0.000543727
-4.7879e-06
0.000543066
-1.08357e-05
0.000542777
-2.0505e-05
0.000542423
-3.38206e-05
0.000541695
-5.05503e-05
0.000540393
-7.00096e-05
0.000538227
-9.06444e-05
0.000534589
-0.000109754
0.000528577
-0.000123973
0.00051933
-0.000130551
0.000506412
-0.000128572
0.000490016
-0.000119253
0.000470874
-0.000105172
0.000450023
-8.91066e-05
0.000428535
-7.31889e-05
0.00040733
-5.86544e-05
0.000387094
-4.60084e-05
0.000368275
-3.53161e-05
0.000351118
-2.64259e-05
0.000335707
-1.91042e-05
0.000322027
-1.31355e-05
0.000309978
-8.29336e-06
0.00029942
-4.40243e-06
0.000290189
-1.33018e-06
0.000282118
1.02962e-06
0.000275032
2.78487e-06
0.00026879
3.9722e-06
0.000263271
4.74305e-06
0.000258337
5.29744e-06
0.000253996
6.03896e-06
0.000249835
7.86597e-06
1.22873e-05
0.000223468
2.31985e-05
0.000238065
1.20726e-05
0.000250247
2.18183e-05
0.000262462
2.93197e-05
0.000274843
3.33585e-05
0.000287183
3.72402e-05
0.000299716
4.07367e-05
0.000312544
4.34858e-05
0.000325625
4.57663e-05
0.000338924
4.77445e-05
0.00035242
4.94031e-05
0.000366085
5.07243e-05
0.000379881
5.17076e-05
0.000393757
5.23291e-05
0.000407655
5.25454e-05
0.000421508
5.23266e-05
0.000434668
4.94902e-05
0.000446972
4.58831e-05
0.000458425
4.2162e-05
0.000469016
3.83016e-05
0.000478733
3.43592e-05
0.00048757
3.04628e-05
0.000495539
2.67598e-05
0.000502671
2.33816e-05
0.000509025
2.04324e-05
0.0005147
1.79683e-05
0.000519834
1.59536e-05
0.000524588
1.42039e-05
0.000529113
1.23666e-05
0.000533504
9.95116e-06
0.00053777
6.42476e-06
0.000541804
1.37732e-06
0.000545388
-5.33668e-06
0.000548214
-1.34836e-05
0.000549925
-2.23606e-05
0.000550192
-3.08436e-05
0.000548765
-3.75991e-05
0.000545525
-4.14642e-05
0.00054052
-4.18057e-05
0.000533983
-3.86933e-05
0.000526329
-3.28447e-05
0.000518098
-2.53731e-05
0.000509875
-1.74696e-05
0.000502203
-1.01635e-05
0.000495508
-4.22345e-06
0.000490051
-1.83885e-07
0.000485914
1.57614e-06
0.000483013
7.60586e-07
0.000481125
-2.90029e-06
0.000479904
-9.61434e-06
0.00047894
-1.95409e-05
0.00047783
-3.27109e-05
0.000476198
-4.89183e-05
0.000473602
-6.74142e-05
0.000469412
-8.64544e-05
0.000462845
-0.000103186
0.000453226
-0.000114355
0.00044029
-0.000117615
0.0004243
-0.000112581
0.000405956
-0.00010091
0.000386208
-8.54239e-05
0.000366042
-6.89398e-05
0.000346318
-5.34651e-05
0.000327682
-4.0019e-05
0.000310547
-2.88731e-05
0.000295122
-1.98914e-05
0.000281467
-1.27701e-05
0.000269525
-7.16226e-06
0.000259189
-2.80045e-06
0.000250304
5.92463e-07
0.000242693
3.20834e-06
0.000236185
5.17769e-06
0.000230612
6.60257e-06
0.000225828
7.56869e-06
0.000221685
8.11519e-06
0.000218092
8.3364e-06
0.000214927
8.46237e-06
0.00021226
8.70599e-06
0.000209753
1.03733e-05
1.46041e-05
0.00019856
8.56766e-06
0.000211522
-8.88829e-07
0.000222269
1.10711e-05
0.000233253
1.83362e-05
0.00024424
2.23712e-05