/*--------------------------------*- C++ -*----------------------------------*\
| =========                 |                                                 |
| \\      /  F ield         | OpenFOAM: The Open Source CFD Toolbox           |
|  \\    /   O peration     | Version:  v1912                                 |
|   \\  /    A nd           | Website:  www.openfoam.com                      |
|    \\/     M anipulation  |                                                 |
\*---------------------------------------------------------------------------*/
FoamFile
{
    version     2.0;
    format      ascii;
    class       volVectorField;
    location    "150";
    object      U;
}
// * * * * * * * * * * * * * * * * * * * * * * * * * * * * * * * * * * * * * //

dimensions      [0 1 -1 0 0 0 0];


internalField   nonuniform List<vector> 
2000
(
(0.84616 0.187394 0)
(0.51513 0.124091 0)
(0.223441 0.0684439 0)
(0.0597987 0.0174442 6.1959e-20)
(-0.00455176 -0.0232155 1.25759e-17)
(-0.0642178 -0.0384357 1.0892e-17)
(-0.0776354 -0.037204 0)
(-0.0716362 -0.0167216 0)
(-0.0590835 0.0114446 0)
(-0.042044 0.0251282 2.47247e-17)
(-0.0413427 0.0108133 -1.5156e-17)
(-0.0272713 -0.000847895 -1.42296e-17)
(-0.0165348 -0.00308561 0)
(-0.0199042 -0.00280051 0)
(-0.0207931 -0.00279412 -1.13082e-17)
(-0.0140565 -0.00189576 0)
(-0.0049867 -0.0010785 1.02017e-17)
(-0.000980305 0.00194679 8.17219e-21)
(0.000848128 0.00281433 9.89471e-18)
(0.00312893 0.000577877 -4.8652e-18)
(0.0084784 -0.00335626 9.51362e-18)
(0.0170645 -0.00680866 0)
(0.0275306 -0.00907018 0)
(0.0379808 -0.00969368 -5.17202e-21)
(0.0460527 -0.00845967 0)
(0.0507814 -0.00561645 -4.31706e-18)
(0.0509684 -0.0020152 0)
(0.0471336 0.00118679 4.33508e-18)
(0.0410227 0.00371878 0)
(0.034195 0.00544008 0)
(0.0276759 0.00632871 0)
(0.0217276 0.00650418 1.10382e-18)
(0.0163043 0.00612057 0)
(0.011526 0.00523794 -5.51807e-19)
(0.00761774 0.00389648 1.849e-14)
(0.00494684 0.00212251 1.8541e-14)
(0.0041603 0.000100827 5.77497e-19)
(0.00575786 -0.00227019 -5.84739e-19)
(0.00963993 -0.00472663 0)
(0.0154274 -0.00696463 2.52501e-18)
(0.0226621 -0.00863816 0)
(0.030513 -0.0093865 -2.73064e-18)
(0.0379038 -0.00883862 0)
(0.043922 -0.00698502 -5.89485e-18)
(0.0475345 -0.00459066 3.03165e-18)
(0.0471779 -0.00269688 0)
(0.0421185 -0.00056744 0)
(0.0317869 0.0035693 -3.21842e-18)
(0.0142548 0.0116427 0)
(-0.0135565 0.0237228 3.08143e-18)
(-0.0543221 0.0374769 0)
(-0.108746 0.0483353 4.73189e-18)
(-0.17407 0.0508402 -3.88638e-18)
(-0.244769 0.0419045 2.99813e-18)
(-0.314143 0.0222115 -6.16435e-19)
(-0.374695 -0.00420903 0)
(-0.418523 -0.0312468 -1.16906e-19)
(-0.439946 -0.0534484 1.56561e-19)
(-0.439043 -0.0679431 -4.94616e-19)
(-0.426089 -0.0766101 8.25288e-19)
(-0.400287 -0.0809263 -1.99316e-18)
(-0.36464 -0.0819089 3.54828e-18)
(-0.320892 -0.0803707 -5.48335e-18)
(-0.271292 -0.0767548 7.8231e-18)
(-0.217381 -0.0715527 -2.29824e-20)
(-0.160485 -0.0649054 1.35332e-17)
(-0.101841 -0.0570776 0)
(-0.0427386 -0.0483651 0)
(0.0155595 -0.0387549 1.98241e-19)
(0.0735403 -0.028333 0)
(0.131287 -0.0175081 2.23865e-17)
(0.188578 -0.00640631 0)
(0.245421 0.00492022 1.98572e-17)
(0.302315 0.0164349 -5.04029e-19)
(0.359537 0.028115 1.6517e-17)
(0.418947 0.0399323 2.83685e-17)
(0.47848 0.0518059 6.58851e-19)
(0.549389 0.0635669 -9.45508e-18)
(0.603407 0.0742191 -6.07004e-18)
(0.732896 0.0833259 0)
(1.0153 0.210385 0)
(0.944632 0.194217 0)
(0.804467 0.179992 -3.65395e-18)
(0.654404 0.152322 7.55523e-18)
(0.509199 0.111178 0)
(0.359999 0.0683853 -7.61696e-18)
(0.216456 0.029347 0)
(0.0821036 -0.00525157 0)
(-0.0282493 -0.0180755 0)
(-0.0562828 -0.0190551 -1.80857e-17)
(-0.0668898 -0.0247177 1.64524e-17)
(-0.0718956 -0.0152999 1.50915e-17)
(-0.0638786 0.00692304 0)
(-0.0521053 0.0199336 6.59683e-18)
(-0.0563033 0.00817712 0)
(-0.0516837 -0.00526559 0)
(-0.044 -0.0073696 0)
(-0.0422162 -0.0051741 5.42544e-18)
(-0.0463286 -0.00328634 -1.064e-17)
(-0.0481267 -0.00498133 -5.22312e-18)
(-0.0482054 -0.0101971 0)
(-0.0459394 -0.0161002 0)
(-0.0411159 -0.0195009 0)
(-0.033542 -0.0184067 -7.47425e-18)
(-0.0247264 -0.0129407 0)
(-0.0162581 -0.00510372 5.06738e-18)
(-0.00774996 0.00206068 2.57958e-18)
(-0.00258773 0.00686626 0)
(7.27222e-05 0.00981477 0)
(0.000545516 0.0112803 0)
(-0.00153199 0.011818 0)
(-0.00601861 0.0119951 -6.26289e-19)
(-0.0127373 0.0119953 0)
(-0.0211268 0.011405 3.09761e-19)
(-0.030064 0.00958397 1.50989e-19)
(-0.0380946 0.00610161 0)
(-0.0443944 0.00106504 0)
(-0.047762 -0.00487897 6.29902e-19)
(-0.0473533 -0.0113363 0)
(-0.0436181 -0.0170409 -1.37998e-18)
(-0.0373657 -0.020696 0)
(-0.0298022 -0.0213535 -1.57908e-18)
(-0.0221646 -0.0185416 0)
(-0.0157878 -0.0124562 1.68234e-18)
(-0.0124258 -0.00330885 1.92972e-18)
(-0.0132545 0.00883083 0)
(-0.0197314 0.0240534 0)
(-0.0333017 0.0424729 -3.7138e-18)
(-0.053867 0.0646572 0)
(-0.0806438 0.0898924 6.14174e-20)
(-0.112432 0.114598 0)
(-0.147115 0.132857 0)
(-0.180845 0.138666 0)
(-0.208903 0.128998 0)
(-0.226468 0.104749 8.19992e-19)
(-0.227228 0.0683191 0)
(-0.207757 0.0258003 9.95453e-19)
(-0.175377 -0.0183163 -2.33916e-19)
(-0.156416 -0.06009 3.58183e-19)
(-0.125114 -0.0909302 -1.27842e-18)
(-0.0905177 -0.113247 3.1233e-18)
(-0.0516812 -0.128312 -5.62471e-18)
(-0.00793996 -0.136825 8.49005e-18)
(0.039603 -0.139345 0)
(0.0894201 -0.136755 -1.89668e-17)
(0.140921 -0.129954 -1.42244e-17)
(0.193202 -0.119772 0)
(0.245404 -0.107095 7.85141e-18)
(0.297011 -0.092648 1.66557e-17)
(0.347912 -0.0770521 0)
(0.398109 -0.060861 0)
(0.44766 -0.0445012 0)
(0.496781 -0.0282787 0)
(0.545963 -0.0124077 -1.47765e-17)
(0.595632 0.00293901 6.32186e-18)
(0.647127 0.0175956 -1.2076e-17)
(0.699364 0.0312685 1.02001e-17)
(0.759755 0.0433836 -3.50637e-18)
(0.80735 0.0529569 0)
(0.908098 0.0561915 0)
(0.978489 0.201539 0)
(0.978854 0.193014 -2.91596e-18)
(0.969152 0.205125 3.60471e-18)
(0.939074 0.20855 -3.17943e-18)
(0.878014 0.194628 3.00326e-18)
(0.78557 0.168744 2.96356e-18)
(0.6693 0.138102 0)
(0.54094 0.106038 0)
(0.408133 0.0750617 0)
(0.285819 0.0459028 7.17826e-18)
(0.173569 0.0179407 0)
(0.0718876 -0.00648306 0)
(-0.0211682 -0.0137969 0)
(-0.0455831 -0.00330791 -7.50972e-18)
(-0.0499707 -0.0113246 0)
(-0.0584996 -0.0169087 -6.31998e-18)
(-0.0598763 -0.00868124 0)
(-0.0519984 0.0113697 6.09876e-18)
(-0.0574406 0.0156309 2.94449e-18)
(-0.0661804 0.00804241 0)
(-0.0751318 -0.00314997 -2.78128e-18)
(-0.0833674 -0.0136404 0)
(-0.0890279 -0.0200783 0)
(-0.0914803 -0.0222645 5.24351e-18)
(-0.0900139 -0.0205574 0)
(-0.0847429 -0.0160603 1.32873e-18)
(-0.0770587 -0.00988339 -4.03715e-18)
(-0.0692632 -0.00300268 0)
(-0.0635904 0.00370604 0)
(-0.0613052 0.0101706 -7.01057e-19)
(-0.0636548 0.0170005 0)
(-0.0709344 0.0237468 9.86027e-21)
(-0.0824345 0.0291992 0)
(-0.0966953 0.0318645 5.98687e-19)
(-0.111636 0.0304428 6.93989e-20)
(-0.124851 0.0243162 0)
(-0.134043 0.013994 1.32579e-19)
(-0.138326 0.00128883 -2.70804e-19)
(-0.137275 -0.0120547 -2.86492e-19)
(-0.130359 -0.0236806 -6.31668e-19)
(-0.118739 -0.0314101 7.13216e-19)
(-0.104416 -0.03398 7.83431e-19)
(-0.0896498 -0.0310545 0)
(-0.0764229 -0.022658 1.89092e-18)
(-0.0658015 -0.00865855 -4.226e-18)
(-0.0577922 0.0109336 0)
(-0.0527789 0.03457 -2.27493e-18)
(-0.0508427 0.0613342 4.02313e-18)
(-0.0508517 0.0902781 0)
(-0.0505684 0.119618 -1.67302e-18)
(-0.0475557 0.145684 1.57984e-18)
(-0.0398766 0.162905 -1.25008e-18)
(-0.0262055 0.165715 -8.57008e-19)
(-0.00441421 0.150359 0)
(0.0223202 0.115263 -1.09763e-19)
(0.0525367 0.0628842 4.36891e-19)
(0.0814348 0.0054174 -5.21524e-19)
(0.107706 -0.0417473 -5.05287e-19)
(0.132774 -0.078667 -3.94659e-19)
(0.162492 -0.110013 0)
(0.197872 -0.136024 0)
(0.237582 -0.155818 0)
(0.279997 -0.168477 -1.48973e-18)
(0.324038 -0.174062 0)
(0.368553 -0.17317 4.79536e-18)
(0.412635 -0.166743 0)
(0.455736 -0.155946 -2.89549e-18)
(0.49758 -0.14198 -6.54958e-18)
(0.538127 -0.125941 0)
(0.57754 -0.108812 -3.32675e-18)
(0.616102 -0.091428 3.3474e-18)
(0.654168 -0.0744155 0)
(0.692155 -0.0582081 0)
(0.730592 -0.0431035 0)
(0.769913 -0.02934 -6.047e-18)
(0.811095 -0.0171385 0)
(0.853362 -0.00687406 -2.06985e-18)
(0.901778 0.000924749 3.49576e-18)
(0.940577 0.00544264 0)
(1.01953 0.00376124 4.15465e-19)
(0.970611 0.209118 0)
(0.963917 0.194774 1.59937e-18)
(0.96643 0.198529 0)
(0.977152 0.20643 1.7596e-18)
(0.982031 0.208915 -3.12697e-18)
(0.968283 0.204304 -1.39985e-18)
(0.930722 0.193765 0)
(0.870703 0.177912 0)
(0.791029 0.156606 0)
(0.695254 0.131361 1.4094e-18)
(0.589227 0.105452 1.44311e-18)
(0.479718 0.0807228 0)
(0.368847 0.0579805 0)
(0.266314 0.0375404 0)
(0.179188 0.018297 0)
(0.0997253 0.00230189 6.68896e-18)
(0.0297642 -0.00974 -3.535e-18)
(-0.02897 -0.00664169 0)
(-0.027993 0.00569647 -3.40491e-18)
(-0.0320679 0.00667915 1.66429e-18)
(-0.035821 0.00401076 3.28561e-18)
(-0.0444214 -0.00191313 0)
(-0.0590551 -0.00824912 0)
(-0.0761992 -0.0132947 -3.03439e-18)
(-0.0902082 -0.0157478 0)
(-0.098156 -0.0151175 -1.48041e-18)
(-0.0994252 -0.0116335 1.49539e-18)
(-0.0960205 -0.00559773 0)
(-0.0916294 0.00297995 0)
(-0.0888392 0.0133814 7.67294e-19)
(-0.0892332 0.0247208 0)
(-0.0941661 0.0355333 -7.19115e-19)
(-0.103274 0.0436935 0)
(-0.1151 0.0469223 -1.66181e-19)
(-0.127419 0.0434042 -7.57785e-20)
(-0.137544 0.0325428 -1.59688e-20)
(-0.143019 0.0154999 -2.09849e-19)
(-0.142949 -0.00572992 3.02715e-19)
(-0.13736 -0.0270647 3.18672e-19)
(-0.12603 -0.0447869 1.02276e-18)
(-0.109388 -0.0562154 -4.08069e-19)
(-0.0888915 -0.0597256 4.46355e-19)
(-0.0664789 -0.0550117 0)
(-0.0442774 -0.0430705 1.26318e-18)
(-0.0238471 -0.0255387 1.19115e-18)
(-0.00664971 -0.00384076 0)
(0.00807957 0.0213836 2.77228e-18)
(0.0224728 0.048038 1.42455e-18)
(0.0377865 0.0746607 0)
(0.0570669 0.0988178 -3.22686e-18)
(0.0826586 0.116961 -1.75086e-18)
(0.114667 0.124705 6.508e-19)
(0.15236 0.118147 8.55966e-19)
(0.193975 0.0955079 0)
(0.236185 0.0571668 -4.78639e-21)
(0.275432 0.0121243 -5.18526e-19)
(0.312389 -0.0318623 -4.82182e-19)
(0.348493 -0.0738787 4.11146e-19)
(0.385351 -0.113198 6.4353e-20)
(0.424043 -0.148081 0)
(0.464032 -0.176581 0)
(0.503896 -0.197221 0)
(0.542353 -0.209377 1.89983e-18)
(0.57862 -0.213353 8.05961e-19)
(0.612359 -0.210134 0)
(0.643574 -0.201084 -2.24487e-18)
(0.672546 -0.187708 2.66596e-18)
(0.699726 -0.17146 -2.71585e-18)
(0.725648 -0.153615 -2.88024e-18)
(0.750871 -0.135225 2.25493e-19)
(0.775939 -0.117103 -3.28536e-18)
(0.801358 -0.0998347 0)
(0.827586 -0.083814 0)
(0.855079 -0.0692982 0)
(0.884162 -0.0564808 0)
(0.915495 -0.0455258 0)
(0.948385 -0.036721 4.16524e-18)
(0.98636 -0.0303724 -1.53063e-18)
(1.01732 -0.0270681 0)
(1.07824 -0.0285945 -4.4862e-19)
(0.972988 0.216082 0)
(0.965831 0.201817 1.9549e-18)
(0.959206 0.195615 2.59199e-19)
(0.96149 0.195568 1.98212e-18)
(0.972671 0.197567 0)
(0.985524 0.199276 -1.67315e-18)
(0.992498 0.199346 0)
(0.988441 0.196312 -3.77217e-19)
(0.970176 0.1891 0)
(0.935542 0.177648 -1.67464e-18)
(0.884576 0.162865 -1.29719e-18)
(0.819373 0.145797 -3.28787e-19)
(0.742917 0.126837 3.26506e-19)
(0.657458 0.106186 0)
(0.568262 0.0853783 3.26942e-19)
(0.478114 0.0664089 0)
(0.39197 0.0505245 2.77093e-18)
(0.312264 0.0368888 -3.65252e-19)
(0.246017 0.0253975 0)
(0.193076 0.016491 -1.94442e-18)
(0.150194 0.00984529 0)
(0.113652 0.0053143 0)
(0.0821498 0.00222829 0)
(0.0550587 -0.00118322 0)
(0.0320609 -0.00629726 -2.25114e-19)
(0.0130371 -0.0120167 0)
(-0.00093766 -0.0151065 0)
(-0.00790532 -0.0125502 1.26214e-19)
(-0.00872829 -0.0035595 0)
(-0.00615811 0.0104752 0)
(-0.00227349 0.0259646 0)
(0.00117516 0.0402722 -5.9099e-20)
(0.00349436 0.0508675 0)
(0.00544533 0.0551127 -2.21331e-19)
(0.00762207 0.0508932 0)
(0.0119383 0.0373536 2.09922e-20)
(0.0193901 0.0154131 1.0025e-19)
(0.0297029 -0.0119554 1.78426e-20)
(0.0419019 -0.0393593 -3.93827e-20)
(0.0535889 -0.0629295 -3.89917e-19)
(0.0640557 -0.0799147 -4.48077e-19)
(0.0739917 -0.0882841 5.14362e-19)
(0.0848118 -0.0868408 -1.50702e-19)
(0.0985819 -0.0752696 -1.27959e-18)
(0.116539 -0.0546823 1.37208e-18)
(0.138349 -0.0279639 -1.89924e-19)
(0.161785 0.00107442 0)
(0.186006 0.0282316 -1.31461e-18)
(0.212496 0.0514005 0)
(0.242777 0.0688941 1.01907e-18)
(0.278432 0.0787795 0)
(0.319605 0.0790369 6.17534e-19)
(0.365185 0.0683228 0)
(0.413119 0.0468274 -5.79443e-20)
(0.460525 0.0160893 4.27628e-21)
(0.505971 -0.0221624 1.26912e-19)
(0.549721 -0.065294 -2.13245e-20)
(0.592168 -0.109476 0)
(0.633182 -0.150702 -5.68144e-20)
(0.671775 -0.185715 -3.34324e-20)
(0.706653 -0.212375 0)
(0.73682 -0.2297 1.07024e-19)
(0.761942 -0.237781 -5.88965e-19)
(0.782339 -0.237572 -7.71698e-19)
(0.798779 -0.230564 0)
(0.812257 -0.21845 2.22095e-18)
(0.823827 -0.202879 0)
(0.834489 -0.185315 2.76414e-18)
(0.845115 -0.166954 2.96777e-18)
(0.856429 -0.148721 3.11861e-18)
(0.869002 -0.131287 3.74259e-19)
(0.883282 -0.115114 0)
(0.899604 -0.100498 0)
(0.918258 -0.0876206 0)
(0.93939 -0.0766036 -3.37574e-19)
(0.963406 -0.0675444 0)
(0.989544 -0.0606036 -1.93443e-18)
(1.02056 -0.0559796 1.88752e-18)
(1.04609 -0.0538364 1.21858e-19)
(1.09693 -0.0558433 5.24062e-20)
(0.974194 0.218515 -1.28203e-18)
(0.970935 0.206372 1.24025e-18)
(0.96512 0.198186 -2.93306e-19)
(0.96114 0.194132 0)
(0.9622 0.19197 0)
(0.968267 0.190582 0)
(0.977783 0.189935 0)
(0.988516 0.189548 1.30219e-18)
(0.997441 0.188396 0)
(1.00093 0.185474 -1.16386e-18)
(0.995738 0.180108 -1.45184e-18)
(0.979754 0.172096 3.33516e-19)
(0.952497 0.161665 1.00544e-18)
(0.913994 0.148926 0)
(0.865065 0.134105 -1.53688e-18)
(0.807344 0.118328 0)
(0.744788 0.103115 -1.2264e-18)
(0.681967 0.088822 3.06761e-19)
(0.62103 0.0753636 -1.2728e-18)
(0.564367 0.0630584 -9.73012e-19)
(0.512729 0.052087 0)
(0.466269 0.0425092 0)
(0.425033 0.0340672 -6.89985e-19)
(0.38886 0.0263134 0)
(0.35697 0.0188567 -5.56003e-19)
(0.327783 0.0115874 0)
(0.299098 0.00478634 0)
(0.270582 -0.000174971 -1.06871e-19)
(0.24508 -0.00121634 0)
(0.226106 0.0036347 0)
(0.217013 0.0141301 0)
(0.218519 0.027141 5.20486e-20)
(0.228643 0.0384294 1.87555e-19)
(0.2453 0.0441919 1.01804e-19)
(0.266977 0.0416617 0)
(0.292516 0.0295778 0)
(0.319329 0.00871284 -1.40558e-20)
(0.343886 -0.0169401 -6.99584e-20)
(0.365017 -0.0421522 3.08737e-20)
(0.381057 -0.0631956 0)
(0.390721 -0.0777652 0)
(0.39361 -0.0850366 -2.16639e-19)
(0.390288 -0.0854804 1.24416e-19)
(0.3827 -0.0801017 -5.75551e-19)
(0.374619 -0.0696466 6.33245e-19)
(0.370789 -0.0543076 1.66305e-19)
(0.37545 -0.0347208 0)
(0.39075 -0.0121342 6.49985e-19)
(0.416279 0.00968434 0)
(0.449335 0.0263278 0)
(0.488033 0.0349052 0)
(0.53086 0.0337835 0)
(0.576415 0.0218784 0)
(0.623662 -0.00107835 5.44561e-20)
(0.671757 -0.0337082 0)
(0.719526 -0.0730449 6.14827e-20)
(0.765524 -0.115291 1.97924e-20)
(0.807699 -0.15627 0)
(0.843938 -0.192251 1.09347e-19)
(0.872745 -0.220544 3.24097e-20)
(0.89354 -0.239781 3.21949e-19)
(0.906678 -0.249823 -1.0725e-19)
(0.913277 -0.251487 0)
(0.914913 -0.246192 -7.53368e-19)
(0.913311 -0.235611 0)
(0.910101 -0.2214 0)
(0.906681 -0.205029 -1.1867e-18)
(0.904162 -0.187706 0)
(0.903375 -0.170367 0)
(0.904899 -0.153695 -1.49886e-18)
(0.909121 -0.138164 -4.12343e-19)
(0.916286 -0.124084 0)
(0.926538 -0.111641 0)
(0.939982 -0.100939 0)
(0.956599 -0.0920381 3.7799e-19)
(0.97663 -0.0849742 -1.29836e-18)
(0.999224 -0.0798025 -2.88824e-19)
(1.02684 -0.0766335 -2.23232e-19)
(1.0497 -0.0752982 -1.37935e-19)
(1.09629 -0.0774603 -2.86688e-19)
(0.974501 0.219011 4.52359e-18)
(0.973758 0.208044 -4.34254e-18)
(0.971715 0.200438 0)
(0.969161 0.19623 -2.6333e-18)
(0.967057 0.192963 0)
(0.966172 0.189347 -2.32282e-18)
(0.96743 0.185865 0)
(0.971686 0.183071 3.09304e-18)
(0.979002 0.180816 -3.84171e-18)
(0.988315 0.178602 1.75618e-18)
(0.997729 0.175934 1.6422e-18)
(1.00501 0.172366 0)
(1.00814 0.167549 -4.43836e-18)
(1.00543 0.161071 -2.82524e-18)
(0.995492 0.152599 3.97311e-18)
(0.977566 0.142437 0)
(0.952658 0.131463 1.21678e-18)
(0.923249 0.120399 0)
(0.891171 0.109276 1.20352e-18)
(0.857764 0.0979473 1.19531e-18)
(0.824081 0.0866309 0)
(0.791105 0.0756574 0)
(0.75966 0.0652223 -6.51908e-19)
(0.730209 0.0553634 0)
(0.702655 0.0461379 6.35828e-19)
(0.67646 0.0379081 0)
(0.651096 0.0314548 0)
(0.626413 0.0274546 0)
(0.602881 0.0259636 0)
(0.581534 0.0261421 0)
(0.564519 0.027458 0)
(0.554837 0.0289912 0)
(0.554616 0.0291336 1.63464e-19)
(0.564034 0.0255532 -7.09049e-20)
(0.581892 0.015623 3.16869e-20)
(0.606182 -0.00159881 0)
(0.63204 -0.0238116 0)
(0.655411 -0.0470876 4.83564e-20)
(0.674288 -0.0678658 -2.43607e-19)
(0.687779 -0.0832751 2.84176e-19)
(0.696015 -0.091482 0)
(0.699948 -0.0919406 9.71746e-19)
(0.700786 -0.0852998 -8.91656e-19)
(0.699468 -0.073142 -4.91659e-19)
(0.69653 -0.0576937 -5.48554e-19)
(0.692395 -0.0415396 0)
(0.688185 -0.0271386 0)
(0.686158 -0.0158885 -1.72771e-18)
(0.689507 -0.00800043 0)
(0.701238 -0.00371534 0)
(0.722072 -0.00473751 0)
(0.751637 -0.0128245 6.64933e-19)
(0.788497 -0.0289395 1.01737e-18)
(0.83039 -0.0531244 0)
(0.874187 -0.0843207 0)
(0.916216 -0.119909 -5.94787e-20)
(0.953034 -0.156279 0)
(0.98192 -0.189655 3.19839e-19)
(1.00131 -0.216966 3.0381e-19)
(1.011 -0.236405 0)
(1.01195 -0.247505 4.41235e-19)
(1.00591 -0.25084 1.02787e-18)
(0.994992 -0.247623 1.30685e-18)
(0.981313 -0.23934 8.20687e-19)
(0.966771 -0.227483 -1.91434e-18)
(0.952897 -0.213393 2.22095e-18)
(0.940831 -0.198182 3.83427e-18)
(0.931358 -0.182725 0)
(0.924978 -0.167677 0)
(0.921978 -0.15351 1.68392e-18)
(0.922501 -0.140547 0)
(0.926602 -0.129002 3.42403e-18)
(0.934277 -0.119001 3.42136e-18)
(0.945526 -0.110615 0)
(0.96025 -0.103875 3.14426e-18)
(0.978625 -0.0987877 -1.37507e-18)
(0.999768 -0.0953425 0)
(1.02606 -0.0935739 0)
(1.04789 -0.0930937 0)
(1.09316 -0.0956088 -2.44636e-19)
(0.974733 0.218938 -3.48228e-18)
(0.975458 0.208209 3.3331e-18)
(0.976059 0.201071 -6.46769e-18)
(0.97594 0.197385 2.97826e-18)
(0.974881 0.194485 0)
(0.973208 0.190819 2.62702e-18)
(0.971498 0.186628 -5.02629e-18)
(0.970489 0.182398 -4.66331e-18)
(0.971017 0.178209 -7.89486e-20)
(0.97374 0.174059 0)
(0.978861 0.170018 0)
(0.986048 0.166062 3.73142e-18)
(0.994485 0.161963 3.41868e-18)
(1.003 0.157315 -3.39369e-18)
(1.01017 0.151734 -9.22631e-18)
(1.01455 0.145125 0)
(1.01527 0.137777 0)
(1.01237 0.129941 0)
(1.00637 0.121491 0)
(0.99766 0.11231 0)
(0.986694 0.102588 0)
(0.97404 0.0926499 0)
(0.960316 0.0827646 1.25966e-18)
(0.946003 0.0731178 -2.64981e-18)
(0.931333 0.0639624 0)
(0.916394 0.0557671 0)
(0.901371 0.0491262 0)
(0.88671 0.0444259 0)
(0.873193 0.0416495 0)
(0.861813 0.0401854 -7.22928e-19)
(0.853702 0.0389991 0)
(0.850086 0.0365706 0)
(0.851916 0.0312605 9.37014e-21)
(0.859474 0.0216013 0)
(0.872001 0.00674825 -2.97237e-20)
(0.886336 -0.0127782 0)
(0.899104 -0.0348852 1.1621e-19)
(0.907941 -0.0563651 0)
(0.911787 -0.0743127 5.00075e-19)
(0.910703 -0.0866892 -2.77697e-19)
(0.905628 -0.0925226 -6.9071e-19)
(0.898101 -0.0918836 -7.75517e-19)
(0.889892 -0.0856827 8.89527e-19)
(0.882705 -0.0753175 9.92227e-19)
(0.878054 -0.0622936 2.09861e-18)
(0.877072 -0.0479979 2.19499e-18)
(0.880151 -0.0339133 0)
(0.886978 -0.022065 -1.07086e-18)
(0.897571 -0.0148388 0)
(0.91246 -0.0137323 0)
(0.932094 -0.0193784 -1.67782e-18)
(0.956029 -0.0324683 -6.52023e-19)
(0.983121 -0.0531067 1.71768e-19)
(1.01137 -0.0803195 0)
(1.03805 -0.11197 0)
(1.06023 -0.144964 0)
(1.07556 -0.175968 5.52472e-19)
(1.08271 -0.202187 -3.39922e-19)
(1.08157 -0.221839 -4.47748e-19)
(1.07309 -0.234281 0)
(1.05894 -0.239835 -8.6072e-19)
(1.04102 -0.239435 4.34598e-20)
(1.02125 -0.234291 -1.46348e-18)
(1.00128 -0.225649 1.77235e-18)
(0.982429 -0.214648 6.36268e-20)
(0.965673 -0.202262 -2.50911e-18)
(0.951672 -0.189285 -2.84414e-18)
(0.940843 -0.176342 0)
(0.933426 -0.163911 0)
(0.929541 -0.152348 0)
(0.929235 -0.141907 0)
(0.932515 -0.132761 -3.87788e-18)
(0.939363 -0.125022 -3.87544e-18)
(0.94978 -0.118754 0)
(0.963683 -0.113982 -3.56281e-18)
(0.981264 -0.110689 6.38393e-18)
(1.00167 -0.108822 0)
(1.02729 -0.108328 0)
(1.04862 -0.108699 0)
(1.09328 -0.111541 1.13668e-18)
(0.975035 0.218503 8.62995e-18)
(0.977129 0.207483 0)
(0.979626 0.200821 1.47988e-17)
(0.980947 0.197737 0)
(0.980754 0.195202 6.4462e-18)
(0.979849 0.191852 0)
(0.978671 0.187947 5.67996e-18)
(0.977202 0.183718 0)
(0.97563 0.179068 -5.22055e-18)
(0.974476 0.173999 0)
(0.974324 0.168687 9.20784e-18)
(0.975659 0.163299 -4.26519e-18)
(0.978785 0.157873 0)
(0.983731 0.152318 7.57672e-18)
(0.990162 0.146493 -1.84145e-19)
(0.997442 0.140318 -6.90679e-18)
(1.00473 0.13391 6.6822e-18)
(1.01133 0.127306 0)
(1.01686 0.120283 0)
(1.021 0.112668 6.22711e-18)
(1.0235 0.104514 0)
(1.02431 0.0960048 -3.02015e-18)
(1.02357 0.0873377 0)
(1.02147 0.0787097 2.87136e-18)
(1.01818 0.0704027 0)
(1.01394 0.0628279 3.03038e-18)
(1.00917 0.0564252 0)
(1.00451 0.051452 0)
(1.00081 0.0477937 1.55165e-18)
(0.998921 0.0448157 7.53667e-19)
(0.999487 0.0414348 0)
(1.00281 0.0362989 0)
(1.00872 0.0280966 -1.00447e-18)
(1.01648 0.0158665 0)
(1.02445 -0.000399916 0)
(1.03037 -0.0195553 0)
(1.03229 -0.0395408 -1.21516e-19)
(1.02919 -0.0578585 0)
(1.02116 -0.0723838 -9.00709e-19)
(1.0092 -0.081808 -6.86612e-19)
(0.994921 -0.0856742 7.43122e-19)
(0.980245 -0.0842718 0)
(0.967053 -0.07846 0)
(0.956915 -0.0694654 2.0844e-18)
(0.950934 -0.0587282 -2.26685e-18)
(0.949758 -0.0477841 -2.3661e-18)
(0.953693 -0.0381812 0)
(0.962787 -0.0313442 1.68135e-20)
(0.976595 -0.0286602 2.2266e-18)
(0.994084 -0.0314407 0)
(1.01409 -0.0403317 1.79045e-18)
(1.03538 -0.0553829 1.66157e-18)
(1.05636 -0.0761002 -1.25227e-18)
(1.07519 -0.101154 0)
(1.08996 -0.128462 0)
(1.09916 -0.155552 0)
(1.10205 -0.180039 -6.1394e-19)
(1.09872 -0.20007 0)
(1.0899 -0.214568 0)
(1.07672 -0.223268 0)
(1.06046 -0.226565 2.29207e-18)
(1.04238 -0.22526 -1.34899e-18)
(1.02367 -0.220319 0)
(1.00534 -0.212706 -2.01316e-18)
(0.988224 -0.203302 -2.26293e-18)
(0.972984 -0.192862 5.33983e-18)
(0.960113 -0.18202 -6.02631e-18)
(0.949973 -0.171286 -6.67272e-18)
(0.942819 -0.161063 0)
(0.93883 -0.15166 -7.73625e-18)
(0.938124 -0.143303 0)
(0.940783 -0.136151 0)
(0.946858 -0.13031 0)
(0.956409 -0.125837 8.17183e-18)
(0.969408 -0.122754 -7.75304e-18)
(0.986084 -0.121022 -1.06331e-17)
(1.00565 -0.120553 0)
(1.03049 -0.121207 4.71778e-18)
(1.05127 -0.122386 0)
(1.09522 -0.12554 -1.91776e-18)
(0.975434 0.217691 -9.78901e-18)
(0.979144 0.206097 -9.52312e-18)
(0.983427 0.200256 -1.70354e-17)
(0.985586 0.198012 0)
(0.985495 0.195701 -1.46549e-17)
(0.984799 0.192444 -6.9787e-18)
(0.984219 0.188766 0)
(0.983478 0.184774 1.24367e-17)
(0.982387 0.180266 1.16142e-17)
(0.981077 0.175193 0)
(0.979762 0.169646 -1.04134e-17)
(0.978687 0.163726 0)
(0.978171 0.1575 0)
(0.978556 0.150997 9.0107e-18)
(0.980079 0.144226 8.35315e-18)
(0.982824 0.137221 -1.79515e-19)
(0.986665 0.130175 1.8166e-19)
(0.991331 0.123201 0)
(0.996505 0.116139 0)
(1.00177 0.108816 -7.13552e-18)
(1.00667 0.101195 -7.21571e-18)
(1.0109 0.0933558 1.0568e-17)
(1.01427 0.0854204 3.52925e-18)
(1.01672 0.0775437 3.51425e-18)
(1.01829 0.0699498 0)
(1.01914 0.0629412 -3.4185e-18)
(1.01964 0.0568169 0)
(1.02038 0.0517114 0)
(1.02204 0.0474378 -3.50929e-18)
(1.02519 0.0434097 0)
(1.03012 0.0387272 0)
(1.03663 0.0323499 0)
(1.04401 0.023342 7.58193e-19)
(1.05101 0.0112626 -3.80291e-19)
(1.05607 -0.00359736 1.79971e-19)
(1.05762 -0.020252 0)
(1.05453 -0.037027 0)
(1.04653 -0.0520625 0)
(1.03427 -0.0638484 6.97317e-19)
(1.01904 -0.0715086 7.7507e-19)
(1.00249 -0.074821 -1.79025e-18)
(0.986378 -0.0741321 0)
(0.972344 -0.0702116 0)
(0.961739 -0.0640808 -4.69949e-18)
(0.955547 -0.0568604 -2.49077e-18)
(0.954359 -0.0496703 0)
(0.958397 -0.0436286 0)
(0.967521 -0.0398925 2.62208e-18)
(0.981034 -0.0396291 2.70906e-20)
(0.997729 -0.0437914 0)
(1.01621 -0.0529894 0)
(1.03488 -0.0672843 -1.86848e-18)
(1.05214 -0.086137 0)
(1.06658 -0.108376 0)
(1.07713 -0.13231 0)
(1.08327 -0.155922 0)
(1.08506 -0.17723 0)
(1.08288 -0.194639 -2.16743e-18)
(1.07722 -0.207177 0)
(1.06851 -0.214566 0)
(1.05719 -0.217139 1.06587e-19)
(1.04383 -0.215626 0)
(1.02911 -0.210926 0)
(1.01382 -0.20394 0)
(0.99875 -0.195477 1.03974e-17)
(0.984649 -0.186227 -6.04101e-18)
(0.972156 -0.176758 6.81622e-18)
(0.961802 -0.167526 1.73284e-19)
(0.954004 -0.158886 0)
(0.949078 -0.151104 8.75273e-18)
(0.947252 -0.144374 -8.99897e-18)
(0.948693 -0.13883 0)
(0.953509 -0.134559 0)
(0.961807 -0.131606 -1.04406e-19)
(0.97359 -0.129978 8.78457e-18)
(0.989116 -0.129617 8.00037e-18)
(1.00765 -0.130403 0)
(1.03157 -0.132123 -5.35113e-18)
(1.05177 -0.134067 0)
(1.09496 -0.137577 1.45203e-18)
(0.975986 0.216475 0)
(0.981694 0.204221 2.19282e-17)
(0.987773 0.199657 1.94951e-17)
(0.990448 0.198426 0)
(0.990133 0.196257 8.3271e-18)
(0.989287 0.193003 -8.05037e-18)
(0.988794 0.189428 0)
(0.98831 0.185514 -1.40626e-17)
(0.987651 0.181068 0)
(0.986905 0.176088 0)
(0.986111 0.170636 0)
(0.985243 0.164741 0)
(0.98434 0.158417 0)
(0.98353 0.151669 1.80968e-19)
(0.982971 0.144509 -9.84192e-18)
(0.982823 0.136988 -1.79795e-19)
(0.983248 0.129344 1.81405e-19)
(0.984345 0.121781 0)
(0.986091 0.114234 0)
(0.988305 0.106592 0)
(0.990712 0.0988284 -2.09572e-19)
(0.993054 0.0910022 2.15833e-19)
(0.995151 0.0832097 -4.04111e-18)
(0.996901 0.07557 -4.0244e-18)
(0.998282 0.068244 0)
(0.999396 0.061434 -4.14074e-18)
(1.00052 0.0553225 4.15267e-18)
(1.00212 0.0499548 0)
(1.00468 0.0451329 2.02904e-18)
(1.00862 0.0403752 2.04814e-18)
(1.01404 0.0349819 0)
(1.0206 0.0281763 0)
(1.02749 0.0193208 9.45195e-19)
(1.0335 0.00817273 -2.1543e-20)
(1.03745 -0.00504619 -4.22685e-19)
(1.03811 -0.019476 0)
(1.03475 -0.0337519 0)
(1.02729 -0.0464414 -8.51987e-19)
(1.01635 -0.0564045 0)
(1.003 -0.0629943 -9.61751e-19)
(0.988565 -0.0660983 -4.42127e-20)
(0.974456 -0.0660576 0)
(0.962028 -0.0635345 2.48301e-18)
(0.95246 -0.059371 5.34361e-18)
(0.946658 -0.0544873 2.83804e-18)
(0.945208 -0.049843 0)
(0.94836 -0.0464207 -6.00996e-18)
(0.955989 -0.0451595 0)
(0.967563 -0.0469095 -2.89013e-18)
(0.982149 -0.0523928 0)
(0.998482 -0.0621006 0)
(1.01516 -0.0760522 0)
(1.03089 -0.0937766 0)
(1.04462 -0.114327 0)
(1.05574 -0.136296 -3.49613e-18)
(1.06407 -0.157965 3.15035e-18)
(1.06975 -0.177551 0)
(1.0728 -0.193494 2.45265e-18)
(1.07299 -0.204736 -2.71074e-18)
(1.06987 -0.210924 0)
(1.06318 -0.212401 -3.05769e-18)
(1.0531 -0.209985 0)
(1.04026 -0.204679 0)
(1.02561 -0.197448 0)
(1.01021 -0.189116 -5.82006e-18)
(0.995099 -0.180347 6.55586e-18)
(0.981166 -0.171657 -7.40214e-18)
(0.969144 -0.163438 1.6584e-17)
(0.959599 -0.155981 -8.96162e-18)
(0.952946 -0.149494 0)
(0.949475 -0.144121 1.02341e-17)
(0.949381 -0.139956 -1.04188e-17)
(0.952785 -0.137058 0)
(0.95979 -0.135448 -6.56784e-20)
(0.970396 -0.13512 -9.88049e-18)
(0.984865 -0.136003 0)
(1.0025 -0.137943 0)
(1.02569 -0.140699 -6.13711e-18)
(1.04547 -0.14337 0)
(1.08831 -0.14736 -1.6921e-18)
(0.976761 0.214805 0)
(0.984938 0.202016 -1.26283e-17)
(0.992775 0.199214 -1.10854e-17)
(0.995657 0.199005 0)
(0.994994 0.196891 1.90992e-17)
(0.993974 0.193662 1.80341e-17)
(0.993413 0.190177 0)
(0.992862 0.186254 1.6227e-17)
(0.992207 0.181751 -1.54047e-17)
(0.991621 0.17675 0)
(0.991157 0.171319 0)
(0.990747 0.165469 0)
(0.990335 0.159192 0)
(0.989904 0.152475 -1.17046e-17)
(0.989455 0.145306 -1.1476e-17)
(0.989006 0.137706 1.05504e-17)
(0.988643 0.129894 -3.11653e-17)
(0.988487 0.122092 0)
(0.9886 0.114286 0)
(0.988937 0.106412 9.92681e-18)
(0.989377 0.0984743 1.93907e-17)
(0.989794 0.0905392 -9.49158e-18)
(0.990101 0.0827006 0)
(0.990257 0.0750623 0)
(0.990272 0.0677478 -4.80406e-18)
(0.990249 0.0608973 9.52279e-18)
(0.990423 0.0546196 -9.54989e-18)
(0.991152 0.0489091 0)
(0.992843 0.0435738 0)
(0.995808 0.0382129 -2.33715e-18)
(1.00012 0.0322717 0)
(1.00552 0.0251654 2.29124e-18)
(1.01133 0.0164402 -1.08129e-18)
(1.01664 0.00592653 -2.01948e-20)
(1.02042 -0.0061312 -1.1277e-20)
(1.02166 -0.0189641 0)
(1.01969 -0.0314522 0)
(1.01439 -0.0424494 -4.28987e-20)
(1.00609 -0.0510561 1.05559e-18)
(0.995536 -0.0567952 3.3397e-18)
(0.983722 -0.059648 4.79923e-18)
(0.971788 -0.0599803 2.62097e-18)
(0.960909 -0.0584202 -2.81904e-18)
(0.95217 -0.0557303 -3.02965e-18)
(0.946473 -0.0527147 3.2109e-18)
(0.944459 -0.0501744 0)
(0.946456 -0.0488822 6.80411e-18)
(0.952445 -0.0495576 -6.84547e-18)
(0.962048 -0.0528705 0)
(0.97455 -0.0593963 0)
(0.988961 -0.0695107 0)
(1.00416 -0.0832491 0)
(1.0191 -0.100271 0)
(1.033 -0.119831 0)
(1.04548 -0.140775 3.94191e-18)
(1.05654 -0.161564 -7.41905e-18)
(1.06609 -0.180383 -3.54578e-18)
(1.07352 -0.195442 3.31894e-18)
(1.07766 -0.205454 3.04007e-18)
(1.07728 -0.21003 -3.31035e-18)
(1.07174 -0.209695 3.58503e-18)
(1.06126 -0.205552 0)
(1.04682 -0.19885 4.70673e-18)
(1.02978 -0.190697 -5.50292e-18)
(1.01163 -0.181955 0)
(0.993693 -0.173253 -1.4845e-17)
(0.977077 -0.165031 8.46488e-18)
(0.962635 -0.157592 -1.86871e-17)
(0.950987 -0.151143 1.02748e-17)
(0.942559 -0.14581 0)
(0.93762 -0.141675 1.14896e-17)
(0.936325 -0.138784 1.1962e-17)
(0.938752 -0.137158 -1.20154e-17)
(0.944957 -0.136795 -1.1884e-17)
(0.954902 -0.137675 1.13368e-17)
(0.96884 -0.139725 0)
(0.986072 -0.142759 0)
(1.00908 -0.146566 7.03021e-18)
(1.02888 -0.149941 0)
(1.07224 -0.154624 1.94018e-18)
(0.977833 0.212618 1.66858e-17)
(0.988996 0.199655 0)
(0.998476 0.199068 -2.49612e-17)
(1.00126 0.199747 2.2639e-17)
(1.00019 0.197608 -2.1578e-17)
(0.999048 0.19446 2.06824e-17)
(0.998425 0.191067 0)
(0.99776 0.187105 1.59883e-19)
(0.996994 0.182517 1.73918e-17)
(0.996344 0.17745 0)
(0.995881 0.171968 0)
(0.995564 0.166077 0)
(0.995354 0.159778 2.86304e-17)
(0.995231 0.153061 0)
(0.995161 0.14591 2.5485e-17)
(0.995104 0.138329 0)
(0.995057 0.130512 4.75178e-17)
(0.995056 0.122674 0)
(0.995118 0.114815 0)
(0.995207 0.106893 -2.25946e-17)
(0.99524 0.0989216 -1.10536e-17)
(0.995141 0.0909688 0)
(0.994872 0.083124 0)
(0.994433 0.075482 0)
(0.993869 0.0681452 5.42254e-18)
(0.993299 0.0612159 -5.43298e-18)
(0.99294 0.054758 -9.79956e-20)
(0.993104 0.048734 0)
(0.994134 0.0429563 5.53052e-18)
(0.996303 0.0370771 0)
(0.999695 0.030642 0)
(1.00412 0.0231975 -2.59733e-18)
(1.00909 0.0144137 1.29961e-18)
(1.01387 0.00420806 -1.95646e-20)
(1.01753 -0.00713247 2.91547e-19)
(1.01923 -0.0189149 0)
(1.01831 -0.0301799 0)
(1.01454 -0.0399598 1.14298e-18)
(1.00806 -0.0475265 -1.19149e-18)
(0.999347 -0.0525403 -2.53508e-18)