/*--------------------------------*- C++ -*----------------------------------*\
| =========                 |                                                 |
| \\      /  F ield         | OpenFOAM: The Open Source CFD Toolbox           |
|  \\    /   O peration     | Version:  v1912                                 |
|   \\  /    A nd           | Website:  www.openfoam.com                      |
|    \\/     M anipulation  |                                                 |
\*---------------------------------------------------------------------------*/
FoamFile
{
    version     2.0;
    format      ascii;
    class       volScalarField;
    location    "110";
    object      epsilon;
}
// * * * * * * * * * * * * * * * * * * * * * * * * * * * * * * * * * * * * * //

dimensions      [0 2 -3 0 0 0 0];


internalField   nonuniform List<scalar> 
12441
(
0.0102961
0.00908484
0.00832183
0.00769794
0.00717928
0.00674496
0.00637706
0.00606372
0.00579803
0.00556994
0.00537235
0.00519682
0.00505335
0.00490946
0.00479428
0.00468591
0.00459601
0.0168917
0.233055
2.82951
21.0079
39.25
0.0101184
0.00891984
0.00817651
0.0075699
0.00706532
0.0066426
0.00628377
0.00597796
0.00571897
0.00549666
0.00530395
0.00513231
0.00499321
0.0048529
0.00474131
0.00463772
0.00460985
0.0166292
0.220095
2.82446
21.3018
40.2318
0.00989642
0.00871706
0.00799355
0.00740268
0.00691131
0.00649978
0.00615081
0.00585345
0.00560172
0.00538584
0.00519903
0.00503281
0.00489933
0.00476263
0.00465617
0.00455662
0.00454567
0.0152048
0.188509
2.8001
21.6864
41.3784
0.00967282
0.00851341
0.00780762
0.0072318
0.00675305
0.00635222
0.00601227
0.00572306
0.00547822
0.00526843
0.00508714
0.00492632
0.00479697
0.00466751
0.00456575
0.00447239
0.00445815
0.0134885
0.156467
2.78446
22.158
42.5504
0.00942863
0.00828879
0.00760276
0.00704247
0.00657679
0.00618708
0.00585708
0.00557643
0.005339
0.00513584
0.00496072
0.0048058
0.0046826
0.00455719
0.00446134
0.00437393
0.00433134
0.0119552
0.141035
2.79801
22.6757
43.6698
0.00922263
0.00809915
0.0074275
0.0068798
0.0064247
0.00604398
0.00572141
0.00544752
0.00521581
0.00501767
0.00484704
0.00469649
0.00457618
0.00445762
0.00436575
0.00428394
0.00425928
0.0124333
0.162449
2.90655
23.2966
44.7472
0.00900201
0.00789554
0.00724149
0.00670742
0.00626377
0.00589278
0.00557897
0.00531253
0.00508727
0.00489488
0.00472957
0.00458413
0.00446919
0.00435375
0.00426521
0.00419223
0.0060246
0.0218467
0.266644
3.19621
24.1093
45.7945
0.00882353
0.00773085
0.00708862
0.00656517
0.00613042
0.00576694
0.0054592
0.00519829
0.00497768
0.00478932
0.00462752
0.00448541
0.00437234
0.00426353
0.00418312
0.00517695
0.0351717
0.080145
0.572481
3.79167
25.2193
46.8732
0.00862943
0.00755165
0.00692527
0.00641383
0.00598914
0.00563421
0.00533426
0.00507987
0.00486487
0.00468151
0.00452431
0.00438665
0.00427923
0.00413244
0.00540837
0.0277529
0.187268
0.314936
1.24854
4.82616
26.7376
48.0153
0.00847471
0.00740871
0.00679213
0.0062898
0.00587274
0.00552421
0.00522931
0.00497959
0.00476849
0.00458848
0.00443418
0.00429938
0.00419208
0.00426714
0.0259727
0.161592
0.600234
0.885549
2.35656
6.35676
28.7448
49.2846
0.00830532
0.00725225
0.00664987
0.00615805
0.00574978
0.00540872
0.00512068
0.0048766
0.00467038
0.00449468
0.00434432
0.00421438
0.0040801
0.00961595
0.123563
0.511122
1.31077
1.81443
3.74811
8.30873
31.2669
50.6975
0.00817026
0.00712749
0.00653337
0.00604947
0.00564784
0.00531232
0.00502858
0.00478851
0.00458563
0.00441279
0.00426488
0.00413867
0.00415869
0.0510481
0.379688
1.07119
2.154
2.89988
5.17623
10.5078
34.2647
52.295
0.00802118
0.00698984
0.0064087
0.00593414
0.00554031
0.00521141
0.0049338
0.00469869
0.00450007
0.00433097
0.00418647
0.00402632
0.00848906
0.188147
0.789239
1.69815
2.9369
3.9083
6.46944
12.7672
37.6524
54.0597
0.00790024
0.00687813
0.00630411
0.00583667
0.00544881
0.00512491
0.00485113
0.00461966
0.00442409
0.0042576
0.00411535
0.00387179
0.0391315
0.433514
1.23646
2.25714
3.57145
4.7319
7.5718
14.9474
41.3188
56.0037
0.00776891
0.00675681
0.00619453
0.00573533
0.00535431
0.00503619
0.00476783
0.00454065
0.00434874
0.00418548
0.00404613
0.00426657
0.128638
0.729179
1.63987
2.71077
4.0602
5.37077
8.49478
16.9698
45.1537
58.0812
0.00765979
0.00665603
0.00609997
0.0056472
0.0052716
0.00495804
0.00469311
0.00446928
0.00428018
0.00411932
0.00398212
0.00968116
0.278085
1.0148
1.97389
3.0687
4.43378
5.86396
9.27148
18.8023
49.058
60.2902
0.00754392
0.00654901
0.00600372
0.00555824
0.00518867
0.00488015
0.00462001
0.00439983
0.00421385
0.00405571
0.00392139
0.0346413
0.457296
1.26489
2.24469
3.35135
4.72254
6.25168
9.93484
20.4411
52.955
62.571
0.00744234
0.00645532
0.00591569
0.00547631
0.00511191
0.00480778
0.00455096
0.00433409
0.00415088
0.00399514
0.0038657
0.0937421
0.635156
1.47609
2.46516
3.57735
4.94993
6.56491
10.5111
21.8957
56.7879
64.9213
0.0073398
0.00636049
0.0058306
0.00539761
0.00503844
0.00473864
0.00448598
0.00427218
0.0040916
0.00393814
0.00380387
0.181573
0.796492
1.65413
2.64715
3.76101
5.13271
6.82519
11.019
23.1815
60.5228
67.2818
0.00724511
0.00627321
0.00574848
0.00532123
0.00496698
0.00467139
0.00442191
0.00421134
0.00403347
0.00388237
0.00429714
0.281552
0.937792
1.80604
2.79986
3.91287
5.28262
7.04681
11.4713
24.314
64.1417
69.6617
0.00715495
0.00618978
0.00567392
0.00525223
0.00490246
0.00461053
0.00436459
0.00415648
0.00398072
0.00383151
0.0103022
0.381541
1.06136
1.93771
2.93018
4.04057
5.40789
7.23875
11.876
25.3086
67.6448
72.0102
0.00706412
0.00610623
0.00559534
0.00517932
0.00483446
0.00454679
0.00430412
0.00409938
0.00392644
0.00378018
0.0312078
0.475667
1.17068
2.05368
3.0432
4.14972
5.51422
7.40622
12.2379
26.1787
71.0443
74.3523
0.0069849
0.00603271
0.00552972
0.00511844
0.00477732
0.00449264
0.00425291
0.00405008
0.00387881
0.00373614
0.0705587
0.562534
1.26903
2.15729
3.14276
4.24437
5.60546
7.55185
12.5598
26.9365
74.367
76.6493
0.00689834
0.00595317
0.00545489
0.00504911
0.00471282
0.00443236
0.0041959
0.00399647
0.00382804
0.00369589
0.121717
0.642566
1.3589
2.25112
3.23175
4.32748
5.68405
7.6769
12.8437
27.5929
77.6501
78.9445
0.00683015
0.00588976
0.00539853
0.0049967
0.0046634
0.00438525
0.00415108
0.00395293
0.00378566
0.00367895
0.176756
0.716937
1.4422
2.33712
3.31232
4.40112
5.7514
7.78203
13.0906
28.1574
80.9432
81.212
0.00674439
0.00581124
0.0053249
0.00492876
0.00460055
0.0043269
0.0040963
0.00390185
0.00373767
0.00364234
0.231487
0.786954
1.52032
2.41681
3.38605
4.46671
5.80829
7.8679
13.302
28.6385
84.3041
83.5114
0.00668532
0.00575602
0.00527579
0.00488284
0.00455692
0.00428493
0.00405605
0.00386238
0.00369899
0.00386688
0.284846
0.853784
1.59434
2.49137
3.45407
4.52513
5.85517
7.93533
13.4792
29.0437
87.7998
85.8273
0.00660153
0.00567943
0.00520407
0.00481683
0.00449607
0.0042287
0.00400351
0.00381367
0.00365355
0.00599854
0.337197
0.918387
1.66509
2.56169
3.51714
4.57697
5.89246
7.98532
13.6238
29.379
91.4999
88.2307
0.00655194
0.00563281
0.0051627
0.00477789
0.0044587
0.00419231
0.0039682
0.00377854
0.00361911
0.0121708
0.389319
0.981517
1.73323
2.62842
3.57575
4.6226
5.92059
8.01899
13.7377
29.6498
95.4755
90.7106
0.00646778
0.00555623
0.00509132
0.00471252
0.00439882
0.00413741
0.00391734
0.00373184
0.00357685
0.0244329
0.441992
1.04377
1.7993
2.69207
3.63025
4.66233
5.94009
8.03756
13.823
29.8607
99.791
93.3406
0.00642563
0.0055162
0.00505566
0.0046786
0.00436584
0.00410484
0.00388534
0.0036996
0.00354691
0.0445318
0.495859
1.10564
1.86374
2.75298
3.68086
4.69647
5.95149
8.04231
13.8821
30.0159
104.502
96.1058
0.00634309
0.00544121
0.00498589
0.00461486
0.00430766
0.00405174
0.00383639
0.00365492
0.00351036
0.0734286
0.55143
1.16753
1.92691
2.81145
3.72781
4.72533
5.95539
8.03459
13.9175
30.1195
109.651
99.0732
0.00630949
0.00540897
0.00495721
0.00458721
0.00428027
0.00402409
0.00380868
0.00362639
0.0034907
0.111489
0.609091
1.22977
1.98912
2.86771
3.77134
4.74927
5.95237
8.01573
13.9317
30.1762
115.266
102.217
0.00622494
0.00533253
0.00488653
0.00452303
0.00422214
0.00397152
0.00376074
0.00358314
0.00346936
0.158662
0.669131
1.29266
2.05061
2.92201
3.81169
4.76869
5.94305
7.98715
13.9275
30.1911
121.364
105.592
0.00619819
0.00530636
0.0048631
0.00449994
0.00419867
0.00394721
0.00373584
0.00355703
0.00347628
0.214776
0.731732
1.35643
2.11164
2.97458
3.84919
4.78401
5.92809
7.95023
13.9078
30.1697
127.951
109.157
0.00611112
0.0052281
0.00479118
0.00443501
0.00414027
0.00389484
0.00368849
0.00351472
0.00355432
0.279495
0.796953
1.42128
2.17239
3.02571
3.88418
4.79573
5.90814
7.90642
13.8754
30.1179
135.027
112.957
0.00608766
0.00520486
0.00477023
0.00441406
0.00411858
0.00387198
0.00366478
0.00348956
0.00668999
0.352146
0.864696
1.48735
2.23308
3.07567
3.9171
4.80434
5.88393
7.85718
13.8333
30.0419
142.584
116.938
0.00599558
0.00512272
0.00469533
0.00434687
0.00405857
0.00381857
0.0036169
0.0034472
0.0379265
0.431269
0.934687
1.55472
2.29387
3.12481
3.94839
4.81046
5.85623
7.80401
13.7848
29.9478
150.595
121.137
0.00596736
0.00509543
0.0046709
0.00432286
0.00403415
0.00379328
0.00359104
0.00342093
0.109385
0.513404
1.00646
1.62344
2.35495
3.17348
3.97859
4.8147
5.82587
7.74845
13.7332
29.8422
158.989
125.495
0.00586259
0.00500239
0.00458677
0.00424773
0.00396738
0.00373417
0.00353846
0.00338041
0.183783
0.593968
1.07944
1.69348
2.41647
3.22207
4.00826
4.81782
5.79374
7.69212
13.6822
29.7318
167.611
130.045
0.00582108
0.00496309
0.00455133
0.00421367
0.00393377
0.00370052
0.00350505
0.00339933
0.245371
0.669953
1.15296
1.76479
2.4786
3.27094
4.038
4.82056
5.76085
7.63669
13.6359
29.6245
176.158
134.727
0.00569939
0.00485552
0.00445477
0.00412727
0.00385659
0.00363172
0.00344356
0.00484033
0.29429
0.740064
1.22644
1.83723
2.5415
3.3205
4.06847
4.8238
5.72826
7.58395
13.5987
29.5295
184.121
139.588
0.00561716
0.00478925
0.00440244
0.00408369
0.00381863
0.00359709
0.00341095
0.00914012
0.333093
0.80398
1.29936
1.91065
2.60533
3.37109
4.10033
4.82846
5.69712
7.53575
13.5756
29.4569
190.785
144.654
0.00525461
0.00446009
0.00410845
0.00381964
0.00358171
0.00338414
0.00321934
0.0128027
0.363872
0.861706
1.37129
1.98482
2.67024
3.42306
4.13428
4.83551
5.66868
7.49409
13.5722
29.4181
195.353
150.447
95.0235
142.484
83.5356
65.1745
58.4822
47.0104
42.2026
37.0585
35.4
37.4879
39.76
37.1942
36.7422
38.8368
43.7936
57.2884
69.5979
34.8632
22.5413
20.6018
19.7198
18.6859
17.7359
16.3857
9.7747
6.31766
5.52081
5.2348
5.1393
5.39457
5.84011
6.10056
6.05408
5.38854
4.5713
94.6475
142.806
85.8927
71.1101
64.5724
51.046
45.3244
39.0703
36.9546
39.0946
40.9185
38.3508
37.7962
39.7475
44.4332
57.2787
72.7186
36.6023
22.9939
20.8422
19.9027
18.7878
17.723
16.3194
9.76932
6.30712
5.51209
5.22704
5.13221
5.38782
5.83268
6.09165
6.04456
5.37946
4.56402
93.9266
143.52
90.375
80.8509
74.3339
57.6254
50.1467
42.6469
40.2086
42.0466
42.4256
40.0753
39.6134
41.4164
45.4516
55.8956
70.6403
38.8757
23.8599
21.3364
20.2889
19.0116
17.7115
16.0716
9.68215
6.2823
5.49478
5.21164
5.11814
5.37441
5.8179
6.0739
6.02559
5.36133
4.54949
92.8104
144.761
96.7934
93.7152
87.2565
66.7428
57.0508
48.2934
45.5276
47.0939
45.4152
43.5839
43.4229
45.0722
48.1381
55.5362
66.2036
41.7181
25.2687
22.1581
20.9305
19.3953
17.7317
15.7072
9.5328
6.24406
5.46911
5.18877
5.09724
5.35443
5.79583
6.04737
5.99723
5.33422
4.52776
91.3035
146.419
104.744
107.71
102.24
78.6346
66.319
56.2639
53.286
54.8379
50.8993
50.1558
50.6159
52.1368
53.9372
58.2819
62.8335
44.9007
27.3907
23.4261
21.9067
19.9916
17.8201
15.2833
9.33918
6.19344
5.43533
5.15863
5.0697
5.32799
5.76656
6.01214
5.95958
5.29821
4.4989
89.3553
148.296
113.457
120.156
117.605
93.2655
78.1953
66.8251
63.7693
65.6565
59.9196
61.049
62.5655
64.034
64.3326
65.9779
63.9789
48.3764
30.4379
25.3163
23.3308
20.873
18.0209
14.8474
9.11683
6.13158
5.39379
5.12148
5.03573
5.29525
5.7302
5.96829
5.91275
5.25338
4.46299
87.0012
150.153
121.919
129.238
131.402
109.864
92.7485
80.053
76.9066
79.3817
72.9899
76.2788
79.2704
81.2381
80.3554
80.004
72.4649
53.2412
34.7261
28.0835
25.3617
22.1361
18.3877
14.4384
8.87877
6.05971
5.34485
5.0776
4.99559
5.25636
5.68686
5.91594
5.85688
5.19984
4.42011
84.2135
151.752
129.217
135.145
142.25
126.455
109.571
95.4842
91.8631
94.6639
88.816
92.5761
97.0621
101.076
101.037
100.074
89.9427
62.2325
40.8823
32.1024
28.2192
23.9093
18.9872
14.0884
8.6357
5.97911
5.28896
5.02729
4.94956
5.2115
5.6367
5.85521
5.79211
5.13775
4.3704
81.0699
152.891
134.885
139.61
150.162
140.142
127.43
111.825
106.944
109.005
103.633
104.774
109.881
117.163
121.396
121.958
113.798
78.5289
50.1328
37.9302
32.2002
26.3584
19.9025
13.8262
8.3964
5.89113
5.2266
4.97093
4.89796
5.16088
5.57985
5.78623
5.71864
5.06726
4.314
77.574
153.43
138.995
144.55
156.515
148.652
144.231
127.113
120.26
120.152
113.886
111.065
115.513
124.966
134.743
138.354
134.311
101.66
64.1256
46.335
37.6799
29.687
21.2367
13.679
8.16807
5.79711
5.15829
4.90888
4.84113
5.10472
5.5165
5.70918
5.63669
4.98858
4.2511
73.8369
153.289
141.957
151.108
163.138
151.94
157.628
139.49
130.747
127.661
119.573
113.753
116.727
126.089
139.113
145.33
143.066
122.522
82.9685
58.0271
45.0405
34.1144
23.1147
13.6748
7.95676
5.69838
5.0846
4.84156
4.77944
5.04327
5.44686
5.62425
5.54653
4.90196
4.1819
69.8857
152.428
144.262
159.515
171.391
152.161
166.107
148.027
138.475
132.716
123.004
115.608
116.787
124.551
137.797
144.959
141.808
130.758
101.625
72.5563
54.3918
39.7961
25.6745
13.8437
7.76768
5.59628
5.00611
4.76939
4.71327
4.97679
5.37112
5.53168
5.44847
4.8077
4.10667
65.8489
150.833
146.324
169.437
181.774
152.16
169.77
152.999
144.236
136.961
126.415
118.103
117.276
122.821
134.499
141.062
136.243
127.42
111.729
86.635
64.9524
46.6392
29.0386
14.218
7.60537
5.49205
4.92341
4.69281
4.64301
4.90556
5.28954
5.43172
5.34284
4.70613
4.0257
61.7626
148.506
148.496
180.429
194.035
154.15
170.212
155.647
149.004
141.543
130.942
121.803
118.637
121.653
131.019
135.989
129.551
119.345
110.8
95.0118
74.4879
54.0179
33.2456
14.8298
7.47387
5.38686
4.83708
4.61225
4.56905
4.82986
5.20237
5.32467
5.23006
4.59767
3.93931
57.7502
145.46
151.173
192.191
207.474
159.214
169.82
157.54
153.605
147.203
137.178
126.925
120.957
121.08
127.774
130.577
122.573
110.532
103.321
95.2006
80.0856
60.6272
38.1387
15.7067
7.37677
5.28178
4.74768
4.52813
4.49178
4.74999
5.10989
5.21087
5.11056
4.48273
3.84788
53.8399
141.732
154.953
204.593
221.267
167.45
170.707
159.951
158.805
154.384
145.367
133.667
124.321
121.051
124.73
125.008
115.404
102.039
93.9521
89.3871
80.3524
64.9079
43.2559
16.8629
7.31707
5.17772
4.65573
4.44085
4.41157
4.66622
5.01237
5.09068
4.98481
4.36183
3.75182
50.1273
137.399
160.848
217.527
234.812
178.453
173.993
163.854
165.357
163.53
155.828
142.223
128.867
121.57
121.816
119.323
108.116
93.9717
84.874
81.161
76.3602
65.98
47.8424
18.2895
7.29709
5.07544
4.56167
4.35078
4.32876
4.57886
4.91013
4.9645
4.85334
4.2355
3.65156
46.6135
132.592
170.472
230.787
247.927
191.436
180.049
169.926
173.846
174.95
168.746
152.825
134.774
122.715
119.054
113.615
100.888
86.3694
76.729
72.8726
70.2679
64.158
51.092
19.9478
7.31827
4.97551
4.46591
4.25826
4.24369
4.48817
4.80346
4.83277
4.71671
4.10432
3.54758
43.349
127.473
185.869
244.007
260.407
205.738
188.832
178.575
184.719
189.001
184.416
165.644
142.209
124.592
116.519
108.027
93.946
79.3479
69.6228
65.4908
63.7978
60.5206
52.5175
21.7697
7.38094
4.87832
4.36877
4.16357
4.15665
4.39443
4.69268
4.69593
4.57549
3.96891
3.44036
40.3033
122.16
208.471
256.537
272.135
220.838
200.092
189.955
198.237
205.862
202.898
180.791
151.289
127.325
114.337
102.74
87.5105
73.0435
63.5267
59.2477
57.8466
56.1689
52.1604
23.6655
7.48412
4.78405
4.2705
4.06697
4.06789
4.29789
4.57811
4.5545
4.4303
3.82991
3.33041
37.4893
116.639
236.719
267.671
283.003
236.318
213.476
204.037
214.558
225.719
224.25
198.171
161.993
130.989
112.624
97.9268
81.7567
67.5572
58.3822
54.0872
52.7266
51.8418
50.473
25.5348
7.62523
4.69265
4.17129
3.96867
3.97764
4.1988
4.46009
4.40897
4.28176
3.68799
3.21826
34.8769
110.946
263.711
276.95
292.926
251.82
228.566
220.61
233.669
248.506
248.118
217.425
174.064
135.572
111.486
93.7371
76.8059
62.9372
54.1198
49.8732
48.4618
47.909
48.0309
27.2756
7.79969
4.60388
4.07124
3.86885
3.88612
4.09738
4.33893
4.2599
4.13052
3.54383
3.10442
32.4767
105.862
280.426
284.101
301.85
267.035
244.93
239.363
255.481
274.141
274.052
237.797
186.874
140.859
110.945
90.2625
72.7185
59.183
50.663
46.4615
44.9639
44.4983
45.3132
28.7926
8.00049
4.51725
3.97041
3.76764
3.79348
3.99387
4.21498
4.10785
3.97723
3.39812
2.98943
30.2708
101.957
284.569
289.148
309.781
281.701
262.139
259.916
279.791
302.278
301.195
258.221
199.413
146.386
110.926
87.5338
69.4993
56.2565
47.9326
43.7254
42.1178
41.6125
42.6304
30.0049
8.21775
4.43206
3.86882
3.66518
3.69988
3.88846
4.08858
3.95339
3.82253
3.25153
2.87378
28.2673
99.3683
280.278
292.551
316.759
295.6
279.803
281.902
306.401
332.628
328.815
277.493
210.466
151.408
111.209
85.4983
67.0983
54.0897
45.8488
41.5575
39.813
39.201
40.1449
30.854
8.4385
4.34739
3.76645
3.56155
3.60545
3.78136
3.96008
3.79711
3.66706
3.10475
2.75799
26.4614
98.1965
272.55
294.915
322.846
308.57
297.58
304.985
335.052
364.681
356.041
294.635
219.05
155.134
111.497
84.0435
65.42
52.5903
44.3314
39.8697
37.9547
37.1969
37.92
31.3092
8.64673
4.26216
3.66324
3.45687
3.5103
3.67279
3.82982
3.63963
3.51146
2.95843
2.64254
24.8623
98.5088
264.555
296.702
328.099
320.512
315.203
328.896
365.5
397.955
382.266
309.056
224.747
157.044
111.466
83.003
64.3301
51.6451
43.2976
38.5872
36.4637
35.5329
35.9615
31.3682
8.82399
4.17516
3.55915
3.35124
3.41455
3.56293
3.69818
3.48155
3.35633
2.81319
2.52787
23.4808
100.309
257.692
298.154
332.57
331.391
332.476
353.398
397.377
431.605
406.657
320.547
227.737
157.16
110.923
82.2047
63.6723
51.1262
42.6592
37.6462
35.2751
34.1482
34.2461
31.0516
8.95054
4.08515
3.45414
3.24476
3.3183
3.45202
3.56552
3.32349
3.20227
2.66963
2.41442
22.3333
103.41
252.316
299.336
336.294
341.234
349.285
378.295
430.224
464.606
428.347
329.038
228.496
155.861
109.841
81.4877
63.2831
50.8995
42.3231
36.9875
34.3346
32.9893
32.7377
30.3953
9.00721
3.99097
3.34819
3.13756
3.22165
3.34025
3.43221
3.16604
3.04983
2.5283
2.30258
21.4546
107.272
248.344
300.214
339.304
350.105
365.563
403.364
463.353
495.428
446.015
334.418
227.522
153.621
108.332
80.7381
63.0137
50.8371
42.1942
36.5554
33.5962
32.0104
31.396
29.4419
8.97771
3.89165
3.24131
3.02978
3.12473
3.22785
3.29864
3.00979
2.89954
2.38971
2.19271
20.8892
110.958
245.571
300.713
341.628
358.076
381.268
428.359
495.923
522.38
458.251
336.391
225.143
150.794
106.521
79.8812
62.7418
50.8276
42.182
36.2935
33.0192
31.1713
30.1806
28.2349
8.85114
3.7865
3.13357
2.92161
3.02764
3.11505
3.16518
2.85533
2.75189
2.25433
2.08513
20.7351
113.563
243.756
300.752
343.29
365.211
396.349
452.985
526.92
543.544
463.509
334.51
221.487
147.582
104.499
78.8782
62.3804
50.7835
42.2074
36.1468
32.5669
30.4375
29.0531
26.8158
8.62402
3.67525
3.02508
2.81323
2.93052
3.00209
3.03222
2.70319
2.60732
2.12256
1.98012
21.1259
114.938
242.655
300.261
344.306
371.547
410.75
476.963
555.336
557.301
460.704
328.276
216.48
144.041
102.295
77.7008
61.8713
50.6418
42.2064
36.0615
32.2046
29.7785
27.9784
25.2237
8.30125
3.55802
2.916
2.70488
2.8335
2.88922
2.90014
2.5539
2.46624
1.99477
1.87795
22.2957
115.932
242.028
299.184
344.685
377.1
424.417
500.094
580.209
562.295
449.257
317.326
209.917
140.122
99.8972
76.3252
61.1771
50.3601
42.132
35.9893
31.9002
29.1677
26.9253
23.4966
7.89562
3.43537
2.80655
2.5968
2.73674
2.77668
2.7693
2.40793
2.32901
1.87128
1.77882
24.5223
117.738
241.65
297.472
344.42
381.867
437.361
522.391
600.72
557.766
429.459
301.601
201.534
135.684
97.2523
74.7213
60.2703
49.9096
41.9507
35.8896
31.6236
28.5819
25.8667
21.6729
7.42576
3.30819
2.69696
2.48925
2.6404
2.66475
2.64009
2.26574
2.19596
1.75234
1.68292
28.1637
121.14
241.318
295.072
343.494
385.867
449.731
544.175
615.95
543.258
402.195
281.455
191.113
130.541
94.282
72.8544
59.1283
49.2698
41.6393
35.7308
31.3477
28.0015
24.7814
19.7921
6.91333
3.17759
2.58753
2.38252
2.54465
2.55367
2.51287
2.12773
2.06736
1.63817
1.59039
33.4954
126.268
240.853
291.922
341.891
389.194
461.973
566.136
624.55
518.731
368.948
257.67
178.587
124.485
90.8837
70.6822
57.729
48.4242
41.181
35.4894
31.0494
27.4101
23.6534
17.8944
6.37998
3.0448
2.47858
2.2769
2.44967
2.44372
2.38799
1.99427
1.94347
1.52895
1.50137
40.701
132.779
240.102
287.946
339.618
392.137
475.031
589.087
624.045
484.331
331.404
231.36
164.124
117.357
86.9504
68.1598
56.0516
47.359
40.5624
35.1488
30.7104
26.7948
22.4731
16.0188
5.84488
2.91101
2.37041
2.17269
2.35566
2.33518
2.26581
1.8657
1.82448
1.42482
1.41595
49.6321
140.11
238.929
283.06
336.753
395.369
490.609
613.043
610.544
440.79
291.443
203.819
148.161
109.098
82.3857
65.2425
54.0774
46.0628
39.7735
34.6964
30.3167
26.1457
21.2369
14.2013
5.32329
2.77731
2.26338
2.07019
2.26281
2.22831
2.14664
1.74231
1.71057
1.32588
1.33421
59.8743
147.7
237.212
277.174
333.525
400.234
511.262
634.818
579.298
389.584
250.884
176.338
131.356
99.811
77.1403
61.8983
51.7938
44.5288
38.8071
34.1239
29.8589
25.456
19.9468
12.4729
4.82604
2.64466
2.1578
1.9697
2.17134
2.1234
2.03083
1.62436
1.60188
1.2322
1.25621
70.5911
155.115
234.843
270.208
330.428
409.09
539.51
644.361
527.048
333.368
211.504
150.055
114.476
89.7745
71.2393
58.1184
49.2001
42.758
37.6614
33.426
29.3306
24.7205
18.6098
10.8579
4.3598
2.51382
2.05403
1.87153
2.08145
2.02073
1.91869
1.51207
1.49853
1.14381
1.18199
80.9187
162.101
231.719
262.104
328.402
425.408
573.539
624.214
454.938
275.667
174.798
125.849
98.2555
79.4032
64.807
53.9347
46.3144
40.7632
36.3417
32.6023
28.7288
23.9364
17.2369
9.37338
3.92786
2.38539
1.9524
1.77597
1.99337
1.92059
1.8105
1.40562
1.4006
1.06072
1.11158
89.3733
168.587
227.735
252.848
329.029
452.029
596.645
559.861
369.968
220.378
141.944
104.3
83.2785
69.1598
58.0579
49.4283
43.1804
38.5739
34.8648
31.6584
28.0532
23.1017
15.8421
8.02979
3.53095
2.2598
1.85324
1.68332
1.90733
1.82326
1.70654
1.30514
1.30812
0.982907
1.04497
95.1437
174.705
222.761
242.488
334.439
482.187
572.568
456.056
283.252
170.804
113.605
85.672
69.9096
59.4624
51.2649
44.7291
39.8715
36.239
33.2604
30.6084
27.3073
22.2161
14.4421
6.83136
3.16817
2.1374
1.75689
1.59386
1.82354
1.72902
1.60706
1.2107
1.2211
0.910301
0.982166
0.00337761
0.00252153
0.00231372
0.00215732
0.00209406
0.00209576
0.00214923
0.0141864
0.382115
0.900383
1.42402
2.04018
2.71873
3.46166
4.15991
4.84146
5.64901
7.46794
13.5877
29.4252
196.713
159.547
0.00334411
0.00224622
0.00185494
0.00160283
0.00146665
0.00142186
0.0014671
0.0147869
0.391378
0.921591
1.4548
2.0721
2.74542
3.48129
4.17145
4.84177
5.63578
7.45162
13.6013
29.4452
197.007
169.167
0.00354024
0.00237429
0.00188187
0.00154271
0.00131553
0.00117957
0.0011553
0.0151464
0.39762
0.937152
1.47911
2.0968
2.76466
3.4936
4.17693
4.83893
5.62417
7.43858
13.6173
29.4796
196.555
178.333
0.00367053
0.00251455
0.00199719
0.00162615
0.0013545
0.00116136
0.00103135
0.0153435
0.401175
0.947258
1.49674
2.11405
2.77638
3.4988
4.17676
4.83358
5.61496
7.42972
13.6356
29.5281
195.424
186.873
0.00392239
0.00276017
0.00221842
0.00181986
0.00151435
0.00127992
0.00100278
0.0154162
0.402263
0.952059
1.50751
2.12372
2.78059
3.49705
4.1713
4.82625
5.60876
7.42591
13.6557
29.5908
193.662
195.259
0.00405996
0.00292614
0.00238893
0.00198781
0.00167426
0.00142551
0.000993384
0.0153849
0.401047
0.951707
1.51133
2.12572
2.77729
3.48857
4.16084
4.81733
5.60602
7.42792
13.6774
29.668
191.302
203.671
0.00434033
0.0032037
0.00265016
0.00223106
0.0018974
0.00162727
0.00106448
0.0152601
0.397666
0.946381
1.50823
2.12007
2.76656
3.47348
4.1456
4.80707
5.60703
7.43644
13.7003
29.7602
188.386
212.118
0.00447835
0.00337546
0.00283355
0.00241884
0.00208577
0.00181266
0.00119159
0.0150456
0.392256
0.936308
1.49837
2.10685
2.74848
3.45193
4.12567
4.79556
5.61185
7.45206
13.724
29.8679
184.96
220.546
0.00478392
0.00367999
0.00312463
0.00269457
0.00234388
0.00205252
0.00131753
0.0147419
0.384959
0.921772
1.48202
2.08628
2.72323
3.42402
4.1011
4.7827
5.62039
7.47523
13.7482
29.9913
181.077
228.893
0.00490849
0.00384501
0.00330891
0.00288979
0.00254611
0.00225793
0.00140694
0.0143487
0.375927
0.903111
1.45956
2.05864
2.69099
3.38984
4.0718
4.76825
5.63231
7.50624
13.7726
30.1305
176.793
237.088
0.0052293
0.00416645
0.00361987
0.00318826
0.00282931
0.002525
0.00152123
0.0138662
0.365321
0.880712
1.43148
2.02431
2.65201
3.34947
4.03765
4.75176
5.64705
7.54516
13.797
30.285
172.169
245.032
0.00533911
0.00432094
0.00379936
0.00338406
0.00303767
0.00274206
0.00163925
0.0132938
0.353302
0.854998
1.39833
1.98377
2.60659
3.303
3.99842
4.73264
5.6638
7.59186
13.8213
30.4535
167.264
252.607
0.00567203
0.00465607
0.00412667
0.00370137
0.00334166
0.00303156
0.00184398
0.0126305
0.340023
0.826406
1.3607
1.93755
2.55508
3.25048
3.95386
4.71017
5.68147
7.64587
13.8455
30.6339
162.14
259.68
0.0057561
0.00478939
0.00429114
0.00388791
0.00354678
0.00325143
0.00211989
0.0118733
0.325622
0.795374
1.31921
1.88624
2.49787
3.19205
3.90369
4.68349
5.69871
7.70639
13.8695
30.8231
156.856
266.117
0.00609204
0.0051286
0.00462475
0.00421384
0.00386143
0.00355349
0.00252492
0.0110196
0.310208
0.762314
1.27449
1.8305
2.43543
3.12783
3.84763
4.65166
5.71388
7.77215
13.893
31.0173
151.471
271.786
0.00615204
0.00523975
0.00477087
0.0043861
0.00405683
0.00376853
0.0029882
0.0100652
0.29385
0.727599
1.22711
1.77097
2.36822
3.05802
3.78543
4.61373
5.7251
7.84144
13.9156
31.2111
146.035
276.573
0.00648672
0.00557859
0.00510586
0.00471521
0.00437626
0.00407673
0.00350154
0.00901187
0.276569
0.691538
1.17763
1.70835
2.29681
2.98284
3.71689
4.56873
5.73029
7.91194
13.9368
31.3985
140.597
280.382
0.00651825
0.00566263
0.00522813
0.00486718
0.00455539
0.0042799
0.00389441
0.00786541
0.258332
0.654361
1.12652
1.6433
2.22175
2.90261
3.64191
4.51577
5.72727
7.98079
13.9555
31.5722
135.198
283.141
0.00683899
0.00598838
0.00555168
0.00518651
0.00486697
0.00458213
0.00427315
0.00666935
0.239043
0.616201
1.07417
1.57645
2.14368
2.81768
3.56045
4.45406
5.71377
8.04453
13.97
31.7239
129.873
284.802
0.00685341
0.00605324
0.0056548
0.00532042
0.00502942
0.00477053
0.004525
0.00551096
0.218553
0.577076
1.02086
1.50837
2.06319
2.7285
3.47261
4.38299
5.68766
8.09914
13.9782
31.8444
124.651
285.334
0.00716011
0.00636575
0.00596644
0.00562897
0.0053316
0.00506452
0.00482284
0.00458819
0.196676
0.536879
0.966768
1.43958
1.98095
2.63556
3.37861
4.30214
5.64694
8.14017
13.9772
31.9237
119.554
284.72
0.00715657
0.00641033
0.00604892
0.00574293
0.00547501
0.00523531
0.00502011
0.00416045
0.173235
0.495373
0.911889
1.37047
1.89755
2.53945
3.2788
4.21133
5.58997
8.16292
13.9632
31.9512
114.598
282.958
0.00744659
0.00670646
0.00634498
0.00603651
0.00576325
0.0055163
0.0052921
0.00429715
0.148146
0.452206
0.85606
1.30128
1.81358
2.44077
3.17364
4.11063
5.51549
8.16261
13.9317
31.9154
109.797
280.048
0.00743051
0.00673512
0.00640993
0.00613252
0.00588843
0.0056691
0.00546812
0.00473193
0.121583
0.406946
0.798915
1.23209
1.72954
2.34019
3.06373
4.00037
5.42277
8.13471
13.8775
31.8047
105.154
275.995
0.00770422
0.007015
0.00669021
0.00641067
0.00616192
0.00593593
0.00572701
0.00526123
0.0942221
0.359177
0.739877
1.16273
1.64583
2.23837
2.94975
3.88112
5.31159
8.0752
13.7948
31.6072
100.673
270.807
0.00767669
0.00702876
0.00673839
0.00648908
0.00626884
0.00607025
0.00588595
0.00561901
0.0675261
0.308666
0.678171
1.09277
1.56263
2.13597
2.83249
3.7537
5.18236
7.98091
13.6775
31.3109
96.3501
264.496
0.00793336
0.00729141
0.00700159
0.00675018
0.0065257
0.00632087
0.00612998
0.00592325
0.043751
0.255661
0.612881
1.02142
1.47992
2.03356
2.71278
3.6191
5.03599
7.84971
13.5194
30.9049
92.1775
257.083
0.00789949
0.00729494
0.00703701
0.00681435
0.00661699
0.00643855
0.00627219
0.00610765
0.0253373
0.201293
0.543087
0.947532
1.3973
1.93159
2.59149
3.47853
4.87396
7.68078
13.3148
30.3787
88.1419
248.597
0.00814126
0.00754232
0.0072849
0.00706
0.00685861
0.00667409
0.00650147
0.00633561
0.013736
0.147953
0.468146
0.869606
1.31392
1.83025
2.46941
3.33324
4.6982
7.4747
13.059
29.7241
84.2255
239.085
0.00810333
0.00753811
0.00731005
0.00711224
0.00693642
0.00677706
0.00662818
0.00648536
0.00833053
0.0993741
0.388189
0.785862
1.22843
1.72936
2.34724
3.1846
4.51102
7.23347
12.7482
28.935
80.4033
228.612
0.00833033
0.00777032
0.00754266
0.00734243
0.00716272
0.00699748
0.00684246
0.0066945
0.00678832
0.0597758
0.304859
0.694487
1.13888
1.62819
2.2254
3.03388
4.31499
6.96047
12.3807
28.0089
76.6457
217.267
0.00829263
0.00776264
0.00756158
0.00738648
0.00723043
0.00708869
0.00695605
0.00682908
0.00664964
0.0320562
0.222095
0.594177
1.04275
1.52533
2.10388
2.88223
4.11283
6.66034
11.9566
26.9473
72.9164
205.164
0.00850611
0.00798096
0.0077802
0.00760253
0.00744275
0.00729534
0.00715665
0.00702428
0.00685422
0.0163281
0.146332
0.485155
0.93711
1.41859
1.98206
2.73047
3.90723
6.33873
11.4785
25.7565
69.1764
192.439
0.008471
0.00797241
0.00779558
0.00764104
0.00750297
0.00737727
0.00725946
0.0071466
0.00702089
0.0095037
0.0850638
0.370686
0.819068
1.30495
1.8585
2.57889
3.70065
6.00205
10.9514
24.4482
65.3852
179.251
0.00867176
0.00817768
0.00800106
0.00784385
0.00770222
0.00757112
0.00744743
0.00732917
0.00720973
0.00740071
0.0433886
0.258446
0.686946
1.18061
1.73075
2.42704
3.49502
5.65701
10.383
23.0395
61.5077
165.773
0.00864158
0.00817083
0.00801554
0.00787939
0.00775747
0.00764622
0.00754175
0.0074415
0.00734131
0.00705492
0.0207281
0.159951
0.542351
1.04151
1.59533
2.27352
3.29147
5.31017
9.78305
21.553
57.5183
152.186
0.00883172
0.00836509
0.0082099
0.00807097
0.0079456
0.00782916
0.00771897
0.00761333
0.00751011
0.00723633
0.011298
0.0862867
0.393077
0.88444
1.44776
2.11581
3.09005
4.96731
9.1633
20.0158
53.4092
138.669
0.00880916
0.00836292
0.00822661
0.00810673
0.00799909
0.00790059
0.00780787
0.00771866
0.00763046
0.00745987
0.00832596
0.0414516
0.254146
0.709656
1.28292
1.95026
2.88951
4.63274
8.53628
18.4582
49.1942
125.39
0.00898974
0.00854734
0.00841108
0.00828845
0.00817757
0.00807422
0.00797606