/*--------------------------------*- C++ -*----------------------------------*\
| =========                 |                                                 |
| \\      /  F ield         | OpenFOAM: The Open Source CFD Toolbox           |
|  \\    /   O peration     | Version:  v1912                                 |
|   \\  /    A nd           | Website:  www.openfoam.com                      |
|    \\/     M anipulation  |                                                 |
\*---------------------------------------------------------------------------*/
FoamFile
{
    version     2.0;
    format      ascii;
    class       volScalarField;
    location    "110";
    object      p;
}
// * * * * * * * * * * * * * * * * * * * * * * * * * * * * * * * * * * * * * //

dimensions      [0 2 -2 0 0 0 0];


internalField   nonuniform List<scalar> 
12441
(
8.22146
8.54634
9.27477
10.0589
12.3351
14.7889
17.228
19.9834
24.2973
29.8911
36.0467
43.4416
53.085
65.3662
80.6323
99.4233
125.963
158.396
211.364
272.393
366.195
436.979
8.22145
8.54632
9.27476
10.0589
12.335
14.7889
17.2279
19.9833
24.2972
29.8908
36.0462
43.441
53.0841
65.3646
80.6294
99.4171
125.948
158.373
211.276
272.313
366.137
436.759
8.22144
8.5463
9.27472
10.0589
12.3349
14.7888
17.2277
19.9832
24.297
29.8904
36.0453
43.4397
53.0824
65.3614
80.6237
99.4048
125.926
158.32
211.096
272.124
365.984
436.359
8.22141
8.54625
9.27466
10.0591
12.3347
14.7887
17.2274
19.983
24.2968
29.8896
36.0439
43.4379
53.0797
65.3566
80.6152
99.3863
125.896
158.238
210.911
271.834
365.712
435.742
8.22138
8.54618
9.27457
10.0592
12.3344
14.7885
17.227
19.9829
24.2964
29.8886
36.042
43.4354
53.0762
65.3503
80.6038
99.3619
125.858
158.138
210.741
271.469
365.332
434.904
8.22135
8.5461
9.27447
10.0595
12.334
14.7882
17.2266
19.9827
24.296
29.8873
36.0396
43.4323
53.0719
65.3424
80.5897
99.3318
125.811
158.02
210.549
271.029
364.85
433.847
8.2213
8.546
9.27434
10.0598
12.3336
14.7878
17.226
19.9824
24.2954
29.8858
36.0368
43.4286
53.0667
65.3328
80.5726
99.2959
125.756
157.882
210.325
270.516
364.27
432.571
8.22125
8.54588
9.27419
10.0601
12.3331
14.7874
17.2254
19.9822
24.2948
29.884
36.0335
43.4243
53.0606
65.3217
80.5529
99.2548
125.695
157.725
210.079
269.943
363.599
431.072
8.22119
8.54575
9.27402
10.0605
12.3325
14.7869
17.2246
19.9819
24.2941
29.8819
36.0297
43.4193
53.0536
65.309
80.5307
99.2099
125.632
157.555
209.832
269.324
362.84
429.347
8.22112
8.54559
9.27383
10.0609
12.3319
14.7864
17.2238
19.9815
24.2932
29.8795
36.0255
43.4138
53.0458
65.2948
80.5071
99.1642
125.57
157.377
209.602
268.671
361.997
427.392
8.22104
8.54542
9.27362
10.0614
12.3312
14.7857
17.2229
19.9812
24.2923
29.8769
36.0208
43.4077
53.0371
65.2793
80.4831
99.1207
125.517
157.205
209.411
267.994
361.068
425.199
8.22096
8.54522
9.27339
10.0619
12.3304
14.785
17.2219
19.9808
24.2913
29.874
36.0156
43.401
53.0277
65.2632
80.4607
99.0845
125.487
157.057
209.277
267.296
360.048
422.761
8.22087
8.54501
9.27314
10.0625
12.3296
14.7843
17.2208
19.9804
24.2902
29.8708
36.01
43.3937
53.0176
65.2479
80.4451
99.0662
125.502
156.961
209.203
266.568
358.929
420.068
8.22077
8.54478
9.27287
10.0631
12.3286
14.7834
17.2196
19.98
24.289
29.8673
36.004
43.3859
53.0076
65.2359
80.444
99.0779
125.58
156.936
209.165
265.791
357.701
417.11
8.22066
8.54453
9.27258
10.0638
12.3277
14.7825
17.2184
19.9795
24.2876
29.8635
35.9974
43.3775
52.9985
65.2319
80.4646
99.1276
125.727
156.981
209.115
264.938
356.355
413.874
8.22055
8.54427
9.27228
10.0645
12.3266
14.7815
17.2171
19.979
24.2862
29.8595
35.9905
43.3688
52.9922
65.2405
80.5111
99.2162
125.931
157.063
208.997
263.983
354.882
410.348
8.22042
8.54398
9.27196
10.0653
12.3255
14.7805
17.2157
19.9785
24.2847
29.8551
35.983
43.3603
52.9915
65.2652
80.5829
99.3359
126.157
157.127
208.767
262.91
353.275
406.519
8.22029
8.54367
9.27162
10.0661
12.3244
14.7793
17.2142
19.9779
24.2831
29.8505
35.9751
43.3527
52.9998
65.3056
80.6736
99.4702
126.353
157.112
208.406
261.708
351.527
402.374
8.22015
8.54335
9.27127
10.0669
12.3231
14.7781
17.2126
19.9773
24.2814
29.8456
35.9666
43.3475
53.0188
65.3588
80.7732
99.5957
126.468
156.98
207.919
260.376
349.637
397.9
8.22001
8.54301
9.2709
10.0678
12.3218
14.7768
17.211
19.9766
24.2795
29.8404
35.9577
43.3466
53.0487
65.4181
80.8676
99.6875
126.466
156.727
207.326
258.919
347.602
393.081
8.21985
8.54265
9.27052
10.0687
12.3205
14.7755
17.2093
19.9759
24.2776
29.8349
35.9486
43.3521
53.0863
65.4775
80.9434
99.7246
126.337
156.377
206.651
257.344
345.422
387.905
8.21969
8.54227
9.27012
10.0697
12.3191
14.7741
17.2075
19.9752
24.2756
29.829
35.9398
43.3651
53.1279
65.5292
80.9882
99.6964
126.097
155.965
205.917
255.66
343.099
382.354
8.21951
8.54188
9.26971
10.0707
12.3177
14.7725
17.2057
19.9744
24.2735
29.8229
35.932
43.3847
53.1683
65.5682
80.9954
99.6042
125.784
155.524
205.138
253.876
340.634
376.414
8.21933
8.54147
9.26928
10.0717
12.3162
14.771
17.2037
19.9735
24.2712
29.8164
35.9262
43.4086
53.2049
65.5891
80.9634
99.4599
125.438
155.073
204.322
252.001
338.03
370.066
8.21914
8.54104
9.26884
10.0728
12.3146
14.7693
17.2017
19.9726
24.2689
29.8095
35.9236
43.4341
53.2335
65.591
80.8974
99.2806
125.09
154.617
203.473
250.045
335.291
363.293
8.21895
8.54059
9.26839
10.0738
12.313
14.7676
17.1997
19.9717
24.2664
29.8023
35.9247
43.4587
53.2539
65.5725
80.805
99.084
124.756
154.156
202.592
248.017
332.421
356.075
8.21874
8.54013
9.26793
10.0749
12.3113
14.7658
17.1976
19.9707
24.2638
29.7948
35.9293
43.4803
53.2636
65.5373
80.6963
98.8832
124.44
153.686
201.678
245.928
329.421
348.391
8.21853
8.53965
9.26745
10.0761
12.3096
14.7639
17.1954
19.9696
24.2612
29.7872
35.9365
43.4975
53.2641
65.4872
80.5786
98.6864
124.139
153.203
200.732
243.785
326.295
340.217
8.2183
8.53915
9.26696
10.0772
12.3078
14.762
17.1931
19.9684
24.2583
29.7796
35.9449
43.5094
53.2544
65.4276
80.4586
98.4966
123.848
152.707
199.753
241.594
323.042
331.529
8.21807
8.53864
9.26647
10.0784
12.306
14.7599
17.1908
19.9672
24.2554
29.7721
35.9531
43.5158
53.2371
65.3604
80.3392
98.314
123.562
152.195
198.74
239.36
319.661
322.299
8.21783
8.53811
9.26596
10.0796
12.3041
14.7579
17.1884
19.9659
24.2523
29.7648
35.9599
43.5166
53.2119
65.2899
80.2227
98.137
123.276
151.668
197.693
237.086
316.148
312.498
8.21758
8.53756
9.26544
10.0808
12.3022
14.7557
17.1859
19.9645
24.2491
29.7577
35.9646
43.512
53.1819
65.2166
80.1087
97.9637
122.987
151.126
196.612
234.771
312.496
302.094
8.21732
8.537
9.26491
10.0821
12.3003
14.7535
17.1834
19.9631
24.2457
29.751
35.9666
43.5025
53.1466
65.1433
79.9975
97.7921
122.695
150.571
195.497
232.416
308.696
291.053
8.21705
8.53642
9.26438
10.0833
12.2983
14.7512
17.1808
19.9615
24.2422
29.7445
35.9657
43.4886
53.1088
65.0692
79.8876
97.6211
122.397
150.002
194.347
230.02
304.739
279.34
8.21678
8.53583
9.26383
10.0846
12.2962
14.7488
17.1781
19.9599
24.2385
29.7383
35.9619
43.471
53.0679
64.9959
79.779
97.4492
122.095
149.421
193.164
227.583
300.612
266.916
8.21649
8.53523
9.26328
10.0859
12.2941
14.7463
17.1754
19.9582
24.2347
29.7325
35.9554
43.4502
53.0259
64.9222
79.6704
97.276
121.787
148.828
191.946
225.104
296.304
253.741
8.21619
8.5346
9.26272
10.0873
12.292
14.7438
17.1727
19.9564
24.2307
29.7272
35.9466
43.4269
52.982
64.8493
79.5618
97.1005
121.473
148.223
190.694
222.587
291.805
239.774
8.21589
8.53397
9.26215
10.0886
12.2898
14.7412
17.1698
19.9545
24.2266
29.723
35.9359
43.4016
52.9378
64.7758
79.4521
96.9227
121.155
147.608
189.41
220.035
287.105
224.968
8.21558
8.53331
9.26157
10.0899
12.2876
14.7386
17.1669
19.9525
24.2231
29.7202
35.9238
43.3747
52.8921
64.7029
79.3416
96.7421
120.831
146.981
188.093
217.453
282.197
209.276
8.21525
8.53265
9.26099
10.0913
12.2853
14.7359
17.164
19.9504
24.2207
29.7189
35.9106
43.3467
52.8465
64.6292
79.2293
96.5587
120.503
146.345
186.746
214.845
277.078
192.649
8.21492
8.53196
9.26039
10.0926
12.283
14.7331
17.1609
19.9482
24.2209
29.7189
35.8966
43.3178
52.7996
64.5559
79.1157
96.3723
120.171
145.698
185.372
212.214
271.747
175.034
8.21458
8.53126
9.2598
10.094
12.2807
14.7302
17.1579
19.9459
24.2248
29.7198
35.8817
43.2882
52.7527
64.4815
78.9999
96.1831
119.834
145.042
183.973
209.562
266.206
156.387
8.21423
8.53055
9.25919
10.0955
12.2783
14.7272
17.1547
19.9438
24.2336
29.721
35.8658
43.2583
52.7043
64.4076
78.8828
95.9915
119.495
144.376
182.553
206.889
260.431
136.619
8.21387
8.52983
9.25855
10.0968
12.276
14.7241
17.1515
19.9431
24.2462
29.722
35.8495
43.2288
52.6563
64.3332
78.764
95.7981
119.152
143.696
181.115
204.184
254.343
115.025
-20.0269
-43.5774
-74.468
-54.4358
-28.877
-18.8058
-15.5867
-16.1641
-10.9478
2.02297
18.5736
30.1689
36.5291
35.777
32.4282
27.8723
24.5302
22.569
19.9353
15.6946
11.8681
8.06377
4.03304
-1.46106
2.93172
7.62729
9.42702
7.87242
5.73937
4.53901
3.37941
2.74966
1.97629
1.07452
0.689792
-20.0596
-43.6447
-74.6059
-54.455
-28.8589
-18.7906
-15.5806
-16.1581
-10.9422
2.02738
18.5858
30.1812
36.5404
35.788
32.4411
27.8798
24.5283
22.5641
19.9305
15.6955
11.8696
8.06537
4.03777
-1.46082
2.91978
7.61114
9.42303
7.87245
5.73957
4.53907
3.37938
2.74963
1.97629
1.07453
0.689778
-20.1125
-43.7728
-74.8423
-54.4959
-28.8362
-18.7678
-15.5705
-16.1533
-10.9392
2.03233
18.6055
30.2014
36.5567
35.8025
32.4571
27.8933
24.5438
22.5913
19.9443
15.7032
11.8735
8.0684
4.04308
-1.46394
2.90472
7.59504
9.41929
7.87261
5.73982
4.53917
3.37937
2.7496
1.97629
1.07454
0.689766
-20.2058
-43.9881
-75.1482
-54.5593
-28.8133
-18.7409
-15.5587
-16.1508
-10.9391
2.03772
18.6294
30.2274
36.5783
35.8208
32.4755
27.9111
24.569
22.6467
19.977
15.7185
11.8807
8.07312
4.04932
-1.46827
2.89046
7.5812
9.41596
7.87292
5.74013
4.53931
3.37938
2.7496
1.9763
1.07457
0.689763
-20.3399
-44.2921
-75.5007
-54.6467
-28.7922
-18.7107
-15.5452
-16.1506
-10.9422
2.04265
18.6528
30.2527
36.601
35.84
32.4925
27.9279
24.5903
22.7053
20.0173
15.7378
11.8906
8.07974
4.05686
-1.47247
2.87678
7.56997
9.41321
7.87338
5.74048
4.53949
3.37942
2.74962
1.97632
1.07461
0.689766
-20.512
-44.6803
-75.8836
-54.7553
-28.7735
-18.6787
-15.5308
-16.1533
-10.9488
2.04506
18.6705
30.2717
36.6199
35.8574
32.5075
27.9436
24.6062
22.7517
20.0555
15.758
11.9024
8.08823
4.06596
-1.47529
2.86377
7.56106
9.411
7.87398
5.74086
4.5397
3.37947
2.74965
1.97636
1.07465
0.689774
-20.719
-45.1441
-76.2855
-54.8801
-28.7585
-18.6465
-15.5163
-16.1588
-10.9592
2.04273
18.6798
30.2803
36.6306
35.8701
32.5195
27.9581
24.6207
22.7833
20.087
15.7773
11.9154
8.09848
4.07692
-1.47578
2.85176
7.55407
9.40925
7.87468
5.74125
4.53992
3.37953
2.74969
1.97639
1.0747
0.689784
-20.9578
-45.6711
-76.6987
-55.0161
-28.7489
-18.6163
-15.5027
-16.1667
-10.9727
2.03471
18.6793
30.2776
36.6307
35.8749
32.5258
27.9689
24.6346
22.8033
20.1104
15.7948
11.9293
8.11026
4.08994
-1.47311
2.84115
7.54865
9.40787
7.87547
5.74163
4.54014
3.37959
2.74973
1.97642
1.07475
0.689796
-21.2246
-46.2461
-77.1178
-55.1587
-28.7457
-18.5899
-15.4908
-16.1762
-10.9887
2.02104
18.6699
30.2651
36.6203
35.8703
32.5246
27.9732
24.6446
22.8147
20.1261
15.8103
11.9434
8.12325
4.10521
-1.46659
2.83219
7.54441
9.40676
7.87631
5.74199
4.54034
3.37964
2.74976
1.97645
1.07479
0.689808
-21.5152
-46.8526
-77.5382
-55.3047
-28.7493
-18.5688
-15.4815
-16.1866
-11.0061
2.00308
18.6536
30.2456
36.6013
35.8571
32.5158
27.9706
24.6478
22.8177
20.1342
15.8233
11.9571
8.13699
4.12268
-1.45551
2.82511
7.54103
9.40582
7.87717
5.74231
4.54051
3.37966
2.74978
1.97647
1.07483
0.689819
-21.8245
-47.4742
-77.9547
-55.4518
-28.7595
-18.5541
-15.4752
-16.1971
-11.024
1.98204
18.6323
30.2212
36.5759
35.8374
32.5011
27.9625
24.6439
22.8121
20.1347
15.833
11.9699
8.15091
4.14219
-1.43929
2.82015
7.53818
9.40498
7.87804
5.74257
4.54063
3.37965
2.74978
1.97648
1.07485
0.689826
-22.1469
-48.0954
-78.3611
-55.5984
-28.7756
-18.5468
-15.4722
-16.2073
-11.0417
1.95938
18.6075
30.1933
36.5452
35.8127
32.4821
27.9509
24.6347
22.7989
20.1274
15.8385
11.9809
8.16432
4.16324
-1.41741
2.81761
7.53566
9.40415
7.87888
5.74276
4.5407
3.37961
2.74975
1.97647
1.07486
0.689829
-22.4766
-48.7014
-78.7502
-55.7429
-28.7972
-18.5471
-15.4726
-16.2172
-11.0592
1.93586
18.5798
30.1623
36.5097
35.7837
32.4597
27.937
24.6225
22.7801
20.1135
15.8392
11.9893
8.17652
4.18519
-1.38968
2.81789
7.53326
9.4033
7.87968
5.74286
4.54069
3.37951
2.74969
1.97643
1.07485
0.689826
-22.8077
-49.2787
-79.1146
-55.8839
-28.8246
-18.5549
-15.4763
-16.2271
-11.0762
1.91234
18.5498
30.1278
36.4691
35.7503
32.4343
27.9214
24.6083
22.7577
20.0945
15.8353
11.9946
8.18687
4.20718
-1.35626
2.82146
7.53093
9.40236
7.88044
5.74288
4.5406
3.37936
2.74959
1.97637
1.07481
0.689817
-23.1338
-49.8154
-79.4472
-56.0196
-28.8586
-18.5695
-15.4837
-16.2375
-11.0927
1.88877
18.5173
30.0898
36.423
35.7123
32.4056
27.904
24.5927
22.733
20.072
15.8277
11.9969
8.195
4.22841
-1.31791
2.82884
7.52861
9.40133
7.88114
5.7428
4.54043
3.37916
2.74945
1.97628
1.07475
0.6898
-23.4489
-50.3017
-79.7417
-56.1485
-28.8995
-18.5907
-15.4951
-16.2485
-11.1085
1.86544
18.4823
30.0475
36.3712
35.6693
32.3736
27.8846
24.5755
22.7066
20.0473
15.8175
11.9966
8.20085
4.24821
-1.27589
2.84055
7.52641
9.4002
7.88178
5.74262
4.54016
3.37888
2.74926
1.97616
1.07466
0.689775
-23.7471
-50.7304
-79.9927
-56.2695
-28.9461
-18.6196
-15.5105
-16.2606
-11.1241
1.84186
18.4443
30.0007
36.3132
35.6211
32.3381
27.8631
24.5569
22.6789
20.0211
15.8057
11.9945
8.2047
4.26634
-1.23194
2.85697
7.52441
9.39898
7.88235
5.74235
4.53979
3.37854
2.74901
1.97601
1.07454
0.689742
-24.0228
-51.0964
-80.1958
-56.3812
-28.9973
-18.6584
-15.53
-16.2742
-11.1398
1.81805
18.4033
29.9487
36.2486
35.5675
32.299
27.8395
24.5367
22.6499
19.9939
15.7928
11.991
8.20695
4.28293
-1.1878
2.8783
7.5228
9.39769
7.88287
5.74196
4.53932
3.37813
2.74872
1.97582
1.07438
0.689701
-24.2706
-51.3959
-80.3462
-56.4791
-29.0549
-18.7076
-15.5538
-16.2905
-11.1566
1.79298
18.3581
29.8907
36.177
35.5083
32.2563
27.8138
24.515
22.6197
19.9659
15.7794
11.9869
8.20803
4.29839
-1.14497
2.90437
7.52175
9.39638
7.88332
5.74147
4.53875
3.37764
2.74836
1.9756
1.07419
0.689652
-24.4861
-51.6261
-80.4403
-56.5574
-29.1223
-18.7669
-15.5824
-16.3102
-11.1753
1.76617
18.3083
29.826
36.0977
35.4431
32.2099
27.7861
24.4918
22.5885
19.9373
15.7657
11.9822
8.20824
4.31311
-1.10424
2.93468
7.52153
9.39506
7.88372
5.74088
4.53807
3.37708
2.74795
1.97534
1.07397
0.689595
-24.6648
-51.7825
-80.4785
-56.6081
-29.1993
-18.8355
-15.6164
-16.3352
-11.1979
1.73582
18.2521
29.7534
36.0103
35.3718
32.1598
27.7563
24.4673
22.5562
19.908
15.7517
11.9774
8.20785
4.32739
-1.06573
2.96833
7.52234
9.39379
7.88407
5.74018
4.53729
3.37644
2.74747
1.97504
1.0737
0.68953
-24.8044
-51.8594
-80.4672
-56.6221
-29.284
-18.9122
-15.6563
-16.3671
-11.226
1.70094
18.1885
29.6716
35.9137
35.294
32.1059
27.7244
24.4414
22.523
19.8783
15.7376
11.9723
8.20705
4.34125
-1.029
3.00417
7.52446
9.39262
7.88437
5.73938
4.53641
3.37573
2.74694
1.97471
1.0734
0.689459
-24.9064
-51.854
-80.4094
-56.5947
-29.3736
-18.9958
-15.703
-16.4085
-11.2625
1.65912
18.1153
29.5791
35.8067
35.209
32.048
27.6904
24.4141
22.4888
19.848
15.7234
11.9673
8.20605
4.35467
-0.993362
3.04086
7.52806
9.39161
7.88462
5.73847
4.53541
3.37494
2.74633
1.97434
1.07306
0.689382
-24.9766
-51.7698
-80.3035
-56.5287
-29.4655
-19.0845
-15.7571
-16.4616
-11.3093
1.60938
18.0318
29.4741
35.6878
35.1157
31.9857
27.6541
24.3854
22.4537
19.8171
15.7091
11.9623
8.20497
4.36749
-0.958096
3.07709
7.53338
9.3908
7.88483
5.73745
4.53432
3.37407
2.74567
1.97393
1.07268
0.6893
-25.0188
-51.6132
-80.1516
-56.4304
-29.5569
-19.1767
-15.8198
-16.5299
-11.37
1.54949
17.9365
29.3559
35.5556
35.0128
31.918
27.615
24.3551
22.4177
19.7857
15.6946
11.9572
8.20393
4.37971
-0.922672
3.11161
7.54052
9.39026
7.88501
5.73632
4.53312
3.37313
2.74494
1.97348
1.07225
0.689213
-25.0347
-51.3927
-79.9574
-56.3069
-29.645
-19.2706
-15.8916
-16.6154
-11.4459
1.47965
17.8307
29.2244
35.4097
34.8988
31.844
27.5727
24.3232
22.3808
19.7537
15.6798
11.9521
8.20297
4.39128
-0.886709
3.14346
7.54964
9.39003
7.88513
5.73507
4.53181
3.37211
2.74414
1.973
1.07179
0.689124
-25.0248
-51.1186
-79.7183
-56.1623
-29.7263
-19.364
-15.9739
-16.721
-11.5392
1.39908
17.7152
29.0813
35.2511
34.7733
31.7625
27.5265
24.2894
22.343
19.7212
15.6648
11.947
8.20213
4.40232
-0.850067
3.17187
7.56071
9.39018
7.88523
5.73371
4.5304
3.37101
2.74327
1.97248
1.07128
0.689032
-24.9907
-50.802
-79.4245
-55.9983
-29.798
-19.4544
-16.0656
-16.8463
-11.6483
1.31051
17.5938
28.9299
35.0825
34.6371
31.6726
27.4757
24.2536
22.3044
19.6881
15.6494
11.9418
8.20138
4.4129
-0.8127
3.1964
7.57377
9.39077
7.88527
5.73223
4.52888
3.36984
2.74234
1.97192
1.07072
0.688939
-24.9338
-50.4534
-79.0608
-55.813
-29.8567
-19.5382
-16.1654
-16.9905
-11.7715
1.21542
17.4693
28.7748
34.9084
34.4935
31.5748
27.42
24.2157
22.2652
19.6545
15.6336
11.9365
8.20075
4.42322
-0.774719
3.2168
7.58867
9.39188
7.88528
5.73062
4.52725
3.36859
2.74134
1.97133
1.07012
0.688847
-24.857
-50.084
-78.6137
-55.6047
-29.9017
-19.612
-16.2685
-17.1475
-11.902
1.11907
17.3466
28.621
34.7339
34.3464
31.4706
27.3592
24.1758
22.2255
19.6205
15.6175
11.9311
8.20018
4.43332
-0.736243
3.23302
7.60537
9.39354
7.88524
5.72888
4.52552
3.36727
2.74027
1.9707
1.06948
0.688756
-24.7631
-49.7079
-78.0755
-55.3724
-29.9327
-19.6719
-16.3699
-17.3106
-12.0337
1.02394
17.228
28.4731
34.5642
34.2013
31.3633
27.2943
24.1341
22.1858
19.5863
15.6009
11.9254
8.19971
4.44341
-0.697506
3.2451
7.62363
9.39585
7.88516
5.727
4.52369
3.36588
2.73913
1.97003
1.06878
0.688668
-24.6563
-49.3435
-77.4522
-55.1207
-29.9536
-19.7144
-16.4614
-17.4685
-12.1567
0.935549
17.1169
28.3342
34.4027
34.0619
31.2559
27.2266
24.0911
22.1462
19.5521
15.584
11.9195
8.19925
4.45348
-0.658719
3.25316
7.64336
9.39887
7.88503
5.72497
4.52175
3.36441
2.73792
1.96933
1.06804
0.688584
-24.5426
-49.0109
-76.7642
-54.8598
-29.9691
-19.7367
-16.5368
-17.6115
-12.2646
0.85512
17.0127
28.2055
34.2515
33.9314
31.1518
27.1579
24.0476
22.1072
19.5183
15.5669
11.9134
8.19886
4.46367
-0.620205
3.25731
7.66436
9.40271
7.88487
5.7228
4.5197
3.36287
2.73665
1.96859
1.06725
0.688505
-24.4311
-48.7292
-76.0441
-54.6097
-29.9879
-19.737
-16.5894
-17.7278
-12.3491
0.786502
16.9165
28.086
34.1101
33.8102
31.0528
27.0897
24.0042
22.0692
19.485
15.5496
11.907
8.19846
4.47396
-0.582259
3.25766
7.68661
9.40743
7.88466
5.72046
4.51756
3.36127
2.7353
1.96782
1.06641
0.688433
-24.3324
-48.5129
-75.3261
-54.3924
-30.0165
-19.7158
-16.6173
-17.8102
-12.4082
0.728882
16.8254
27.973
33.9761
33.6978
30.9598
27.0235
23.9615
22.0322
19.4525
15.5324
11.9004
8.19812
4.48443
-0.545319
3.25423
7.70999
9.41317
7.88441
5.71797
4.5153
3.35959
2.73389
1.967
1.06551
0.688367
-24.2566
-48.3746
-74.6406
-54.2309
-30.0621
-19.6764
-16.6205
-17.8529
-12.4398
0.684397
16.7392
27.8632
33.8459
33.5912
30.8719
26.9596
23.9198
21.9964
19.4209
15.5155
11.8936
8.19776
4.49502
-0.509793
3.24705
7.73464
9.42
7.88413
5.7153
4.51295
3.35783
2.7324
1.96615
1.06456
0.68831
-24.2088
-48.3257
-74.006
-54.1375
-30.126
-19.6255
-16.6031
-17.8572
-12.4477
0.650878
16.6545
27.7529
33.7156
33.4876
30.7882
26.8981
23.879
21.9615
19.3903
15.4991
11.8868
8.19748
4.50584
-0.47627
3.236
7.76059
9.42808
7.88384
5.71246
4.51048
3.35601
2.73084
1.96526
1.06354
0.688261
-24.1891
-48.3774
-73.4305
-54.1161
-30.208
-19.5718
-16.5683
-17.8275
-12.4343
0.629147
16.5709
27.6391
33.5818
33.3834
30.7063
26.8385
23.8391
21.9271
19.3603
15.4833
11.88
8.19728
4.51679
-0.445337
3.22095
7.78816
9.43753
7.88351
5.70942
4.50791
3.3541
2.72919
1.96433
1.06245
0.688224
-24.1921
-48.5295
-72.9085
-54.1585
-30.3039
-19.524
-16.5206
-17.7746
-12.4053
0.615661
16.4849
27.5195
33.4421
33.2762
30.6249
26.7803
23.7998
21.8929
19.3307
15.4682
11.8735
8.19729
4.52795
-0.417853
3.20172
7.81759
9.44851
7.88317
5.70618
4.50522
3.3521
2.72745
1.96335
1.06128
0.688195
-24.2107
-48.7582
-72.4258
-54.2539
-30.4124
-19.488
-16.4639
-17.7087
-12.3632
0.609561
16.3959
27.3928
33.2954
33.1643
30.5423
26.7228
23.7608
21.8584
19.3012
15.4537
11.8673
8.1975
4.53912
-0.394624
3.17835
7.84941
9.46113
7.8828
5.70272
4.5024
3.35
2.72562
1.96231
1.06004
0.68818
-24.2336
-48.9976
-71.9597
-54.3895
-30.5329
-19.4639
-16.4052
-17.6392
-12.3117
0.60634
16.3011
27.2588
33.1423
33.0476
30.4582
26.6657
23.7216
21.823
19.2713
15.4394
11.8615
8.19795
4.55036
-0.376401
3.15092
7.88338
9.47531
7.88239
5.69904
4.49944
3.3478
2.72367
1.96121
1.05869
0.688175
-24.2373
-49.1329
-71.4856
-54.5537
-30.6622
-19.4466
-16.3509
-17.5682
-12.2522
0.603914
16.2005
27.1176
32.9836
32.9262
30.3716
26.608
23.6812
21.7861
19.2407
15.4252
11.856
8.19854
4.56201
-0.363145
3.11871
7.91779
9.49046
7.88188
5.69513
4.49633
3.34547
2.72159
1.96004
1.05724
0.68818
-24.1773
-49.009
-70.9734
-54.7242
-30.7828
-19.4304
-16.3069
-17.4983
-12.1937
0.592827
16.0904
26.9695
32.8213
32.8015
30.2827
26.5486
23.6384
21.7474
19.21
15.4113
11.8509
8.19987
4.57563
-0.35559
3.07897
7.95047
9.50661
7.88134
5.691
4.49306
3.34299
2.71935
1.95879
1.05567
0.688187
-24.0413
-48.5006
-70.3981
-54.8798
-30.8736
-19.4206
-16.2811
-17.439
-12.149
0.567276
15.973
26.8191
32.6593
32.676
30.192
26.487
23.594
21.7093
19.1809
15.3987
11.8469
8.20266
4.59003
-0.36257
3.02924
7.99632
9.53098
7.88135
5.68627
4.48951
3.34038
2.717
1.95748
1.05398
0.688245
8.21359
8.52927
9.25812
10.0977
12.2742
14.7218
17.1489
19.9463
24.2565
29.7214
35.8385
43.2091
52.6205
64.2763
78.6709
95.6445
118.878
143.146
179.982
202.032
249.314
93.3896
8.21337
8.52886
9.25783
10.0983
12.273
14.7202
17.1471
19.9527
24.2616
29.7187
35.8322
43.1982
52.5981
64.2345
78.6024
95.531
118.671
142.73
179.148
200.457
245.468
90.5783
8.21315
8.52843
9.2575
10.0989
12.2717
14.7184
17.1451
19.9616
24.2642
29.7139
35.8256
43.1875
52.575
64.193
78.5328
95.4131
118.454
142.294
178.293
198.828
241.468
92.3745
8.21291
8.52797
9.25715
10.0997
12.2702
14.7165
17.143
19.9715
24.2647
29.7076
35.8184
43.1762
52.552
64.1491
78.46
95.2895
118.225
141.839
177.416
197.14
237.358
92.3854
8.21265
8.52747
9.25679
10.1005
12.2687
14.7144
17.1409
19.981
24.2636
29.7002
35.8107
43.1642
52.5273
64.1045
78.3847
95.1589
117.984
141.364
176.513
195.393
233.128
90.705
8.21238
8.52694
9.25642
10.1014
12.267
14.7122
17.1388
19.9884
24.2611
29.6921
35.8029
43.1516
52.5028
64.0572
78.3053
95.0205
117.726
140.865
175.576
193.588
228.773
88.7582
8.2121
8.52638
9.25603
10.1024
12.2653
14.7099
17.1367
19.9922
24.2574
29.6835
35.7952
43.1386
52.4767
64.009
78.2228
94.8737
117.452
140.343
174.602
191.727
224.301
86.9494
8.2118
8.52578
9.25563
10.1035
12.2633
14.7075
17.1345
19.9926
24.2524
29.6744
35.7876
43.1253
52.4508
63.9579
78.1357
94.718
117.158
139.794
173.583
189.81
219.717
85.1213
8.21148
8.52514
9.2552
10.1046
12.2613
14.7049
17.1322
19.9903
24.2465
29.665
35.7802
43.1115
52.4234
63.9055
78.0449
94.5528
116.844
139.218
172.514
187.837
215.026
83.1758
8.21114
8.52447
9.25476
10.1058
12.2591
14.7021
17.1297
19.9858
24.2394
29.6552
35.773
43.0976
52.3959
63.85
77.9488
94.3779
116.508
138.614
171.39
185.81
210.233
81.1354
8.21078
8.52376
9.25428
10.1071
12.2568
14.6991
17.1273
19.9795
24.2313
29.6452
35.766
43.0832
52.3668
63.793
77.8484
94.1927
116.151
137.979
170.205
183.725
205.345
79.0347
8.2104
8.523
9.25379
10.1085
12.2543
14.696
17.1247
19.9718
24.2217
29.6347
35.759
43.0687
52.3376
63.7326
77.7421
93.9971
115.771
137.312
168.956
181.583
200.365
76.8846
8.21
8.5222
9.25327
10.11
12.2517
14.6927
17.122
19.9629
24.2107
29.6237
35.7519
43.0537
52.3065
63.6703
77.6309
93.7905
115.367
136.612
167.637
179.382
195.302
74.6903
8.20957
8.52136
9.25273
10.1116
12.2489
14.6892
17.1191
19.9533
24.1978
29.612
35.7446
43.0385
52.275
63.6043
77.5132
93.5727
114.941
135.878
166.247
177.121
190.159
72.4613
8.20912
8.52047
9.25215
10.1133
12.246
14.6855
17.1159
19.9434
24.1827
29.5991
35.7369
43.0228
52.2416
63.5359
77.3897
93.3431
114.492
135.108
164.783
174.798
184.943
70.2113
8.20864
8.51953
9.25154
10.1151
12.2429
14.6815
17.1125
19.9338
24.165
29.5848
35.7285
43.0067
52.2076
63.4634
77.259
93.1014
114.019
134.301
163.244
172.412
179.658
67.9541
8.20814
8.51853
9.25089
10.1169
12.2396
14.6773
17.1089
19.9246
24.1447
29.5686
35.7189
42.9901
52.1715
63.388
77.1219
92.8469
113.522
133.458
161.628
169.961
174.309
65.7043
8.2076
8.51749
9.25022
10.1189
12.2361
14.6729
17.1049
19.9162
24.1216
29.5498
35.7077
42.9727
52.1346
63.3081
76.9767
92.5791
113.001
132.575
159.935
167.444
168.9
63.4767
8.20703
8.51638
9.24949
10.1209
12.2324
14.6682
17.1008
19.9084
24.0963
29.5277
35.694
42.9544
52.0955
63.2248
76.8241
92.2971
112.454
131.653
158.164
164.859
163.435
61.2852
8.20642
8.51522
9.24874
10.123
12.2286
14.6632
17.0964
19.9012
24.0692
29.5017
35.6768
42.9346
52.0555
63.1365
76.6627
92.0005
111.881
130.69
156.316
162.206
157.918
59.1408
8.20578
8.514
9.24792
10.1253
12.2245
14.658
17.0917
19.8947
24.0413
29.4714
35.6548
42.9126
52.0128
63.0443
76.4929
91.6883
111.28
129.685
154.39
159.482
152.354
57.0511
8.2051
8.51272
9.24707
10.1276
12.2202
14.6524
17.0867
19.8885
24.0135
29.4365
35.6266
42.8874
51.9688
62.9467
76.3132
91.3598
110.65
128.636
152.387
156.687
146.746
55.0181
8.20438
8.51137
9.24615
10.13
12.2157
14.6465
17.0814
19.8825
23.987
29.3973
35.5906
42.8572
51.9213
62.8447
76.1241
91.0142
109.99
127.541
150.306
153.818
141.101
53.0391
8.20361
8.50995
9.2452
10.1324
12.211
14.6403
17.0758
19.8764
23.9622
29.3548
35.5455
42.8198
51.8708
62.7366
75.9241
90.6507
109.297
126.399
148.146
150.874
135.426
51.1049
8.2028
8.50846
9.24416
10.135
12.2061
14.6337
17.0699
19.87
23.9393
29.3102
35.4905
42.7719
51.814
62.6234
75.7137
90.2683
108.571
125.207
145.907
147.854
129.729
49.2011
8.20194
8.50689
9.24307
10.1376
12.2009
14.6268
17.0636
19.8633
23.9178
29.2648
35.4262
42.71
51.7495
62.5028
75.4912
89.8663
107.81
123.963
143.588
144.754
124.018
47.3078
8.20102
8.50525
9.24189
10.1403
12.1955
14.6195
17.0569
19.8561
23.8973
29.22
35.3541
42.6309
51.6713
62.3748
75.257
89.4438
107.012
122.664
141.188
141.573
118.306
45.4014
8.20005
8.50352
9.24066
10.143
12.1898
14.6118
17.0498
19.8484
23.8771
29.1763
35.2768
42.5328
51.5744
62.2351
75.0088
88.9999
106.175
121.309
138.704
138.309
112.603
43.455
8.19902
8.50171
9.23933
10.1458
12.1838
14.6036
17.0422
19.8401
23.8567
29.1339
35.1972
42.4164
51.4501
62.0802
74.7459
88.5334
105.299
119.895
136.138
134.959
106.922
41.4409
8.19792
8.49981
9.23793
10.1487
12.1776
14.595
17.0341
19.8311
23.8359
29.0922
35.1178
42.2858
51.2933
61.9013
74.4641
88.0432
104.382
118.418
133.486
131.522
101.277
39.3316
8.19675
8.49782
9.23641
10.1516
12.1711
14.5859
17.0256
19.8215
23.8142
29.0504
35.04
42.1465
51.1007
61.6895
74.1586
87.5271
103.423
116.879
130.748
127.995
95.6824
37.1018
8.19551
8.49573
9.23482
10.1545
12.1643
14.5763
17.0164
19.8112
23.7914
29.0076
34.9645
42.0046
50.8769
61.433
73.8194
86.9816
102.42
115.273
127.923
124.377
90.151
34.7296
8.1942
8.49353
9.23309
10.1574
12.1572
14.5662
17.0067
19.8001
23.7673
28.9631
34.8906
41.8646
50.6309
61.1259
73.4346
86.4009
101.372
113.6
125.011
120.668
84.6964
32.1985
8.1928
8.49123
9.23127
10.1603
12.1498
14.5555
16.9964
19.7881
23.7417
28.9164
34.8168
41.7286
50.3754
60.7683
72.9893
85.7761
100.274
111.857
122.011
116.866
79.3313
29.4978
8.19131
8.48881
9.2293
10.1633
12.1421
14.5443
16.9853
19.7753
23.7145
28.8672
34.7416
41.5964
50.1206
60.3715
72.4736
85.0947
99.1223
110.042
118.924
112.974
74.067
26.6241
8.18973
8.48628
9.22723
10.1662
12.134
14.5324
16.9736
19.7615
23.6856
28.8153
34.6634
41.4658
49.8727
59.9523
71.8857
84.3431
97.9093
108.155
115.752
108.992
68.9136
23.5817
8.18804
8.48362
9.22499
10.1691
12.1256
14.5199
16.961
19.7466
23.6549
28.7603
34.5813
41.3342
49.6322
59.528
71.2381
83.5102
96.626
106.193
112.497
104.924
63.8796
20.3826
8.18625
8.48084
9.22262
10.1719
12.1168
14.5066
16.9476
19.7306
23.6223
28.7021
34.4948
41.1987
49.3955
59.1093
70.5521
82.5936
95.2632
104.156
109.163
100.775
58.9726
17.0458
8.18434
8.4779
9.22006
10.1746
12.1076
14.4927
16.9333
19.7135
23.5877
28.6405
34.4032
41.0572
49.1574
58.699
69.8514
81.6024
93.8145
102.043
105.76
96.5499
54.1995
13.5971
8.18231
8.47483
9.21735
10.1773
12.098
14.478
16.9181
19.695
23.5509
28.5753
34.3061
40.9082
48.9127
58.292
69.1519
80.5557
92.2802
99.8572
102.299
92.2609
49.5674
10.0671
8.18015
8.4716
9.21443
10.1798
12.0881
14.4624
16.9018
19.675
23.5118
28.5062
34.2032
40.7508
48.6573
57.8803
68.4579
79.475
90.6683
97.6048
98.7995
87.9226
45.0852
6.49036
8.17784
8.46821
9.21133
10.1822
12.0776
14.446
16.8844
19.6536
23.4702
28.4331
34.094
40.5842
48.3888
57.4553
67.7626
78.3759
88.9926
95.2946
95.2843
83.5567
40.7639
2.90385
8.17539
8.46464
9.20799
10.1844
12.0668
14.4287
16.8658
19.6305
23.426
28.3556
33.9782
40.4077
48.1058
57.011
67.054
77.2632
87.2679
92.9355
91.7816
79.192
36.618
-0.653844
8.17277
8.4609
9.20445
10.1863
12.0554
14.4105
16.8459
19.6057
23.379
28.2736
33.8552
40.2207
47.8072
56.5438
66.3198
76.1308
85.5047
90.5315
88.3172
74.8637
32.6658
-4.14337
8.16998
8.45696
9.20063
10.1881
12.0436
14.3912
16.8247
19.5789
23.329
28.1866
33.7248
40.0223
47.492
56.052
65.5516
74.9665
83.7066
88.0796
84.9064
70.6104
28.928
-7.52489
8.16701
8.45282
9.19658
10.1896
12.0312
14.3708
16.802
19.5502
23.2758
28.0945
33.5864
39.8121
47.1591
55.5342
64.7452
73.7578
81.8692
85.5717
81.5455
66.4666
25.4257
-10.759
8.16384
8.44845
9.19221
10.1908
12.0183
14.3493
16.7777
19.5192
23.2192
27.9969
33.4395
39.5893
46.8075
54.9892
63.8991
72.4961
79.9822
83.0016
78.2103
62.4531
22.1755
-13.8075
8.16046
8.44387
9.18758
10.1916
12.0048
14.3266
16.7518
19.4859
23.159
27.8934
33.2837
39.3531
46.4363
54.4158
63.0128
71.1781
78.0344
80.3663
74.8661
58.5671
19.1833
-16.6361
8.15685
8.43902
9.18258
10.192
11.9907
14.3026
16.7241
19.45
23.0949
27.7838
33.1184
39.103
46.0445
53.8125
62.0857
69.804
76.0192
77.6644
71.4851
54.781
16.4364
-19.2166
8.15301
8.43393
9.17727
10.192
11.9759
14.2773
16.6944
19.4114
23.0267
27.6677
32.9431
38.838
45.6312
53.1782
61.1166
68.3749
73.9361
74.8951
68.0562
51.0539
13.8995
-21.5319
8.1489
8.42854
9.17155
10.1915
11.9605
14.2505
16.6628
19.37
22.9541
27.5446
32.7572
38.5575
45.1953
52.5117
60.1045
66.8917