/*--------------------------------*- C++ -*----------------------------------*\
| =========                 |                                                 |
| \\      /  F ield         | OpenFOAM: The Open Source CFD Toolbox           |
|  \\    /   O peration     | Version:  v1912                                 |
|   \\  /    A nd           | Website:  www.openfoam.com                      |
|    \\/     M anipulation  |                                                 |
\*---------------------------------------------------------------------------*/
FoamFile
{
    version     2.0;
    format      ascii;
    class       volVectorField;
    location    "110";
    object      U;
}
// * * * * * * * * * * * * * * * * * * * * * * * * * * * * * * * * * * * * * //

dimensions      [0 1 -1 0 0 0 0];


internalField   nonuniform List<vector> 
12441
(
(29.9979 1.67018e-05 0)
(29.9875 5.86255e-05 0)
(29.9525 8.98435e-05 0)
(29.923 9.67473e-05 0)
(29.8595 0.000206869 0)
(29.7864 0.000276127 0)
(29.6985 0.000402174 0)
(29.582 0.000596002 0)
(29.4403 0.000758836 0)
(29.2603 0.00102484 0)
(29.0458 0.0014895 0)
(28.7879 0.00219039 0)
(28.4308 0.00297763 0)
(27.9911 0.00448861 0)
(27.4184 0.00611752 0)
(26.6892 0.0105009 0)
(25.7143 0.0136358 0)
(24.2028 0.028446 0)
(22.0752 0.0493604 0)
(18.5945 0.0894591 0)
(12.8103 0.125872 0)
(6.22206 0.208801 0)
(29.9977 4.96017e-05 0)
(29.9897 0.000163251 0)
(29.9463 0.000260269 0)
(29.9199 0.000359909 0)
(29.8618 0.00055939 0)
(29.7911 0.000793105 0)
(29.6985 0.00119683 0)
(29.5778 0.00184456 0)
(29.4392 0.00229456 0)
(29.2617 0.0030655 0)
(29.0462 0.00440406 0)
(28.7903 0.00650711 0)
(28.4313 0.00894265 0)
(27.9928 0.0135249 0)
(27.4191 0.0184534 0)
(26.69 0.0315149 0)
(25.7018 0.0436391 0)
(24.1921 0.0814117 0)
(22.0642 0.128459 0)
(18.5795 0.258768 0)
(12.8018 0.369387 0)
(6.21731 0.622494 0)
(29.9977 7.90694e-05 0)
(29.9894 0.000275494 0)
(29.9474 0.000484705 0)
(29.9195 0.000581049 0)
(29.8612 0.00088143 0)
(29.7906 0.00129421 0)
(29.6986 0.00204538 0)
(29.5779 0.00310973 0)
(29.4392 0.00379017 0)
(29.2615 0.00507654 0)
(29.0461 0.00733736 0)
(28.7907 0.0108252 0)
(28.43 0.014941 0)
(27.991 0.0224721 0)
(27.4149 0.0308059 0)
(26.6939 0.0517646 0)
(25.7016 0.0744192 0)
(24.1951 0.132491 0)
(22.0602 0.205245 0)
(18.568 0.425886 0)
(12.7928 0.609614 0)
(6.21455 1.03395 0)
(29.9976 0.000109187 0)
(29.9897 0.000388852 0)
(29.946 0.000704324 0)
(29.9193 0.000784821 0)
(29.8612 0.00121042 0)
(29.7903 0.00182313 0)
(29.6977 0.00290452 0)
(29.5772 0.00435789 0)
(29.4388 0.00527796 0)
(29.2612 0.00709287 0)
(29.0456 0.0102791 0)
(28.7899 0.0151592 0)
(28.4313 0.0209499 0)
(27.9928 0.0314604 0)
(27.4204 0.0431848 0)
(26.6914 0.0721188 0)
(25.7011 0.104432 0)
(24.1988 0.186744 0)
(22.0625 0.30684 0)
(18.5641 0.601018 0)
(12.7925 0.8538 0)
(6.21747 1.44658 0)
(29.9977 0.000139546 0)
(29.9893 0.000502674 0)
(29.9475 0.000920127 0)
(29.919 0.00099152 0)
(29.8606 0.00155096 0)
(29.7899 0.00235604 0)
(29.6978 0.0037522 0)
(29.5774 0.00559211 0)
(29.4388 0.00676362 0)
(29.2611 0.00911675 0)
(29.0458 0.0132281 0)
(28.7903 0.0194945 0)
(28.4297 0.026941 0)
(27.9903 0.0404435 0)
(27.414 0.0555558 0)
(26.6939 0.0922495 0)
(25.7043 0.133932 0)
(24.2034 0.241777 0)
(22.0715 0.39118 0)
(18.5686 0.772447 0)
(12.8019 1.0977 0)
(6.22637 1.86009 0)
(29.9976 0.000169978 0)
(29.9897 0.000616676 0)
(29.9455 0.00113805 0)
(29.9187 0.00120261 0)
(29.8606 0.00189181 0)
(29.7895 0.00288366 0)
(29.6967 0.00459512 0)
(29.5765 0.00682717 0)
(29.4382 0.00825497 0)
(29.2607 0.0111481 0)
(29.0451 0.0161779 0)
(28.7892 0.0238234 0)
(28.4314 0.0329371 0)
(27.9929 0.0494184 0)
(27.4227 0.0679608 0)
(26.6925 0.112247 0)
(25.7062 0.163138 0)
(24.2072 0.296147 0)
(22.0833 0.474014 0)
(18.5807 0.942748 0)
(12.8219 1.34127 0)
(6.24146 2.27434 0)
(29.9977 0.000200499 0)
(29.9892 0.000731298 0)
(29.9474 0.00135718 0)
(29.9181 0.00141547 0)
(29.8596 0.00223161 0)
(29.7889 0.00341143 0)
(29.6968 0.00544105 0)
(29.5766 0.00806378 0)
(29.4382 0.00974583 0)
(29.2605 0.0131773 0)
(29.0453 0.0191255 0)
(28.7895 0.0281511 0)
(28.4291 0.0389247 0)
(27.9896 0.0583779 0)
(27.4149 0.0803014 0)
(26.6949 0.132103 0)
(25.712 0.191744 0)
(24.2125 0.348412 0)
(22.0977 0.559192 0)
(18.6002 1.11331 0)
(12.8533 1.58493 0)
(6.26304 2.68966 0)
(29.9976 0.000231094 0)
(29.9897 0.000846486 0)
(29.9449 0.00157932 0)
(29.9181 0.00162925 0)
(29.8599 0.00257139 0)
(29.7888 0.00394024 0)
(29.6958 0.0062882 0)
(29.5757 0.0092986 0)
(29.4377 0.0112339 0)
(29.2602 0.0152067 0)
(29.0446 0.0220732 0)
(28.7884 0.0324732 0)
(28.4315 0.0449306 0)
(27.993 0.0673368 0)
(27.4254 0.0925605 0)
(26.6918 0.151594 0)
(25.7165 0.221762 0)
(24.2167 0.402983 0)
(22.1136 0.645672 0)
(18.6276 1.28349 0)
(12.8975 1.82882 0)
(6.2915 3.10649 0)
(29.9977 0.000261807 0)
(29.989 0.000962656 0)
(29.9473 0.00180088 0)
(29.9176 0.0018426 0)
(29.8591 0.00291135 0)
(29.7882 0.00447057 0)
(29.6961 0.00713557 0)
(29.5761 0.0105308 0)
(29.4378 0.0127197 0)
(29.2602 0.0172353 0)
(29.0452 0.0250227 0)
(28.7893 0.0368042 0)
(28.4287 0.0509155 0)
(27.9887 0.0763542 0)
(27.4208 0.104901 0)
(26.6904 0.171577 0)
(25.7178 0.250473 0)
(24.2153 0.457317 0)
(22.1288 0.731911 0)
(18.6636 1.45267 0)
(12.9557 2.07298 0)
(6.32727 3.52529 0)
(29.9976 0.000292671 0)
(29.9896 0.00107929 0)
(29.9444 0.00202538 0)
(29.9177 0.00205669 0)
(29.8595 0.00325165 0)
(29.7882 0.00500099 0)
(29.6951 0.00798258 0)
(29.5752 0.0117614 0)
(29.4373 0.0142048 0)
(29.26 0.0192664 0)
(29.0444 0.0279733 0)
(28.7878 0.0411241 0)
(28.4319 0.0569374 0)
(27.9924 0.0851529 0)
(27.4361 0.117955 0)
(26.6853 0.191975 0)
(25.7055 0.279628 0)
(24.1988 0.51011 0)
(22.1426 0.817647 0)
(18.7088 1.62066 0)
(13.0289 2.31747 0)
(6.37075 3.94654 0)
(29.9977 0.000323637 0)
(29.9889 0.00119693 0)
(29.9472 0.00224892 0)
(29.917 0.00227124 0)
(29.8584 0.0035924 0)
(29.7876 0.0055325 0)
(29.6955 0.00882971 0)
(29.5756 0.0129904 0)
(29.4375 0.0156887 0)
(29.2599 0.0212973 0)
(29.0449 0.0309261 0)
(28.7888 0.0454462 0)
(28.4291 0.0629843 0)
(27.9884 0.0939028 0)
(27.4344 0.130375 0)
(26.6676 0.211555 0)
(25.6809 0.310109 0)
(24.1743 0.562695 0)
(22.1577 0.902934 0)
(18.7624 1.7871 0)
(13.1172 2.56232 0)
(6.42229 4.37073 0)
(29.9976 0.000354825 0)
(29.9895 0.00131485 0)
(29.9439 0.00247558 0)
(29.9173 0.00248676 0)
(29.8592 0.00393365 0)
(29.7877 0.00606392 0)
(29.6945 0.00967639 0)
(29.5748 0.0142181 0)
(29.437 0.0171723 0)
(29.2598 0.0233287 0)
(29.0442 0.0338806 0)
(28.7871 0.0497508 0)
(28.4325 0.0690248 0)
(27.9912 0.102816 0)
(27.4275 0.14376 0)
(26.6364 0.23178 0)
(25.6531 0.341047 0)
(24.1531 0.614157 0)
(22.1748 0.987228 0)
(18.8214 1.95159 0)
(13.2194 2.80747 0)
(6.48208 4.79834 0)
(29.9977 0.000386145 0)
(29.9887 0.00143394 0)
(29.9472 0.00269946 0)
(29.9168 0.00270109 0)
(29.8582 0.00427469 0)
(29.7872 0.00659663 0)
(29.6953 0.0105226 0)
(29.5756 0.0154442 0)
(29.4375 0.0186548 0)
(29.2601 0.0253627 0)
(29.0448 0.0368389 0)
(28.7874 0.054106 0)
(28.4326 0.07501 0)
(27.9834 0.111851 0)
(27.4043 0.157735 0)
(26.6048 0.252076 0)
(25.6304 0.371962 0)
(24.1402 0.664181 0)
(22.1923 1.07036 0)
(18.8817 2.11388 0)
(13.3332 3.05281 0)
(6.55015 5.22985 0)
(29.9977 0.000417765 0)
(29.9894 0.00155313 0)
(29.9435 0.00292654 0)
(29.917 0.00291614 0)
(29.859 0.00461624 0)
(29.7874 0.00712909 0)
(29.6942 0.0113679 0)
(29.5747 0.016669 0)
(29.4369 0.0201372 0)
(29.26 0.0273977 0)
(29.0443 0.0398216 0)
(28.785 0.0584953 0)
(28.4359 0.081411 0)
(27.9699 0.121219 0)
(27.3808 0.171561 0)
(26.5787 0.271882 0)
(25.6135 0.402533 0)
(24.1328 0.712961 0)
(22.2083 1.15245 0)
(18.9398 2.27391 0)
(13.4562 3.29812 0)
(6.62638 5.66567 0)
(29.9978 0.000449481 0)
(29.9884 0.00167344 0)
(29.9473 0.00315044 0)
(29.9164 0.00313118 0)
(29.8579 0.00495807 0)
(29.7868 0.00766278 0)
(29.695 0.0122127 0)
(29.5755 0.0178922 0)
(29.4373 0.0216187 0)
(29.2604 0.0294334 0)
(29.0443 0.0428334 0)
(28.7853 0.0627747 0)
(28.4318 0.0877984 0)
(27.9516 0.130699 0)
(27.3595 0.185351 0)
(26.5594 0.291448 0)
(25.601 0.43288 0)
(24.128 0.760882 0)
(22.2221 1.23367 0)
(18.994 2.43163 0)
(13.5858 3.54316 0)
(6.71051 6.10617 0)
(29.9977 0.000481561 0)
(29.9892 0.00179365 0)
(29.9432 0.00337796 0)
(29.9168 0.00334736 0)
(29.859 0.00530054 0)
(29.7871 0.00819593 0)
(29.694 0.0130564 0)
(29.5747 0.0191147 0)
(29.4368 0.0230986 0)
(29.2605 0.0314746 0)
(29.044 0.0458517 0)
(28.7857 0.0672248 0)
(28.4224 0.0944376 0)
(27.9348 0.140118 0)
(27.3432 0.199046 0)
(26.5447 0.31089 0)
(25.591 0.463101 0)
(24.1241 0.80825 0)
(22.2338 1.31413 0)
(19.0436 2.58703 0)
(13.72 3.78764 0)
(6.80216 6.55164 0)
(29.9978 0.000513758 0)
(29.9882 0.00191518 0)
(29.9475 0.00360044 0)
(29.9163 0.00356195 0)
(29.8579 0.00564266 0)
(29.7867 0.00873058 0)
(29.695 0.013899 0)
(29.5758 0.020336 0)
(29.4375 0.0245782 0)
(29.261 0.0335122 0)
(29.0448 0.0489367 0)
(28.7845 0.071736 0)
(28.4099 0.10111 0)
(27.9206 0.149568 0)
(27.3302 0.212725 0)
(26.5335 0.330266 0)
(25.5827 0.493244 0)
(24.1201 0.855259 0)
(22.2439 1.39393 0)
(19.0888 2.74006 0)
(13.8571 4.03129 0)
(6.90095 7.00233 0)
(29.9977 0.000546387 0)
(29.989 0.00203644 0)
(29.943 0.00382691 0)
(29.9168 0.00377744 0)
(29.859 0.0059854 0)
(29.787 0.00926448 0)
(29.6939 0.0147403 0)
(29.5749 0.0215557 0)
(29.4371 0.0260585 0)
(29.2608 0.0355401 0)
(29.0459 0.0520515 0)
(28.7797 0.0763422 0)
(28.3979 0.107853 0)
(27.9093 0.158975 0)
(27.3199 0.226388 0)
(26.5245 0.349602 0)
(25.5753 0.523339 0)
(24.1158 0.902017 0)
(22.2531 1.47309 0)
(19.1303 2.8907 0)
(13.9963 4.27388 0)
(7.00646 7.45847 0)
(29.9979 0.000579078 0)
(29.988 0.00215899 0)
(29.9478 0.00404802 0)
(29.9161 0.00399255 0)
(29.8577 0.00632828 0)
(29.7864 0.00979982 0)
(29.695 0.0155807 0)
(29.576 0.0227739 0)
(29.4378 0.0275394 0)
(29.2608 0.037575 0)
(29.0482 0.0551461 0)
(28.7725 0.0809091 0)
(28.3873 0.114585 0)
(27.9001 0.168394 0)
(27.3114 0.240048 0)
(26.5171 0.368914 0)
(25.5685 0.553408 0)
(24.1111 0.948585 0)
(22.262 1.55164 0)
(19.1689 3.03891 0)
(14.137 4.51517 0)
(7.11833 7.92025 0)
(29.9978 0.000612251 0)
(29.9888 0.00228109 0)
(29.9428 0.00427378 0)
(29.9167 0.00420895 0)
(29.8591 0.00667185 0)
(29.7869 0.010334 0)
(29.6939 0.0164195 0)
(29.5751 0.0239904 0)
(29.4374 0.0290247 0)
(29.2602 0.0396114 0)
(29.0502 0.0583662 0)
(28.7646 0.0854693 0)
(28.3785 0.121354 0)
(27.8926 0.177795 0)
(27.3043 0.253698 0)
(26.5107 0.388215 0)
(25.562 0.583469 0)
(24.1062 0.994991 0)
(22.2711 1.62958 0)
(19.2055 3.18468 0)
(14.2795 4.75498 0)
(7.23627 8.38786 0)
(29.9979 0.000645493 0)
(29.9877 0.00240472 0)
(29.9481 0.00449255 0)
(29.9162 0.00442349 0)
(29.8578 0.00701501 0)
(29.7864 0.01087 0)
(29.6953 0.0172574 0)
(29.5765 0.0252052 0)
(29.4383 0.0305143 0)
(29.2604 0.0416424 0)
(29.0517 0.0616963 0)
(28.7569 0.0900763 0)
(28.3711 0.128106 0)
(27.8862 0.187204 0)
(27.2981 0.267346 0)
(26.505 0.407517 0)
(25.5557 0.613541 0)
(24.1011 1.04123 0)
(22.2808 1.70689 0)
(19.241 3.328 0)
(14.4239 4.99314 0)
(7.36004 8.86146 0)
(29.9978 0.000679271 0)
(29.9885 0.00252777 0)
(29.9426 0.00471651 0)
(29.9167 0.00463899 0)
(29.8592 0.00735876 0)
(29.7868 0.0114047 0)
(29.694 0.0180933 0)
(29.5756 0.0264189 0)
(29.4377 0.0320026 0)
(29.2605 0.0437275 0)
(29.0508 0.0649963 0)
(28.7498 0.0947342 0)
(28.3648 0.134878 0)
(27.8807 0.196603 0)
(27.2926 0.28099 0)
(26.4999 0.42683 0)
(25.5495 0.643642 0)
(24.0959 1.08728 0)
(22.2914 1.78358 0)
(19.2762 3.46882 0)
(14.5709 5.22949 0)
(7.48952 9.34126 0)
(29.9979 0.00071305 0)
(29.9874 0.00265229 0)
(29.9484 0.00493322 0)
(29.9161 0.00485388 0)
(29.8578 0.00770258 0)
(29.7863 0.0119412 0)
(29.6953 0.018928 0)
(29.577 0.0276329 0)
(29.4381 0.033489 0)
(29.2616 0.0458601 0)
(29.048 0.068277 0)
(28.7435 0.0994456 0)
(28.3595 0.141637 0)
(27.8758 0.206005 0)
(27.2875 0.294635 0)
(26.495 0.446162 0)
(25.5435 0.673781 0)
(24.0908 1.13309 0)
(22.303 1.85961 0)
(19.3118 3.60714 0)
(14.7213 5.46393 0)
(7.62464 9.82744 0)
(29.9979 0.000747405 0)
(29.9883 0.00277609 0)
(29.9425 0.00515586 0)
(29.9167 0.00507015 0)
(29.8594 0.0080471 0)
(29.7868 0.0124761 0)
(29.6941 0.0197604 0)
(29.5761 0.0288465 0)
(29.4374 0.0349704 0)
(29.2625 0.0480306 0)
(29.0443 0.0715077 0)
(28.738 0.104192 0)
(28.3547 0.148402 0)
(27.8714 0.215404 0)
(27.2829 0.308287 0)
(26.4903 0.465519 0)
(25.5375 0.703955 0)
(24.0858 1.17861 0)
(22.3156 1.93499 0)
(19.3483 3.7429 0)
(14.8762 5.69634 0)
(7.76545 10.3202 0)
(29.998 0.000781765 0)
(29.9871 0.00290157 0)
(29.9487 0.00536966 0)
(29.9162 0.00528429 0)
(29.858 0.00839113 0)
(29.7864 0.0130132 0)
(29.6957 0.0205912 0)
(29.5777 0.0300618 0)
(29.4381 0.0364436 0)
(29.2639 0.0501939 0)
(29.0403 0.074713 0)
(28.733 0.108959 0)
(28.3505 0.155158 0)
(27.8673 0.224807 0)
(27.2785 0.321946 0)
(26.4858 0.484905 0)
(25.5316 0.734144 0)
(24.0809 1.22383 0)
(22.329 2.00969 0)
(19.3862 3.87604 0)
(15.0366 5.92663 0)
(7.91204 10.8199 0)
(29.9979 0.000816744 0)
(29.988 0.00302625 0)
(29.9423 0.00558997 0)
(29.9168 0.00549949 0)
(29.8596 0.00873582 0)
(29.7869 0.0135485 0)
(29.6944 0.0214197 0)
(29.5767 0.0312747 0)
(29.4374 0.0379303 0)
(29.2644 0.0523482 0)
(29.0365 0.0779263 0)
(28.7285 0.113736 0)
(28.3466 0.161914 0)
(27.8635 0.234212 0)
(27.2743 0.335618 0)
(26.4812 0.504317 0)
(25.5257 0.764329 0)
(24.0761 1.26874 0)
(22.343 2.08371 0)
(19.4258 4.00647 0)
(15.2036 6.15472 0)
(8.06462 11.3266 0)
(29.998 0.000851652 0)
(29.9869 0.00315252 0)
(29.949 0.00580133 0)
(29.9161 0.00571373 0)
(29.858 0.00908046 0)
(29.7863 0.0140859 0)
(29.6959 0.0222473 0)
(29.5782 0.0324899 0)
(29.4383 0.0394203 0)
(29.2644 0.0546522 0)
(29.0329 0.0811699 0)
(28.7245 0.118517 0)
(28.343 0.168665 0)
(27.8598 0.243624 0)
(27.2702 0.3493 0)
(26.4765 0.523753 0)
(25.5198 0.794498 0)
(24.0715 1.31335 0)
(22.3576 2.157 0)
(19.4673 4.13406 0)
(15.3785 6.38053 0)
(8.22343 11.8408 0)
(29.998 0.000887197 0)
(29.9878 0.00327787 0)
(29.9422 0.00602005 0)
(29.9168 0.0059295 0)
(29.8598 0.00942587 0)
(29.787 0.014621 0)
(29.6946 0.0230722 0)
(29.5771 0.0337045 0)
(29.4378 0.0409058 0)
(29.2636 0.0569842 0)
(29.0295 0.0844524 0)
(28.7207 0.123302 0)
(28.3396 0.175417 0)
(27.8563 0.253042 0)
(27.2662 0.362997 0)
(26.4718 0.543206 0)
(25.5139 0.82465 0)
(24.067 1.35765 0)
(22.3724 2.22955 0)
(19.5108 4.25866 0)
(15.5623 6.60397 0)
(8.38878 12.3627 0)
(29.9981 0.000922668 0)
(29.9867 0.00340507 0)
(29.9494 0.00622845 0)
(29.9163 0.0061429 0)
(29.8582 0.00977074 0)
(29.7864 0.0151584 0)
(29.6963 0.0238973 0)
(29.5787 0.0349157 0)
(29.4391 0.0424383 0)
(29.263 0.0592005 0)
(29.0262 0.0877732 0)
(28.7172 0.128088 0)
(28.3364 0.182167 0)
(27.8529 0.262468 0)
(27.2622 0.376705 0)
(26.4669 0.562679 0)
(25.5078 0.854789 0)
(24.0627 1.40165 0)
(22.3873 2.30132 0)
(19.556 4.38011 0)
(15.7559 6.82498 0)
(8.56102 12.8927 0)
(29.998 0.000958798 0)
(29.9875 0.00353129 0)
(29.9421 0.00644492 0)
(29.9169 0.0063575 0)
(29.8601 0.0101162 0)
(29.7871 0.0156933 0)
(29.695 0.0247197 0)
(29.5775 0.0361244 0)
(29.4385 0.0439902 0)
(29.2623 0.0614099 0)
(29.0231 0.0911275 0)
(28.7139 0.132874 0)
(28.3334 0.188918 0)
(27.8495 0.271902 0)
(27.2582 0.39043 0)
(26.4618 0.582169 0)
(25.5016 0.884917 0)
(24.0584 1.44534 0)
(22.4023 2.3723 0)
(19.6029 4.4982 0)
(15.96 7.04345 0)
(8.74052 13.4312 0)
(29.9981 0.000994776 0)
(29.9865 0.00365916 0)
(29.9497 0.00665116 0)
(29.9162 0.0065712 0)
(29.8582 0.0104618 0)
(29.7863 0.0162307 0)
(29.6965 0.025542 0)
(29.5789 0.0373344 0)
(29.4397 0.045551 0)
(29.2615 0.0636395 0)
(29.0201 0.094507 0)
(28.7107 0.137661 0)
(28.3304 0.195671 0)
(27.8462 0.281345 0)
(27.2541 0.40417 0)
(26.4565 0.601683 0)
(25.4952 0.915032 0)
(24.0542 1.48872 0)
(22.4171 2.44246 0)
(19.6511 4.61274 0)
(16.175 7.25929 0)
(8.92767 13.9786 0)
(29.9981 0.00103141 0)
(29.9873 0.00378604 0)
(29.942 0.0068662 0)
(29.9169 0.00678644 0)
(29.8603 0.0108079 0)
(29.7871 0.0167651 0)
(29.6953 0.0263616 0)
(29.5779 0.0385413 0)
(29.4392 0.0471222 0)
(29.2605 0.0658792 0)
(29.0172 0.0979052 0)
(28.7077 0.142447 0)
(28.3275 0.202425 0)
(27.843 0.290799 0)
(27.25 0.41793 0)
(26.451 0.621222 0)
(25.4886 0.945131 0)
(24.0501 1.53179 0)
(22.4318 2.51178 0)
(19.7002 4.72351 0)
(16.4007 7.47238 0)
(9.12281 14.5353 0)
(29.9982 0.00106792 0)
(29.9862 0.00391473 0)
(29.95 0.00706974 0)
(29.9163 0.00699938 0)
(29.8584 0.0111534 0)
(29.7864 0.0173021 0)
(29.6969 0.0271812 0)
(29.5795 0.0397475 0)
(29.4408 0.0487066 0)
(29.2591 0.0681324 0)
(29.0142 0.101317 0)
(28.7047 0.147234 0)
(28.3246 0.209182 0)
(27.8397 0.300264 0)
(27.2457 0.431712 0)
(26.4453 0.640791 0)
(25.4817 0.975209 0)
(24.0461 1.57455 0)
(22.4464 2.58026 0)
(19.75 4.83031 0)
(16.6372 7.68258 0)
(9.32629 15.1017 0)
(29.9981 0.00110511 0)
(29.987 0.00404242 0)
(29.9419 0.00728266 0)
(29.917 0.00721382 0)
(29.8606 0.0115003 0)
(29.7873 0.0178361 0)
(29.6957 0.0279976 0)
(29.5784 0.0409494 0)
(29.4403 0.0503034 0)
(29.2574 0.0703988 0)
(29.0113 0.104739 0)
(28.7019 0.15202 0)
(28.3218 0.215942 0)
(27.8364 0.309741 0)
(27.2414 0.44552 0)
(26.4393 0.660389 0)
(25.4744 1.00526 0)
(24.0421 1.61699 0)
(22.4608 2.64788 0)
(19.8001 4.93293 0)
(16.8838 7.88975 0)
(9.5384 15.6782 0)
(29.9982 0.00114212 0)
(29.986 0.00417203 0)
(29.9503 0.00748357 0)
(29.9164 0.00742526 0)
(29.8586 0.0118462 0)
(29.7866 0.0183732 0)
(29.6974 0.0288141 0)
(29.5801 0.0421474 0)
(29.4422 0.0519165 0)
(29.2554 0.07268 0)
(29.0084 0.108169 0)
(28.6991 0.156805 0)
(28.3191 0.222707 0)
(27.8331 0.319233 0)
(27.237 0.459355 0)
(26.433 0.680022 0)
(25.4668 1.03529 0)
(24.0381 1.65912 0)
(22.475 2.71465 0)
(19.8504 5.0312 0)
(17.1403 8.09373 0)
(9.7594 16.2653 0)
(29.9982 0.00117979 0)
(29.9868 0.00430061 0)
(29.9417 0.00769523 0)
(29.9169 0.00763825 0)
(29.8607 0.0121927 0)
(29.7874 0.0189069 0)
(29.6959 0.0296299 0)
(29.5789 0.0433384 0)
(29.4415 0.0535136 0)
(29.2531 0.0749753 0)
(29.0055 0.111603 0)
(28.6963 0.161589 0)
(28.3163 0.229476 0)
(27.8298 0.32874 0)
(27.2325 0.473222 0)
(26.4265 0.699691 0)
(25.4589 1.06528 0)
(24.0341 1.70093 0)
(22.4893 2.78055 0)
(19.9008 5.12494 0)
(17.4062 8.29434 0)
(9.98954 16.8634 0)
(29.9982 0.00121722 0)
(29.9859 0.00443116 0)
(29.9505 0.00789536 0)
(29.9162 0.00784989 0)
(29.8585 0.0125377 0)
(29.7865 0.0194432 0)
(29.6975 0.0304449 0)
(29.5805 0.0445516 0)
(29.4419 0.0550389 0)
(29.2505 0.0772906 0)
(29.0026 0.11504 0)
(28.6936 0.166373 0)
(28.3136 0.23625 0)
(27.8265 0.338263 0)
(27.2279 0.487121 0)
(26.4198 0.719399 0)
(25.4507 1.09524 0)
(24.0301 1.74242 0)
(22.5035 2.8456 0)
(19.9512 5.21397 0)
(17.6815 8.49142 0)
(10.229 17.4729 0)
(29.9982 0.00125526 0)
(29.9866 0.00456078 0)
(29.9413 0.00810708 0)
(29.9167 0.00806472 0)
(29.8606 0.0128833 0)
(29.7873 0.0199732 0)
(29.6959 0.0312569 0)
(29.5796 0.0457663 0)
(29.4407 0.0566959 0)
(29.2478 0.079649 0)
(28.9997 0.118478 0)
(28.6908 0.171155 0)
(28.3108 0.243028 0)
(27.8232 0.347803 0)
(27.2232 0.501055 0)
(26.4128 0.739147 0)
(25.4421 1.12516 0)
(24.026 1.78358 0)
(22.5179 2.90978 0)
(20.0015 5.29813 0)
(17.9662 8.68477 0)
(10.4781 18.0942 0)
(29.9983 0.00129299 0)
(29.9858 0.00469196 0)
(29.9508 0.00830576 0)
(29.9158 0.00827897 0)
(29.8581 0.0132321 0)
(29.7862 0.0205067 0)
(29.6972 0.032065 0)
(29.5813 0.0470106 0)
(29.4408 0.0584016 0)
(29.245 0.082052 0)
(28.9968 0.121916 0)
(28.6881 0.175937 0)
(28.3081 0.249811 0)
(27.8198 0.357361 0)
(27.2183 0.515027 0)
(26.4057 0.758941 0)
(25.4331 1.15504 0)
(24.0218 1.8244 0)
(22.5325 2.97311 0)
(20.0513 5.37725 0)
(18.2604 8.87418 0)
(10.7369 18.7278 0)
(29.9983 0.00133135 0)
(29.9864 0.00482245 0)
(29.9412 0.0085164 0)
(29.9165 0.00849094 0)
(29.8605 0.0135851 0)
(29.7873 0.0210436 0)
(29.6958 0.0328557 0)
(29.5801 0.0482699 0)
(29.4408 0.0600174 0)
(29.2423 0.0844859 0)
(28.9939 0.125355 0)
(28.6854 0.180717 0)
(28.3054 0.2566 0)
(27.8164 0.366937 0)
(27.2134 0.529038 0)
(26.3983 0.77878 0)
(25.4239 1.18488 0)
(24.0174 1.86488 0)
(22.5475 3.03559 0)
(20.1002 5.45116 0)
(18.564 9.05946 0)
(11.0057 19.3741 0)
(29.9983 0.00136919 0)
(29.9856 0.00495607 0)
(29.9503 0.00871986 0)
(29.9158 0.00869159 0)
(29.8582 0.0139294 0)
(29.7864 0.0216041 0)
(29.6971 0.0336717 0)
(29.5829 0.0494304 0)
(29.4409 0.0615924 0)
(29.2396 0.0869419 0)
(28.991 0.128794 0)
(28.6827 0.185496 0)
(28.3027 0.26339 0)
(27.813 0.376536 0)
(27.2084 0.543091 0)
(26.3907 0.798668 0)
(25.4144 1.21467 0)
(24.013 1.905 0)
(22.563 3.09724 0)
(20.1475 5.51969 0)
(18.8758 9.24043 0)
(11.2848 20.0334 0)
(29.9983 0.00140726 0)
(29.9862 0.00508614 0)
(29.9419 0.00894471 0)
(29.9165 0.00890401 0)
(29.8603 0.0142195 0)
(29.7877 0.0221426 0)
(29.6949 0.0345243 0)
(29.5868 0.0505764 0)
(29.4408 0.0632171 0)
(29.2371 0.0894164 0)
(28.9882 0.132233 0)
(28.6799 0.190272 0)
(28.3 0.270186 0)
(27.8096 0.386153 0)
(27.2033 0.557185 0)
(26.383 0.818603 0)
(25.4047 1.24442 0)
(24.0083 1.94476 0)
(22.5792 3.1581 0)
(20.1923 5.58272 0)
(19.1923 9.41701 0)
(11.5742 20.707 0)
(29.9983 0.00144607 0)
(29.9856 0.00520349 0)
(29.9511 0.00914419 0)
(29.9157 0.00923774 0)
(29.8577 0.0145181 0)
(29.7867 0.0225823 0)
(29.6945 0.0353603 0)
(29.5931 0.051844 0)
(29.4405 0.064919 0)
(29.2346 0.0919095 0)
(28.9853 0.135669 0)
(28.6771 0.195043 0)
(28.2973 0.276981 0)
(27.8061 0.395796 0)
(27.1982 0.57132 0)
(26.3752 0.838594 0)
(25.3948 1.27414 0)
(24.0033 1.98415 0)
(22.5962 3.21821 0)
(20.234 5.64025 0)
(19.5055 9.58889 0)
(11.8733 21.4019 0)
(29.9983 0.00149115 0)
(29.9858 0.00531166 0)
(29.939 0.00916605 0)
(29.9155 0.00959627 0)
(29.8596 0.0150397 0)
(29.7884 0.0230225 0)
(29.6922 0.0359459 0)
(29.596 0.0530655 0)
(29.4401 0.0666759 0)
(29.2324 0.0944347 0)
(28.9825 0.139115 0)
(28.6743 0.199806 0)
(28.2946 0.283767 0)
(27.8027 0.405464 0)
(27.193 0.585495 0)
(26.3674 0.858633 0)
(25.3848 1.30383 0)
(23.9981 2.02315 0)
(22.6144 3.27766 0)
(20.2724 5.6924 0)
(19.8027 9.75402 0)
(12.2672 22.1403 0)
(-1.32143 0.0927288 0)
(-6.98586 0.104203 0)
(-10.9132 0.0404453 0)
(-10.6652 -0.0225854 0)
(-8.19058 -0.0343673 0)
(-6.61356 -0.0180527 0)
(-5.89611 -0.00951028 0)
(-5.36783 -0.0096112 0)
(-4.53501 -0.0152613 0)
(-2.93234 -0.0225898 0)
(-0.566823 -0.0242483 0)
(1.75442 -0.0239102 0)
(4.20037 -0.0221705 0)
(6.68689 -0.0199866 0)
(9.02828 -0.0180735 0)
(11.3687 -0.0187821 0)
(14.4358 -0.0188599 0)
(17.1557 -0.0123756 0)
(18.5611 -0.00641804 0)
(19.4397 -0.00426493 0)
(20.2135 -0.00366616 0)
(20.9903 -0.00341036 0)
(21.7707 -0.00515753 0)
(23.5465 -0.00890531 0)
(26.5896 -0.00813684 0)
(28.2863 -0.00348387 0)
(28.7782 -0.0010046 0)
(28.9697 -0.00047616 0)
(29.1292 -0.000387969 0)
(29.2796 -0.000311244 0)
(29.398 -0.000231736 0)
(29.4968 -0.000167202 0)
(29.5672 -0.000126138 0)
(29.6358 -9.97692e-05 0)
(29.6856 -3.99871e-05 0)
(-1.37781 0.281792 0)
(-7.039 0.310226 0)
(-10.8136 0.115639 0)
(-10.4312 -0.0730746 0)
(-7.94659 -0.104884 0)
(-6.40825 -0.0539482 0)
(-5.67404 -0.0273635 0)
(-5.20467 -0.0259298 0)
(-4.51279 -0.0428037 0)
(-3.07151 -0.0653801 0)
(-0.782641 -0.070993 0)
(1.55276 -0.0708488 0)
(4.02471 -0.0663184 0)
(6.52829 -0.0599741 0)
(8.85834 -0.0533724 0)
(11.0936 -0.0567429 0)
(13.9534 -0.0564737 0)
(16.8901 -0.0386142 0)
(18.4716 -0.0196353 0)
(19.4045 -0.0128352 0)
(20.1913 -0.011025 0)
(20.9746 -0.0101869 0)
(21.746 -0.0150982 0)
(23.4232 -0.0264978 0)
(26.4679 -0.0247978 0)
(28.2534 -0.0107506 0)
(28.7774 -0.00308102 0)
(28.9711 -0.00142855 0)
(29.1294 -0.00116098 0)
(29.2793 -0.000933172 0)
(29.3977 -0.000696214 0)
(29.497 -0.000502683 0)
(29.5676 -0.000378686 0)
(29.6361 -0.000299436 0)
(29.686 -0.000120289 0)
(-1.42323 0.47064 0)
(-7.03981 0.510837 0)
(-10.6531 0.186741 0)
(-10.1272 -0.125865 0)
(-7.63679 -0.174193 0)
(-6.13933 -0.0892575 0)
(-5.44198 -0.0447432 0)
(-5.07671 -0.040067 0)
(-4.50671 -0.0668648 0)
(-3.15031 -0.10556 0)
(-0.917089 -0.117054 0)
(1.43652 -0.119159 0)
(3.92317 -0.110734 0)
(6.4298 -0.0994239 0)
(8.74374 -0.0874128 0)
(10.8928 -0.0902986 0)
(13.545 -0.0938526 0)
(16.6279 -0.0662251 0)
(18.381 -0.0341011 0)
(19.3731 -0.0217721 0)
(20.176 -0.018464 0)
(20.9667 -0.0169568 0)
(21.7303 -0.0246322 0)
(23.3166 -0.0436337 0)
(26.3573 -0.0416522 0)
(28.2227 -0.0184034 0)
(28.777 -0.00527383 0)
(28.9728 -0.00238497 0)
(29.1298 -0.00192884 0)
(29.2791 -0.00155371 0)
(29.3977 -0.00116161 0)
(29.4973 -0.000839295 0)
(29.5681 -0.000631386 0)
(29.6365 -0.000499003 0)
(29.6865 -0.000200778 0)
(-1.45053 0.660509 0)
(-6.99263 0.707224 0)
(-10.4338 0.251808 0)
(-9.73451 -0.182582 0)
(-7.25595 -0.243065 0)
(-5.82406 -0.122927 0)
(-5.18647 -0.0596541 0)
(-4.91716 -0.0510885 0)
(-4.44234 -0.0885907 0)
(-3.14838 -0.14399 0)
(-0.986313 -0.162769 0)
(1.38702 -0.167806 0)
(3.89039 -0.155514 0)
(6.39768 -0.139183 0)
(8.6903 -0.121312 0)
(10.7685 -0.123218 0)
(13.2186 -0.130961 0)
(16.3507 -0.096336 0)
(18.2806 -0.0500409 0)
(19.3436 -0.0311826 0)
(20.1677 -0.0260481 0)
(20.9665 -0.0237334 0)
(21.7235 -0.033792 0)
(23.2267 -0.0604162 0)
(26.2577 -0.0587692 0)
(28.194 -0.0264027 0)
(28.7769 -0.0075597 0)
(28.9748 -0.00334352 0)
(29.1306 -0.00269221 0)
(29.2793 -0.00217308 0)
(29.3979 -0.00162799 0)
(29.4979 -0.00117702 0)
(29.5688 -0.000884155 0)
(29.637 -0.000698397 0)
(29.687 -0.000281362 0)
(-1.45957 0.849468 0)
(-6.90184 0.897799 0)
(-10.1512 0.310028 0)
(-9.25238 -0.242705 0)
(-6.80314 -0.310082 0)
(-5.45365 -0.154165 0)
(-4.89555 -0.0722163 0)
(-4.71006 -0.0598278 0)
(-4.3076 -0.108524 0)
(-3.05823 -0.180788 0)
(-0.973569 -0.207905 0)
(1.42816 -0.216833 0)
(3.94936 -0.200615 0)
(6.45235 -0.178811 0)
(8.71618 -0.154575 0)
(10.734 -0.15429 0)
(12.9985 -0.166307 0)
(16.0635 -0.127824 0)
(18.1665 -0.0675399 0)
(19.3158 -0.0411564 0)
(20.1672 -0.0337968 0)
(20.9747 -0.0305253 0)
(21.7258 -0.0426207 0)
(23.1528 -0.0768492 0)
(26.1688 -0.0760612 0)
(28.1674 -0.0347096 0)
(28.7773 -0.00993657 0)
(28.9771 -0.0043045 0)
(29.1316 -0.00345079 0)
(29.2797 -0.00279098 0)
(29.3983 -0.00209515 0)
(29.4986 -0.0015157 0)
(29.5696 -0.00113682 0)
(29.6376 -0.000897436 0)
(29.6875 -0.000361878 0)
(-1.45067 1.03593 0)
(-6.77071 1.08135 0)
(-9.80353 0.360777 0)
(-8.6963 -0.306333 0)
(-6.28236 -0.37505 0)
(-5.01553 -0.182675 0)
(-4.55504 -0.0824065 0)
(-4.43903 -0.0667532 0)
(-4.08857 -0.1272 0)
(-2.86656 -0.216216 0)
(-0.852774 -0.252401 0)
(1.59787 -0.266354 0)
(4.13763 -0.245805 0)
(6.6245 -0.217934 0)
(8.84645 -0.186967 0)
(10.8102 -0.183635 0)
(12.909 -0.199213 0)
(15.7978 -0.159496 0)
(18.041 -0.0865448 0)
(19.2913 -0.0517872 0)
(20.1762 -0.0417358 0)
(20.9923 -0.0373346 0)
(21.7375 -0.0511433 0)
(23.0938 -0.0929391 0)
(26.0904 -0.0934793 0)
(28.143 -0.0432877 0)
(28.7781 -0.0123985 0)
(28.9798 -0.00526765 0)
(29.133 -0.00420445 0)
(29.2804 -0.00340716 0)
(29.3989 -0.00256293 0)
(29.4996 -0.00185517 0)
(29.5706 -0.00138922 0)
(29.6384 -0.00109594 0)
(29.6881 -0.000442183 0)
(-1.42425 1.21858 0)
(-6.60186 1.25682 0)
(-9.39325 0.403707 0)
(-8.09364 -0.373539 0)
(-5.70656 -0.438249 0)
(-4.49753 -0.20843 0)
(-4.15014 -0.0902146 0)
(-4.08821 -0.072332 0)
(-3.77162 -0.145103 0)
(-2.55786 -0.250732 0)
(-0.591327 -0.296959 0)
(1.93922 -0.316914 0)
(4.49904 -0.291152 0)
(6.9529 -0.256453 0)
(9.11363 -0.218525 0)
(11.027 -0.211492 0)
(12.9766 -0.229687 0)
(15.6075 -0.190091 0)
(17.9172 -0.106795 0)
(19.2739 -0.0631631 0)
(20.1973 -0.0498914 0)
(21.021 -0.044156 0)
(21.7592 -0.0593759 0)
(23.0486 -0.108689 0)
(26.0218 -0.110985 0)
(28.1208 -0.0521044 0)
(28.7792 -0.0149395 0)
(28.9828 -0.0062327 0)
(29.1347 -0.00495306 0)
(29.2813 -0.00402138 0)
(29.3997 -0.00303119 0)
(29.5007 -0.0021953 0)
(29.5717 -0.00164119 0)
(29.6393 -0.00129374 0)
(29.6888 -0.000522135 0)
(-1.38087 1.39619 0)
(-6.39782 1.42329 0)
(-8.92744 0.438909 0)
(-7.47219 -0.444109 0)
(-5.09897 -0.500514 0)
(-3.89704 -0.231877 0)
(-3.66874 -0.0956991 0)
(-3.6458 -0.0769925 0)
(-3.34911 -0.162673 0)
(-2.12423 -0.284942 0)
(-0.165003 -0.342456 0)
(2.46805 -0.368878 0)
(5.0527 -0.336672 0)
(7.46691 -0.294268 0)
(9.55223 -0.249316 0)
(11.4198 -0.238095 0)
(13.2424 -0.257788 0)
(15.5554 -0.218593 0)
(17.8233 -0.127689 0)
(19.2722 -0.075285 0)
(20.2351 -0.0582734 0)
(21.0633 -0.0509738 0)
(21.7919 -0.0673226 0)
(23.0162 -0.124096 0)
(25.9627 -0.128541 0)
(28.1009 -0.0611299 0)
(28.7809 -0.0175541 0)
(28.9861 -0.00719938 0)
(29.1368 -0.00569649 0)
(29.2826 -0.00463341 0)
(29.4008 -0.00349978 0)
(29.5022 -0.00253591 0)
(29.5729 -0.00189254 0)
(29.6403 -0.00149065 0)
(29.6894 -0.000601591 0)
(-1.32114 1.5676 0)
(-6.16122 1.57998 0)
(-8.41521 0.46685 0)
(-6.84753 -0.517498 0)
(-4.48643 -0.562928 0)
(-3.22971 -0.254009 0)
(-3.10604 -0.0991099 0)
(-3.10945 -0.0810543 0)
(-2.82633 -0.180205 0)
(-1.57784 -0.319483 0)
(0.415758 -0.389484 0)
(3.14172 -0.421901 0)
(5.75648 -0.382186 0)
(8.14884 -0.331258 0)
(10.1717 -0.279376 0)
(12.0051 -0.263731 0)
(13.7484 -0.283315 0)
(15.7073 -0.244387 0)
(17.8036 -0.148337 0)
(19.301 -0.0879921 0)
(20.2962 -0.0668527 0)
(21.1229 -0.0577545 0)
(21.8372 -0.0749718 0)
(22.996 -0.139151 0)
(25.9125 -0.146115 0)
(28.0834 -0.0703361 0)
(28.783 -0.020236 0)
(28.9898 -0.00816734 0)
(29.1392 -0.00643461 0)
(29.2842 -0.00524301 0)
(29.4021 -0.00396853 0)
(29.5038 -0.00287687 0)
(29.5743 -0.00214311 0)
(29.6414 -0.0016865 0)
(29.6901 -0.000680407 0)
(-1.24575 1.73174 0)
(-5.89487 1.72631 0)
(-7.86491 0.488136 0)
(-6.22021 -0.592906 0)
(-3.8888 -0.626262 0)
(-2.53035 -0.276197 0)
(-2.4695 -0.101015 0)
(-2.49023 -0.0846637 0)
(-2.22272 -0.197746 0)
(-0.950262 -0.354707 0)
(1.10012 -0.437893 0)
(3.88597 -0.475523 0)
(6.53143 -0.427729 0)
(8.92893 -0.367658 0)
(10.9286 -0.308876 0)
(12.7475 -0.288857 0)
(14.4752 -0.306211 0)
(16.1221 -0.26698 0)
(17.9174 -0.167699 0)
(19.3841 -0.100901 0)
(20.3909 -0.0755311 0)
(21.2051 -0.0644373 0)
(21.8972 -0.0822926 0)
(22.9875 -0.153835 0)
(25.8708 -0.163673 0)
(28.0683 -0.0796967 0)
(28.7856 -0.0229792 0)
(28.9939 -0.0091362 0)
(29.1419 -0.00716726 0)
(29.2861 -0.00584993 0)
(29.4036 -0.00443728 0)
(29.5057 -0.00321797 0)
(29.5759 -0.00239268 0)
(29.6427 -0.00188109 0)
(29.6909 -0.000758435 0)
(-1.15544 1.88758 0)
(-5.60152 1.86186 0)
(-7.28238 0.503236 0)
(-5.5817 -0.669372 0)
(-3.31275 -0.690557 0)
(-1.84051 -0.299736 0)
(-1.78054 -0.102316 0)
(-1.81158 -0.0878476 0)
(-1.56515 -0.215169 0)
(-0.277768 -0.390764 0)
(1.83039 -0.487476 0)
(4.64921 -0.529468 0)
(7.32239 -0.473534 0)