/*--------------------------------*- C++ -*----------------------------------*\
| =========                 |                                                 |
| \\      /  F ield         | OpenFOAM: The Open Source CFD Toolbox           |
|  \\    /   O peration     | Version:  v1912                                 |
|   \\  /    A nd           | Website:  www.openfoam.com                      |
|    \\/     M anipulation  |                                                 |
\*---------------------------------------------------------------------------*/
FoamFile
{
    version     2.0;
    format      ascii;
    class       volScalarField;
    location    "110";
    object      yPlus;
}
// * * * * * * * * * * * * * * * * * * * * * * * * * * * * * * * * * * * * * //

dimensions      [0 0 0 0 0 0 0];


internalField   uniform 0;

boundaryField
{
    inlet
    {
        type            calculated;
        value           uniform 0;
    }
    outlet
    {
        type            calculated;
        value           uniform 0;
    }
    lowerSymmetry
    {
        type            symmetryPlane;
    }
    obstical
    {
        type            calculated;
        value           nonuniform List<scalar> 
88
(
509.431
511.1
514.868
520.966
529.327
539.847
552.418
566.931
583.275
601.341
621.021
642.207
664.794
688.676
713.753
739.927
767.112
795.23
824.214
854.008
884.568
915.86
947.858
980.546
1013.92
1047.97
1082.71
1118.14
1154.29
1191.17
1228.8
1267.21
1306.41
1346.43
1387.29
1429.01
1471.61
1515.12
1559.55
1604.93
1651.28
1698.66
1747.45
1801.54
125.673
132.374
139.931
147.608
155.25
162.756
170.065
177.136
183.943
190.473
196.719
202.68
208.361
213.769
218.913
223.809
228.475
232.938
237.229
241.384
245.448
249.467
253.413
257.197
260.79
264.142
267.195
269.899
272.199
274.051
275.427
276.341
276.821
276.822
276.05
273.825
269.065
260.472
246.771
226.889
199.966
165.319
122.234
69.5306
)
;
    }
    obsticalTop
    {
        type            calculated;
        value           nonuniform List<scalar> 
20
(
52.658
37.0253
45.8982
52.3231
55.3473
57.1191
57.8316
57.6534
56.8276
55.4941
53.6411
51.1749
48.0183
44.012
39.1334
32.7706
26.7124
17.6871
15.5256
9.55082
)
;
    }
    top
    {
        type            calculated;
        value           uniform 0;
    }
    defaultFaces
    {
        type            empty;
    }
}


// ************************************************************************* //
