/*--------------------------------*- C++ -*----------------------------------*\
| =========                 |                                                 |
| \\      /  F ield         | OpenFOAM: The Open Source CFD Toolbox           |
|  \\    /   O peration     | Version:  v1912                                 |
|   \\  /    A nd           | Website:  www.openfoam.com                      |
|    \\/     M anipulation  |                                                 |
\*---------------------------------------------------------------------------*/
FoamFile
{
    version     2.0;
    format      ascii;
    class       volScalarField;
    location    "600";
    object      mag(U);
}
// * * * * * * * * * * * * * * * * * * * * * * * * * * * * * * * * * * * * * //

dimensions      [0 1 -1 0 0 0 0];


internalField   nonuniform List<scalar> 
12441
(
29.9988
29.9852
29.9555
29.9104
29.8513
29.7762
29.6831
29.5672
29.4232
29.2431
29.0256
28.7542
28.3986
27.981
27.4196
26.6374
25.592
23.9094
21.5372
17.8283
12.0456
5.77747
29.9988
29.9852
29.9555
29.9104
29.8513
29.7762
29.6831
29.5672
29.4233
29.2431
29.0257
28.7559
28.3972
27.9798
27.4179
26.6378
25.5936
23.9099
21.538
17.8289
12.0515
5.80749
29.9988
29.9852
29.9554
29.9104
29.8513
29.7762
29.6831
29.5672
29.4233
29.2431
29.0259
28.7558
28.397
27.9831
27.4192
26.639
25.5948
23.9147
21.5423
17.8319
12.0668
5.86717
29.9988
29.9852
29.9555
29.9104
29.8513
29.7762
29.6831
29.5672
29.4233
29.2431
29.0258
28.756
28.3974
27.9796
27.4187
26.6393
25.5972
23.92
21.5524
17.8417
12.0929
5.95635
29.9988
29.9852
29.9555
29.9104
29.8513
29.7762
29.6831
29.5672
29.4233
29.2431
29.026
28.7558
28.3972
27.9833
27.42
26.6404
25.5996
23.9252
21.565
17.8589
12.1315
6.07427
29.9988
29.9852
29.9555
29.9104
29.8513
29.7763
29.6831
29.5673
29.4233
29.2432
29.0259
28.7562
28.398
27.9794
27.4201
26.6412
25.6026
23.9304
21.5796
17.8846
12.1839
6.21992
29.9988
29.9852
29.9555
29.9104
29.8513
29.7763
29.6831
29.5673
29.4234
29.2432
29.0261
28.7557
28.3977
27.984
27.4213
26.6425
25.6062
23.9357
21.5998
17.9224
12.2528
6.39227
29.9988
29.9852
29.9555
29.9104
29.8514
29.7763
29.6832
29.5673
29.4234
29.2434
29.026
28.7565
28.3992
27.9795
27.4217
26.643
25.6119
23.9425
21.6352
17.98
12.3416
6.59031
29.9988
29.9852
29.9555
29.9104
29.8513
29.7763
29.6832
29.5674
29.4235
29.2434
29.0262
28.7557
28.3981
27.9849
27.4248
26.6437
25.6213
23.9571
21.7003
18.0663
12.4537
6.81309
29.9988
29.9852
29.9555
29.9104
29.8514
29.7763
29.6832
29.5674
29.4235
29.2435
29.0261
28.757
28.4013
27.9806
27.4264
26.6421
25.6364
23.9904
21.7982
18.1847
12.5918
7.05975
29.9988
29.9852
29.9555
29.9104
29.8514
29.7763
29.6832
29.5674
29.4236
29.2436
29.0263
28.7562
28.3988
27.9812
27.4257
26.6407
25.6572
24.0437
21.9105
18.3278
12.7564
7.32947
29.9988
29.9852
29.9555
29.9104
29.8514
29.7764
29.6833
29.5675
29.4236
29.2438
29.0261
28.7577
28.4035
27.9756
27.4211
26.6414
25.6774
24.1003
22.0149
18.482
12.9452
7.62148
29.9988
29.9852
29.9555
29.9104
29.8514
29.7764
29.6833
29.5675
29.4236
29.2439
29.026
28.7577
28.4052
27.9695
27.4163
26.6441
25.693
24.1469
22.1017
18.6354
13.1543
7.93486
29.9988
29.9852
29.9555
29.9104
29.8514
29.7764
29.6833
29.5676
29.4237
29.2441
29.0257
28.7594
28.4091
27.9624
27.4133
26.6469
25.7037
24.1815
22.1715
18.7809
13.3788
8.26856
29.9988
29.9852
29.9555
29.9104
29.8514
29.7764
29.6833
29.5676
29.4237
29.2444
29.0252
28.7602
28.4057
27.9573
27.4118
26.6492
25.7106
24.2063
22.2282
18.9155
13.614
8.62144
29.9988
29.9853
29.9555
29.9105
29.8514
29.7765
29.6834
29.5677
29.4238
29.2446
29.0246
28.7595
28.401
27.9541
27.411
26.6511
25.7151
24.2245
22.2756
19.0391
13.8565
8.99232
29.9988
29.9852
29.9555
29.9104
29.8514
29.7764
29.6834
29.5677
29.4239
29.2447
29.0246
28.7557
28.3965
27.9525
27.4105
26.6525
25.7179
24.2381
22.3167
19.1527
14.1034
9.38005
29.9988
29.9853
29.9555
29.9105
29.8515
29.7765
29.6834
29.5678
29.424
29.2446
29.0254
28.7502
28.3934
27.9515
27.4103
26.6539
25.7196
24.2488
22.354
19.258
14.353
9.78356
29.9988
29.9852
29.9555
29.9104
29.8514
29.7765
29.6835
29.5678
29.4241
29.2445
29.0265
28.7452
28.3915
27.9511
27.4101
26.655
25.7206
24.2578
22.3888
19.3568
14.6043
10.2019
29.9988
29.9853
29.9555
29.9105
29.8515
29.7765
29.6835
29.5679
29.4243
29.2446
29.027
28.7415
28.3903
27.9508
27.4101
26.656
25.7214
24.2658
22.4227
19.4506
14.8568
10.6343
29.9988
29.9853
29.9555
29.9105
29.8515
29.7765
29.6835
29.5679
29.4243
29.2451
29.0262
28.7389
28.3897
27.9508
27.4102
26.6571
25.7223
24.2736
22.4562
19.5409
15.1107
11.0802
29.9988
29.9853
29.9555
29.9105
29.8515
29.7766
29.6836
29.5681
29.4242
29.246
29.0237
28.7371
28.3892
27.9508
27.4104
26.6583
25.7235
24.2817
22.4902
19.629
15.3663
11.539
29.9988
29.9853
29.9555
29.9105
29.8515
29.7766
29.6836
29.5682
29.4241
29.247
29.0207
28.7361
28.389
27.9511
27.4106
26.6597
25.7252
24.2902
22.5251
19.7159
15.6243
12.0103
29.9988
29.9853
29.9556
29.9105
29.8516
29.7767
29.6837
29.5683
29.4241
29.2477
29.0184
28.7353
28.3889
27.9513
27.4111
26.6614
25.7277
24.2996
22.5608
19.8023
15.8853
12.494
29.9988
29.9853
29.9555
29.9105
29.8515
29.7767
29.6837
29.5684
29.4242
29.2479
29.0167
28.7348
28.3889
27.9516
27.4117
26.6635
25.7313
24.3099
22.5976
19.8892
16.1504
12.9899
29.9988
29.9853
29.9556
29.9105
29.8516
29.7767
29.6838
29.5684
29.4244
29.2478
29.0156
28.7345
28.3889
27.952
27.4125
26.6659
25.7359
24.3213
22.6354
19.9769
16.4204
13.4981
29.9988
29.9853
29.9555
29.9105
29.8516
29.7767
29.6838
29.5684
29.4248
29.2469
29.0148
28.7343
28.3891
27.9525
27.4136
26.6688
25.7416
24.3338
22.674
20.0658
16.6964
14.0185
29.9988
29.9853
29.9556
29.9106
29.8516
29.7768
29.6839
29.5684
29.4254
29.2454
29.0143
28.7342
28.3893
27.953
27.4149
26.6722
25.7483
24.3474
22.7136
20.1559
16.9794
14.5515
29.9988
29.9853
29.9555
29.9105
29.8516
29.7768
29.6839
29.5684
29.426
29.2436
29.0139
28.7343
28.3894
27.9537
27.4162
26.6761
25.756
24.3622
22.754
20.2473
17.2698
15.0973
29.9988
29.9853
29.9556
29.9106
29.8517
29.7768
29.6841
29.5684
29.4266
29.2421
29.0137
28.7344
28.3898
27.9544
27.4179
26.6803
25.7646
24.3782
22.7953
20.3399
17.5684
15.6562
29.9988
29.9853
29.9555
29.9105
29.8516
29.7768
29.6841
29.5684
29.427
29.2409
29.0137
28.7344
28.39
27.9551
27.4198
26.6849
25.774
24.3957
22.8373
20.4334
17.8754
16.2285
29.9988
29.9853
29.9556
29.9106
29.8517
29.7769
29.6842
29.5685
29.4273
29.24
29.0136
28.7346
28.3903
27.956
27.4218
26.6899
25.7843
24.4143
22.8803
20.5276
18.1907
16.8145
29.9988
29.9853
29.9556
29.9106
29.8517
29.7769
29.6842
29.5685
29.4275
29.2395
29.0137
28.7347
28.3907
27.9568
27.424
26.6951
25.7952
24.4345
22.9242
20.6223
18.5141
17.4148
29.9988
29.9853
29.9556
29.9106
29.8518
29.777
29.6843
29.5687
29.4275
29.2392
29.0138
28.735
28.391
27.9577
27.4263
26.7006
25.8069
24.4561
22.9691
20.7172
18.8451
18.0296
29.9988
29.9853
29.9556
29.9106
29.8517
29.777
29.6843
29.5689
29.4274
29.2391
29.0139
28.7352
28.3915
27.9587
27.4288
26.7065
25.8194
24.479
23.0154
20.8125
19.1833
18.6593
29.9988
29.9853
29.9556
29.9107
29.8518
29.7771
29.6844
29.5691
29.427
29.2391
29.014
28.7354
28.3918
27.9598
27.4314
26.7126
25.8325
24.5035
23.0628
20.9082
19.5286
19.3044
29.9988
29.9853
29.9556
29.9106
29.8518
29.7771
29.6844
29.5696
29.4258
29.2392
29.0142
28.7356
28.3923
27.9609
27.434
26.7188
25.8462
24.5293
23.112
21.0043
19.8807
19.9651
29.9988
29.9853
29.9556
29.9107
29.8518
29.7772
29.6843
29.5706
29.4221
29.2393
29.0144
28.736
28.3927
27.962
27.4368
26.7253
25.8605
24.5565
23.1628
21.1011
20.2398
20.6419
29.9988
29.9853
29.9556
29.9106
29.8518
29.7773
29.6841
29.5713
29.4197
29.2395
29.0146
28.7362
28.3932
27.9631
27.4397
26.732
25.8754
24.585
23.2158
21.1984
20.606
21.3351
29.9988
29.9853
29.9556
29.9107
29.8519
29.7774
29.6842
29.5715
29.4186
29.2396
29.015
28.7365
28.3936
27.9642
27.4426
26.7389
25.8908
24.6147
23.271
21.296
20.9792
22.0453
29.9988
29.9853
29.9556
29.9107
29.8518
29.7773
29.6845
29.5705
29.418
29.2398
29.0152
28.7367
28.3941
27.9654
27.4455
26.7459
25.9066
24.6455
23.3289
21.3932
21.3588
22.7729
29.9988
29.9854
29.9557
29.9107
29.852
29.7771
29.686
29.5644
29.4176
29.2399
29.0154
28.7371
28.3945
27.9665
27.4485
26.753
25.9229
24.6773
23.3899
21.4894
21.742
23.5187
29.9988
29.9853
29.9556
29.9107
29.852
29.7768
29.6872
29.5602
29.4173
29.24
29.0155
28.7373
28.395
27.9676
27.4516
26.7603
25.9395
24.71
23.4543
21.5839
22.1221
24.2893
29.9988
29.9854
29.9557
29.9107
29.8522
29.7768
29.6875
29.5588
29.4171
29.2401
29.0157
28.7375
28.3953
27.9688
27.4547
26.7677
25.9563
24.7433
23.5227
21.6766
22.4883
25.1457
1.04935
0.0580508
0.750686
0.753601
0.912844
0.524434
0.5314
0.350362
0.513929
0.449698
0.60941
0.558044
0.491947
0.28092
0.0919485
0.3156
0.884797
1.66135
2.63684
3.81394
5.17374
6.67401
8.21767
9.70027
11.0955
12.4131
13.6751
14.9014
16.1141
17.2944
18.5049
19.7223
20.3801
22.0846
29.0985
1.05386
0.0742392
0.740924
0.738272
0.898412
0.510142
0.519048
0.334933
0.497972
0.438419
0.613495
0.568389
0.489024
0.251868
0.0619495
0.321558
0.869201
1.6486
2.63952
3.82591
5.17796
6.6661
8.20494
9.69002
11.0909
12.4113
13.6734
14.898
16.109
17.2872
18.4945
19.7136
20.3995
21.9615
29.04
1.05989
0.103945
0.729999
0.718323
0.875468
0.487915
0.498633
0.313298
0.477677
0.425339
0.615717
0.57204
0.472626
0.211184
0.0314776
0.324197
0.85396
1.64215
2.65174
3.84927
5.1948
6.67179
8.20754
9.69537
11.1013
12.4242
13.686
14.9086
16.1172
17.2921
18.495
19.7139
20.427
21.8577
28.9844
1.06765
0.138836
0.71782
0.693368
0.844514
0.458265
0.471483
0.286267
0.451932
0.406741
0.612527
0.568941
0.448147
0.163516
0.0170218
0.331393
0.842791
1.64126
2.67232
3.88432
5.2265
6.6938
8.22692
9.71755
11.1282
12.4533
13.7144
14.9343
16.1396
17.3098
18.5071
19.7237
20.4633
21.7725
28.9313
1.07724
0.175804
0.704244
0.663147
0.805997
0.421571
0.438241
0.253997
0.420683
0.382477
0.602982
0.558177
0.414982
0.108567
0.0554432
0.345149
0.837641
1.64809
2.7045
3.93481
5.27642
6.73523
8.26595
9.75933
11.1747
12.5015
13.7611
14.9773
16.1779
17.3417
18.5318
19.7439
20.5091
21.7053
28.8803
1.08865
0.213724
0.689104
0.627272
0.760049
0.378
0.399132
0.216311
0.383609
0.35222
0.586121
0.538825
0.373095
0.0487718
0.105928
0.367526
0.841901
1.66671
2.75337
4.0063
5.34969
6.80083
8.32912
9.82516
11.245
12.5729
13.8301
15.0409
16.2352
17.3902
18.5711
19.7758
20.5656
21.6559
28.8311
1.10174
0.2521
0.672177
0.585104
0.706422
0.327438
0.35393
0.172737
0.340083
0.315327
0.560957
0.510061
0.322629
0.0360248
0.165095
0.400526
0.859494
1.70269
2.82623
4.10681
5.45391
6.89775
8.42324
9.92179
11.3462
12.6745
13.9274
15.1306
16.3156
17.4587
18.6275
19.8214
20.6346
21.6248
28.7835
1.11615
0.290674
0.653173
0.535811
0.644652
0.269704
0.302094
0.122587
0.289207
0.270818
0.526267
0.470854
0.263196
0.10925
0.234611
0.446393
0.894188
1.76245
2.93268
4.24792
5.60048
7.03668
8.55842
10.0591
11.4882
12.8161
14.0624
15.2539
16.4254
17.5519
18.7051
19.8836
20.7181
21.6127
28.7376
1.13139
0.329278
0.631706
0.478515
0.574282
0.204948
0.242943
0.0650632
0.229893
0.21743
0.480401
0.419666
0.193665
0.198652
0.317624
0.508035
0.94972
1.85272
3.08476
4.44614
5.80657
7.23372
8.74955
10.2514
11.6854
13.0125
14.2488
15.4225
16.5733
17.6769
18.809
19.966
20.819
21.6217
28.6935
1.14671
0.367787
0.607273
0.412479
0.495062
0.134852
0.175863
0.00283002
0.160988
0.15375
0.421192
0.354272
0.113214
0.303838
0.418426
0.589349
1.03042
1.9808
3.29652
4.72379
6.09753
7.51294
9.01849
10.5191
11.9575
13.2836
14.5065
15.6535
16.7724
17.8429
18.9467
20.0738
20.9408
21.6549
28.6515
1.16115
0.406081
0.579224
0.337293
0.407119
0.0708658
0.100874
0.0756357
0.0817384
0.0789853
0.345945
0.271732
0.0440364
0.429196
0.542433
0.695505
1.14196
2.15511
3.58264
5.10686
6.50716
7.90822
9.39579
10.8898
12.3312
13.6563
14.8623
15.9709
17.0404
18.063
19.1277
20.2139
21.088
21.717
28.6124
1.17365
0.444032
0.546738
0.253053
0.311203
0.080857
0.028527
0.160002
0.0223428
0.0287042
0.251541
0.168571
0.127851
0.580535
0.696385
0.833291
1.29194
2.38569
3.95537
5.61555
7.06929
8.45882
9.91836
11.3964
12.8362
14.1605
15.3481
16.4049
17.4009
18.354
19.3649
20.3953
21.2662
21.8148
28.5769
1.18295
0.481491
0.508847
0.160472
0.209308
0.16308
0.0870684
0.254299
0.120025
0.124949
0.13498
0.0451967
0.274357
0.764919
0.888648
1.01155
1.49063
2.68445
4.42102
6.24937
7.79432
9.1893
10.6154
12.066
13.4963
14.8196
15.9902
16.9849
17.8796
18.7359
19.6737
20.6292
21.482
21.9578
28.5467
1.18778
0.518283
0.464527
0.0609281
0.108728
0.261511
0.188171
0.35836
0.2386
0.248225
0.0273524
0.125613
0.457991
0.990418
1.12941
1.24161
1.75112
3.06428
4.97842
6.98239
8.64773
10.0784
11.4805
12.8984
14.3116
15.6322
16.79
17.721
18.4936
19.2266
20.0699
20.9281
21.7427
22.1581
28.5234
1.1869
0.554213
0.412901
0.0439877
0.0716378
0.366044
0.29781
0.471408
0.370744
0.390577
0.186352
0.319089
0.683355
1.26505
1.43014
1.53706
2.08872
3.53653
5.62092
7.77978
9.56702
11.0577
12.4576
13.8501
15.2445
16.5605
17.7075
18.5819
19.2326
19.8312
20.5641
21.3039
22.0552
22.4297
28.5099
1.17923
0.589069
0.353609
0.151534
0.162073
0.473199
0.412868
0.59198
0.514823
0.551229
0.38922
0.5523
0.955202
1.59443
1.80109
1.91178
2.51743
4.10602
6.339
8.61808
10.5045
12.0565
13.4711
14.8518
16.2333
17.5434
18.675
19.4989
20.0495
20.5297
21.1522
21.7619
22.4239
22.7851
28.5088
1.16399
0.622657
0.287441
0.259827
0.274718
0.580351
0.530691
0.717972
0.668508
0.728437
0.622027
0.825038
1.27497
1.9782
2.24594
2.37438
3.04315
4.76606
7.12141
9.48814
11.4434
13.0393
14.4683
15.8459
17.2215
18.5241
19.629
20.3998
20.8781
21.2768
21.8091
22.2947
22.8479
23.2295
28.5234
1.14077
0.654811
0.217848
0.366569
0.388012
0.685039
0.648468
0.846738
0.828672
0.919056
0.880251
1.13386
1.63872
2.40766
2.7553
2.91995
3.65608
5.49776
7.95457
10.3873
12.3845
13.9994
15.4296
16.8029
18.1756
19.4666
20.5306
21.2392
21.6649
22.0202
22.4931
22.8785
23.3185
23.7525
28.5559
1.10964
0.685344
0.155882
0.469882
0.497209
0.784955
0.763365
0.975253
0.99158
1.11863
1.15664
1.47093
2.03666
2.86682
3.30521
3.52543
4.33109
6.27737
8.82474
11.3116
13.3306
14.9404
16.3536
17.7154
19.0829
20.3547
21.3636
22.0006
22.3843
22.722
23.1624
23.4789
23.8191
24.3266
28.6075
1.07125
0.714141
0.131112
0.56812
0.599768
0.878114
0.872764
1.10039
1.15321
1.32176
1.44161
1.82461
2.45488
3.33786
3.86604
4.1571
5.03799
7.0853
9.72079
12.2547
14.2796
15.8634
17.2429
18.5846
19.9411
21.1835
22.1243
22.6847
23.0319
23.3648
23.7886
24.0631
24.3295
24.9157
28.6769
1.02672
0.741144
0.168062
0.659955
0.694105
0.963073
0.974547
1.21924
1.30967
1.52273
1.72471
2.18159
2.87838
3.80603
4.41417
4.78577
5.75517
7.91211
10.6373
13.2091
15.224
16.7649
18.0985
19.413
20.7513
21.9523
22.8152
23.2985
23.6138
23.9462
24.3589
24.6089
24.8308
25.4873
28.7609
0.977681
0.766361
0.238461
0.744437
0.779368
1.03908
1.06731
1.32955
1.45764
1.71625
1.99628
2.52903
3.29342
4.26216
4.93864
5.39646
6.47338
8.75643
11.5724
14.1687
16.1554
17.6384
18.9185
20.2022
21.5146
22.6618
23.4403
23.8506
24.1387
24.4702
24.8719
25.1066
25.3098
26.0208
28.8545
0.926218
0.789907
0.316203
0.820988
0.855304
1.10601
1.15041
1.42993
1.59475
1.89817
2.24919
2.85677
3.68895
4.70072
5.43764
5.98702
7.19421
9.62176
12.5259
15.1273
17.065
18.4779
19.7009
20.9521
22.2312
23.3134
24.0045
24.3489
24.6148
24.9431
25.3314
25.5555
25.7589
26.5067
28.9524
0.87484
0.811983
0.391537
0.889363
0.922093
1.16427
1.22389
1.51988
1.71976
2.06596
2.47952
3.15838
4.05713
5.11826
5.91468
6.56275
7.92346
10.5109
13.4949
16.0787
17.9461
19.2787
20.4443
21.6627
22.9007
23.9082
24.513
24.8003
25.0485
25.371
25.7433
25.9592
26.1756
26.9426
29.0497
0.826472
0.832838
0.46113
0.949584
0.980196
1.21457
1.28822
1.59971
1.83245
2.21879
2.68677
3.43189
4.39428
5.51107
6.37293
7.13081
8.6689
11.4255
14.4738
17.0144
18.7916
20.0377
21.1484
22.3339
23.5226
24.4485
24.9707
25.2104
25.4451
25.7591
26.1137
26.3232
26.5601
27.3297
29.1424
0.784414
0.852719
0.524196
1.00194
1.03027
1.25774
1.34421
1.67022
1.93349
2.35724
2.87282
3.67892
4.7012
5.87708
6.81485
7.69802
9.43598
12.3631
15.4531
17.9254
19.5965
20.7537
21.8137
22.9654
24.0968
24.9371
25.3828
25.5839
25.8082
26.1116
26.4478
26.6528
26.9135
27.6706
29.228
0.752189
0.871819
0.581037
1.04698
1.07312
1.29473
1.39287
1.73258
2.02414
2.48293
3.04109
3.90379
4.98276
6.21724
7.24084
8.26933
10.2294
13.3199
16.4228
18.8018
20.3559
21.4271
22.4415
23.5574
24.6238
25.3772
25.7543
25.9249
26.141
26.4321
26.7504
26.9527
27.2374
27.9689
29.3051
0.733233
0.890225
0.632335
1.08546
1.10964
1.32654
1.4353
1.78811
2.10604
2.59808
3.19561
4.11211
5.24643
6.53788
7.65351
8.84938
11.0506
14.2883
17.3707
19.6356
21.0679
22.0588
23.0331
24.1098
25.1048
25.7728
26.0896
26.2368
26.4459
26.7237
27.0253
27.2267
27.5332
28.2276
29.3733
0.730384
0.907864
0.678797
1.11829
1.14079
1.35413
1.47265
1.83822
2.18106
2.70524
3.3406
4.31014
5.50103
6.84892
8.05896
9.4437
11.9016
15.2611
18.2865
20.4197
21.7312
22.651
23.5899
24.6228
25.5412
26.128
26.393
26.5225
26.7253
26.9892
27.2759
27.4777
27.8019
28.4506
29.4329
0.745341
0.924454
0.721
1.1464
1.16753
1.37846
1.5061
1.88434
2.25113
2.80711
3.48033
4.50441
5.75622
7.16322
8.46959
10.0621
12.7821
16.228
19.1597
21.1502
22.3473
23.2061
24.113
25.0965
25.9355
26.4466
26.6681
26.7845
26.981
27.231
27.5047
27.7081
28.0446
28.6415
29.4847
0.778387
0.939465
0.759378
1.17067
1.19073
1.40035
1.53672
1.92784
2.31823
2.90656
3.61926
4.70211
6.02298
7.49542
8.90224
10.719
13.6944
17.1806
19.9832
21.8245
22.9179
23.7268
24.6029
25.5315
26.2904
26.7328
26.9183
27.025
27.2149
27.4514
27.714
27.9194
28.2622
28.804
29.5294
0.828538
0.952124
0.794273
1.19189
1.21121
1.42059
1.56555
1.9701
2.38439
3.00662
3.76232
4.91167
6.31475
7.86381
9.37969
11.4349
14.6384
18.1088
20.7516
22.4432
23.4466
24.2154
25.0601
25.9285
26.609
26.9902
27.1464
27.2459
27.4289
27.6525
27.9056
28.113
28.4557
28.9415
29.5679
0.894072
0.96151
0.825989
1.21077
1.22971
1.43991
1.5936
2.01251
2.45184
3.11084
3.91551
5.14413
6.64966
8.29221
9.9306
12.2329
15.6141
19.0057
21.4639
23.0087
23.9363
24.6735
25.4846
26.2889
26.8945
27.2222
27.3549
27.449
27.6246
27.836
28.081
28.2897
28.6264
29.0576
29.6014
0.973101
0.966738
0.854845
1.22799
1.24693
1.45899
1.62188
2.05666
2.52313
3.22356
4.08677
5.41497
7.05393
8.81443
10.5927
13.1348
16.6146
19.8628
22.1208
23.5259
24.3911
25.1027
25.8769
26.6144
27.1502
27.4318
27.5459
27.6358
27.8036
28.0037
28.2416
28.4504
28.776
29.1553
29.6303
1.06401
0.967164
0.881177
1.24413
1.26351
1.47859
1.65154
2.10437
2.60147
3.35055
4.28744
5.74753
7.56658
9.47725
11.4098
14.1517
17.6277
20.6752
22.7266
23.9999
24.8135
25.5035
26.2371
26.9072
27.3793
27.6217
27.7213
27.8077
27.9674
28.1569
28.3885
28.5959
28.906
29.2373
29.6555
1.16569
0.962495
0.905329
1.25973
1.28014
1.49957
1.68394
2.15807
2.69117
3.50001
4.53463
6.17763
8.24292
10.3384
12.4204
15.2731
18.6323
21.4378
23.2857
24.4375
25.2071
25.8765
26.566
27.1701
27.585
27.7943
27.8827
27.9661
28.1173
28.2971
28.5224
28.7269
29.0184
29.3062
29.6775
1.27903
0.953112
0.927626
1.27531
1.29753
1.52296
1.72088
2.22105
2.79843
3.68427
4.85537
6.75914
9.14707
11.4409
13.6242
16.4587
19.6052
22.1494
23.804
24.8442
25.5741
26.2222
26.8649
27.4057
27.7699
27.9517
28.0315
28.1121
28.2547
28.4253
28.6444
28.8442
29.115
29.3642
29.6969
1.40615
0.939779
0.948375
1.2914
1.31651
1.55016
1.76482
2.29817
2.9327
3.92295
5.2933
7.563
10.3152
12.7619
14.9539
17.6467
20.525
22.8096
24.2861
25.2252
25.9171
26.5415
27.1355
27.6168
27.9367
28.0955
28.1689
28.2469
28.3807
28.5425
28.7551
28.9487
29.1977
29.413
29.7141
1.55059
0.923624
0.967876
1.30861
1.33816
1.58313
1.81941
2.39701
3.1093
4.24876
5.91748
8.65253
11.7006
14.1843
16.2916
18.7778
21.3804
23.4221
24.7365
25.5839
26.2382
26.8355
27.3801
27.8064
28.0876
28.2274
28.296
28.3716
28.4963
28.6497
28.8552
29.0413
29.2683
29.4542
29.7294
1.71719
0.906097
0.986449
1.32768
1.36397
1.62485
1.89045
2.53012
3.35465
4.71836
6.82296
10.0242
13.175
15.5661
17.5409
19.8194
22.1683
23.9898
25.1578
25.9231
26.5396
27.1059
27.601
27.9773
28.2248
28.3487
28.4137
28.4868
28.6025
28.7475
28.9455
29.1229
29.3283
29.4891
29.743
1.91135
0.888991
1.00448
1.34961
1.39619
1.68015
1.98773
2.72
3.71756
5.42891
8.08983
11.5745
14.6094
16.8253
18.6647
20.7665
22.8939
24.5171
25.5527
26.2439
26.823
27.3545
27.8008
28.1318
28.3499
28.4604
28.523
28.5936
28.6999
28.8368
29.0265
29.1945
29.3793
29.5187
29.7553
2.13769
0.874614
1.02249
1.37595
1.43857
1.75747
2.12936
3.01055
4.29295
6.51953
9.6863
13.154
15.9334
17.9535
19.6757
21.6313
23.5626
25.0063
25.9218
26.5473
27.0898
27.5834
27.9819
28.2721
28.4645
28.5637
28.6244
28.6925
28.7895
28.9181
29.099
29.2571
29.4226
29.5439
29.7664
2.40081
0.866113
1.04125
1.4092
1.49796
1.87342
2.35285
3.49545
5.25562
8.07891
11.4382
14.6474
17.1341
18.9749
20.5981
22.4271
24.181
25.4607
26.267
26.8334
27.341
27.7947
28.1468
28.4004
28.5699
28.6593
28.7186
28.7841
28.8718
28.9921
29.1636
29.3116
29.4594
29.5655
29.7765
2.71267
0.867817
1.06206
1.45391
1.58845
2.06505
2.74712
4.37713
6.80753
9.96688
13.1405
16.0032
18.2317
19.9239
21.4553
23.1612
24.7499
25.882
26.5896
27.1031
27.5774
27.9895
28.297
28.518
28.6672
28.7479
28.806
28.8691
28.9474
29.0593
29.221
29.359
29.4906
29.5839
29.7856
29.9988
29.9853
29.9556
29.9107
29.8523
29.777
29.6871
29.5585
29.417
29.24
29.0158
28.7377
28.3957
27.9696
27.4571
26.7735
25.9696
24.7699
23.5793
21.7481
22.7562
25.7934
29.9988
29.9853
29.9557
29.9108
29.8523
29.7774
29.6862
29.5583
29.4169
29.24
29.0158
28.7378
28.3959
27.9702
27.4587
26.7777
25.9792
24.7894
23.6218
21.8005
22.9391
26.0215
29.9988
29.9853
29.9556
29.9108
29.8521
29.7777
29.6847
29.5581
29.4167
29.2399
29.0158
28.7379
28.396
27.9707
27.4606
26.7821
25.9892
24.81
23.6671
21.8555
23.1171
26.2027
29.9988
29.9854
29.9557
29.9109
29.8521
29.7781
29.683
29.5579
29.4166
29.2398
29.0158
28.7379
28.3963
27.9713
27.4623
26.7868
25.9996
24.8314
23.7151
21.9142
23.2913
26.4391
29.9988
29.9853
29.9556
29.9108
29.8519
29.7784
29.6816
29.5578
29.4165
29.2397
29.0158
28.7379
28.3964
27.9719
27.4642
26.7915
26.0105
24.854
23.7653
21.977
23.4621
26.7206
29.9988
29.9854
29.9557
29.9109
29.852
29.7788
29.6809
29.5576
29.4163
29.2396
29.0158
28.7379
28.3965
27.9725
27.4661
26.7965
26.0216
24.8775
23.8178
22.0447
23.6291
27.0199
29.9988
29.9853
29.9556
29.9109
29.8518
29.7788
29.6806
29.5576
29.4161
29.2394
29.0156
28.7378
28.3966
27.973
27.4679
26.8016
26.0332
24.9022
23.8721
22.1179
23.792
27.3298
29.9988
29.9854
29.9557
29.911
29.852
29.7789
29.6806
29.5575
29.4159
29.2392
29.0155
28.7378
28.3966
27.9734
27.4699
26.8069
26.0451
24.9279
23.9281
22.1973
23.9502
27.6518
29.9988
29.9853
29.9556
29.9109
29.8519
29.7788
29.6811
29.5573
29.4157
29.2389
29.0153
28.7376
28.3967
27.9739
27.4718
26.8124
26.0575
24.9548
23.9855
22.2834
24.1033
27.9855
29.9988
29.9854
29.9557
29.911
29.852
29.7787
29.6819
29.5572
29.4155
29.2386
29.0151
28.7374
28.3966
27.9743
27.4738
26.8182
26.0704
24.9829
24.0443
22.3769
24.2511
28.3283
29.9988
29.9853
29.9557
29.9109
29.852
29.7785
29.6829
29.557
29.4153
29.2383
29.0148
28.7371
28.3966
27.9747
27.4757
26.824
26.0838
25.0122
24.1044
22.4783
24.3932
28.6773
29.9988
29.9854
29.9558
29.911
29.8522
29.7783
29.684
29.5569
29.415
29.238
29.0144
28.7369
28.3964
27.975
27.4777
26.8302
26.0976
25.0427
24.1655
22.5878
24.5294
29.0294
29.9988
29.9854
29.9557
29.9109
29.8522
29.7781
29.685
29.5568
29.4148
29.2376
29.0142
28.7366
28.3963
27.9753
27.4796
26.8364
26.112
25.0747
24.2279
22.7057
24.6596
29.3814
29.9988
29.9854
29.9558
29.911
29.8524
29.7779
29.6861
29.5567
29.4145
29.2372
29.0137
28.7361
28.396
27.9756
27.4814
26.8428
26.1269
25.1082
24.2914
22.8322
24.7839
29.7298
29.9988
29.9854
29.9557
29.9109
29.8523
29.7777
29.6871
29.5567
29.4142
29.2368
29.0133
28.7357
28.3958
27.9758
27.4832
26.8494
26.1425
25.1431
24.3562
22.9674
24.9023
30.0711
29.9988
29.9854
29.9558
29.911
29.8525
29.7776
29.6881
29.5569
29.414
29.2364
29.0127
28.7351
28.3954
27.9759
27.485
26.8561
26.1585
25.1797
24.4223
23.1111
25.0153
30.4017
29.9988
29.9854
29.9557
29.9109
29.8525
29.7774
29.6888
29.5572
29.4137
29.2358
29.0121
28.7345
28.395
27.976
27.4867
26.8628
26.175
25.2179
24.4897
23.2632
25.1232
30.7179
29.9988
29.9854
29.9558
29.911
29.8527
29.7775
29.6894
29.5578
29.4135
29.2353
29.0115
28.7339
28.3944
27.9759
27.4882
26.8695
26.1921
25.2579
24.5586
23.4233
25.2268
31.0164
29.9988
29.9854
29.9558
29.9109
29.8526
29.7774
29.6895
29.559
29.4133
29.2348
29.0109
28.733
28.3938
27.9758
27.4896
26.8763
26.2095
25.2996
24.6289
23.5909
25.3267
31.2943
29.9988
29.9854
29.9558
29.911
29.8527
29.7777
29.6895
29.5611
29.4133
29.2342
29.0102
28.7322
28.3931
27.9754
27.4908
26.883
26.2272
25.3429
24.7008
23.7656
25.4238
31.5487
29.9988
29.9854
29.9558
29.911
29.8526
29.7778
29.6889
29.5643
29.4134
29.2337
29.0094
28.7313
28.3923
27.9751
27.492
26.8896
26.2453
25.388
24.7743
23.9464
25.5191
31.7774
29.9988
29.9854
29.9559
29.9111
29.8527
29.7782
29.6881
29.5686
29.4136
29.2332
29.0087
28.7303
28.3914
27.9746
27.4928
26.8961
26.2635
25.4345
24.8493
24.1327
25.6138
31.9784
29.9988
29.9854
29.9558
29.9111
29.8526
29.7785
29.6871
29.5727
29.4142
29.2327
29.008
28.7291
28.3903
27.9739
27.4936
26.9024
26.2816
25.4825
24.9259
24.3233
25.7088
32.1504
29.9988
29.9855
29.9559
29.9112
29.8527
29.7789
29.6867
29.5755
29.4153
29.2326
29.0072
28.728
28.3891
27.973
27.494
26.9084
26.2998
25.5318
25.0039
24.5174
25.8055
32.2922
29.9988
29.9854
29.9558
29.9111
29.8526
29.779
29.6865
29.577
29.4171
29.2326
29.0065
28.7268
28.3877
27.972
27.4943
26.914
26.3178
25.582
25.0833
24.7138
25.9051
32.4034
29.9988
29.9855
29.9559
29.9113
29.8528
29.7792
29.6867
29.5776
29.42
29.2331
29.0061
28.7256
28.3862
27.9707
27.4942
26.9194
26.3354
25.633
25.1639
24.9114
26.0087
32.4841
29.9988
29.9854
29.9558
29.9112
29.8527
29.7792
29.687
29.5774
29.4242
29.2343
29.0059
28.7246
28.3847
27.9692
27.4938
26.9242
26.3525
25.6846
25.2456
25.1088
26.1176
32.5347
29.9988
29.9855
29.9559
29.9113
29.8529
29.7794
29.6875
29.5768
29.4296
29.2367
29.0061
28.7235
28.3831
27.9676
27.493
26.9285
26.369
25.7362
25.3282
25.305
26.2328
32.5564
29.9988
29.9854
29.9559
29.9113
29.8529
29.7794
29.6879
29.576
29.4351
29.2408
29.0073
28.723
28.3815
27.9656
27.4918
26.9321
26.3846
25.7874
25.4113
25.4984
26.3551
32.5512
29.9988
29.9855
29.956
29.9114
29.8531
29.7795
29.6885
29.5755
29.439
29.2471
29.0098
28.723
28.3801
27.9635
27.4901
26.935
26.3991
25.8381
25.4948
25.688
26.485
32.5208
29.9988
29.9854
29.9559
29.9114
29.8531
29.7796
29.6888
29.5756
29.4404
29.2551
29.0145
28.7242
28.3791
27.9613
27.4881
26.9372
26.4123
25.8874
25.5781
25.8723
26.6227
32.4683
29.9988
29.9855
29.956
29.9115
29.8533
29.7799
29.6891
29.5764
29.4402
29.2637
29.0222
28.7272
28.379
27.9594
27.4857
26.9384
26.424
25.9348
25.6608
26.0501
26.7679
32.3968
29.9988
29.9855
29.956
29.9115
29.8533
29.78
29.6892
29.5771
29.4395
29.2704
29.0337
28.7332
28.3802
27.9579
27.4831
26.9388
26.434
25.9797
25.7423
26.2203
26.9196
32.3097
29.9988
29.9855
29.9561
29.9116
29.8535
29.7803
29.6895
29.5779
29.4397
29.2739
29.0481
28.744
28.3841
27.9577
27.4807
26.9383
26.442
26.0216
25.8217
26.3816
27.0765
32.2106
29.9988
29.9855
29.956
29.9116
29.8535
29.7804
29.6898
29.5785
29.4407
29.2744
29.0626
28.761
28.3923
27.9597
27.479
26.9374
26.4481
26.0598
25.8982
26.5329
27.2363
32.1031
29.9988
29.9855
29.9561
29.9117
29.8537
29.7807
29.6902
29.579
29.4422
29.2742
29.0727
28.7843
28.4076
27.9656
27.4791
26.9366
26.4523
26.0936
25.9709
26.673
27.3965
31.9906
29.9988
29.9855
29.9561
29.9117
29.8538
29.7808
29.6906
29.5795
29.4433
29.2753
29.0767
28.8102
28.433
27.9783
27.4827
26.9372
26.4553
26.123
26.0388
26.8011
27.5539
31.8756
29.9988
29.9856
29.9562
29.9119
29.854
29.7811
29.691
29.5802
29.4444
29.2775
29.0773
28.8311
28.4697
28.0023
27.4925
26.9406
26.4579
26.1479
26.101
26.9163
27.7055
31.7604
29.9988
29.9855
29.9562
29.9119
29.854
29.7813
29.6914
29.5809
29.4454
29.2798
29.0784
28.8419
28.5128
28.0424
27.5131
26.9498
26.4618
26.1692
26.157
27.018
27.848
31.646
29.9988
29.9856
29.9563
29.912
29.8543
29.7818
29.6919
29.5817
29.4466
29.282
29.0817
28.845
28.5502
28.1012
27.5517
26.9693
26.47
26.1884
26.2069
27.1061
27.9787
31.533
29.9988
29.9856
29.9562
29.912
29.8544
29.782
29.6923
29.5824
29.4479
29.2839
29.086
28.8472
28.5715
28.1707
27.6163
27.0064
26.4864
26.2081
26.2513
27.1812
28.0954
31.421
29.9988
29.9856
29.9563
29.9122
29.8546
29.7824
29.6929
29.5833
29.4493
29.286
29.0899
28.8524
28.5796
28.2308
27.7095
27.0713
26.518
26.2322
26.2921
27.2443
28.1972
31.3092
29.9988
29.9856
29.9563
29.9122
29.8547
29.7826
29.6934
29.5842
29.4507
29.2884
29.0936
28.8595
28.5845
28.2667
27.8163
27.1739
26.5747
26.2671
26.3327
27.2973
28.284
31.197
29.9988
29.9856
29.9564
29.9124
29.855
29.7831
29.6941
29.5852
29.4524
29.291
29.0975
28.8668
28.5935
28.2826
27.9069
27.3142
26.67
26.3216
26.378
27.3438
28.357
31.0839
29.9988
29.9856
29.9564
29.9125
29.8551
29.7834
29.6946
29.5862
29.454
29.2938
29.1017
28.8735
28.6054
28.2939
27.9623
27.4691
26.8161
26.4084
26.4358
27.3879
28.419
30.9703
29.9988
29.9857
29.9565
29.9127
29.8555
29.7838
29.6954
29.5874
29.4558
29.2966
29.1064
28.8805
28.6181
28.3097
27.9903
27.6016
27.0105
26.5431
26.5168
27.4358
28.4738
30.8575
29.9988
29.9857
29.9565
29.9127
29.8556
29.7842
29.696
29.5885
29.4577
29.2997
29.1113
28.8881
28.6301
28.3306
28.011
27.6906
27.2236
26.7377
26.636
27.4963
28.5269
30.7481
29.9988
29.9857
29.9567
29.9129
29.856
29.7847
29.697
29.5898
29.4598
29.3029
29.1164
28.8964
28.6426
28.3527
28.0372
27.744
27.4117
26.9854
26.8094
27.5809
28.5857
30.6461
29.9988
29.9857
29.9567
29.913
29.8562
29.7852
29.6977
29.591
29.4619
29.3064
29.1218
28.9051
28.6556
28.3749
28.0708
27.7843
27.5489
27.2535
27.0459
27.7042
28.6599
30.5567
29.9988
29.9858
29.9568
29.9132
29.8565
29.7858
29.6986
29.5925
29.4642
29.3101
29.1276
28.9143
28.67
28.3969
28.1078
27.8283
27.6408
27.4963
27.3345
27.8795
28.7621
30.4875
29.9988
29.9857
29.9568
29.9133
29.8568
29.7862
29.6995
29.5941
29.4666
29.3139
29.1338
28.9239
28.6851
28.4199
28.1454
27.8812
27.7108
27.6849
27.6404
28.1107
28.906
30.448
29.9988
29.9858
29.957
29.9136
29.8572
29.7869
29.7006
29.5957
29.4692
29.3181