/*--------------------------------*- C++ -*----------------------------------*\
| =========                 |                                                 |
| \\      /  F ield         | OpenFOAM: The Open Source CFD Toolbox           |
|  \\    /   O peration     | Version:  v1912                                 |
|   \\  /    A nd           | Website:  www.openfoam.com                      |
|    \\/     M anipulation  |                                                 |
\*---------------------------------------------------------------------------*/
FoamFile
{
    version     2.0;
    format      ascii;
    class       surfaceScalarField;
    location    "600";
    object      phi;
}
// * * * * * * * * * * * * * * * * * * * * * * * * * * * * * * * * * * * * * //

dimensions      [0 3 -1 0 0 0 0];
oriented        oriented;


internalField   nonuniform List<scalar> 
24588
(
6.81682e-05
2.00979e-08
6.81133e-05
5.53334e-08
6.80271e-05
8.59305e-08
6.79097e-05
1.17288e-07
6.77575e-05
1.51962e-07
6.75654e-05
1.91998e-07
6.73288e-05
2.36626e-07
6.70318e-05
2.97113e-07
6.66636e-05
3.68267e-07
6.62105e-05
4.53665e-07
6.56496e-05
5.60754e-07
6.49579e-05
7.04376e-07
6.40627e-05
8.50087e-07
6.29547e-05
1.15736e-06
6.14951e-05
1.44166e-06
5.918e-05
2.3217e-06
5.62342e-05
2.94382e-06
5.13629e-05
4.87149e-06
4.4597e-05
6.76591e-06
3.33665e-05
1.12303e-05
1.97811e-05
1.35853e-05
1.97811e-05
6.81685e-05
4.06531e-08
6.81133e-05
1.11201e-07
6.8027e-05
1.71737e-07
6.79098e-05
2.34397e-07
6.77576e-05
3.03802e-07
6.75656e-05
3.83964e-07
6.73289e-05
4.73291e-07
6.7032e-05
5.94143e-07
6.66639e-05
7.36426e-07
6.62111e-05
9.07248e-07
6.56484e-05
1.1232e-06
6.49632e-05
1.40381e-06
6.40579e-05
1.70536e-06
6.29504e-05
2.31366e-06
6.14881e-05
2.88537e-06
5.92464e-05
4.56957e-06
5.62489e-05
5.93796e-06
5.13311e-05
9.78948e-06
4.46436e-05
1.34532e-05
3.32702e-05
2.26033e-05
1.97463e-05
2.71091e-05
3.95274e-05
6.81685e-05
6.12129e-08
6.81133e-05
1.67077e-07
6.8027e-05
2.57565e-07
6.79098e-05
3.51529e-07
6.77576e-05
4.5566e-07
6.75655e-05
5.7593e-07
6.73289e-05
7.0996e-07
6.7032e-05
8.91159e-07
6.66638e-05
1.10466e-06
6.62111e-05
1.36066e-06
6.56484e-05
1.68577e-06
6.49623e-05
2.10484e-06
6.4061e-05
2.55425e-06
6.29542e-05
3.47803e-06
6.14859e-05
4.33296e-06
5.92792e-05
6.78405e-06
5.62443e-05
8.96859e-06
5.13512e-05
1.46831e-05
4.46208e-05
2.01835e-05
3.32922e-05
3.39314e-05
1.97666e-05
4.06347e-05
5.9294e-05
6.81685e-05
8.17708e-08
6.81133e-05
2.22912e-07
6.8027e-05
3.43364e-07
6.79098e-05
4.68644e-07
6.77576e-05
6.07495e-07
6.75656e-05
7.67895e-07
6.73289e-05
9.46652e-07
6.7032e-05
1.1882e-06
6.66638e-05
1.47287e-06
6.62109e-05
1.81424e-06
6.56484e-05
2.24814e-06
6.49624e-05
2.80517e-06
6.40566e-05
3.41043e-06
6.29487e-05
4.63287e-06
6.14814e-05
5.78254e-06
5.92989e-05
8.97272e-06
5.6268e-05
1.19957e-05
5.13656e-05
1.95858e-05
4.46115e-05
2.69373e-05
3.3322e-05
4.52204e-05
1.98005e-05
5.41562e-05
7.90945e-05
6.81685e-05
1.02333e-07
6.81133e-05
2.78754e-07
6.8027e-05
4.29189e-07
6.79098e-05
5.85784e-07
6.77576e-05
7.59349e-07
6.75656e-05
9.59856e-07
6.73289e-05
1.18334e-06
6.70319e-05
1.48523e-06
6.66638e-05
1.84112e-06
6.6211e-05
2.26769e-06
6.56482e-05
2.81079e-06
6.49613e-05
3.50678e-06
6.40603e-05
4.25896e-06
6.29529e-05
5.7979e-06
6.14799e-05
7.23455e-06
5.93069e-05
1.11535e-05
5.62922e-05
1.5006e-05
5.13678e-05
2.45109e-05
4.46301e-05
3.36749e-05
3.33686e-05
5.64814e-05
1.98491e-05
6.76756e-05
9.89436e-05
6.81685e-05
1.22894e-07
6.81133e-05
3.34555e-07
6.80271e-05
5.14972e-07
6.79098e-05
7.02897e-07
6.77576e-05
9.11167e-07
6.75656e-05
1.15181e-06
6.73289e-05
1.42004e-06
6.7032e-05
1.78229e-06
6.66638e-05
2.20933e-06
6.62109e-05
2.72132e-06
6.56484e-05
3.37302e-06
6.49622e-05
4.20722e-06
6.40559e-05
5.11708e-06
6.29476e-05
6.95055e-06
6.14771e-05
8.68833e-06
5.9307e-05
1.33294e-05
5.63076e-05
1.80017e-05
5.13797e-05
2.9439e-05
4.46618e-05
4.03925e-05
3.34351e-05
6.77077e-05
1.99147e-05
8.1196e-05
0.000118858
6.81685e-05
1.43461e-07
6.81133e-05
3.90367e-07
6.8027e-05
6.00786e-07
6.79098e-05
8.20043e-07
6.77576e-05
1.063e-06
6.75656e-05
1.34376e-06
6.73289e-05
1.65673e-06
6.7032e-05
2.07932e-06
6.66638e-05
2.57758e-06
6.6211e-05
3.1748e-06
6.5648e-05
3.93584e-06
6.49607e-05
4.90878e-06
6.40605e-05
5.96507e-06
6.29525e-05
8.11673e-06
6.14754e-05
1.0144e-05
5.93004e-05
1.55119e-05
5.6322e-05
2.09766e-05
5.14028e-05
3.43589e-05
4.47115e-05
4.70838e-05
3.35298e-05
7.8889e-05
2.00003e-05
9.47254e-05
0.000138859
6.81685e-05
1.64025e-07
6.81133e-05
4.46136e-07
6.80271e-05
6.86554e-07
6.79098e-05
9.37151e-07
6.77576e-05
1.2148e-06
6.75656e-05
1.53571e-06
6.73289e-05
1.89344e-06
6.7032e-05
2.37637e-06
6.66639e-05
2.94577e-06
6.62109e-05
3.62846e-06
6.56487e-05
4.49782e-06
6.49627e-05
5.60883e-06
6.40558e-05
6.82618e-06
6.29456e-05
9.26816e-06
6.14648e-05
1.16084e-05
5.92859e-05
1.76956e-05
5.63401e-05
2.39196e-05
5.14553e-05
3.92438e-05
4.47985e-05
5.37403e-05
3.36654e-05
9.00216e-05
2.01104e-05
0.000108281
0.000158969
6.81685e-05
1.84596e-07
6.81133e-05
5.01922e-07
6.8027e-05
7.7236e-07
6.79098e-05
1.0543e-06
6.77576e-05
1.36662e-06
6.75656e-05
1.72764e-06
6.73289e-05
2.13011e-06
6.7032e-05
2.67339e-06
6.66639e-05
3.31397e-06
6.6211e-05
4.08196e-06
6.56478e-05
5.06082e-06
6.496e-05
6.31029e-06
6.40589e-05
7.67499e-06
6.29481e-05
1.04359e-05
6.14441e-05
1.30944e-05
5.92859e-05
1.98589e-05
5.63517e-05
2.68522e-05
5.15724e-05
4.40237e-05
4.49489e-05
6.03639e-05
3.38558e-05
0.000101114
2.02495e-05
0.000121887
0.000179218
6.81685e-05
2.05162e-07
6.81133e-05
5.5766e-07
6.80271e-05
8.58114e-07
6.79099e-05
1.1714e-06
6.77577e-05
1.51839e-06
6.75657e-05
1.91956e-06
6.7329e-05
2.36681e-06
6.70321e-05
2.97043e-06
6.6664e-05
3.6821e-06
6.62109e-05
4.53567e-06
6.56492e-05
5.62239e-06
6.49644e-05
7.0089e-06
6.4052e-05
8.54584e-06
6.29293e-05
1.15957e-05
6.14152e-05
1.45968e-05
5.93098e-05
2.19662e-05
5.63742e-05
2.97865e-05
5.17604e-05
4.86373e-05
4.51685e-05
6.69556e-05
3.41065e-05
0.000112176
2.04217e-05
0.000135572
0.00019964
6.81685e-05
2.25736e-07
6.81133e-05
6.1342e-07
6.80271e-05
9.43916e-07
6.79098e-05
1.28854e-06
6.77576e-05
1.67019e-06
6.75657e-05
2.11147e-06
6.7329e-05
2.60347e-06
6.70321e-05
3.26744e-06
6.66641e-05
4.0502e-06
6.62111e-05
4.98929e-06
6.56482e-05
6.18502e-06
6.49584e-05
7.71146e-06
6.40415e-05
9.41333e-06
6.29139e-05
1.27684e-05
6.13946e-05
1.61075e-05
5.93443e-05
2.40189e-05
5.64241e-05
3.27063e-05
5.19842e-05
5.30778e-05
4.54289e-05
7.3511e-05
3.44088e-05
0.000123196
2.06284e-05
0.000149352
0.000220269
6.81685e-05
2.46303e-07
6.81133e-05
6.69127e-07
6.80271e-05
1.02966e-06
6.79099e-05
1.40564e-06
6.77577e-05
1.82194e-06
6.75657e-05
2.30338e-06
6.73291e-05
2.84014e-06
6.70322e-05
3.56446e-06
6.66642e-05
4.41818e-06
6.62109e-05
5.44322e-06
6.56497e-05
6.74609e-06
6.49611e-05
8.41268e-06
6.40261e-05
1.03146e-05
6.28983e-05
1.39181e-05
6.13839e-05
1.76174e-05
5.93769e-05
2.6026e-05
5.6485e-05
3.55976e-05
5.21902e-05
5.73724e-05
4.56914e-05
8.00096e-05
3.47449e-05
0.000134143
2.08684e-05
0.000163228
0.000241137
6.81684e-05
2.66877e-07
6.81133e-05
7.2486e-07
6.80271e-05
1.11547e-06
6.79098e-05
1.52278e-06
6.77577e-05
1.97372e-06
6.75657e-05
2.49527e-06
6.73291e-05
3.07676e-06
6.70322e-05
3.86146e-06
6.66644e-05
4.78608e-06
6.62109e-05
5.89731e-06
6.56488e-05
7.30798e-06
6.49541e-05
9.11839e-06
6.40096e-05
1.12224e-05
6.28911e-05
1.50549e-05
6.13804e-05
1.91259e-05
5.94019e-05
2.80055e-05
5.65393e-05
3.84602e-05
5.23527e-05
6.15593e-05
4.59331e-05
8.64294e-05
3.50964e-05
0.000144979
2.1138e-05
0.000177187
0.000262275
6.81685e-05
2.87444e-07
6.81133e-05
7.80535e-07
6.80271e-05
1.20121e-06
6.79099e-05
1.63986e-06
6.77577e-05
2.12544e-06
6.75658e-05
2.68716e-06
6.73292e-05
3.3134e-06
6.70323e-05
4.15848e-06
6.66646e-05
5.1538e-06
6.62106e-05
6.3519e-06
6.56481e-05
7.87029e-06
6.49457e-05
9.83058e-06
6.40081e-05
1.21438e-05
6.28851e-05
1.61829e-05
6.138e-05
2.06299e-05
5.94187e-05
2.99664e-05
5.6581e-05
4.12977e-05
5.24741e-05
6.56659e-05
4.61468e-05
9.27567e-05
3.54501e-05
0.000155676
2.14324e-05
0.000191204
0.000283707
6.81684e-05
3.08019e-07
6.81133e-05
8.36241e-07
6.80271e-05
1.28702e-06
6.79098e-05
1.757e-06
6.77577e-05
2.2772e-06
6.75658e-05
2.87902e-06
6.73292e-05
3.54996e-06
6.70323e-05
4.45549e-06
6.66648e-05
5.52132e-06
6.62101e-05
6.80721e-06
6.5645e-05
8.43519e-06
6.49291e-05
1.05542e-05
6.40073e-05
1.30514e-05
6.28803e-05
1.7316e-05
6.13805e-05
2.21292e-05
5.94295e-05
3.19181e-05
5.66111e-05
4.41162e-05
5.25653e-05
6.97119e-05
4.63335e-05
9.89886e-05
3.57979e-05
0.000166211
2.17469e-05
0.000205255
0.000305454
6.81685e-05
3.28584e-07
6.81133e-05
8.91884e-07
6.80271e-05
1.37276e-06
6.79099e-05
1.87407e-06
6.77578e-05
2.4289e-06
6.75659e-05
3.07088e-06
6.73293e-05
3.78654e-06
6.70324e-05
4.75252e-06
6.66651e-05
5.88865e-06
6.62096e-05
7.2633e-06
6.56377e-05
9.00689e-06
6.49183e-05
1.12792e-05
6.40045e-05
1.39622e-05
6.28768e-05
1.84438e-05
6.13813e-05
2.36243e-05
5.94363e-05
3.38627e-05
5.66323e-05
4.692e-05
5.26358e-05
7.37082e-05
4.64971e-05
0.000105127
3.61362e-05
0.000176572
2.20772e-05
0.000219314
0.000327531
6.81684e-05
3.49157e-07
6.81133e-05
9.47562e-07
6.80271e-05
1.45858e-06
6.79099e-05
1.9912e-06
6.77577e-05
2.58063e-06
6.75658e-05
3.26272e-06
6.73293e-05
4.02305e-06
6.70325e-05
5.04947e-06
6.66652e-05
6.25596e-06
6.62096e-05
7.7195e-06
6.56249e-05
9.59138e-06
6.49119e-05
1.19952e-05
6.40004e-05
1.48683e-05
6.28747e-05
1.95723e-05
6.13821e-05
2.51168e-05
5.94404e-05
3.58049e-05
5.66474e-05
4.97131e-05
5.26926e-05
7.76632e-05
4.6642e-05
0.000111178
3.64635e-05
0.000186751
2.242e-05
0.000233358
0.000349951
6.81684e-05
3.69719e-07
6.81133e-05
1.00317e-06
6.80272e-05
1.54432e-06
6.791e-05
2.10825e-06
6.77578e-05
2.73231e-06
6.7566e-05
3.45454e-06
6.73294e-05
4.2596e-06
6.70326e-05
5.34635e-06
6.66652e-05
6.62343e-06
6.62103e-05
8.17497e-06
6.56121e-05
1.01895e-05
6.49068e-05
1.27021e-05
6.39972e-05
1.57782e-05
6.28734e-05
2.06952e-05
6.13828e-05
2.66072e-05
5.94428e-05
3.77445e-05
5.66583e-05
5.24974e-05
5.27406e-05
8.15807e-05
4.67724e-05
0.000117146
3.67802e-05
0.000196743
2.27729e-05
0.000247365
0.000372724
6.81684e-05
3.90291e-07
6.81133e-05
1.05882e-06
6.80271e-05
1.63014e-06
6.79099e-05
2.22538e-06
6.77578e-05
2.88403e-06
6.75659e-05
3.64633e-06
6.73294e-05
4.49608e-06
6.70328e-05
5.64309e-06
6.66652e-05
6.99109e-06
6.62106e-05
8.63011e-06
6.56038e-05
1.07961e-05
6.49018e-05
1.34046e-05
6.3995e-05
1.66824e-05
6.28726e-05
2.18195e-05
6.13834e-05
2.80964e-05
5.94443e-05
3.9684e-05
5.66667e-05
5.52751e-05
5.27833e-05
8.54643e-05
4.68921e-05
0.000123037
3.70876e-05
0.000206547
2.31345e-05
0.000261318
0.000395859
6.81684e-05
4.1085e-07
6.81133e-05
1.1144e-06
6.80272e-05
1.71589e-06
6.791e-05
2.34241e-06
6.77579e-05
3.03567e-06
6.75661e-05
3.83811e-06
6.73295e-05
4.7326e-06
6.70329e-05
5.93979e-06
6.66654e-05
7.35876e-06
6.62073e-05
9.08869e-06
6.56018e-05
1.14015e-05
6.48977e-05
1.41091e-05
6.39937e-05
1.75874e-05
6.28722e-05
2.29399e-05
6.13842e-05
2.95843e-05
5.94453e-05
4.16226e-05
5.66738e-05
5.80466e-05
5.28231e-05
8.93148e-05
4.70044e-05
0.000128856
3.73876e-05
0.000216164
2.35039e-05
0.000275202
0.000419363
6.81684e-05
4.31418e-07
6.81133e-05
1.17002e-06
6.80271e-05
1.80173e-06
6.79099e-05
2.45953e-06
6.77578e-05
3.18737e-06
6.7566e-05
4.02986e-06
6.73296e-05
4.969e-06
6.7033e-05
6.23649e-06
6.66658e-05
7.72597e-06
6.61982e-05
9.55681e-06
6.56046e-05
1.19951e-05
6.48946e-05
1.48192e-05
6.39929e-05
1.84873e-05
6.28721e-05
2.40622e-05
6.13851e-05
3.10713e-05
5.94464e-05
4.35616e-05
5.66805e-05
6.08125e-05
5.2862e-05
9.31336e-05
4.71118e-05
0.000134606
3.76822e-05
0.000225594
2.38809e-05
0.000289003
0.000443244
6.81684e-05
4.51973e-07
6.81133e-05
1.22556e-06
6.80272e-05
1.88748e-06
6.791e-05
2.57655e-06
6.77579e-05
3.33898e-06
6.75661e-05
4.22161e-06
6.73298e-05
5.20538e-06
6.7033e-05
6.53339e-06
6.66668e-05
8.09219e-06
6.61871e-05
1.00371e-05
6.56076e-05
1.25746e-05
6.48925e-05
1.55345e-05
6.39925e-05
1.93884e-05
6.28722e-05
2.51816e-05
6.13862e-05
3.25572e-05
5.94479e-05
4.54996e-05
5.66879e-05
6.35724e-05
5.29013e-05
9.692e-05
4.72165e-05
0.000140291
3.79738e-05
0.000234836
2.42659e-05
0.000302711
0.000467509
6.81684e-05
4.72538e-07
6.81133e-05
1.28116e-06
6.80271e-05
1.97332e-06
6.79099e-05
2.69365e-06
6.77579e-05
3.49064e-06
6.75661e-05
4.41334e-06
6.73299e-05
5.44159e-06
6.70329e-05
6.83043e-06
6.66678e-05
8.45735e-06
6.61786e-05
1.05268e-05
6.56084e-05
1.31448e-05
6.48911e-05
1.62518e-05
6.39924e-05
2.02855e-05
6.28725e-05
2.63027e-05
6.13877e-05
3.4042e-05
5.94502e-05
4.74374e-05
5.66964e-05
6.63263e-05
5.29418e-05
0.000100675
4.73202e-05
0.000145913
3.82647e-05
0.000243892
2.46595e-05
0.000316316
0.000492169
6.81684e-05
4.93088e-07
6.81133e-05
1.33667e-06
6.80272e-05
2.05907e-06
6.79101e-05
2.81065e-06
6.7758e-05
3.64222e-06
6.75662e-05
4.60506e-06
6.733e-05
5.67779e-06
6.7033e-05
7.12759e-06
6.66687e-05
8.82173e-06
6.61734e-05
1.10226e-05
6.56075e-05
1.37106e-05
6.48901e-05
1.69693e-05
6.39925e-05
2.11842e-05
6.28731e-05
2.74212e-05
6.13897e-05
3.55253e-05
5.94538e-05
4.9373e-05
5.67066e-05
6.90734e-05
5.29842e-05
0.000104397
4.74242e-05
0.000151473
3.85574e-05
0.000252759
2.50628e-05
0.000329811
0.000517232
6.81684e-05
5.1365e-07
6.81133e-05
1.39223e-06
6.80271e-05
2.14492e-06
6.791e-05
2.92774e-06
6.7758e-05
3.79385e-06
6.75662e-05
4.79675e-06
6.73301e-05
5.91386e-06
6.70331e-05
7.42469e-06
6.66691e-05
9.18582e-06
6.61702e-05
1.15218e-05
6.56064e-05
1.42745e-05
6.48896e-05
1.76861e-05
6.39928e-05
2.20798e-05
6.2874e-05
2.85411e-05
6.13923e-05
3.70071e-05
5.94589e-05
5.13067e-05
5.67189e-05
7.18135e-05
5.30284e-05
0.000108088
4.75294e-05
0.000156972
3.88542e-05
0.000261434
2.5477e-05
0.000343188
0.000542709
6.81684e-05
5.34194e-07
6.81134e-05
1.4477e-06
6.80272e-05
2.23068e-06
6.79101e-05
3.04472e-06
6.77581e-05
3.94539e-06
6.75664e-05
4.98842e-06
6.73303e-05
6.14999e-06
6.70334e-05
7.72164e-06
6.6668e-05
9.55131e-06
6.6169e-05
1.20212e-05
6.56053e-05
1.48382e-05
6.48893e-05
1.84022e-05
6.39932e-05
2.29769e-05
6.28751e-05
2.96583e-05
6.13955e-05
3.84866e-05
5.94656e-05
5.32363e-05
5.67334e-05
7.45456e-05
5.30748e-05
0.000111746
4.76364e-05
0.00016241
3.91574e-05
0.000269913
2.59036e-05
0.000356442
0.000568612
6.81684e-05
5.54752e-07
6.81133e-05
1.50324e-06
6.80272e-05
2.31654e-06
6.791e-05
3.16179e-06
6.7758e-05
4.097e-06
6.75664e-05
5.18003e-06
6.73303e-05
6.38607e-06
6.70338e-05
8.01817e-06
6.66625e-05
9.92267e-06
6.61711e-05
1.25128e-05
6.56046e-05
1.54048e-05
6.48892e-05
1.91175e-05
6.39938e-05
2.38711e-05
6.28766e-05
3.07766e-05
6.13995e-05
3.99637e-05
5.94741e-05
5.5162e-05
5.67503e-05
7.72695e-05
5.31231e-05
0.000115373
4.77455e-05
0.000167788
3.9469e-05
0.000278189
2.63441e-05
0.000369567
0.000594956
6.81684e-05
5.75291e-07
6.81134e-05
1.55868e-06
6.80273e-05
2.40229e-06
6.79102e-05
3.27875e-06
6.77582e-05
4.24851e-06
6.75666e-05
5.37158e-06
6.73303e-05
6.6223e-06
6.70344e-05
8.31416e-06
6.66543e-05
1.03029e-05
6.6175e-05
1.29922e-05
6.5604e-05
1.59758e-05
6.48893e-05
1.98323e-05
6.39945e-05
2.47669e-05
6.28784e-05
3.18918e-05
6.14043e-05
4.14377e-05
5.94842e-05
5.70818e-05
5.67697e-05
7.99839e-05
5.31736e-05
0.000118969
4.78572e-05
0.000173104
3.97909e-05
0.000286255
2.68e-05
0.000382558
0.000621756
6.81684e-05
5.95844e-07
6.81133e-05
1.61418e-06
6.80272e-05
2.48816e-06
6.79101e-05
3.39579e-06
6.77581e-05
4.40011e-06
6.75666e-05
5.56306e-06
6.73303e-05
6.85852e-06
6.70351e-05
8.60946e-06
6.66473e-05
1.06907e-05
6.61777e-05
1.34619e-05
6.56037e-05
1.65498e-05
6.48895e-05
2.05465e-05
6.39954e-05
2.56599e-05
6.28806e-05
3.30077e-05
6.14099e-05
4.29085e-05
5.94959e-05
5.89961e-05
5.67914e-05
8.26885e-05
5.32261e-05
0.000122535
4.79712e-05
0.000178359
4.01245e-05
0.000294102
2.72727e-05
0.00039541
0.000649029
6.81684e-05
6.16377e-07
6.81134e-05
1.66959e-06
6.80273e-05
2.57392e-06
6.79102e-05
3.51271e-06
6.77582e-05
4.5516e-06
6.75668e-05
5.75449e-06
6.73304e-05
7.09491e-06
6.70357e-05
8.90422e-06
6.66425e-05
1.1084e-05
6.6179e-05
1.39255e-05
6.56036e-05
1.71252e-05
6.48898e-05
2.12603e-05
6.39964e-05
2.65543e-05
6.2883e-05
3.41202e-05
6.14161e-05
4.43753e-05
5.95091e-05
6.09028e-05
5.68156e-05
8.5382e-05
5.32808e-05
0.00012607
4.80877e-05
0.000183552
4.04705e-05
0.000301719
2.77636e-05
0.000408117
0.000676793
6.81684e-05
6.36926e-07
6.81133e-05
1.72506e-06
6.80272e-05
2.65979e-06
6.79101e-05
3.62974e-06
6.77582e-05
4.70318e-06
6.75668e-05
5.94584e-06
6.73304e-05
7.33122e-06
6.70362e-05
9.19847e-06
6.66393e-05
1.1481e-05
6.61796e-05
1.43852e-05
6.56036e-05
1.77011e-05
6.48902e-05
2.19737e-05
6.39974e-05
2.7446e-05
6.28858e-05
3.52329e-05
6.1423e-05
4.58381e-05
5.95237e-05
6.28024e-05
5.68421e-05
8.80636e-05
5.33377e-05
0.000129574
4.82064e-05
0.000188683
4.08296e-05
0.000309096
2.82736e-05
0.000420673
0.000705066
6.81684e-05
6.57454e-07
6.81134e-05
1.78043e-06
6.80273e-05
2.74555e-06
6.79103e-05
3.74662e-06
6.77583e-05
4.85464e-06
6.7567e-05
6.13716e-06
6.73306e-05
7.56761e-06
6.70367e-05
9.49245e-06
6.66372e-05
1.18805e-05
6.61799e-05
1.48426e-05
6.56037e-05
1.82773e-05
6.48907e-05
2.26868e-05
6.39986e-05
2.83389e-05
6.28888e-05
3.63419e-05
6.14304e-05
4.72964e-05
5.95395e-05
6.4693e-05
5.68711e-05
9.0732e-05
5.3397e-05
0.000133048
4.83273e-05
0.000193753
4.12016e-05
0.000316222
2.88032e-05
0.000433071
0.000733869
6.81684e-05
6.77997e-07
6.81133e-05
1.83587e-06
6.80272e-05
2.83142e-06
6.79102e-05
3.86362e-06
6.77583e-05
5.00618e-06
6.7567e-05
6.32843e-06
6.73307e-05
7.80384e-06
6.7037e-05
9.78621e-06
6.66359e-05
1.22816e-05
6.61801e-05
1.52983e-05
6.5604e-05
1.88534e-05
6.48912e-05
2.33996e-05
6.39999e-05
2.92291e-05
6.28921e-05
3.74508e-05
6.14384e-05
4.87501e-05
5.95566e-05
6.65752e-05
5.69025e-05
9.33861e-05
5.34588e-05
0.000136492
4.84503e-05
0.000198762
4.15862e-05
0.000323086
2.93528e-05
0.000445304
0.000763222
6.81684e-05
6.9852e-07
6.81134e-05
1.89122e-06
6.80274e-05
2.91717e-06
6.79103e-05
3.98048e-06
6.77584e-05
5.15759e-06
6.75671e-05
6.51968e-06
6.73309e-05
8.04005e-06
6.70372e-05
1.008e-05
6.66351e-05
1.26838e-05
6.61804e-05
1.5753e-05
6.56043e-05
1.94295e-05
6.48918e-05
2.41121e-05
6.40013e-05
3.01205e-05
6.28956e-05
3.85556e-05
6.14469e-05
5.01987e-05
5.95748e-05
6.8447e-05
5.69363e-05
9.60245e-05
5.35232e-05
0.000139905
4.85755e-05
0.000203709
4.19831e-05
0.000329678
2.99226e-05
0.000457365
0.000793145
6.81684e-05
7.19059e-07
6.81133e-05
1.94663e-06
6.80273e-05
3.00305e-06
6.79102e-05
4.09745e-06
6.77584e-05
5.30908e-06
6.75671e-05
6.7109e-06
6.73311e-05
8.27597e-06
6.70373e-05
1.03739e-05
6.66344e-05
1.30868e-05
6.61807e-05
1.62066e-05
6.56047e-05
2.00056e-05
6.48924e-05
2.48244e-05
6.40028e-05
3.10091e-05
6.28993e-05
3.96602e-05
6.14558e-05
5.16423e-05
5.9594e-05
7.03091e-05
5.69725e-05
9.86461e-05
5.35905e-05
0.000143287
4.87032e-05
0.000208597
4.2392e-05
0.000335989
3.05128e-05
0.000469244
0.000823658
6.81684e-05
7.39576e-07
6.81134e-05
2.00194e-06
6.80274e-05
3.08878e-06
6.79104e-05
4.21428e-06
6.77586e-05
5.46042e-06
6.75673e-05
6.90214e-06
6.73315e-05
8.51177e-06
6.70371e-05
1.06684e-05
6.66339e-05
1.349e-05
6.61811e-05
1.66594e-05
6.56051e-05
2.05816e-05
6.48931e-05
2.55365e-05
6.40043e-05
3.18988e-05
6.29031e-05
4.07604e-05
6.1465e-05
5.30803e-05
5.96143e-05
7.21595e-05
5.70111e-05
0.000101249
5.36609e-05
0.000146637
4.88338e-05
0.000213424
4.28127e-05
0.00034201
3.11234e-05
0.000480933
0.000854781
6.81684e-05
7.60111e-07
6.81133e-05
2.05733e-06
6.80273e-05
3.17466e-06
6.79103e-05
4.33123e-06
6.77585e-05
5.61183e-06
6.75672e-05
7.0934e-06
6.73319e-05
8.74702e-06
6.70329e-05
1.09675e-05
6.66354e-05
1.38875e-05
6.61815e-05
1.71133e-05
6.56056e-05
2.11575e-05
6.48938e-05
2.62482e-05
6.40059e-05
3.27857e-05
6.29071e-05
4.18603e-05
6.14746e-05
5.45129e-05
5.96356e-05
7.39989e-05
5.7052e-05
0.000103833
5.37346e-05
0.000149955
4.89678e-05
0.000218191
4.32454e-05
0.000347733
3.17549e-05
0.000492424
0.000886536
6.81684e-05
7.80623e-07
6.81134e-05
2.1126e-06
6.80274e-05
3.26037e-06
6.79105e-05
4.44804e-06
6.77588e-05
5.76304e-06
6.75672e-05
7.28488e-06
6.7333e-05
8.98127e-06
6.70186e-05
1.1282e-05
6.66413e-05
1.42648e-05
6.61819e-05
1.75727e-05
6.56061e-05
2.17333e-05
6.48945e-05
2.69599e-05
6.40075e-05
3.36737e-05
6.29113e-05
4.29556e-05
6.14846e-05
5.59394e-05
5.96578e-05
7.58254e-05
5.70951e-05
0.000106395
5.38117e-05
0.000153238
4.91056e-05
0.000222897
4.36907e-05
0.000353148
3.24078e-05
0.000503707
0.000918944
6.81684e-05
8.01154e-07
6.81133e-05
2.16796e-06
6.80273e-05
3.34623e-06
6.79103e-05
4.56499e-06
6.77587e-05
5.91429e-06
6.75671e-05
7.47649e-06
6.73337e-05
9.21454e-06
6.70104e-05
1.16053e-05
6.66441e-05
1.46311e-05
6.61824e-05
1.80344e-05
6.56066e-05
2.23091e-05
6.48953e-05
2.76712e-05
6.40091e-05
3.45588e-05
6.29155e-05
4.40503e-05
6.14948e-05
5.73602e-05
5.96808e-05
7.76398e-05
5.71404e-05
0.000108936
5.38927e-05
0.000156486
4.92475e-05
0.000227542
4.41488e-05
0.000358246
3.30828e-05
0.000514773
0.000952026
6.81684e-05
8.21661e-07
6.81135e-05
2.2232e-06
6.80275e-05
3.43193e-06
6.79105e-05
4.68178e-06
6.77589e-05
6.06538e-06
6.75673e-05
7.6681e-06
6.73341e-05
9.44771e-06
6.70078e-05
1.19318e-05
6.66444e-05
1.49945e-05
6.61829e-05
1.84959e-05
6.56072e-05
2.28848e-05
6.4896e-05
2.83825e-05
6.40108e-05
3.54449e-05
6.29199e-05
4.51402e-05
6.15053e-05
5.87745e-05
5.97046e-05
7.94402e-05
5.71876e-05
0.000111453
5.39778e-05
0.000159696
4.93936e-05
0.000232126
4.46198e-05
0.00036302
3.37803e-05
0.000525612
0.000985807
6.81684e-05
8.4219e-07
6.81134e-05
2.27853e-06
6.80274e-05
3.51777e-06
6.79104e-05
4.79868e-06
6.77588e-05
6.21662e-06
6.75675e-05
7.85941e-06
6.73322e-05
9.68292e-06
6.70065e-05
1.22575e-05
6.66443e-05
1.53568e-05
6.61833e-05
1.89569e-05
6.56077e-05
2.34604e-05
6.48968e-05
2.90934e-05
6.40125e-05
3.6328e-05
6.29243e-05
4.62298e-05
6.15161e-05
6.01829e-05
5.97291e-05
8.12276e-05
5.72366e-05
0.000113945
5.40672e-05
0.000162865
4.95436e-05
0.00023665
4.51022e-05
0.000367461
3.44997e-05
0.000536215
0.00102031
6.81684e-05
8.62696e-07
6.81135e-05
2.33375e-06
6.80275e-05
3.60349e-06
6.79107e-05
4.91533e-06
6.77587e-05
6.3681e-06
6.7569e-05
8.04901e-06
6.7317e-05
9.93497e-06
6.70079e-05
1.25666e-05
6.66441e-05
1.57206e-05
6.61837e-05
1.94173e-05
6.56082e-05
2.40358e-05
6.48975e-05
2.98042e-05
6.40142e-05
3.72124e-05
6.29287e-05
4.7314e-05
6.15271e-05
6.15843e-05
5.97542e-05
8.30001e-05
5.72872e-05
0.000116412
5.41614e-05
0.000165991
4.96973e-05
0.000241114
4.55916e-05
0.000371567
3.5238e-05
0.000546568
0.00105554
6.81683e-05
8.8322e-07
6.81134e-05
2.38902e-06
6.80274e-05
3.68937e-06
6.79106e-05
5.03203e-06
6.77584e-05
6.52003e-06
6.75702e-05
8.23719e-06
6.73069e-05
1.01981e-05
6.70087e-05
1.28648e-05
6.66439e-05
1.60854e-05
6.6184e-05
1.98772e-05
6.56087e-05
2.46111e-05
6.48982e-05
3.05146e-05
6.40158e-05
3.80935e-05
6.29332e-05
4.8398e-05
6.15382e-05
6.29795e-05
5.97798e-05
8.47589e-05
5.73391e-05
0.000118853
5.42608e-05
0.000169069
4.98542e-05
0.000245521
4.60785e-05
0.000375343
3.59874e-05
0.00055666
0.00109153
6.81683e-05
9.03664e-07
6.81135e-05
2.44417e-06
6.80275e-05
3.77507e-06
6.79109e-05
5.1485e-06
6.77585e-05
6.67183e-06
6.75707e-05
8.42493e-06
6.73042e-05
1.04646e-05
6.70083e-05
1.31607e-05
6.66437e-05
1.64499e-05
6.61842e-05
2.03368e-05
6.56091e-05
2.51862e-05
6.48989e-05
3.12249e-05
6.40174e-05
3.89761e-05
6.29377e-05
4.94766e-05
6.15495e-05
6.43675e-05
5.98058e-05
8.65022e-05
5.7392e-05
0.000121267
5.43663e-05
0.000172095
5.00134e-05
0.000249873
4.65599e-05
0.000378796
3.68275e-05
0.000566392
0.00112836
1.18428e-06
-1.18431e-06
-8.86915e-07
2.07119e-06
-1.70395e-06
8.17026e-07
-1.89385e-06
1.89884e-07
-1.64477e-06
-2.49111e-07
-1.20424e-06
-4.40603e-07
-1.00679e-06
-1.97531e-07
-9.77144e-07
-2.97485e-08
-1.09568e-06
1.1774e-07
-1.19721e-06
1.00471e-07
-1.32837e-06
1.26784e-07
-1.19804e-06
-1.20653e-07
-8.87791e-07
-3.07852e-07
-4.31296e-07
-4.59233e-07
2.37181e-07
-6.72179e-07
1.33767e-06
-1.10237e-06
2.85734e-06
-1.51771e-06
4.8397e-06
-1.98125e-06
7.27764e-06
-2.43392e-06
1.01519e-05
-2.87734e-06
1.33955e-05
-3.2462e-06
1.68527e-05
-3.4554e-06
2.02941e-05
-3.44078e-06
2.35685e-05
-3.27495e-06
2.66548e-05
-3.08706e-06
2.95886e-05
-2.93384e-06
3.24178e-05
-2.8292e-06
3.51899e-05
-2.77141e-06
3.79109e-05
-2.71859e-06
4.06261e-05
-2.7164e-06
4.33851e-05
-2.76045e-06
4.55405e-05
-2.15462e-06
4.81798e-05
-2.63736e-06
5.78442e-05
-9.66642e-06
-8.28919e-06
1.20225e-06
-2.3866e-06
-8.67914e-07
4.14134e-06
-1.67068e-06
1.61978e-06
-1.86629e-06
3.85463e-07
-1.60676e-06
-5.08715e-07
-1.17782e-06
-8.69677e-07
-9.72911e-07
-4.02587e-07
-9.4452e-07
-5.83425e-08
-1.06252e-06
2.34271e-07
-1.1874e-06
2.23385e-07
-1.34123e-06
2.73672e-07
-1.20906e-06
-2.35686e-07
-8.57863e-07
-6.54321e-07
-3.65787e-07
-9.56747e-07
2.85052e-07
-1.33045e-06
1.33068e-06
-2.15187e-06
2.82332e-06
-3.00638e-06
4.8245e-06
-3.98013e-06
7.29343e-06
-4.89507e-06
1.01705e-05
-5.76042e-06
1.33937e-05
-6.47451e-06
1.68293e-05
-6.88734e-06
2.02672e-05
-6.87756e-06
2.35515e-05
-6.56035e-06
2.66474e-05
-6.18447e-06
2.95847e-05
-5.87115e-06
3.24122e-05
-5.65667e-06
3.51804e-05
-5.53826e-06
3.7897e-05
-5.4307e-06
4.0606e-05
-5.42771e-06
4.33638e-05
-5.52088e-06
4.5551e-05
-4.34038e-06
4.80694e-05
-5.15226e-06
5.76338e-05
-1.92346e-05
-1.66562e-05
1.2186e-06
-3.60525e-06
-8.43808e-07
6.20374e-06
-1.63504e-06
2.411e-06
-1.81781e-06
5.68213e-07
-1.55521e-06
-7.71378e-07
-1.12898e-06
-1.29603e-06
-9.25306e-07
-6.06395e-07
-8.96703e-07
-8.71247e-08
-1.02432e-06
3.60524e-07
-1.17431e-06
3.71522e-07
-1.34752e-06
4.40218e-07
-1.19576e-06
-3.70266e-07
-7.94285e-07
-1.05114e-06
-2.8272e-07
-1.47377e-06
3.26231e-07
-1.94681e-06
1.31701e-06
-3.14665e-06
2.79763e-06
-4.48277e-06
4.82962e-06
-6.00971e-06
7.33319e-06
-7.39033e-06
1.02163e-05
-8.6497e-06
1.34198e-05
-9.68299e-06
1.68387e-05
-1.03027e-05
2.0276e-05
-1.03137e-05
2.35692e-05
-9.85459e-06
2.66738e-05
-9.29064e-06
2.96137e-05
-8.81109e-06
3.24386e-05
-8.48158e-06
3.52018e-05
-8.30009e-06
3.7912e-05
-8.13636e-06
4.06124e-05
-8.1304e-06
4.33648e-05
-8.27592e-06
4.55814e-05
-6.55555e-06
4.79887e-05
-7.55601e-06
5.74505e-05
-2.87002e-05
-2.50803e-05
1.23678e-06
-4.84207e-06
-8.17639e-07
8.25815e-06
-1.59205e-06
3.18539e-06
-1.75459e-06
7.30728e-07
-1.48607e-06
-1.03996e-06
-1.06383e-06
-1.71841e-06
-8.63869e-07
-8.06498e-07
-8.36538e-07
-1.14652e-07
-9.73659e-07
4.96274e-07
-1.14875e-06
5.44727e-07
-1.33989e-06
6.25941e-07
-1.16578e-06
-5.27081e-07
-7.1343e-07
-1.49808e-06
-1.85386e-07
-2.00819e-06
3.78908e-07
-2.51992e-06
1.31327e-06
-4.08606e-06
2.78241e-06
-5.94653e-06
4.84994e-06
-8.07403e-06
7.39556e-06
-9.92596e-06
1.02922e-05
-1.15535e-05
1.34812e-05
-1.28777e-05
1.68857e-05
-1.37032e-05
2.0323e-05
-1.37496e-05
2.36248e-05
-1.31576e-05
2.67375e-05
-1.2405e-05
2.96791e-05
-1.17528e-05
3.25002e-05
-1.13027e-05
3.52566e-05
-1.10549e-05
3.79577e-05
-1.08328e-05
4.06464e-05
-1.08216e-05
4.33897e-05
-1.1022e-05
4.56324e-05
-8.79672e-06
4.79385e-05
-9.85845e-06
5.72918e-05
-3.80574e-05
-3.35425e-05
1.25673e-06
-6.09884e-06
-7.89451e-07
1.03043e-05
-1.5413e-06
3.93722e-06
-1.67683e-06
8.66232e-07
-1.40018e-06
-1.31667e-06
-9.83541e-07
-2.13517e-06
-7.89468e-07
-1.00069e-06
-7.64188e-07
-1.40099e-07
-9.10276e-07
6.41126e-07
-1.10954e-06
7.42176e-07
-1.31632e-06
8.28545e-07
-1.11725e-06
-7.10176e-07
-6.13751e-07
-1.99645e-06
-7.15404e-08
-2.55661e-06
4.46546e-07
-3.04621e-06
1.32393e-06
-4.96851e-06
2.78244e-06
-7.39927e-06
4.89152e-06
-1.01795e-05
7.48842e-06
-1.25112e-05
1.04061e-05
-1.44791e-05
1.35853e-05
-1.60628e-05
1.69771e-05
-1.70906e-05
2.04144e-05
-1.71857e-05
2.37248e-05
-1.64692e-05
2.68447e-05
-1.55267e-05
2.97868e-05
-1.46949e-05
3.26022e-05
-1.41181e-05
3.53492e-05
-1.38003e-05
3.80379e-05
-1.35165e-05
4.07111e-05
-1.34974e-05
4.3441e-05
-1.37548e-05
4.57062e-05
-1.10603e-05
4.79193e-05
-1.20679e-05
5.71566e-05
-4.72986e-05
-4.20238e-05
1.27836e-06
-7.37724e-06
-7.59225e-07
1.23419e-05
-1.48211e-06
4.66009e-06
-1.5843e-06
9.68387e-07
-1.2977e-06
-1.60333e-06
-8.88548e-07
-2.54446e-06
-7.02131e-07
-1.18724e-06
-6.79128e-07
-1.63302e-07
-8.33397e-07
7.94085e-07
-1.05523e-06
9.62125e-07
-1.27471e-06
1.0448e-06
-1.04897e-06
-9.19018e-07
-4.9559e-07
-2.5437e-06
5.89623e-08
-3.11851e-06
5.31975e-07
-3.5291e-06
1.35512e-06
-5.79795e-06
2.80635e-06
-8.84309e-06
4.96476e-06
-1.2333e-05
7.6239e-06
-1.51554e-05
1.05702e-05
-1.74355e-05
1.37435e-05
-1.9243e-05
1.71233e-05
-2.04654e-05
2.05607e-05
-2.06215e-05
2.38792e-05
-1.97893e-05
2.70058e-05
-1.86554e-05
2.99464e-05
-1.76356e-05
3.27531e-05
-1.69248e-05
3.54869e-05
-1.65322e-05
3.81585e-05
-1.61825e-05
4.08112e-05
-1.61531e-05
4.35222e-05
-1.6469e-05
4.58055e-05
-1.33418e-05
4.79324e-05
-1.41908e-05
5.70445e-05
-5.64149e-05
-5.05054e-05
1.3014e-06
-8.67868e-06
-7.26848e-07
1.43701e-05
-1.41351e-06
5.34674e-06
-1.47602e-06
1.03086e-06
-1.17808e-06
-1.90133e-06
-7.78374e-07
-2.9443e-06
-6.01046e-07
-1.36467e-06
-5.80116e-07
-1.84402e-07
-7.41535e-07
9.54315e-07
-9.83974e-07
1.20269e-06
-1.21298e-06
1.2722e-06
-9.60061e-07
-1.15724e-06
-3.59126e-07
-3.13898e-06
2.07123e-07
-3.69185e-06
6.38626e-07
-3.96939e-06
1.41343e-06
-6.5787e-06
2.86498e-06
-1.02873e-05
5.08423e-06
-1.45468e-05
7.81936e-06
-1.78728e-05
1.08025e-05
-2.04303e-05
1.39724e-05
-2.24206e-05
1.73402e-05
-2.38276e-05
2.0777e-05
-2.40566e-05
2.41037e-05
-2.31177e-05
2.72361e-05
-2.179e-05
3.01725e-05
-2.05721e-05
3.29658e-05
-1.9718e-05
3.56805e-05
-1.92448e-05
3.83282e-05
-1.88243e-05
4.09537e-05
-1.87819e-05
4.36388e-05
-1.91575e-05
4.59346e-05
-1.56357e-05
4.798e-05
-1.62319e-05
5.69555e-05
-6.53949e-05
-5.89678e-05
1.32546e-06
-1.00042e-05
-6.92082e-07
1.63877e-05
-1.33424e-06
5.98887e-06
-1.35049e-06
1.04708e-06
-1.04032e-06
-2.21156e-06
-6.51932e-07
-3.33283e-06
-4.84801e-07
-1.53193e-06
-4.65344e-07
-2.04074e-07
-6.32515e-07
1.12016e-06
-8.93236e-07
1.46141e-06
-1.12849e-06
1.50649e-06
-8.4875e-07
-1.42038e-06
-2.02399e-07
-3.7783e-06
3.76711e-07
-4.27969e-06
7.71583e-07
-4.37534e-06
1.50565e-06
-7.32021e-06
2.96979e-06
-1.17421e-05
5.26803e-06
-1.68379e-05
8.09879e-06
-2.06808e-05
1.11289e-05
-2.34754e-05
1.42974e-05
-2.55987e-05
1.76516e-05
-2.71749e-05