/*--------------------------------*- C++ -*----------------------------------*\
| =========                 |                                                 |
| \\      /  F ield         | OpenFOAM: The Open Source CFD Toolbox           |
|  \\    /   O peration     | Version:  v1912                                 |
|   \\  /    A nd           | Website:  www.openfoam.com                      |
|    \\/     M anipulation  |                                                 |
\*---------------------------------------------------------------------------*/
FoamFile
{
    version     2.0;
    format      ascii;
    class       volVectorField;
    location    "600";
    object      U;
}
// * * * * * * * * * * * * * * * * * * * * * * * * * * * * * * * * * * * * * //

dimensions      [0 1 -1 0 0 0 0];


internalField   nonuniform List<vector> 
12441
(
(29.9988 1.72492e-05 0)
(29.9852 5.25191e-05 0)
(29.9555 9.13837e-05 0)
(29.9104 0.000140224 0)
(29.8513 0.000204215 0)
(29.7762 0.000289996 0)
(29.6831 0.000401284 0)
(29.5672 0.000566641 0)
(29.4232 0.000788904 0)
(29.2431 0.0010929 0)
(29.0256 0.00151973 0)
(28.7542 0.00213644 0)
(28.3986 0.0029161 0)
(27.981 0.00444786 0)
(27.4196 0.00619317 0)
(26.6374 0.0112716 0)
(25.592 0.0152021 0)
(23.9094 0.031798 0)
(21.5371 0.053209 0)
(17.8281 0.0914865 0)
(12.045 0.121815 0)
(5.77416 0.195463 0)
(29.9988 5.12417e-05 0)
(29.9852 0.000156849 0)
(29.9555 0.000272535 0)
(29.9104 0.000418293 0)
(29.8513 0.00060941 0)
(29.7762 0.000865502 0)
(29.6831 0.00119964 0)
(29.5672 0.0016933 0)
(29.4233 0.00235991 0)
(29.2431 0.00326884 0)
(29.0257 0.00454693 0)
(28.7559 0.00640177 0)
(28.3972 0.00872172 0)
(27.9798 0.0133319 0)
(27.4179 0.0186396 0)
(26.6378 0.0335393 0)
(25.5936 0.0481999 0)
(23.9097 0.0913152 0)
(21.5376 0.139047 0)
(17.8269 0.264713 0)
(12.0462 0.357905 0)
(5.77807 0.583803 0)
(29.9988 8.50674e-05 0)
(29.9852 0.00026104 0)
(29.9554 0.000452941 0)
(29.9104 0.000695233 0)
(29.8513 0.00101337 0)
(29.7762 0.00144031 0)
(29.6831 0.00199665 0)
(29.5672 0.00281857 0)
(29.4233 0.0039288 0)
(29.2431 0.00544236 0)
(29.0259 0.00757972 0)
(28.7558 0.0106474 0)
(28.397 0.0145344 0)
(27.9831 0.0222189 0)
(27.4192 0.0311364 0)
(26.6389 0.0549461 0)
(25.5947 0.0819507 0)
(23.9142 0.148998 0)
(21.5412 0.22235 0)
(17.8266 0.435617 0)
(12.0523 0.590511 0)
(5.78639 0.970234 0)
(29.9988 0.000119325 0)
(29.9852 0.000365997 0)
(29.9555 0.000634276 0)
(29.9104 0.000973498 0)
(29.8513 0.00141906 0)
(29.7762 0.00201709 0)
(29.6831 0.00279629 0)
(29.5672 0.00394693 0)
(29.4233 0.00550178 0)
(29.2431 0.00762078 0)
(29.0258 0.0106181 0)
(28.756 0.0149037 0)
(28.3974 0.0203567 0)
(27.9796 0.0311268 0)
(27.4187 0.0436435 0)
(26.6392 0.0764004 0)
(25.5969 0.114957 0)
(23.9191 0.209654 0)
(21.5499 0.330383 0)
(17.8311 0.614574 0)
(12.0646 0.827071 0)
(5.7994 1.35831 0)
(29.9988 0.000153649 0)
(29.9852 0.000470849 0)
(29.9555 0.000815418 0)
(29.9104 0.00125152 0)
(29.8513 0.00182438 0)
(29.7762 0.00259332 0)
(29.6831 0.00359523 0)
(29.5672 0.00507446 0)
(29.4233 0.00707372 0)
(29.2431 0.00979782 0)
(29.026 0.0136551 0)
(28.7558 0.0191588 0)
(28.3972 0.0261767 0)
(27.9833 0.0400365 0)
(27.4199 0.0561718 0)
(26.6402 0.0976267 0)
(25.5992 0.147483 0)
(23.9237 0.271074 0)
(21.5609 0.421263 0)
(17.8414 0.789724 0)
(12.0848 1.06342 0)
(5.81743 1.74765 0)
(29.9988 0.000187975 0)
(29.9852 0.000575633 0)
(29.9555 0.000996536 0)
(29.9104 0.00152956 0)
(29.8513 0.00222971 0)
(29.7763 0.00316959 0)
(29.6831 0.00439432 0)
(29.5673 0.00620221 0)
(29.4233 0.00864585 0)
(29.2432 0.0119755 0)
(29.0259 0.0166917 0)
(28.7562 0.023416 0)
(28.398 0.0320025 0)
(27.9794 0.0489271 0)
(27.42 0.0687008 0)
(26.6409 0.118733 0)
(25.602 0.179733 0)
(23.9281 0.331967 0)
(21.5736 0.510597 0)
(17.8586 0.963558 0)
(12.1144 1.29948 0)
(5.84089 2.13809 0)
(29.9988 0.000222302 0)
(29.9852 0.000680389 0)
(29.9555 0.00117765 0)
(29.9104 0.00180762 0)
(29.8513 0.00263503 0)
(29.7763 0.00374585 0)
(29.6831 0.00519341 0)
(29.5673 0.00732993 0)
(29.4234 0.010218 0)
(29.2432 0.014153 0)
(29.0261 0.0197291 0)
(28.7557 0.0276714 0)
(28.3977 0.0378277 0)
(27.9839 0.0578144 0)
(27.4212 0.0812193 0)
(26.6421 0.139704 0)
(25.6053 0.211266 0)
(23.9325 0.39029 0)
(21.5914 0.602062 0)
(17.8863 1.13749 0)
(12.1562 1.53565 0)
(5.8703 2.52995 0)
(29.9988 0.000256631 0)
(29.9852 0.000785118 0)
(29.9555 0.00135875 0)
(29.9104 0.00208566 0)
(29.8514 0.00304032 0)
(29.7763 0.00432209 0)
(29.6832 0.0059925 0)
(29.5673 0.00845765 0)
(29.4234 0.01179 0)
(29.2434 0.0163307 0)
(29.026 0.0227655 0)
(28.7565 0.0319265 0)
(28.3992 0.0436608 0)
(27.9794 0.0666662 0)
(27.4215 0.093574 0)
(26.6425 0.160257 0)
(25.6107 0.244348 0)
(23.9383 0.450482 0)
(21.624 0.694546 0)
(17.9321 1.3109 0)
(12.2137 1.77215 0)
(5.90628 2.92371 0)
(29.9988 0.000290963 0)
(29.9852 0.00088982 0)
(29.9555 0.00153985 0)
(29.9104 0.00236371 0)
(29.8513 0.00344558 0)
(29.7763 0.0048983 0)
(29.6832 0.00679158 0)
(29.5674 0.00958535 0)
(29.4235 0.013362 0)
(29.2434 0.0185083 0)
(29.0262 0.0258028 0)
(28.7557 0.0361814 0)
(28.3981 0.0494844 0)
(27.9848 0.0756237 0)
(27.4246 0.106024 0)
(26.6431 0.181151 0)
(25.6198 0.275856 0)
(23.9517 0.510023 0)
(21.686 0.786698 0)
(18.0053 1.48352 0)
(12.2905 2.0093 0)
(5.9495 3.31989 0)
(29.9988 0.000325297 0)
(29.9852 0.000994495 0)
(29.9555 0.00172093 0)
(29.9104 0.00264175 0)
(29.8514 0.00385081 0)
(29.7763 0.00547448 0)
(29.6832 0.00759064 0)
(29.5674 0.010713 0)
(29.4235 0.0149338 0)
(29.2435 0.0206861 0)
(29.0261 0.0288383 0)
(28.757 0.0404325 0)
(28.4012 0.0553339 0)
(27.9805 0.0843378 0)
(27.4261 0.11913 0)
(26.6413 0.202438 0)
(25.6345 0.308018 0)
(23.9837 0.567617 0)
(21.7805 0.878633 0)
(18.1092 1.65577 0)
(12.3896 2.24759 0)
(6.00068 3.71912 0)
(29.9988 0.000359633 0)
(29.9852 0.00109914 0)
(29.9555 0.001902 0)
(29.9104 0.00291979 0)
(29.8514 0.00425601 0)
(29.7763 0.00605065 0)
(29.6832 0.00838966 0)
(29.5674 0.0118407 0)
(29.4236 0.0165055 0)
(29.2436 0.0228644 0)
(29.0263 0.0318742 0)
(28.7562 0.0446783 0)
(28.3987 0.0612474 0)
(27.981 0.0929851 0)
(27.4254 0.131602 0)
(26.6398 0.222715 0)
(25.6549 0.341028 0)
(24.0356 0.624278 0)
(21.889 0.970417 0)
(18.2364 1.82766 0)
(12.5115 2.48741 0)
(6.06051 4.12206 0)
(29.9988 0.00039397 0)
(29.9852 0.00120377 0)
(29.9555 0.00208307 0)
(29.9104 0.00319782 0)
(29.8514 0.00466118 0)
(29.7764 0.00662676 0)
(29.6833 0.00918865 0)
(29.5675 0.0129683 0)
(29.4236 0.0180769 0)
(29.2438 0.025042 0)
(29.0261 0.0349108 0)
(28.7577 0.0489167 0)
(28.4034 0.0671602 0)
(27.9754 0.101853 0)
(27.4207 0.145194 0)
(26.6403 0.243145 0)
(25.6747 0.373484 0)
(24.0907 0.678939 0)
(21.9893 1.06116 0)
(18.3736 1.99864 0)
(12.6543 2.72895 0)
(6.12957 4.52939 0)
(29.9988 0.000428308 0)
(29.9852 0.00130836 0)
(29.9555 0.00226413 0)
(29.9104 0.00347584 0)
(29.8514 0.00506633 0)
(29.7764 0.00720286 0)
(29.6833 0.00998756 0)
(29.5675 0.0140959 0)
(29.4236 0.0196477 0)
(29.2439 0.0272221 0)
(29.026 0.0379368 0)
(28.7577 0.0532072 0)
(28.4051 0.0730235 0)
(27.9693 0.110921 0)
(27.4158 0.158907 0)
(26.6428 0.262919 0)
(25.6898 0.405165 0)
(24.1358 0.731462 0)
(22.0717 1.15042 0)
(18.5089 2.168 0)
(12.8141 2.97207 0)
(6.20816 4.94173 0)
(29.9988 0.000462645 0)
(29.9852 0.00141293 0)
(29.9555 0.0024452 0)
(29.9104 0.00375385 0)
(29.8514 0.00547144 0)
(29.7764 0.00777892 0)
(29.6833 0.0107864 0)
(29.5676 0.0152235 0)
(29.4237 0.0212181 0)
(29.2441 0.0294046 0)
(29.0257 0.0409752 0)
(28.7593 0.0574989 0)
(28.409 0.0794216 0)
(27.9621 0.120054 0)
(27.4128 0.172055 0)
(26.6454 0.282002 0)
(25.7 0.436204 0)
(24.1688 0.782351 0)
(22.1369 1.2382 0)
(18.6352 2.33524 0)
(12.9864 3.21644 0)
(6.2963 5.35963 0)
(29.9988 0.000496983 0)
(29.9852 0.00151747 0)
(29.9555 0.00262627 0)
(29.9104 0.00403185 0)
(29.8514 0.00587652 0)
(29.7764 0.00835495 0)
(29.6833 0.0115852 0)
(29.5676 0.016351 0)
(29.4237 0.0227879 0)
(29.2444 0.0315884 0)
(29.0252 0.0440244 0)
(28.7601 0.0616802 0)
(28.4056 0.085876 0)
(27.957 0.128902 0)
(27.4112 0.184985 0)
(26.6475 0.30086 0)
(25.7064 0.466916 0)
(24.192 0.832154 0)
(22.1887 1.32461 0)
(18.7496 2.50005 0)
(13.1666 3.46161 0)
(6.39376 5.78352 0)
(29.9988 0.000531319 0)
(29.9853 0.00162198 0)
(29.9555 0.00280734 0)
(29.9105 0.00430985 0)
(29.8514 0.00628157 0)
(29.7765 0.00893093 0)
(29.6834 0.0123838 0)
(29.5677 0.0174787 0)
(29.4238 0.0243559 0)
(29.2446 0.0337798 0)
(29.0246 0.0470793 0)
(28.7594 0.0660114 0)
(28.4008 0.0923253 0)
(27.9538 0.137548 0)
(27.4103 0.197803 0)
(26.6492 0.319656 0)
(25.7103 0.497454 0)
(24.2085 0.881225 0)
(22.2309 1.40975 0)
(18.8521 2.66223 0)
(13.3514 3.70714 0)
(6.50007 6.21377 0)
(29.9988 0.000565654 0)
(29.9852 0.00172646 0)
(29.9555 0.00298841 0)
(29.9104 0.00458783 0)
(29.8514 0.00668659 0)
(29.7764 0.00950688 0)
(29.6834 0.0131824 0)
(29.5677 0.0186063 0)
(29.4239 0.025924 0)
(29.2447 0.0359695 0)
(29.0246 0.0502055 0)
(28.7556 0.0704336 0)
(28.3963 0.0986149 0)
(27.9521 0.146151 0)
(27.4097 0.210614 0)
(26.6504 0.338441 0)
(25.7125 0.527876 0)
(24.2203 0.929763 0)
(22.2667 1.49373 0)
(18.9437 2.82165 0)
(13.5382 3.95259 0)
(6.61471 6.65064 0)
(29.9988 0.000599987 0)
(29.9853 0.00183092 0)
(29.9555 0.00316949 0)
(29.9105 0.00486579 0)
(29.8515 0.00709158 0)
(29.7765 0.0100828 0)
(29.6834 0.0139809 0)
(29.5678 0.0197335 0)
(29.424 0.0274928 0)
(29.2446 0.0381529 0)
(29.0254 0.0533665 0)
(28.7501 0.0749511 0)
(28.3932 0.104808 0)
(27.9511 0.154726 0)
(27.4094 0.223431 0)
(26.6515 0.357222 0)
(25.7135 0.558212 0)
(24.2291 0.977875 0)
(22.2983 1.57661 0)
(19.0263 2.97824 0)
(13.7255 4.19759 0)
(6.73708 7.09435 0)
(29.9988 0.000634318 0)
(29.9852 0.00193534 0)
(29.9555 0.00335058 0)
(29.9104 0.00514375 0)
(29.8514 0.00749654 0)
(29.7765 0.0106586 0)
(29.6835 0.0147794 0)
(29.5678 0.0208604 0)
(29.4241 0.029062 0)
(29.2445 0.0403423 0)
(29.0264 0.0565283 0)
(28.7451 0.0793388 0)
(28.3913 0.110957 0)
(27.9506 0.163306 0)
(27.4091 0.236254 0)
(26.6523 0.376003 0)
(25.7139 0.58848 0)
(24.2361 1.02562 0)
(22.3273 1.65845 0)
(19.1017 3.13194 0)
(13.9124 4.44179 0)
(6.86666 7.54508 0)
(29.9988 0.000668647 0)
(29.9853 0.00203974 0)
(29.9555 0.00353167 0)
(29.9105 0.00542169 0)
(29.8515 0.00790147 0)
(29.7765 0.0112343 0)
(29.6835 0.0155778 0)
(29.5679 0.0219869 0)
(29.4243 0.0306332 0)
(29.2446 0.0425401 0)
(29.0269 0.0597465 0)
(28.7414 0.0836354 0)
(28.3901 0.11709 0)
(27.9503 0.17189 0)
(27.409 0.249077 0)
(26.6531 0.394788 0)
(25.714 0.618694 0)
(24.2421 1.07304 0)
(22.3551 1.73931 0)
(19.1716 3.28275 0)
(14.0988 4.68491 0)
(7.00296 8.00299 0)
(29.9988 0.000702973 0)
(29.9853 0.0021441 0)
(29.9555 0.00371277 0)
(29.9105 0.00569961 0)
(29.8515 0.00830637 0)
(29.7765 0.01181 0)
(29.6835 0.0163762 0)
(29.5679 0.023113 0)
(29.4243 0.0322038 0)
(29.2451 0.0447541 0)
(29.0261 0.062993 0)
(28.7388 0.0879246 0)
(28.3894 0.123214 0)
(27.9502 0.18048 0)
(27.4089 0.261898 0)
(26.6539 0.413578 0)
(25.7141 0.648867 0)
(24.2477 1.12013 0)
(22.3824 1.81922 0)
(19.2374 3.43064 0)
(14.285 4.92669 0)
(7.14561 8.46823 0)
(29.9988 0.000737295 0)
(29.9853 0.00224844 0)
(29.9555 0.00389388 0)
(29.9105 0.00597752 0)
(29.8515 0.00871123 0)
(29.7766 0.0123857 0)
(29.6836 0.0171742 0)
(29.5681 0.0242398 0)
(29.4242 0.0337693 0)
(29.246 0.0470293 0)
(29.0236 0.0662416 0)
(28.737 0.0922262 0)
(28.3889 0.129339 0)
(27.9502 0.189072 0)
(27.409 0.274714 0)
(26.6548 0.432373 0)
(25.7145 0.679007 0)
(24.2536 1.16688 0)
(22.41 1.8982 0)
(19.3006 3.57563 0)
(14.4716 5.16694 0)
(7.29432 8.94096 0)
(29.9988 0.000771615 0)
(29.9853 0.00235275 0)
(29.9555 0.00407499 0)
(29.9105 0.00625541 0)
(29.8515 0.00911603 0)
(29.7766 0.0129613 0)
(29.6836 0.017972 0)
(29.5682 0.0253672 0)
(29.4241 0.0353302 0)
(29.247 0.0493557 0)
(29.0206 0.0694697 0)
(28.7359 0.0965505 0)
(28.3887 0.135462 0)
(27.9504 0.197665 0)
(27.4091 0.287524 0)
(26.6559 0.451173 0)
(25.7154 0.709117 0)
(24.2599 1.21324 0)
(22.4382 1.97628 0)
(19.3622 3.71772 0)
(14.6595 5.40546 0)
(7.44892 9.42132 0)
(29.9988 0.000805931 0)
(29.9853 0.00245703 0)
(29.9556 0.00425611 0)
(29.9105 0.00653329 0)
(29.8516 0.00952079 0)
(29.7767 0.0135369 0)
(29.6837 0.0187694 0)
(29.5683 0.0264953 0)
(29.4241 0.0368854 0)
(29.2477 0.05172 0)
(29.0183 0.0725888 0)
(28.7351 0.100886 0)
(28.3885 0.141585 0)
(27.9505 0.206256 0)
(27.4095 0.300329 0)
(26.6573 0.469973 0)
(25.7171 0.739186 0)
(24.267 1.25919 0)
(22.4672 2.0535 0)
(19.4231 3.85689 0)
(14.8496 5.64212 0)
(7.60931 9.90951 0)
(29.9988 0.000840244 0)
(29.9853 0.00256128 0)
(29.9555 0.00443723 0)
(29.9105 0.00681114 0)
(29.8515 0.00992549 0)
(29.7767 0.0141124 0)
(29.6837 0.0195665 0)
(29.5684 0.0276239 0)
(29.4242 0.0384356 0)
(29.2479 0.0540703 0)
(29.0166 0.0756353 0)
(28.7346 0.105227 0)
(28.3885 0.147705 0)
(27.9508 0.214844 0)
(27.4099 0.313125 0)
(26.659 0.488765 0)
(25.7198 0.76919 0)
(24.2749 1.30472 0)
(22.497 2.12986 0)
(19.4842 3.99311 0)
(15.0432 5.87678 0)
(7.77553 10.4057 0)
(29.9988 0.000874552 0)
(29.9853 0.0026655 0)
(29.9556 0.00461837 0)
(29.9105 0.00708897 0)
(29.8516 0.0103302 0)
(29.7767 0.0146878 0)
(29.6838 0.0203636 0)
(29.5684 0.0287511 0)
(29.4244 0.0400006 0)
(29.2477 0.0564018 0)
(29.0155 0.0786543 0)
(28.7343 0.109568 0)
(28.3885 0.153822 0)
(27.9511 0.223429 0)
(27.4106 0.325911 0)
(26.6611 0.507536 0)
(25.7235 0.799104 0)
(24.2838 1.34984 0)
(22.5277 2.20538 0)
(19.5461 4.12633 0)
(15.2416 6.10935 0)
(7.94769 10.9102 0)
(29.9988 0.000908857 0)
(29.9853 0.00276969 0)
(29.9555 0.0047995 0)
(29.9105 0.00736677 0)
(29.8516 0.0107348 0)
(29.7767 0.0152631 0)
(29.6838 0.0211607 0)
(29.5684 0.029879 0)
(29.4248 0.0415754 0)
(29.2468 0.0588328 0)
(29.0147 0.0816825 0)
(28.7341 0.113908 0)
(28.3886 0.159935 0)
(27.9515 0.232011 0)
(27.4115 0.33868 0)
(26.6636 0.526271 0)
(25.7283 0.828913 0)
(24.2938 1.39457 0)
(22.5591 2.28006 0)
(19.6091 4.25647 0)
(15.446 6.33971 0)
(8.12597 11.4231 0)
(29.9988 0.000943158 0)
(29.9853 0.00287385 0)
(29.9556 0.00498064 0)
(29.9106 0.00764456 0)
(29.8516 0.0111394 0)
(29.7768 0.0158383 0)
(29.6839 0.0219576 0)
(29.5684 0.0310056 0)
(29.4254 0.0431614 0)
(29.2453 0.0612354 0)
(29.0142 0.0847366 0)
(28.734 0.118246 0)
(28.3888 0.166045 0)
(27.952 0.240586 0)
(27.4126 0.351428 0)
(26.6666 0.544956 0)
(25.734 0.858611 0)
(24.3048 1.43891 0)
(22.5913 2.3539 0)
(19.6735 4.38341 0)
(15.6577 6.56779 0)
(8.31063 11.9449 0)
(29.9988 0.000977453 0)
(29.9853 0.00297798 0)
(29.9555 0.00516178 0)
(29.9105 0.00792229 0)
(29.8516 0.011544 0)
(29.7768 0.0164133 0)
(29.6839 0.0227554 0)
(29.5684 0.0321267 0)
(29.426 0.044806 0)
(29.2435 0.063498 0)
(29.0138 0.0878166 0)
(28.734 0.122583 0)
(28.3889 0.172151 0)
(27.9526 0.249153 0)
(27.4138 0.364147 0)
(26.6701 0.56358 0)
(25.7407 0.888196 0)
(24.317 1.48288 0)
(22.6242 2.42689 0)
(19.7393 4.50702 0)
(15.8775 6.79348 0)
(8.50199 12.4758 0)
(29.9988 0.00101175 0)
(29.9853 0.00308208 0)
(29.9556 0.00534294 0)
(29.9106 0.00820001 0)
(29.8517 0.0119486 0)
(29.7768 0.016988 0)
(29.6841 0.0235532 0)
(29.5684 0.0332459 0)
(29.4266 0.0464787 0)
(29.242 0.0657372 0)
(29.0136 0.090914 0)
(28.7341 0.126917 0)
(28.3892 0.178252 0)
(27.9532 0.257709 0)
(27.4153 0.376835 0)
(26.6739 0.582136 0)
(25.7483 0.917666 0)
(24.3304 1.52647 0)
(22.6579 2.49903 0)
(19.8066 4.62714 0)
(16.1064 7.01669 0)
(8.70037 13.0161 0)
(29.9988 0.00104603 0)
(29.9853 0.00318614 0)
(29.9555 0.00552408 0)
(29.9105 0.00847768 0)
(29.8516 0.0123531 0)
(29.7768 0.0175626 0)
(29.6841 0.024351 0)
(29.5684 0.0343639 0)
(29.427 0.0481654 0)
(29.2408 0.0679668 0)
(29.0135 0.0940195 0)
(28.7341 0.131249 0)
(28.3894 0.18435 0)
(27.9538 0.266254 0)
(27.417 0.389487 0)
(26.6781 0.600618 0)
(25.7566 0.947011 0)
(24.3451 1.56968 0)
(22.6922 2.57031 0)
(19.8752 4.74361 0)
(16.3448 7.23732 0)
(8.90613 13.5663 0)
(29.9988 0.00108032 0)
(29.9853 0.00329018 0)
(29.9556 0.00570524 0)
(29.9106 0.00875533 0)
(29.8517 0.0127576 0)
(29.7769 0.018137 0)
(29.6842 0.025149 0)
(29.5685 0.0354802 0)
(29.4273 0.0498656 0)
(29.2399 0.0701757 0)
(29.0134 0.0971281 0)
(28.7343 0.135579 0)
(28.3897 0.190443 0)
(27.9546 0.274785 0)
(27.4189 0.402101 0)
(26.6827 0.619021 0)
(25.7658 0.97622 0)
(24.361 1.61253 0)
(22.7274 2.64074 0)
(19.9449 4.85626 0)
(16.5928 7.45525 0)
(9.11961 14.1266 0)
(29.9988 0.0011146 0)
(29.9853 0.00339419 0)
(29.9556 0.00588638 0)
(29.9106 0.00903293 0)
(29.8517 0.013162 0)
(29.7769 0.0187112 0)
(29.6842 0.0259469 0)
(29.5685 0.0365958 0)
(29.4275 0.0515746 0)
(29.2394 0.0723706 0)
(29.0135 0.100238 0)
(28.7344 0.139908 0)
(28.39 0.196531 0)
(27.9554 0.283301 0)
(27.4209 0.414674 0)
(26.6875 0.637339 0)
(25.7756 1.00528 0)
(24.3784 1.65501 0)
(22.7634 2.71033 0)
(20.0157 4.96492 0)
(16.8504 7.67037 0)
(9.34114 14.6976 0)
(29.9988 0.00114887 0)
(29.9853 0.00349817 0)
(29.9556 0.00606754 0)
(29.9106 0.00931051 0)
(29.8518 0.0135664 0)
(29.777 0.0192854 0)
(29.6843 0.026744 0)
(29.5687 0.0377113 0)
(29.4275 0.05329 0)
(29.2391 0.0745542 0)
(29.0136 0.103347 0)
(28.7346 0.144235 0)
(28.3903 0.202614 0)
(27.9562 0.291801 0)
(27.423 0.427205 0)
(26.6926 0.655565 0)
(25.7862 1.03418 0)
(24.3971 1.69711 0)
(22.8004 2.77907 0)
(20.0874 5.06944 0)
(17.1173 7.88253 0)
(9.57099 15.2795 0)
(29.9988 0.00118314 0)
(29.9853 0.00360212 0)
(29.9556 0.00624867 0)
(29.9106 0.00958806 0)
(29.8517 0.0139707 0)
(29.777 0.0198598 0)
(29.6843 0.0275409 0)
(29.5689 0.0388214 0)
(29.4273 0.0550097 0)
(29.239 0.0767301 0)
(29.0137 0.106457 0)
(28.7348 0.14856 0)
(28.3907 0.208691 0)
(27.9571 0.300284 0)
(27.4253 0.439691 0)
(26.698 0.673694 0)
(25.7975 1.0629 0)
(24.4172 1.73883 0)
(22.8386 2.84697 0)
(20.1602 5.16965 0)
(17.3933 8.09159 0)
(9.80944 15.8728 0)
(29.9988 0.00121741 0)
(29.9853 0.00370605 0)
(29.9556 0.00642983 0)
(29.9107 0.00986554 0)
(29.8518 0.0143751 0)
(29.7771 0.020433 0)
(29.6844 0.0283416 0)
(29.5691 0.039926 0)
(29.4269 0.0566366 0)
(29.239 0.0788996 0)
(29.0138 0.109566 0)
(28.735 0.152884 0)
(28.391 0.214762 0)
(27.9581 0.308749 0)
(27.4277 0.452132 0)
(26.7036 0.691719 0)
(25.8094 1.09143 0)
(24.4387 1.78017 0)
(22.878 2.91405 0)
(20.2343 5.26544 0)
(17.6782 8.29741 0)
(10.0567 16.4779 0)
(29.9988 0.00125167 0)
(29.9853 0.00380994 0)
(29.9556 0.00661094 0)
(29.9106 0.010143 0)
(29.8518 0.0147789 0)
(29.7771 0.0210083 0)
(29.6844 0.0291301 0)
(29.5696 0.0411038 0)
(29.4257 0.0579847 0)
(29.2391 0.0810713 0)
(29.014 0.112676 0)
(28.7352 0.157207 0)
(28.3914 0.220828 0)
(27.9591 0.317196 0)
(27.4301 0.464525 0)
(26.7094 0.709633 0)
(25.8219 1.11975 0)
(24.4616 1.82111 0)
(22.919 2.98029 0)
(20.3098 5.35665 0)
(17.9721 8.49983 0)
(10.313 17.0952 0)
(29.9988 0.00128593 0)
(29.9853 0.00391381 0)
(29.9556 0.00679206 0)
(29.9107 0.0104205 0)
(29.8518 0.015183 0)
(29.7772 0.0215817 0)
(29.6843 0.0299293 0)
(29.5706 0.0422276 0)
(29.422 0.060016 0)
(29.2392 0.083269 0)
(29.0142 0.115785 0)
(28.7355 0.161528 0)
(28.3918 0.226887 0)
(27.9601 0.325624 0)
(27.4327 0.476869 0)
(26.7154 0.727432 0)
(25.835 1.14785 0)
(24.4858 1.86164 0)
(22.9617 3.04569 0)
(20.387 5.44315 0)
(18.2752 8.69871 0)
(10.5786 17.7252 0)
(29.9988 0.00132019 0)
(29.9853 0.00401764 0)
(29.9556 0.00697316 0)
(29.9106 0.0106979 0)
(29.8518 0.0155871 0)
(29.7773 0.0221559 0)
(29.6841 0.0307173 0)
(29.5713 0.0434267 0)
(29.4196 0.061866 0)
(29.2394 0.0854853 0)
(29.0144 0.118895 0)
(28.7357 0.165848 0)
(28.3922 0.232941 0)
(27.9611 0.334031 0)
(27.4353 0.489162 0)
(26.7216 0.74511 0)
(25.8487 1.17571 0)
(24.5113 1.90175 0)
(23.0065 3.11026 0)
(20.4658 5.52482 0)
(18.5878 8.89387 0)
(10.8536 18.3681 0)
(29.9988 0.00135444 0)
(29.9853 0.00412146 0)
(29.9556 0.00715421 0)
(29.9107 0.0109755 0)
(29.8519 0.0159896 0)
(29.7774 0.0227366 0)
(29.6842 0.0314796 0)
(29.5715 0.044649 0)
(29.4185 0.0634024 0)
(29.2395 0.087703 0)
(29.0147 0.122003 0)
(28.736 0.170167 0)
(28.3926 0.238988 0)
(27.9621 0.342419 0)
(27.438 0.501402 0)
(26.728 0.762661 0)
(25.8628 1.20333 0)
(24.538 1.9414 0)
(23.0535 3.17398 0)
(20.5461 5.60152 0)
(18.91 9.08517 0)
(11.1384 19.0245 0)
(29.9988 0.00138869 0)
(29.9853 0.00422523 0)
(29.9556 0.00733526 0)
(29.9107 0.0112527 0)
(29.8518 0.0163941 0)
(29.7773 0.0233055 0)
(29.6845 0.0323197 0)
(29.5705 0.0455064 0)
(29.4179 0.0648827 0)
(29.2397 0.0899162 0)
(29.0149 0.125112 0)
(28.7362 0.174484 0)
(28.393 0.245028 0)
(27.9632 0.350786 0)
(27.4407 0.513589 0)
(26.7345 0.78008 0)
(25.8774 1.23068 0)
(24.5658 1.98058 0)
(23.1033 3.23686 0)
(20.6273 5.67311 0)
(19.2411 9.27247 0)
(11.4332 19.6948 0)
(29.9988 0.00142293 0)
(29.9854 0.00432906 0)
(29.9557 0.00751636 0)
(29.9107 0.0115301 0)
(29.852 0.0167976 0)
(29.7771 0.023881 0)
(29.686 0.0331255 0)
(29.5644 0.0469575 0)
(29.4175 0.0663929 0)
(29.2398 0.0921259 0)
(29.0151 0.128219 0)
(28.7365 0.1788 0)
(28.3934 0.251062 0)
(27.9642 0.359131 0)
(27.4435 0.52572 0)
(26.7411 0.797365 0)
(25.8924 1.25776 0)
(24.5945 2.01925 0)
(23.1561 3.29891 0)
(20.7088 5.7395 0)
(19.5781 9.45577 0)
(11.738 20.3801 0)
(29.9988 0.001457 0)
(29.9853 0.00443279 0)
(29.9556 0.00769761 0)
(29.9107 0.0118072 0)
(29.852 0.0172027 0)
(29.7768 0.0244495 0)
(29.6872 0.0339623 0)
(29.5602 0.0484231 0)
(29.4172 0.067934 0)
(29.2398 0.0943362 0)
(29.0152 0.131326 0)
(28.7367 0.183115 0)
(28.3938 0.257088 0)
(27.9652 0.367456 0)
(27.4463 0.537793 0)
(26.7479 0.81451 0)
(25.9077 1.28456 0)
(24.6242 2.05735 0)
(23.2124 3.36014 0)
(20.7898 5.80069 0)
(19.9138 9.63476 0)
(12.0526 21.088 0)
(29.9988 0.00149059 0)
(29.9854 0.00453561 0)
(29.9557 0.00787775 0)
(29.9107 0.0120828 0)
(29.8522 0.0176069 0)
(29.7768 0.0250052 0)
(29.6875 0.0348634 0)
(29.5588 0.0495788 0)
(29.417 0.069479 0)
(29.2399 0.0965432 0)
(29.0154 0.134432 0)
(28.7369 0.187431 0)
(28.3941 0.263105 0)
(27.9663 0.375755 0)
(27.4492 0.549807 0)
(26.7548 0.831514 0)
(25.9232 1.31106 0)
(24.6545 2.09483 0)
(23.2727 3.42058 0)
(20.8704 5.85675 0)
(20.2371 9.80741 0)
(12.4633 21.8397 0)
(1.04928 -0.0120373 0)
(-0.0546366 0.0196148 0)
(-0.750652 0.00714452 0)
(-0.753599 0.00152765 0)
(-0.912842 -0.00184946 0)
(-0.524425 -0.00302419 0)
(-0.531399 -0.00125158 0)
(-0.350362 -0.000183916 0)
(-0.513929 0.000605117 0)
(-0.449698 0.000459313 0)
(-0.60941 0.000575518 0)
(-0.558044 -0.000440314 0)
(-0.491946 -0.0011399 0)
(-0.280915 -0.00169225 0)
(-0.0919181 -0.00236561 0)
(0.31558 -0.00352605 0)
(0.884786 -0.00442289 0)
(1.66134 -0.00532834 0)
(2.63683 -0.0060441 0)
(3.81393 -0.00657355 0)
(5.17374 -0.00680592 0)
(6.67401 -0.00665497 0)
(8.21767 -0.0061094 0)
(9.70027 -0.00536697 0)
(11.0955 -0.00466984 0)
(12.4131 -0.00409775 0)
(13.6751 -0.00364952 0)
(14.9014 -0.00330152 0)
(16.1141 -0.00299032 0)
(17.2944 -0.00276145 0)
(18.5049 -0.00258877 0)
(19.7223 -0.00185377 0)
(20.3801 -0.0021546 0)
(22.0846 -0.00716363 0)
(29.0985 -0.00561453 0)
(1.05323 -0.036386 0)
(-0.0454549 0.0586968 0)
(-0.740619 0.0212734 0)
(-0.738257 0.00463102 0)
(-0.898395 -0.00559921 0)
(-0.510063 -0.00899479 0)
(-0.519034 -0.00378891 0)
(-0.334933 -0.000506693 0)
(-0.497968 0.00189718 0)
(-0.438416 0.00155229 0)
(-0.613492 0.00180444 0)
(-0.568387 -0.00154141 0)
(-0.48901 -0.00371856 0)
(-0.251817 -0.0050605 0)
(-0.0615848 -0.00671214 0)
(0.321398 -0.010137 0)
(0.869104 -0.0130068 0)
(1.64852 -0.0158038 0)
(2.63946 -0.0179437 0)
(3.82586 -0.0195053 0)
(5.17792 -0.0202411 0)
(6.66607 -0.0198741 0)
(8.20492 -0.0182847 0)
(9.69001 -0.0160817 0)
(11.0909 -0.0140017 0)
(12.4113 -0.0122872 0)
(13.6734 -0.0109401 0)
(14.898 -0.00989372 0)
(16.109 -0.00895949 0)
(17.2872 -0.00826636 0)
(18.4945 -0.00776113 0)
(19.7136 -0.00560996 0)
(20.3995 -0.00625332 0)
(21.9615 -0.0213668 0)
(29.04 -0.0169945 0)
(1.05813 -0.0611112 0)
(-0.0356557 0.0976378 0)
(-0.729152 0.0351628 0)
(-0.718282 0.00771472 0)
(-0.875417 -0.00948403 0)
(-0.487688 -0.0148756 0)
(-0.498592 -0.00640062 0)
(-0.313297 -0.000860753 0)
(-0.477666 0.00318908 0)
(-0.425329 0.0029071 0)
(-0.615708 0.00324302 0)
(-0.572034 -0.00251578 0)
(-0.47258 -0.0065818 0)
(-0.211002 -0.00876081 0)
(-0.0294918 -0.0110032 0)
(0.323783 -0.01637 0)
(0.853695 -0.0212602 0)
(1.64194 -0.026159 0)
(2.65157 -0.0297813 0)
(3.84913 -0.0323578 0)
(5.19469 -0.0335678 0)
(6.67171 -0.0329819 0)
(8.20748 -0.0304439 0)
(9.69533 -0.0268346 0)
(11.1013 -0.0233609 0)
(12.4242 -0.0204721 0)
(13.686 -0.0182094 0)
(14.9086 -0.0164613 0)
(16.1172 -0.0149039 0)
(17.2921 -0.0137543 0)
(18.495 -0.0129233 0)
(19.7139 -0.0094112 0)
(20.427 -0.0101917 0)
(21.8577 -0.0353999 0)
(28.9844 -0.028403 0)
(1.06417 -0.0861887 0)
(-0.0254679 0.13648 0)
(-0.716158 0.0488179 0)
(-0.693288 0.0105399 0)
(-0.844407 -0.0134378 0)
(-0.457797 -0.0207072 0)
(-0.471398 -0.00897198 0)
(-0.286265 -0.00118778 0)
(-0.451909 0.00460575 0)
(-0.406716 0.00451753 0)
(-0.612508 0.00487219 0)
(-0.568929 -0.00375645 0)
(-0.448038 -0.00989753 0)
(-0.16303 -0.012595 0)
(0.00799464 -0.0150276 0)
(0.330634 -0.0224116 0)
(0.842268 -0.0296932 0)
(1.64084 -0.0369401 0)
(2.67199 -0.0419903 0)
(3.88406 -0.0453559 0)
(5.22629 -0.0468537 0)
(6.69364 -0.0460499 0)
(8.22681 -0.042612 0)
(9.71748 -0.0376206 0)
(11.1282 -0.0327506 0)
(12.4533 -0.02867 0)
(13.7144 -0.0254775 0)
(14.9343 -0.023021 0)
(16.1396 -0.0208368 0)
(17.3098 -0.0192247 0)
(18.5071 -0.0180756 0)
(19.7237 -0.0132651 0)
(20.4633 -0.0139464 0)
(21.7724 -0.0492775 0)
(28.9313 -0.0399075 0)
(1.07144 -0.111651 0)
(-0.0150404 0.175159 0)
(-0.701497 0.0621375 0)
(-0.66302 0.0129662 0)
(-0.805807 -0.0174796 0)
(-0.42074 -0.0264635 0)
(-0.438091 -0.0114729 0)
(-0.253993 -0.00149701 0)
(-0.420638 0.0061225 0)
(-0.382424 0.00636998 0)
(-0.602945 0.00666948 0)
(-0.558153 -0.00520426 0)
(-0.414758 -0.0136287 0)
(-0.107298 -0.0165532 0)
(0.052179 -0.0187431 0)
(0.344002 -0.0281103 0)
(0.836774 -0.0381063 0)
(1.64739 -0.0479966 0)
(2.70395 -0.0544801 0)
(3.93438 -0.0584661 0)
(5.27608 -0.060099 0)
(6.73497 -0.0590675 0)
(8.26577 -0.0547842 0)
(9.75921 -0.0484396 0)
(11.1746 -0.0421684 0)
(12.5014 -0.0368745 0)
(13.7611 -0.0327353 0)
(14.9773 -0.0295624 0)
(16.1779 -0.0267469 0)
(17.3417 -0.0246695 0)
(18.5318 -0.0232084 0)
(19.7439 -0.0171623 0)
(20.5091 -0.0175454 0)
(21.7052 -0.0629915 0)
(28.8803 -0.0514548 0)
(1.07993 -0.137538 0)
(-0.00448626 0.213677 0)
(-0.685009 0.0750104 0)
(-0.627095 0.0148991 0)
(-0.759741 -0.0216527 0)
(-0.376632 -0.0321277 0)
(-0.39889 -0.013885 0)
(-0.216304 -0.00178053 0)
(-0.383531 0.00773288 0)
(-0.352119 0.00845368 0)
(-0.586058 0.00860526 0)
(-0.538781 -0.00687431 0)
(-0.372672 -0.0177518 0)
(-0.0442129 -0.0205891 0)
(0.103593 -0.0221181 0)
(0.366004 -0.0334147 0)
(0.84062 -0.0464262 0)
(1.66566 -0.0592846 0)
(2.75255 -0.0672387 0)
(4.00566 -0.0716892 0)
(5.34919 -0.0733084 0)
(6.80045 -0.0720324 0)
(8.32885 -0.0669547 0)
(9.82498 -0.0592864 0)
(11.2449 -0.0516086 0)
(12.5728 -0.0450784 0)
(13.83 -0.039975 0)
(15.0409 -0.0360766 0)
(16.2352 -0.0326241 0)
(17.3902 -0.0300788 0)
(18.5711 -0.0283119 0)
(19.7758 -0.0210947 0)
(20.5656 -0.0210023 0)
(21.6558 -0.0765311 0)
(28.831 -0.0630128 0)
(1.08948 -0.163882 0)
(0.00612062 0.252026 0)
(-0.666481 0.08732 0)
(-0.584878 0.0162471 0)
(-0.705944 -0.0259878 0)
(-0.325263 -0.037679 0)
(-0.353559 -0.0161915 0)
(-0.172725 -0.00203772 0)
(-0.339952 0.00942709 0)
(-0.315144 0.0107524 0)
(-0.560856 0.0106539 0)
(-0.509985 -0.00877634 0)
(-0.321861 -0.0222421 0)
(0.0262287 -0.024695 0)
(0.163162 -0.0251885 0)
(0.398684 -0.0383703 0)
(0.857753 -0.054674 0)
(1.70122 -0.0708299 0)
(2.82509 -0.0803095 0)
(4.10593 -0.085058 0)
(5.45322 -0.0864934 0)
(6.89723 -0.0849431 0)
(8.42287 -0.0791202 0)
(9.92154 -0.0701591 0)
(11.346 -0.0610682 0)
(12.6744 -0.0532756 0)
(13.9273 -0.0471869 0)
(15.1305 -0.0425521 0)
(16.3156 -0.0384555 0)
(17.4587 -0.0354409 0)
(18.6275 -0.0333745 0)
(19.8214 -0.0250537 0)
(20.6346 -0.0243261 0)
(21.6246 -0.089879 0)
(28.7834 -0.0745568 0)
(1.09974 -0.190711 0)
(0.0167471 0.290191 0)
(-0.645637 0.0989326 0)
(-0.535544 0.016908 0)
(-0.64393 -0.0305022 0)
(-0.266239 -0.0430905 0)
(-0.301535 -0.0183762 0)
(-0.122566 -0.00227318 0)
(-0.28899 0.0111924 0)
(-0.270494 0.0132461 0)
(-0.526112 0.0127848 0)
(-0.470728 -0.0109086 0)
(-0.261799 -0.0270847 0)
(0.105362 -0.0288857 0)
(0.232934 -0.0280027 0)
(0.444312 -0.0430498 0)
(0.891971 -0.062925 0)
(1.76051 -0.0827037 0)
(2.93118 -0.0937616 0)
(4.24678 -0.0986155 0)
(5.59959 -0.0996645 0)
(7.036 -0.0977938 0)
(8.55793 -0.0912745 0)
(10.0588 -0.0810553 0)
(11.488 -0.070544 0)
(12.816 -0.0614569 0)
(14.0623 -0.0543563 0)
(15.2538 -0.0489712 0)
(16.4253 -0.0442232 0)
(17.5519 -0.0407402 0)
(18.7051 -0.0383816 0)
(19.8836 -0.0290283 0)
(20.7181 -0.0275222 0)
(21.6125 -0.103016 0)
(28.7375 -0.0860612 0)
(1.11018 -0.218039 0)
(0.0274007 0.328136 0)
(-0.622109 0.109695 0)
(-0.478221 0.0167723 0)
(-0.573202 -0.0352037 0)
(-0.199166 -0.0483364 0)
(-0.242083 -0.0204266 0)
(-0.0650153 -0.00249624 0)
(-0.229525 0.0130112 0)
(-0.216847 0.0159093 0)
(-0.480168 0.0149696 0)
(-0.419456 -0.0132695 0)
(-0.190957 -0.0322731 0)
(0.19586 -0.0331858 0)
(0.316147 -0.0305998 0)
(0.505808 -0.0475146 0)
(0.947041 -0.0712816 0)
(1.85028 -0.0950298 0)
(3.08288 -0.107705 0)
(4.44472 -0.112426 0)
(5.80547 -0.112834 0)
(7.23287 -0.110572 0)
(8.74894 -0.103407 0)
(10.251 -0.0919713 0)
(11.6851 -0.0800323 0)
(13.0123 -0.0696103 0)
(14.2487 -0.0614611 0)
(15.4224 -0.055306 0)
(16.5732 -0.0498994 0)
(17.6768 -0.0459543 0)
(18.809 -0.043313 0)
(19.966 -0.0330032 0)
(20.819 -0.0305932 0)
(21.6214 -0.11592 0)
(28.6933 -0.0974969 0)
(1.12004 -0.245867 0)
(0.0381305 0.365805 0)
(-0.595412 0.119437 0)
(-0.412179 0.0157275 0)
(-0.493436 -0.04009 0)
(-0.12383 -0.0533971 0)
(-0.174439 -0.0223377 0)
(0.000773933 -0.00272214 0)
(-0.160301 0.0148582 0)
(-0.152607 0.0187087 0)
(-0.420842 0.0171717 0)
(-0.353917 -0.0158519 0)
(-0.106715 -0.0378078 0)
(0.301499 -0.0376294 0)
(0.417121 -0.0330148 0)
(0.587067 -0.0518133 0)
(1.02732 -0.0798558 0)
(1.97785 -0.107989 0)
(3.29425 -0.122325 0)
(4.72209 -0.1266 0)
(6.09623 -0.126026 0)
(7.51193 -0.123261 0)
(9.01775 -0.115499 0)
(10.5186 -0.102901 0)
(11.9572 -0.0895305 0)
(13.2834 -0.0777224 0)
(14.5063 -0.0684702 0)
(15.6534 -0.0615141 0)
(16.7723 -0.0554422 0)
(17.8428 -0.0510505 0)
(18.9466 -0.048141 0)
(20.0738 -0.0369572 0)
(20.9408 -0.0335382 0)
(21.6545 -0.128565 0)
(28.6513 -0.108831 0)
(1.12832 -0.274175 0)
(0.0490301 0.40311 0)