/*--------------------------------*- C++ -*----------------------------------*\
| =========                 |                                                 |
| \\      /  F ield         | OpenFOAM: The Open Source CFD Toolbox           |
|  \\    /   O peration     | Version:  v1912                                 |
|   \\  /    A nd           | Website:  www.openfoam.com                      |
|    \\/     M anipulation  |                                                 |
\*---------------------------------------------------------------------------*/
FoamFile
{
    version     2.0;
    format      ascii;
    class       volScalarField;
    location    "600";
    object      yPlus;
}
// * * * * * * * * * * * * * * * * * * * * * * * * * * * * * * * * * * * * * //

dimensions      [0 0 0 0 0 0 0];


internalField   uniform 0;

boundaryField
{
    inlet
    {
        type            calculated;
        value           uniform 0;
    }
    outlet
    {
        type            calculated;
        value           uniform 0;
    }
    lowerSymmetry
    {
        type            symmetryPlane;
    }
    obstical
    {
        type            calculated;
        value           nonuniform List<scalar> 
88
(
476.563
478.772
483.161
489.711
498.36
509.019
521.602
536.023
552.197
570.046
589.5
610.485
632.925
656.731
681.809
708.066
735.411
763.76
793.042
823.194
854.168
885.923
918.431
951.673
985.637
1020.32
1055.73
1091.86
1128.75
1166.4
1204.83
1244.06
1284.13
1325.04
1366.82
1409.49
1453.07
1497.58
1543.05
1589.49
1636.94
1685.45
1735.43
1790.83
102.736
103.116
103.625
104.279
105.087
106.046
107.145
108.356
109.632
110.913
112.12
113.163
113.938
114.34
114.267
113.628
112.357
110.416
107.809
104.582
100.824
96.6647
92.2754
87.8667
83.6904
80.0371
77.2234
75.5621
75.3119
76.6238
79.5118
83.8693
89.5203
96.2752
103.973
112.498
121.909
132.359
144.113
157.528
172.993
190.82
211.302
235.289
)
;
    }
    obsticalTop
    {
        type            calculated;
        value           nonuniform List<scalar> 
20
(
53.4316
38.8789
47.2006
53.2672
56.096
57.7167
58.307
57.9836
57.0181
55.5408
53.525
50.8574
47.4397
43.0791
37.7447
30.7983
24.3574
14.8138
13.2799
11.268
)
;
    }
    top
    {
        type            calculated;
        value           uniform 0;
    }
    defaultFaces
    {
        type            empty;
    }
}


// ************************************************************************* //
