# Region type : patch inlet
# Faces       : 30
# Area        : 5.000000e-05
# Scale factor: 1.000000e+00
# Time        	areaIntegrate(U)
81            	(5.000000e-05 0.000000e+00 0.000000e+00)
