/*--------------------------------*- C++ -*----------------------------------*\
| =========                 |                                                 |
| \\      /  F ield         | OpenFOAM: The Open Source CFD Toolbox           |
|  \\    /   O peration     | Version:  v1912                                 |
|   \\  /    A nd           | Website:  www.openfoam.com                      |
|    \\/     M anipulation  |                                                 |
\*---------------------------------------------------------------------------*/
FoamFile
{
    version     2.0;
    format      ascii;
    class       volScalarField;
    location    "975";
    object      p;
}
// * * * * * * * * * * * * * * * * * * * * * * * * * * * * * * * * * * * * * //

dimensions      [0 2 -2 0 0 0 0];


internalField   nonuniform List<scalar> 
2000
(
-0.0459995
0.0714118
0.125992
0.119104
0.103275
0.0969702
0.096365
0.0977137
0.0979311
0.0977099
0.0978499
0.0975268
0.0972692
0.0972135
0.0972712
0.0972929
0.0972497
0.0972281
0.0972226
0.0972261
0.0972298
0.0972233
0.0972019
0.0971673
0.0971261
0.0970846
0.0970479
0.0970174
0.096991
0.0969656
0.0969394
0.0969119
0.096883
0.0968531
0.0968226
0.096792
0.0967622
0.0967337
0.0967063
0.09668
0.096655
0.0966315
0.0966097
0.0965901
0.0965732
0.0965591
0.0965485
0.0965426
0.0965436
0.0965517
0.0965574
0.0965186
0.0963171
0.0957105
0.0943374
0.0918087
0.087837
0.0823745
0.0758908
0.0698121
0.0662408
0.0662786
0.0709083
0.0797168
0.0917355
0.105958
0.12154
0.137696
0.15352
0.167937
0.179907
0.188558
0.193052
0.192575
0.186328
0.173642
0.153385
0.125356
0.0838474
0.0415451
0.0072476
0.092424
0.131242
0.118047
0.100305
0.0961074
0.0996489
0.102089
0.0993346
0.0960908
0.0956533
0.0969535
0.0974016
0.0972695
0.0974939
0.0973956
0.0972716
0.097169
0.0971342
0.0971229
0.0971406
0.0971808
0.0971878
0.0971643
0.0971293
0.0970921
0.0970572
0.0970262
0.0969998
0.0969749
0.0969464
0.0969165
0.096886
0.0968555
0.0968249
0.0967946
0.0967654
0.0967382
0.0967129
0.0966889
0.0966662
0.0966451
0.0966255
0.096607
0.0965891
0.0965718
0.0965557
0.0965452
0.0965541
0.0966066
0.0967068
0.096768
0.0965104
0.0953773
0.0925985
0.0875143
0.0799741
0.0705829
0.0609759
0.0542473
0.0539576
0.0592723
0.067726
0.0785955
0.0914055
0.105797
0.121208
0.136881
0.151913
0.165307
0.176054
0.183177
0.185775
0.183109
0.174511
0.159436
0.136976
0.107294
0.0664008
0.0294386
0.0583155
0.0921134
0.114805
0.113248
0.104049
0.0998745
0.0999127
0.0992754
0.0973695
0.0966848
0.0982748
0.0998733
0.0988931
0.0964336
0.0955395
0.0964133
0.0972978
0.0974735
0.0973139
0.0972087
0.0971501
0.0971134
0.0970946
0.0971067
0.0971146
0.097104
0.0970741
0.09703
0.0969947
0.0969605
0.0969341
0.0969092
0.0968839
0.0968595
0.096836
0.0968117
0.0967859
0.0967598
0.096735
0.0967128
0.0966943
0.0966797
0.0966671
0.0966526
0.0966371
0.0966362
0.0966823
0.0968088
0.0970466
0.0974067
0.0978312
0.0981003
0.097802
0.0963204
0.0929863
0.0873891
0.0797613
0.0713102
0.0640804
0.0596382
0.0586645
0.0621512
0.069447
0.0794201
0.0912916
0.104597
0.11877
0.133005
0.146355
0.157839
0.166508
0.171508
0.17212
0.167784
0.158017
0.142476
0.120572
0.092834
0.05655
0.024996
0.0833027
0.0933164
0.105866
0.109946
0.107253
0.104234
0.102573
0.100841
0.0992189
0.0984017
0.0982147
0.0981172
0.0977725
0.0970777
0.0965536
0.0974977
0.0987514
0.0980132
0.0968547
0.0964523
0.0964014
0.0965742
0.0968622
0.0970861
0.0972158
0.0972942
0.097338
0.0973152
0.0972313
0.097133
0.0970377
0.0969558
0.0968945
0.0968603
0.0968399
0.0968203
0.0967957
0.0967723
0.0967528
0.0967382
0.0967302
0.0967293
0.0967302
0.0967244
0.0967125
0.0967235
0.0968177
0.0970267
0.0973948
0.0979188
0.0985607
0.0989722
0.098772
0.097427
0.0944357
0.0895754
0.0831274
0.0758976
0.0690555
0.0644831
0.0632749
0.0661108
0.0725805
0.0816602
0.0925123
0.104532
0.117065
0.129301
0.140367
0.149423
0.155708
0.158569
0.157468
0.151982
0.141753
0.126553
0.105991
0.0806759
0.048722
0.0208035
0.0956433
0.0992438
0.106764
0.110734
0.109605
0.107276
0.105895
0.104856
0.103554
0.102103
0.100752
0.0996641
0.0989373
0.0980999
0.0971374
0.0971667
0.0977209
0.0979352
0.0977862
0.0973343
0.0969936
0.0968793
0.0969367
0.0971159
0.0973074
0.097421
0.0973793
0.0971977
0.0970697
0.0969719
0.0968962
0.0968404
0.0968031
0.0968025
0.096823
0.0968379
0.0968418
0.0968295
0.0968069
0.0967846
0.0967678
0.0967562
0.096743
0.096712
0.0966492
0.0965646
0.0965274
0.0966838
0.0970373
0.0975582
0.0981463
0.0985379
0.0983353
0.0970585
0.0942993
0.0899258
0.0842496
0.0780869
0.0726817
0.0694467
0.0692091
0.0721842
0.0780157
0.0859842
0.095364
0.105524
0.115835
0.12561
0.134148
0.140794
0.144962
0.146145
0.143915
0.137918
0.127843
0.113501
0.0945735
0.0716454
0.0432257
0.0181827
0.104084
0.105918
0.109872
0.112043
0.111227
0.109619
0.108661
0.107985
0.107026
0.105835
0.104706
0.103716
0.102704
0.101382
0.100008
0.0992996
0.0991695
0.0990395
0.0984739
0.0975894
0.0969726
0.0967682
0.096856
0.0970622
0.0972315
0.0973247
0.097365
0.0973597
0.0972822
0.0971755
0.097068
0.0969731
0.0968982
0.0968587
0.0968115
0.0967593
0.096719
0.0967012
0.0966862
0.0966763
0.0966797
0.0966967
0.0967206
0.0967414
0.0967572
0.0967909
0.0969028
0.0971677
0.097584
0.0980958
0.0985823
0.0988123
0.0984608
0.0971951
0.0947925
0.0912727
0.086989
0.0826265
0.07907
0.0771812
0.0775104
0.0801993
0.085029
0.091512
0.0990659
0.107131
0.115171
0.122637
0.128982
0.133686
0.136272
0.136315
0.133431
0.127287
0.117575
0.104098
0.0865508
0.0654651
0.0394923
0.0165437
0.110895
0.111718
0.112956
0.113293
0.112507
0.111522
0.110863
0.110324
0.109656
0.108901
0.108176
0.107456
0.106597
0.105489
0.104322
0.103468
0.102954
0.102356
0.101386
0.100287
0.099471
0.0990305
0.0988396
0.0987478
0.0986609
0.0985583
0.0984392
0.0982772
0.098062
0.0978491
0.0976701
0.0975256
0.0974078
0.0973439
0.0974838
0.0975529
0.0975536
0.0975709
0.0976171
0.097685
0.0977756
0.0978895
0.0980224
0.0981689
0.0983308
0.098525
0.0987849
0.099144
0.0995956
0.100079
0.100477
0.100609
0.100252
0.0992001
0.0973467
0.094759
0.0917235
0.0887284
0.0863738
0.0852374
0.0857169
0.0879305
0.0917285
0.0967635
0.102598
0.108788
0.114902
0.120504
0.125152
0.12841
0.129866
0.129134
0.125849
0.11968
0.110313
0.0975338
0.0810273
0.0612694
0.0369507
0.0155045
0.116772
0.116717
0.115802
0.114594
0.11377
0.113253
0.112777
0.112306
0.111863
0.111426
0.110974
0.110477
0.109878
0.109137
0.108331
0.107639
0.107098
0.10647
0.105602
0.104649
0.103848
0.10328
0.10288
0.102566
0.102289
0.102026
0.101766
0.101495
0.10122
0.100973
0.100776
0.100628
0.100535
0.100526
0.100614
0.100671
0.100697
0.100747
0.100839
0.100963
0.101114
0.101291
0.10149
0.101707
0.101943
0.102205
0.10251
0.102866
0.103259
0.10363
0.103883
0.103889
0.103501
0.102597
0.101131
0.0991768
0.0969525
0.0948067
0.0931572
0.0924023
0.0928213
0.0945074
0.0973673
0.101166
0.10559
0.110295
0.114928
0.119126
0.122512
0.124708
0.125341
0.12405
0.120488
0.114325
0.105241
0.0930023
0.0772709
0.0584639
0.0352826
0.0148282
0.122176
0.121187
0.118223
0.115679
0.114924
0.114835
0.114501
0.114093
0.113828
0.11361
0.113341
0.113015
0.112626
0.112148
0.111611
0.11112
0.110707
0.110234
0.109599
0.10888
0.108229
0.107722
0.107337
0.107022
0.106739
0.106467
0.106199
0.105931
0.10567
0.105435
0.105239
0.105092
0.105
0.104968
0.104969
0.10501
0.105062
0.105132
0.10523
0.105356
0.105505
0.105673
0.105858
0.106057
0.106267
0.106492
0.106735
0.106996
0.107253
0.107462
0.107548
0.107421
0.106985
0.106166
0.104946
0.103391
0.101665
0.10002
0.098754
0.0981528
0.098424
0.0996504
0.101781
0.104652
0.108027
0.111627
0.115156
0.1183
0.120733
0.122118
0.122119
0.120403
0.116635
0.110494
0.10165
0.089847
0.0747142
0.056605
0.0342182
0.0143721
0.127406
0.125219
0.120024
0.116381
0.115917
0.116244
0.116015
0.115692
0.115607
0.115575
0.115453
0.115261
0.115019
0.114708
0.114347
0.114008
0.113717
0.113383
0.112931
0.112405
0.111919
0.111537
0.111247
0.111009
0.110791
0.110578
0.110364
0.110151
0.109943
0.109753
0.109593
0.109472
0.109397
0.109367
0.109321
0.109348
0.109401
0.109458
0.10953
0.109623
0.109734
0.109857
0.109991
0.110132
0.110278
0.110428
0.110582
0.110732
0.11086
0.110929
0.110885
0.11066
0.11019
0.109427
0.108367
0.107065
0.105647
0.104304
0.103258
0.102725
0.102865
0.103749
0.105346
0.107532
0.110119
0.112876
0.115549
0.117868
0.119547
0.120289
0.119789
0.117741
0.113826
0.107727
0.0991042
0.0876765
0.0730278
0.0554463
0.0336007
0.0141031
0.132645
0.128795
0.121102
0.116712
0.116803
0.117495
0.117323
0.117109
0.117212
0.117349
0.11736
0.117289
0.117167
0.116982
0.116747
0.116517
0.116312
0.11607
0.115737
0.115348
0.114985
0.114702
0.114489
0.114317
0.114159
0.114003
0.113846
0.113688
0.113533
0.113389
0.113268
0.113175
0.113112
0.113068
0.113033
0.113047
0.113082
0.113122
0.113171
0.113235
0.113311
0.113396
0.113485
0.113577
0.113668
0.113756
0.113837
0.113903
0.113938
0.113911
0.11378
0.113496
0.113012
0.112297
0.111353
0.110228
0.109023
0.107885
0.106985
0.106492
0.106529
0.107154
0.108345
0.110003
0.111973
0.114061
0.116049
0.117702
0.11877
0.118991
0.118091
0.115786
0.111774
0.105741
0.097334
0.0862438
0.072001
0.0548301
0.0333181
0.0140209
0.138011
0.131842
0.121428
0.116769
0.117636
0.118599
0.118449
0.118372
0.118659
0.11894
0.11907
0.119111
0.119101
0.119027
0.118899
0.11876
0.118626
0.118454
0.118209
0.117915
0.117639
0.117423
0.117262
0.117134
0.117017
0.116903
0.116786
0.116668
0.116552
0.116444
0.116351
0.116278
0.116227
0.116189
0.116167
0.116173
0.116198
0.116228
0.116264
0.116309
0.116363
0.11642
0.116478
0.116533
0.116583
0.116625
0.116653
0.116658
0.116627
0.116533
0.116345
0.116024
0.115538
0.114865
0.114011
0.113017
0.111967
0.110975
0.110178
0.109707
0.109658
0.110077
0.110945
0.112179
0.11365
0.115193
0.116618
0.117723
0.118289
0.118086
0.116868
0.114371
0.110307
0.104361
0.0961665
0.0853865
0.071492
0.0546505
0.0332961
0.0141399
0.143584
0.134256
0.121036
0.116673
0.118436
0.119553
0.119419
0.119507
0.119963
0.120364
0.120597
0.120741
0.120831
0.120856
0.120823
0.120767
0.120701
0.120596
0.120424
0.120209
0.120002
0.119838
0.119719
0.119625
0.119541
0.119457
0.11937
0.119282
0.119195
0.119113
0.119041
0.118983
0.11894
0.118918
0.118903
0.118905
0.118923
0.118945
0.118972
0.119003
0.119038
0.119074
0.119107
0.119134
0.119152
0.119157
0.119144
0.119103
0.119021
0.118879
0.118649
0.118304
0.117819
0.117181
0.116397
0.115503
0.114568
0.113684
0.11296
0.112497
0.112372
0.112619
0.11322
0.114105
0.115162
0.116251
0.11721
0.117863
0.11802
0.117479
0.116017
0.113387
0.109308
0.103464
0.0954762
0.0849799
0.0713867
0.0548188
0.033478
0.0144643
0.149403
0.135918
0.120023
0.116541
0.119202
0.120361
0.120266
0.120535
0.121137
0.121638
0.121963
0.122199
0.122378
0.122488
0.122539
0.122558
0.122556
0.122512
0.122407
0.122259
0.122113
0.121997
0.121915
0.121853
0.121797
0.12174
0.12168
0.121617
0.121554
0.121493
0.121438
0.121395
0.121364
0.121348
0.121337
0.121337
0.121349
0.121366
0.121383
0.121403
0.121423
0.121441
0.121454
0.121458
0.12145
0.121424
0.121376
0.121297
0.121175
0.120993
0.120731
0.120367
0.119883
0.11927
0.118539
0.117721
0.11687
0.116063
0.115385
0.114918
0.11472
0.114816
0.115188
0.115777
0.116488
0.117202
0.117779
0.118068
0.117903
0.117103
0.115464
0.11275
0.108686
0.102952
0.095156
0.0849137
0.0715798
0.05525
0.0338148
0.0149754
0.155477
0.136721
0.118536
0.116462
0.119916
0.121035
0.121017
0.12147
0.122195
0.122779
0.123187
0.123506
0.123761
0.123946
0.12407
0.124155
0.124212
0.124224
0.124177
0.124089
0.123995
0.123923
0.123876
0.123843
0.123814
0.123782
0.123745
0.123704
0.123663
0.123621
0.123582
0.123551
0.123529
0.123517
0.12351
0.12351
0.123518
0.123529
0.123539
0.123549
0.123557
0.12356
0.123555
0.123538
0.123506
0.123453
0.123375
0.123262
0.123105
0.122888
0.122597
0.122214
0.121726
0.121129
0.120433
0.119664
0.11887
0.118111
0.117456
0.116968
0.116694
0.116653
0.116828
0.117169
0.117596
0.118007
0.118283
0.118292
0.117887
0.116901
0.115143
0.112386
0.108355
0.102729
0.0951047
0.0850837
0.0719706
0.0558589
0.0342622
0.0156292
0.161784
0.136588
0.116751
0.116487
0.120554
0.121595
0.121695
0.122322
0.123147
0.123802
0.124286
0.124677
0.125
0.125251
0.125438
0.125583
0.125692
0.125753
0.125758
0.125721
0.125674
0.125641
0.125625
0.125619
0.125614
0.125605
0.125589
0.125569
0.125547
0.125521
0.125496
0.125475
0.125461
0.125454
0.12545
0.12545
0.125454
0.12546
0.125463
0.125462
0.125458
0.125446
0.125423
0.125386
0.12533
0.12525
0.125141
0.124994
0.124801
0.124549
0.124226
0.123819
0.123318
0.122723
0.122043
0.121301
0.120536
0.119797
0.119141
0.11862
0.11827
0.118107
0.118116
0.118257
0.118461
0.118642
0.118695
0.118502
0.117929
0.11682
0.114991
0.112219
0.108232
0.102706
0.09523
0.0853979
0.0724705
0.0565657
0.0347824
0.0163709
0.168274
0.13551
0.114848
0.116624
0.121096
0.122064
0.122317
0.123098
0.124002
0.124721
0.125272
0.125728
0.126111
0.12642
0.126663
0.126859
0.127015
0.127121
0.127171
0.127179
0.127172
0.127172
0.127184
0.127201
0.127218
0.127228
0.127231
0.127227
0.127221
0.127209
0.127195
0.127183
0.127174
0.127169
0.127165
0.127161
0.12716
0.127156
0.127148
0.127134
0.127113
0.127082
0.127037
0.126975
0.12689
0.126779
0.126635
0.126451
0.126219
0.125929
0.12557
0.125133
0.124611
0.124005
0.123325
0.122589
0.121832
0.121095
0.120424
0.119862
0.119443
0.119179
0.119059
0.119049
0.119091
0.119109
0.119008
0.11868
0.117998
0.116815
0.11495
0.112183
0.108244
0.102807
0.0954559
0.0857829
0.0730109
0.0573045
0.0353416
0.0171503
0.174862
0.133506
0.112986
0.116857
0.121536
0.122467
0.122891
0.1238
0.124767
0.125542
0.126154
0.126665
0.127099
0.127457
0.127748
0.127989
0.128185
0.128329
0.128417
0.128463
0.128489
0.128517
0.12855
0.128586
0.128619
0.128644
0.128659
0.128666
0.128673
0.128667
0.128657
0.128648
0.128638
0.128629
0.128618
0.128605
0.12859
0.128571
0.128545
0.128511
0.128467
0.128411
0.128339
0.128246
0.12813
0.127984
0.127804
0.127582
0.127311
0.126983
0.126588
0.126121
0.125576
0.124954
0.124264
0.123524
0.122764
0.122018
0.121327
0.120729
0.120254
0.119914
0.119702
0.119588
0.11952
0.11943
0.11923
0.118819
0.118074
0.116852
0.114975
0.112225
0.108334
0.102974
0.0957265
0.0861873
0.0735452
0.0580268
0.035911
0.0179273
0.181456
0.130677
0.111278
0.117141
0.121875
0.122818
0.123412
0.124421
0.125436
0.126257
0.126916
0.127471
0.127945
0.128341
0.128669
0.128944
0.129171
0.129343
0.12946
0.129533
0.129583
0.129629
0.129677
0.129724
0.129766
0.129798
0.129819
0.129833
0.129838
0.129829
0.129817
0.129803
0.129785
0.129765
0.129741
0.129712
0.129679
0.129641
0.129593
0.129536
0.129468
0.129385
0.129285
0.129164
0.129017
0.12884
0.128628
0.128374
0.128071
0.127712
0.127289
0.126797
0.126232
0.125596
0.124896
0.12415
0.123382
0.122626
0.121918
0.121293
0.120778
0.120386
0.120113
0.119931
0.119795
0.119638
0.119381
0.118923
0.118146
0.116907
0.115033
0.112307
0.108459
0.103166
0.0960057
0.0865786
0.0740452
0.0587017
0.0364692
0.0186747
0.187965
0.127151
0.109793
0.11743
0.12212
0.123114
0.123857
0.124933
0.125976
0.126828
0.127518
0.128102
0.128601
0.129021
0.129372
0.129669
0.129916
0.130106
0.130239
0.130328
0.130393
0.130448
0.130503
0.130554
0.130598
0.130631
0.130653
0.130663
0.130658
0.130646
0.130629
0.130605
0.130576
0.130543
0.130505
0.130461
0.130411
0.130354
0.130288
0.130212
0.130123
0.130019
0.129897
0.129754
0.129585
0.129386
0.129151
0.128874
0.128549
0.128169
0.127728
0.12722
0.126642
0.125996
0.125289
0.124537
0.123764
0.123
0.122279
0.121635
0.121095
0.12067
0.120359
0.120137
0.11996
0.119767
0.119478
0.118997
0.118207
0.116967
0.115104
0.112403
0.108596
0.10336
0.0962722
0.0869392
0.0744975
0.0593129
0.037002
0.0193775
0.19431
0.123088
0.108571
0.117683
0.122282
0.123337
0.124185
0.125294
0.12635
0.127217
0.127924
0.128522
0.129034
0.129467
0.129831
0.130139
0.130396
0.130594
0.130737
0.130834
0.130905
0.130964
0.13102
0.131071
0.131114
0.131146
0.131166
0.131169
0.13116
0.131144
0.131119
0.131088
0.131051
0.131008
0.130959
0.130904
0.130842
0.130773
0.130695
0.130605
0.130503
0.130385
0.13025
0.130093
0.129911
0.129698
0.129449
0.12916
0.128823
0.128431
0.12798
0.127463
0.126878
0.126227
0.125516
0.124761
0.123985
0.123216
0.122487
0.121831
0.121274
0.12083
0.120497
0.120252
0.120053
0.119841
0.119538
0.119049
0.118257
0.117023
0.115175
0.1125
0.108729
0.103542
0.0965153
0.0872618
0.0748983
0.0598547
0.0375012
0.0200313
0.200493
0.118754
0.107639
0.117876
0.122365
0.123469
0.124378
0.1255
0.12656
0.127433
0.128148
0.128753
0.129271
0.12971
0.130079
0.130393
0.130654
0.130857
0.131003
0.131104
0.131178
0.131239
0.131295
0.131346
0.131387
0.131417
0.131433
0.131436
0.131424
0.131404
0.131375
0.131339
0.131296
0.131248
0.131193
0.131132
0.131064
0.130988
0.130902
0.130806
0.130697
0.130572
0.13043
0.130266
0.130077
0.129857
0.129602
0.129306
0.128963
0.128567
0.128111
0.12759
0.127003
0.126349
0.125638
0.124882
0.124103
0.123331
0.122597
0.121934
0.121368
0.120913
0.120568
0.120311
0.120102
0.119882
0.119574
0.119084
0.118297
0.117073
0.115242
0.11259
0.108852
0.103707
0.0967326
0.0875465
0.0752507
0.0603292
0.0379635
0.02064
0.206657
0.114666
0.107004
0.117993
0.122383
0.123517
0.124457
0.125585
0.126647
0.127525
0.128243
0.128851
0.129372
0.129814
0.130186
0.130502
0.130765
0.13097
0.131118
0.131221
0.131296
0.131357
0.131414
0.131464
0.131505
0.131534
0.131549
0.131552
0.131538
0.131516
0.131485
0.131447
0.131402
0.131351
0.131294
0.13123
0.131159
0.13108
0.130992
0.130893
0.13078
0.130653
0.130508
0.130341
0.130149
0.129927
0.12967
0.129372
0.129027
0.128629
0.128172
0.12765
0.127062
0.126409
0.125697
0.124941
0.124162
0.123388
0.122651
0.121984
0.121413
0.120952
0.1206
0.120337
0.120124
0.119902
0.119595
0.119109
0.118329
0.117117
0.115302
0.112673
0.108964
0.103857
0.0969284
0.0878011
0.0755656
0.0607495
0.0383952
0.0212228
0.212754
0.11146
0.106608
0.118042
0.122363
0.123511
0.124465
0.1256
0.126665
0.127545
0.128265
0.128875
0.129398
0.129841
0.130215
0.130532
0.130797
0.131002
0.131151
0.131255
0.13133
0.131392
0.131448
0.131498
0.131539
0.131568
0.131583
0.131585
0.131572
0.13155
0.131519
0.13148
0.131435
0.131383
0.131325
0.131261
0.131189
0.131109
0.13102
0.13092
0.130807
0.130679
0.130533
0.130366
0.130173
0.129951
0.129693
0.129395
0.12905
0.128652
0.128196
0.127675
0.127088
0.126436
0.125725
0.124969
0.12419
0.123415
0.122676
0.122007
0.121432
0.120967
0.120612
0.120347
0.120133
0.119911
0.119607
0.119127
0.118356
0.117157
0.115359
0.112752
0.10907
0.103998
0.0971119
0.0880384
0.0758596
0.0611381
0.0388078
0.0218129
0.217481
0.109518
0.106383
0.118069
0.12234
0.123486
0.124449
0.12559
0.126658
0.12754
0.128261
0.128872
0.129395
0.129839
0.130213
0.130531
0.130796
0.131002
0.131151
0.131255
0.13133
0.131393
0.131449
0.1315
0.131541
0.13157
0.131586
0.131588
0.131575
0.131552
0.131521
0.131482
0.131437
0.131385
0.131328
0.131263
0.131191
0.131112
0.131023
0.130923
0.13081
0.130682
0.130537
0.13037
0.130177
0.129955
0.129698
0.129401
0.129057
0.12866
0.128204
0.127685
0.127099
0.126447
0.125737
0.124982
0.124203
0.123428
0.122688
0.122017
0.12144
0.120973
0.120616
0.12035
0.120136
0.119916
0.119615
0.119141
0.118379
0.117191
0.115409
0.112821
0.109164
0.104123
0.0972743
0.088248
0.0761179
0.061481
0.0391668
0.0223749
)
;

boundaryField
{
    inlet
    {
        type            zeroGradient;
    }
    outlet
    {
        type            fixedValue;
        value           uniform 0;
    }
    fixedWalls
    {
        type            zeroGradient;
    }
    frontAndBack
    {
        type            empty;
    }
}


// ************************************************************************* //
