/*--------------------------------*- C++ -*----------------------------------*\
| =========                 |                                                 |
| \\      /  F ield         | OpenFOAM: The Open Source CFD Toolbox           |
|  \\    /   O peration     | Version:  v1912                                 |
|   \\  /    A nd           | Website:  www.openfoam.com                      |
|    \\/     M anipulation  |                                                 |
\*---------------------------------------------------------------------------*/
FoamFile
{
    version     2.0;
    format      ascii;
    class       surfaceScalarField;
    location    "975";
    object      phi;
}
// * * * * * * * * * * * * * * * * * * * * * * * * * * * * * * * * * * * * * //

dimensions      [0 3 -1 0 0 0 0];
oriented        oriented;


internalField   nonuniform List<scalar> 
3895
(
0.000814746
0.00038143
0.000499361
0.000315385
0.000251565
0.000247796
6.4863e-05
0.000186702
-6.21962e-05
0.000127059
-0.000127327
6.51304e-05
-0.000137639
1.0312e-05
-0.000113632
-2.40064e-05
-9.03514e-05
-2.32809e-05
-8.49475e-05
-5.4039e-06
-6.61299e-05
-1.88176e-05
-4.4746e-05
-2.13839e-05
-4.04649e-05
-4.28113e-06
-4.86701e-05
8.20529e-06
-4.57109e-05
-2.95926e-06
-3.20511e-05
-1.36598e-05
-2.51393e-05
-6.91178e-06
-2.5922e-05
7.82707e-07
-2.89438e-05
3.02182e-06
-3.04882e-05
1.54433e-06
-2.91874e-05
-1.30079e-06
-2.49024e-05
-4.28496e-06
-1.85826e-05
-6.31984e-06
-1.19785e-05
-6.60415e-06
-6.20332e-06
-5.77513e-06
-1.89921e-06
-4.30411e-06
8.4608e-07
-2.74529e-06
2.45774e-06
-1.61166e-06
3.5155e-06
-1.05777e-06
4.42664e-06
-9.11135e-07
5.31715e-06
-8.90514e-07
6.16202e-06
-8.44865e-07
6.94255e-06
-7.80531e-07
7.62382e-06
-6.81274e-07
8.13354e-06
-5.09722e-07
8.40688e-06
-2.73341e-07
8.39123e-06
1.56531e-08
8.00146e-06
3.89768e-07
7.24516e-06
7.56297e-07
6.07958e-06
1.16558e-06
4.42361e-06
1.65596e-06
2.16634e-06
2.25727e-06
-8.19457e-07
2.9858e-06
-4.6613e-06
3.84184e-06
-9.47685e-06
4.81555e-06
-1.54143e-05
5.93748e-06
-2.2799e-05
7.38471e-06
-3.23272e-05
9.52815e-06
-4.53143e-05
1.29871e-05
-6.39021e-05
1.85878e-05
-9.09868e-05
2.70846e-05
-0.000129602
3.86152e-05
-0.000182077
5.24755e-05
-0.000249339
6.72611e-05
-0.000330037
8.06987e-05
-0.000419735
8.96977e-05
-0.000511103
9.13685e-05
-0.000595249
8.41455e-05
-0.0006633
6.80508e-05
-0.000706509
4.32093e-05
-0.000713931
7.42199e-06
-0.000696085
-1.78457e-05
-0.000657278
-3.88075e-05
-0.000601099
-5.61787e-05
-0.000531461
-6.96385e-05
-0.000451408
-8.00523e-05
-0.000362926
-8.84822e-05
-0.00026755
-9.53763e-05
-0.000166875
-0.000100675
-6.25873e-05
-0.000104288
4.33539e-05
-0.000105941
0.000148984
-0.00010563
0.000252724
-0.00010374
0.00035321
-0.000100486
0.000449547
-9.6337e-05
0.000541649
-9.21028e-05
0.000629761
-8.8112e-05
0.000717008
-8.72461e-05
0.000803735
-8.67278e-05
-0.000107482
0.00108795
0.000349294
0.00104738
0.000355946
0.000933278
0.000361903
0.000775747
0.000344233
0.000598431
0.000304375
0.000410383
0.000253178
0.000221248
0.000199447
5.3877e-05
0.000143365
-6.04246e-05
9.10208e-05
-0.000110188
4.43598e-05
-0.000131882
2.87638e-06
-0.000123968
-2.92983e-05
-0.000105671
-2.25782e-05
-0.000107783
1.03173e-05
-0.000103374
-7.36783e-06
-9.07473e-05
-2.62867e-05
-7.67531e-05
-2.0906e-05
-7.88637e-05
2.89332e-06
-8.71301e-05
1.12883e-05
-9.2631e-05
7.04517e-06
-9.45864e-05
6.54653e-07
-9.09608e-05
-7.91053e-06
-8.48076e-05
-1.24731e-05
-7.80694e-05
-1.33423e-05
-7.1505e-05
-1.23395e-05
-6.58444e-05
-9.96471e-06
-6.17061e-05
-6.88359e-06
-5.95499e-05
-3.76785e-06
-5.92533e-05
-1.3544e-06
-6.03131e-05
1.48661e-07
-6.25395e-05
1.33591e-06
-6.52471e-05
1.8627e-06
-6.81286e-05
2.101e-06
-7.1104e-05
2.2941e-06
-7.43013e-05
2.6876e-06
-7.7868e-05
3.2934e-06
-8.19177e-05
4.06528e-06
-8.64915e-05
4.96361e-06
-9.16977e-05
5.96252e-06
-9.75806e-05
7.0484e-06
-0.000104148
8.22345e-06
-0.000111394
9.50318e-06
-0.000119306
1.08974e-05
-0.00012785
1.23864e-05
-0.000136952
1.39174e-05
-0.000146488
1.54732e-05
-0.000156351
1.72482e-05
-0.000166546
1.97228e-05
-0.000177196
2.36372e-05
-0.000188444
2.9836e-05
-0.000200508
3.91483e-05
-0.00021371
5.18172e-05
-0.00022808
6.68454e-05
-0.000242769
8.19501e-05
-0.000255596
9.35265e-05
-0.000262699
9.68001e-05
-0.000259266
8.79359e-05
-0.000241175
6.60539e-05
-0.000207178
3.40538e-05
-0.000166202
2.23319e-06
-0.000119579
-3.9201e-05
-6.75809e-05
-6.98434e-05
-1.30072e-05
-9.33813e-05
4.3197e-05
-0.000112383
0.000102627
-0.000129069
0.000166501
-0.000143926
0.000234729
-0.00015671
0.00030629
-0.000166938
0.000379666
-0.000174051
0.000453088
-0.00017771
0.000525025
-0.000177878
0.000594233
-0.000174838
0.000659638
-0.000169144
0.000720661
-0.000161509
0.000777135
-0.000152812
0.000829163
-0.000144131
0.000877605
-0.000136553
0.000922488
-0.000132129
0.000966529
-0.000130769
-0.000142069
0.000975282
0.000305926
0.00102604
0.000305187
0.00106097
0.000326974
0.00105862
0.000346584
0.00101217
0.00035082
0.000925048
0.000340304
0.000805752
0.000318743
0.000661765
0.000287352
0.000504928
0.000247857
0.000345844
0.000203445
0.000190168
0.000158552
4.70572e-05
0.000113812
-4.98375e-05
7.43165e-05
-8.59849e-05
4.64647e-05
-0.00010587
1.25171e-05
-0.000113874
-1.82825e-05
-0.00010187
-3.29099e-05
-9.15491e-05
-7.42772e-06
-9.90007e-05
1.87399e-05
-0.000108458
1.65022e-05
-0.000114965
7.16168e-06
-0.000119603
-3.27254e-06
-0.000121684
-1.03917e-05
-0.000120593
-1.44334e-05
-0.000118974
-1.39587e-05
-0.000118712
-1.02263e-05
-0.000120405
-5.19057e-06
-0.000124223
4.99698e-08
-0.000128299
2.72104e-06
-0.000132805
4.65536e-06
-0.00013733
5.86033e-06
-0.000141918
6.45047e-06
-0.000146449
6.63231e-06
-0.000150831
6.6765e-06
-0.000155126
6.9821e-06
-0.000159492
7.6592e-06
-0.000164022
8.59616e-06
-0.000168698
9.63924e-06
-0.000173443
1.07071e-05
-0.000178171
1.17768e-05
-0.000182789
1.28413e-05
-0.000187196
1.391e-05
-0.000191278
1.49795e-05
-0.000194849
1.59573e-05
-0.000197554
1.6623e-05
-0.00019874
1.66588e-05
-0.000197382
1.58905e-05
-0.000192493
1.48335e-05
-0.000183079
1.42229e-05
-0.000168071
1.48283e-05
-0.000146086
1.71637e-05
-0.000116395
2.21261e-05
-7.81494e-05
2.85996e-05
-3.0743e-05
3.45437e-05
2.55212e-05
3.72622e-05
8.80731e-05
3.42483e-05
0.00015238
2.36286e-05
0.000212191
6.24329e-06
0.000266892
-2.06477e-05
0.000318924
-4.97984e-05
0.00036139
-8.16673e-05
0.000402572
-0.000111025
0.000445923
-0.000136732
0.000493011
-0.000159471
0.000543352
-0.000179409
0.000595585
-0.00019616
0.000648013
-0.000209137
0.00069893
-0.000217855
0.00074693
-0.000222051
0.000790985
-0.000221765
0.000830465
-0.000217357
0.000865098
-0.000209471
0.000894913
-0.000198959
0.000920206
-0.000186802
0.000941452
-0.000174058
0.000959155
-0.000161834
0.000973917
-0.000151315
0.000985614
-0.000143826
0.00099531
-0.000140465
-0.0001449
0.000857109
0.000271374
0.000897355
0.000264941
0.000950164
0.000274165
0.00100471
0.000292042
0.00104637
0.000309153
0.00106531
0.000321372
0.00105664
0.000327411
0.00101794
0.000326054
0.000949552
0.000316241
0.00085508
0.000297917
0.000740895
0.000272737
0.000611932
0.000242776
0.000476494
0.000209754
0.000348327
0.000174632
0.000223535
0.00013731
0.000102246
0.000103006
-1.43062e-07
6.94796e-05
-5.16327e-05
4.40619e-05
-6.28826e-05
2.99898e-05
-6.47474e-05
1.8367e-05
-6.70983e-05
9.51266e-06
-7.30049e-05
2.634e-06
-8.04688e-05
-2.92785e-06
-8.89948e-05
-5.90737e-06
-9.63453e-05
-6.60815e-06
-0.000101843
-4.72841e-06
-0.000106801
-2.32965e-07
-0.000112158
5.407e-06
-0.000117735
8.29843e-06
-0.000122873
9.79288e-06
-0.000127239
1.02265e-05
-0.000130766
9.97742e-06
-0.000133525
9.3916e-06
-0.00013535
8.5012e-06
-0.000136569
8.20095e-06
-0.000137281
8.37171e-06
-0.000137531
8.84555e-06
-0.000137017
9.12592e-06
-0.000135585
9.27485e-06
-0.000133112
9.30372e-06
-0.000129453
9.18196e-06
-0.000124439
8.89614e-06
-0.000117926
8.46731e-06
-0.000109744
7.7749e-06
-9.96516e-05
6.53051e-06
-8.74417e-05
4.44889e-06
-7.2154e-05
6.02832e-07
-5.39915e-05
-3.32908e-06
-3.1776e-05
-7.99258e-06
-4.0019e-06
-1.29458e-05
3.06132e-05
-1.74514e-05
7.4067e-05
-2.13277e-05
0.000127155
-2.44883e-05
0.000189236
-2.75376e-05
0.000258218
-3.17199e-05
0.000331099
-3.86321e-05
0.000404506
-4.97783e-05
0.00047683
-6.60808e-05
0.000543763
-8.75809e-05
0.000606007
-0.000112043
0.000662066
-0.000137726
0.000713635
-0.000162594
0.000762021
-0.000185119
0.000807144
-0.000204594
0.000848255
-0.000220519
0.000884488
-0.000232394
0.000915156
-0.000239805
0.000939872
-0.000242571
0.000958617
-0.000240795
0.000971709
-0.000234857
0.000979733
-0.000225381
0.000983436
-0.000213174
0.000983628
-0.000199152
0.000981101
-0.000184275
0.000976546
-0.000169502
0.000970475
-0.000155764
0.000963186
-0.000144026
0.000954512
-0.000135152
0.000944312
-0.000130265
-0.000130346
0.000759397
0.000238011
0.000790536
0.000233802
0.000828351
0.000236349
0.000874985
0.000245408
0.000927002
0.000257137
0.000978871
0.000269503
0.00102441
0.000281869
0.00105755
0.000292918
0.00107319
0.000300602
0.00106786
0.000303245
0.00104042
0.000300179
0.000991565
0.000291629
0.000923239
0.000278079
0.00083886
0.000259011
0.000741525
0.000234645
0.000636635
0.000207896
0.00053215
0.000173965
0.000433899
0.000142313
0.000348943
0.000114946
0.000276028
9.12813e-05
0.000213746
7.17953e-05
0.000160426
5.59535e-05
0.000114128
4.33703e-05
7.45234e-05
3.36972e-05
4.17014e-05
2.62138e-05
1.65714e-05
2.04016e-05
3.17147e-07
1.60212e-05
-7.30632e-06
1.30305e-05
-9.538e-06
1.05301e-05
-8.30862e-06
8.5635e-06
-4.98925e-06
6.90711e-06
-4.31339e-07
5.41951e-06
4.95445e-06
4.00582e-06
1.08396e-05
2.61599e-06
1.72276e-05
1.81299e-06
2.47369e-05
8.62387e-07
3.3944e-05
-3.61474e-07
4.47792e-05
-1.70936e-06
5.75311e-05
-3.47703e-06
7.24792e-05
-5.64437e-06
8.98993e-05
-8.23818e-06
0.000110081
-1.12859e-05
0.000133348
-1.47995e-05
0.000159944
-1.88213e-05
0.000189921
-2.34455e-05
0.000223162
-2.8793e-05
0.000258687
-3.49215e-05
0.000296891
-4.15333e-05
0.000337402
-4.85041e-05
0.000380055
-5.55982e-05
0.00042508
-6.24766e-05
0.000472688
-6.89358e-05
0.000523245
-7.50452e-05
0.000576904
-8.11965e-05
0.000633314
-8.81301e-05
0.000691459
-9.67766e-05
0.000749663
-0.000107983
0.000805749
-0.000122167
0.000857298
-0.00013913
0.000903139
-0.000157883
0.000942498
-0.000177085
0.000975229
-0.000195325
0.00100143
-0.000211322
0.00102105
-0.00022421
0.001034
-0.000233476
0.00104042
-0.000238805
0.00104067
-0.000240064
0.00103544
-0.00023734
0.00102559
-0.000230946
0.00101213
-0.000221391
0.000996075
-0.000209328
0.000978402
-0.000195501
0.000959939
-0.000180689
0.00094133
-0.000165665
0.000923001
-0.000151174
0.000905147
-0.00013791
0.000887702
-0.000126581
0.000870291
-0.000117741
0.000852274
-0.000112248
-0.000110236
0.000672433
0.000206414
0.000702275
0.000203961
0.000733372
0.000205252
0.000767839
0.00021094
0.000806614
0.000218362
0.000850036
0.000226081
0.000897301
0.000234604
0.000946031
0.000244187
0.000992641
0.000253992
0.00103305
0.000262834
0.00106349
0.000269743
0.00108117
0.000273948
0.00108444
0.000274805
0.00107207
0.000271381
0.0010437
0.000263018
0.00100103
0.000250564
0.000949032
0.000225965
0.000891656
0.000199689
0.0008319
0.000174703
0.000772155
0.000151026
0.000714622
0.000129328
0.000660587
0.000109989
0.000610853
9.3104e-05
0.000566011
7.85394e-05
0.000526263
6.59617e-05
0.000491588
5.5076e-05
0.000461958
4.56514e-05
0.000437584
3.74049e-05
0.000418121
2.99929e-05
0.000403345
2.33395e-05
0.00039294
1.73124e-05
0.000386567
1.17923e-05
0.000383953
6.6195e-06
0.000385281
1.28858e-06
0.000390256
-3.16261e-06
0.000398943
-7.82457e-06
0.000411154
-1.25725e-05
0.000426796
-1.73513e-05
0.00044561
-2.2291e-05
0.000467398
-2.74322e-05
0.000491946
-3.27865e-05
0.000519028
-3.83673e-05
0.000548415
-4.41867e-05
0.000579857
-5.0263e-05
0.000613035
-5.66242e-05
0.000647532
-6.32894e-05
0.000682842
-7.0232e-05
0.000718626
-7.7317e-05
0.000754499
-8.43777e-05
0.000790141
-9.12393e-05
0.000825392
-9.77283e-05
0.00086022
-0.000103764
0.000894625
-0.00010945
0.000928531
-0.000115102
0.00096163
-0.000121229
0.000993284
-0.00012843
0.00102251
-0.00013721
0.00104813
-0.00014779
0.00106898
-0.000159976
0.0010842
-0.000173105
0.0010933
-0.000186186
0.00109614
-0.000198163
0.00109292
-0.000208097
0.00108403
-0.000215323
0.00107003
-0.000219473
0.00105162
-0.000220397
0.00102967
-0.000218116
0.00100514
-0.00021281
0.000979008
-0.000204813
0.000952194
-0.000194577
0.000925502
-0.000182636
0.000899566
-0.000169565
0.000874832
-0.000155956
0.000851552
-0.000142385
0.000829789
-0.000129411
0.000809426
-0.000117546
0.000790166
-0.000107321
0.000771494
-9.90689e-05
0.000752772
-9.35263e-05
-9.02434e-05
0.000594386
0.000177665
0.00062317
0.000175177
0.000652323
0.000176099
0.000682115
0.000181149
0.000712924
0.000187552
0.000745613
0.000193392
0.000781181
0.000199036
0.000820193
0.000205175
0.000862411
0.000211774
0.000906707
0.000218538
0.000951215
0.000225234
0.00099366
0.000231504
0.00103171
0.000236754
0.00106298
0.000240113
0.0010853
0.000240697
0.00109753
0.000238336
0.00109977
0.000223726
0.00109369
0.000205769
0.00108083
0.000187564
0.00106268
0.000169175
0.00104092
0.000151082
0.00101711
0.000133797
0.000992589
0.000117628
0.000968441
0.000102688
0.000945455
8.89483e-05
0.000924207
7.63233e-05
0.000905149
6.47097e-05
0.000888599
5.39552e-05
0.000874691
4.39e-05
0.000863566
3.44649e-05
0.000855299
2.55798e-05
0.000849932
1.71587e-05
0.000847456
9.09589e-06
0.000847311
1.43326e-06
0.000850217
-6.06802e-06
0.000855657
-1.32653e-05
0.000863449
-2.03637e-05
0.000873445
-2.73479e-05
0.000885393
-3.42382e-05
0.000899022
-4.10619e-05
0.000914064
-4.78284e-05
0.000930236
-5.45397e-05
0.000947247
-6.11977e-05
0.000964791
-6.78066e-05
0.000982538
-7.43709e-05
0.00100013
-8.08836e-05
0.00101721
-8.73078e-05
0.00103345
-9.35555e-05
0.00104858
-9.95101e-05
0.0010624
-0.000105065
0.00107482
-0.000110146
0.00108581
-0.000114754
0.00109538
-0.000119019
0.00110349
-0.000123209
0.00110996
-0.000127702
0.00111445
-0.000132914
0.00111641
-0.000139171
0.00111521
-0.000146594
0.00111024
-0.000155009
0.00110107
-0.000163935
0.00108756
-0.000172671
0.00106986
-0.000180463
0.0010484
-0.000186643
0.00102381
-0.000190727
0.000996774
-0.000192441
0.000968062
-0.000191686
0.000938443
-0.000188496
0.000908653
-0.00018302
0.000879347
-0.000175507
0.000851058
-0.000166288
0.000824177
-0.000155755
0.000798948
-0.000144337
0.000775477
-0.000132484
0.000753744
-0.000120651
0.00073362
-0.000109287
0.000714871
-9.87969e-05
0.000697165
-8.96146e-05
0.000679999
-8.19032e-05
0.000662905
-7.64321e-05
-7.20314e-05
0.000525111
0.000151816
0.000551936
0.000148352
0.000579146
0.000148889
0.000606467
0.000153827
0.000634006
0.000160013
0.000661953
0.000165445
0.000690628
0.000170362
0.000720605
0.000175198
0.000752535
0.000179845
0.000786873
0.000184199
0.000823722
0.000188386
0.00086273
0.000192496
0.00090308
0.000196403
0.000943486
0.000199707
0.000982309
0.000201875
0.00101803
0.000202617
0.00104832
0.000193431
0.00107278
0.000181313
0.00109162
0.000168724
0.00110524
0.000155556
0.00111427
0.000142045
0.00111951
0.00012856
0.00112176
0.000115377
0.0011218
0.000102653
0.00112029
9.04507e-05
0.00111784
7.87767e-05
0.00111494
6.76149e-05
0.00111197
5.69232e-05
0.00110922
4.66463e-05
0.00110693
3.6753e-05
0.00110528
2.72275e-05
0.0011044
1.80455e-05
0.0011043
9.19347e-06
0.00110492
8.11891e-07
0.00110637
-7.51512e-06
0.00110846
-1.5354e-05
0.00111106
-2.29707e-05
0.00111408
-3.03678e-05
0.00111738
-3.75361e-05
0.0011208
-4.44832e-05
0.00112419
-5.12128e-05
0.00112737
-5.77222e-05
0.00113018
-6.40089e-05
0.00113245
-7.00728e-05
0.00113399
-7.59135e-05
0.00113463
-8.15224e-05
0.00113419
-8.6873e-05
0.00113255
-9.19136e-05
0.00112962
-9.6579e-05
0.00112537
-0.000100817
0.00111984
-0.000104612
0.0011131
-0.000108009
0.00110521
-0.000111139
0.00109623
-0.000114225
0.00108609
-0.000117556
0.0010746
-0.000121427
0.00106149
-0.000126061
0.00104642
-0.00013153
0.00102911
-0.000137699
0.0010094
-0.000144223
0.000987333
-0.000150601
0.000963153
-0.000156282
0.000937273
-0.000160763
0.000910201
-0.000163656
0.000882476
-0.000164716
0.000854617
-0.000163827
0.000827102
-0.000160981
0.000800336
-0.000156254
0.000774637
-0.000149808
0.000750226
-0.000141877
0.000727228
-0.000132757
0.000705684
-0.000122793
0.000685566
-0.000112366
0.000666786
-0.000101871
0.000649205
-9.1707e-05
0.00063263
-8.22211e-05
0.000616804
-7.37889e-05
0.000601335
-6.64342e-05
0.000585895
-6.09921e-05
-5.55461e-05
0.00046394
0.000128551
0.000488639
0.000123652
0.00051348
0.000124049
0.000538159
0.000129148
0.000563122
0.00013505
0.000588445
0.000140122
0.00061397
0.000144837
0.000639764
0.000149404
0.000666083
0.000153526
0.000693245
0.000157037
0.00072161
0.00016002
0.00075152
0.000162587
0.00078317
0.000164753
0.000816474
0.000166403
0.000850999
0.00016735
0.000886112
0.000167504
0.000919682
0.000159861
0.000950826
0.00015017
0.000979171
0.000140379
0.00100445
0.000130274
0.00102659
0.000119903
0.0010457
0.000109453
0.00106199
9.90865e-05
0.00107575
8.88978e-05
0.00108727
7.89289e-05
0.00109685
6.91931e-05
0.00110478
5.96923e-05
0.00111128
5.04181e-05
0.00111657
4.13555e-05
0.00112082
3.25026e-05
0.00112418
2.38725e-05
0.00112674
1.54792e-05
0.0011286
7.33918e-06
0.0011298
-3.92134e-07
0.00113031
-8.028e-06
0.00113019
-1.52262e-05
0.00112939
-2.21728e-05
0.0011279
-2.88765e-05
0.00112569
-3.53268e-05
0.00112273
-4.15207e-05
0.00111897
-4.74582e-05
0.00111439
-5.31372e-05
0.00110893
-5.85562e-05
0.00110258
-6.37157e-05
0.00109528
-6.86163e-05
0.00108701
-7.32535e-05
0.00107775
-7.76127e-05
0.0010675
-8.16662e-05
0.00105631
-8.53817e-05
0.00104423
-8.87396e-05
0.00103137
-9.17507e-05
0.00101783
-9.44732e-05
0.00100372
-9.70255e-05
0.000989078
-9.95866e-05
0.000973897
-0.000102375
0.000958077
-0.000105607
0.000941459
-0.000109443
0.000923856
-0.000113927
0.000905112
-0.000118955
0.00088516
-0.00012427
0.000864053
-0.000129494
0.000841967
-0.000134197
0.000819172
-0.000137967
0.000795983
-0.000140467
0.000772722
-0.000141455
0.000749683
-0.000140789
0.000727116
-0.000138414
0.000705218
-0.000134356
0.000684129
-0.00012872
0.000663937
-0.000121685
0.000644681
-0.000113501
0.000626367
-0.000104478
0.00060897
-9.49691e-05
0.000592446
-8.53467e-05
0.000576725
-7.59856e-05
0.000561702
-6.71986e-05
0.00054722
-5.93066e-05
0.000533013
-5.22278e-05
0.0005188
-4.67786e-05
-4.04804e-05
0.000410014
0.000107501
0.000432754
0.000100912
0.000455183
0.00010162
0.000477152
0.000107179
0.000499455
0.000112747
0.000522203
0.000117374
0.000545203
0.000121836
0.00056844
0.000126167
0.00059194
0.000130026
0.000615686
0.00013329
0.000639722
0.000135985
0.000664189
0.000138119
0.000689281
0.000139662
0.000715152
0.000140532
0.000741864
0.000140638
0.000769388
0.000139981
0.000796435
0.000132815
0.000822522
0.000124082
0.000847429
0.000115472
0.000870888
0.000106816
0.000892682
9.81084e-05
0.000912688
8.94475e-05
0.000930854
8.09207e-05
0.000947183
7.25686e-05
0.000961714
6.43979e-05
0.000974506
5.64009e-05
0.000985632
4.8567e-05
0.000995165
4.08843e-05
0.00100318
3.33417e-05
0.00100974
2.594e-05
0.00101492
1.86941e-05
0.00101877
1.16254e-05
0.00102135
4.76109e-06
0.00102279
-1.83333e-06
0.00102304
-8.27079e-06
0.00102223
-1.44235e-05
0.0010204
-2.03367e-05
0.00101755
-2.60327e-05
0.00101373
-3.15073e-05
0.00100897
-3.67544e-05
0.00100328
-4.17729e-05
0.000996708
-4.65624e-05
0.000989274
-5.11229e-05
0.000981014
-5.54551e-05
0.000971957
-5.95598e-05
0.000962138
-6.34344e-05
0.000951595
-6.70698e-05
0.000940379
-7.04502e-05
0.000928556
-7.3559e-05
0.000916208
-7.63911e-05
0.000903423
-7.89659e-05
0.000890289
-8.13396e-05
0.000876877
-8.36126e-05
0.000863218
-8.59276e-05
0.000849296
-8.84534e-05
0.000835042
-9.13537e-05
0.000820346
-9.47461e-05
0.000805081
-9.86614e-05
0.00078914
-0.000103015
0.000772471
-0.000107601
0.000755094
-0.000112117
0.000737105
-0.000116208
0.000718658
-0.00011952
0.000699934
-0.000121743
0.000681116
-0.000122637
0.000662371
-0.000122043
0.000643837
-0.000119879
0.000625623
-0.000116142
0.000607811
-0.000110908
0.00059046
-0.000104334
0.000573615
-9.66562e-05
0.000557309
-8.81726e-05
0.00054157
-7.923e-05
0.000526418
-7.01944e-05
0.000511856
-6.14239e-05
0.000497863
-5.32056e-05
0.000484354
-4.57973e-05
0.000471176
-3.90501e-05
0.000458013
-3.36155e-05
-2.67825e-05
0.000362528
8.82933e-05
0.000383496
7.99438e-05
0.000403597
8.15192e-05
0.000423064
8.77118e-05
0.00044288
9.29311e-05
0.000463078
9.71768e-05
0.000483524
0.00010139
0.000504297
0.000105394
0.00052542
0.000108903
0.000546805
0.000111905
0.000568367
0.000114423
0.000590058
0.000116428
0.000611865
0.000117854
0.000633785
0.000118613
0.000655814
0.000118608
0.000677971
0.000117824
0.000699348
0.000111438
0.00071975
0.000103679
0.00073919
9.60326e-05
0.000757603
8.84029e-05
0.000774911
8.08005e-05
0.000791052
7.33064e-05
0.000805983
6.59896e-05
0.000819675
5.88766e-05
0.000832109
5.19636e-05
0.000843276
4.52343e-05
0.000853173
3.86701e-05
0.000861804
3.22533e-05
0.000869176
2.59689e-05
0.000875304
1.98121e-05
0.000880207
1.37911e-05
0.000883913
7.92012e-06
0.000886464
2.20972e-06
0.000887932
-3.30186e-06
0.000888335
-8.67289e-06
0.000887758
-1.38469e-05
0.00088624
-1.8819e-05
0.000883815
-2.36074e-05
0.000880521
-2.82137e-05
0.0008764
-3.26333e-05
0.000871492
-3.68644e-05
0.000865837
-4.09071e-05
0.000859475
-4.47615e-05
0.000852447
-4.84274e-05
0.000844792
-5.19046e-05
0.000836548
-5.51898e-05
0.000827754
-5.82758e-05
0.000818456
-6.1152e-05
0.000808705
-6.38088e-05
0.000798561
-6.62469e-05
0.000788083
-6.84878e-05
0.000777326
-7.05827e-05
0.00076633
-7.26167e-05
0.00075511
-7.47071e-05
0.000743646
-7.69895e-05
0.000731885
-7.95933e-05
0.000719749
-8.26095e-05
0.000707146
-8.60589e-05
0.000694
-8.98685e-05
0.000680265
-9.38661e-05
0.000665943
-9.77948e-05
0.000651081
-0.000101346
0.000635764
-0.000104203
0.000620097
-0.000106076
0.000604187
-0.000106728
0.000588136
-0.000105992
0.000572033
-0.000103776
0.00055596
-0.000100069
0.000539993
-9.49405e-05
0.000524207
-8.85492e-05
0.000508683
-8.11322e-05
0.000493503
-7.29926e-05
0.00047875
-6.44769e-05
0.000464501
-5.59449e-05
0.000450812
-4.7735e-05
0.000437716
-4.01094e-05
0.000425169
-3.32508e-05
0.000413105
-2.69861e-05
0.000401131
-2.16414e-05
-1.46509e-05
0.000320758
7.05686e-05
0.000340087
6.06147e-05
0.000357962
6.3644e-05
0.000375206
7.04679e-05
0.000392819
7.53176e-05
0.00041069
7.93065e-05
0.000428757
8.33231e-05
0.000447162
8.69892e-05
0.000465939
9.01263e-05
0.000485023
9.28205e-05
0.000504347
9.50997e-05
0.000523846
9.69281e-05
0.000543446
9.82545e-05
0.000563056
9.90022e-05
0.000582581
9.90829e-05
0.000601945
9.84602e-05
0.000620301
9.30825e-05
0.000637492
8.64874e-05
0.000653584
7.99407e-05
0.000668602
7.33849e-05
0.00068256
6.68429e-05
0.000695474
6.03924e-05
0.000707363
5.41004e-05
0.000718244
4.79959e-05
0.000728129
4.2079e-05
0.000737026
3.63365e-05
0.000744945
3.07519e-05
0.000751889
2.53085e-05
0.000757867
1.99912e-05
0.000762886
1.47934e-05
0.000766958
9.71931e-06
0.000770099
4.77917e-06
0.000772345
-3.62606e-08
0.000773727
-4.68396e-06
0.000774267
-9.21292e-06
0.000774005
-1.35851e-05
0.000772976
-1.77899e-05
0.000771206
-2.18378e-05
0.000768725
-2.57328e-05
0.000765564
-2.94725e-05
0.000761755
-3.30547e-05
0.000757327
-3.64792e-05
0.000752311
-3.97459e-05
0.000746738
-4.28541e-05
0.000740636
-4.58024e-05
0.000734033
-4.85871e-05
0.000726959
-5.12022e-05
0.000719447
-5.36394e-05
0.000711531
-5.58932e-05
0.000703251
-5.79672e-05
0.000694647
-5.98829e-05
0.000685751
-6.16868e-05
0.000676587
-6.34531e-05
0.000667161
-6.52811e-05
0.000657455
-6.72837e-05
0.000647429
-6.95668e-05
0.000637023
-7.22031e-05
0.000626169
-7.52051e-05
0.000614806
-7.85057e-05
0.000602891
-8.19515e-05
0.00059041
-8.53138e-05
0.000577379
-8.83146e-05
0.000563837
-9.06614e-05
0.000549842
-9.20816e-05
0.000535464
-9.23494e-05
0.000520776
-9.13039e-05
0.00050586
-8.88604e-05
0.000490808
-8.50169e-05
0.000475726
-7.98586e-05
0.000460732
-7.35558e-05
0.000445956
-6.6356e-05
0.000431529
-5.85658e-05
0.000417578
-5.05253e-05
0.00040421
-4.25775e-05
0.000391506
-3.50306e-05
0.000379515
-2.81182e-05
0.000368203
-2.19392e-05
0.00035756
-1.63426e-05
0.00034711
-1.1192e-05
-4.41133e-06
0.000284047
5.3995e-05
0.000301804
4.28575e-05
0.000317587
4.78611e-05
0.000332893
5.51619e-05
0.000348559
5.96515e-05
0.000364356
6.35097e-05
0.00038032
6.73584e-05
0.000396611
7.06988e-05
0.000413236
7.35008e-05
0.000430146
7.59107e-05
0.000447302
7.79438e-05
0.000464664
7.95663e-05
0.000482171
8.07472e-05
0.000499741
8.14325e-05
0.000517271
8.15521e-05
0.000534662
8.10699e-05
0.000551105
7.66395e-05
0.000566422
7.11705e-05
0.000580652
6.571e-05
0.000593821
6.02158e-05
0.000605953
5.47109e-05
0.000617081
4.92647e-05
0.000627242
4.39397e-05
0.000636472
3.87656e-05
0.000644805
3.37463e-05
0.000652268
2.8873e-05
0.000658886
2.41338e-05
0.000664679
1.95158e-05
0.000669665
1.50055e-05
0.00067386
1.05979e-05
0.000677282
6.2976e-06
0.000679951
2.11006e-06
0.000681881
-1.9663e-06
0.000683105
-5.90745e-06
0.000683629
-9.73715e-06
0.000683482
-1.34379e-05
0.00068269
-1.69981e-05
0.000681275
-2.04229e-05
0.000679259
-2.37167e-05
0.000676665
-2.68784e-05
0.000673516
-2.9906e-05
0.000669836
-3.27991e-05
0.000665647
-3.5557e-05
0.000660972
-3.81788e-05
0.000655832
-4.06623e-05
0.000650248
-4.30035e-05
0.000644242
-4.51964e-05
0.000637837
-4.72341e-05
0.000631056
-4.91125e-05
0.000623925
-5.08361e-05
0.000616468
-5.24252e-05
0.000608702
-5.39215e-05
0.000600639
-5.53902e-05
0.000592275
-5.69174e-05
0.000583591
-5.8599e-05
0.000574548
-6.05238e-05
0.000565095
-6.27502e-05
0.000555173
-6.52832e-05
0.000544725
-6.80574e-05
0.000533704
-7.09309e-05
0.000522084
-7.36942e-05
0.000509863
-7.6093e-05
0.00049706
-7.78586e-05
0.00048372
-7.87413e-05
0.000469907
-7.85368e-05
0.000455709
-7.71064e-05
0.000441238
-7.43885e-05
0.000426625
-7.04042e-05
0.000412025
-6.52588e-05
0.000397605
-5.91359e-05
0.000383535
-5.22861e-05
0.000369976
-4.50062e-05
0.000357065
-3.76146e-05
0.00034491
-3.04227e-05
0.000333576
-2.36964e-05
0.000323097
-1.76389e-05
0.000313421
-1.22634e-05
0.000304572
-7.49403e-06
0.00029602
-2.63965e-06
3.6526e-06
0.000251798
3.82832e-05
0.000267991
2.66645e-05
0.000281861
3.39914e-05
0.000295501
4.15218e-05
0.000309433
4.57198e-05
0.00032339
4.95522e-05
0.000337519
5.32298e-05
0.00035196
5.62579e-05
0.000366692
5.87689e-05
0.00038167
6.09327e-05
0.000396868
6.27456e-05
0.000412256
6.41785e-05
0.000427787
6.52162e-05
0.000443398
6.5821e-05
0.000459011
6.5939e-05
0.00047454
6.55414e-05
0.000489254
6.19247e-05
0.00050298
5.74452e-05
0.000515738
5.29516e-05
0.000527543
4.84113e-05
0.000538408
4.38453e-05
0.000548359
3.93142e-05
0.000557425
3.48736e-05
0.000565639
3.05515e-05
0.000573033
2.63527e-05
0.000579635
2.22707e-05
0.000585472
1.82967e-05
0.000590567
1.44205e-05
0.000594943
1.06298e-05
0.000598619
6.92208e-06
0.000601613
3.30315e-06
0.000603946
-2.22404e-07
0.000605633
-3.65319e-06
0.0006067
-6.97456e-06
0.000607159
-1.01962e-05
0.000607031
-1.33103e-05
0.00060634
-1.63067e-05
0.000605103
-1.91864e-05
0.00060334
-2.19531e-05
0.000601068
-2.46063e-05
0.000598305
-2.71437e-05
0.00059507
-2.95639e-05
0.000591379
-3.18657e-05
0.000587247
-3.4047e-05
0.000582689
-3.61043e-05
0.000577718
-3.80327e-05
0.000572347
-3.98254e-05
0.000566588
-4.14753e-05
0.000560454
-4.29784e-05
0.000553957
-4.43391e-05
0.000547108
-4.55759e-05
0.000539913
-4.67265e-05
0.000532372
-4.78494e-05
0.000524475
-4.90204e-05
0.0005162
-5.03232e-05
0.000507509
-5.18335e-05
0.000498358
-5.35985e-05
0.000488692
-5.56173e-05
0.00047846
-5.78257e-05
0.000467621
-6.00918e-05
0.000456151
-6.22244e-05
0.000444052
-6.39937e-05
0.000431354
-6.51603e-05
0.000418118
-6.55057e-05
0.000404439
-6.48577e-05
0.000390442
-6.31091e-05
0.00037628
-6.0227e-05
0.000362132
-5.62562e-05
0.000348189
-5.13155e-05
0.000334643
-4.55904e-05
0.000321676
-3.93186e-05
0.000309441
-3.2771e-05
0.000298055
-2.62287e-05
0.000287592
-1.99603e-05
0.000278079
-1.41833e-05
0.000269516
-9.07516e-06
0.000261818
-4.56571e-06
0.000255036
-7.11765e-07
0.000248631
3.76536e-06
9.43423e-06
0.000223468
2.31975e-05
0.000238065
1.2068e-05
0.000250245
2.18105e-05
0.00026246
2.93075e-05
0.000274839
3.33406e-05
0.000287177
3.72144e-05
0.000299706
4.07001e-05
0.00031253
4.34339e-05
0.000325606
4.56933e-05
0.000338896
4.76424e-05
0.00035238
4.92613e-05
0.000366029
5.05295e-05
0.000379802
5.14436e-05
0.000393646
5.19771e-05
0.000407498
5.20873e-05
0.000421286
5.17527e-05
0.000434366
4.88448e-05
0.00044658
4.52314e-05
0.000457947
4.15849e-05
0.000468477
3.78808e-05
0.000478183
3.41398e-05
0.000487081
3.04164e-05
0.000495193
2.67609e-05
0.000502546
2.3199e-05
0.000509163
1.97354e-05
0.000515069
1.63648e-05
0.000520285
1.30804e-05
0.000524832
9.87398e-06
0.000528729
6.73248e-06
0.000531995
3.65656e-06
0.000534646
6.51515e-07
0.000536704
-2.2798e-06
0.000538184
-5.13309e-06
0.000539106
-7.89706e-06
0.000539484
-1.05742e-05
0.000539333
-1.31596e-05
0.000538671
-1.56442e-05
0.000537511
-1.80261e-05
0.000535865
-2.03074e-05
0.000533745
-2.24868e-05
0.000531163
-2.45617e-05
0.000528129
-2.65292e-05
0.00052465
-2.83869e-05
0.000520735
-3.01318e-05
0.00051639
-3.17592e-05
0.00051162
-3.32633e-05
0.000506432
-3.46373e-05
0.000500831
-3.58743e-05
0.000494824
-3.6971e-05
0.000488417
-3.79323e-05
0.000481617
-3.87764e-05
0.000474429
-3.95386e-05
0.000466853
-4.02729e-05
0.00045888
-4.10476e-05
0.000450494
-4.19369e-05
0.000441666
-4.30058e-05
0.000432361
-4.42931e-05
0.000422537
-4.57935e-05
0.000412157
-4.74457e-05
0.000401194
-4.91292e-05
0.000389644
-5.06736e-05
0.000377527
-5.18773e-05
0.000364901
-5.25346e-05
0.000351859
-5.24627e-05
0.000338525
-5.15246e-05
0.000325061
-4.96442e-05
0.000311647
-4.68129e-05
0.00029848
-4.30893e-05
0.000285758
-3.85938e-05
0.000273666
-3.3499e-05
0.000262364
-2.80161e-05
0.000251971
-2.23785e-05
0.000242565
-1.68219e-05
0.000234174
-1.15697e-05
0.000226781
-6.79072e-06
0.000220353
-2.64648e-06
0.000214773
1.01389e-06
0.000210105
3.95596e-06
0.000205887
7.98414e-06
1.30166e-05
0.00019856
8.56662e-06
0.000211521
-8.92926e-07
0.000222268
1.1064e-05