/*--------------------------------*- C++ -*----------------------------------*\
| =========                 |                                                 |
| \\      /  F ield         | OpenFOAM: The Open Source CFD Toolbox           |
|  \\    /   O peration     | Version:  v1912                                 |
|   \\  /    A nd           | Website:  www.openfoam.com                      |
|    \\/     M anipulation  |                                                 |
\*---------------------------------------------------------------------------*/
FoamFile
{
    version     2.0;
    format      ascii;
    class       volVectorField;
    location    "975";
    object      U;
}
// * * * * * * * * * * * * * * * * * * * * * * * * * * * * * * * * * * * * * //

dimensions      [0 1 -1 0 0 0 0];


internalField   nonuniform List<vector> 
2000
(
(0.84616 0.187394 0)
(0.515133 0.124089 0)
(0.223448 0.0684415 0)
(0.0598068 0.0174443 6.19506e-20)
(-0.00455616 -0.0232232 1.20677e-17)
(-0.0642033 -0.0384872 1.04229e-17)
(-0.0776009 -0.0372471 0)
(-0.0715949 -0.016659 0)
(-0.0590606 0.0117118 0)
(-0.0421582 0.0254666 2.36683e-17)
(-0.0415844 0.0109778 -1.45006e-17)
(-0.0273671 -0.000621433 -1.36188e-17)
(-0.0163176 -0.00266725 0)
(-0.0200715 -0.00264044 0)
(-0.0219062 -0.00226994 -1.0819e-17)
(-0.0168723 0.000848289 0)
(-0.0105729 0.00349409 9.73916e-18)
(-0.00962165 0.00623773 3.09521e-21)
(-0.01063 0.00612828 9.41481e-18)
(-0.0113964 0.00488897 -4.64682e-18)
(-0.0112581 0.00278269 9.18698e-18)
(-0.0100663 0.000805001 0)
(-0.00791502 -0.000198845 0)
(-0.00539655 -0.000629432 -7.45655e-23)
(-0.00310226 -0.000794676 0)
(-0.00127518 -0.000813754 -4.51688e-18)
(-5.20248e-05 -0.000750861 0)
(0.000645503 -0.000670385 4.52613e-18)
(0.00104403 -0.000655871 0)
(0.00133392 -0.000661395 0)
(0.00160895 -0.000586397 0)
(0.00188423 -0.000474654 1.14945e-18)
(0.00214402 -0.000384288 0)
(0.00237783 -0.000344695 -5.83394e-19)
(0.00257309 -0.000344069 1.94704e-14)
(0.00270542 -0.00036097 1.94568e-14)
(0.00276857 -0.000397702 6.01658e-19)
(0.00270778 -0.000492527 -6.09155e-19)
(0.00252488 -0.000635834 0)
(0.00221859 -0.000795115 2.50589e-18)
(0.0017682 -0.000946521 0)
(0.0011385 -0.00107687 -2.5885e-18)
(0.000286301 -0.00117286 0)
(-0.000847062 -0.00121801 -5.35866e-18)
(-0.00231399 -0.00123259 2.72252e-18)
(-0.0041545 -0.00130591 0)
(-0.00645596 -0.00148576 0)
(-0.00937613 -0.00168366 -2.85623e-18)
(-0.0132356 -0.00159154 0)
(-0.0186461 -0.000618927 2.93282e-18)
(-0.0265837 0.00193115 0)
(-0.0383301 0.00635203 5.91075e-18)
(-0.05527 0.0120952 -5.85949e-18)
(-0.0785404 0.0177609 5.73787e-18)
(-0.108482 0.021464 -2.74013e-18)
(-0.144192 0.0213646 0)
(-0.183577 0.0162562 2.32981e-18)
(-0.223719 0.00598211 -2.07393e-18)
(-0.260878 -0.00842822 -4.08087e-18)
(-0.290221 -0.0247589 3.30609e-18)
(-0.30688 -0.0397749 -3.26221e-18)
(-0.309323 -0.0502631 3.48928e-18)
(-0.302905 -0.0562817 -3.98065e-18)
(-0.287885 -0.059182 4.78557e-18)
(-0.265378 -0.0600007 -1.11154e-20)
(-0.236231 -0.0594744 7.17335e-18)
(-0.200863 -0.0578087 0)
(-0.159444 -0.0549942 0)
(-0.112229 -0.0510201 7.59341e-20)
(-0.0599533 -0.0459256 0)
(-0.00387852 -0.0396457 1.98908e-17)
(0.0557964 -0.0318411 0)
(0.119355 -0.0223626 1.98812e-17)
(0.186304 -0.0113655 -4.88147e-19)
(0.255902 0.00090752 1.71646e-17)
(0.329455 0.0141538 2.98628e-17)
(0.403467 0.0279974 7.34566e-19)
(0.491125 0.0419825 -1.01484e-17)
(0.557064 0.0544538 -6.53067e-18)
(0.713657 0.0651821 0)
(1.0153 0.210384 0)
(0.944633 0.194211 0)
(0.804475 0.179983 -3.52871e-18)
(0.654422 0.152313 7.28779e-18)
(0.509224 0.111169 0)
(0.360042 0.0683704 -7.28858e-18)
(0.216493 0.0293252 0)
(0.0821323 -0.00530893 0)
(-0.0282879 -0.0180399 0)
(-0.0562034 -0.0189155 -1.73088e-17)
(-0.0667325 -0.0249882 1.57464e-17)
(-0.0718835 -0.0159767 1.44435e-17)
(-0.0637616 0.00640349 0)
(-0.0508837 0.02072 6.32282e-18)
(-0.0545098 0.00998889 0)
(-0.0483041 -0.00293965 0)
(-0.0376341 -0.0040272 0)
(-0.0329308 -0.00109689 5.26991e-18)
(-0.0367019 0.000899724 -1.03362e-17)
(-0.0388887 0.000901655 -5.09132e-18)
(-0.039583 7.17258e-05 0)
(-0.0384913 -0.00112582 0)
(-0.0357732 -0.00235114 0)
(-0.0325284 -0.00294133 -7.41315e-18)
(-0.0293661 -0.002742 0)
(-0.0265523 -0.00194385 4.95092e-18)
(-0.024331 -0.000882409 2.48294e-18)
(-0.02287 -2.50728e-06 0)
(-0.0222351 0.00036969 0)
(-0.0222919 0.000402474 0)
(-0.0228625 0.000228735 0)
(-0.023718 4.15721e-05 -6.3271e-19)
(-0.0246878 -0.000112085 0)
(-0.0257121 -0.000201582 3.20247e-19)
(-0.0268094 -0.000190262 1.61337e-19)
(-0.0280477 -6.13345e-05 0)
(-0.0294686 0.000167416 0)
(-0.0310958 0.000465237 6.62754e-19)
(-0.0329914 0.000813818 0)
(-0.0351725 0.00121164 -1.3526e-18)
(-0.0376552 0.00166673 0)
(-0.0404471 0.00219289 -1.3826e-18)
(-0.0435574 0.00280003 0)
(-0.0469938 0.00348203 1.41356e-18)
(-0.0507505 0.0042255 1.43119e-18)
(-0.0548026 0.00506672 0)
(-0.0591246 0.00618749 0)
(-0.0637128 0.00795853 -2.97137e-18)
(-0.068558 0.010893 0)
(-0.0736249 0.0155881 1.41612e-20)
(-0.0789311 0.022573 0)
(-0.0846707 0.0319763 0)
(-0.0911987 0.0430895 0)
(-0.0988293 0.0542596 0)
(-0.107293 0.0631604 6.02605e-18)
(-0.115063 0.0673507 0)
(-0.119714 0.0648573 -5.48308e-18)
(-0.119313 0.0547897 2.65348e-18)
(-0.112429 0.0381224 -2.31192e-18)
(-0.0951743 0.0176652 -4.88386e-18)
(-0.0633409 -0.00482185 5.03145e-18)
(-0.0452376 -0.030744 -5.55072e-18)
(-0.0199859 -0.0513465 6.49781e-18)
(0.00790736 -0.0659847 0)
(0.0388188 -0.0762624 -1.2943e-17)
(0.0732364 -0.0836492 -9.65714e-18)
(0.111937 -0.088873 0)
(0.155114 -0.091936 5.73594e-18)
(0.202408 -0.0925404 1.25528e-17)
(0.253241 -0.0904695 0)
(0.306957 -0.085624 0)
(0.362975 -0.077977 0)
(0.42082 -0.0676633 0)
(0.480226 -0.0550159 -1.36134e-17)
(0.540941 -0.0405713 5.93449e-18)
(0.60382 -0.0249947 -1.17669e-17)
(0.667282 -0.00922554 1.01596e-17)
(0.739106 0.00569882 -3.46746e-18)
(0.796056 0.0173323 0)
(0.911769 0.0228518 0)
(0.978489 0.201538 0)
(0.978854 0.193006 -2.78548e-18)
(0.969154 0.205111 3.48118e-18)
(0.939083 0.208532 -3.06021e-18)
(0.878034 0.194606 2.88481e-18)
(0.785605 0.168719 2.84285e-18)
(0.669349 0.138081 0)
(0.541012 0.106021 0)
(0.40822 0.0750633 0)
(0.285943 0.0459344 6.86586e-18)
(0.173879 0.0180211 0)
(0.0721777 -0.00640544 0)
(-0.0214749 -0.0141536 0)
(-0.046911 -0.00385644 -7.18369e-18)
(-0.0508323 -0.0116815 0)
(-0.0586947 -0.0181546 -6.05047e-18)
(-0.0592959 -0.0112552 0)
(-0.0481131 0.00906227 5.87554e-18)
(-0.0464823 0.0164831 2.87248e-18)
(-0.0509059 0.0125885 0)
(-0.0532643 0.00615035 -2.78946e-18)
(-0.0550533 -0.000291229 0)
(-0.0556708 -0.00469709 0)
(-0.054771 -0.00653207 5.43529e-18)
(-0.0532208 -0.00661025 0)
(-0.0520416 -0.00573115 1.358e-18)
(-0.0518396 -0.00422559 -4.07673e-18)
(-0.0526313 -0.00223685 0)
(-0.053987 -0.000223891 0)
(-0.0554585 0.00124247 -6.8152e-19)
(-0.0570584 0.00219455 0)
(-0.0587676 0.00272098 1.50673e-22)
(-0.060511 0.00296548 0)
(-0.0622435 0.00309042 6.90696e-19)
(-0.0639709 0.00325703 8.68788e-20)
(-0.0657655 0.0035187 0)
(-0.0676839 0.00386171 1.76311e-19)
(-0.0697391 0.00425091 -3.55548e-19)
(-0.0719132 0.00468197 -3.58748e-19)
(-0.0741751 0.00515833 -7.24481e-19)
(-0.0764875 0.00568711 7.32088e-19)
(-0.078813 0.00627873 7.39702e-19)
(-0.0811237 0.00693754 0)
(-0.0833852 0.00764539 1.51698e-18)
(-0.0854936 0.00837105 -3.07718e-18)
(-0.0871952 0.0091311 0)
(-0.0880784 0.0100925 -1.59194e-18)
(-0.0876691 0.0116378 3.24548e-18)
(-0.0854339 0.0142476 0)
(-0.0807163 0.0184998 -1.6972e-18)
(-0.0728086 0.0248817 1.78026e-18)
(-0.0611951 0.033647 -1.84642e-18)
(-0.045509 0.0439087 -1.91452e-18)
(-0.0257127 0.0541193 0)
(-0.00201896 0.0620606 -3.94108e-18)
(0.02562 0.0652145 -1.88507e-18)
(0.0571052 0.061306 1.63647e-18)
(0.0906066 0.0494948 1.53167e-18)
(0.124566 0.0288055 2.56923e-18)
(0.156408 0.0020319 0)
(0.186557 -0.0243218 0)
(0.21425 -0.0462834 0)
(0.242428 -0.0645281 -1.31473e-18)
(0.274037 -0.0801746 0)
(0.310026 -0.0937789 3.22311e-18)
(0.349857 -0.105317 0)
(0.392599 -0.114451 -1.98827e-18)
(0.437372 -0.12072 -4.46358e-18)
(0.483382 -0.123701 0)
(0.529954 -0.123147 -2.47432e-18)
(0.576605 -0.119048 2.57833e-18)
(0.623072 -0.111662 0)
(0.669299 -0.101501 0)
(0.715473 -0.089253 0)
(0.761833 -0.0757544 -5.4088e-18)
(0.809255 -0.0619252 0)
(0.857035 -0.0489524 -1.88498e-18)
(0.910119 -0.0379433 3.36921e-18)
(0.953007 -0.0312809 0)
(1.03533 -0.0303352 3.93286e-19)
(0.970611 0.209117 0)
(0.963917 0.194765 1.52494e-18)
(0.96643 0.198514 0)
(0.977152 0.206407 1.69423e-18)
(0.982034 0.208884 -3.00369e-18)
(0.968293 0.204266 -1.34078e-18)
(0.930748 0.193726 0)
(0.870757 0.177878 0)
(0.79113 0.156581 0)
(0.695411 0.131331 1.35077e-18)
(0.58948 0.10541 1.38254e-18)
(0.48005 0.0807 0)
(0.369265 0.0579965 0)
(0.266647 0.0376063 0)
(0.17965 0.0185391 0)
(0.100391 0.00267195 6.39948e-18)
(0.0300551 -0.00993323 -3.38662e-18)
(-0.0310552 -0.00937982 0)
(-0.0328207 0.00101151 -3.28211e-18)
(-0.0347029 0.00246207 1.6181e-18)
(-0.0346432 0.0013656 3.21034e-18)
(-0.0359003 -0.00129441 0)
(-0.0391099 -0.00397561 0)
(-0.0434938 -0.00523477 -3.1194e-18)
(-0.0472084 -0.00435817 0)
(-0.0495038 -0.00166594 -1.54353e-18)
(-0.0511823 0.00172022 1.54309e-18)
(-0.0536842 0.00423372 0)
(-0.0558191 0.00540736 0)
(-0.0580666 0.00595799 7.66837e-19)
(-0.0600148 0.0060341 0)
(-0.0616476 0.00577542 -7.69863e-19)
(-0.062917 0.00534604 0)
(-0.0638071 0.00491368 -1.94724e-19)
(-0.0644466 0.00471467 -9.80919e-20)
(-0.0649241 0.00483108 -2.47425e-20)
(-0.0652485 0.00520583 -2.99802e-19)
(-0.0653152 0.00577274 4.04109e-19)
(-0.0650429 0.00642834 4.09146e-19)
(-0.064361 0.00711229 1.24476e-18)
(-0.0631835 0.00780792 -4.21193e-19)
(-0.0614224 0.00850799 4.28523e-19)
(-0.0590186 0.00919049 0)
(-0.0559272 0.00978379 8.92815e-19)
(-0.0520422 0.0101112 9.13803e-19)
(-0.0470737 0.00986831 0)
(-0.0405764 0.00868914 1.93682e-18)
(-0.0325938 0.0065089 1.00066e-18)
(-0.022433 0.00401498 0)
(-0.00985445 0.00183466 -3.26349e-18)
(0.00659614 0.00054064 -2.23268e-18)
(0.0279714 0.000718359 1.10743e-18)
(0.0541966 0.00219734 2.16811e-18)
(0.0858645 0.00410594 0)
(0.122991 0.00492471 9.80873e-19)
(0.164726 0.00286643 2.6823e-18)
(0.20978 -0.0036172 1.58637e-18)
(0.256057 -0.0150294 -1.39075e-18)
(0.303039 -0.0302305 -6.42824e-19)
(0.348957 -0.0476204 0)
(0.393301 -0.0664118 0)
(0.436071 -0.0853057 0)
(0.478139 -0.103236 1.71709e-18)
(0.520313 -0.119578 6.47144e-19)
(0.562536 -0.133862 0)
(0.604157 -0.145555 -1.56698e-18)
(0.644469 -0.154101 1.74216e-18)
(0.682971 -0.159063 -1.87556e-18)
(0.719406 -0.160218 -2.02286e-18)
(0.753755 -0.157601 1.26816e-19)
(0.786228 -0.151506 -2.42028e-18)
(0.817238 -0.142452 0)
(0.847341 -0.131125 0)
(0.87721 -0.118313 0)
(0.907453 -0.104875 0)
(0.938983 -0.0916915 0)
(0.971469 -0.0798157 3.67725e-18)
(1.00825 -0.0700937 -1.34569e-18)
(1.03847 -0.0644551 0)
(1.09567 -0.0627194 -4.24045e-19)
(0.972988 0.216082 0)
(0.965831 0.201808 1.87068e-18)
(0.959206 0.1956 2.49221e-19)
(0.961489 0.195546 1.90714e-18)
(0.972668 0.197536 0)
(0.985519 0.199235 -1.60739e-18)
(0.992497 0.199295 0)
(0.988452 0.196253 -3.62518e-19)
(0.970218 0.189033 0)
(0.935631 0.177562 -1.6057e-18)
(0.884731 0.162749 -1.2429e-18)
(0.819618 0.145667 -3.15421e-19)
(0.743324 0.126729 3.13108e-19)
(0.658088 0.106111 0)
(0.569157 0.0852833 3.13163e-19)
(0.47934 0.0662428 0)
(0.393491 0.0502676 2.65419e-18)
(0.314099 0.0363411 -3.51302e-19)
(0.247072 0.0242761 0)
(0.192396 0.0147283 -1.89935e-18)
(0.147777 0.00792812 0)
(0.110715 0.00341461 0)
(0.0798821 0.000827244 0)
(0.053991 -0.000613855 0)
(0.0324758 -0.00158547 -2.21663e-19)
(0.0157003 -0.00203592 0)
(0.00281117 -0.0014042 0)
(-0.00264254 0.000663204 1.15592e-19)
(-0.00512374 0.00208273 0)
(-0.00516598 0.0030773 0)
(-0.00383087 0.00365189 0)
(-0.00157046 0.00392444 -5.87512e-20)
(0.00101894 0.00401027 0)
(0.00447521 0.0038279 -2.67877e-19)
(0.00749522 0.00432159 0)
(0.0111488 0.00517501 3.01043e-20)
(0.0155422 0.00569214 1.51298e-19)
(0.0208528 0.00561947 3.03745e-20)
(0.0272659 0.00524541 -6.09578e-20)
(0.0348505 0.00469335 -4.89068e-19)
(0.0437781 0.0039412 -4.89714e-19)
(0.0542639 0.00296477 4.89659e-19)
(0.0665001 0.00175313 -1.22175e-19)
(0.0806765 0.000281657 -9.73533e-19)
(0.0970014 -0.00150481 9.67423e-19)
(0.115459 -0.00367299 -1.19986e-19)
(0.13625 -0.00632773 0)
(0.158906 -0.00955251 -9.40347e-19)
(0.183496 -0.013311 0)
(0.210128 -0.0174616 9.19263e-19)
(0.238841 -0.021669 0)
(0.269843 -0.0258012 8.96315e-19)
(0.303447 -0.0298229 0)
(0.34 -0.0339352 -2.11787e-19)
(0.379717 -0.0386404 -8.0456e-19)
(0.422472 -0.0446648 -7.4653e-19)
(0.467668 -0.0527552 1.73484e-19)
(0.514241 -0.0634452 0)
(0.560778 -0.0770327 5.43765e-19)
(0.605859 -0.0929814 -1.37352e-19)
(0.648629 -0.110301 0)
(0.688695 -0.127644 1.37225e-19)
(0.725939 -0.143764 -5.35082e-19)
(0.760301 -0.157819 -5.90765e-19)
(0.791607 -0.169246 0)
(0.81964 -0.177604 1.47951e-18)
(0.844322 -0.182562 0)
(0.865821 -0.183973 1.83375e-18)
(0.884547 -0.181905 2.01132e-18)
(0.901109 -0.176636 2.17569e-18)
(0.916251 -0.168627 2.70808e-19)
(0.930795 -0.158467 0)
(0.945562 -0.146837 0)
(0.961347 -0.134457 0)
(0.978766 -0.122065 -2.69654e-19)
(0.998567 -0.11039 0)
(1.02038 -0.100237 -1.67501e-18)
(1.0467 -0.0922582 1.64958e-18)
(1.06869 -0.0876779 1.03982e-19)
(1.11229 -0.0864237 4.5087e-20)
(0.974194 0.218514 -1.23232e-18)
(0.970935 0.206364 1.19273e-18)
(0.965119 0.198172 -2.82016e-19)
(0.961139 0.194112 0)
(0.962197 0.191942 0)
(0.96826 0.190544 0)
(0.977772 0.189885 0)
(0.988502 0.189481 1.25235e-18)
(0.997432 0.188308 0)
(1.00093 0.185358 -1.11965e-18)
(0.995773 0.179955 -1.39572e-18)
(0.979839 0.171905 3.2001e-19)
(0.952675 0.161434 9.66803e-19)
(0.914336 0.148646 0)
(0.865647 0.133742 -1.47551e-18)
(0.80825 0.117845 0)
(0.746068 0.102471 -1.17957e-18)
(0.683643 0.0879752 2.95026e-19)
(0.622834 0.0743871 -1.2341e-18)
(0.565747 0.062114 -9.50321e-19)
(0.513195 0.0513553 0)
(0.465535 0.0420972 0)
(0.422941 0.0342211 -6.83089e-19)
(0.385367 0.0276191 0)
(0.352677 0.0221562 -5.42366e-19)
(0.324661 0.0176537 0)
(0.300912 0.0138445 0)
(0.281203 0.0104628 -9.55936e-20)
(0.265389 0.00754627 0)
(0.25313 0.00510173 0)
(0.244082 0.00306269 0)
(0.23797 0.0013497 5.05345e-20)
(0.234484 -0.000116925 2.04831e-19)
(0.233654 -0.00133331 1.29043e-19)
(0.235253 -0.00274369 0)
(0.239388 -0.004339 0)
(0.246009 -0.00599824 -2.59505e-20)
(0.254943 -0.00775328 -1.29976e-19)
(0.266159 -0.00969231 5.16453e-20)
(0.279583 -0.0118711 0)
(0.295118 -0.0143236 0)
(0.312679 -0.0170764 -2.03988e-19)
(0.332191 -0.0201523 1.00465e-19)
(0.353575 -0.0235827 -4.00995e-19)
(0.37674 -0.0274137 3.96956e-19)
(0.401548 -0.0316999 9.71515e-20)
(0.42781 -0.0364724 0)
(0.455297 -0.0416317 3.84961e-19)
(0.483834 -0.0470526 0)
(0.513282 -0.0525898 0)
(0.543537 -0.0580822 0)
(0.574585 -0.0634276 0)
(0.606495 -0.0686499 0)
(0.639345 -0.0739658 1.77935e-19)
(0.673126 -0.0797981 0)
(0.707626 -0.0867023 6.6928e-19)
(0.742358 -0.0952165 -1.52508e-19)
(0.776559 -0.10567 0)
(0.809301 -0.118004 5.80244e-19)
(0.839668 -0.131629 1.27844e-19)
(0.866944 -0.145645 5.67335e-19)
(0.890681 -0.159068 -1.32483e-19)
(0.910689 -0.171026 0)
(0.926998 -0.18088 -6.62754e-19)
(0.939789 -0.188207 0)
(0.949369 -0.192736 0)
(0.956194 -0.194341 -8.53744e-19)
(0.960892 -0.193051 0)
(0.964222 -0.189063 0)
(0.967018 -0.182713 -1.06363e-18)
(0.970118 -0.174448 -2.95595e-19)
(0.974314 -0.164788 0)
(0.980301 -0.15429 0)
(0.988676 -0.143527 0)
(0.999824 -0.13307 3.01292e-19)
(1.01423 -0.12347 -1.03005e-18)
(1.03135 -0.115309 -2.40074e-19)
(1.05325 -0.109062 -1.88502e-19)
(1.07178 -0.105449 -1.17766e-19)
(1.11018 -0.104578 -2.40625e-19)
(0.974501 0.21901 4.35455e-18)
(0.973757 0.208036 -4.18127e-18)
(0.971714 0.200425 0)
(0.969159 0.196211 -2.53683e-18)
(0.967053 0.192937 0)
(0.966166 0.189312 -2.23685e-18)
(0.967419 0.185818 0)
(0.971669 0.183008 2.97878e-18)
(0.978978 0.18073 -3.69856e-18)
(0.988283 0.178484 1.68877e-18)
(0.99769 0.175773 1.57883e-18)
(1.00497 0.172151 0)
(1.00811 0.167265 -4.27073e-18)
(1.00544 0.1607 -2.72018e-18)
(0.995587 0.15211 3.82338e-18)
(0.977794 0.141797 0)
(0.953044 0.130626 1.17111e-18)
(0.923752 0.119347 0)
(0.891693 0.108147 1.16759e-18)
(0.858157 0.0970062 1.16729e-18)
(0.824183 0.0861328 0)
(0.790761 0.0758053 0)
(0.758773 0.0662284 -6.39269e-19)
(0.728891 0.0575075 0)
(0.701558 0.0496254 6.20824e-19)
(0.677009 0.0424969 0)
(0.655363 0.0360274 0)
(0.636651 0.0301303 0)
(0.620901 0.024717 0)
(0.60805 0.0197046 0)
(0.598023 0.015015 0)
(0.590752 0.010578 0)
(0.586162 0.00632132 1.77008e-19)
(0.584134 0.00218047 -8.58885e-20)
(0.584452 -0.00198849 4.39733e-20)
(0.587209 -0.0062242 0)
(0.592313 -0.0105139 0)
(0.599558 -0.014861 8.61457e-20)
(0.60879 -0.0193041 -3.51689e-19)
(0.619871 -0.0238802 3.51248e-19)
(0.632646 -0.0286109 0)
(0.646954 -0.0335091 8.7119e-19)
(0.662631 -0.0385862 -6.99073e-19)
(0.679509 -0.0438547 -3.57828e-19)
(0.69741 -0.0493288 -3.39165e-19)
(0.716136 -0.0550143 0)
(0.735467 -0.0608889 0)
(0.755182 -0.0668806 -1.03467e-18)
(0.775084 -0.0728971 0)
(0.79502 -0.0788421 0)
(0.81489 -0.0846292 0)
(0.834657 -0.0902238 7.03629e-19)
(0.854337 -0.0956936 1.40496e-18)
(0.873943 -0.101234 0)
(0.893425 -0.107153 0)
(0.912595 -0.11381 -6.48165e-19)
(0.931089 -0.121508 0)
(0.948378 -0.130374 1.29262e-18)
(0.963831 -0.140272 6.86148e-19)
(0.976844 -0.150783 0)
(0.986965 -0.161295 6.99785e-19)
(0.993993 -0.171136 1.33534e-18)
(0.997994 -0.179681 1.4068e-18)
(0.999268 -0.186444 7.14522e-19)
(0.998275 -0.191113 -1.61663e-18)
(0.995582 -0.193526 1.747e-18)
(0.991833 -0.193654 2.83295e-18)
(0.987728 -0.191586 0)
(0.983987 -0.18752 0)
(0.981302 -0.181748 1.1952e-18)
(0.980293 -0.174625 0)
(0.981492 -0.166554 2.49868e-18)
(0.985319 -0.157964 2.53137e-18)
(0.992108 -0.149296 0)
(1.00202 -0.140994 2.40157e-18)
(1.01536 -0.133489 -1.04068e-18)
(1.03148 -0.127219 0)
(1.05229 -0.122529 0)
(1.06993 -0.119865 0)
(1.1068 -0.119415 -1.92992e-19)
(0.974733 0.218938 -3.35446e-18)
(0.975458 0.208201 3.21119e-18)
(0.976056 0.201058 -6.2366e-18)
(0.975936 0.197366 2.86916e-18)
(0.974875 0.19446 0)
(0.9732 0.190786 2.52981e-18)
(0.971487 0.186584 -4.84277e-18)
(0.970472 0.182339 -4.48992e-18)
(0.970994 0.17813 -7.9248e-20)
(0.973704 0.17395 0)
(0.978806 0.169868 0)
(0.985964 0.165856 3.59635e-18)
(0.994363 0.161685 3.29157e-18)
(1.00283 0.15694 -3.2774e-18)
(1.00995 0.151228 -8.89748e-18)
(1.01427 0.144451 0)
(1.01489 0.136908 0)
(1.01186 0.128902 0)
(1.00564 0.120423 0)
(0.996717 0.111451 0)
(0.985584 0.102194 0)
(0.972871 0.0929292 0)
(0.959262 0.0838673 1.23999e-18)
(0.945388 0.0751229 -2.58635e-18)
(0.931771 0.0667303 0)
(0.918819 0.0586899 0)
(0.90685 0.0509943 0)
(0.896104 0.0436152 0)
(0.886747 0.036494 0)
(0.87888 0.0295885 -6.62272e-19)
(0.872568 0.022871 0)
(0.86785 0.0163116 0)
(0.864732 0.00987343 1.25886e-20)
(0.863162 0.00349293 0)
(0.863045 -0.00270983 -4.10198e-20)
(0.864328 -0.00879173 0)
(0.866922 -0.0148368 1.70632e-19)
(0.870693 -0.0208719 0)
(0.875521 -0.0269069 6.71978e-19)
(0.881293 -0.0329523 -3.3035e-19)
(0.887888 -0.0390135 -6.885e-19)
(0.895178 -0.0450913 -6.64842e-19)
(0.90303 -0.0511848 6.67566e-19)
(0.911311 -0.0572935 6.70748e-19)
(0.919881 -0.0634162 1.40259e-18)
(0.928595 -0.0695435 1.4117e-18)
(0.937308 -0.0756496 0)
(0.945881 -0.0816842 -7.44255e-19)
(0.954208 -0.0875826 0)
(0.962222 -0.093283 0)
(0.969905 -0.0987445 -1.47928e-18)
(0.977283 -0.103974 -7.22405e-19)
(0.984407 -0.109053 4.81432e-20)
(0.991318 -0.114146 0)
(0.997994 -0.119486 0)
(1.00431 -0.125322 0)
(1.01003 -0.131854 1.49155e-18)
(1.01481 -0.139156 -1.39831e-18)
(1.01823 -0.147123 -1.38851e-18)
(1.01997 -0.155459 0)
(1.01981 -0.163725 -1.42842e-18)
(1.01775 -0.171422 9.46823e-20)
(1.014 -0.178085 -1.57691e-18)
(1.00894 -0.183354 1.75794e-18)
(1.00305 -0.187001 -4.72961e-20)
(0.996859 -0.188914 -1.97951e-18)
(0.990907 -0.189078 -2.143e-18)
(0.985728 -0.187556 0)
(0.981814 -0.184489 0)
(0.979602 -0.18008 0)
(0.979459 -0.174593 0)
(0.981679 -0.168332 -2.83566e-18)
(0.986489 -0.161642 -2.87092e-18)
(0.99408 -0.154887 0)
(1.00453 -0.148445 -2.72149e-18)
(1.01808 -0.142681 4.9057e-18)
(1.03414 -0.137952 0)
(1.05455 -0.1345 0)
(1.07181 -0.132645 0)
(1.10765 -0.132409 9.1309e-19)
(0.975035 0.218502 8.33995e-18)
(0.977127 0.207476 0)
(0.979623 0.200809 1.42746e-17)
(0.980942 0.19772 0)
(0.980747 0.195178 6.2134e-18)
(0.979838 0.19182 0)
(0.978655 0.187904 5.47261e-18)
(0.977181 0.183662 0)
(0.975604 0.178993 -5.03632e-18)
(0.974439 0.173897 0)
(0.97427 0.168549 8.88037e-18)
(0.975577 0.163112 -4.11084e-18)
(0.978659 0.157621 0)
(0.983537 0.151978 7.30709e-18)
(0.989866 0.146033 -1.87028e-19)
(0.996991 0.139703 -6.68147e-18)
(1.00405 0.133126 6.47563e-18)
(1.01036 0.126391 0)
(1.01555 0.119355 0)
(1.01936 0.111923 6.08592e-18)
(1.02167 0.104163 0)
(1.02251 0.0962147 -2.9607e-18)
(1.02211 0.0881955 0)
(1.02073 0.0801808 2.80421e-18)
(1.01865 0.0722148 0)
(1.01612 0.0643259 2.8962e-18)
(1.01338 0.056531 0)
(1.01062 0.0488297 0)
(1.00799 0.0412123 1.44722e-18)
(1.0056 0.0336794 6.95617e-19)
(1.00356 0.0262379 0)
(1.00192 0.0188896 0)
(1.00072 0.0116335 -1.08724e-18)
(0.999983 0.00446714 0)
(0.999665 -0.00251826 0)
(0.999736 -0.00937846 0)
(1.00018 -0.0161749 -1.77908e-19)
(1.00094 -0.0229157 0)
(1.00198 -0.0295898 -1.10475e-18)
(1.00323 -0.036191 -7.50119e-19)
(1.00464 -0.0427155 7.24302e-19)
(1.00615 -0.0491586 0)
(1.00771 -0.0555148 0)
(1.00925 -0.0617797 1.5438e-18)
(1.01073 -0.067948 -1.49871e-18)
(1.01208 -0.0740098 -1.51533e-18)
(1.01324 -0.0799456 0)
(1.0142 -0.0857235 -5.80201e-20)
(1.01492 -0.0913057 1.63421e-18)
(1.01543 -0.0966625 0)
(1.01577 -0.101787 1.62574e-18)
(1.01603 -0.106713 1.70072e-18)
(1.01628 -0.111525 -1.66655e-18)
(1.01659 -0.116363 0)
(1.01696 -0.121407 0)
(1.01731 -0.126841 0)
(1.01748 -0.132806 -1.67895e-18)
(1.01725 -0.139345 0)
(1.01637 -0.146374 0)
(1.01462 -0.153672 0)
(1.01192 -0.160913 3.66103e-18)
(1.00829 -0.167726 -1.80407e-18)
(1.00393 -0.173761 0)
(0.999139 -0.178732 -2.00499e-18)
(0.994266 -0.182438 -2.22693e-18)
(0.989693 -0.184757 4.62094e-18)
(0.985785 -0.185641 -4.89551e-18)
(0.982879 -0.185102 -5.17606e-18)
(0.981274 -0.18322 0)
(0.98123 -0.180138 -5.6967e-18)
(0.982967 -0.17606 0)
(0.986673 -0.171247 0)
(0.992514 -0.166003 0)
(1.00066 -0.160667 5.98608e-18)
(1.01122 -0.155591 -5.7327e-18)
(1.02448 -0.151109 -7.99368e-18)
(1.03994 -0.147525 0)
(1.05948 -0.145006 3.60545e-18)
(1.076 -0.143761 0)
(1.11028 -0.143599 -1.50321e-18)
(0.975434 0.21769 -9.46006e-18)
(0.979143 0.20609 -9.20859e-18)
(0.983423 0.200245 -1.64406e-17)
(0.98558 0.197996 0)
(0.985486 0.195678 -1.41277e-17)
(0.984786 0.192413 -6.73031e-18)
(0.9842 0.188726 0)
(0.983452 0.184719 1.19951e-17)
(0.982353 0.180193 1.11974e-17)
(0.981033 0.175095 0)
(0.979702 0.169516 -1.00431e-17)
(0.978603 0.163553 0)
(0.97805 0.15727 0)
(0.978376 0.150691 8.70828e-18)
(0.979804 0.14382 8.07115e-18)
(0.982396 0.13669 -1.82316e-19)
(0.986006 0.129512 1.84342e-19)
(0.990363 0.122441 0)
(0.995174 0.115376 0)
(1.0001 0.108199 -6.97358e-18)
(1.0048 0.100887 -7.0644e-18)
(1.00904 0.093478 1.03537e-17)
(1.01274 0.0860167 3.45092e-18)
(1.01588 0.0785339 3.42268e-18)
(1.01848 0.071047 0)
(1.02058 0.0635662 -3.27159e-18)
(1.02224 0.0560966 0)
(1.02352 0.0486394 0)
(1.02447 0.0411954 -3.30555e-18)
(1.02513 0.0337719 0)
(1.02554 0.0263811 0)
(1.02573 0.019036 0)
(1.02573 0.0117509 8.20131e-19)
(1.02557 0.0045553 -4.27613e-19)
(1.02531 -0.00253172 2.13648e-19)
(1.02493 -0.00951368 0)
(1.02446 -0.0164051 0)
(1.02392 -0.0232063 0)
(1.02329 -0.0299082 8.3355e-19)
(1.02257 -0.0365042 8.38507e-19)
(1.02176 -0.0429907 -1.74977e-18)
(1.02085 -0.0493639 0)
(1.01983 -0.05562 0)
(1.01872 -0.0617559 -3.53203e-18)
(1.01751 -0.0677685 -1.81505e-18)
(1.0162 -0.0736518 0)
(1.0148 -0.0793945 0)
(1.01333 -0.0849794 1.82538e-18)
(1.0118 -0.0903881 5.64342e-20)
(1.01028 -0.0956108 0)
(1.00883 -0.100657 0)
(1.00753 -0.105567 -1.93449e-18)
(1.00645 -0.110417 0)
(1.00564 -0.11532 0)
(1.0051 -0.120417 0)
(1.00477 -0.125843 0)
(1.00452 -0.1317 0)
(1.0042 -0.138017 -4.16135e-18)
(1.0036 -0.144729 0)
(1.00259 -0.151667 0)
(1.00107 -0.158579 1.6679e-19)
(0.999072 -0.165173 0)
(0.996707 -0.171154 0)
(0.994169 -0.176265 0)
(0.991692 -0.180305 9.99077e-18)
(0.98952 -0.183133 -5.23491e-18)
(0.987888 -0.184671 5.53821e-18)
(0.987009 -0.184899 1.43964e-20)
(0.987077 -0.183863 0)
(0.988272 -0.181676 6.42652e-18)
(0.990765 -0.178519 -6.54445e-18)
(0.994734 -0.174635 0)
(1.00036 -0.170323 0)
(1.00788 -0.165919 -1.45863e-19)
(1.01746 -0.161767 6.48129e-18)
(1.0295 -0.158193 5.97315e-18)
(1.04361 -0.155452 0)
(1.06171 -0.153668 -4.09262e-18)
(1.07709 -0.152868 0)
(1.10954 -0.152788 1.133e-18)
(0.975986 0.216474 0)
(0.981692 0.204215 2.1213e-17)
(0.987769 0.199647 1.88201e-17)
(0.990441 0.198411 0)
(0.990122 0.196236 8.02879e-18)
(0.989271 0.192974 -7.76946e-18)
(0.988772 0.189389 0)
(0.988281 0.185463 -1.35634e-17)
(0.987611 0.180999 0)
(0.986852 0.175995 0)
(0.98604 0.170512 0)
(0.985145 0.164577 0)
(0.984206 0.1582 0)
(0.983343 0.151386 1.82805e-19)
(0.982702 0.144142 -9.52764e-18)
(0.982426 0.13652 -1.82175e-19)
(0.98266 0.128777 1.83588e-19)
(0.9835 0.121146 0)
(0.984946 0.113609 0)
(0.986875 0.106092 0)
(0.989104 0.0985721 -2.02555e-19)
(0.991464 0.0910729 2.06479e-19)
(0.993842 0.0836194 -3.95177e-18)
(0.996166 0.0762217 -3.92062e-18)
(0.99838 0.068877 0)
(1.00044 0.0615765 -3.98515e-18)
(1.00231 0.054311 3.97267e-18)
(1.00396 0.0470728 0)
(1.00537 0.0398564 1.92506e-18)
(1.00654 0.0326628 1.9832e-18)
(1.00744 0.0254996 0)
(1.00808 0.01838 0)
(1.00846 0.0113165 1.00208e-18)
(1.00861 0.00434631 -1.48581e-20)
(1.00858 -0.00256553 -4.94669e-19)
(1.00838 -0.00939006 0)
(1.00803 -0.0161192 0)
(1.00756 -0.0227575 -1.01092e-18)
(1.00698 -0.0293041 0)
(1.00629 -0.0357548 -1.02105e-18)
(1.00552 -0.0421064 -5.89859e-20)
(1.00466 -0.0483563 0)
(1.00375 -0.0545018 2.08865e-18)
(1.0028 -0.060541 4.15798e-18)
(1.00181 -0.0664715 2.07156e-18)
(1.00082 -0.0722892 0)
(0.99984 -0.0779868 -4.35575e-18)
(0.998887 -0.0835537 0)
(0.997998 -0.0889804 -2.17716e-18)
(0.997214 -0.0942646 0)
(0.996589 -0.0994205 0)
(0.996178 -0.104485 0)
(0.996029 -0.109524 0)
(0.996168 -0.114631 0)
(0.996585 -0.119914 -4.77269e-18)
(0.997226 -0.125481 4.80546e-18)
(0.997985 -0.131409 0)
(0.998727 -0.137719 4.72227e-18)
(0.999303 -0.144356 -4.91514e-18)
(0.999583 -0.151181 0)
(0.999488 -0.157987 -4.91358e-18)
(0.999007 -0.16452 0)
(0.998196 -0.170518 0)
(0.997165 -0.175739 0)
(0.996053 -0.17998 -5.68626e-18)
(0.99501 -0.183088 6.02708e-18)
(0.994184 -0.184967 -6.29534e-18)
(0.993719 -0.18558 1.31461e-17)
(0.993764 -0.184956 -6.84197e-18)
(0.994487 -0.1832 0)
(0.996077 -0.180491 7.39002e-18)
(0.998763 -0.177081 -7.44154e-18)
(1.00281 -0.17328 0)
(1.00854 -0.169433 -1.17067e-19)
(1.01622 -0.165892 -7.10156e-18)
(1.02635 -0.162981 0)
(1.03867 -0.160904 0)
(1.05516 -0.159788 -4.56741e-18)
(1.06934 -0.159343 0)
(1.1004 -0.159531 -1.28527e-18)
(0.976761 0.214804 0)
(0.984936 0.20201 -1.22214e-17)
(0.992771 0.199204 -1.07027e-17)
(0.995649 0.198991 0)
(0.994983 0.196871 1.84246e-17)
(0.993957 0.193635 1.73987e-17)
(0.993389 0.19014 0)
(0.992829 0.186205 1.56636e-17)
(0.992161 0.181685 -1.48743e-17)
(0.99156 0.176662 0)
(0.991075 0.171202 0)
(0.990636 0.165313 0)
(0.990183 0.158988 0)
(0.989696 0.15221 -1.13211e-17)
(0.989165 0.144966 -1.11254e-17)
(0.988598 0.137281 1.02262e-17)
(0.988069 0.12939 -3.02716e-17)
(0.9877 0.121541 0)
(0.987573 0.113754 0)
(0.987691 0.10599 9.70075e-18)
(0.988004 0.0982517 1.89725e-17)
(0.98846 0.0905689 -9.28945e-18)
(0.989026 0.0829711 0)
(0.989682 0.0754692 0)
(0.990407 0.0680594 -4.65842e-18)
(0.991173 0.0607312 9.17745e-18)
(0.99195 0.0534734 -9.15481e-18)
(0.992708 0.0462753 0)
(0.993421 0.0391277 0)
(0.994064 0.0320268 -2.26009e-18)
(0.994615 0.0249758 0)
(0.995062 0.0179812 2.33034e-18)
(0.995396 0.0110559 -1.14194e-18)
(0.995639 0.00419645 -1.44963e-20)
(0.995798 -0.0026084 -7.27192e-21)
(0.995874 -0.00933374 0)
(0.99588 -0.0159713 0)
(0.995831 -0.022527 -2.90304e-20)
(0.995734 -0.0290022 1.18307e-18)
(0.995594 -0.0353935 3.53876e-18)
(0.995421 -0.0416974 4.72852e-18)
(0.995228 -0.0479121 2.41019e-18)
(0.995027 -0.0540356 -2.37159e-18)
(0.99483 -0.0600664 -2.39295e-18)
(0.994648 -0.0660022 2.47365e-18)
(0.994494 -0.0718396 0)
(0.994381 -0.0775729 4.93829e-18)
(0.994325 -0.0831949 -5.1088e-18)
(0.994351 -0.0886999 0)
(0.994488 -0.0940892 0)
(0.994772 -0.0993775 0)
(0.995238 -0.104599 0)
(0.995914 -0.10981 0)
(0.996812 -0.115089 0)
(0.997913 -0.120525 5.38938e-18)
(0.999162 -0.126204 -1.09757e-17)
(1.00047 -0.132187 -5.59261e-18)
(1.00171 -0.138487 5.63767e-18)
(1.00275 -0.145053 5.54219e-18)
(1.00347 -0.151762 -5.7689e-18)
(1.00377 -0.158429 5.86993e-18)
(1.00361 -0.164825 0)
(1.00297 -0.170703 6.169e-18)
(1.0019 -0.175828 -6.36997e-18)
(1.00046 -0.179996 0)
(0.998724 -0.183046 -1.36602e-17)
(0.99681 -0.184875 7.10687e-18)
(0.994845 -0.185445 -1.48609e-17)
(0.993002 -0.184793 7.74652e-18)
(0.991507 -0.183038 0)
(0.99064 -0.180381 8.22667e-18)
(0.990742 -0.177098 8.47924e-18)
(0.992194 -0.17352 -8.45285e-18)
(0.995427 -0.170011 -8.45422e-18)
(1.00081 -0.166921 8.14365e-18)
(1.00894 -0.164581 0)
(1.01959 -0.163131 0)
(1.03488 -0.16275 5.25727e-18)
(1.04826 -0.162673 0)
(1.07923 -0.163494 1.48305e-18)
(0.977833 0.212617 1.62058e-17)
(0.988995 0.19965 0)
(0.998472 0.199058 -2.4094e-17)
(1.00125 0.199733 2.18283e-17)
(1.00018 0.19759 -2.08159e-17)
(0.99903 0.194434 1.99652e-17)
(0.998399 0.191033 0)
(0.997724 0.187058 1.60212e-19)
(0.996946 0.182455 1.67931e-17)
(0.996278 0.177367 0)
(0.995792 0.171857 0)
(0.995442 0.165931 0)
(0.995188 0.159586 2.77065e-17)
(0.995003 0.152813 0)
(0.994848 0.145595 2.46898e-17)
(0.994672 0.13794 0)
(0.994465 0.130056 4.61794e-17)
(0.994268 0.122182 0)
(0.994123 0.114345 0)
(0.994033 0.10652 -2.20806e-17)
(0.993976 0.0987122 -1.08142e-17)
(0.993935 0.0909546 0)
(0.993917 0.0832775 0)
(0.993934 0.0756953 0)
(0.994 0.068209 5.26002e-18)
(0.994116 0.0608127 -5.24294e-18)
(0.994279 0.0534984 -1.07971e-19)
(0.99448 0.0462574 0)
(0.994708 0.0390808 5.33893e-18)
(0.994951 0.0319645 0)
(0.995196 0.0249097 0)
(0.995435 0.0179194 -2.63403e-18)
(0.995662 0.0110002 1.34989e-18)