/*--------------------------------*- C++ -*----------------------------------*\
| =========                 |                                                 |
| \\      /  F ield         | OpenFOAM: The Open Source CFD Toolbox           |
|  \\    /   O peration     | Version:  v1912                                 |
|   \\  /    A nd           | Website:  www.openfoam.com                      |
|    \\/     M anipulation  |                                                 |
\*---------------------------------------------------------------------------*/
FoamFile
{
    version     2.0;
    format      ascii;
    class       volScalarField;
    location    "2000/air";
    object      alphat;
}
// * * * * * * * * * * * * * * * * * * * * * * * * * * * * * * * * * * * * * //

dimensions      [1 -1 -1 0 0 0 0];


internalField   nonuniform List<scalar> 
243000
(
0.000170155
0.000172881
0.000169302
0.000163937
0.00015741
0.000150318
0.000142995
0.000135695
0.000128596
0.000121859
0.000115586
0.000109846
0.000104611
9.99125e-05
9.57354e-05
9.21457e-05
8.91833e-05
8.69931e-05
8.56837e-05
8.50842e-05
8.48376e-05
8.44805e-05
8.35615e-05
8.17465e-05
7.89405e-05
7.49222e-05
6.95754e-05
6.40731e-05
7.83542e-05
9.06688e-05
0.000741859
0.000784653
0.000793503
0.000791417
0.000782469
0.000768857
0.000752019
0.000732982
0.000712409
0.000690916
0.000668897
0.000646706
0.000624362
0.000602396
0.00058115
0.000561148
0.000542669
0.000526846
0.00051398
0.000503736
0.000494489
0.000484048
0.000470128
0.000451208
0.00042682
0.000396211
0.000356131
0.000316441
0.000327592
0.000377013
0.000800475
0.00084376
0.000855525
0.000854468
0.000845644
0.000831647
0.000814094
0.000794087
0.000772363
0.000749632
0.000726316
0.000702822
0.000679251
0.000656255
0.000634249
0.000613801
0.00059515
0.000579388
0.00056655
0.000556151
0.000546582
0.000535778
0.00052148
0.000502001
0.000476619
0.000444633
0.000403532
0.000360835
0.000341402
0.000385485
0.000827042
0.000871848
0.00088703
0.000889027
0.000882483
0.000870217
0.000853894
0.000834677
0.000813373
0.000790756
0.000767337
0.000743649
0.000719879
0.00069677
0.000674827
0.000654674
0.000636517
0.000621354
0.000608901
0.000598464
0.000588455
0.000577045
0.000562201
0.000542265
0.000516375
0.000483877
0.000442905
0.000399789
0.000371458
0.000386652
0.000832038
0.000876926
0.000898318
0.000904875
0.000901874
0.000892507
0.000878476
0.000861041
0.00084107
0.000819426
0.000796702
0.000773545
0.000750251
0.000727661
0.000706325
0.000686939
0.000669663
0.000655358
0.000643444
0.000633025
0.000622563
0.000610496
0.000595073
0.000574793
0.000548742
0.000516296
0.000476072
0.00043326
0.000399377
0.000391584
0.000822346
0.000868135
0.000895049
0.000907187
0.000908733
0.000902975
0.000891902
0.000876865
0.000858825
0.000838749
0.000817267
0.00079515
0.000772798
0.000751168
0.000730776
0.000712468
0.0006963
0.000682977
0.000671653
0.000661287
0.000650427
0.000637742
0.000621783
0.00060125
0.000575243
0.000543142
0.000503899
0.00046159
0.000424739
0.000401213
0.00080062
0.000849708
0.000882119
0.000899678
0.000906169
0.000904651
0.000896816
0.000884484
0.000868848
0.000850776
0.000830943
0.000810238
0.000789158
0.000768785
0.000749579
0.000732538
0.000717616
0.000705309
0.000694585
0.000684308
0.000673129
0.000659915
0.000643498
0.000622791
0.00059695
0.000565329
0.000527085
0.000485477
0.000447185
0.000416332
0.000768796
0.000823124
0.000861191
0.000884445
0.000896182
0.000899165
0.000895244
0.000886065
0.000872773
0.000856928
0.000839071
0.000820071
0.000800519
0.000781572
0.000763737
0.000748076
0.000734468
0.000723172
0.000713036
0.000702891
0.000691482
0.000677857
0.000661076
0.000640268
0.000614664
0.000583581
0.000546355
0.000505804
0.000466998
0.000432214
0.000729947
0.000790078
0.000834051
0.000863099
0.000880269
0.000887908
0.000888093
0.000882399
0.000872258
0.000858721
0.000842727
0.000825611
0.000807749
0.000790366
0.00077401
0.000759786
0.000747506
0.000737191
0.000727632
0.00071766
0.000706119
0.000692205
0.000675175
0.000654338
0.000629016
0.00059856
0.000562116
0.000522742
0.000483811
0.000447453
0.000691761
0.000754992
0.000803261
0.000837279
0.000859708
0.000872085
0.000876493
0.000874532
0.00086754
0.000856709
0.000843122
0.000827684
0.000811561
0.00079582
0.000780999
0.000768222
0.000757241
0.000747867
0.000738868
0.00072911
0.000717532
0.000703457
0.000686297
0.000665514
0.000640564
0.00061057
0.000574735
0.000536808
0.000498142
0.00046095
0.000656462
0.000719106
0.000771493
0.000809901
0.000836146
0.000852813
0.000861369
0.000863206
0.000859521
0.000851507
0.000840262
0.000827013
0.000812624
0.000798467
0.00078519
0.00077383
0.000764086
0.00075561
0.000747153
0.000737647
0.000726129
0.000712016
0.000694853
0.000674241
0.000649609
0.000619986
0.000584906
0.000548484
0.000510329
0.000472453
0.000628717
0.000683161
0.000738215
0.000781236
0.000811817
0.000831936
0.000843729
0.000849117
0.000848778
0.000843664
0.000834908
0.000823756
0.000811241
0.000798794
0.00078699
0.000776981
0.000768388
0.000760761
0.00075283
0.000743615
0.000732247
0.000718219
0.000701219
0.000680812
0.000656407
0.000627133
0.000593548
0.000558361
0.000520739
0.000482497
0.000615059
0.00065013
0.000703651
0.00075075
0.000786085
0.000810246
0.000825293
0.000833227
0.00083588
0.000833649
0.000827427
0.000818462
0.000807828
0.000797039
0.000786715
0.000777989
0.000770468
0.000763606
0.000756191
0.000747305
0.000736198
0.000722413
0.000705586
0.000685371
0.000661205
0.000632301
0.000600543
0.000566615
0.000529571
0.000491218
0.000621533
0.000626824
0.000669834
0.000718486
0.00075849
0.00078723
0.000806054
0.000816945
0.00082181
0.000822
0.00081821
0.000811444
0.000802703
0.000793546
0.000784651
0.000777126
0.000770538
0.000764411
0.000757522
0.00074904
0.000738217
0.000724646
0.000708037
0.000688086
0.000664203
0.000636265
0.000606142
0.000573417
0.000536971
0.000498738
0.000649224
0.000622738
0.00064254
0.000686013
0.000729042
0.000762508
0.000785622
0.000799929
0.000807386
0.000809562
0.000807725
0.000803017
0.000796145
0.000788574
0.000781044
0.000774637
0.000768927
0.000763444
0.000756992
0.000748801
0.000738267
0.000724993
0.000708677
0.000689054
0.000665594
0.000639258
0.000610559
0.000578928
0.000543059
0.000505155
0.00069199
0.000646264
0.000632418
0.000658294
0.000699067
0.000736113
0.000763708
0.000781888
0.000792347
0.000796797
0.000796716
0.000793574
0.000788413
0.000782361
0.000776118
0.000770744
0.000765833
0.000760943
0.000754963
0.000747172
0.00073692
0.000723935
0.000707895
0.000688579
0.000666095
0.0006413
0.000613901
0.000583264
0.00054793
0.000510499
0.000743075
0.000692457
0.000650865
0.000645259
0.000672787
0.00070919
0.000740397
0.000762635
0.000776478
0.000783533
0.000785435
0.000783712
0.000779833
0.000775144
0.000770086
0.000765659
0.000761476
0.000757136
0.000751617
0.000744243
0.000734408
0.000721733
0.00070602
0.000687147
0.000665991
0.000642529
0.000616283
0.000586528
0.000551668
0.000514808
0.000793896
0.000747
0.000694971
0.000658447
0.000658619
0.00068525
0.000716703
0.000742306
0.000759673
0.000769624
0.000773741
0.000773676
0.000770911
0.000767206
0.000763169
0.000759591
0.000756075
0.000752246
0.000747174
0.000740235
0.000730845
0.000718596
0.000703307
0.0006855
0.000665461
0.000643093
0.000617828
0.000588828
0.000554354
0.000518042
0.000842215
0.000801075
0.000750578
0.000698097
0.000666943
0.000671114
0.000695446
0.000721762
0.000742085
0.000755014
0.000761554
0.000763328
0.000761889
0.000758942
0.00075563
0.000752758
0.00074984
0.000746492
0.000741865
0.000735372
0.000726461
0.000714735
0.000700345
0.000683611
0.000664569
0.000643082
0.000618648
0.000590269
0.000556086
0.000520571
0.000888759
0.000852143
0.000806601
0.000752066
0.000700449
0.000675161
0.000681914
0.000703171
0.000724419
0.000739861
0.000748855
0.000752598
0.000752664
0.000750676
0.000747892
0.000745442
0.000743001
0.000740096
0.000735913
0.000729884
0.000721498
0.000710645
0.000697286
0.000681534
0.000663388
0.000642674
0.000618873
0.000590969
0.000556965
0.00052249
0.000933311
0.000899431
0.000858771
0.000808072
0.000749968
0.000701353
0.000682298
0.000690334
0.000708259
0.000724715
0.000735794
0.000741511
0.000743168
0.000742317
0.000740239
0.00073808
0.000735868
0.000733314
0.00072956
0.000724083
0.000716519
0.000706597
0.000694194
0.000679352
0.000662022
0.000641987
0.000618673
0.000591049
0.000557085
0.000524051
0.000975707
0.000944586
0.000907336
0.000860941
0.000804041
0.000743981
0.000700846
0.000687895
0.000696308
0.000710737
0.000722804
0.000730206
0.000733435
0.000733834
0.000732621
0.000730929
0.000729034
0.000726746
0.000723427
0.000718547
0.000711736
0.000702678
0.000691186
0.000677208
0.000660634
0.000641191
0.000618252
0.000590741
0.000556719
0.000526466
0.00101596
0.000986861
0.000952079
0.0009092
0.000855826
0.000793401
0.000734747
0.000699357
0.000691826
0.000699806
0.000710753
0.000719062
0.000723647
0.000725293
0.00072507
0.000724007
0.000722534
0.000720583
0.000717694
0.000713383
0.000707282
0.000699044
0.00068844
0.000675305
0.000659465
0.000640559
0.000617874
0.0005903
0.00055616
0.000532012
0.00105424
0.00102621
0.000993093
0.000952834
0.000903005
0.000842445
0.00077717
0.000724103
0.000697666
0.000694306
0.000701095
0.00070887
0.000714267
0.00071702
0.000717832
0.00071754
0.000716606
0.000715077
0.000712641
0.000708892
0.000703458
0.000696007
0.000686263
0.000673951
0.000658801
0.00064038
0.000617871
0.000590051
0.00055573
0.000540457
0.00108857
0.00106171
0.00103017
0.000992135
0.000945464
0.000888229
0.000822255
0.000758799
0.000714976
0.000697015
0.000696092
0.000701272
0.000706521
0.000710051
0.000711877
0.00071249
0.000712236
0.000711233
0.000709286
0.000706061
0.00070122
0.000694432
0.000685365
0.000673739
0.000659242
0.00064133
0.000618964
0.000590681
0.00055596
0.000551975
0.0011207
0.00109492
0.00106481
0.00102884
0.000985123
0.000931662
0.000868213
0.000800993
0.000744722
0.000711745
0.00070022
0.000700269
0.000704105
0.000707986
0.000710857
0.000712569
0.000713197
0.000712831
0.000711344
0.000708489
0.000704005
0.000697625
0.000689054
0.00067794
0.000663866
0.00064612
0.000623452
0.000594022
0.000558551
0.000567492
0.00115397
0.00112968
0.00110137
0.00106775
0.0010273
0.000978319
0.000919737
0.000854407
0.000792638
0.000747933
0.000725185
0.000718443
0.000719675
0.000723694
0.000727945
0.000731156
0.000732862
0.000733074
0.000731667
0.00072853
0.000723568
0.000716677
0.000707673
0.000696191
0.00068168
0.000663259
0.000639284
0.000607383
0.000569166
0.000591537
0.00119687
0.00117499
0.00114956
0.00111982
0.00108486
0.00104348
0.00099447
0.000938598
0.000881752
0.000835
0.000806587
0.00079527
0.000794807
0.000799761
0.000806001
0.000810836
0.00081311
0.000812854
0.000809956
0.000804575
0.00079695
0.000787305
0.000775696
0.000761721
0.00074448
0.000723077
0.000695526
0.000658269
0.0006133
0.000643654
0.0012811
0.00126435
0.00124644
0.00122725
0.00120614
0.00118221
0.00115399
0.00112112
0.00108537
0.00105389
0.00103392
0.00102626
0.00102746
0.00103414
0.00104133
0.00104603
0.00104678
0.00104411
0.00103818
0.0010293
0.00101807
0.00100499
0.000990439
0.000973815
0.00095266
0.000927841
0.000897481
0.000857388
0.000808084
0.000824369
0.00155858
0.00155411
0.00155554
0.00155682
0.00155672
0.00155461
0.0015496
0.00154168
0.00152841
0.00151526
0.00150588
0.00150059
0.001499
0.00150175
0.00150476
0.00150675
0.00150585
0.00150466
0.00150282
0.00150095
0.00149891
0.00149718
0.00149567
0.00149358
0.00148307
0.00147217
0.00145803
0.00143765
0.00141019
0.00140361
0.000206398
0.00021338
0.000210438
0.000204386
0.000196571
0.000187825
0.000178712
0.000169638
0.000160838
0.000152487
0.000144659
0.000137448
0.000130858
0.000125018
0.000119943
0.00011578
0.000112581
0.000110597
0.000109902
0.000110148
0.000110444
0.000109793
0.000107356
0.000102498
9.4917e-05
8.42593e-05
7.19198e-05
6.9297e-05
8.34199e-05
9.33389e-05
0.00080044
0.000902931
0.000874291
0.000813845
0.000746309
0.000682598
0.000626063
0.000576551
0.000533049
0.000495212
0.000462028
0.000433247
0.000407495
0.00038525
0.000365579
0.00034864
0.000332774
0.000319955
0.000310158
0.000304656
0.000303127
0.000303329
0.000300131
0.000289281
0.000269723
0.000241472
0.000199793
0.000198402
0.000317967
0.000373411
0.00127196
0.00147103
0.00148213
0.00142065
0.0013328
0.00123984
0.00115177
0.00107136
0.000998746
0.000934324
0.000876932
0.000826569
0.000781097
0.00074158
0.000706828
0.000676206
0.000646071
0.000619267
0.000594405
0.000574186
0.000560456
0.000551103
0.000538939
0.000517144
0.000480704
0.000429463
0.000356645
0.000308052
0.000371344
0.00044789
0.0015799
0.00184722
0.00189786
0.0018618
0.0017828
0.00168704
0.00158893
0.00149482
0.00140686
0.00132676
0.00125397
0.00118922
0.0011306
0.00107932
0.00103474
0.000995291
0.000955777
0.000918423
0.000880344
0.000844957
0.000816233
0.000793736
0.000769488
0.000734322
0.000682637
0.000613066
0.00051979
0.000432146
0.0004244
0.000471258
0.00173789
0.00202063
0.00213761
0.00215176
0.00209948
0.00201734
0.0019236
0.00182901
0.00173663
0.00165042
0.00157043
0.00149845
0.00143285
0.0013755
0.0013264
0.00128318
0.00123846
0.00119418
0.00114579
0.00109753
0.00105482
0.00101885
0.000981786
0.000934587
0.000870789
0.000788089
0.000681715
0.000568897
0.000510192
0.000504064
0.00182535
0.00211062
0.002269
0.00232229
0.00230628
0.00224715
0.00216604
0.00208119
0.00199201
0.0019077
0.0018272
0.00175389
0.00168687
0.00162845
0.00157906
0.00153564
0.00148932
0.00144083
0.00138475
0.00132614
0.00127151
0.00122323
0.00117464
0.00111738
0.00104436
0.000952464
0.000838217
0.000711201
0.000619835
0.000573894
0.00185785
0.00213803
0.00231622
0.00240373
0.00242305
0.00239596
0.00233972
0.00226282
0.00218029
0.00210581
0.00202991
0.00196017
0.00189636
0.00184119
0.00179451
0.00175426
0.00170868
0.00165786
0.00159635
0.00152972
0.0014655
0.00140622
0.0013482
0.0012831
0.00120349
0.00110565
0.000986604
0.000852616
0.000740182
0.000664031
0.00184146
0.00209647
0.00229091
0.00241115
0.00246687
0.00247128
0.00244136
0.00238645
0.00232445
0.00225473
0.00218436
0.00212287
0.00206562
0.0020169
0.00197564
0.00194072
0.00189792
0.00184632
0.00178133
0.00170883
0.00163715
0.00157043
0.00150443
0.00143278
0.00134864
0.00124735
0.00112631
0.000988715
0.000861552
0.000757382
0.00174237
0.00198708
0.00220105
0.0023551
0.00244885
0.00248628
0.00248571
0.00245839
0.00241521
0.00236082
0.00230502
0.00224819
0.00219917
0.00215893
0.00212542
0.00209746
0.00205884
0.00200806
0.00194128
0.00186584
0.00178959
0.00171683
0.00164526
0.00156865
0.00148103
0.001378
0.00125757
0.00111772
0.00097987
0.000849955
0.00158954
0.00181732
0.00205373
0.00224352
0.00237777
0.00245074
0.00248335
0.00248494
0.00246513
0.00242936
0.00238721
0.00234261
0.00230178
0.00227068
0.00224667
0.0022266
0.00219317
0.00214437
0.00207749
0.00200038
0.00192068
0.00184448
0.0017693
0.00169106
0.00160196
0.00149952
0.00137993
0.00123971
0.001093
0.000939025
0.00144075
0.00162183
0.00185568
0.00208059
0.00226086
0.00237168
0.00244104
0.00247315
0.00247862
0.00246379
0.00243776
0.00240686
0.00237677
0.0023568
0.00234212
0.0023301
0.00230294
0.00225703
0.00219152
0.00211449
0.00203378
0.00195488
0.00187846
0.00180059
0.00171295
0.00160933
0.00149303
0.00135045
0.00119617
0.00102273
0.00131902
0.00143306
0.00163897
0.00187636
0.00209177
0.00225264
0.00236408
0.00242827
0.00246002
0.00246767
0.00246002
0.0024446
0.00242765
0.00241815
0.00241388
0.00241008
0.00238972
0.00234756
0.00228467
0.00220952
0.00213031
0.0020519
0.001976
0.0018971
0.00180948
0.00170698
0.00159217
0.00144856
0.00128614
0.00109819
0.00123619
0.00127651
0.00143275
0.00165738
0.00189076
0.00209121
0.00224675
0.00235375
0.00241299
0.00244459
0.00245697
0.00245861
0.00245598
0.00245846
0.00246416
0.00246872
0.00245498
0.00241736
0.00235843
0.00228626
0.00220878
0.00213187
0.00205584
0.00197825
0.00189205
0.00179482
0.00167805
0.00153221
0.00136263
0.00116166
0.00122179
0.00117444
0.00126382
0.00144963
0.00167908
0.00190389
0.00209522
0.00224092
0.00233934
0.00239807
0.00243131
0.00245127
0.00246398
0.00247909
0.00249509
0.00250789
0.00250099
0.0024682
0.00241412
0.00234535
0.00226774
0.00219059
0.00211623
0.0020435
0.00196083
0.00186919
0.00175035
0.00160157
0.00142524
0.00121329
0.00126438
0.00115205
0.00116162
0.00128272
0.00148043
0.00170876
0.00192298
0.00209999
0.00223367
0.00232722
0.0023863
0.00242469
0.0024536
0.00248187
0.00250805
0.00252901
0.00252957
0.0025024
0.0024537
0.00239024
0.00231759
0.00224036
0.00216606
0.00209455
0.00202014
0.00192875
0.00180849
0.00165673
0.00147408
0.00125295
0.00137373
0.00120925
0.00113522
0.00118379
0.00132329
0.00152674
0.00174525
0.0019427
0.00210505
0.00223003
0.00231981
0.00238151
0.00242689
0.00246837
0.00250449
0.00253374
0.00254217
0.00252167
0.0024791
0.00242152
0.00235449
0.00228247
0.00220957
0.00213906
0.00206769
0.00197509
0.00185308
0.00169826
0.00150971
0.00128092
0.00155537
0.00135394
0.00121271
0.00116373
0.0012326
0.0013812
0.00157979
0.00178252
0.00196367
0.00211412
0.00223155
0.00232031
0.00238578
0.00244039
0.00248638
0.00252389
0.00254042
0.00252768
0.00249197
0.00244115
0.00238036
0.00231568
0.00224799
0.00217967
0.00210391
0.00200942
0.00188523
0.00172716
0.001533
0.00129772
0.00180476
0.0015809
0.00138977
0.00125949
0.00122429
0.00129986
0.0014488
0.00163534
0.00182132
0.00198831
0.00212801
0.00224068
0.00232938
0.00239976
0.00245579
0.00250143
0.0025263
0.00252229
0.00249428
0.00245133
0.00239827
0.00234241
0.00228196
0.0022126
0.00213185
0.00203373
0.0019066
0.00174492
0.00154524
0.00130433
0.00211159
0.00187597
0.00165236
0.00145844
0.00133051
0.00130133
0.00137668
0.00151999
0.00169177
0.00186277
0.00201674
0.00214819
0.00225706
0.00234682
0.00241517
0.00246858
0.00250211
0.00250778
0.00248859
0.00245538
0.00241224
0.00236461
0.00230881
0.00223855
0.00215355
0.00205015
0.00191923
0.00175336
0.00154796
0.00130182
0.00246045
0.00222014
0.00197659
0.00173897
0.00153569
0.00140753
0.00138165
0.00145631
0.00159081
0.00174908
0.00190638
0.00204924
0.00217337
0.00227914
0.00236307
0.00242758
0.00247035
0.00248664
0.00247797
0.00245467
0.00242075
0.00237909
0.0023272
0.0022565
0.00216877
0.00206053
0.00192529
0.00175455
0.00154266
0.00129036
0.00283049
0.00259005
0.00233493
0.00206922
0.00181268
0.00160199
0.00147801
0.00145817
0.00153258
0.00165966
0.00180627
0.0019506
0.00208282
0.00219938
0.00229539
0.002372
0.00242554
0.00245301
0.00245558
0.00244196
0.00241625
0.00238189
0.0023328
0.00226468
0.00217793
0.00206795
0.00192721
0.00175072
0.00153187
0.00127469
0.00319452
0.00295697
0.00269661
0.00241479
0.00212454
0.00185488
0.00164758
0.00153537
0.00152823
0.00160314
0.00172412
0.00185741
0.00198789
0.00210706
0.00220809
0.00229085
0.00235128
0.0023882
0.0024021
0.00240018
0.00238536
0.00235985
0.00232041
0.0022603
0.00217545
0.0020638
0.00192145
0.00174154
0.00151735
0.00125575
0.00351788
0.00328607
0.00302681
0.00273945
0.00243233
0.00212696
0.0018597
0.0016686
0.0015787
0.00158528
0.0016577
0.0017674
0.00188285
0.00199197
0.00208567
0.00216389
0.00222319
0.00226439
0.00228838
0.00230064
0.00230215
0.00229383
0.00227187
0.00222941
0.00215849
0.0020519
0.00190453
0.00172337
0.00149607
0.00123318
0.00375701
0.00353562
0.00328542
0.00300378
0.00269546
0.00237542
0.00207251
0.00182273
0.00165891
0.00159252
0.00160373
0.0016645
0.00174558
0.00182601
0.00189635
0.00195601
0.0020039
0.0020436
0.0020751
0.00210246
0.00212456
0.00214025
0.00214525
0.00213187
0.00209026
0.00200873
0.00187558
0.00169187
0.00146534
0.00120466
0.00386179
0.00365927
0.00342903
0.00316616
0.0028721
0.00255616
0.00223954
0.00195291
0.00173114
0.00159445
0.00153595
0.00153209
0.00155955
0.00159703
0.00163586
0.00167257
0.00170631
0.0017396
0.00177374
0.00181004
0.00184729
0.00188414
0.00191645
0.00193648
0.00193351
0.00189403
0.00179902
0.00163967
0.00142084
0.001176
0.00379335
0.00362352
0.00342734
0.00319797
0.00293394
0.00264049
0.00233349
0.00203898
0.00178964
0.00160822
0.00149653
0.00144017
0.00142517
0.00143515
0.00145965
0.00148832
0.00151509
0.001541
0.00156845
0.00159606
0.00162519
0.00165633
0.00168795
0.00171499
0.00172892
0.00171735
0.00166166
0.00153972
0.00135677
0.00115196
0.00357023
0.00345115
0.00330721
0.00313013
0.00291694
0.00267197
0.00240979
0.00215415
0.00193108
0.00176036
0.00164372
0.00157732
0.00155641
0.00156597
0.00159426
0.00162564
0.00165033
0.00167058
0.00168638
0.00169655
0.00170279
0.00170669
0.00170892
0.00170659
0.00169396
0.00166127
0.00159256
0.00146941
0.00128886
0.00112323
0.00335583
0.00330055
0.00321911
0.00310591
0.00295924
0.00278495
0.0025976
0.00241425
0.00225088
0.00212073
0.00202685
0.00197579
0.00196055
0.00197163
0.00199812
0.00202675
0.00204808
0.00206598
0.00207706
0.00208157
0.00208003
0.00207282
0.00206096
0.00204003
0.00200417
0.00194372
0.00184197
0.0016771
0.00144821
0.00130306
0.00325432
0.00323432
0.00321089
0.0031643
0.0030881
0.00298994
0.00287473
0.00275585
0.00264346
0.00254741
0.00247496
0.00243087
0.00241098
0.00241103
0.00242197
0.00243792
0.00245207
0.00246662
0.00247913
0.00249033
0.00250013
0.00250641
0.00251167
0.00250834
0.00249161
0.0024536
0.00237901
0.00224924
0.00206434
0.00197989
0.00323768
0.00323821
0.00323965
0.00322275
0.00318337
0.00313116
0.00306807
0.00299644
0.00292358
0.00285882
0.00280661
0.00276712
0.00274116
0.00272917
0.0027251
0.00273046
0.00273905
0.0027524
0.00276973
0.00279153
0.00281696
0.00284572
0.00287077
0.00289389
0.00291144
0.00291895
0.0029068
0.00287141
0.00282239
0.00279876
0.000237562
0.000244631
0.000239525
0.000232167
0.000223185
0.000213253
0.000202947
0.000192698
0.000182763
0.000173337
0.000164483
0.000156315
0.000148812
0.000142152
0.000136361
0.00013168
0.000128248
0.000126811
0.00012783
0.000130391
0.00013251
0.000132602
0.000129687
0.000123104
0.000112361
9.66778e-05
7.66537e-05
7.28571e-05
8.55792e-05
9.38437e-05
0.0010296
0.00118022
0.00118446
0.0011196
0.00103517
0.000952091
0.00087653
0.00081024
0.000751737
0.000700344
0.000654209
0.000613118
0.000574558
0.000539962
0.000507286
0.000477227
0.000447337
0.000426052
0.000415714
0.000417632
0.000427628
0.000437914
0.000437147
0.000416982
0.000377307
0.000324939
0.000253692
0.000202279
0.00029285
0.00036272
0.00165301
0.00194258
0.00201345
0.00196723
0.00187053
0.00175807
0.00164538
0.00154001
0.00144297
0.00135499
0.00127416
0.00120078
0.00113125
0.00106817
0.00100939
0.000953813
0.000896169
0.000849422
0.000814866
0.000797885
0.000797033
0.000801632
0.000789412
0.000751526
0.000682517
0.000586606
0.000463911
0.000345886
0.000374719
0.000472901
0.00211628
0.00246134
0.00258161
0.00257248
0.00249175
0.00238144
0.00226002
0.00213923
0.00202319
0.00191476
0.00181307
0.00171943
0.00163058
0.00154938
0.00147461
0.00140347
0.00132777
0.00126023
0.00120239
0.00116346
0.00114457
0.00113465
0.00111152
0.00105791
0.000965913
0.000839559
0.000681532
0.000514283
0.000463369
0.000518245
0.00242661
0.0027841
0.00295005
0.00298432
0.00293068
0.00283799
0.00272372
0.00260307
0.00248169
0.00236533
0.00225409
0.00215068
0.00205192
0.0019618
0.00187992
0.00180116
0.00171407
0.0016296
0.0015512
0.00149173
0.00145449
0.00142984
0.00139444
0.00132914
0.00122323
0.00107833
0.00089828
0.000700433
0.000586475
0.000578369
0.00261499
0.00295406
0.00315325
0.00323288
0.00322487
0.00316019
0.00306176
0.00295222
0.00283442
0.00272006
0.00260779
0.0025027
0.00240212
0.00231085
0.00222822
0.00214763
0.0020533
0.00195443
0.00185829
0.00178068
0.00172625
0.00168796
0.00164287
0.00156882
0.00145557
0.0013014
0.00111003
0.000894753
0.000738352
0.000678886
0.00275278
0.00306853
0.00327297
0.00337969
0.00340627
0.00337654
0.00330471
0.00320609
0.00309606
0.00299317
0.00288608
0.00278596
0.00269021
0.00260425
0.00252543
0.00244735
0.00234826
0.0022373
0.00212614
0.00203303
0.00196435
0.00191292
0.00185923
0.0017819
0.00166524
0.00150857
0.00131442
0.0010907
0.000906851
0.000806418
0.00284791
0.00310449
0.00330403
0.00343315
0.00349342
0.00349781
0.00345755
0.00338522
0.00330016
0.00320125
0.00309841
0.0030101
0.00292368
0.00284775
0.00277729
0.00270459
0.00260253
0.00248181
0.00235835
0.00225249
0.00217129
0.00210869
0.00204761
0.00196896
0.00185451
0.00170116
0.00150948
0.00128611
0.00108204
0.000946594
0.00283406
0.00305551
0.00325348
0.00340581
0.00350051
0.00354021
0.00353485
0.00349261
0.00342951
0.00335067
0.00327029
0.0031852
0.0031092
0.00304713
0.00298853
0.00292296
0.00281974
0.00269155
0.00255876
0.00244291
0.00235131
0.00227909
0.00221226
0.00213334
0.00202692
0.00187694
0.00168974
0.00147109
0.00125797
0.00108959
0.00273374
0.00292813
0.00312939
0.00330844
0.00343886
0.00351639
0.00354677
0.00353879
0.00350282
0.00344784
0.00338512
0.00331667
0.00325666
0.00320743
0.00316312
0.00310568
0.00300283
0.00286937
0.00272998
0.00260801
0.00250865
0.00242821
0.00235747
0.00228064
0.00217712
0.0020341
0.00185727
0.001644
0.00142605
0.00122839
0.0026054
0.00276085
0.00295387
0.00315106
0.00331728
0.0034353
0.00350446
0.00353114
0.00352687
0.00349872
0.00345791
0.00341049
0.0033665
0.00333554
0.00330447
0.00325547
0.0031548
0.00301924
0.00287672
0.00275114
0.00264672
0.00256123
0.00248891
0.00240905
0.00230779
0.00217399
0.00200707
0.00180238
0.00158298
0.00136519
0.00247481
0.00257002
0.00274034
0.00294742
0.00314514
0.00330412
0.00341493
0.00347865
0.00350732
0.00350898
0.00349331
0.00346898
0.00344518
0.00343156
0.003415
0.00337488
0.00327841
0.00314343
0.00300158
0.00287503
0.00276985
0.00268198
0.00260261
0.00252091
0.00242213
0.00230043
0.00214032
0.0019427
0.00172328
0.00149105
0.00236456
0.00237329
0.00250714
0.00271129
0.00293233
0.00312917
0.0032819
0.00338679
0.00345139
0.0034835
0.00349543
0.00349611
0.00349457
0.00349979
0.00349796
0.00346664
0.00337598
0.00324466
0.00310766
0.0029835
0.00287396
0.00278102
0.0026991
0.00261786
0.00252313
0.00241001
0.00225738
0.0020651
0.00184513
0.00160118
0.0022789
0.00220314
0.00228294
0.00246413
0.00269352
0.00292
0.00311202
0.00325799
0.00336083
0.00342781
0.00346848
0.00349519
0.00351762
0.00354197
0.00355497
0.00353328
0.00345119
0.00332603
0.0031942
0.00307047
0.00295985
0.00286495
0.00278078
0.00270204
0.00261539
0.00250522
0.00235909
0.00217005
0.0019484
0.00169423
0.00228155
0.00210749
0.00210751
0.00223737
0.00245145
0.00269147
0.00291457
0.00309864
0.00323986
0.00334289
0.00341622
0.00347005
0.00351614
0.00356007
0.00358818
0.00357736
0.0035071
0.00339009
0.00326773
0.00315028
0.00304026
0.00294433
0.00285952
0.00278072
0.00269541
0.00258693
0.00244414
0.0022574
0.0020331
0.00176957
0.00235886
0.00212921
0.00202398
0.00207168
0.002239
0.00246642
0.00270408
0.00291798
0.00309444
0.00323293
0.00333946
0.00342291
0.00349287
0.00355572
0.00359971
0.00360107
0.00354541
0.00343976
0.00332767
0.00321874
0.00311489
0.00302046
0.00293561
0.00285261
0.00276522
0.00265608
0.00251376
0.00232856
0.00209981
0.00182726
0.00252548
0.00225385
0.00206811
0.00201416
0.00210033
0.00227704
0.00250241
0.00272979
0.00293313
0.00310329
0.00324174
0.00335465
0.00344958
0.00353079
0.00359059
0.00360566
0.00356656
0.00347592
0.00337574
0.00327644
0.00318102
0.00309192
0.0030065
0.00291832
0.00282562
0.00271356
0.00256907
0.00238252
0.00214867
0.00186745
0.00280318
0.00250305
0.00225277
0.00209542
0.00205662
0.00216086
0.00233843
0.00255331
0.00276801
0.0029612
0.0031273
0.00326747
0.00338617
0.00348565
0.00356076
0.00359059
0.00356935
0.00349741
0.00341081
0.0033231
0.00323783
0.00315421
0.00306809
0.00297553
0.00287664
0.00275973
0.00261089
0.0024202
0.00218081
0.00189079
0.00316931
0.00285441
0.00256031
0.00231887
0.00216972
0.00214527
0.00224531
0.00241149
0.00261462
0.00281572
0.00300114
0.00316323
0.00330175
0.00341838
0.00350658
0.00355112
0.00354813
0.00349829
0.00342707
0.0033525
0.00327743
0.00319925
0.00311332
0.0030198
0.00291668
0.00279421
0.0026395
0.00244269
0.00219557
0.00189678
0.00358719
0.00326699
0.00294645
0.00264634
0.00240269
0.00225809
0.00223699
0.00233048
0.00249047
0.00267606
0.0028681
0.00304201
0.00319314
0.00332129
0.0034177
0.00347357
0.00348719
0.00346087
0.00340853
0.0033482
0.00328412
0.00321298
0.00313393
0.00304814
0.00294449
0.00281732
0.00265598
0.0024524
0.00219629
0.00188919
0.00401196
0.00369184
0.00335729
0.00302102
0.00271059
0.00246598
0.00232776
0.00231282
0.00239644
0.00255338
0.00273099
0.00289937
0.00305388
0.00317931
0.00327448
0.00333508
0.00336291
0.00335707
0.00332829
0.00328732
0.00324193
0.00318993
0.00312613
0.00304574
0.0029473
0.00282655
0.00266365
0.00245336
0.00218815
0.00187169
0.00439406
0.004078
0.00373926
0.00338507
0.00303501
0.00272105
0.00248491
0.00236081
0.00235176
0.00243293
0.0025698
0.00271814
0.00285381
0.00296777
0.00304887
0.00310601
0.00314247
0.00315303
0.00314837
0.00313373
0.00311453
0.00308961
0.00305314
0.00299583
0.00290786
0.00278448
0.00263269
0.00242982
0.00216657
0.00184504
0.00468268
0.00437598
0.00404282
0.00368654
0.0033202
0.00296706
0.00266228
0.00244399
0.0023343
0.00232471
0.00238747
0.00248374
0.0025812
0.00266679
0.00272606
0.00277451
0.00281116
0.00283619
0.00285294
0.0028664
0.00287717
0.00288447
0.0028822
0.00286024
0.00280562
0.00270396
0.00255308
0.00236106
0.00211262
0.00180356
0.00483016
0.00454188
0.00422608
0.00388313
0.00352076
0.00315463
0.00281142
0.00252518
0.00232574
0.00222112
0.00219373
0.00221668
0.00226371
0.00231523
0.00236345
0.00240651
0.00244458
0.00247775
0.00250824
0.00253959
0.00257001
0.00259955
0.00262343
0.00263244
0.00261406
0.00255233
0.00242908
0.00225054
0.00201459
0.00172984
0.00480591
0.00454927
0.0042659
0.00395312
0.00361423
0.00325942
0.00290868
0.00259115
0.00233785
0.00216523
0.00206651
0.0020303
0.00204117
0.00207663
0.00212913
0.00217812
0.00221933
0.0022534
0.0022859
0.00231425
0.00233963
0.00236333
0.00238369
0.00239457
0.0023862
0.00234546
0.00225393
0.00209753
0.00189419
0.00164071
0.00462078
0.00441541
0.00418443
0.00392207
0.00362876
0.0033125
0.00299018
0.00268863
0.00243727
0.00225001
0.00212752
0.00207438
0.00207589
0.00211262
0.00217405
0.00222915
0.00226996
0.00229997
0.00232384
0.00233745
0.00234271
0.00234133
0.00233369
0.0023163
0.00228205
0.00222065
0.00211722
0.00195849
0.00175663