/*--------------------------------*- C++ -*----------------------------------*\
| =========                 |                                                 |
| \\      /  F ield         | OpenFOAM: The Open Source CFD Toolbox           |
|  \\    /   O peration     | Version:  v1912                                 |
|   \\  /    A nd           | Website:  www.openfoam.com                      |
|    \\/     M anipulation  |                                                 |
\*---------------------------------------------------------------------------*/
FoamFile
{
    version     2.0;
    format      ascii;
    class       volScalarField;
    location    "2000/air";
    object      epsilon;
}
// * * * * * * * * * * * * * * * * * * * * * * * * * * * * * * * * * * * * * //

dimensions      [0 2 -3 0 0 0 0];


internalField   nonuniform List<scalar> 
243000
(
3.58151
4.3729
4.76383
4.99402
5.07533
5.03882
4.9047
4.69439
4.42767
4.12509
3.80387
3.47866
3.15356
2.83824
2.53818
2.26298
2.01787
1.81259
1.65001
1.51629
1.39108
1.25463
1.09571
0.916038
0.729743
0.547507
0.382208
0.258748
0.409674
0.547051
1.87676
2.22054
2.29642
2.27826
2.20177
2.08876
1.95441
1.80961
1.66137
1.51539
1.37498
1.24252
1.11802
1.00402
0.901392
0.811397
0.733778
0.671406
0.623404
0.586896
0.555215
0.520843
0.477252
0.421988
0.357285
0.28592
0.207804
0.145845
0.16194
0.247899
2.35761
2.76099
2.87797
2.8672
2.77917
2.64332
2.47933
2.30086
2.11702
1.93543
1.76026
1.59478
1.43951
1.29807
1.17169
1.06187
0.967899
0.892971
0.834916
0.789821
0.749819
0.706306
0.651334
0.581127
0.497471
0.404033
0.302221
0.216166
0.183027
0.263919
2.60017
3.04594
3.20768
3.22924
3.15831
3.0283
2.86092
2.67192
2.47237
2.27166
2.07559
1.88908
1.7135
1.55357
1.41123
1.28841
1.18406
1.10139
1.03649
0.984151
0.935675
0.88239
0.816125
0.73245
0.632596
0.520687
0.399538
0.293928
0.235748
0.265477
2.64761
3.09947
3.33165
3.40495
3.37101
3.2669
3.11507
2.93309
2.73353
2.52771
2.32303
2.12612
1.9396
1.76944
1.61815
1.4884
1.3788
1.29227
1.22308
1.16468
1.10798
1.0449
0.967798
0.872297
0.759135
0.632461
0.496109
0.374026
0.292917
0.275448
2.55634
3.00726
3.29542
3.43109
3.44846
3.38313
3.26001
3.0977
2.91024
2.71069
2.50751
2.3092
2.11969
1.94645
1.79202
1.66053
1.54993
1.46261
1.39108
1.32773
1.26349
1.19111
1.10403
0.998359
0.874487
0.7363
0.588221
0.45223
0.352361
0.296564
2.35929
2.81993
3.15473
3.34661
3.41933
3.40196
3.31413
3.17909
3.01324
2.82889
2.63542
2.44308
2.25711
2.08657
1.93388
1.80481
1.69664
1.6108
1.53846
1.47126
1.40044
1.3197
1.22377
1.10953
0.977243
0.830234
0.673159
0.526082
0.411239
0.331697
2.08932
2.56366
2.93561
3.17957
3.30755
3.34045
3.29671
3.19612
3.05421
2.89064
2.71345
2.53304
2.35592
2.19236
2.04548
1.92206
1.81896
1.73629
1.66434
1.59439
1.51812
1.43028
1.32681
1.20558
1.06683
0.913255
0.749683
0.594925
0.46835
0.371273
1.78864
2.26738
2.6669
2.95498
3.13455
3.21659
3.21835
3.1566
3.04877
2.90877
2.74902
2.58465
2.42027
2.26713
2.12908
2.01369
1.91752
1.83921
1.76863
1.69701
1.61657
1.52303
1.41351
1.2868
1.14331
0.985385
0.81644
0.656697
0.520772
0.412131
1.52275
1.97878
2.38249
2.6978
2.92012
3.04776
3.09392
3.07293
2.99955
2.88834
2.75284
2.60412
2.45464
2.31433
2.18722
2.08147
1.99338
1.92026
1.85182
1.77952
1.69622
1.59851
1.48452
1.35387
1.20744
1.04591
0.87266
0.71113
0.568419
0.450458
1.30177
1.71017
2.11109
2.44186
2.68663
2.85023
2.93659
2.95513
2.91717
2.83605
2.72489
2.59776
2.46425
2.33745
2.22257
2.12734
2.04789
1.98049
1.91479
1.84275
1.75792
1.65756
1.54074
1.40784
1.25933
1.09507
0.919674
0.758487
0.61114
0.485035
1.144
1.46676
1.84986
2.19188
2.45903
2.64608
2.75994
2.81285
2.80919
2.75842
2.67313
2.56715
2.45165
2.34028
2.23785
2.15339
2.08265
2.02125
1.95875
1.88782
1.80272
1.70126
1.58347
1.44942
1.29932
1.13341
0.960994
0.800162
0.649285
0.51665
1.07144
1.26461
1.60243
1.94549
2.23276
2.44462
2.58302
2.65792
2.68312
2.66139
2.60193
2.51797
2.42081
2.32486
2.23547
2.16175
2.09958
2.04398
1.98508
1.91605
1.83204
1.73123
1.61325
1.47875
1.32805
1.1617
0.995359
0.836149
0.682876
0.545202
1.10604
1.13388
1.38284
1.70571
2.00609
2.24236
2.40669
2.50521
2.54993
2.55141
2.51598
2.45376
2.37502
2.2944
2.21789
2.15454
2.10012
2.05043
1.99557
1.92941
1.84715
1.74733
1.63014
1.49643
1.34625
1.18356
1.02341
0.8666
0.711899
0.570646
1.26111
1.11229
1.22112
1.48526
1.78181
2.03797
2.22847
2.35204
2.41808
2.43737
2.42052
2.37812
2.31728
2.25153
2.18742
2.13387
2.08696
2.04263
1.99136
1.92755
1.84752
1.74985
1.63458
1.50279
1.35476
1.20029
1.04591
0.89181
0.736394
0.592982
1.52789
1.24367
1.16477
1.31295
1.57147
1.83398
2.04743
2.19665
2.28557
2.32394
2.32291
2.29523
2.25043
2.19872
2.14627
2.10184
2.06184
2.0226
1.97536
1.91497
1.83742
1.74221
1.6292
1.4997
1.35768
1.21175
1.06313
0.911984
0.756399
0.612048
1.89272
1.53069
1.27014
1.23695
1.40137
1.64053
1.86599
2.0386
2.15114
2.20991
2.22568
2.21073
2.17777
2.13844
2.09662
2.0605
2.02683
1.99237
1.94918
1.89251
1.81867
1.72635
1.61629
1.49026
1.35696
1.21867
1.07552
0.927375
0.772009
0.627733
2.30952
1.92291
1.54713
1.31473
1.31516
1.48046
1.69298
1.88022
2.0147
2.09443
2.12782
2.12692
2.10388
2.07341
2.04062
2.01188
1.98399
1.95399
1.91479
1.86207
1.79229
1.70393
1.59772
1.4795
1.35365
1.22183
1.08361
0.938326
0.783382
0.639783
2.75848
2.37257
1.95026
1.5676
1.36595
1.39115
1.54725
1.7288
1.87828
1.97759
2.02896
2.04278
2.0309
2.00713
1.98074
1.95807
1.93528
1.90946
1.87423
1.82557
1.7602
1.67657
1.57749
1.46722
1.34815
1.22173
1.08791
0.945243
0.790795
0.649197
3.24271
2.85735
2.42197
1.9614
1.58298
1.41672
1.45912
1.59904
1.74764
1.86113
1.9293
1.95793
1.95807
1.94228
1.9205
1.90151
1.88279
1.86076
1.82944
1.78496
1.72432
1.64783
1.55678
1.4538
1.34091
1.21936
1.08908
0.948635
0.794618
0.656409
3.7565
3.36125
2.92449
2.43475
1.94426
1.58852
1.4617
1.51336
1.63361
1.74943
1.83029
1.87278
1.88495
1.87815
1.86215
1.84572
1.82905
1.81004
1.78242
1.74265
1.68874
1.61971
1.53606
1.43979
1.33257
1.21542
1.08802
0.949056
0.795216
0.6622
4.29346
3.89487
3.45077
2.94631
2.39759
1.89712
1.58445
1.49755
1.55257
1.65042
1.73527
1.78856
1.81194
1.81454
1.80527
1.79259
1.77854
1.76179
1.73778
1.7029
1.65505
1.5928
1.51608
1.42611
1.32414
1.21087
1.0858
0.947622
0.793702
0.670113
4.84871
4.44295
3.98828
3.47163
2.89313
2.30236
1.82631
1.57377
1.5229
1.57563
1.65011
1.70808
1.74047
1.75198
1.75006
1.74214
1.73138
1.71731
1.69673
1.66638
1.62407
1.56811
1.49798
1.41404
1.31705
1.20726
1.08382
0.945553
0.791358
0.690524
5.41944
4.99751
4.52771
3.99736
3.40018
2.75803
2.1624
1.7471
1.56181
1.53887
1.5839
1.63661
1.67377
1.69278
1.69821
1.69589
1.6891
1.67821
1.66109
1.63503
1.59778
1.54765
1.48371
1.40545
1.31301
1.20621
1.08381
0.944425
0.789579
0.723153
5.96842
5.5361
5.05563
4.51421
3.90433
3.23437
2.56254
2.01114
1.68102
1.5569
1.55027
1.58463
1.61999
1.64397
1.65634
1.66035
1.65838
1.65127
1.63768
1.61544
1.58249
1.53707
1.47778
1.40403
1.31557
1.21154
1.08958
0.947535
0.790681
0.769744
6.51478
6.07386
5.58471
5.03549
4.41809
3.73412
3.01838
2.36674
1.89993
1.65758
1.57789
1.5778
1.60344
1.62968
1.64923
1.6609
1.66508
1.66237
1.6519
1.63206
1.60129
1.55822
1.50161
1.4303
1.34331
1.2388
1.11344
0.963795
0.801621
0.836308
7.11434
6.67271
6.18143
5.63009
5.01152
4.32513
3.58991
2.8739
2.29138
1.9234
1.75244
1.70359
1.712
1.74047
1.77097
1.79421
1.80656
1.80793
1.79742
1.77432
1.7383
1.68915
1.62639
1.54869
1.45413
1.33982
1.20036
1.03038
0.848362
0.947064
7.93831
7.50846
7.02885
6.49457
5.90208
5.24862
4.53912
3.81146
3.15554
2.67667
2.41097
2.31012
2.30558
2.34855
2.40356
2.4467
2.46701
2.4644
2.43793
2.38951
2.32214
2.23884
2.14133
2.02786
1.8936
1.73546
1.54545
1.3115
1.06089
1.22189
9.72528
9.3454
8.95057
8.54004
8.10327
7.62619
7.08778
6.49301
5.88464
5.38152
5.07708
4.96253
4.97836
5.07501
5.18074
5.25035
5.26095
5.22037
5.13151
5.00069
4.83862
4.65431
4.45513
4.23473
3.96521
3.66389
3.3173
2.89455
2.42529
2.57556
17.4085
17.2578
17.3044
17.3453
17.3387
17.2638
17.0916
16.8237
16.3843
15.9565
15.6547
15.4849
15.4318
15.5142
15.6055
15.6659
15.6365
15.5988
15.5412
15.4825
15.4192
15.3659
15.3193
15.2554
14.937
14.6096
14.1955
13.6135
12.8599
12.7039
6.39227
8.22218
9.14843
9.67781
9.88399
9.83021
9.57452
9.1721
8.66304
8.08303
7.45697
6.81527
6.17269
5.5605
4.99162
4.48909
4.0593
3.72456
3.48173
3.28936
3.06841
2.75307
2.3225
1.80472
1.26781
0.778285
0.42187
0.32746
0.49484
0.596746
4.01978
4.66892
5.0889
5.32761
5.41057
5.35654
5.19099
4.94535
4.64633
4.31467
3.96708
3.61805
3.27958
2.96379
2.68148
2.44239
2.25195
2.11966
2.04737
2.00619
1.94131
1.80772
1.59186
1.30867
0.990913
0.679365
0.406887
0.298976
0.330341
0.297993
3.54982
4.00268
4.28767
4.44464
4.49636
4.45366
4.329
4.14063
3.90659
3.64349
3.36545
3.08488
2.81199
2.55832
2.33338
2.14822
2.00703
1.91697
1.87749
1.86366
1.82839
1.7332
1.56239
1.3249
1.05009
0.767797
0.499671
0.325368
0.294282
0.278738
3.26355
3.63278
3.8703
4.00475
4.05674
4.03541
3.94596
3.79961
3.60965
3.39005
3.15325
2.91092
2.67227
2.45031
2.25432
2.09587
1.97826
1.90781
1.88023
1.87262
1.84395
1.76029
1.60744
1.39298
1.13845
0.868887
0.602432
0.391244
0.288019
0.256931
2.99216
3.29392
3.5157
3.65393
3.72234
3.72909
3.67441
3.56569
3.41363
3.23054
3.02751
2.8156
2.60447
2.40743
2.2338
2.09564
1.99657
1.94017
1.91954
1.91215
1.88225
1.80144
1.65822
1.45772
1.21802
0.959686
0.69886
0.47176
0.331992
0.269594
2.68946
2.93968
3.16226
3.31734
3.41154
3.4491
3.42847
3.35509
3.23816
3.08902
2.9173
2.73386
2.54813
2.37416
2.22127
2.10232
2.0199
1.9759
1.96036
1.95109
1.91725
1.83579
1.69789
1.50789
1.28139
1.03546
0.784009
0.553992
0.396794
0.312372
2.35126
2.57065
2.80153
2.98053
3.10473
3.17348
3.18224
3.14224
3.05944
2.94393
2.8027
2.64743
2.48648
2.33498
2.20228
2.10168
2.03554
2.00316
1.99176
1.97999
1.94137
1.85864
1.72369
1.54238
1.32846
1.09569
0.856636
0.631944
0.468614
0.372471
1.98957
2.19298
2.43898
2.64507
2.80019
2.89655
2.93143
2.92341
2.87318
2.78876
2.67799
2.55124
2.41524
2.28559
2.17264
2.09004
2.03927
2.01773
2.00977
1.99569
1.95272
1.86684
1.73484
1.56235
1.36087
1.14175
0.916389
0.702861
0.540604
0.434718
1.63346
1.82721
2.08832
2.31934
2.50272
2.61992
2.68225
2.70448
2.68539
2.63008
2.54694
2.44564
2.33423
2.22565
2.13174
2.06629
2.02989
2.01781
2.01296
1.99601
1.9488
1.86137
1.73219
1.56881
1.38042
1.17527
0.964316
0.765216
0.60793
0.495457
1.36654
1.536
1.78338
2.02067
2.22258
2.35497
2.44282
2.491
2.49954
2.4711
2.41317
2.33471
2.24502
2.15644
2.0804
2.03092
2.0076
2.00375
2.00147
1.98304
1.93384
1.84564
1.72021
1.56494
1.38918
1.19808
1.00222
0.818767
0.668841
0.55254
1.18513
1.31986
1.5454
1.78067
1.97784
2.11458
2.2204
2.28845
2.319
2.31333
2.2769
2.21926
2.14954
2.07966
2.02001
1.98508
1.97289
1.97594
1.97585
1.95669
1.90665
1.82067
1.70003
1.55363
1.38854
1.21174
1.03321
0.864263
0.72263
0.604988
1.06989
1.15553
1.35282
1.58222
1.77937
1.91868
2.02616
2.10334
2.1483
2.1594
2.14143
2.10208
2.05014
1.99713
1.95223
1.92999
1.92686
1.93543
1.93714
1.91801
1.86867
1.7863
1.67259
1.53571
1.38175
1.21843
1.05711
0.902355
0.769042
0.652779
1.01513
1.03792
1.19495
1.40967
1.60865
1.75798
1.86802
1.94447
1.99275
2.01411
2.01034
1.98604
1.94928
1.91077
1.87881
1.86703
1.87101
1.88359
1.88672
1.86836
1.82118
1.74368
1.63887
1.51188
1.36961
1.22138
1.07548
0.933972
0.808604
0.694731
1.04172
0.978415
1.07306
1.25571
1.45261
1.61753
1.73629
1.8136
1.86009
1.88317
1.8874
1.87416
1.84943
1.82276
1.80153
1.79783
1.80701
1.82213
1.82634
1.80941
1.76557
1.69417
1.59873
1.48281
1.35324
1.22064
1.08915
0.959937
0.841938
0.730452
1.15058
1.00829
1.01474
1.13968
1.31153
1.48773
1.61997
1.7019
1.74856
1.77115
1.77704
1.7696
1.75319
1.73533
1.7223
1.72431
1.73677
1.75312
1.75812
1.74313
1.70356
1.6392
1.55345
1.44977
1.33539
1.21739
1.09896
0.980968
0.869629
0.760485
1.34547
1.13945
1.0407
1.08273
1.21022
1.37099
1.51215
1.60259
1.65281
1.67618
1.68231
1.67581
1.6633
1.65087
1.6433
1.64866
1.66257
1.67898
1.68445
1.67172
1.63703
1.5805
1.50507
1.41554
1.3163
1.21205
1.10545
0.997607
0.892159
0.785309
1.62361
1.38043
1.18957
1.11142
1.1622
1.27824
1.41203
1.51137
1.56829
1.59459
1.60176
1.59527
1.58289
1.57201
1.567
1.57345
1.5871
1.60253
1.60814
1.59777
1.56839
1.52042
1.45668
1.38167
1.29676
1.20519
1.10915
1.01037
0.909956
0.805156
1.97796
1.71893
1.46905
1.27355
1.19838
1.23703
1.33284
1.42994
1.49276
1.52362
1.53303
1.52731
1.51447
1.50189
1.49645
1.50182
1.5137
1.52728
1.53268
1.52479
1.5011
1.46304
1.41145
1.34985
1.27794
1.19766
1.11074
1.01987
0.923509
0.820328
2.40032
2.13584
1.85801
1.5779
1.36793
1.28293
1.29951
1.36827
1.42853
1.46262
1.47482
1.47074
1.45826
1.44382
1.43591
1.43804
1.44698
1.45809
1.4631
1.45838
1.44141
1.41215
1.37179
1.32215
1.26151
1.19074
1.11129
1.02695
0.933479
0.831389
2.88467
2.61746
2.32693
1.99936
1.68071
1.45279
1.35326
1.34881
1.38526
1.41481
1.42801
1.42575
1.41457
1.39983
1.39014
1.38907
1.39481
1.4034
1.40848
1.40598
1.394
1.37253
1.34231
1.30221
1.24992
1.18626
1.11235
1.03275
0.940608
0.838358
3.42776
3.15763
2.85789
2.50351
2.11356
1.75826
1.51775
1.40305
1.38038
1.38963
1.39762
1.39575
1.38664
1.37376
1.36516
1.36308
1.36681
1.37341
1.37763
1.37605
1.36788
1.35277
1.32938
1.2944
1.24642
1.18667
1.11646
1.03913
0.946006
0.842392
4.03479
3.76175
3.4506
3.07429
2.63694
2.18586
1.80891
1.56085
1.44415
1.40559
1.39677
1.39162
1.3854
1.37778
1.37493
1.37676
1.38189
1.38727
1.39019
1.38843
1.38146
1.36886
1.34752
1.31424
1.26715
1.20585
1.13217
1.05087
0.952253
0.845556
4.72968
4.45224
4.12565
3.72442
3.24805
2.72706
2.23679
1.85471
1.61791
1.50322
1.4587
1.44477
1.44294
1.44671
1.45892
1.47368
1.4864
1.49409
1.4953
1.48961
1.47761
1.45905
1.43019
1.38889
1.33306
1.2622
1.17599
1.07913
0.964861
0.852408
5.5757
5.2919
4.94621
4.5163
4.00301
3.42856
2.85177
2.34955
1.98615
1.77501
1.67712
1.64736
1.65706
1.68799
1.73634
1.78324
1.81565
1.83081
1.82754
1.80651
1.77185
1.72447
1.66486
1.59202
1.5043
1.40112
1.2812
1.14793
0.997134
0.870021
6.72815
6.44092
6.07948
5.62683
5.08853
4.48429
3.85661
3.26669
2.79755
2.49292
2.34105
2.30513
2.35646
2.46252
2.60521
2.73382
2.81299
2.8398
2.81235
2.73416
2.61741
2.47397
2.31333
2.14014
1.95493
1.7576
1.54519
1.32118
1.08524
0.915368
8.58697
8.31543
7.96781
7.53525
7.03095
6.47486
5.89282
5.32137
4.8471
4.53646
4.41296
4.46978
4.69339
5.03636
5.4459
5.7887
5.97405
6.0029
5.86587
5.57985
5.18395
4.72284
4.23525
3.74294
3.25479
2.77295
2.29146
1.81094
1.3474
1.05204
12.253
12.0692
11.8386
11.5646
11.2787
11.0138
10.7703
10.552
10.4157
10.4358
10.6873
11.209
11.996
12.9786
14.0138
14.8035
15.1756
15.1408
14.6684
13.8091
12.6603
11.344
9.96589
8.58868
7.2432
5.94154
4.67583
3.43414
2.28305
1.63734
20.6696
20.6623
20.7338
20.8787
21.1826
21.719
22.4186
23.1537
23.939
24.8504
26.0302
27.5486
29.3464
31.2938
33.085
34.3113
34.8103
34.5692
33.5299
31.7869
29.4874
26.8376
24.0074
21.0922
18.1301
15.1577
12.1692
9.10286
6.13878
4.68127
35.9726
36.144
36.8726
37.9911
39.4612
41.3168
43.098
44.7311
46.2636
47.7625
49.5621
51.5944
53.6311
55.508
56.7776
57.2632
57.1274
56.2694
54.7238
52.5907
50.0235
47.1952
44.1413
40.8915
37.3519
33.5225
29.3313
24.5905
19.3769
16.9229
43.5602
43.7492
45.3578
47.4792
49.3781
50.7373
51.5886
52.2028
52.8334
53.6944
54.9168
56.0897
56.8687
57.2162
56.6278
55.4064
54.2337
52.8343
51.3404
49.8211
48.4307
47.2186
46.2092
45.2564
44.2135
43.0813
41.8798
40.6133
38.7468
37.1934
9.74669
12.3896
13.4905
14.1848
14.4667
14.3877
14.0217
13.444
12.7108
11.8725
10.9618
10.0244
9.07785
8.17425
7.33465
6.60399
6.00046
5.61408
5.47779
5.45537
5.29753
4.8476
4.09157
3.12426
2.10107
1.17425
0.51006
0.38088
0.534727
0.606318
5.69449
6.42664
6.79466
7.04829
7.14459
7.08156
6.88581
6.58774
6.21811
5.80043
5.35625
4.90289
4.45789
4.03514
3.65669
3.33852
3.10412
3.00038
3.05787
3.18448
3.21725
3.06049
2.71066
2.22508
1.66392
1.09166
0.590891
0.36459
0.363486
0.293999
5.14629
5.58813
5.83163
5.96105
5.98061
5.89589
5.72243
5.47705
5.17693
4.8381
4.47756
4.10981
3.74964
3.41051
3.10986
2.86579
2.69636
2.63936
2.71705
2.85447
2.91791
2.82482
2.57441
2.1881
1.72
1.22584
0.753786
0.429066
0.342977
0.284906
4.87242
5.18934
5.38855
5.49017
5.50041
5.42586
5.27782
5.06818
4.80905
4.51319
4.19527
3.86868
3.54699
3.24575
2.98168
2.7724
2.63332
2.59746
2.67344
2.79559
2.85559
2.78326
2.56569
2.22909
1.8127
1.35885
0.906036
0.533291
0.351544
0.275569
4.60933
4.82799
5.00362
5.10826
5.13616
5.09034
4.97553
4.80175
4.57941
4.32016
4.03729
3.74332
3.45278
3.18151
2.94607
2.7652
2.65197
2.63339
2.7046
2.80605
2.84872
2.77517
2.57545
2.26944
1.88892
1.46767
1.03734
0.649106
0.411449
0.295321
4.28611
4.42166
4.58807
4.71083
4.77068
4.76458
4.68963
4.55482
4.37018
4.14743
3.89923
3.63768
3.37734
3.13523
2.92791
2.77519
2.68794
2.68599
2.752
2.83134
2.85278
2.76928
2.57581
2.29223
1.94103
1.55004
1.14554
0.763183
0.496321
0.348147
3.91643
3.97985
4.13642
4.28138
4.37939
4.4161
4.3859
4.29284
4.14784
3.96331
3.75123
3.52378
3.29458
3.08269
2.9047
2.78134
2.72124
2.73503
2.79588
2.85377
2.85168
2.75645
2.56515
2.29533
1.97057
1.60859
1.23173
0.867488
0.589458
0.419077
3.50582
3.51293
3.65942
3.82607
3.9628
4.04237
4.0574
4.00835
3.90492
3.75969
3.58496
3.39313
3.19709
3.01636
2.86904
2.77627
2.74378
2.77205
2.82775
2.8658
2.84193
2.73405
2.54322
2.28499
1.98128
1.64681
1.29796
0.957473
0.681095
0.495935
3.06251
3.03187
3.17294
3.35982
3.53193
3.65195
3.70886
3.70388
3.64257
3.53728
3.40078
3.24502
3.08358
2.93484
2.81898
2.75743
2.75169
2.79281
2.84331
2.8635
2.82044
2.70156
2.51095
2.26374
1.97733
1.66825
1.34693
1.0317
0.76473
0.571538
2.59774
2.55299
2.69683
2.90327
3.10402
3.25802
3.35249
3.3867
3.36639
3.30043
3.20177
3.08197
2.9552
2.83929
2.7548
2.7241
2.74329
2.79557
2.84117
2.84465
2.78544
2.65886
2.46951
2.2333
1.96374
1.67649
1.38367
1.09138
0.836849
0.642035
2.20742
2.14207
2.27649
2.48635
2.70194
2.87785
3.00204
3.06856
3.08424
3.05524
2.99273
2.90773
2.81465
2.73143
2.67772
2.6764
2.71756
2.77813
2.81842
2.8082
2.73674
2.60515
2.41991
2.19505
1.9421
1.67472
1.40728
1.13719
0.896494
0.70391
1.8978
1.80129
1.91481
2.11873
2.34071
2.53169
2.67408
2.76239
2.80601
2.80891
2.77922
2.72669
2.66537
2.61336
2.58926
2.61464
2.67408
2.74052
2.77491
2.75411
2.67457
2.54138
2.36333
2.1503
1.91434
1.66902
1.42121
1.17086
0.94401
0.756302
1.67143
1.53375
1.61428
1.80126
2.02116
2.22065
2.37603
2.48152
2.54379
2.56938
2.5673
2.5435
2.51108
2.48787
2.49065
2.5393
2.61311
2.68278
2.71138
2.68319
2.59966
2.46842
2.29958
2.10025
1.88287
1.65753
1.42668
1.19408
0.980396
0.798918
1.53008
1.34832
1.38139
1.53654
1.74349
1.94485
2.10916
2.22702
2.30386
2.3464
2.3633
2.36307
2.35566
2.35793
2.3833
2.4513
2.53531
2.60602
2.62954
2.59703
2.51335
2.38748
2.22977
2.04682
1.85041
1.64136
1.42509
1.20845
1.007
0.832226
1.49907
1.26824
1.23209
1.33499
1.51231
1.70541
1.87346
1.99999
2.08768
2.1432
2.17505
2.19067
2.20317
2.22589
2.26971
2.35241
2.44267
2.51269
2.53238
2.49856
2.41815
2.30088
2.15692
1.99424
1.81536
1.62158
1.41891
1.21581
1.02531
0.857221
1.56577
1.30993
1.19212
1.21682
1.34124
1.50856
1.67081
1.80124
1.8964
1.9614
2.00455
2.03227
2.05796
2.09556
2.15315
2.24572
2.33874
2.40691
2.42433
2.39195
2.31795
2.21274
2.08702
1.94315
1.77942
1.59937
1.40898
1.21708
1.03657
0.874982
1.73305
1.46208
1.27877
1.20718
1.25351
1.36885
1.50821
1.63374
1.73163
1.8026
1.85374
1.89071
1.92579
1.97171
2.03845
2.13625
2.22915
2.29492
2.31194
2.28368
2.21935
2.13165
2.02341
1.89481
1.74442
1.57623
1.39649
1.2144
1.04224
0.886525
2.02348
1.73971
1.50647
1.342
1.27748
1.31168
1.40112
1.50543
1.59736
1.66943
1.72521
1.76878
1.81139
1.86142
1.93311
2.03221
2.12307
2.18661
2.20572
2.18527
2.13615
2.06297
1.96856
1.85263
1.71292
1.55417
1.38293
1.20912
1.04336
0.892832
2.43621
2.13837
1.86867
1.62727
1.44959
1.36773
1.37312
1.43212
1.50219
1.56745
1.62349
1.67129
1.72042
1.77542
1.85033
1.94771
2.03622
2.09864
2.12496
2.11431
2.07565
2.01429
1.93027
1.82164
1.68857
1.53583
1.37031
1.20269
1.04179
0.895211
2.96503
2.64995
2.34917
2.04901
1.77283
1.56579
1.45678
1.43229
1.46177
1.50802
1.55774
1.60749
1.66372
1.72693
1.80976
1.90862
1.99826
2.0618
2.09189
2.08855
2.05673
2.00019
1.91752
1.8086
1.67644
1.52499
1.36165
1.19721
1.03908
0.894695
3.61111
3.27321
2.93924
2.58922
2.23438
1.91356
1.67732
1.54557
1.50208
1.50964
1.54694
1.59771
1.66263
1.74186
1.84227
1.95295
2.04881
2.11477
2.14693
2.1462
2.11468
2.0549
1.96606
1.84682
1.69863
1.53255
1.36169
1.19539
1.03696
0.892818
4.39059
4.02372
3.6508
3.25122
2.83004
2.41526
2.05986
1.80862
1.67119
1.623
1.63542
1.68696
1.77003
1.87802
2.01607
2.15717
2.26988
2.3435
2.37605
2.36901
2.32265
2.24036
2.12405
1.9752
1.79784
1.60052
1.39842
1.21116
1.04108
0.891706
5.35258
4.9514
4.53402
4.08268
3.60185
3.11205
2.65944
2.29783
2.06008
1.94532
1.92812
1.98782
2.10987
2.27822
2.49667
2.70592
2.85952
2.94954
2.97775
2.94296
2.84697
2.69926
2.50939
2.28546
2.03663
1.77478
1.51362
1.2749
1.06688
0.898646
6.61734
6.18008
5.71924
5.22102
4.69283
4.15268
3.63875
3.20159
2.88743
2.72127
2.69362
2.79703
3.01551
3.32298
3.71904
4.07879
4.32051
4.44091
4.44453
4.32242
4.09048
3.77462
3.40409
3.00226
2.58817
2.17914
1.79076
1.4435
1.1516
0.933179
8.46535
8.00553
7.52139
7.0049
6.46881
5.93364
5.43285
5.00816
4.70887
4.57964
4.63928
4.909
5.37884
6.01398
6.79819
7.4658
7.8745
8.03578
7.94092
7.58453
7.01398
6.29442
5.49992
4.68804
3.89603
3.15053
2.46869
1.8728
1.38265
1.04694
11.575
11.1381
10.6899
10.2349
9.79503
9.39967
9.08589
8.88454
8.83231
8.99309
9.41451
10.148
11.1933
12.4968
13.9862
15.1538
15.7915
15.9574
15.6027
14.7464
13.49
11.9626
10.3156
8.66306
7.07465
5.59489
4.24437
3.0481
2.06531
1.43675
17.4705
17.1949
16.8842
16.645
16.5035
16.5122
16.7158
17.112
17.7105
18.5673
19.7579
21.3514
23.3341
25.5967
27.929
29.5434
30.2885
30.2953
29.4761
27.8894
25.7
23.081
20.232
17.3121
14.4211
11.629
8.97892
6.47767
4.30478
3.0009
28.6262
28.6379
28.7585
28.9615
29.3826
30.1349
31.1592
32.3988
33.8385
35.5453
37.6099
40.0798
42.8717
45.7095
48.1485
49.2974
49.5168
48.8646
47.437
45.3887
42.7419
39.6497
36.2308
32.544
28.6008
24.4398
20.1881
15.76
11.507
9.13035
43.8499
43.863
44.7917
46.2177
47.792
49.3134
50.7898
52.2642
53.8385
55.6387
57.7491
60.0846
62.3412
63.8666
64.219
62.8982
61.437
59.6303
57.7441
55.7414
53.768
51.8638
49.9585
47.8784
45.4089
42.3532
38.4613
33.8084
28.5517
25.737
48.0949
48.7126
50.4683
52.6877
54.7384
56.2994
57.3268
58.0781
58.855
59.8455
61.0494
62.1267
62.6753
62.3942
60.7997
57.8535
55.4183
53.0602
51.1035
49.4891
48.3678
47.7093
47.4215
47.2761
47.0469
46.6308
46.0487
45.3011
44.1023
43.0505
13.3741
16.7901
18.0298
18.6785
18.9513
18.8222
18.3462
17.605
16.6609
15.5764
14.3857
13.1487
11.8805
10.6597
9.51628
8.53428
7.78259
7.56984
8.00484
8.61798
8.74204
8.13218
6.89126
5.2689
3.52921
1.93788
0.749658
0.414593
0.534396
0.583531
7.57328
8.40865
8.75792
8.93423
8.99171
8.89526
8.64827
8.27998
7.82228
7.30175
6.74406
6.16704
5.59627
5.04601
4.55449
4.14278
3.87755
3.91611
4.34096
4.85562
5.0688
4.85604
4.30269
3.54208
2.67347
1.75187
0.919721
0.436638
0.347008
0.268276
6.87994
7.31121
7.51599
7.60062
7.5788
7.45078
7.22354
6.90988
6.52815
6.09599
5.63357
5.15551
4.68417
4.23524
3.83946
3.5201
3.32916
3.39461
3.77119
4.2234
4.44543
4.32724
3.93287
3.36378
2.65787
1.88807
1.14014
0.553802
0.35647
0.272741
6.61099
6.85675
7.01937
7.09443
7.07275
6.95716
6.75471
6.47457
6.13143
5.74
5.31852
4.88037
4.448
4.0402
3.68652
3.40979
3.25742
3.34125
3.67381
4.05727
4.25373
4.16012
3.83141
3.33132
2.71346
2.02425
1.32704
0.701267
0.399126
0.280177
6.35301
6.47371
6.61742
6.70836
6.71781
6.63789
6.47039
6.22467
5.91558
5.5575
5.16766
4.76026
4.35906
3.98256
3.66196
3.42212
3.30852
3.41304
3.71195
4.02989
4.17909
4.08075
3.77479
3.3147
2.75586
2.12761
1.47705
0.853972
0.483083
0.313406
6.01837
6.04552
6.17784
6.2976
6.35134
6.32088
6.19799
5.9927
5.7214
5.39915
5.04324
4.66757
4.29815
3.95374
3.66719
3.46682
3.39673
3.52475
3.79315
4.04966
4.14342
4.02554
3.72438
3.28983
2.77184
2.1966
1.59326
0.998091
0.589987
0.375564
5.60862
5.55843
5.6806
5.83055
5.93333
5.95673
5.88611
5.72784
5.50041
5.21931
4.90309
4.5628
4.2281
3.9198
3.67174
3.51591
3.49476
3.64598
3.88548
4.08008
4.11933
3.97365
3.66991
3.25298
2.76489
2.23638
1.67989
1.12507
0.704797
0.456125
5.14104
5.0213
5.13343
5.30973
5.46018
5.53623
5.52261
5.41722
5.2387
5.0038
4.73245
4.43397
4.13795
3.8694
3.66518
3.5598
3.59033
3.76219
3.97216
4.10837
4.09372
3.9178
3.60866
3.20524
2.74336
2.25299
1.74213
1.23139
0.816358
0.545303
4.62876
4.44538
4.55116
4.74954
4.94212
5.06868
5.1109
5.06202
4.93654
4.75211
4.52954
4.27782
4.02483
3.80014
3.64453
3.59448
3.6766
3.86384
4.0423
4.12381
4.0591
3.8552
3.54034
3.14865
2.71051
2.25191
1.78827
1.31714
0.91661
0.633493
4.08453
3.854
3.95394
4.17097
4.39768
4.5695
4.66376
4.67055
4.59987
4.46834
4.2975
4.096
3.89029
3.71309
3.60974
3.61796
3.74822
3.94336
4.08926
4.11926
4.01068
3.78361
3.46528
3.08544
2.67012
2.24372
1.81648
1.38212
1.00103
0.714273
3.53731
3.29219
3.3812
3.60237
3.85159
4.05934
4.19989
4.25542
4.23888
4.1604
4.04234
3.8928
3.73676
3.61076
3.56174
3.6288
3.79974
3.99414
4.1061
4.08915
3.94544
3.70205
3.38425
3.01798
2.62582
2.22983
1.82911
1.42707
1.06729
0.784164
3.06706
2.79354
2.86023
3.073
3.33173
3.56419
3.73985
3.83536
3.86618
3.83833
3.77161
3.67384
3.56852
3.49567
3.50166
3.62489
3.82544
4.01096
4.08851
4.03237
3.86262
3.61065
3.29872
2.94904
2.5829
2.20786
1.82753
1.45395
1.1157
0.841185
2.67819
2.36948
2.4036
2.59577
2.85174
3.09817
3.29795
3.42917
3.49819
3.51326
3.4937
3.44527
3.39036
3.3713
3.42945
3.60355
3.82467
3.99145
4.035
3.94926
3.76345
3.51111
3.21136
2.88291
2.53924
2.17991
1.81729
1.46598
1.14795
0.884647
2.37073
2.03324
2.02423
2.18278
2.42237
2.6711
2.88572
3.04474
3.14595
3.19795
3.21743
3.2135
3.20771
3.23905
3.34704
3.56247
3.78829
3.93489
3.9483
3.84291
3.65176
3.40758
3.12721
2.8228
2.49314
2.14727
1.79959
1.46498
1.16595
0.915186
2.16797
1.80674
1.73915
1.84982
2.05643
2.29318
2.51244
2.68899
2.81688
2.90006
2.95338
2.9855
3.02495
3.10284
3.25635
3.50124
3.72078
3.84521
3.83567
3.72115
3.53567
3.30884
3.05508
2.76545
2.44641
2.11129
1.77606
1.45625
1.17226
0.93431
2.08718
1.71884
1.57492
1.61946
1.77188
1.97798
2.18835
2.37142
2.51698
2.62543
2.70682
2.77052
2.84886
2.96862
3.16133
3.42325
3.62916
3.73248
3.70973
3.59788
3.4308
3.23058
2.99243
2.71196
2.40056
2.07342
1.74824
1.44122
1.16962
0.943863
2.1371
1.77535
1.57119
1.51905
1.59234
1.74435
1.92654
2.1027
2.25555
2.38108
2.48576
2.57763
2.6882
2.84498
3.06974
3.33837
3.52789
3.61469
3.59166
3.49795
3.35783
3.17201
2.94101
2.66533
2.35791
2.0358
1.71813
1.42173
1.1613
0.945355
2.31588
1.95771
1.70683
1.56856
1.54365
1.61732
1.7457
1.89619
2.04357
2.17681
2.29931
2.41609
2.55795
2.74491
2.99617
3.2663
3.44209
3.52282
3.51898
3.44862
3.31987
3.13592
2.90689
2.63006
2.32207
2.00129
1.68821
1.4
1.14894
0.941719
2.65981
2.294
2.00123
1.78239
1.65183
1.6148
1.66961
1.7705
1.89553
2.02578
2.16033
2.29931
2.47607
2.69256
2.96776
3.24254
3.41668
3.51263
3.52934
3.46502
3.32671
3.14595
2.89988
2.613
2.29869
1.97399
1.66181
1.37868
1.13466
0.934772
3.17986
2.78823
2.45175
2.16066
1.92856
1.77801
1.7229
1.74834
1.83368
1.94873
2.09024
2.25378
2.4664
2.72737
3.04218
3.33315
3.5309
3.64064
3.66474
3.58776
3.45285
3.25861
2.98079
2.64615
2.2977
1.96005
1.64375
1.36109
1.12088
0.926065
3.8732
3.44392
3.05868
2.70088
2.37844
2.11642
1.94503
1.87402
1.8937
1.98246
2.12982
2.32435
2.58989
2.91424
3.30031
3.64184
3.87792
4.00199
4.00994
3.91977
3.77874
3.52903
3.1893
2.79241
2.37741
1.98612
1.64232
1.35189
1.1109
0.91744
4.7615
4.28506
3.84524
3.42301
3.02196
2.66293
2.38186
2.20935
2.15422
2.20649
2.36305
2.60467
2.95239
3.38418
3.90031
4.34345
4.64915
4.77364
4.76645
4.67125
4.45706
4.08729
3.62189
3.11188
2.59951
2.12174
1.70565
1.37217
1.11144
0.912662
5.91105
5.38211
4.88552
4.40312
3.93713
3.50408
3.13823
2.88127
2.76321
2.78912
2.97709
3.30817
3.80204
4.42093
5.17569
5.80247
6.22777
6.3543
6.35553
6.20578
5.79226
5.18803
4.48465
3.76104
3.06963
2.44581
1.90804
1.47938
1.1551
0.925999
7.48038
6.90324
6.35862
5.83205
5.32728
4.85937
4.45983
4.17387
4.04567
4.10607
4.39708
4.91519
5.68366
6.63879
7.81058
8.73197
9.35585
9.53715
9.54345
9.13358
8.35245
7.32358
6.19521
5.08193
4.05458
3.15021
2.38268
1.76658
1.30936
0.999822
9.83109
9.22584
8.66284
8.13405
7.64791
7.22205
6.88958
6.69793
6.69529
6.9486
7.51137
8.4083
9.6721
11.1942
13.0018
14.318
15.2033
15.5141
15.283
14.4459
13.0759
11.3633
9.54486
7.78007
6.1536
4.72176
3.49255
2.48419
1.72564
1.2334
13.679
13.1497
12.6241
12.1746
11.817
11.5733
11.485
11.6048
11.9878
12.6966
13.7958
15.3322
17.3501
19.65
22.2284
23.8419
24.8325
25.0376
24.4221
23.0512
20.995
18.4507
15.7529
13.0954
10.5575
8.2438
6.15568
4.33559
2.90238
2.0088
20.2903
19.9691
19.6823
19.4289
19.3569
19.4825
19.8769
20.5661
21.5761
22.9653
24.784
27.0895
29.9302
32.9182
35.9555
36.8547
36.9347
36.2489
35.1007
33.4397
31.3177
28.7732
25.7498
22.4134
18.9413
15.5735
12.2465
9.04298
6.31638
4.68235
30.8674
30.7378
30.8947
31.2688
31.7011
32.3304
33.2749
34.5175
36.0682
37.9837
40.2933
43.0309
46.1756
48.9717
50.7572
49.0523
47.5361
45.7818
44.1876
42.5243
40.8119
38.9596
36.8972
34.4997
31.6302
28.0162
23.8952
19.3547
15.0863
12.6881
42.5958
42.7416
43.6222
44.8751
46.2143
47.5072
48.702
49.9581
51.4026
53.1079
55.0599
57.1702
59.3184
60.1048
59.4105
54.8785
51.7803
49.087
47.1701
45.7039
44.7613
44.1627
43.717
43.1536
42.1586
40.5431
38.1593
34.9444
31.0469
28.8099
44.3519
45.392
47.1844
49.2695
51.2075
52.7694
53.9227
54.8461
55.7719
56.8465
58.0105
58.9806
59.4279
58.375
55.4026
49.3418
45.529
42.5052
40.5439
39.2775
38.7992
39.0278
39.7798
40.7028
41.5029
42.0291
42.2299
42.133
41.6811
41.2084
17.6328
21.7902
23.0822
23.5652
23.6937
23.4303
22.7865
21.8395
20.6514
19.2879
17.7764
16.187
14.531
12.9209
11.4037
10.1287
9.29877
9.75711
11.6874
13.6619
14.2297
13.2546
11.2348
8.69466
5.98911
3.44105
1.44691
0.441574
0.500826
0.536751
9.71707
10.5962
10.8888
10.9577
10.9316
10.7758
10.4673
10.0231
9.47425
8.84493
8.16373
7.44324
6.7213
6.00672
5.36924
4.82732
4.54856
4.95463
6.16279
7.35088
7.76153
7.37863