/*--------------------------------*- C++ -*----------------------------------*\
| =========                 |                                                 |
| \\      /  F ield         | OpenFOAM: The Open Source CFD Toolbox           |
|  \\    /   O peration     | Version:  v1912                                 |
|   \\  /    A nd           | Website:  www.openfoam.com                      |
|    \\/     M anipulation  |                                                 |
\*---------------------------------------------------------------------------*/
FoamFile
{
    version     2.0;
    format      ascii;
    class       volScalarField;
    location    "2000/air";
    object      k;
}
// * * * * * * * * * * * * * * * * * * * * * * * * * * * * * * * * * * * * * //

dimensions      [0 2 -2 0 0 0 0];


internalField   nonuniform List<scalar> 
243000
(
0.0761183
0.0847788
0.0875656
0.0882234
0.0871494
0.0848559
0.0816536
0.0778174
0.0735701
0.069126
0.0646482
0.0602678
0.0559979
0.0519173
0.0480584
0.0445189
0.041357
0.038712
0.0366555
0.0350148
0.0334886
0.0317359
0.0294954
0.0266737
0.0233947
0.0197415
0.0158949
0.0125594
0.0174946
0.0217566
0.115053
0.128704
0.13162
0.130925
0.127977
0.12356
0.118203
0.11229
0.106071
0.0997626
0.0935008
0.0873955
0.0814558
0.0758204
0.0705618
0.0657837
0.0615186
0.0579809
0.0551824
0.0530048
0.0510778
0.0489451
0.0461724
0.0425332
0.0380637
0.0328065
0.026516
0.0209446
0.0224727
0.0298526
0.133949
0.148822
0.152995
0.152613
0.149473
0.144561
0.138518
0.131788
0.124672
0.117436
0.11024
0.103218
0.0964049
0.0899823
0.0840432
0.0787064
0.0739915
0.0701214
0.0670471
0.0646088
0.0624061
0.0599651
0.0568093
0.0526474
0.0474623
0.0413125
0.0340387
0.0272244
0.0243731
0.0311307
0.142986
0.158893
0.164468
0.165204
0.162775
0.158277
0.152389
0.145602
0.138259
0.130671
0.12304
0.115555
0.108279
0.101433
0.0951388
0.0895357
0.0846335
0.0806463
0.0774449
0.0748131
0.0723332
0.0695574
0.066027
0.0614303
0.0557088
0.0489246
0.0410018
0.0334133
0.0288463
0.0312527
0.14472
0.160749
0.168679
0.171144
0.170004
0.166485
0.161286
0.154942
0.147832
0.140315
0.132634
0.125029
0.117606
0.110624
0.104225
0.0985763
0.0936756
0.0897133
0.0864801
0.0837027
0.0809606
0.0778547
0.0739731
0.0690199
0.0629103
0.0556976
0.0473687
0.0392371
0.0333386
0.0320243
0.141373
0.157544
0.167454
0.172019
0.172598
0.170411
0.166251
0.160686
0.154136
0.147007
0.139567
0.132108
0.124778
0.117884
0.111563
0.106037
0.101274
0.0974331
0.0942279
0.0913424
0.088369
0.084958
0.0807617
0.0755192
0.0691321
0.0616388
0.053065
0.0445321
0.0377073
0.0336274
0.13401
0.150931
0.162653
0.169183
0.171625
0.171043
0.168086
0.163488
0.157752
0.15125
0.144274
0.137166
0.130114
0.123475
0.117376
0.112093
0.107568
0.103908
0.100771
0.0978118
0.0946442
0.0909675
0.0865005
0.0810265
0.0744471
0.0667761
0.0580583
0.0492577
0.0417981
0.0362254
0.123579
0.141641
0.15503
0.163505
0.167863
0.168974
0.167496
0.164071
0.159178
0.153443
0.147108
0.140513
0.133885
0.127614
0.121849
0.116897
0.112678
0.109236
0.106195
0.103195
0.0998746
0.0959805
0.0912903
0.0856374
0.0789303
0.0711569
0.0623795
0.0534669
0.0455833
0.0390487
0.111417
0.130505
0.145418
0.155711
0.161957
0.164771
0.164831
0.162716
0.158989
0.154084
0.14839
0.142415
0.136311
0.1305
0.125147
0.120583
0.116712
0.113511
0.110586
0.107577
0.104147
0.100086
0.0952251
0.0894422
0.0826591
0.0748562
0.0660299
0.0571069
0.0489242
0.0418597
0.100081
0.11918
0.134885
0.146539
0.154483
0.158953
0.160554
0.159827
0.157273
0.153362
0.148528
0.143129
0.137599
0.132305
0.127415
0.123274
0.11977
0.116821
0.114026
0.111036
0.10754
0.103366
0.0983879
0.0925236
0.085722
0.0778909
0.0690275
0.0602207
0.0518648
0.0444176
0.090148
0.108133
0.124435
0.137117
0.146134
0.152008
0.155063
0.155716
0.15438
0.151505
0.14752
0.142896
0.137958
0.133184
0.128784
0.125078
0.121944
0.119251
0.116597
0.11365
0.110132
0.105896
0.100856
0.0949663
0.0881606
0.0803126
0.0714869
0.0628664
0.0544323
0.0466623
0.0827108
0.0976123
0.113945
0.12759
0.137758
0.144659
0.14878
0.150676
0.150545
0.148727
0.145646
0.141771
0.137487
0.133292
0.129374
0.126097
0.123319
0.120882
0.118374
0.115496
0.111995
0.107749
0.102712
0.0968268
0.0900167
0.0821764
0.0736132
0.0651493
0.0566747
0.0486682
0.0791793
0.0884242
0.103542
0.117838
0.129171
0.137219
0.142351
0.14509
0.146006
0.145218
0.143048
0.139955
0.136332
0.132705
0.129282
0.126423
0.123987
0.121786
0.119433
0.116644
0.113206
0.10901
0.103996
0.0981286
0.0913386
0.0835375
0.0753581
0.0670887
0.0586132
0.0504449
0.0808803
0.0822235
0.093852
0.107944
0.120272
0.129541
0.135796
0.139478
0.141133
0.141189
0.139879
0.137565
0.134607
0.131544
0.128603
0.126142
0.124008
0.122042
0.119853
0.117186
0.113827
0.109685
0.10472
0.0989088
0.0921706
0.0845837
0.0767681
0.0687082
0.0602625
0.0520024
0.0882788
0.0811827
0.0863866
0.0984298
0.111131
0.121543
0.129005
0.133732
0.136225
0.136949
0.136318
0.134723
0.132416
0.1299
0.127422
0.125334
0.123489
0.121732
0.119684
0.11711
0.113843
0.10979
0.10491
0.0991883
0.0925584
0.0853796
0.0778896
0.0700346
0.0616371
0.0533507
0.100329
0.0874642
0.0837149
0.0906637
0.102202
0.113289
0.121918
0.127774
0.1312
0.132666
0.132628
0.131573
0.129857
0.127861
0.12582
0.124077
0.122496
0.120935
0.119042
0.116601
0.113427
0.10947
0.10468
0.0990523
0.0926927
0.0859236
0.078743
0.0710871
0.0627483
0.0544881
0.115726
0.100456
0.088701
0.0871373
0.0946889
0.105174
0.114603
0.121568
0.126003
0.128289
0.1289
0.128324
0.127046
0.125513
0.123871
0.122444
0.121106
0.119727
0.117988
0.115687
0.112654
0.108805
0.104126
0.0986373
0.092661
0.0862511
0.0793541
0.0718848
0.0636084
0.055415
0.132142
0.116955
0.101176
0.0907648
0.0907708
0.0982178
0.107404
0.115185
0.120616
0.123779
0.125093
0.125059
0.124156
0.122955
0.121656
0.120511
0.119393
0.118185
0.116597
0.114443
0.111563
0.107861
0.103327
0.0981628
0.0925112
0.0864007
0.0797516
0.0724497
0.0642312
0.0561206
0.148754
0.134542
0.118066
0.102068
0.0931057
0.094233
0.101149
0.108914
0.115106
0.119131
0.121187
0.121738
0.121267
0.120321
0.119264
0.118352
0.117431
0.116383
0.114945
0.112943
0.110227
0.106704
0.102454
0.0976198
0.0922611
0.0863963
0.0799629
0.0728052
0.0646353
0.0566709
0.165688
0.152292
0.136406
0.118519
0.102735
0.0953962
0.0972759
0.103395
0.109704
0.114406
0.117184
0.118343
0.11835
0.117714
0.116833
0.116062
0.115298
0.114396
0.113106
0.111262
0.108725
0.105482
0.101557
0.0970246
0.0919313
0.0862853
0.0800205
0.0729791
0.0648427
0.057091
0.182755
0.169705
0.154672
0.13689
0.11783
0.102973
0.0974025
0.0996719
0.10488
0.109781
0.113139
0.114886
0.115385
0.115109
0.114455
0.113781
0.113094
0.112308
0.11116
0.109498
0.107225
0.10428
0.100655
0.0964013
0.0915508
0.0860997
0.0799688
0.0730002
0.0648744
0.0574296
0.199779
0.187218
0.172708
0.155445
0.135499
0.11592
0.102795
0.0989857
0.101386
0.105599
0.109188
0.111415
0.112385
0.112494
0.112112
0.111587
0.111003
0.110303
0.109297
0.107828
0.105795
0.103123
0.0997814
0.0957907
0.091165
0.0858851
0.0798599
0.0729261
0.0647916
0.0579074
0.21665
0.204392
0.190205
0.17341
0.153576
0.131892
0.113017
0.102329
0.100098
0.102387
0.105587
0.108047
0.10941
0.109893
0.109814
0.109483
0.109032
0.108439
0.10757
0.106281
0.104472
0.102056
0.0989867
0.0952503
0.0908403
0.0857147
0.0797628
0.0728193
0.0646639
0.0590977
0.233334
0.221064
0.206989
0.190499
0.171029
0.148764
0.126495
0.109724
0.101806
0.100794
0.102746
0.105012
0.106597
0.107404
0.107634
0.107537
0.10725
0.106788
0.106059
0.104945
0.103343
0.101168
0.0983583
0.0948656
0.0906552
0.0856657
0.0797623
0.0727606
0.064567
0.0609649
0.248835
0.236674
0.222779
0.206583
0.18754
0.165432
0.141656
0.120527
0.106935
0.10159
0.101291
0.102779
0.104302
0.105329
0.105858
0.10603
0.105946
0.105642
0.105061
0.104106
0.102684
0.100707
0.0980976
0.0948027
0.0907739
0.0859183
0.0800448
0.0729193
0.0646266
0.0635758
0.263798
0.251761
0.238061
0.222193
0.203647
0.182057
0.157991
0.13435
0.11604
0.105935
0.102499
0.102488
0.103592
0.10472
0.105556
0.106053
0.106231
0.106116
0.105669
0.10482
0.103497
0.10163
0.0991513
0.0959834
0.092047
0.0872033
0.0812094
0.0737501
0.0652251
0.0672059
0.279743
0.268047
0.254729
0.239354
0.221494
0.200789
0.177348
0.152915
0.131483
0.116989
0.109936
0.107873
0.108222
0.109416
0.11069
0.111656
0.112168
0.112225
0.111789
0.110828
0.109321
0.107249
0.104573
0.101212
0.0970449
0.0918842
0.0853836
0.0771082
0.0677363
0.0730326
0.300944
0.289983
0.277504
0.263264
0.247007
0.228431
0.207364
0.184576
0.162746
0.145828
0.135998
0.132166
0.131983
0.133613
0.135689
0.137306
0.138065
0.137967
0.136977
0.135157
0.132604
0.129412
0.125624
0.121143
0.11573
0.109187
0.101054
0.0905639
0.0786322
0.0865482
0.344556
0.335526
0.326011
0.315969
0.305108
0.293019
0.279069
0.26324
0.246535
0.23227
0.223415
0.220029
0.220486
0.223323
0.226409
0.228431
0.228738
0.22756
0.224971
0.221131
0.216326
0.210797
0.204737
0.197926
0.189431
0.179702
0.16817
0.153543
0.136476
0.142203
0.50793
0.504992
0.505902
0.5067
0.506575
0.505119
0.501758
0.496505
0.487825
0.479292
0.473225
0.469789
0.468709
0.470373
0.472213
0.47343
0.472839
0.472078
0.470913
0.469728
0.468446
0.467366
0.466419
0.465119
0.458617
0.451895
0.443299
0.431082
0.415024
0.411756
0.111999
0.129152
0.135288
0.137131
0.135907
0.132486
0.127539
0.121618
0.115087
0.108242
0.101261
0.0943613
0.0876222
0.0812857
0.0754351
0.0702835
0.0659036
0.0625677
0.060302
0.0586758
0.0567447
0.053589
0.0486692
0.041919
0.0338093
0.0249579
0.0169768
0.0146958
0.0198389
0.023051
0.174903
0.200198
0.205665
0.203026
0.195926
0.186437
0.175766
0.164632
0.153437
0.142514
0.131993
0.122062
0.112704
0.104174
0.0965243
0.0899598
0.0843914
0.0802811
0.077681
0.0762084
0.0747749
0.0721776
0.0673708
0.0599688
0.0503865
0.0394742
0.0277884
0.0237464
0.0316222
0.0325652
0.207191
0.236598
0.245794
0.245004
0.238682
0.22911
0.217708
0.205349
0.192581
0.179883
0.167487
0.155679
0.144486
0.134282
0.1252
0.117496
0.111009
0.106213
0.102979
0.100836
0.0986731
0.0952618
0.0894392
0.0806766
0.0692454
0.0559649
0.0411426
0.0308611
0.0322351
0.0344757
0.221408
0.252583
0.264254
0.266234
0.262207
0.254393
0.244131
0.232356
0.219706
0.206765
0.193863
0.18139
0.169456
0.158541
0.148892
0.140799
0.134046
0.129037
0.125414
0.122616
0.119584
0.115215
0.108401
0.0985749
0.0859194
0.0711321
0.0545377
0.0400781
0.0340831
0.0339351
0.222352
0.251551
0.267293
0.273393
0.272563
0.267416
0.259204
0.24898
0.237379
0.225117
0.212579
0.200249
0.188329
0.177401
0.167805
0.15986
0.153289
0.14838
0.144565
0.141212
0.137347
0.132051
0.124364
0.113762
0.100375
0.0847586
0.0672706
0.0504922
0.0401158
0.0359402
0.216047
0.242876
0.261177
0.270623
0.273485
0.271434
0.265689
0.257627
0.247613
0.236667
0.225087
0.213476
0.202118
0.191685
0.182574
0.175157
0.169077
0.164477
0.160606
0.156795
0.15219
0.146063
0.137648
0.126513
0.112748
0.0967886
0.0790073
0.0611765
0.0483369
0.0412733
0.203801
0.228594
0.248377
0.260977
0.267422
0.268846
0.266034
0.259972
0.251799
0.242741
0.232535
0.222083
0.211691
0.202132
0.193796
0.187179
0.181799
0.177642
0.173815
0.169642
0.164411
0.157579
0.148583
0.137113
0.123236
0.107272
0.0895981
0.0715399
0.0574014
0.0484766
0.186648
0.209077
0.230482
0.246234
0.256255
0.260855
0.260822
0.257515
0.251951
0.244467
0.235791
0.226877
0.217747
0.209306
0.201967
0.196329
0.191776
0.188146
0.184437
0.180006
0.17428
0.166892
0.157463
0.145825
0.132038
0.11631
0.0990147
0.0812457
0.066515
0.0559294
0.164513
0.185805
0.20905
0.227881
0.241377
0.248839
0.251747
0.25139
0.248287
0.24293
0.236214
0.228594
0.220875
0.21369
0.2075
0.202938
0.199279
0.196216
0.19269
0.188109
0.182029
0.174242
0.164542
0.152898
0.139358
0.124031
0.107326
0.090134
0.0752224
0.0632518
0.143727
0.162922
0.186612
0.207606
0.224144
0.23423
0.240135
0.242564
0.242005
0.238867
0.23399
0.22799
0.221608
0.215715
0.210751
0.207294
0.204544
0.202057
0.198765
0.194137
0.187853
0.179838
0.170041
0.158556
0.145395
0.130634
0.114615
0.0981907
0.083331
0.0702083
0.127434
0.142675
0.16513
0.187681
0.206182
0.218346
0.226984
0.231942
0.233738
0.232747
0.22968
0.225309
0.220347
0.215819
0.212035
0.209649
0.207779
0.205853
0.202835
0.198266
0.19194
0.183884
0.174177
0.163018
0.150314
0.136103
0.121049
0.105292
0.090613
0.0766692
0.115858
0.125494
0.145203
0.16801
0.188111
0.202702
0.213385
0.220337
0.224125
0.225048
0.223757
0.220992
0.217483
0.214228
0.211615
0.210236
0.209173
0.207776
0.205061
0.200658
0.194475
0.186605
0.177194
0.166362
0.154113
0.140558
0.126442
0.111427
0.0969295
0.0825258
0.109261
0.112259
0.127599
0.149048
0.170053
0.186948
0.199742
0.208578
0.213786
0.216327
0.216666
0.21542
0.213298
0.211284
0.209748
0.209278
0.208913
0.207999
0.205615
0.201454
0.195491
0.187924
0.178907
0.16856
0.156896
0.144303
0.130931
0.11659
0.102304
0.0875621
0.110044
0.104552
0.113571
0.131567
0.152284
0.171108
0.185965
0.196551
0.203373
0.207178
0.208838
0.208952
0.208102
0.207224
0.206673
0.206985
0.207224
0.206717
0.204672
0.200795
0.195035
0.18777
0.179279
0.169662
0.158766
0.147218
0.134569
0.120845
0.106764
0.0917591
0.117659
0.105129
0.10589
0.117912
0.135877
0.155467
0.172089
0.18432
0.192678
0.197932
0.200757
0.201936
0.202188
0.202307
0.202601
0.20356
0.204313
0.204164
0.202451
0.19896
0.193673
0.186784
0.17879
0.169844
0.160082
0.149347
0.137401
0.124248
0.110349
0.0951449
0.132632
0.11451
0.106022
0.110417
0.12341
0.141076
0.158398
0.172036
0.181857
0.18849
0.192593
0.194755
0.195862
0.196784
0.19776
0.199231
0.200398
0.200567
0.199187
0.196112
0.191359
0.185125
0.177743
0.169601
0.160794
0.150799
0.139494
0.126859
0.113112
0.0977595
0.155039
0.133378
0.117169
0.110931
0.116729
0.129573
0.145634
0.160036
0.171097
0.179006
0.184318
0.187561
0.189444
0.190936
0.192415
0.194255
0.195729
0.196181
0.195128
0.192501
0.18833
0.182889
0.176376
0.169142
0.160988
0.151673
0.140935
0.12875
0.115113
0.0996354
0.184342
0.160838
0.139404
0.123551
0.118145
0.123667
0.135507
0.149105
0.160766
0.169694
0.176089
0.180347
0.183102
0.185069
0.186873
0.188935
0.190618
0.191315
0.190582
0.188445
0.184938
0.180437
0.174923
0.168442
0.160873
0.152111
0.141833
0.130017
0.11643
0.100827
0.219667
0.195311
0.170961
0.148003
0.131604
0.126025
0.130439
0.140625
0.151578
0.160931
0.16814
0.173286
0.176862
0.179445
0.181535
0.183662
0.185476
0.186393
0.185994
0.184448
0.181751
0.178109
0.17346
0.167679
0.160647
0.152281
0.142337
0.130783
0.11716
0.101408
0.259955
0.235223
0.209265
0.181935
0.15674
0.139491
0.133363
0.136675
0.14475
0.153379
0.160863
0.166643
0.170935
0.174125
0.176682
0.179004
0.180942
0.182092
0.1821
0.181077
0.179052
0.176129
0.172268
0.167076
0.160472
0.152379
0.142631
0.131197
0.117406
0.101385
0.303948
0.279064
0.252073
0.222092
0.190981
0.163734
0.146095
0.139498
0.141835
0.148078
0.154912
0.160866
0.165678
0.169452
0.172563
0.17528
0.177485
0.178914
0.179279
0.178676
0.177202
0.17496
0.171642
0.166876
0.160585
0.15268
0.142965
0.131458
0.117331
0.101012
0.350346
0.325466
0.297675
0.265883
0.230961
0.196463
0.168414
0.150995
0.144881
0.146377
0.151309
0.156748
0.161789
0.166103
0.169856
0.173119
0.17571
0.177424
0.178123
0.177936
0.176937
0.175182
0.17235
0.167987
0.161823
0.153755
0.143753
0.131852
0.117159
0.100449
0.398072
0.373279
0.34486
0.311715
0.274285
0.235003
0.198988
0.171607
0.155875
0.150541
0.151628
0.155802
0.160698
0.165497
0.17005
0.174077
0.177201
0.179293
0.180309
0.180444
0.179772
0.178313
0.175691
0.171509
0.16533
0.156852
0.145862
0.132915
0.117103
0.0999492
0.446682
0.422147
0.393417
0.359451
0.32056
0.278483
0.237209
0.201891
0.177055
0.163971
0.159924
0.161458
0.165817
0.171159
0.176898
0.182062
0.185938
0.188548
0.189821
0.189962
0.189114
0.187253
0.1842
0.179561
0.17283
0.163512
0.151086
0.135828
0.117819
0.0998079
0.497497
0.473821
0.445609
0.411931
0.373085
0.330393
0.28677
0.246428
0.214675
0.194454
0.184921
0.183245
0.186911
0.19334
0.201254
0.208454
0.213565
0.216657
0.217708
0.21684
0.214328
0.210438
0.205225
0.19842
0.189492
0.177829
0.162501
0.143453
0.121035
0.101158
0.557052
0.53575
0.510025
0.47909
0.44325
0.403509
0.361849
0.321389
0.287325
0.263457
0.250623
0.247405
0.252168
0.262112
0.274861
0.286136
0.293272
0.296472
0.295661
0.290883
0.282916
0.272611
0.260604
0.246941
0.231207
0.212691
0.190184
0.162752
0.131792
0.107344
0.645557
0.629898
0.610682
0.587172
0.559753
0.529378
0.497114
0.465175
0.437517
0.418066
0.408753
0.410014
0.421295
0.439518
0.460787
0.478206
0.487823
0.490228
0.484786
0.47178
0.452551
0.428864
0.402229
0.373145
0.341399
0.306205
0.265963
0.218945
0.167211
0.132255
0.812813
0.805912
0.797248
0.785806
0.772558
0.758856
0.744547
0.729395
0.716037
0.708027
0.708311
0.719344
0.739496
0.765732
0.792564
0.812843
0.823002
0.823701
0.81338
0.792804
0.763299
0.726927
0.685553
0.639309
0.587484
0.529007
0.461428
0.380819
0.290659
0.240914
1.05561
1.05481
1.06149
1.0696
1.07686
1.08418
1.08569
1.08287
1.07845
1.07555
1.0798
1.09173
1.10841
1.12757
1.14292
1.15153
1.15347
1.14814
1.13512
1.11527
1.08984
1.05991
1.02611
0.986964
0.940129
0.883816
0.814068
0.724812
0.61655
0.564641
1.15787
1.16046
1.18186
1.20602
1.22235
1.22883
1.22651
1.21924
1.21149
1.20763
1.21
1.21414
1.21673
1.21772
1.2105
1.19853
1.18762
1.17504
1.16194
1.1491
1.1381
1.12948
1.12225
1.11508
1.10549
1.09265
1.07507
1.05226
1.01916
0.994715
0.148372
0.169752
0.175273
0.176942
0.1752
0.170787
0.164474
0.15693
0.148602
0.139865
0.130914
0.122042
0.113314
0.105091
0.0974976
0.0909104
0.0855186
0.0822524
0.0815706
0.0822111
0.0816642
0.0781426
0.0709944
0.0604403
0.0473513
0.0328351
0.0192703
0.0162518
0.0208868
0.0232937
0.236098
0.268533
0.276607
0.273896
0.265157
0.253167
0.23953
0.225252
0.21079
0.196503
0.182501
0.169032
0.156026
0.143903
0.132776
0.12305
0.114874
0.110216
0.109905
0.112411
0.114326
0.112834
0.106092
0.0938749
0.077218
0.058042
0.037732
0.0264791
0.0318344
0.0318746
0.284389
0.32125
0.334102
0.333885
0.326105
0.3139
0.299169
0.283155
0.266469
0.249621
0.232864
0.216574
0.200785
0.186071
0.17272
0.161172
0.151534
0.145958
0.145042
0.147103
0.148642
0.146667
0.138939
0.124975
0.105591
0.0826395
0.057629
0.0375531
0.0349608
0.0358109
0.313102
0.348466
0.363658
0.366416
0.360952
0.350468
0.336722
0.321024
0.304106
0.286596
0.268876
0.251439
0.234451
0.218616
0.204412
0.192291
0.182278
0.176364
0.174765
0.175791
0.176212
0.173204
0.164587
0.149661
0.128956
0.10409
0.0765799
0.0510441
0.0393478
0.0368528
0.326096
0.357474
0.374601
0.380683
0.37827
0.370571
0.358911
0.344685
0.328664
0.311647
0.294097
0.276612
0.259485
0.243547
0.229416
0.217552
0.207832
0.201931
0.199655
0.199422
0.198402
0.19415
0.184698
0.169265
0.14814
0.122601
0.0940733
0.0657165
0.0478828
0.0402923
0.326434
0.35239
0.370858
0.380495
0.382424
0.378321
0.369436
0.357509
0.343125
0.327448
0.310873
0.294148
0.277669
0.262395
0.248992
0.237983
0.229006
0.223338
0.22043
0.21886
0.216297
0.210724
0.200491
0.184816
0.163812
0.138414
0.109894
0.0805349
0.0590025
0.0473903
0.320157
0.34074
0.358756
0.370884
0.376571
0.376484
0.371176
0.36169
0.349369
0.335781
0.320771
0.305449
0.290223
0.276208
0.264023
0.254325
0.246412
0.241123
0.237652
0.234777
0.230686
0.223806
0.212843
0.197102
0.176543
0.151814
0.124001
0.0947971
0.0712573
0.0566634
0.308103
0.322003
0.339038
0.353374
0.362768
0.366614
0.365168
0.35913
0.349978
0.338217
0.32491
0.311555
0.298042
0.285706
0.275167
0.26711
0.26048
0.255668
0.251713
0.247643
0.242117
0.234023
0.222409
0.206722
0.186812
0.163118
0.13641
0.108146
0.0836658
0.0667808
0.28727
0.29678
0.31328
0.329826
0.342829
0.350568
0.353014
0.350655
0.344578
0.335628
0.325112
0.313414
0.301845
0.291516
0.282937
0.276738
0.27152
0.267245
0.262909
0.257793
0.250999
0.241844
0.229707
0.214176
0.195109
0.172451
0.147024
0.120061
0.0955887
0.0769131
0.259857
0.266606
0.283266
0.30219
0.318552
0.330008
0.336193
0.337516
0.33478
0.328865
0.320946
0.311677
0.30242
0.294174
0.287749
0.283526
0.279766
0.276066
0.271459
0.265483
0.257646
0.24765
0.235161
0.219953
0.201513
0.17997
0.156229
0.130541
0.106464
0.0865543
0.233859
0.237138
0.252858
0.272925
0.291909
0.306564
0.316236
0.320927
0.321543
0.31874
0.31361
0.30699
0.300075
0.294237
0.289963
0.287727
0.285408
0.282297
0.277539
0.270916
0.262317
0.25176
0.239189
0.224117
0.206327
0.185958
0.163787
0.139523
0.116098
0.0955416
0.211343
0.209817
0.223371
0.243671
0.264558
0.281997
0.294629
0.302226
0.305847
0.30607
0.30376
0.299818
0.295402
0.291919
0.289861
0.289556
0.288607
0.286086
0.2813
0.274267
0.265283
0.254453
0.241716
0.226912
0.209861
0.190964
0.169973
0.146982
0.124303
0.103498
0.19388
0.18606
0.196182
0.215494
0.237381
0.257025
0.272266
0.282646
0.288877
0.291666
0.292039
0.290702
0.288772
0.287642
0.287719
0.289206
0.289511
0.287577
0.282931
0.275772
0.266411
0.255363
0.242813
0.228528
0.212424
0.194786
0.174895
0.153037
0.131078
0.110232
0.18212
0.168091
0.173184
0.18975
0.211311
0.232362
0.249797
0.262623
0.271289
0.276488
0.279115
0.280166
0.280614
0.281711
0.283735
0.286867
0.288326
0.286964
0.28248
0.275233
0.265836
0.254902
0.24269
0.229201
0.214402
0.197626
0.178693
0.15782
0.136512
0.11573
0.18038
0.159454
0.157158
0.168543
0.18776
0.208908
0.227841
0.242719
0.253561
0.260954
0.265745
0.268782
0.271324
0.274409
0.27818
0.282769
0.285292
0.284479
0.280385
0.273451
0.264271
0.25368
0.242049
0.229509
0.215586
0.19961
0.181492
0.161456
0.14071
0.120039
0.187458
0.162898
0.151505
0.154849
0.168997
0.188097
0.207258
0.223533
0.236184
0.245504
0.252237
0.25712
0.261362
0.266092
0.271379
0.277196
0.280677
0.280458
0.276842
0.270444
0.261894
0.251969
0.241241
0.22946
0.216188
0.200871
0.183414
0.164067
0.143784
0.123238
0.204075
0.177076
0.158629
0.15209
0.158248
0.172169
0.189439
0.205914
0.219735
0.230593
0.238991
0.24552
0.25126
0.257204
0.263718
0.270528
0.274839
0.275291
0.272294
0.26661
0.258969
0.250217
0.240388
0.229183
0.216377
0.20156
0.184598
0.165774
0.145845
0.125407
0.232332
0.20357
0.179709
0.163576
0.158097
0.164192
0.176516
0.191176
0.205025
0.216778
0.226455
0.234369
0.241435
0.248307
0.255746
0.263307
0.268325
0.269546
0.267344
0.262653
0.256327
0.248621
0.239523
0.228829
0.216342
0.20184
0.18519
0.166718
0.147012
0.126637
0.271079
0.241026
0.21339
0.189501
0.172995
0.167072
0.171242
0.181221
0.193244
0.204834
0.215206
0.224159
0.232346
0.240153
0.248301
0.256356
0.261998
0.264102
0.263028
0.259494
0.254211
0.247418
0.238924
0.228589
0.216289
0.201896
0.185351
0.167045
0.147398
0.127008
0.318178
0.287065
0.25668
0.22718
0.20134
0.183419
0.17607
0.178175
0.186056
0.195876
0.206084
0.21559
0.2247
0.233466
0.242434
0.250986
0.257307
0.260371
0.260268
0.257744
0.253309
0.247079
0.238921
0.228836
0.216536
0.202012
0.185341
0.166996
0.147232
0.126719
0.371363
0.339169
0.306493
0.272874
0.240099
0.211914
0.19274
0.184399
0.185022
0.191446
0.200407
0.20984
0.219678
0.22941
0.239425
0.248774
0.255859
0.259712
0.260549
0.258891
0.255199
0.249536
0.241626
0.231151
0.218069
0.202845
0.185611
0.166902
0.14681
0.126001
0.428566
0.395245
0.360509
0.32369
0.285946
0.250108
0.220703
0.201551
0.193346
0.193777
0.199894
0.208781
0.219117
0.230151
0.241685
0.252321
0.260335
0.264959
0.266589
0.265569
0.262146
0.256424
0.248198
0.237084
0.222841
0.205747
0.187002
0.167192
0.146376
0.125025
0.488513
0.454204
0.417765
0.378551
0.337422
0.296477
0.25959
0.231167
0.213885
0.207389
0.209216
0.216651
0.227522
0.240297
0.254321
0.267095
0.276369
0.281923
0.284096
0.283091
0.278953
0.27196
0.262114
0.249188
0.232973
0.213503
0.191589
0.169092
0.146323
0.124096
0.551686
0.516991
0.479736
0.439366
0.396626
0.353153
0.312054
0.27738
0.25277
0.239775
0.23705
0.242792
0.254734
0.270412
0.289021
0.305407
0.31679
0.323335
0.325442
0.322932
0.316018
0.305307
0.29126
0.273995
0.253507
0.229849
0.203269
0.175665
0.148455
0.123851
0.622442
0.58891
0.552753
0.513497
0.471818
0.429107
0.387853
0.351439
0.323652
0.30713
0.301955
0.30784
0.323065
0.344534
0.370886
0.393097
0.407497
0.414782
0.415277
0.408352
0.394832
0.375915
0.352896
0.326549
0.297167
0.264934
0.229898
0.193169
0.157736
0.127766
0.7137
0.684352
0.652654
0.618253
0.581747
0.544462
0.508557
0.476818
0.452594
0.438742
0.436456
0.44739
0.469988
0.500931
0.537554
0.566556
0.583598
0.5905
0.586908
0.572231
0.547916
0.515807
0.478197
0.436584
0.391604
0.343531
0.292161
0.238131
0.185656
0.145183
0.85292
0.832751
0.809691
0.784721
0.75822
0.731811
0.707295
0.686797
0.672722
0.667494
0.673793
0.693576
0.725344
0.765419
0.809033
0.840273
0.856342
0.860279
0.850992
0.82846
0.794437
0.750708
0.699488
0.642184
0.579195
0.510373
0.434973
0.352192
0.268527
0.209325
1.07277
1.06399
1.0548
1.04299
1.02955
1.01643
1.00471
0.995629
0.990935
0.993204
1.00597
1.03047
1.06483
1.10358
1.13956
1.15832
1.16415
1.15913
1.14394
1.12026
1.08788
1.0478
1.00056
0.945256
0.879975
0.802517
0.711702
0.603472
0.485938
0.412752
1.31665
1.31386
1.32187
1.33185
1.33678
1.33489
1.32879
1.32105
1.3153
1.31474
1.32285
1.339
1.35916
1.37432
1.37814
1.36308
1.34638
1.32667
1.30709
1.28706
1.26873
1.25165
1.23455
1.21364
1.18431
1.14106
1.07711
0.990511
0.884426
0.826487
1.35431
1.36439
1.38728
1.41111
1.42683
1.432
1.42664
1.41539
1.4046
1.39833
1.39787
1.39913
1.39758
1.38864
1.36612
1.3286
1.29771
1.26928
1.24747
1.23174
1.22424
1.22402
1.22996
1.23797
1.24379
1.24378
1.23776
1.22452
1.20165
1.18567
0.183214
0.20788
0.212662
0.212575
0.209756
0.204287
0.196756
0.187835
0.177982
0.167619
0.156922
0.146236
0.135575
0.125437
0.11598
0.107858
0.101707
0.100389
0.105042
0.11151
0.114041
0.110327
0.100502
0.0856374
0.0669154
0.0458614
0.0249127
0.0171955
0.0208764
0.022705
0.295133
0.332429
0.339116
0.335887
0.326007
0.312275
0.296563
0.27994
0.262903
0.245795
0.228643
0.211715
0.194846
0.178723
0.163586
0.150352
0.140263
0.139045
0.147797
0.160513
0.168801
0.168555
0.158439
0.139545
0.113651
0.0832998
0.0522341
0.0298224
0.0290691
0.0295001
0.359307
0.400384
0.413202
0.413081
0.404384
0.390489
0.3735
0.35469
0.334751
0.314206
0.293289
0.272389
0.251539
0.23164
0.213276
0.197394
0.185495
0.183827
0.192783
0.205937
0.214657
0.214551
0.203552
0.182423
0.15281
0.11697
0.0788742
0.0448973
0.0350098
0.0352187
0.401044
0.43851
0.454966
0.458061
0.451945
0.439864
0.42373
0.404865
0.384157
0.362267
0.339652
0.316785
0.293963
0.272221
0.252508
0.235701
0.22334
0.221324
0.229234
0.240842
0.24827
0.247331
0.235724
0.213917
0.183025
0.144948
0.103305
0.0623163
0.0424157
0.0378074
0.426324
0.458261
0.475633
0.481834
0.479118
0.469942
0.455812
0.438088
0.417879
0.395952
0.372974
0.349486
0.326029
0.303775
0.283923
0.2673
0.255286
0.253032
0.259319
0.268445
0.273718
0.271342
0.259151
0.237313
0.20651
0.168185
0.125367
0.0809308
0.0534666
0.0426584
0.437364
0.460398
0.478497
0.489019
0.490642
0.485138
0.473837
0.45812
0.439411
0.418449
0.396138
0.373072
0.350022
0.328303
0.309199
0.293594
0.282491
0.280063
0.284463
0.290689
0.293366
0.289158
0.276299
0.254705
0.224752
0.18743
0.145173
0.0998352
0.0671805
0.0509073
0.435932
0.453109
0.470783
0.483628
0.489434
0.488138
0.480229
0.467142
0.450854
0.431653
0.410911
0.389136
0.36735
0.347018
0.329418
0.315494
0.305725
0.303143
0.305555
0.308762
0.308635
0.3024
0.288795
0.267564
0.238873
0.203316
0.162168
0.117765
0.0822576
0.0615482
0.427714
0.437851
0.453512
0.468146
0.477725
0.48077
0.477177
0.468124
0.454192
0.436872
0.418547
0.398793
0.379034
0.360737
0.345347
0.33362
0.325464
0.322715
0.323133
0.32342
0.320396
0.31215
0.297782
0.277007
0.24954
0.215677
0.176562
0.134094
0.0975428
0.0733795
0.410076
0.413957
0.428012
0.444287
0.45741
0.464623
0.465599
0.460445
0.450229
0.436825
0.420666
0.402965
0.385844
0.37018
0.357568
0.348417
0.341992
0.339062
0.337541
0.335051
0.329296
0.319176
0.304119
0.283558
0.257112
0.225222
0.188887
0.148666
0.112102
0.085426
0.385144
0.38311
0.395942
0.413891
0.430288
0.441604
0.44697
0.446155
0.439992
0.43006
0.41734
0.403231
0.388539
0.375965
0.366545
0.360207
0.355479
0.352335
0.349044
0.343981
0.335804
0.324051
0.308357
0.287802
0.262403
0.232713
0.198814
0.16104
0.125384
0.0970952
0.355461
0.348796
0.360279
0.379157
0.398353
0.413473
0.423096
0.426477
0.424616
0.418564
0.409701
0.399006
0.387837
0.378606
0.372654
0.369216
0.366042
0.362629
0.357741
0.350466
0.340284
0.327352
0.310849
0.290412
0.266089
0.238602
0.206586
0.171108
0.136806
0.107956
0.32697
0.314509
0.323799
0.342747
0.36394
0.38227
0.395715
0.402982
0.405271
0.403281
0.398424
0.391559
0.384076
0.378651
0.376199
0.375596
0.373761
0.370044
0.363779
0.354738
0.343213
0.329049
0.312055
0.291937
0.269019
0.242776
0.212428
0.179004
0.146183
0.117421
0.301266
0.28235
0.288501
0.306456
0.328703
0.349544
0.366203
0.377276
0.383349
0.385186
0.384322
0.381397
0.377848
0.376303
0.377421
0.379464
0.378722
0.374699
0.367357
0.357224
0.344399
0.32942
0.31238
0.292959
0.271155
0.245637
0.2166
0.184945
0.153585
0.125296
0.279265
0.254763
0.256691
0.272249
0.294266
0.316664
0.335893
0.350334
0.359923
0.365434
0.368202
0.36912
0.369612
0.371944
0.376547
0.380954
0.381054
0.376853
0.368827
0.357598
0.344183
0.329153
0.31238
0.29394
0.272414
0.247422
0.219362
0.189172
0.159165
0.131552
0.26462
0.235373
0.231219
0.242625
0.262606
0.285164
0.306063
0.323138
0.335919
0.344813
0.351026
0.35538
0.359783
0.365892
0.373822
0.380253
0.38101
0.376667
0.368253
0.356842
0.343534
0.328845
0.312878
0.294567
0.273039
0.248308
0.220938
0.191911
0.163108
0.13626
0.26103
0.22866
0.215822
0.22085
0.236325
0.257002
0.278184
0.296912
0.312197
0.324078
0.333384
0.340944
0.34892
0.358594
0.36957
0.377688
0.379061
0.374923
0.36671
0.355674
0.342991
0.329099
0.313373
0.294853
0.273095
0.248352
0.221436
0.193361
0.165604
0.139544
0.268197
0.234926
0.215381
0.210606
0.218619
0.234694
0.25407
0.273052
0.289876
0.304061
0.31608
0.326588
0.337651
0.350606
0.364253
0.373782
0.375808
0.372217
0.364809
0.354835
0.343085
0.329522
0.313726
0.294918
0.272882
0.248002
0.221205
0.193707
0.16683
0.141527
0.286859
0.253061
0.228195
0.214472
0.212672
0.221211
0.236028
0.253207
0.270223
0.285778
0.299953
0.313047
0.327004
0.342609
0.358577
0.369381
0.372243
0.369749
0.363893
0.354998
0.343747
0.330115
0.314262
0.294992
0.272564
0.247415
0.220592