/*--------------------------------*- C++ -*----------------------------------*\
| =========                 |                                                 |
| \\      /  F ield         | OpenFOAM: The Open Source CFD Toolbox           |
|  \\    /   O peration     | Version:  v1912                                 |
|   \\  /    A nd           | Website:  www.openfoam.com                      |
|    \\/     M anipulation  |                                                 |
\*---------------------------------------------------------------------------*/
FoamFile
{
    version     2.0;
    format      ascii;
    class       volScalarField;
    location    "2000/air";
    object      nut;
}
// * * * * * * * * * * * * * * * * * * * * * * * * * * * * * * * * * * * * * //

dimensions      [0 2 -1 0 0 0 0];


internalField   nonuniform List<scalar> 
243000
(
0.000145597
0.000147927
0.000144861
0.000140268
0.000134681
0.000128611
0.000122344
0.000116096
0.00011002
0.000104254
9.88848e-05
9.39727e-05
8.94922e-05
8.54706e-05
8.18953e-05
7.88226e-05
7.62863e-05
7.44106e-05
7.3288e-05
7.27721e-05
7.25576e-05
7.22483e-05
7.14585e-05
6.9903e-05
6.75008e-05
6.40635e-05
5.9492e-05
5.48658e-05
6.72379e-05
7.78745e-05
0.000634786
0.000671384
0.000678944
0.000677146
0.000669478
0.00065782
0.000643401
0.000627102
0.00060949
0.000591089
0.00057224
0.000553245
0.000534117
0.000515314
0.000497128
0.000480005
0.000464185
0.000450637
0.000439616
0.000430836
0.000422907
0.000413956
0.000402031
0.000385832
0.000364963
0.000338781
0.000304511
0.000270703
0.000280672
0.000323543
0.000684938
0.000721953
0.000732003
0.000731085
0.000723521
0.000711532
0.000696502
0.000679371
0.000660774
0.000641314
0.000621354
0.000601242
0.000581065
0.00056138
0.000542542
0.000525037
0.000509069
0.000495571
0.000484573
0.00047566
0.000467455
0.000458192
0.000445941
0.000429264
0.000407542
0.00038018
0.000345036
0.000308583
0.000292111
0.000330484
0.000707668
0.000745983
0.000758954
0.000760646
0.000755032
0.000744523
0.000730544
0.000714089
0.00069585
0.000676488
0.000656439
0.00063616
0.000615812
0.00059603
0.000577245
0.000559992
0.000544445
0.000531459
0.00052079
0.000511843
0.00050326
0.000493479
0.000480761
0.000463692
0.000441534
0.000413733
0.000378695
0.000341853
0.00031767
0.000331124
0.000711945
0.000750328
0.00076861
0.000774201
0.000771617
0.000763587
0.000751568
0.000736637
0.000719538
0.000701006
0.000681552
0.000661728
0.000641787
0.000622447
0.000604181
0.000587583
0.000572789
0.000560536
0.000550327
0.000541395
0.000532426
0.000522082
0.000508869
0.000491504
0.000469209
0.000441451
0.00040705
0.000370453
0.000341501
0.00033509
0.000703655
0.000742808
0.000765812
0.000776177
0.000777481
0.000772538
0.000763049
0.000750168
0.00073472
0.00071753
0.000699138
0.000680203
0.000661066
0.000642548
0.000625088
0.000609412
0.000595566
0.000584152
0.000574447
0.00056556
0.00055625
0.000545378
0.000531707
0.000514126
0.000491869
0.000464405
0.000430841
0.000394667
0.000363166
0.000343172
0.000685071
0.000727045
0.00075475
0.000769752
0.000775285
0.000773968
0.000767248
0.000756681
0.000743288
0.000727812
0.00071083
0.000693103
0.000675054
0.00065761
0.000641165
0.000626572
0.000613791
0.000603245
0.000594053
0.000585243
0.00057566
0.000564337
0.000550274
0.000532545
0.000510429
0.000483375
0.000450665
0.000415086
0.00038235
0.000356063
0.000657852
0.000704304
0.000736847
0.000756719
0.000766739
0.000769272
0.000765899
0.000758029
0.000746641
0.000733069
0.000717778
0.000701508
0.000684766
0.000668542
0.000653269
0.000639855
0.000628198
0.000618517
0.000609828
0.00060113
0.000591351
0.000579677
0.000565304
0.000547489
0.000525575
0.000498982
0.000467141
0.000432464
0.000399286
0.000369627
0.000624631
0.000676036
0.000713629
0.000738457
0.000753125
0.000759639
0.000759778
0.000754889
0.000746196
0.000734598
0.0007209
0.000706241
0.000690945
0.000676058
0.00066205
0.000649865
0.000639343
0.000630501
0.000622305
0.000613756
0.000603864
0.000591943
0.000577358
0.000559519
0.000537847
0.00051179
0.000480618
0.000446945
0.000413659
0.000382647
0.000591995
0.000646031
0.000687291
0.000716369
0.000735535
0.000746102
0.000749852
0.000748156
0.000742156
0.000732873
0.000721233
0.000708009
0.0006942
0.000680718
0.000668023
0.000657075
0.000647663
0.000639626
0.000631909
0.000623543
0.00061362
0.000601563
0.000586867
0.000569075
0.000547723
0.000522061
0.000491408
0.000458971
0.000425911
0.000394183
0.000561851
0.000615353
0.000660122
0.000692949
0.000715377
0.000729613
0.000736913
0.000738465
0.000735294
0.00072842
0.000718782
0.000707432
0.000695105
0.000682977
0.000671602
0.000661866
0.000653512
0.000646243
0.000638989
0.00063084
0.000620969
0.000608879
0.000594182
0.000576538
0.000555457
0.000530113
0.000500106
0.000468955
0.000436331
0.000404018
0.000538195
0.000584645
0.000631672
0.000668434
0.000694566
0.000711754
0.000721822
0.00072641
0.000726101
0.000721708
0.000714199
0.000704641
0.000693918
0.000683252
0.000673137
0.000664556
0.000657186
0.000650644
0.00064384
0.000635939
0.000626198
0.000614182
0.000599624
0.000582156
0.000561271
0.000536225
0.000507497
0.000477401
0.000445232
0.000412608
0.00052662
0.000556455
0.000602137
0.00064237
0.00067256
0.000693201
0.00070605
0.000712816
0.000715066
0.000713139
0.000707797
0.00070011
0.000690995
0.000681748
0.000672898
0.000665414
0.000658962
0.000653073
0.00064671
0.000639092
0.000629573
0.000617766
0.000603358
0.000586054
0.000565374
0.000540645
0.000513479
0.000484459
0.000452784
0.000420068
0.000532301
0.000536622
0.000573268
0.000614799
0.000648966
0.000673518
0.000689594
0.000698888
0.000703029
0.000703171
0.000699911
0.000694104
0.000686609
0.000678757
0.000671129
0.000664673
0.000659018
0.000653758
0.000647846
0.000640572
0.000631297
0.000619674
0.000605453
0.000588376
0.000567939
0.000544036
0.000518267
0.000490276
0.000459112
0.000426503
0.000556162
0.000533276
0.000550019
0.000587074
0.000623803
0.000652381
0.00067212
0.000684334
0.00069069
0.000692531
0.000690941
0.000686894
0.000680997
0.000674502
0.000668041
0.000662541
0.000657637
0.000652927
0.000647389
0.000640365
0.000631339
0.000619969
0.000605999
0.000589203
0.000569129
0.000546596
0.000522045
0.000494989
0.000464319
0.000431998
0.000592932
0.0005536
0.000541513
0.000563457
0.000598212
0.000629827
0.000653385
0.000668906
0.000677827
0.000681611
0.000681522
0.000678815
0.000674381
0.000669185
0.000663825
0.000659209
0.000654988
0.000650786
0.000645652
0.00063897
0.000630185
0.000619064
0.000605331
0.000588798
0.000569558
0.000548343
0.000524903
0.000498697
0.000468485
0.000436576
0.000636819
0.000593341
0.000557505
0.000552457
0.00057582
0.000606842
0.000633467
0.000652446
0.000664257
0.000670267
0.000671872
0.000670378
0.000667041
0.000663011
0.000658665
0.000654858
0.00065126
0.000647528
0.000642789
0.000636464
0.000628036
0.00061718
0.000603727
0.000587574
0.00056947
0.000549395
0.000526941
0.000501489
0.000471682
0.000440273
0.000680465
0.000640212
0.000595481
0.000563949
0.000563841
0.000586445
0.000613241
0.000635076
0.00064989
0.000658373
0.000661871
0.000661794
0.000659409
0.00065622
0.000652747
0.000649667
0.00064664
0.000643345
0.000638988
0.000633036
0.000624988
0.000614497
0.000601408
0.000586166
0.000569017
0.000549878
0.000528263
0.000503456
0.000473981
0.000443052
0.000721958
0.000686659
0.000643286
0.00059812
0.000571162
0.00057448
0.000595128
0.000617538
0.000634863
0.000645883
0.000651449
0.000652944
0.000651692
0.000649151
0.000646298
0.000643822
0.000641306
0.000638423
0.000634447
0.000628876
0.000621239
0.000611195
0.000598875
0.000584551
0.000568255
0.000549869
0.000528965
0.000504689
0.000475464
0.000445232
0.000761932
0.000730517
0.000691419
0.000644542
0.000600072
0.000578124
0.000583664
0.000601697
0.000619781
0.000632936
0.000640594
0.000643769
0.000643803
0.000642081
0.00063968
0.000637564
0.000635457
0.000632953
0.000629357
0.000624183
0.000616995
0.000607698
0.000596259
0.000582776
0.000567246
0.000549521
0.000529158
0.000505289
0.000476219
0.000446893
0.000800203
0.000771133
0.000736232
0.000692679
0.000642692
0.000600758
0.00058415
0.000590809
0.000606008
0.000620005
0.000629434
0.000634291
0.000635682
0.000634933
0.000633135
0.000631269
0.000629357
0.000627153
0.000623924
0.000619223
0.000612737
0.000604237
0.000593616
0.00058091
0.000566078
0.000548934
0.000528987
0.000505357
0.000476325
0.000448254
0.000836633
0.000809925
0.00077795
0.000738106
0.00068919
0.000637475
0.000600217
0.000588853
0.000595861
0.000608089
0.000618343
0.000624631
0.000627362
0.00062768
0.00062662
0.000625154
0.000623513
0.000621536
0.00061868
0.000614489
0.000608648
0.000600886
0.000591044
0.000579077
0.000564891
0.000548254
0.000528628
0.000505096
0.000476017
0.000450364
0.000871232
0.000846254
0.000816393
0.000779569
0.000733704
0.000679997
0.000629446
0.000598826
0.000592131
0.000598797
0.000608066
0.000615116
0.000619
0.000620379
0.000620165
0.000619234
0.000617955
0.000616267
0.000613778
0.000610074
0.00060484
0.000597779
0.000588696
0.000577451
0.000563892
0.000547714
0.000528305
0.000504719
0.000475547
0.000455204
0.000904154
0.000880087
0.000851644
0.000817065
0.000774251
0.000722174
0.000665971
0.000620189
0.00059726
0.000594174
0.000599851
0.000606423
0.00061099
0.000613311
0.000613979
0.000613706
0.000612887
0.00061156
0.000609459
0.000606234
0.000601571
0.000595183
0.000586836
0.000576293
0.000563325
0.000547561
0.000528303
0.000504508
0.000475191
0.000462564
0.000933701
0.000910623
0.000883521
0.000850844
0.000810741
0.000761534
0.00070476
0.000650078
0.000612226
0.000596595
0.000595633
0.000599959
0.000604385
0.000607362
0.000608893
0.000609391
0.000609152
0.000608275
0.000606591
0.000603815
0.000599658
0.000593838
0.000586069
0.000576113
0.000563704
0.000548375
0.000529238
0.000505048
0.000475405
0.000472586
0.000961358
0.000939192
0.000913313
0.000882391
0.000844821
0.00079886
0.000744273
0.000686381
0.000637848
0.000609319
0.000599244
0.000599149
0.000602347
0.000605612
0.000608029
0.000609465
0.000609978
0.000609644
0.000608352
0.000605893
0.000602041
0.000596569
0.000589224
0.000579706
0.000567658
0.000552471
0.000533076
0.000507906
0.000477643
0.000486061
0.000989981
0.000969086
0.000944734
0.000915819
0.000881041
0.000838923
0.000788522
0.000732268
0.000679022
0.000640419
0.000620696
0.000614756
0.0006157
0.000619067
0.000622655
0.000625366
0.000626798
0.000626955
0.000625732
0.00062303
0.000618769
0.00061286
0.000605144
0.000595312
0.000582889
0.000567124
0.000546612
0.000519332
0.000486748
0.000506871
0.0010268
0.00100795
0.000986048
0.000960449
0.000930368
0.000894762
0.000852582
0.000804452
0.000755424
0.000715041
0.000690425
0.000680528
0.000679989
0.000684132
0.000689405
0.000693494
0.000695405
0.000695159
0.000692659
0.000688037
0.000681499
0.000673235
0.000663293
0.00065133
0.000636573
0.000618259
0.000594691
0.000562838
0.000524536
0.000551731
0.00109865
0.00108417
0.0010687
0.00105214
0.00103393
0.00101328
0.000988911
0.000960507
0.000929562
0.000902247
0.000884819
0.000878009
0.000878854
0.000884445
0.000890512
0.00089447
0.000895068
0.00089276
0.000887665
0.000880056
0.000870441
0.00085924
0.000846792
0.00083257
0.000814473
0.000793245
0.000767282
0.000733027
0.000691179
0.000706622
0.00133379
0.00132992
0.00133112
0.00133218
0.00133203
0.00133013
0.00132571
0.00131877
0.0013072
0.0012957
0.00128746
0.00128274
0.00128125
0.0012835
0.001286
0.00128766
0.00128685
0.00128581
0.00128422
0.00128261
0.00128085
0.00127937
0.00127807
0.00127629
0.0012673
0.00125799
0.00124591
0.00122855
0.00120546
0.00120112
0.000176611
0.000182581
0.00018006
0.000174878
0.000168188
0.000160701
0.000152901
0.000145135
0.000137602
0.000130455
0.000123755
0.000117584
0.000111943
0.000106944
0.0001026
9.90353e-05
9.62964e-05
9.45951e-05
9.39961e-05
9.41995e-05
9.44451e-05
9.38807e-05
9.179e-05
8.76302e-05
8.11446e-05
7.20309e-05
6.14857e-05
5.9357e-05
7.15836e-05
8.01366e-05
0.000684915
0.000772588
0.000748064
0.000696329
0.000638532
0.000584009
0.000535629
0.000493258
0.00045603
0.000423651
0.000395252
0.000370622
0.000348583
0.000329545
0.000312709
0.000298211
0.00028463
0.000273655
0.000265262
0.000260541
0.000259214
0.000259368
0.000256614
0.000247321
0.000230587
0.000206427
0.000170803
0.000169747
0.000272437
0.000320291
0.00108838
0.00125867
0.00126813
0.00121549
0.0011403
0.00106075
0.000985377
0.000916564
0.000854422
0.00079929
0.000750175
0.000707073
0.000668158
0.000634337
0.000604592
0.000578382
0.000552588
0.000529641
0.000508353
0.000491033
0.00047926
0.000471229
0.000460797
0.000442134
0.000410958
0.000367136
0.000304889
0.000263446
0.000317788
0.000383771
0.00135188
0.00158056
0.00162383
0.00159292
0.00152529
0.00144333
0.00135936
0.00127882
0.00120354
0.00113498
0.00107269
0.00101727
0.000967107
0.000923215
0.000885051
0.000851286
0.000817461
0.000785483
0.000752883
0.00072258
0.000697974
0.000678693
0.000657918
0.000627813
0.000583595
0.000524096
0.000444353
0.000369496
0.000362994
0.000403389
0.0014871
0.00172895
0.00182896
0.00184101
0.00179622
0.0017259
0.00164566
0.00156469
0.00148563
0.00141184
0.00134338
0.00128177
0.00122562
0.00117653
0.0011345
0.0010975
0.00105921
0.0010213
0.000979878
0.000938562
0.000901986
0.000871179
0.000839433
0.000799033
0.000744451
0.000673722
0.000582776
0.000486375
0.000436262
0.000431215
0.00156197
0.00180598
0.0019414
0.00198692
0.00197315
0.0019225
0.00185306
0.00178042
0.00170408
0.00163191
0.001563
0.00150025
0.00144288
0.00139287
0.00135058
0.0013134
0.00127374
0.00123222
0.00118422
0.00113404
0.00108726
0.00104592
0.00100432
0.000955316
0.000892844
0.000814248
0.000716565
0.000608007
0.000529951
0.000490806
0.00158985
0.00182948
0.00198184
0.00205662
0.00207306
0.00204981
0.00200163
0.00193578
0.00186512
0.00180136
0.00173638
0.00167668
0.00162205
0.00157481
0.00153483
0.00150035
0.00146132
0.00141781
0.00136515
0.00130811
0.00125314
0.00120238
0.00115271
0.001097
0.0010289
0.000945209
0.000843418
0.000728888
0.000632808
0.000567825
0.0015759
0.00179399
0.00196024
0.002063
0.00211058
0.00211426
0.00208859
0.00204153
0.00198843
0.00192873
0.00186847
0.00181582
0.0017668
0.00172507
0.00168972
0.0016598
0.00162314
0.00157895
0.00152332
0.00146125
0.0013999
0.00134278
0.00128629
0.00122498
0.00115299
0.00106636
0.000962856
0.000845229
0.000736549
0.000647613
0.0014912
0.00170046
0.00188341
0.0020151
0.00209519
0.00212711
0.00212653
0.00210308
0.00206606
0.00201947
0.00197167
0.00192299
0.00188101
0.00184652
0.0018178
0.00179383
0.00176073
0.00171725
0.00166007
0.0015955
0.00153023
0.00146796
0.0014067
0.00134114
0.00126618
0.00117805
0.00107507
0.00095551
0.00083769
0.000726746
0.0013605
0.00155528
0.00175743
0.00191968
0.00203441
0.00209673
0.00212452
0.0021258
0.00210877
0.00207809
0.00204196
0.00200374
0.00196875
0.00194208
0.00192148
0.00190424
0.00187559
0.00183379
0.00177653
0.00171052
0.00164231
0.00157709
0.00151275
0.0014458
0.00136957
0.00128195
0.00117968
0.0010598
0.0009344
0.00080289
0.00123325
0.00138807
0.00158802
0.00178033
0.00193444
0.00202912
0.00208835
0.00211572
0.00212031
0.00210754
0.00208519
0.00205869
0.00203288
0.00201572
0.0020031
0.00199273
0.00196944
0.00193011
0.00187402
0.00180808
0.00173901
0.00167148
0.00160608
0.00153945
0.00146447
0.00137584
0.00127638
0.00115447
0.0010226
0.000874455
0.00112917
0.00122661
0.00140266
0.00160564
0.00178981
0.00192732
0.00202254
0.00207734
0.00210441
0.00211086
0.00210423
0.00209096
0.00207638
0.00206818
0.00206445
0.00206112
0.00204363
0.0020075
0.00195366
0.00188932
0.00182154
0.00175443
0.00168947
0.00162196
0.001547
0.00145932
0.00136114
0.00123836
0.00109952
0.000938979
0.00105841
0.00109274
0.00122627
0.00141833
0.00161788
0.00178925
0.00192219
0.00201362
0.00206419
0.00209113
0.00210162
0.00210294
0.0021006
0.00210264
0.00210743
0.00211125
0.00209941
0.00206718
0.00201671
0.00195494
0.00188862
0.0018228
0.00175773
0.00169134
0.0016176
0.00153443
0.00143457
0.00130987
0.00116492
0.00099325
0.00104623
0.00100551
0.00108181
0.00124065
0.00143682
0.00162903
0.0017926
0.00191713
0.00200122
0.00205135
0.00207968
0.00209667
0.00210744
0.00212028
0.00213388
0.00214474
0.00213875
0.00211063
0.00206432
0.00200544
0.00193902
0.001873
0.00180936
0.00174713
0.00167641
0.00159801
0.00149639
0.00136918
0.00121845
0.00103741
0.00108287
0.000986518
0.000994492
0.00109794
0.00126694
0.00146215
0.00164529
0.0017966
0.00191085
0.00199076
0.0020412
0.00207394
0.00209857
0.00212266
0.00214495
0.00216278
0.00216318
0.00213986
0.00209815
0.00204382
0.00198164
0.00191555
0.00185197
0.00179078
0.00172712
0.00164894
0.0015461
0.00141634
0.00126022
0.00107133
0.00117669
0.0010357
0.000972097
0.00101343
0.0011326
0.00130651
0.00149331
0.0016621
0.00180086
0.00190765
0.00198434
0.00203701
0.00207573
0.00211111
0.00214191
0.00216683
0.00217395
0.00215633
0.00211986
0.00207056
0.00201319
0.00195155
0.00188917
0.00182884
0.00176777
0.00168857
0.00158422
0.00145186
0.00129068
0.00109527
0.00133243
0.00115983
0.00103868
0.000996476
0.00105516
0.0011821
0.00135184
0.00152513
0.00167997
0.00180854
0.00190888
0.00198469
0.00204058
0.00208719
0.00212642
0.0021584
0.00217245
0.00216148
0.00213086
0.00208734
0.0020353
0.00197994
0.00192202
0.00186356
0.00179874
0.00171792
0.00161171
0.00147657
0.00131061
0.00110966
0.00154623
0.00135444
0.00119057
0.00107873
0.00104828
0.00111268
0.0012399
0.0013993
0.00155826
0.00170097
0.00182035
0.0019166
0.00199236
0.00205245
0.00210027
0.0021392
0.00216038
0.00215686
0.00213283
0.00209605
0.00205062
0.0020028
0.00195106
0.00189171
0.00182263
0.00173871
0.00163
0.00149176
0.00132109
0.00111534
0.00180927
0.00160741
0.00141575
0.00124941
0.00113951
0.00111418
0.00117837
0.00130075
0.00144752
0.00159365
0.00172522
0.00183753
0.00193053
0.0020072
0.00206554
0.00211112
0.0021397
0.00214445
0.00212797
0.0020995
0.00206256
0.00202177
0.00197401
0.0019139
0.00184118
0.00175275
0.0016408
0.00149898
0.00132342
0.00111322
0.00210836
0.00190249
0.00169376
0.00149
0.00131555
0.0012054
0.00118286
0.00124644
0.00136128
0.00149649
0.00163089
0.00175295
0.001859
0.00194934
0.00202101
0.00207607
0.00211255
0.00212639
0.00211889
0.0020989
0.00206984
0.00203416
0.00198974
0.00192925
0.0018542
0.00176163
0.00164599
0.00150002
0.0013189
0.00110346
0.00242567
0.00221966
0.00200101
0.0017732
0.00155313
0.00137226
0.00126565
0.00124827
0.00131163
0.00142011
0.00154534
0.00166864
0.0017816
0.00188116
0.00196316
0.00202856
0.00207425
0.00209764
0.00209976
0.00208804
0.00206599
0.00203655
0.00199453
0.00193625
0.00186204
0.00176798
0.00164763
0.00149675
0.0013097
0.00109011
0.00273788
0.00253433
0.00231117
0.00206956
0.00182062
0.00158921
0.00141118
0.00131464
0.00130813
0.00137192
0.00147519
0.00158902
0.00170046
0.00180225
0.00188854
0.00195919
0.00201077
0.00204224
0.00205405
0.00205233
0.00203959
0.00201772
0.00198394
0.0019325
0.00185993
0.00176444
0.00164272
0.00148891
0.00129731
0.00107398
0.00301532
0.00281664
0.00259439
0.00234801
0.00208461
0.00182261
0.0015932
0.00142902
0.00135158
0.00135683
0.00141851
0.00151212
0.0016107
0.00170388
0.00178388
0.00185065
0.00190126
0.00193639
0.00195682
0.00196723
0.00196845
0.00196128
0.00194244
0.0019061
0.00184543
0.00175427
0.00162826
0.00147338
0.00127914
0.00105476
0.00322062
0.00303081
0.00281628
0.00257477
0.00231033
0.00203576
0.00177579
0.00156132
0.00142052
0.00136325
0.00137249
0.00142421
0.00149336
0.00156198
0.001622
0.0016729
0.00171374
0.00174761
0.00177446
0.00179778
0.00181661
0.00182997
0.00183419
0.00182271
0.0017871
0.00171737
0.00160352
0.00144646
0.0012529
0.00103049
0.00331076
0.00313706
0.00293958
0.00271411
0.00246188
0.00219083
0.00191913
0.00167308
0.00148261
0.0013651
0.00131464
0.00131103
0.00133429
0.00136617
0.00139923
0.00143052
0.00145927
0.00148765
0.00151677
0.00154774
0.00157954
0.001611
0.00163857
0.00165566
0.00165308
0.0016193
0.00153807
0.00140185
0.00121489
0.00100612
0.00325233
0.00310658
0.00293824
0.00274144
0.00251493
0.00226318
0.00199974
0.00174696
0.00153287
0.00137704
0.00128101
0.00123246
0.00121937
0.00122772
0.00124853
0.00127293
0.00129573
0.0013178
0.00134121
0.00136476
0.00138962
0.0014162
0.0014432
0.00146628
0.00147816
0.00146825
0.00142062
0.00131641
0.00116018
0.000985756
0.00306105
0.00295874
0.00283514
0.00268314
0.0025002
0.00229001
0.00206503
0.0018456
0.00165404
0.00150733
0.00140702
0.00134981
0.00133162
0.00133958
0.0013636
0.0013903
0.0014113
0.00142854
0.00144199
0.00145063
0.00145591
0.0014592
0.00146107
0.00145905
0.00144823
0.00142026
0.00136152
0.0012563
0.00110219
0.000961458
0.00287668
0.00282903
0.002759
0.00266177
0.00253587
0.00238628
0.00222545
0.00206799
0.00192756
0.00181555
0.00173466
0.0016905
0.0016771
0.00168631
0.00170875
0.00173308
0.0017512
0.00176641
0.00177581
0.00177962
0.00177826
0.00177206
0.00176189
0.00174398
0.0017133
0.00166163
0.00157466
0.00143385
0.0012386
0.00111585
0.0027879
0.0027705
0.00275026
0.0027102
0.00264477
0.00256046
0.0024615
0.00235932
0.00226259
0.00217981
0.00211727
0.00207909
0.00206171
0.00206147
0.00207062
0.00208411
0.00209609
0.00210845
0.00211908
0.00212861
0.00213695
0.0021423
0.00214678
0.00214394
0.00212963
0.00209715
0.00203345
0.00192276
0.00176561
0.00169556
0.00276997
0.00277034
0.00277156
0.00275708
0.00272332
0.00267853
0.00262439
0.00256286
0.00250021
0.00244444
0.00239943
0.00236536
0.00234292
0.00233249
0.00232887
0.00233335
0.00234062
0.00235197
0.00236672
0.00238532
0.00240703
0.00243158
0.00245297
0.00247271
0.00248771
0.00249413
0.00248377
0.00245372
0.00241261
0.00239427
0.000203279
0.000209321
0.000204948
0.000198648
0.000190959
0.000182457
0.000173635
0.000164863
0.000156359
0.000148291
0.000140712
0.000133721
0.000127299
0.000121598
0.000116641
0.000112632
0.000109693
0.000108458
0.000109321
0.000111501
0.000113301
0.000113368
0.000110867
0.000105232
9.60429e-05
8.26343e-05
6.55235e-05
6.24105e-05
7.3427e-05
8.05415e-05
0.000880995
0.00100984
0.00101344
0.000957922
0.000885669
0.000814569
0.000749905
0.000693176
0.000643109
0.000599127
0.000559645
0.000524478
0.000491479
0.000461871
0.000433907
0.000408181
0.000382601
0.000364378
0.000355512
0.000357123
0.000365636
0.000374396
0.000373711
0.000356448
0.000322514
0.000277739
0.000216848
0.000173079
0.000250928
0.000311018
0.0014144
0.00166212
0.0017227
0.00168312
0.00160034
0.0015041
0.00140765
0.00131748
0.00123442
0.00115913
0.00108995
0.00102715
0.000967641
0.000913657
0.00086335
0.000815788
0.000766456
0.00072644
0.000696844
0.00068227
0.000681484
0.000685359
0.00067486
0.000642429
0.000583406
0.000501401
0.000396531
0.000295808
0.00032073
0.000405109
0.0018108
0.00210596
0.0022088
0.00220093
0.0021318
0.00203738
0.00193344
0.00183006
0.00173075
0.00163794
0.00155091
0.00147077
0.00139472
0.00132523
0.00126123
0.00120034
0.00113555
0.00107774
0.00102821
0.000994856
0.000978631
0.000970075
0.000950228
0.000904339
0.000825656
0.000717619
0.000582541
0.000439713
0.000396373
0.000443562
0.00207633
0.00238213
0.00252404
0.00255328
0.00250731
0.00242794
0.00233011
0.00222683
0.00212294
0.00202334
0.00192812
0.00183961
0.00175508
0.00167794
0.00160785
0.00154043
0.00146589
0.00139359
0.00132647
0.00127553
0.00124361
0.00122244
0.0011921
0.00113621
0.00104562
0.000921719
0.000767808
0.000598792
0.000501516
0.000494757
0.00223754
0.00252757
0.00269791
0.00276595
0.002759
0.00270357
0.00261928
0.00252549
0.00242465
0.00232674
0.00223064
0.00214067
0.00205457
0.00197644
0.0019057
0.00183671
0.00175596
0.00167134
0.00158905
0.00152259
0.00147596
0.00144313
0.00140449
0.00134111
0.00124424
0.0011124
0.00094881
0.000764859
0.000631278
0.000580574
0.00235547
0.00262556
0.00280038
0.00289158
0.00291422
0.00288867
0.00282711
0.00274265
0.00264844
0.00256033
0.00246864
0.00238293
0.00230094
0.00222734
0.00215985
0.00209299
0.00200817
0.0019132
0.00181805
0.00173834
0.00167952
0.00163545
0.00158945
0.00152327
0.00142348
0.00128949
0.00112352
0.000932328
0.000775262
0.000689533
0.00243693
0.0026564
0.00282702
0.00293736
0.00298881
0.00299244
0.00295788
0.00289588
0.00282301
0.0027383
0.00265023
0.0025746
0.00250059
0.00243556
0.0023752
0.00231293
0.00222557
0.00212224
0.00201658
0.00192597
0.00185643
0.00180282
0.00175051
0.00168319
0.00158528
0.00145414
0.00129025
0.00109935
0.000924976
0.000809322
0.00242518
0.00261458
0.00278385
0.00291405
0.00299493
0.00302875
0.00302403
0.00298776
0.00293366
0.0028661
0.00279723
0.00272434
0.00265923
0.00260604
0.00255581
0.00249964
0.00241127
0.00230155
0.00218791
0.00208876
0.00201034
0.00194849
0.00189127
0.00182372
0.00173267
0.0016044
0.00144435
0.00125746
0.00107534
0.000931533
0.00233946
0.00250571
0.00267779
0.00283083
0.00294225
0.00300842
0.00303426
0.00302729
0.00299638
0.00294922
0.00289544
0.00283677
0.00278533
0.0027431
0.00270509
0.00265586
0.00256779
0.00245357
0.00233428
0.0022299
0.00214485
0.00207598
0.00201541
0.00194964
0.00186108
0.00173876
0.00158756
0.00140526
0.001219
0.00105017
0.0022298
0.00236271
0.00252773
0.00269628
0.00283832
0.00293912
0.00299812
0.00302079
0.00301697
0.00299275
0.0029577
0.002917
0.00287924
0.00285264
0.00282594
0.00278391
0.00269771
0.00258169
0.00245972
0.00235226
0.00226288
0.0021897
0.00212778
0.00205943
0.0019728
0.00185836
0.00171563
0.00154065
0.00135315
0.00116711
0.00211821
0.00219958
0.00234516
0.00252217
0.00269115
0.00282697
0.00292159
0.00297593
0.00300028
0.00300155
0.002988
0.00296703
0.00294653
0.00293473
0.00292043
0.00288599
0.00280338
0.00268785
0.00256646
0.00245816
0.00236814
0.00229293
0.00222499
0.00215506
0.00207055
0.00196646
0.00182954
0.00166061
0.00147308
0.0012747
0.00202404
0.00203139
0.00214577
0.00232026
0.00250919
0.00267739
0.00280786
0.0028974
0.00295249
0.00297979
0.00298983
0.00299024
0.00298877
0.00299307
0.00299136
0.00296443
0.00288678
0.00277438
0.00265714
0.00255089
0.00245714
0.0023776
0.00230748
0.00223796
0.0021569
0.00206014
0.00192963
0.00176525
0.00157725
0.00136886
0.00195094
0.00188598
0.00195409
0.00210893
0.00230499
0.00249855
0.00266262
0.0027873
0.00287508
0.0029322
0.00296681
0.00298948
0.00300849
0.00302915
0.00304011
0.0030214
0.00295107
0.00284394
0.00273111
0.00262523
0.00253056
0.00244935
0.00237731
0.00230993
0.00223578
0.00214155
0.00201658
0.00185498
0.00166554
0.00144842
0.00195343
0.00180433
0.00180416
0.00191506
0.00209802
0.00230316
0.00249381
0.00265107
0.00277167
0.00285961
0.00292215
0.002968
0.00300725
0.00304464
0.0030685
0.00305909
0.00299887
0.0028987
0.00279397
0.00269346
0.00259931
0.00251722
0.00244463
0.00237719
0.0023042
0.00221141
0.00208931
0.00192966
0.00173796
0.00151285
0.00201986
0.00182318
0.00173291
0.0017735
0.00191643
0.00211078
0.00231387
0.00249663
0.00264737
0.00276563
0.00285655
0.00292773
0.00298737
0.00304093
0.00307837
0.00307936
0.00303162
0.00294115
0.00284521
0.00275198
0.00266311
0.0025823
0.00250968
0.00243865
0.00236388
0.00227053
0.00214884
0.00199051
0.00179501
0.0015622
0.00216277
0.00193016
0.00177098
0.00172454
0.001798
0.00194893
0.0021415
0.00233578
0.0025095
0.00265483
0.00277304
0.0028694
0.00295039
0.00301964
0.00307059
0.0030833
0.00304971
0.00297207
0.00288631
0.00280131
0.00271964
0.00264339
0.00257029
0.00249483
0.00241553
0.00231968
0.00219613
0.00203665
0.00183679
0.00159659
0.00240084
0.00214385
0.00192941
0.00179444
0.00176089
0.00184978
0.00200141
0.00218497
0.00236838
0.0025334
0.00267525
0.00279492
0.00289622
0.00298109
0.00304512
0.00307043
0.00305211
0.00299046
0.0029163
0.0028412
0.00276821
0.00269665
0.00262295
0.00254375
0.00245915
0.00235917
0.0022319
0.00206888
0.00186429
0.00161658
0.00271468
0.00244505
0.0021931
0.00198612
0.00185808
0.00183676
0.00192201
0.00206386
0.00223734
0.00240909
0.00256745
0.00270585
0.00282409
0.00292361
0.00299883
0.00303672
0.00303399
0.00299122
0.0029302
0.00286635
0.00280207
0.00273515
0.00266162
0.0025816
0.0024934
0.00238865
0.00225637
0.00208812
0.00187693
0.00162174
0.00307293
0.00279875
0.00252414
0.00226693
0.00205795
0.00193373
0.00191522
0.00199481
0.00213134
0.0022898
0.00245379
0.00260227
0.00273128
0.00284064
0.00292287
0.00297044
0.00298191
0.00295926
0.00291437
0.00286268
0.0028078
0.0027469
0.00267925
0.00260584
0.00251718
0.00240842
0.00227048
0.00209645
0.00187758
0.0016153
0.00343716
0.00316301
0.0028764
0.0025882
0.00232202
0.00211213
0.00199329
0.00198002
0.00205115
0.00218505
0.00233666
0.00248039
0.00261227
0.00271929
0.00280045
0.00285207
0.00287568
0.00287054
0.0028458
0.00281065
0.00277175
0.00272721
0.00267259
0.0026038
0.00251959
0.00241632
0.00227704
0.00209729
0.00187065
0.0016004
0.00376492
0.00349419
0.00320395
0.00290039
0.00260026
0.00233096
0.00212824
0.00202146
0.00201321
0.00208222
0.00219894
0.00232551
0.00244125
0.00253846
0.00260758
0.00265623
0.00268722
0.0026961
0.00269198
0.00267936
0.00266285
0.00264145
0.0026102
0.00256115
0.0024859
0.00238038
0.0022506
0.00207719
0.00185224
0.00157767
0.00401265
0.00374987
0.00346435
0.00315897
0.00284489
0.00254202
0.0022805
0.00209302
0.00199856
0.00198986
0.00204313
0.00212512
0.00220817
0.00228111
0.00233156
0.00237279
0.00240396
0.00242521
0.0024394
0.00245081
0.00245992
0.00246609
0.00246408
0.00244525
0.0023985
0.00231156
0.00218256
0.00201843
0.00180616
0.0015423
0.00413946
0.00389237
0.00362167
0.00332767
0.00301696
0.00270296
0.00240852
0.00216284
0.00199151
0.00190143
0.00187753
0.00189677
0.00193668
0.00198047
0.00202148
0.00205811
0.00209051
0.00211873
0.00214468
0.00217139
0.00219732
0.0022225
0.00224286
0.0022505
0.00223475
0.00218195
0.00207657
0.00192397
0.0017224
0.00147937
0.00411903
0.00389898
0.003656
0.00338779
0.00309718
0.00279288
0.00249201
0.00221954
0.00200209
0.00185377
0.0017688
0.0017374
0.00174636
0.00177641
0.00182109
0.00186279
0.00189788
0.00192688
0.00195456
0.00197871
0.00200033
0.00202053
0.00203789
0.00204714
0.00203995
0.0020051
0.00192685
0.00179319
0.00161953
0.0014033
0.00396054
0.00378434
0.00358619
0.00336116
0.0031096
0.00283835
0.00256186
0.0023031
0.0020873
0.00192642
0.00182107
0.00177515
0.00177606
0.00180717
0.00185945
0.00190637
0.0019411
0.00196662
0.00198693
0.00199848
0.0020029
0.00200167
0.00199509
0.00198018
0.00195088
0.00189838