/*--------------------------------*- C++ -*----------------------------------*\
| =========                 |                                                 |
| \\      /  F ield         | OpenFOAM: The Open Source CFD Toolbox           |
|  \\    /   O peration     | Version:  v1912                                 |
|   \\  /    A nd           | Website:  www.openfoam.com                      |
|    \\/     M anipulation  |                                                 |
\*---------------------------------------------------------------------------*/
FoamFile
{
    version     2.0;
    format      ascii;
    class       volScalarField;
    location    "325";
    object      p;
}
// * * * * * * * * * * * * * * * * * * * * * * * * * * * * * * * * * * * * * //

dimensions      [0 2 -2 0 0 0 0];


internalField   nonuniform List<scalar> 
2000
(
-0.0437112
0.0737001
0.12828
0.121391
0.105563
0.0992552
0.0986485
0.0999991
0.100218
0.0999903
0.100124
0.0997984
0.0995337
0.0994761
0.0995242
0.0994756
0.0993242
0.0992393
0.0991991
0.0991678
0.0991206
0.0990434
0.0989431
0.0988536
0.0987964
0.09878
0.0987974
0.0988293
0.0988582
0.0988704
0.0988508
0.098796
0.0987095
0.0986024
0.0984934
0.0984077
0.0983727
0.0984101
0.0985609
0.0988171
0.0991486
0.099523
0.099898
0.100222
0.100387
0.100343
0.100061
0.0994408
0.0986204
0.0975554
0.0962967
0.0948854
0.0933091
0.0914767
0.0892205
0.0863313
0.0826256
0.0780633
0.0730735
0.0690345
0.0679523
0.0711873
0.0794819
0.0916517
0.106202
0.121717
0.137153
0.151759
0.164909
0.175979
0.184462
0.189858
0.191692
0.189375
0.18218
0.169322
0.149485
0.122297
0.0818598
0.0407899
0.00953374
0.0947108
0.133529
0.120334
0.102593
0.098391
0.101922
0.104356
0.10161
0.0983834
0.0979416
0.0992331
0.0996898
0.0995607
0.0997115
0.099514
0.0993048
0.0991613
0.0991116
0.0990914
0.0990813
0.0990304
0.0989312
0.0988289
0.0987605
0.0987378
0.0987608
0.0988185
0.0988852
0.0989389
0.0989357
0.0988802
0.0987709
0.0986166
0.0984397
0.0982776
0.0981773
0.0981892
0.0983204
0.0985934
0.0990109
0.0995355
0.100093
0.100587
0.100972
0.101135
0.100963
0.100376
0.0993617
0.0979611
0.0962634
0.0943124
0.0920182
0.0891218
0.085187
0.0797693
0.0728237
0.0648743
0.0573401
0.0537139
0.0572973
0.0662958
0.078018
0.0919806
0.107129
0.122668
0.137738
0.151637
0.163795
0.173698
0.180848
0.184698
0.184699
0.180313
0.170878
0.155708
0.13369
0.104803
0.0648372
0.0289554
0.0605992
0.0943976
0.117089
0.115532
0.106333
0.102155
0.102189
0.101552
0.0996557
0.0989941
0.100585
0.102138
0.101103
0.0985934
0.0976785
0.0985516
0.0994283
0.0995478
0.0993258
0.0991643
0.0990269
0.0988897
0.0987982
0.0987553
0.098726
0.0987226
0.0987595
0.0988334
0.0989226
0.0990107
0.0990902
0.099082
0.098958
0.0987178
0.098387
0.0980224
0.0977065
0.0975339
0.0975861
0.0979179
0.0985323
0.099408
0.100468
0.101572
0.102525
0.103132
0.103239
0.102699
0.101457
0.0995681
0.0971552
0.0943178
0.0910414
0.0871605
0.0824213
0.076708
0.0703328
0.0642515
0.0599394
0.0587662
0.06171
0.0691604
0.0801276
0.093331
0.107573
0.121956
0.135705
0.148137
0.158679
0.166839
0.172156
0.174178
0.172458
0.166551
0.15595
0.140179
0.118476
0.0912134
0.0555017
0.0246941
0.0855846
0.0955984
0.108148
0.112227
0.109533
0.106513
0.104851
0.103122
0.101506
0.100699
0.100503
0.10038
0.10002
0.0992845
0.0987282
0.0996448
0.100849
0.10008
0.0988473
0.0983124
0.0981631
0.0983173
0.0985754
0.0987424
0.0988235
0.0988811
0.098965
0.0991069
0.0992811
0.0994263
0.0995203
0.0995223
0.0993615
0.0989901
0.098407
0.0976824
0.09697
0.0964698
0.0963621
0.0967685
0.0976547
0.0991095
0.100973
0.102958
0.104738
0.10596
0.106474
0.105954
0.104315
0.101666
0.0982363
0.0942828
0.0900323
0.0854949
0.0805444
0.0754044
0.0702508
0.0656108
0.0625895
0.0623185
0.0656152
0.0728151
0.0831447
0.0953157
0.108219
0.121019
0.133014
0.14358
0.152197
0.158439
0.161931
0.162316
0.15924
0.15235
0.141262
0.125656
0.105022
0.0798559
0.048164
0.0206534
0.0979239
0.101524
0.109044
0.113013
0.111883
0.109552
0.10817
0.107131
0.105831
0.10438
0.103021
0.101918
0.101175
0.100304
0.0992993
0.0992999
0.0998333
0.100013
0.0997738
0.0992061
0.0987381
0.0985429
0.0985616
0.0986914
0.0988039
0.0988835
0.0989419
0.0989999
0.0991765
0.0994987
0.0998303
0.1
0.0998766
0.0993887
0.0985095
0.0973353
0.0961098
0.0951768
0.0947994
0.0950166
0.0962505
0.0983472
0.101075
0.104031
0.106723
0.108704
0.109423
0.108738
0.106564
0.103037
0.0985181
0.093491
0.0884253
0.083512
0.0787296
0.0741457
0.0701192
0.0671494
0.0659869
0.0673156
0.071526
0.078581
0.0878696
0.0984573
0.109465
0.120185
0.130029
0.13849
0.14514
0.149623
0.151622
0.150835
0.146958
0.139692
0.128721
0.113805
0.0945618
0.0715047
0.0430828
0.0181625
0.106364
0.108198
0.11215
0.11432
0.113503
0.111893
0.110932
0.110255
0.109293
0.108099
0.106962
0.105956
0.10492
0.103564
0.102153
0.101419
0.101266
0.10109
0.100441
0.099452
0.0987231
0.0984443
0.0984841
0.0986099
0.0986677
0.0986921
0.0987968
0.0990518
0.0994485
0.0999345
0.100382
0.10058
0.100361
0.0996574
0.0984657
0.0968961
0.0952053
0.0939428
0.0934426
0.0939634
0.0955184
0.0980848
0.101359
0.104845
0.107967
0.110174
0.11099
0.110182
0.107738
0.10393
0.0992408
0.0942238
0.0893356
0.0847986
0.0807097
0.0772455
0.0746563
0.0732247
0.073336
0.0753644
0.0794939
0.0856229
0.0933351
0.101993
0.110931
0.119568
0.12742
0.134065
0.139134
0.142303
0.143276
0.141769
0.1375
0.130187
0.119543
0.105359
0.0873007
0.0658658
0.0396648
0.0166387
0.113174
0.113997
0.115233
0.115569
0.114781
0.113793
0.113131
0.112589
0.111917
0.111155
0.11042
0.109684
0.1088
0.107662
0.106462
0.105577
0.105029
0.104378
0.103332
0.102138
0.101225
0.100708
0.100456
0.100288
0.100124
0.100004
0.0999975
0.100124
0.100355
0.100656
0.100935
0.101026
0.10077
0.100072
0.0989203
0.0974812
0.0961128
0.0951007
0.0948347
0.0955208
0.0972052
0.0997875
0.102928
0.106148
0.108928
0.110792
0.111381
0.110534
0.108303
0.104953
0.100901
0.0966135
0.0924826
0.0887635
0.0855901
0.083076
0.0813742
0.0806823
0.0812402
0.0832727
0.0868768
0.0919549
0.0982068
0.105178
0.112366
0.119303
0.125579
0.130828
0.134714
0.136932
0.137193
0.13522
0.130736
0.123468
0.113137
0.0995429
0.0823707
0.0620882
0.0373548
0.0156915
0.11905
0.118995
0.118079
0.116868
0.116043
0.115523
0.115043
0.114568
0.114119
0.113674
0.113211
0.112696
0.112074
0.111304
0.110466
0.10974
0.109159
0.108478
0.107541
0.106504
0.105619
0.104978
0.104519
0.10415
0.103834
0.103592
0.10346
0.10345
0.103546
0.103707
0.103841
0.103804
0.103463
0.102762
0.101765
0.100612
0.0995697
0.0989057
0.0989168
0.0997525
0.1014
0.103712
0.106399
0.109073
0.111325
0.112795
0.113222
0.1125
0.110684
0.107986
0.104724
0.10125
0.0978673
0.0947905
0.0921527
0.0900683
0.0886795
0.0881513
0.0886559
0.0903399
0.0932605
0.0973384
0.102351
0.10796
0.113775
0.119407
0.124493
0.128698
0.131708
0.133227
0.132972
0.130669
0.126046
0.118833
0.108755
0.0956108
0.0790849
0.0596086
0.0358627
0.0150837
0.124454
0.123464
0.120499
0.117953
0.117195
0.117103
0.116765
0.116352
0.11608
0.115853
0.115571
0.115228
0.114816
0.11431
0.11374
0.113214
0.112759
0.112235
0.111538
0.110745
0.110021
0.109452
0.109017
0.108664
0.108365
0.108129
0.107979
0.107924
0.107949
0.108009
0.108026
0.107902
0.107555
0.106965
0.106183
0.105315
0.104581
0.104182
0.104308
0.105057
0.10641
0.108246
0.110347
0.112421
0.11416
0.115293
0.115623
0.115065
0.11365
0.111518
0.108891
0.106021
0.103143
0.100445
0.0980719
0.0961543
0.0948313
0.0942509
0.0945546
0.0958537
0.098188
0.101493
0.105591
0.110213
0.115035
0.119716
0.123928
0.127359
0.129711
0.130701
0.130054
0.127503
0.122779
0.115618
0.105744
0.0929505
0.0769075
0.0580034
0.0349331
0.014668
0.129683
0.127496
0.1223
0.118654
0.118187
0.11851
0.118278
0.117948
0.117856
0.117814
0.117678
0.117469
0.117204
0.116865
0.116472
0.116097
0.115764
0.115381
0.11487
0.11428
0.11373
0.113293
0.112961
0.112696
0.112476
0.112304
0.112195
0.112155
0.112166
0.112189
0.112169
0.112036
0.111738
0.11126
0.110628
0.10996
0.109415
0.109141
0.109269
0.109876
0.110953
0.112405
0.114063
0.115704
0.117088
0.118
0.118279
0.117844
0.116702
0.114944
0.112728
0.110243
0.107681
0.105213
0.102984
0.101133
0.0997982
0.0991198
0.0992246
0.100205
0.10209
0.104823
0.108254
0.112152
0.116235
0.120199
0.123744
0.126577
0.128417
0.128993
0.12804
0.125298
0.120504
0.113398
0.103701
0.091194
0.075526
0.0570376
0.0344176
0.0144095
0.134922
0.131071
0.123377
0.118984
0.119073
0.119761
0.119584
0.119364
0.119459
0.119585
0.119582
0.119492
0.119348
0.119136
0.118869
0.118603
0.118356
0.118066
0.117679
0.11723
0.11681
0.116477
0.116228
0.116036
0.115883
0.115769
0.115706
0.115692
0.115712
0.115733
0.11571
0.115591
0.115338
0.114936
0.114417
0.113883
0.113452
0.11324
0.113349
0.11384
0.114711
0.115886
0.117234
0.118576
0.119719
0.120486
0.120735
0.120389
0.119439
0.117942
0.116013
0.1138
0.111464
0.109157
0.107024
0.105206
0.103841
0.103067
0.103001
0.103727
0.105267
0.107568
0.110496
0.113846
0.117366
0.120778
0.123804
0.126169
0.127606
0.127856
0.126666
0.123781
0.118946
0.1119
0.102364
0.0901046
0.0747388
0.056561
0.0342088
0.0143089
0.140288
0.134118
0.123702
0.119041
0.119905
0.120864
0.120708
0.120625
0.120903
0.121174
0.121289
0.121311
0.121278
0.121177
0.121018
0.120842
0.120667
0.120449
0.120151
0.119803
0.119474
0.119212
0.11902
0.118876
0.118768
0.118695
0.118663
0.11867
0.118701
0.118726
0.118707
0.118604
0.118387
0.118047
0.117617
0.117175
0.116815
0.116635
0.11672
0.117123
0.117843
0.118823
0.119957
0.1211
0.12209
0.12277
0.123017
0.122751
0.12195
0.12065
0.118934
0.11692
0.114746
0.112551
0.110477
0.108665
0.107255
0.106383
0.106165
0.106676
0.107938
0.109899
0.112435
0.115358
0.118437
0.121416
0.124031
0.126025
0.127143
0.127138
0.125765
0.122778
0.117924
0.110948
0.101563
0.089525
0.0744112
0.0564755
0.0342374
0.0143847
0.14586
0.136531
0.12331
0.118945
0.120705
0.121817
0.121678
0.121759
0.122205
0.122595
0.122814
0.122939
0.123006
0.123004
0.12294
0.122847
0.122741
0.12259
0.122368
0.122101
0.121845
0.12164
0.121491
0.121385
0.12131
0.121267
0.121258
0.121279
0.121319
0.121349
0.121338
0.121252
0.121066
0.120779
0.120415
0.120035
0.119721
0.119557
0.119615
0.119943
0.120546
0.12138
0.122358
0.123359
0.124243
0.124873
0.12513
0.124937
0.12426
0.123115
0.121565
0.119703
0.117649
0.115532
0.113489
0.111661
0.110192
0.109219
0.108857
0.109181
0.110209
0.111894
0.114117
0.116702
0.119431
0.122065
0.124356
0.126056
0.126925
0.126724
0.125215
0.122161
0.117311
0.110412
0.101171
0.0893343
0.0744368
0.0567015
0.0344529
0.0146481
0.151679
0.138193
0.122297
0.118812
0.12147
0.122624
0.122524
0.122785
0.123379
0.123867
0.124178
0.124395
0.124551
0.124634
0.124654
0.124637
0.124595
0.124506
0.124353
0.124156
0.123962
0.123808
0.123699
0.123626
0.12358
0.123562
0.123572
0.123608
0.123657
0.123695
0.123694
0.123626
0.12347
0.123223
0.122907
0.122572
0.122288
0.122127
0.122156
0.122418
0.122922
0.123639
0.124498
0.125395
0.126207
0.126809
0.127089
0.126966
0.126396
0.12538
0.123962
0.122217
0.12025
0.11818
0.116142
0.114277
0.112733
0.111652
0.111149
0.111303
0.112131
0.113586
0.115554
0.117868
0.12032
0.122681
0.124717
0.12619
0.126869
0.126523
0.124921
0.12183
0.117003
0.110185
0.101081
0.0894287
0.0747207
0.0571636
0.0348141
0.0150903
0.157752
0.138996
0.12081
0.118733
0.122183
0.123298
0.123274
0.12372
0.124436
0.125007
0.1254
0.1257
0.125932
0.126091
0.126183
0.126233
0.12625
0.126218
0.126124
0.125989
0.125851
0.125742
0.125669
0.125626
0.125607
0.125611
0.125639
0.125689
0.125749
0.125797
0.125808
0.125757
0.125628
0.125415
0.125137
0.124835
0.124569
0.124404
0.124401
0.124602
0.125024
0.125645
0.126408
0.127226
0.127989
0.128579
0.128888
0.12883
0.128353
0.127444
0.12613
0.124472
0.122562
0.120512
0.118454
0.116532
0.114899
0.113702
0.113062
0.113058
0.113711
0.114974
0.116736
0.118833
0.121068
0.123219
0.125061
0.126365
0.126906
0.12646
0.124801
0.121698
0.116908
0.110175
0.101199
0.0897137
0.0751738
0.0577868
0.0352817
0.0156848
0.16406
0.138863
0.119024
0.118757
0.122821
0.123857
0.123952
0.124571
0.125386
0.126029
0.126497
0.12687
0.12717
0.127394
0.12755
0.127659
0.127729
0.127747
0.127707
0.127625
0.127535
0.127466
0.127425
0.12741
0.127415
0.127439
0.127484
0.127546
0.127617
0.127677
0.1277
0.127667
0.127562
0.127378
0.12713
0.126852
0.126596
0.126422
0.126385
0.12653
0.126877
0.127416
0.128101
0.128857
0.129584
0.13017
0.130508
0.130507
0.130106
0.12928
0.128042
0.126441
0.124558
0.122501
0.120401
0.118406
0.116674
0.115359
0.114588
0.114445
0.114949
0.116054
0.117653
0.119584
0.121654
0.123649
0.12535
0.126533
0.126981
0.126473
0.124787
0.121693
0.11695
0.1103
0.101443
0.0901086
0.0757179
0.0585011
0.0358204
0.0163822
0.170549
0.137784
0.117121
0.118894
0.123363
0.124326
0.124573
0.125346
0.126241
0.126947
0.127483
0.12792
0.12828
0.128561
0.128774
0.128934
0.129051
0.129115
0.129121
0.129085
0.129037
0.129003
0.12899
0.128998
0.129024
0.129066
0.129124
0.129198
0.12928
0.129348
0.129383
0.129366
0.129281
0.12912
0.128894
0.128631
0.128377
0.128185
0.128111
0.1282
0.128478
0.128942
0.129559
0.130261
0.130958
0.13154
0.1319
0.131942
0.131595
0.130825
0.129633
0.128059
0.126178
0.124094
0.121939
0.119866
0.11804
0.116618
0.115735
0.115475
0.11586
0.116844
0.118318
0.120126
0.122077
0.123962
0.125565
0.126671
0.127061
0.126521
0.12483
0.12176
0.117068
0.1105
0.101751
0.0905507
0.0762923
0.0592476
0.0363986
0.0171339
0.177137
0.135781
0.115259
0.119127
0.123802
0.124728
0.125146
0.126048
0.127005
0.127768
0.128363
0.128856
0.129267
0.129598
0.129858
0.130064
0.130221
0.130324
0.130368
0.130371
0.130358
0.130351
0.130362
0.130388
0.130429
0.130483
0.13055
0.130631
0.130721
0.130794
0.130835
0.130828
0.130755
0.130606
0.13039
0.13013
0.129866
0.129649
0.129534
0.129566
0.129779
0.130176
0.130732
0.131388
0.132056
0.132631
0.133002
0.133069
0.132754
0.132014
0.130844
0.129277
0.127383
0.125267
0.12306
0.120921
0.119018
0.117513
0.116543
0.116195
0.116491
0.117384
0.118769
0.12049
0.122358
0.124169
0.125711
0.126768
0.127129
0.126578
0.124897
0.121859
0.117222
0.11073
0.102077
0.0909972
0.0768555
0.0599818
0.03699
0.0178993
0.183731
0.132951
0.113551
0.119411
0.124141
0.125079
0.125668
0.126669
0.127673
0.128482
0.129125
0.129661
0.130112
0.130481
0.130778
0.131018
0.131207
0.131339
0.131413
0.131443
0.131455
0.131468
0.131493
0.13153
0.131579
0.131639
0.131709
0.131792
0.131879
0.131947
0.131988
0.131983
0.131911
0.131764
0.131547
0.131279
0.130997
0.130752
0.130595
0.130578
0.130736
0.131078
0.131585
0.132203
0.132847
0.133413
0.133786
0.133864
0.133565
0.132839
0.131677
0.130108
0.1282
0.126057
0.123813
0.121628
0.119671
0.11811
0.11708
0.11667
0.116902
0.117733
0.119055
0.120716
0.12253
0.124293
0.125797
0.12683
0.127179
0.126632
0.124971
0.121968
0.117385
0.110964
0.102395
0.0914216
0.0773833
0.0606741
0.0375742
0.0186485
0.19024
0.129425
0.112065
0.119699
0.124386
0.125375
0.126112
0.12718
0.128213
0.129052
0.129727
0.130291
0.130767
0.131161
0.131481
0.131743
0.131952
0.132101
0.132193
0.132241
0.132267
0.13229
0.132321
0.132362
0.132413
0.132473
0.132542
0.132621
0.132695
0.132759
0.132796
0.132786
0.13271
0.132558
0.132333
0.132054
0.131755
0.131485
0.131297
0.131244
0.131362
0.131667
0.13214
0.132731
0.133357
0.133913
0.134285
0.134367
0.134074
0.133355
0.132195
0.130624
0.128707
0.126549
0.124284
0.122071
0.120083
0.118486
0.117418
0.116967
0.117157
0.117944
0.119224
0.120845
0.122623
0.124358
0.125841
0.126863
0.127212
0.126678
0.12504
0.122075
0.117543
0.111183
0.10269
0.0918108
0.0778636
0.0613078
0.0381369
0.0193631
0.196585
0.125362
0.110843
0.119953
0.124548
0.125598
0.12644
0.127541
0.128587
0.129441
0.130132
0.130711
0.131201
0.131607
0.13194
0.132213
0.132432
0.132591
0.132692
0.132748
0.132781
0.132808
0.132841
0.132882
0.132931
0.132989
0.133056
0.133125
0.133195
0.133254
0.133286
0.13327
0.133188
0.13303
0.132799
0.13251
0.132199
0.131913
0.131707
0.131632
0.131728
0.13201
0.132463
0.133037
0.133651
0.1342
0.13457
0.134653
0.134362
0.133646
0.132489
0.130917
0.128998
0.126833
0.124559
0.122334
0.12033
0.118713
0.117621
0.117144
0.117305
0.118063
0.119314
0.120909
0.122665
0.124383
0.125856
0.126876
0.127233
0.126714
0.125103
0.122177
0.117686
0.111383
0.102957
0.0921594
0.0782926
0.0618757
0.0386685
0.0200347
0.202768
0.121028
0.109911
0.120145
0.124631
0.12573
0.126633
0.127746
0.128796
0.129657
0.130356
0.130942
0.131437
0.13185
0.132189
0.132467
0.132691
0.132853
0.132959
0.133019
0.133055
0.133084
0.133117
0.133157
0.133205
0.133261
0.133324
0.133392
0.133458
0.133514
0.133542
0.133521
0.133435
0.133274
0.133037
0.132744
0.132426
0.132132
0.131916
0.131831
0.131916
0.132186
0.132629
0.133195
0.133802
0.134346
0.134714
0.134797
0.134508
0.133795
0.13264
0.13107
0.129152
0.126987
0.124711
0.122481
0.12047
0.118842
0.117737
0.117243
0.117385
0.118123
0.119355
0.120932
0.122674
0.124384
0.125854
0.126877
0.127244
0.126743
0.12516
0.122264
0.117813
0.111561
0.103193
0.0924678
0.0786725
0.0623781
0.039164
0.0206635
0.208932
0.11694
0.109276
0.120262
0.124648
0.125778
0.126712
0.127832
0.128884
0.129748
0.130451
0.13104
0.131538
0.131953
0.132295
0.132577
0.132802
0.132967
0.133074
0.133136
0.133173
0.133203
0.133236
0.133276
0.133324
0.133378
0.13344
0.133508
0.133573
0.133627
0.133652
0.13363
0.133542
0.133378
0.133139
0.132843
0.132523
0.132226
0.132007
0.131917
0.131997
0.132264
0.132702
0.133263
0.133867
0.134409
0.134776
0.134859
0.134573
0.133861
0.13271
0.131144
0.129228
0.127066
0.12479
0.12256
0.120545
0.118912
0.117799
0.117293
0.117423
0.118148
0.119366
0.120932
0.122666
0.124371
0.125843
0.126872
0.127251
0.126769
0.125208
0.122342
0.117929
0.111722
0.103406
0.092744
0.0790138
0.0628266
0.0396283
0.0212661
0.215029
0.113734
0.10888
0.120311
0.124628
0.125772
0.126719
0.127846
0.128901
0.129769
0.130473
0.131064
0.131564
0.131981
0.132324
0.132607
0.132833
0.132999
0.133107
0.13317
0.133207
0.133237
0.133271
0.133311
0.133358
0.133412
0.133475
0.133543
0.133607
0.133661
0.133686
0.133663
0.133574
0.13341
0.13317
0.132873
0.132552
0.132255
0.132034
0.131944
0.132023
0.132288
0.132725
0.133285
0.133888
0.13443
0.134797
0.134881
0.134597
0.133888
0.13274
0.131178
0.129266
0.127106
0.124832
0.122602
0.120586
0.118949
0.117829
0.117316
0.117436
0.11815
0.11936
0.120918
0.122648
0.124352
0.125827
0.126865
0.127257
0.126792
0.125254
0.122417
0.118039
0.111874
0.103606
0.0930022
0.0793329
0.0632422
0.0400711
0.0218732
0.219755
0.111791
0.108654
0.120338
0.124606
0.125747
0.126703
0.127836
0.128894
0.129763
0.130469
0.131061
0.131561
0.131979
0.132322
0.132605
0.132832
0.132998
0.133106
0.133169
0.133207
0.133238
0.133272
0.133312
0.13336
0.133415
0.133478
0.133546
0.13361
0.133663
0.133688
0.133665
0.133576
0.133411
0.133172
0.132875
0.132554
0.132257
0.132037
0.131946
0.132025
0.13229
0.132727
0.133287
0.133889
0.134432
0.1348
0.134886
0.134605
0.133899
0.132755
0.131196
0.129287
0.127129
0.124857
0.122627
0.12061
0.11897
0.117844
0.117324
0.117436
0.118143
0.119345
0.120899
0.122626
0.124331
0.125811
0.126858
0.127262
0.126814
0.125298
0.122487
0.11814
0.112011
0.103785
0.0932314
0.0796137
0.0636077
0.0404553
0.0224478
)
;

boundaryField
{
    inlet
    {
        type            zeroGradient;
    }
    outlet
    {
        type            fixedValue;
        value           uniform 0;
    }
    fixedWalls
    {
        type            zeroGradient;
    }
    frontAndBack
    {
        type            empty;
    }
}


// ************************************************************************* //
