/*--------------------------------*- C++ -*----------------------------------*\
| =========                 |                                                 |
| \\      /  F ield         | OpenFOAM: The Open Source CFD Toolbox           |
|  \\    /   O peration     | Version:  v1912                                 |
|   \\  /    A nd           | Website:  www.openfoam.com                      |
|    \\/     M anipulation  |                                                 |
\*---------------------------------------------------------------------------*/
FoamFile
{
    version     2.0;
    format      ascii;
    class       surfaceScalarField;
    location    "325";
    object      phi;
}
// * * * * * * * * * * * * * * * * * * * * * * * * * * * * * * * * * * * * * //

dimensions      [0 3 -1 0 0 0 0];
oriented        oriented;


internalField   nonuniform List<scalar> 
3895
(
0.000814745
0.000381432
0.000499357
0.000315387
0.000251559
0.000247798
6.48567e-05
0.000186702
-6.22053e-05
0.000127062
-0.000127356
6.51511e-05
-0.000137687
1.03305e-05
-0.000113669
-2.40177e-05
-9.02094e-05
-2.34598e-05
-8.46666e-05
-5.5428e-06
-6.59733e-05
-1.86933e-05
-4.46938e-05
-2.12795e-05
-4.00012e-05
-4.69266e-06
-4.67723e-05
6.77115e-06
-4.02498e-05
-6.52255e-06
-2.20152e-05
-1.82346e-05
-1.09028e-05
-1.11124e-05
-8.31126e-06
-2.59152e-06
-8.35637e-06
4.51152e-08
-7.11662e-06
-1.23975e-06
-2.45564e-06
-4.66098e-06
5.38497e-06
-7.84062e-06
1.38404e-05
-8.45544e-06
2.075e-05
-6.90955e-06
2.48419e-05
-4.09191e-06
2.62795e-05
-1.43763e-06
2.55296e-05
7.49914e-07
2.34545e-05
2.07506e-06
2.12673e-05
2.18724e-06
1.95284e-05
1.73889e-06
1.81328e-05
1.39555e-06
1.68815e-05
1.25131e-06
1.55861e-05
1.29544e-06
1.41475e-05
1.43857e-06
1.25983e-05
1.54925e-06
1.10959e-05
1.50232e-06
9.88719e-06
1.20876e-06
9.18501e-06
7.02174e-07
9.50976e-06
-3.24745e-07
1.07762e-05
-1.2664e-06
1.2733e-05
-1.9568e-06
1.49922e-05
-2.25929e-06
1.6928e-05
-1.93575e-06
1.79002e-05
-9.72211e-07
1.6306e-05
1.59423e-06
1.1572e-05
4.734e-06
3.05806e-06
8.51391e-06
-9.95241e-06
1.30105e-05
-2.88588e-05
1.89064e-05
-5.56482e-05
2.67894e-05
-9.25259e-05
3.68778e-05
-0.000141301
4.87749e-05
-0.000202696
6.13951e-05
-0.000276664
7.39681e-05
-0.000362063
8.53989e-05
-0.000454764
9.27014e-05
-0.000546992
9.22275e-05
-0.000629289
8.22974e-05
-0.000692644
6.33546e-05
-0.000727241
3.45968e-05
-0.00072458
-2.66049e-06
-0.000696182
-2.83985e-05
-0.000645423
-5.07592e-05
-0.000577646
-6.77766e-05
-0.000498296
-7.93502e-05
-0.000411473
-8.68225e-05
-0.000319903
-9.15701e-05
-0.000225307
-9.45962e-05
-0.000128885
-9.64218e-05
-3.15417e-05
-9.73434e-05
6.57893e-05
-9.7331e-05
0.000162408
-9.66184e-05
0.000257831
-9.54231e-05
0.000351348
-9.35171e-05
0.00044236
-9.10116e-05
0.000530837
-8.84778e-05
0.000616907
-8.60699e-05
0.000703526
-8.66184e-05
0.000790558
-8.70324e-05
-0.00010925
0.00108795
0.000349295
0.00104738
0.000355951
0.00093327
0.00036191
0.00077573
0.000344242
0.000598405
0.000304388
0.000410364
0.000253192
0.000221244
0.00019945
5.3867e-05
0.000143359
-6.05462e-05
9.09534e-05
-0.000110356
4.42671e-05
-0.000132064
3.01469e-06
-0.000124457
-2.88869e-05
-0.000107279
-2.18699e-05
-0.000110443
9.93435e-06
-0.000107972
-8.9929e-06
-9.71194e-05
-2.90874e-05
-8.36841e-05
-2.45478e-05
-8.4421e-05
-1.85455e-06
-9.12375e-05
6.86161e-06
-9.538e-05
2.90271e-06
-9.43859e-05
-5.65506e-06
-8.85553e-05
-1.36712e-05
-8.01883e-05
-1.68224e-05
-7.06547e-05
-1.64431e-05
-6.09597e-05
-1.37869e-05
-5.22013e-05
-1.0196e-05
-4.4788e-05
-6.66344e-06
-3.90448e-05
-3.6681e-06
-3.54224e-05
-1.43515e-06
-3.38427e-05
1.59098e-07
-3.4186e-05
1.73894e-06
-3.59178e-05
2.98307e-06
-3.88089e-05
4.18649e-06
-4.27598e-05
5.38947e-06
-4.76322e-05
6.42171e-06
-5.31767e-05
7.04684e-06
-5.90565e-05
7.08858e-06
-6.48783e-05
6.52392e-06
-7.06331e-05
5.43003e-06
-7.60387e-05
4.13921e-06
-8.10723e-05
3.07679e-06
-8.59887e-05
2.65715e-06
-9.1215e-05
3.29057e-06
-9.74686e-05
5.28137e-06
-0.00010482
8.94566e-06
-0.000114305
1.42186e-05
-0.000126681
2.08907e-05
-0.000142437
2.87658e-05
-0.000161433
3.79025e-05
-0.000183211
4.85677e-05
-0.000207046
6.07121e-05
-0.00023181
7.35396e-05
-0.000256085
8.567e-05
-0.000277526
9.54087e-05
-0.000292679
0.000100552
-0.000297771
9.77934e-05
-0.000289092
8.35486e-05
-0.000263407
5.66127e-05
-0.000222519
2.24663e-05
-0.00017189
-1.60326e-05
-0.000117631
-5.6919e-05
-5.79531e-05
-8.80765e-05
3.87162e-06
-0.000112584
6.67125e-05
-0.000130618
0.000131193
-0.00014383
0.00019748
-0.00015311
0.000265225
-0.000159315
0.000333723
-0.000163095
0.000402159
-0.000164857
0.000469671
-0.000164856
0.000535606
-0.000163266
0.000599255
-0.000160267
0.000659873
-0.000156041
0.000717143
-0.000150787
0.000771016
-0.000144885
0.000821548
-0.000139009
0.000869462
-0.000133984
0.000914556
-0.000131713
0.000959431
-0.000131907
-0.000145045
0.000975282
0.000305927
0.00102604
0.000305193
0.00106097
0.000326983
0.00105861
0.000346599
0.00101216
0.000350839
0.000925026
0.000340326
0.000805716
0.000318761
0.000661712
0.000287364
0.000504807
0.000247858
0.00034561
0.000203464
0.000190026
0.000158599
4.73126e-05
0.000113826
-4.90897e-05
7.45324e-05
-8.5795e-05
4.66397e-05
-0.000107416
1.26279e-05
-0.000118229
-1.82739e-05
-0.000110124
-3.26527e-05
-0.000103565
-8.41382e-06
-0.000113201
1.64973e-05
-0.000124453
1.41545e-05
-0.000132857
2.74957e-06
-0.000139317
-7.21139e-06
-0.000140926
-1.52133e-05
-0.000138224
-1.91455e-05
-0.000134128
-1.78827e-05
-0.000130377
-1.39471e-05
-0.000127937
-9.10343e-06
-0.000127026
-4.57901e-06
-0.000127922
-5.39249e-07
-0.000129515
1.75253e-06
-0.000131882
4.10586e-06
-0.000135476
6.57706e-06
-0.000140292
9.00197e-06
-0.000146233
1.13308e-05
-0.000153176
1.33647e-05
-0.000160792
1.46627e-05
-0.000168467
1.4764e-05
-0.000175492
1.35481e-05
-0.000181243
1.11818e-05
-0.000185183
8.07871e-06
-0.000187203
5.0965e-06
-0.000187309
2.76333e-06
-0.000185857
1.83855e-06
-0.000183528
2.95233e-06
-0.000181037
6.4548e-06
-0.000178917
1.20992e-05
-0.000177232
1.9205e-05
-0.000175612
2.71459e-05
-0.000172738
3.50285e-05
-0.000166554
4.23843e-05
-0.000154826
4.89836e-05
-0.0001352
5.39135e-05
-0.000106314
5.6784e-05
-6.66868e-05
5.57818e-05
-1.5154e-05
4.90191e-05
4.68171e-05
3.58223e-05
0.000113708
1.66575e-05
0.000180672
-1.03507e-05
0.000244775
-4.16367e-05
0.000304431
-7.56891e-05
0.000357138
-0.000109626
0.00040791
-0.000138849
0.00045776
-0.000162434
0.0005079
-0.000180757
0.000558294
-0.000194225
0.000608461
-0.000203277
0.000657581
-0.000208435
0.000704751
-0.000210264
0.000749166
-0.000209272
0.000790198
-0.000205888
0.000827424
-0.000200491
0.000860594
-0.000193438
0.000889657
-0.000185103
0.000914786
-0.000175917
0.000936323
-0.000166422
0.00095464
-0.000157326
0.000970217
-0.000149562
0.000982815
-0.000144311
0.000993503
-0.000142596
-0.000148634
0.000857109
0.000271375
0.000897356
0.000264946
0.000950165
0.000274174
0.00100471
0.000292057
0.00104637
0.000309174
0.0010653
0.0003214
0.00105662
0.000327444
0.00101789
0.000326092
0.00094946
0.000316285
0.000854941
0.000297984
0.000740714
0.000272825
0.000611681
0.00024286
0.000476347
0.000209866
0.000348223
0.000174764
0.000223406
0.000137444
0.000102013
0.00010312
-2.64659e-07
6.96246e-05
-5.30829e-05
4.44044e-05
-6.68164e-05
3.02309e-05
-7.14643e-05
1.88024e-05
-7.83416e-05
9.62681e-06
-8.79261e-05
2.37312e-06
-9.97121e-05
-3.4273e-06
-0.000112719
-6.13844e-06
-0.000123344
-7.25744e-06
-0.000130709
-6.58218e-06
-0.000135945
-3.86798e-06
-0.000140055
-4.68956e-07
-0.000143324
2.73042e-06
-0.0001465
4.92807e-06
-0.000149237
6.84281e-06
-0.000151727
9.06709e-06
-0.000154364
1.16387e-05
-0.000157455
1.44221e-05
-0.000161101
1.70104e-05
-0.000165151
1.87125e-05
-0.000168513
1.81263e-05
-0.000170156
1.51911e-05
-0.000169333
1.03589e-05
-0.000165034
3.78013e-06
-0.000157441
-2.49706e-06
-0.000145757
-8.92007e-06
-0.000130535
-1.33842e-05
-0.000112874
-1.47084e-05
-9.37624e-05
-1.26568e-05
-7.41554e-05
-7.50782e-06
-5.40011e-05
-9.49322e-07
-3.39683e-05
7.11308e-06
-1.32422e-05
1.43024e-05
1.01358e-05
1.90063e-05
3.91094e-05
2.00101e-05
7.6581e-05
1.64419e-05
0.000125369
7.9957e-06
0.000184016
-2.86482e-06
0.00025121
-1.81752e-05
0.000324786
-3.77531e-05
0.000402491
-6.10475e-05
0.000479565
-8.74248e-05
0.000553203
-0.000115275
0.000620586
-0.000143072
0.000680075
-0.000169114
0.000732771
-0.000191545
0.000779664
-0.000209327
0.000821179
-0.000222273
0.000857515
-0.000230561
0.000888799
-0.000234561
0.000915135
-0.000234771
0.000936629
-0.000231759
0.000953446
-0.000226088
0.000965831
-0.000218274
0.000974127
-0.000208787
0.000978756
-0.000198067
0.000980209
-0.000186557
0.000979019
-0.000174726
0.000975704
-0.000163108
0.000970686
-0.000152308
0.000964225
-0.000143101
0.000956159
-0.000136244
0.000946387
-0.000132823
-0.000134234
0.000759397
0.000238012
0.000790536
0.000233807
0.000828352
0.000236358
0.000874988
0.000245421
0.000927005
0.000257156
0.000978874
0.000269531
0.00102441
0.000281907
0.00105754
0.000292967
0.00107315
0.000300668
0.0010678
0.000303338
0.00104032
0.000300307
0.000991386
0.00029179
0.000922985
0.000278267
0.000838542
0.000259207
0.000741158
0.000234828
0.000636195
0.000208083
0.00053164
0.000174179
0.000433431
0.000142614
0.000348327
0.000115334
0.000275374
9.1756e-05
0.000212785
7.22153e-05
0.000158834
5.63243e-05
0.000111562
4.38451e-05
7.11641e-05
3.42592e-05
3.72672e-05
2.66395e-05
1.03619e-05
2.03231e-05
-8.45449e-06
1.49484e-05
-1.94096e-05
1.04862e-05
-2.33799e-05
6.7007e-06
-2.24258e-05
3.97391e-06
-1.85993e-05
3.01635e-06
-1.34054e-05
3.87317e-06
-7.7869e-06
6.02021e-06
-2.17788e-06
8.8131e-06
3.39283e-06
1.14397e-05
9.56859e-06
1.25368e-05
1.68185e-05
1.08765e-05
2.66529e-05
5.35663e-06
3.87921e-05
-1.78025e-06
5.33952e-05
-1.08229e-05
7.18328e-05
-2.09347e-05
9.334e-05
-3.04273e-05
0.000117776
-3.78201e-05
0.000145199
-4.21314e-05
0.000175537
-4.29945e-05
0.000208754
-4.07249e-05
0.000244223
-3.64188e-05
0.00028272
-3.13832e-05
0.000324479
-2.74574e-05
0.000369863
-2.63772e-05
0.000419238
-2.93649e-05
0.000472498
-3.68181e-05
0.000528932
-4.84386e-05
0.000589541
-6.3474e-05
0.000652889
-8.15226e-05
0.000716854
-0.000101719
0.000778973
-0.000123166
0.000836654
-0.000145106
0.000888039
-0.00016666
0.000931787
-0.000186821
0.00096724
-0.000204568
0.000994639
-0.000218944
0.00101462
-0.000229305
0.00102785
-0.0002355
0.00103502
-0.000237737
0.00103688
-0.000236417
0.00103414
-0.000232037
0.00102752
-0.000225135
0.00101767
-0.000216242
0.00100525
-0.000205849
0.000990858
-0.000194397
0.000975083
-0.000182292
0.00095845
-0.000169923
0.000941406
-0.000157683
0.000924292
-0.000145993
0.000907289
-0.000135305
0.000890369
-0.00012618
0.000873222
-0.000119098
0.000855253
-0.000114853
-0.000114006
0.000672434
0.000206415
0.000702275
0.000203966
0.000733372
0.000205261
0.000767841
0.000210953
0.000806617
0.00021838
0.000850042
0.000226106
0.000897309
0.00023464
0.000946039
0.000244237
0.000992646
0.000254062
0.00103305
0.000262933
0.00106348
0.000269882
0.00108113
0.000274132
0.00108437
0.000275034
0.00107193
0.000271644
0.00104346
0.000263298
0.00100068
0.000250869
0.000948551
0.000226304
0.00089109
0.000200074
0.000831296
0.000175128
0.000771597
0.000151456
0.000714119
0.000129693
0.00066016
0.000110283
0.000610635
9.33697e-05
0.000566161
7.87338e-05
0.00052687
6.59302e-05
0.000492594
5.45986e-05
0.000462991
4.45517e-05
0.000437819
3.56579e-05
0.000416711
2.78091e-05
0.00039955
2.11348e-05
0.000386775
1.57915e-05
0.000378945
1.17031e-05
0.00037639
8.57532e-06
0.000379213
5.99013e-06
0.000387458
3.19437e-06
0.000400836
-8.41324e-07
0.000418247
-6.53439e-06
0.000438117
-1.4513e-05
0.000460242
-2.39051e-05
0.000483629
-3.421e-05
0.000507126
-4.44325e-05
0.000530109
-5.34094e-05
0.000552552
-6.02631e-05
0.00057493
-6.45098e-05
0.000598097
-6.61618e-05
0.000623117
-6.57447e-05
0.000650924
-6.42257e-05
0.000682335
-6.27938e-05
0.000717621
-6.27442e-05
0.000756473
-6.52289e-05
0.000798083
-7.09747e-05
0.000841392
-8.01275e-05
0.000885239
-9.22851e-05
0.00092844
-0.000106675
0.000969428
-0.000122511
0.00100673
-0.000139023
0.00103905
-0.000155487
0.00106524
-0.000171291
0.00108445
-0.000185875
0.00109628
-0.000198651
0.00110077
-0.000209054
0.00109843
-0.000216604
0.00109012
-0.000220997
0.00107683
-0.00022221
0.00105956
-0.000220463
0.00103926
-0.000216113
0.0010168
-0.000209579
0.000992959
-0.000201296
0.0009684
-0.000191683
0.000943677
-0.000181125
0.000919245
-0.000169966
0.000895469
-0.000158516
0.000872615
-0.000147069
0.000850849
-0.000135916
0.000830222
-0.000125366
0.000810651
-0.000115735
0.000791898
-0.000107427
0.000773511
-0.000100711
0.000754907
-9.62495e-05
-9.40039e-05
0.000594386
0.000177666
0.00062317
0.000175181
0.000652324
0.000176107
0.000682116
0.00018116
0.000712927
0.000187569
0.000745617
0.000193416
0.000781188
0.000199069
0.000820205
0.00020522
0.000862428
0.000211838
0.000906732
0.000218629
0.000951251
0.000225362
0.000993707
0.000231676
0.00103177
0.000236975
0.00106303
0.000240384
0.00108531
0.000241012
0.00109748
0.0002387
0.00109965
0.000224136
0.0010935
0.000206225
0.00108058
0.000188042
0.00106241
0.00016963
0.00104065
0.000151453
0.00101689
0.000134047
0.000992513
0.000117742
0.000968629
0.000102618
0.000945969
8.85907e-05
0.000925001
7.55666e-05
0.000906032
6.35205e-05
0.000889233
5.24573e-05
0.000874642
4.23999e-05
0.000862354
3.34225e-05
0.000852597
2.55488e-05
0.000845685
1.86147e-05
0.000841995
1.22654e-05
0.000841979
6.00622e-06
0.000845955
-7.8215e-07
0.000853821
-8.7068e-06
0.000865078
-1.77917e-05
0.000878659
-2.80934e-05
0.000893734
-3.89801e-05
0.000909248
-4.97239e-05
0.000924347
-5.95314e-05
0.000938567
-6.76296e-05
0.000951794
-7.349e-05
0.00096425
-7.69663e-05
0.00097641
-7.83214e-05
0.000988863
-7.81981e-05
0.00100216
-7.75217e-05
0.0010167
-7.73377e-05
0.0010326
-7.8644e-05
0.00104958
-8.22099e-05
0.00106701
-8.84023e-05
0.001084
-9.71175e-05
0.00109957
-0.000107852
0.00111277
-0.000119877
0.00112272
-0.000132466
0.00112868
-0.000144978
0.00113006
-0.000156869
0.00112649
-0.000167718
0.00111781
-0.000177197
0.00110416
-0.000185004
0.00108597
-0.000190857
0.00106389
-0.000194526
0.00103877
-0.000195883
0.00101152
-0.000194953
0.000982956
-0.000191904
0.000953841
-0.000186997
0.000924795
-0.000180534
0.000896321
-0.000172822
0.000868797
-0.00016416
0.000842495
-0.000154823
0.00081759
-0.000145061
0.000794178
-0.000135104
0.000772282
-0.000125173
0.000751854
-0.000115488
0.000732772
-0.000106284
0.000714828
-9.77905e-05
0.000697724
-9.03238e-05
0.000680987
-8.39737e-05
0.000664201
-7.94631e-05
-7.59517e-05
0.000525111
0.000151816
0.000551937
0.000148356
0.000579147
0.000148897
0.000606469
0.000153838
0.000634009
0.000160029
0.000661957
0.000165468
0.000690634
0.000170392
0.000720614
0.00017524
0.000752549
0.000179903
0.000786898
0.00018428
0.000823763
0.000188498
0.000862793
0.000192646
0.000903172
0.000196596
0.000943607
0.000199948
0.000982454
0.000202166
0.00101819
0.000202966
0.00104849
0.000193832
0.00107296
0.00018176
0.00109181
0.000169191
0.00110544
0.000155999
0.00111449
0.000142407
0.00111974
0.000128793
0.00112204
0.000115447
0.00112214
0.000102512
0.0011207
9.00296e-05
0.00111824
7.80281e-05
0.00111519
6.65747e-05
0.00111188
5.57621e-05
0.00110861
4.56773e-05
0.00110564
3.63845e-05
0.00110332
2.78693e-05
0.00110197
1.99655e-05
0.00110187
1.23628e-05
0.00110318
4.69602e-06
0.00110589
-3.48759e-06
0.00110965
-1.24683e-05
0.00111407
-2.22064e-05
0.00111851
-3.254e-05
0.00112247
-4.29375e-05
0.00112549
-5.27475e-05
0.00112731
-6.1349e-05
0.0011279
-6.82155e-05
0.00112745
-7.30451e-05
0.00112635
-7.58596e-05
0.00112503
-7.70017e-05
0.00112391
-7.7083e-05
0.00112328
-7.68897e-05
0.00112319
-7.72532e-05
0.00112346
-7.89121e-05
0.00112364
-8.23846e-05
0.0011231
-8.78633e-05
0.00112117
-9.51877e-05
0.00111723
-0.000103913
0.00111079
-0.000113443
0.00110151
-0.000123185
0.00108918
-0.000132639
0.00107372
-0.000141409
0.00105521
-0.000149207
0.00103384
-0.00015583
0.00100994
-0.000161105
0.000983958
-0.000164875
0.000956441
-0.000167009
0.000927994
-0.000167436
0.00089921
-0.000166169
0.000870618
-0.000163311
0.00084265
-0.000159029
0.000815641
-0.000153525
0.000789828
-0.000147009
0.00076536
-0.000139691
0.000742312
-0.000131774
0.0007207
-0.000123449
0.000700492
-0.000114896
0.000681616
-0.000106298
0.000663962
-9.78335e-05
0.000647378
-8.97005e-05
0.000631661
-8.20736e-05
0.000616554
-7.52168e-05
0.000601654
-6.90739e-05
0.000586681
-6.44899e-05
-5.97403e-05
0.00046394
0.000128552
0.00048864
0.000123656
0.000513481
0.000124055
0.000538161
0.000129159
0.000563125
0.000135065
0.00058845
0.000140143
0.000613976
0.000144865
0.000639773
0.000149444
0.000666096
0.00015358
0.000693266
0.000157111
0.000721643
0.00016012
0.000751571
0.000162718
0.000783249
0.000164919
0.000816587
0.00016661
0.000851153
0.0001676
0.000886313
0.000167806
0.000919937
0.000160208
0.000951141
0.000150555
0.000979552
0.000140781
0.0010049
0.000130656
0.00102709
0.000120216
0.00104623
0.000109653
0.00106254
9.91365e-05
0.00107629
8.87583e-05
0.00108776
7.85572e-05
0.00109722
6.85739e-05
0.00110491
5.88837e-05
0.00111109
4.95837e-05
0.001116
4.07607e-05
0.00111992
3.24651e-05
0.00112311
2.46766e-05
0.00112581
1.72645e-05
0.00112818
9.99569e-06
0.00113025
2.62948e-06
0.00113192
-5.15559e-06
0.00113291
-1.34639e-05
0.00113297
-2.22614e-05
0.00113176
-3.13278e-05
0.00112905
-4.0235e-05
0.00112477
-4.8465e-05
0.00111897
-5.55459e-05
0.00111187
-6.11214e-05
0.00110385
-6.50251e-05
0.00109533
-6.73401e-05
0.00108672
-6.83897e-05
0.00107832
-6.86866e-05
0.00107029
-6.8855e-05
0.00106257
-6.95325e-05
0.00105492
-7.12663e-05
0.00104696
-7.44223e-05
0.00103822
-7.91181e-05
0.00102824
-8.52105e-05
0.00101667
-9.23479e-05
0.0010033
-0.000100068
0.000988023
-0.000107908
0.000970856
-0.000115472
0.000951899
-0.000122451
0.000931311
-0.000128619
0.000909298
-0.000133817
0.000886112
-0.00013792
0.000862055
-0.000140817
0.000837465
-0.000142419
0.000812699
-0.00014267
0.0007881
-0.000141571
0.000763969
-0.000139179
0.000740543
-0.000135603
0.000717998
-0.00013098
0.000696451
-0.000125462
0.000675966
-0.000119206
0.000656563
-0.000112371
0.000638227
-0.000105113
0.000620918
-9.75871e-05
0.000604569
-8.99492e-05
0.000589094
-8.23586e-05
0.00057438
-7.49861e-05
0.000560279
-6.7973e-05
0.000546601
-6.15381e-05
0.000533046
-5.5519e-05
0.000519377
-5.08214e-05
-4.4976e-05
0.000410014
0.000107502
0.000432754
0.000100915
0.000455184
0.000101626
0.000477154
0.000107188
0.000499458
0.000112761
0.000522207
0.000117394
0.000545209
0.000121863
0.000568449
0.000126204
0.000591953
0.000130076
0.000615705
0.000133358
0.000639751
0.000136075
0.000664232
0.000138236
0.000689342
0.000139809
0.00071524
0.000140712
0.000741985
0.000140854
0.000769552
0.000140239
0.000796653
0.000133107
0.000822806
0.000124401
0.000847787
0.0001158
0.00087132
0.000107122
0.000893181
9.83558e-05
0.000913234
8.95998e-05
0.000931423
8.09474e-05
0.000947741
7.24407e-05
0.000962207
6.40907e-05
0.000974865
5.59161e-05
0.000985785
4.79637e-05
0.000995069
4.02991e-05
0.00100285
3.29803e-05
0.00100928
2.60348e-05
0.00101452
1.94358e-05
0.0010187
1.30804e-05
0.00102191
6.79441e-06
0.00102414
3.98885e-07
0.00102529
-6.30757e-06
0.00102522
-1.33971e-05
0.00102377
-2.08057e-05
0.00102076
-2.83242e-05
0.00101614
-3.56172e-05
0.00100997
-4.22908e-05
0.00100242
-4.79934e-05
0.000993777
-5.24801e-05
0.00098441
-5.56578e-05
0.000974692
-5.76223e-05
0.000964952
-5.86496e-05
0.000955419
-5.91535e-05
0.000946187
-5.96233e-05
0.000937204
-6.05495e-05
0.000928283
-6.23454e-05
0.000919142
-6.52809e-05
0.00090946
-6.94366e-05
0.000898946
-7.46958e-05
0.00088738
-8.07818e-05
0.000874639
-8.73278e-05
0.000860686
-9.39551e-05
0.000845543
-0.000100329
0.000829275
-0.000106184
0.000811977
-0.000111321
0.000793761
-0.000115602
0.000774769
-0.000118928
0.000755174
-0.000121222
0.000735176
-0.000122422
0.000714998
-0.000122492
0.000694859
-0.000121432
0.000674959
-0.00011928
0.000655467
-0.000116111
0.000636513
-0.000112026
0.00061819
-0.000107139
0.00060056
-0.000101576
0.000583653
-9.54642e-05
0.000567477
-8.89371e-05
0.000552019
-8.21291e-05
0.000537249
-7.518e-05
0.000523123
-6.82326e-05
0.000509575
-6.14379e-05
0.000496518
-5.49157e-05
0.000483816
-4.88363e-05
0.000471276
-4.29794e-05
0.000458629
-3.8174e-05
-3.15163e-05
0.000362528
8.8294e-05
0.000383496
7.99469e-05
0.000403597
8.15248e-05
0.000423065
8.77204e-05
0.000442883
9.29435e-05
0.000463082
9.71945e-05
0.00048353
0.000101415
0.000504306
0.000105428
0.000525433
0.000108949
0.000546824
0.000111967
0.000568394
0.000114506
0.000590097
0.000116534
0.000611919
0.000117987
0.000633857
0.000118774
0.000655911
0.0001188
0.0006781
0.00011805
0.000699516
0.000111691
0.000719969
0.000103948
0.000739466
9.63028e-05
0.000757939
8.86486e-05
0.000775303
8.09919e-05
0.000791488
7.34153e-05
0.000806442
6.59927e-05
0.000820128
5.87549e-05
0.000832513
5.17057e-05
0.000843578
4.48517e-05
0.000853323
3.82185e-05
0.000861778
3.18439e-05
0.000869
2.57585e-05
0.000875067
1.99679e-05
0.000880065
1.44375e-05
0.000884067
9.07862e-06
0.000887104
3.7574e-06
0.000889179
-1.67659e-06
0.000890232
-7.36059e-06
0.000890166
-1.33304e-05
0.000888867
-1.95074e-05
0.000886252
-2.57089e-05
0.000882302
-3.16675e-05
0.000877091
-3.70798e-05
0.000870778
-4.168e-05
0.000863592
-4.52945e-05
0.00085581
-4.78755e-05
0.000847711
-4.9523e-05
0.000839538
-5.04767e-05
0.000831464
-5.10798e-05
0.000823569
-5.17282e-05
0.00081583
-5.28105e-05
0.000808132
-5.46478e-05
0.000800294
-5.7443e-05
0.000792105
-6.1247e-05
0.000783363
-6.59537e-05
0.000773908
-7.13268e-05
0.000763632
-7.70526e-05
0.000752478
-8.28004e-05
0.00074042
-8.82714e-05
0.00072746
-9.32244e-05
0.000713623
-9.74832e-05
0.000698953
-0.000100932
0.000683524
-0.000103499
0.000667441
-0.000105139
0.000650844
-0.000105825
0.000633895
-0.000105543
0.000616767
-0.000104303
0.000599626
-0.000102139
0.000582621
-9.91067e-05
0.00056588
-9.52844e-05
0.000549503
-9.07619e-05
0.000533567
-8.56398e-05
0.000518127
-8.00244e-05
0.00050322
-7.40301e-05
0.000488866
-6.77749e-05
0.00047507
-6.13845e-05
0.000461826
-5.49883e-05
0.000449108
-4.87197e-05
0.000436878
-4.26854e-05
0.000425043
-3.70015e-05
0.000413503
-3.14394e-05
0.000401917
-2.65885e-05
-1.94902e-05
0.000320758
7.05692e-05
0.000340087
6.06176e-05
0.000357963
6.36491e-05
0.000375207
7.04757e-05
0.000392822
7.5329e-05
0.000410694
7.93226e-05
0.000428763
8.33456e-05
0.000447171
8.70201e-05
0.000465952
9.01684e-05
0.000485041
9.28771e-05
0.000504373
9.51743e-05
0.000523882
9.70238e-05
0.000543495
9.83739e-05
0.000563122
9.91473e-05
0.000582667
9.92554e-05
0.000602055
9.86622e-05
0.000620441
9.33049e-05
0.000637669
8.67204e-05
0.000653803
8.01694e-05
0.000668864
7.35871e-05
0.000682862
6.69938e-05
0.000695808
6.04693e-05
0.000707715
5.40861e-05
0.000718591
4.78791e-05
0.000728439
4.18575e-05
0.000737262
3.60285e-05
0.00074507
3.04101e-05
0.000751888
2.50259e-05
0.000757757
1.98899e-05
0.00076273
1.49946e-05
0.000766867
1.03008e-05
0.000770216
5.73011e-06
0.000772804
1.16908e-06
0.000774627
-3.49982e-06
0.000775636
-8.36914e-06
0.000775756
-1.34503e-05
0.000774908
-1.86599e-05
0.000773032
-2.38332e-05
0.000770112
-2.87473e-05
0.000766192
-3.31601e-05
0.000761379
-3.68664e-05
0.000755829
-3.97445e-05
0.000749735
-4.17815e-05
0.000743298
-4.30866e-05
0.000736702
-4.38804e-05
0.000730085
-4.44628e-05
0.000723525
-4.51678e-05
0.000717028
-4.63135e-05
0.000710534
-4.81541e-05
0.00070393
-5.08394e-05
0.000697074
-5.43907e-05
0.000689817
-5.86971e-05
0.000682029
-6.35381e-05
0.000673602
-6.86258e-05
0.000664456
-7.36546e-05
0.000654531
-7.83459e-05
0.000643782
-8.24759e-05
0.000632187
-8.58878e-05
0.000619746
-8.84907e-05
0.000606493
-9.02463e-05
0.000592502
-9.1148e-05
0.000577883
-9.1205e-05
0.000562775
-9.04349e-05
0.000547334
-8.88629e-05
0.000531721
-8.65254e-05
0.000516086
-8.34714e-05
0.000500564
-7.97626e-05
0.000485272
-7.54704e-05
0.000470309
-7.06762e-05
0.000455752
-6.54681e-05
0.000441667
-5.99442e-05
0.000428099
-5.42073e-05
0.000415084
-4.83694e-05
0.000402642
-4.25463e-05
0.000390775
-3.68533e-05
0.000379478
-3.13879e-05
0.000368683
-2.62069e-05
0.000358364
-2.11198e-05
0.000348107
-1.6332e-05
-9.18376e-06
0.000284047
5.39957e-05
0.000301804
4.28601e-05
0.000317588
4.78657e-05
0.000332894
5.51691e-05
0.000348561
5.96619e-05
0.000364359
6.35245e-05
0.000380326
6.73789e-05
0.000396619
7.07271e-05
0.000413248
7.35393e-05
0.000430163
7.59622e-05
0.000447326
7.80114e-05
0.000464697
7.96528e-05
0.000482216
8.08548e-05
0.0004998
8.15629e-05
0.000517349
8.17068e-05
0.000534761
8.12503e-05
0.000551229
7.68363e-05
0.000566576
7.1374e-05
0.000580839
6.59061e-05
0.000594041
6.03848e-05
0.000606204
5.48316e-05
0.000617354
4.93187e-05
0.000627526
4.39142e-05
0.000636751
3.86548e-05
0.000645053
3.35546e-05
0.000652459
2.8623e-05
0.000658993
2.38756e-05
0.00066469
1.93291e-05
0.000669592
1.49878e-05
0.000673749
1.08373e-05
0.000677212
6.8384e-06
0.000680022
2.91971e-06
0.000682204
-1.01263e-06
0.000683752
-5.04814e-06
0.00068463
-9.24723e-06
0.000684784
-1.36038e-05
0.000684155
-1.80307e-05
0.000682696
-2.23746e-05
0.00068039
-2.64414e-05
0.000677261
-3.00306e-05
0.000673376
-3.2982e-05
0.000668845
-3.52137e-05
0.000663806
-3.67423e-05
0.000658409
-3.76896e-05
0.000652798
-3.82686e-05
0.000647087
-3.87524e-05
0.000641352
-3.9433e-05
0.000635617
-4.0578e-05
0.000629853
-4.23899e-05
0.000623988
-4.49745e-05
0.00061792
-4.83227e-05
0.000611532
-5.23096e-05
0.000604708
-5.67139e-05
0.000597337
-6.12544e-05
0.000589316
-6.56343e-05
0.000580555
-6.95848e-05
0.000570976
-7.28963e-05
0.000560523
-7.54352e-05
0.000549177
-7.71447e-05
0.00053696
-7.80292e-05
0.000523941
-7.81285e-05
0.00051023
-7.74949e-05
0.000495974
-7.61785e-05
0.000481335
-7.4224e-05
0.000466482
-7.16725e-05
0.000451578
-6.85669e-05
0.000436771
-6.49556e-05
0.000422193
-6.08926e-05
0.000407959
-5.64418e-05
0.000394164
-5.16731e-05
0.000380888
-4.66685e-05
0.000368195
-4.15147e-05
0.000356134
-3.63083e-05
0.000344737
-3.1149e-05
0.000334015
-2.61318e-05
0.000323974
-2.13468e-05
0.000314556
-1.67887e-05
0.000305784
-1.23483e-05
0.0002972
-7.74707e-06
-8.93193e-07
0.000251798
3.82838e-05
0.000267991
2.66669e-05
0.000281861
3.39956e-05
0.000295502
4.15283e-05
0.000309435
4.57293e-05
0.000323394
4.95657e-05
0.000337524
5.32486e-05
0.000351967
5.62838e-05
0.000366703
5.8804e-05
0.000381685
6.09796e-05
0.00039689
6.2807e-05
0.000412286
6.42568e-05
0.000427827
6.53133e-05
0.000443451
6.59385e-05
0.00045908
6.60778e-05
0.000474628
6.57025e-05
0.000489365
6.20991e-05
0.000503116
5.76232e-05
0.000515902
5.31202e-05
0.000527734
4.85529e-05
0.000538624
4.39416e-05
0.000548593
3.935e-05
0.000557667
3.48401e-05
0.000565874
3.04472e-05
0.000573243
2.61864e-05
0.000579798
2.20677e-05
0.000585569
1.81046e-05
0.000590589
1.43089e-05
0.0005949
1.06772e-05
0.000598545
7.19172e-06
0.00060157
3.81418e-06
0.00060401
4.79381e-07
0.000605888
-2.89108e-06
0.000607206
-6.3658e-06
0.000607941
-9.98213e-06
0.000608056
-1.37185e-05
0.000607508
-1.74832e-05
0.000606263
-2.11292e-05
0.000604302
-2.44807e-05
0.000601638
-2.73666e-05
0.000598316
-2.96598e-05
0.000594412
-3.13096e-05
0.000590028
-3.2358e-05
0.000585279
-3.29407e-05
0.00058028
-3.32697e-05
0.000575129
-3.36015e-05
0.000569894
-3.41983e-05
0.000564604
-3.52882e-05
0.000559246
-3.70312e-05
0.000553764
-3.9493e-05
0.000548074
-4.26325e-05
0.000542068
-4.63032e-05
0.000535626
-5.02722e-05
0.000528626
-5.42548e-05
0.00052095
-5.79582e-05
0.000512491
-6.11254e-05
0.000503165
-6.35703e-05
0.000492925
-6.51951e-05
0.000481768
-6.59884e-05
0.000469744
-6.6005e-05
0.000456949
-6.5333e-05
0.000443518
-6.40645e-05
0.000429616
-6.22767e-05
0.000415419
-6.0027e-05
0.000401104
-5.73571e-05
0.000386837
-5.43001e-05
0.000372771
-5.08892e-05
0.000359038
-4.716e-05
0.000345754
-4.3158e-05
0.000333016
-3.89344e-05
0.000320901
-3.45541e-05
0.000309473
-3.00866e-05
0.000298776
-2.56112e-05
0.000288837
-2.12102e-05
0.000279661
-1.6956e-05
0.000271249
-1.29342e-05
0.000263537
-9.07692e-06
0.000256588
-5.39973e-06
0.000249937
-1.09541e-06
5.23917e-06
0.000223468
2.31981e-05
0.000238065
1.20702e-05
0.000250246
2.18143e-05
0.000262461
2.93135e-05
0.000274841
3.33493e-05
0.00028718
3.72268e-05
0.000299711
4.07173e-05
0.000312537
4.34576e-05
0.000325616
4.57255e-05
0.00033891
4.76853e-05
0.0003524
4.93173e-05
0.000366056
5.06006e-05
0.000379838
5.15316e-05
0.000393693
5.20832e-05
0.000407559
5.22123e-05
0.000421364
5.1897e-05
0.000434464
4.89996e-05
0.000446699
4.53874e-05
0.00045809
4.173e-05
0.000468643
3.79992e-05
0.000478369
3.42155e-05
0.000487282
3.04372e-05
0.000495401
2.6721e-05
0.000502748
2.31004e-05
0.000509344
1.95903e-05
0.000515212
1.62002e-05
0.000520375
1.29415e-05
0.000524862
9.82202e-06
0.000528708
6.83129e-06
0.000531949
3.94995e-06
0.000534624
1.1393e-06
0.000536766
-1.66208e-06
0.000538395
-4.52042e-06
0.000539517
-7.48762e-06
0.000540117
-1.05821e-05
0.000540167
-1.37685e-05
0.000539633
-1.69491e-05
0.000538482
-1.99788e-05
0.000536696
-2.2694e-05
0.000534274
-2.49448e-05
0.000531244
-2.66305e-05
0.000527662
-2.77274e-05
0.000523605
-2.83011e-05
0.000519167
-2.85022e-05
0.000514442
-2.8545e-05
0.000509515
-2.86741e-05
0.000504443
-2.91269e-05
0.000499252
-3.00964e-05
0.000493923
-3.17029e-05
0.000488404
-3.39734e-05
0.000482605
-3.6834e-05
0.000476417
-4.01152e-05
0.000469718
-4.35729e-05
0.000462387
-4.69236e-05
0.000454317
-4.98884e-05
0.000445428
-5.22368e-05
0.000435677
-5.38197e-05
0.000425067
-5.45845e-05
0.000413646
-5.45675e-05
0.000401509
-5.38675e-05
0.000388785
-5.2609e-05
0.000375629
-5.09092e-05
0.000362211
-4.88588e-05
0.000348702
-4.65174e-05
0.000335264
-4.39196e-05
0.00032205
-4.10853e-05
0.000309191
-3.80309e-05
0.000296805
-3.47734e-05
0.000284987
-3.13403e-05
0.000273817
-2.7765e-05
0.000263359
-2.40957e-05
0.000253658
-2.03853e-05
0.000244743
-1.66964e-05
0.000236628
-1.3095e-05
0.000229303
-9.63124e-06
0.00022276
-6.39147e-06
0.000216928
-3.24443e-06
0.0002119
-3.7203e-07
0.000207252
3.55246e-06
9.27614e-06
0.00019856
8.5672e-06
0.000211522
-8.90986e-07
0.000222268
1.10674e-05