/*--------------------------------*- C++ -*----------------------------------*\
| =========                 |                                                 |
| \\      /  F ield         | OpenFOAM: The Open Source CFD Toolbox           |
|  \\    /   O peration     | Version:  v1912                                 |
|   \\  /    A nd           | Website:  www.openfoam.com                      |
|    \\/     M anipulation  |                                                 |
\*---------------------------------------------------------------------------*/
FoamFile
{
    version     2.0;
    format      ascii;
    class       volVectorField;
    location    "325";
    object      U;
}
// * * * * * * * * * * * * * * * * * * * * * * * * * * * * * * * * * * * * * //

dimensions      [0 1 -1 0 0 0 0];


internalField   nonuniform List<vector> 
2000
(
(0.84616 0.187394 0)
(0.515131 0.12409 0)
(0.223444 0.0684428 0)
(0.0598017 0.0174441 6.19772e-20)
(-0.00455601 -0.0232158 1.23349e-17)
(-0.0642208 -0.0384567 1.06693e-17)
(-0.0776272 -0.0372402 0)
(-0.0716153 -0.0167408 0)
(-0.0590576 0.0114967 0)
(-0.0420334 0.0252568 2.42254e-17)
(-0.0414276 0.0108656 -1.48457e-17)
(-0.0273404 -0.000849718 -1.3939e-17)
(-0.0163507 -0.00300006 0)
(-0.0195042 -0.00264333 0)
(-0.0204903 -0.00218238 -1.10804e-17)
(-0.0139106 -0.000495939 0)
(-0.00547444 0.00138578 9.99321e-18)
(-0.00309 0.00485496 4.11258e-21)
(-0.00312229 0.00558565 9.69556e-18)
(-0.00301796 0.00352407 -4.78557e-18)
(-0.00211806 0.000676012 9.46207e-18)
(0.000256651 -0.00111046 0)
(0.00335687 -0.00167963 0)
(0.00614376 -0.00152485 -6.11203e-22)
(0.00815195 -0.000994026 0)
(0.0091116 -0.000281323 -4.55483e-18)
(0.00907029 0.000400627 0)
(0.00835776 0.000781599 4.56487e-18)
(0.00746213 0.000817097 0)
(0.00670644 0.000647273 0)
(0.00615011 0.000439783 0)
(0.00570455 0.000283935 1.16626e-18)
(0.00528129 0.000234011 0)
(0.00483414 0.000280516 -5.91968e-19)
(0.00435146 0.000356772 1.97564e-14)
(0.0038598 0.00037988 1.97465e-14)
(0.00342386 0.000281685 6.10936e-19)
(0.00312121 2.61696e-05 -6.18455e-19)
(0.00307294 -0.000372012 0)
(0.00335334 -0.000912534 2.55335e-18)
(0.00391062 -0.00152136 0)
(0.00465629 -0.0020717 -2.6496e-18)
(0.00542069 -0.00243456 0)
(0.00602134 -0.00250255 -5.52526e-18)
(0.00601094 -0.00229933 2.81636e-18)
(0.00499024 -0.00176279 0)
(0.00284159 -0.00106164 0)
(-0.000826321 -0.000441366 -2.97109e-18)
(-0.0064033 0.000344491 0)
(-0.0143085 0.00191835 2.97289e-18)
(-0.0254707 0.00493861 0)
(-0.0409441 0.00944916 5.75439e-18)
(-0.0616304 0.0144917 -5.59782e-18)
(-0.0879356 0.019139 5.39548e-18)
(-0.119987 0.0224744 -2.51128e-18)
(-0.157228 0.0223832 0)
(-0.197584 0.016735 2.12292e-18)
(-0.237829 0.00503096 -1.91031e-18)
(-0.273984 -0.0115156 -3.88744e-18)
(-0.301083 -0.0300956 3.24928e-18)
(-0.313969 -0.0461502 -3.39231e-18)
(-0.311306 -0.0559423 3.81686e-18)
(-0.300046 -0.0609055 -4.53826e-18)
(-0.27933 -0.062678 5.55052e-18)
(-0.251603 -0.0621807 3.17187e-20)
(-0.218205 -0.060155 8.46173e-18)
(-0.18012 -0.0569464 0)
(-0.137818 -0.052729 0)
(-0.0915522 -0.0476448 5.43167e-20)
(-0.0418154 -0.0418328 0)
(0.0105686 -0.0352843 2.0585e-17)
(0.0657614 -0.0277329 0)
(0.124773 -0.0190323 1.97638e-17)
(0.187338 -0.0091041 -4.70406e-19)
(0.252972 0.00202829 1.69499e-17)
(0.323379 0.0141975 2.94687e-17)
(0.39506 0.0270953 7.1541e-19)
(0.481616 0.040311 -1.00101e-17)
(0.546403 0.0522494 -6.43751e-18)
(0.704178 0.0623849 0)
(1.0153 0.210385 0)
(0.944632 0.194214 0)
(0.804471 0.179988 -3.59455e-18)
(0.654413 0.152318 7.42844e-18)
(0.509211 0.111175 0)
(0.360018 0.0683804 -7.46112e-18)
(0.216478 0.0293402 0)
(0.0821198 -0.00527564 0)
(-0.0282725 -0.0180761 0)
(-0.0563155 -0.0189322 -1.77173e-17)
(-0.0668819 -0.024721 1.61158e-17)
(-0.0719945 -0.0156074 1.47808e-17)
(-0.0640796 0.00635119 0)
(-0.0520414 0.0194515 6.46311e-18)
(-0.0563552 0.00762362 0)
(-0.0510843 -0.00557279 0)
(-0.0410102 -0.00681858 0)
(-0.0357133 -0.00354064 5.35883e-18)
(-0.0387009 -0.00123043 -1.05404e-17)
(-0.0401842 -0.000833089 -5.19066e-18)
(-0.0401789 -0.00151341 0)
(-0.0381785 -0.00277729 0)
(-0.0345314 -0.00358476 0)
(-0.0302285 -0.00331146 -7.55562e-18)
(-0.0258204 -0.00210556 0)
(-0.0218146 -0.000597403 5.06818e-18)
(-0.0183303 0.000695706 2.54616e-18)
(-0.0156 0.00145928 0)
(-0.013785 0.0016359 0)
(-0.0128222 0.0013729 0)
(-0.0125935 0.00112769 0)
(-0.012964 0.0010813 -6.52997e-19)
(-0.0138008 0.00118581 0)
(-0.0150401 0.00133837 3.30094e-19)
(-0.0166489 0.00143752 1.66085e-19)
(-0.0185601 0.00139075 0)
(-0.0206718 0.00112755 0)
(-0.0228567 0.000630956 6.81167e-19)
(-0.0250461 -3.79707e-05 0)
(-0.0271917 -0.000773956 -1.39855e-18)
(-0.0292476 -0.00138298 0)
(-0.0312649 -0.0016471 -1.44572e-18)
(-0.0333726 -0.00135543 0)
(-0.0357821 -0.000343151 1.4885e-18)
(-0.0386463 0.00147385 1.53716e-18)
(-0.0422182 0.0041771 0)
(-0.0468962 0.00773723 0)
(-0.0530034 0.0121361 -3.14897e-18)
(-0.0606247 0.0176259 0)
(-0.0695468 0.0245199 3.25964e-20)
(-0.079467 0.0328554 0)
(-0.0902176 0.0420842 0)
(-0.101604 0.0513741 0)
(-0.112933 0.0599013 0)
(-0.123217 0.0663409 5.39961e-18)
(-0.130987 0.0683318 0)
(-0.133859 0.0635327 -4.91649e-18)
(-0.130599 0.0511819 2.45413e-18)
(-0.121578 0.032741 -2.16013e-18)
(-0.100706 0.0111052 -4.80362e-18)
(-0.0640991 -0.0127623 5.24025e-18)
(-0.0415872 -0.0404034 -6.07676e-18)
(-0.0131535 -0.061945 7.35892e-18)
(0.0192837 -0.0759403 0)
(0.0531781 -0.0840984 -1.46151e-17)
(0.0895408 -0.0879776 -1.08034e-17)
(0.129009 -0.0888352 0)
(0.171561 -0.0874733 6.25512e-18)
(0.216947 -0.0843308 1.33631e-17)
(0.264918 -0.0796574 0)
(0.31527 -0.0735322 0)
(0.367836 -0.0659275 0)
(0.422423 -0.0567768 0)
(0.478954 -0.0460758 -1.35074e-17)
(0.537327 -0.0339744 5.88247e-18)
(0.598522 -0.0208036 -1.15702e-17)
(0.660939 -0.00727593 9.97226e-18)
(0.732476 0.005716 -3.4138e-18)
(0.789251 0.0159147 0)
(0.90625 0.0197387 0)
(0.978489 0.201539 0)
(0.978855 0.193011 -2.85404e-18)
(0.969154 0.205119 3.54612e-18)
(0.939079 0.208542 -3.12285e-18)
(0.878025 0.194619 2.94705e-18)
(0.785589 0.168733 2.90627e-18)
(0.669327 0.138091 0)
(0.540975 0.106029 0)
(0.408175 0.0750596 0)
(0.285855 0.0459231 7.03076e-18)
(0.173693 0.0180034 0)
(0.0720986 -0.00637156 0)
(-0.0211023 -0.0137054 0)
(-0.0463838 -0.00325891 -7.35138e-18)
(-0.0510325 -0.0114388 0)
(-0.0601848 -0.0180904 -6.16876e-18)
(-0.0623871 -0.0113294 0)
(-0.0537244 0.00791884 5.96487e-18)
(-0.0530047 0.0146618 2.91607e-18)
(-0.058139 0.0103596 0)
(-0.0613677 0.00323357 -2.81589e-18)
(-0.0641498 -0.0035983 0)
(-0.0646856 -0.00765888 0)
(-0.0632525 -0.00889297 5.46443e-18)
(-0.0606801 -0.00837996 0)
(-0.0580414 -0.00702969 1.36949e-18)
(-0.0559642 -0.00532567 -4.1231e-18)
(-0.0547466 -0.00348092 0)
(-0.0543626 -0.00163615 0)
(-0.0545584 6.58449e-05 -6.97952e-19)
(-0.055128 0.00143054 0)
(-0.056197 0.00262344 2.32463e-21)
(-0.0578172 0.00375422 0)
(-0.059969 0.00483949 7.04409e-19)
(-0.0626202 0.00578279 8.81473e-20)
(-0.0656836 0.00640681 0)
(-0.0689614 0.00651479 1.76589e-19)
(-0.072174 0.00605136 -3.54945e-19)
(-0.0750454 0.00508588 -3.58494e-19)
(-0.0773289 0.00383142 -7.28433e-19)
(-0.0788859 0.00264916 7.44101e-19)
(-0.0796918 0.00183418 7.67572e-19)
(-0.0798315 0.00179367 0)
(-0.079542 0.00285591 1.6055e-18)
(-0.0791394 0.00522533 -3.31163e-18)
(-0.0789009 0.00887976 0)
(-0.0789711 0.0136207 -1.73864e-18)
(-0.079301 0.0192884 3.41174e-18)
(-0.0794574 0.0257978 0)
(-0.0784722 0.0332694 -1.6787e-18)
(-0.075123 0.041689 1.72727e-18)
(-0.0683764 0.0505066 -1.71158e-18)
(-0.0575044 0.0587042 -1.7009e-18)
(-0.0417042 0.0650026 0)
(-0.0205617 0.0678546 -3.50034e-18)
(0.00576009 0.0656683 -1.65635e-18)
(0.0373788 0.0570634 1.58364e-18)
(0.0727555 0.0401078 1.3865e-18)
(0.109954 0.0150733 2.44165e-18)
(0.146608 -0.0143754 0)
(0.18176 -0.0417415 0)
(0.214922 -0.064044 0)
(0.248032 -0.0819142 -1.47761e-18)
(0.282651 -0.0956836 0)
(0.319555 -0.105639 3.72152e-18)
(0.358681 -0.112073 0)
(0.399703 -0.115413 -2.25469e-18)
(0.442234 -0.116104 -4.96797e-18)
(0.485867 -0.114498 0)
(0.530229 -0.110849 -2.64711e-18)
(0.575041 -0.10534 2.70633e-18)
(0.620143 -0.0981387 0)
(0.665484 -0.0894426 0)
(0.711205 -0.0795014 0)
(0.757482 -0.0686993 -5.35565e-18)
(0.805127 -0.0575772 0)
(0.853361 -0.0470686 -1.86507e-18)
(0.907122 -0.0381181 3.30329e-18)
(0.950612 -0.0329922 0)
(1.0342 -0.0336332 3.88545e-19)
(0.970611 0.209118 0)
(0.963917 0.19477 1.56407e-18)
(0.966431 0.198522 0)
(0.977153 0.20642 1.72859e-18)
(0.982035 0.208901 -3.06846e-18)
(0.96829 0.204286 -1.37182e-18)
(0.930737 0.193745 0)
(0.87073 0.177894 0)
(0.791078 0.156595 0)
(0.695329 0.131355 1.38159e-18)
(0.589349 0.105443 1.41424e-18)
(0.479898 0.0807226 0)
(0.369098 0.0580259 0)
(0.266577 0.037667 0)
(0.179591 0.0185721 0)
(0.100356 0.00269636 6.5414e-18)
(0.0297097 -0.00972157 -3.45948e-18)
(-0.0308178 -0.00904305 0)
(-0.0347025 0.00114275 -3.34622e-18)
(-0.0376355 0.00285297 1.64481e-18)
(-0.0393942 0.00132618 3.25694e-18)
(-0.0425555 -0.00201621 0)
(-0.0480869 -0.00508318 0)
(-0.0546351 -0.00633777 -3.12771e-18)
(-0.0601458 -0.00554183 0)
(-0.0636917 -0.00331377 -1.54107e-18)
(-0.0658498 -0.000536826 1.53976e-18)
(-0.067368 0.00181281 0)
(-0.0687601 0.00318023 0)
(-0.0698195 0.00406345 7.74629e-19)
(-0.0708664 0.00488351 0)
(-0.0718086 0.00582167 -7.78661e-19)
(-0.0728057 0.00691259 0)
(-0.074042 0.00808015 -1.9472e-19)
(-0.0756191 0.00916973 -9.77773e-20)
(-0.0775027 0.00989207 -2.43874e-20)
(-0.0793584 0.00979402 -2.93946e-19)
(-0.0806933 0.00882892 3.96268e-19)
(-0.0810748 0.0071065 4.02043e-19)
(-0.0800728 0.00479353 1.2265e-18)
(-0.0774928 0.00219776 -4.26468e-19)
(-0.0731335 9.10572e-05 4.37669e-19)
(-0.0669581 -0.000950188 0)
(-0.0593797 -0.000519966 9.54944e-19)
(-0.0509083 0.00154539 9.64986e-19)
(-0.0419835 0.00507634 0)
(-0.0327826 0.00963922 2.11621e-18)
(-0.0232713 0.014414 1.11372e-18)
(-0.0132805 0.0186853 0)
(-0.00208071 0.0219061 -3.34572e-18)
(0.0117078 0.0238058 -2.18274e-18)
(0.0300449 0.0238314 1.05502e-18)
(0.0538875 0.0219505 1.99845e-18)
(0.0838327 0.0176384 0)
(0.119871 0.0104501 8.32902e-19)
(0.161352 -0.000193462 2.29186e-18)
(0.207109 -0.0145788 1.36944e-18)
(0.256543 -0.0319329 -1.21023e-18)
(0.307091 -0.0511088 -5.70373e-19)
(0.35658 -0.071147 0)
(0.403836 -0.0908529 0)
(0.448334 -0.108802 0)
(0.490557 -0.123998 1.92193e-18)
(0.53122 -0.135934 7.35453e-19)
(0.570647 -0.144503 0)
(0.608852 -0.149815 -1.79452e-18)
(0.645793 -0.152109 1.9931e-18)
(0.681467 -0.15169 -2.09392e-18)
(0.715902 -0.148876 -2.21783e-18)
(0.749166 -0.143968 1.29917e-19)
(0.781401 -0.137252 -2.54314e-18)
(0.812841 -0.129017 0)
(0.843815 -0.119575 0)
(0.874775 -0.109285 0)
(0.906153 -0.0986015 0)
(0.938745 -0.0880829 0)
(0.972163 -0.0785738 3.63909e-18)
(1.00972 -0.0707908 -1.33362e-18)
(1.04054 -0.0666059 0)
(1.09832 -0.0662466 -4.177e-19)
(0.972988 0.216083 0)
(0.965832 0.201813 1.91491e-18)
(0.959207 0.195608 2.54459e-19)
(0.96149 0.195558 1.94652e-18)
(0.972671 0.197552 0)
(0.985523 0.199256 -1.64194e-18)
(0.992499 0.199321 0)
(0.988448 0.196284 -3.70243e-19)
(0.970199 0.18907 0)
(0.935591 0.177614 -1.64193e-18)
(0.884663 0.162819 -1.27132e-18)
(0.819514 0.145742 -3.22383e-19)
(0.743153 0.126795 3.20025e-19)
(0.657864 0.10616 0)
(0.568899 0.0853263 3.20026e-19)
(0.479083 0.0662935 0)
(0.393167 0.0503195 2.71147e-18)
(0.313796 0.03644 -3.58685e-19)
(0.246724 0.024462 0)
(0.191939 0.014988 -1.93602e-18)
(0.147294 0.00821061 0)
(0.110033 0.00377955 0)
(0.07884 0.0013079 0)
(0.0521943 -0.000178715 0)
(0.0300706 -0.00135527 -2.25515e-19)
(0.0126804 -0.00228917 0)
(-0.000816107 -0.00259116 0)
(-0.00912163 -0.00180093 1.17153e-19)
(-0.0123298 -0.000639657 0)
(-0.0127941 0.000490206 0)
(-0.0114289 0.00194999 0)
(-0.00893427 0.00380996 -6.02499e-20)
(-0.00588834 0.0058586 0)
(-0.00291799 0.00790437 -2.73633e-19)
(7.28635e-05 0.00966315 0)
(0.00301995 0.0106542 3.04285e-20)
(0.00659013 0.0101784 1.51592e-19)
(0.0113967 0.00784366 3.00405e-20)
(0.0174948 0.00382527 -6.01656e-20)
(0.0250537 -0.00109598 -4.91594e-19)
(0.0343467 -0.00632807 -4.95468e-19)
(0.0455089 -0.0109856 5.02067e-19)
(0.058329 -0.0142701 -1.28087e-19)
(0.0728751 -0.0155489 -1.04355e-18)
(0.089268 -0.0145257 1.0625e-18)
(0.107668 -0.0113563 -1.36957e-19)
(0.127851 -0.00666442 0)
(0.150049 -0.00158973 -1.05415e-18)
(0.174788 0.00274392 0)
(0.202312 0.00528424 9.75549e-19)
(0.233086 0.0051431 0)
(0.267391 0.00184235 8.60967e-19)
(0.304811 -0.00474588 0)
(0.345407 -0.0146605 -1.83565e-19)
(0.389896 -0.0274067 -6.7047e-19)
(0.437258 -0.0422817 -6.07896e-19)
(0.486037 -0.0588264 1.42517e-19)
(0.534808 -0.076759 0)
(0.582106 -0.0955037 4.76601e-19)
(0.626696 -0.114195 -1.29399e-19)
(0.667735 -0.131818 0)
(0.704835 -0.147269 1.4442e-19)
(0.738085 -0.159724 -5.97463e-19)
(0.767839 -0.168836 -6.76161e-19)
(0.794482 -0.174612 0)
(0.818372 -0.177245 1.70449e-18)
(0.839886 -0.177035 0)
(0.85943 -0.174345 2.05263e-18)
(0.877431 -0.16956 2.20733e-18)
(0.894331 -0.163054 2.34009e-18)
(0.910595 -0.155176 2.87367e-19)
(0.926725 -0.146264 0)
(0.943243 -0.136657 0)
(0.960706 -0.126722 0)
(0.97958 -0.11688 -2.73174e-19)
(1.00054 -0.107612 0)
(1.02321 -0.0995658 -1.66001e-18)
(1.05009 -0.093302 1.63326e-18)
(1.07246 -0.0899852 1.03449e-19)
(1.11615 -0.0899185 4.49007e-20)
(0.974194 0.218515 -1.2584e-18)
(0.970935 0.206368 1.21767e-18)
(0.96512 0.19818 -2.87943e-19)
(0.96114 0.194123 0)
(0.9622 0.191957 0)
(0.968265 0.190564 0)
(0.977779 0.189911 0)
(0.988512 0.189516 1.27854e-18)
(0.99744 0.188355 0)
(1.00094 0.185421 -1.14285e-18)
(0.995769 0.180038 -1.4251e-18)
(0.979822 0.172005 3.27048e-19)
(0.952629 0.161552 9.86827e-19)
(0.914245 0.14877 0)
(0.865494 0.133862 -1.50664e-18)
(0.80802 0.117961 0)
(0.745758 0.102586 -1.20394e-18)
(0.683238 0.08811 3.01226e-19)
(0.622401 0.0745511 -1.25831e-18)
(0.565308 0.0622897 -9.68056e-19)
(0.512815 0.0515138 0)
(0.465232 0.0422372 0)
(0.422725 0.034369 -6.94372e-19)
(0.38529 0.0277881 0)
(0.352858 0.0222963 -5.50205e-19)
(0.325156 0.0176515 0)
(0.301648 0.0135713 0)
(0.281807 0.00977861 -9.74241e-20)
(0.265299 0.0062876 0)
(0.251765 0.00339381 0)
(0.241086 0.00138061 0)
(0.233559 0.000387621 5.25256e-20)
(0.229556 0.000322557 2.12552e-19)
(0.2291 0.000895965 1.32647e-19)
(0.23207 0.00162245 0)
(0.238537 0.00159127 0)
(0.248451 0.000146313 -2.55083e-20)
(0.260651 -0.00288279 -1.25766e-19)
(0.274254 -0.00763779 4.9729e-20)
(0.289463 -0.0137579 0)
(0.305495 -0.0202934 0)
(0.321639 -0.0265085 -2.03986e-19)
(0.337723 -0.03173 1.03745e-19)
(0.353958 -0.0354419 -4.31235e-19)
(0.370821 -0.0374218 4.42428e-19)
(0.389019 -0.0377999 1.11464e-19)
(0.409297 -0.0370758 0)
(0.432381 -0.0359158 4.46193e-19)
(0.458845 -0.0352907 0)
(0.48887 -0.0362688 0)
(0.522207 -0.0397012 0)
(0.558315 -0.045989 0)
(0.596506 -0.0550152 0)
(0.636061 -0.0662252 1.54707e-19)
(0.676193 -0.0791798 0)
(0.715861 -0.0934499 5.68841e-19)
(0.754027 -0.108527 -1.26466e-19)
(0.789773 -0.123866 0)
(0.822257 -0.138878 5.30273e-19)
(0.85079 -0.15292 1.2196e-19)
(0.874977 -0.165343 5.68941e-19)
(0.894769 -0.175553 -1.41166e-19)
(0.910463 -0.18314 0)
(0.922602 -0.187968 -7.29288e-19)
(0.931838 -0.190121 0)
(0.938845 -0.189822 0)
(0.944277 -0.187365 -9.5075e-19)
(0.948769 -0.183086 0)
(0.952923 -0.177328 0)
(0.957299 -0.170419 -1.14894e-18)
(0.962423 -0.162662 -3.13702e-19)
(0.968793 -0.154345 0)
(0.976867 -0.145756 0)
(0.987085 -0.137191 0)
(0.999754 -0.128983 3.05199e-19)
(1.01534 -0.121493 -1.04569e-18)
(1.03333 -0.115177 -2.40352e-19)
(1.05583 -0.110438 -1.88031e-19)
(1.07477 -0.107924 -1.17169e-19)
(1.11341 -0.108118 -2.40874e-19)
(0.974501 0.219011 4.44322e-18)
(0.973757 0.20804 -4.26587e-18)
(0.971715 0.200431 0)
(0.96916 0.196221 -2.58744e-18)
(0.967056 0.192951 0)
(0.96617 0.18933 -2.28198e-18)
(0.967427 0.185843 0)
(0.97168 0.183041 3.03878e-18)
(0.978994 0.180775 -3.77374e-18)
(0.988306 0.178545 1.72415e-18)
(0.997722 0.175854 1.61202e-18)
(1.00501 0.172255 0)
(1.00816 0.167393 -4.35793e-18)
(1.00549 0.160846 -2.77471e-18)
(0.995621 0.152266 3.90065e-18)
(0.977785 0.14196 0)
(0.952978 0.130805 1.19508e-18)
(0.923621 0.119549 0)
(0.891509 0.108361 1.19029e-18)
(0.857942 0.0972136 1.18907e-18)
(0.823962 0.0863031 0)
(0.790563 0.0759234 0)
(0.758641 0.0662996 -6.49305e-19)
(0.7289 0.0575195 0)
(0.701787 0.0495201 6.29995e-19)
(0.677484 0.0421902 0)
(0.656007 0.035459 0)
(0.637288 0.029317 0)
(0.621239 0.0237947 0)
(0.607747 0.0189323 0)
(0.596763 0.0147213 0)
(0.588362 0.0110391 0)
(0.582747 0.00766744 1.82179e-19)
(0.5801 0.0043546 -8.83347e-20)
(0.580722 0.0007669 4.46918e-20)
(0.584794 -0.00349434 0)
(0.592 -0.00875728 0)
(0.60185 -0.0149903 8.35915e-20)
(0.6136 -0.021843 -3.41181e-19)
(0.626624 -0.0289245 3.42035e-19)
(0.640262 -0.0358092 0)
(0.654006 -0.0419788 8.79483e-19)
(0.667659 -0.0469734 -7.27009e-19)
(0.681293 -0.0505582 -3.8149e-19)
(0.695191 -0.0527751 -3.77497e-19)
(0.709788 -0.0539536 0)
(0.725566 -0.0546849 0)
(0.74296 -0.055705 -1.16918e-18)
(0.762273 -0.0577931 0)
(0.783552 -0.0616123 0)
(0.80653 -0.0675545 0)
(0.830667 -0.0756578 6.87654e-19)
(0.855246 -0.0856454 1.31698e-18)
(0.879501 -0.0970538 0)
(0.902702 -0.109386 0)
(0.924156 -0.122123 -5.50735e-19)
(0.943234 -0.134762 0)
(0.959417 -0.146885 1.16867e-18)
(0.972327 -0.158137 6.45982e-19)
(0.981753 -0.168168 0)
(0.98771 -0.176639 6.93873e-19)
(0.990463 -0.183252 1.37982e-18)
(0.990505 -0.187812 1.49321e-18)
(0.988486 -0.190272 7.90316e-19)
(0.985122 -0.190728 -1.77261e-18)
(0.981109 -0.189377 1.92744e-18)
(0.977087 -0.186466 3.13856e-18)
(0.973631 -0.182264 0)
(0.971248 -0.17704 0)
(0.970376 -0.171052 1.2915e-18)
(0.971394 -0.164539 0)
(0.97463 -0.15773 2.65024e-18)
(0.980366 -0.150849 2.65793e-18)
(0.988856 -0.144128 0)
(1.00023 -0.13782 2.47685e-18)
(1.01479 -0.132194 -1.07469e-18)
(1.03191 -0.127578 0)
(1.05352 -0.124247 0)
(1.07177 -0.122575 0)
(1.10928 -0.123096 -1.95786e-19)
(0.974733 0.218939 -3.42149e-18)
(0.975458 0.208205 3.27514e-18)
(0.976057 0.201065 -6.35779e-18)
(0.975938 0.197376 2.9264e-18)
(0.974878 0.194472 0)
(0.973205 0.190803 2.58084e-18)
(0.971494 0.186607 -4.9391e-18)
(0.970483 0.182369 -4.58098e-18)
(0.971009 0.17817 -7.90795e-20)
(0.973728 0.174004 0)
(0.978845 0.16994 0)
(0.986024 0.16595 3.66714e-18)
(0.99445 0.161801 3.35786e-18)
(1.00295 0.157078 -3.33879e-18)
(1.01009 0.151385 -9.06987e-18)
(1.01443 0.144628 0)
(1.01506 0.13711 0)
(1.01203 0.129129 0)
(1.00581 0.120661 0)
(0.996893 0.11168 0)
(0.985766 0.102385 0)
(0.973061 0.0930587 0)
(0.95947 0.0839221 1.25982e-18)
(0.945638 0.0750756 -2.62599e-18)
(0.93208 0.0665332 0)
(0.919164 0.058298 0)
(0.90715 0.0504044 0)
(0.896227 0.0429014 0)
(0.886532 0.0358238 0)
(0.87818 0.029197 -6.79722e-19)
(0.871307 0.0230201 0)
(0.866091 0.0172166 0)
(0.862722 0.0116234 1.12648e-20)
(0.861334 0.00600229 0)
(0.861993 4.9225e-05 -4.16464e-20)
(0.864479 -0.00648179 0)
(0.868505 -0.0136877 1.69134e-19)
(0.873657 -0.0215254 0)
(0.879429 -0.0297183 6.56068e-19)
(0.885402 -0.0378754 -3.22672e-19)
(0.891279 -0.0455521 -6.8786e-19)
(0.896914 -0.0523045 -6.75519e-19)
(0.902355 -0.0578254 6.98172e-19)
(0.907834 -0.0620294 7.2235e-19)
(0.913693 -0.0650674 1.52502e-18)
(0.920313 -0.0673099 1.55505e-18)
(0.928016 -0.0692945 0)
(0.936991 -0.0716363 -8.03713e-19)
(0.947232 -0.0749285 0)
(0.958505 -0.0796344 0)
(0.970367 -0.0859867 -1.50536e-18)
(0.982235 -0.0939404 -7.00641e-19)
(0.993496 -0.103204 7.57322e-20)
(1.0036 -0.113329 0)
(1.01211 -0.123839 0)
(1.01869 -0.134303 0)
(1.0231 -0.144371 1.35609e-18)
(1.02522 -0.153768 -1.26693e-18)
(1.02505 -0.162278 -1.29685e-18)
(1.02267 -0.169704 0)
(1.01833 -0.175857 -1.43255e-18)
(1.01238 -0.180578 7.69249e-20)
(1.00532 -0.18377 -1.67681e-18)
(0.997688 -0.185421 1.87606e-18)
(0.990069 -0.185613 -2.35635e-20)
(0.982993 -0.184491 -2.18436e-18)
(0.976931 -0.182235 -2.36568e-18)
(0.972279 -0.179038 0)
(0.96937 -0.175093 0)
(0.968479 -0.170591 0)
(0.969831 -0.165711 0)
(0.973616 -0.160629 -3.00918e-18)
(0.979989 -0.155522 -3.01624e-18)
(0.989097 -0.150579 0)
(1.00099 -0.146001 -2.80806e-18)
(1.01589 -0.142 5.04015e-18)
(1.03316 -0.138824 0)
(1.05467 -0.136637 0)
(1.07279 -0.135718 0)
(1.10969 -0.136351 9.21917e-19)
(0.975035 0.218503 8.49195e-18)
(0.977128 0.207479 0)
(0.979624 0.200814 1.45495e-17)
(0.980945 0.197728 0)
(0.980751 0.19519 6.3355e-18)
(0.979844 0.191836 0)
(0.978664 0.187926 5.58146e-18)
(0.977193 0.18369 0)
(0.97562 0.17903 -5.13306e-18)
(0.974463 0.173946 0)
(0.974306 0.168613 9.05235e-18)
(0.975632 0.163193 -4.19176e-18)
(0.97874 0.157721 0)
(0.983653 0.152098 7.44845e-18)
(0.990024 0.146173 -1.86676e-19)
(0.997195 0.139867 -6.80361e-18)
(1.0043 0.133315 6.59171e-18)
(1.01066 0.126604 0)
(1.01591 0.119582 0)
(1.01978 0.112143 6.18617e-18)
(1.02214 0.10435 0)
(1.02302 0.0963442 -3.00672e-18)
(1.02263 0.0882467 0)
(1.02125 0.0801275 2.84691e-18)
(1.01914 0.0720258 0)
(1.01654 0.0639824 2.94189e-18)
(1.01363 0.056055 0)
(1.01062 0.0483073 0)
(1.00766 0.040797 1.47809e-18)
(1.00495 0.0335698 7.13662e-19)
(1.00265 0.0266333 0)
(1.00097 0.0199192 0)
(1.00003 0.0132791 -1.11179e-18)
(0.999893 0.00650531 0)
(1.00049 -0.000578481 0)
(1.00162 -0.00809949 0)
(1.00302 -0.0160777 -1.76184e-19)
(1.00436 -0.0244045 0)
(1.00537 -0.0327997 -1.09078e-18)
(1.00585 -0.0408979 -7.46237e-19)
(1.00575 -0.0483413 7.2525e-19)
(1.00516 -0.0548412 0)
(1.00432 -0.0602356 0)
(1.00357 -0.0645373 1.63229e-18)
(1.00329 -0.0679389 -1.63099e-18)
(1.00381 -0.0707878 -1.66864e-18)
(1.00536 -0.0735365 0)
(1.008 -0.0766704 -4.00625e-20)
(1.01161 -0.0806267 1.74206e-18)
(1.01589 -0.0857154 0)
(1.02041 -0.0920558 1.64802e-18)
(1.02469 -0.0995569 1.68477e-18)
(1.02825 -0.107954 -1.58287e-18)
(1.03076 -0.116888 0)
(1.03199 -0.125992 0)
(1.03181 -0.134952 0)
(1.0302 -0.143511 -1.5278e-18)
(1.02722 -0.151471 0)
(1.02296 -0.15868 0)
(1.01757 -0.165012 0)
(1.01128 -0.170346 3.62292e-18)
(1.00437 -0.174583 -1.84478e-18)
(0.997195 -0.177658 0)
(0.990136 -0.179558 -2.13891e-18)
(0.983591 -0.180332 -2.36067e-18)
(0.977928 -0.180072 5.00001e-18)
(0.973468 -0.178899 -5.33138e-18)
(0.970483 -0.176947 -5.65156e-18)
(0.969203 -0.174361 0)
(0.969817 -0.171285 -6.19354e-18)
(0.972486 -0.167864 0)
(0.977352 -0.164249 0)
(0.984535 -0.160592 0)
(0.99416 -0.157059 6.31545e-18)
(1.00627 -0.153828 -5.99431e-18)
(1.0211 -0.151074 -8.27031e-18)
(1.03806 -0.148994 0)
(1.05898 -0.147665 3.68261e-18)
(1.07661 -0.147315 0)
(1.1122 -0.147877 -1.52183e-18)
(0.975434 0.217691 -9.63248e-18)
(0.979143 0.206093 -9.37344e-18)
(0.983425 0.20025 -1.67524e-17)
(0.985583 0.198004 0)
(0.98549 0.19569 -1.44042e-17)
(0.984793 0.192429 -6.86061e-18)
(0.98421 0.188746 0)
(0.983466 0.184746 1.22269e-17)
(0.982372 0.180229 1.14163e-17)
(0.981059 0.175141 0)
(0.979739 0.169575 -1.02376e-17)
(0.978655 0.163626 0)
(0.978123 0.157358 0)
(0.978478 0.150796 8.86853e-18)
(0.979942 0.143942 8.22116e-18)
(0.982579 0.136831 -1.8199e-19)
(0.986244 0.129674 1.8401e-19)
(0.990667 0.122622 0)
(0.995554 0.115569 0)
(1.00056 0.108387 -7.08838e-18)
(1.00533 0.101049 -7.17456e-18)
(1.00963 0.0935913 1.05122e-17)
(1.01336 0.0860624 3.50261e-18)
(1.0165 0.0784913 3.4737e-18)
(1.01905 0.0708963 0)
(1.02105 0.063301 -3.32297e-18)
(1.02253 0.0557447 0)
(1.02357 0.0482776 0)
(1.02425 0.0409491 -3.37334e-18)
(1.02471 0.0337924 0)
(1.02506 0.0268043 0)
(1.02543 0.0199263 0)
(1.0259 0.0130471 8.37398e-19)
(1.02647 0.00603823 -4.34468e-19)
(1.02708 -0.0012016 2.16215e-19)
(1.02757 -0.00875282 0)
(1.02773 -0.0165956 0)
(1.02736 -0.0246054 0)
(1.02629 -0.0325554 8.25615e-19)
(1.02446 -0.0401709 8.3489e-19)
(1.02196 -0.0471969 -1.76419e-18)
(1.01898 -0.0534391 0)
(1.01582 -0.0588013 0)
(1.01284 -0.0633198 -3.72254e-18)
(1.01039 -0.0671661 -1.92931e-18)
(1.00875 -0.0706223 0)
(1.0081 -0.0740395 0)
(1.00847 -0.0777832 1.96981e-18)
(1.00973 -0.0821738 4.93358e-20)
(1.01162 -0.0874322 0)
(1.0138 -0.0936398 0)
(1.01588 -0.100727 -1.91482e-18)
(1.01755 -0.1085 0)
(1.01855 -0.11669 0)
(1.01875 -0.125012 0)
(1.01808 -0.13321 0)
(1.01653 -0.14107 0)
(1.01414 -0.148424 -3.9086e-18)
(1.01097 -0.155145 0)
(1.0071 -0.161128 0)
(1.00265 -0.166281 1.4477e-19)
(0.997822 -0.170527 0)
(0.992842 -0.173816 0)
(0.987985 -0.176133 0)
(0.983543 -0.177504 1.06503e-17)
(0.979798 -0.177992 -5.66397e-18)
(0.977009 -0.177684 6.03256e-18)
(0.975404 -0.176685 2.93642e-20)
(0.975187 -0.175107 0)
(0.976536 -0.173072 6.99115e-18)
(0.979611 -0.170707 -7.10367e-18)
(0.984559 -0.168144 0)
(0.991516 -0.165527 0)
(1.00063 -0.163006 -1.144e-19)
(1.01197 -0.160743 6.77107e-18)
(1.02582 -0.158898 6.18478e-18)
(1.04167 -0.157621 0)
(1.06131 -0.156941 -4.17425e-18)
(1.07795 -0.156983 0)
(1.1117 -0.157418 1.14652e-18)
(0.975986 0.216475 0)
(0.981693 0.204218 2.15878e-17)
(0.987771 0.199652 1.91739e-17)
(0.990444 0.198418 0)
(0.990127 0.196247 8.18522e-18)
(0.989279 0.192988 -7.91677e-18)
(0.988783 0.189408 0)
(0.988296 0.185488 -1.38255e-17)
(0.987632 0.181032 0)
(0.986882 0.176038 0)
(0.98608 0.170566 0)
(0.985201 0.164644 0)
(0.98428 0.158281 0)
(0.983441 0.151481 1.82485e-19)
(0.98283 0.144251 -9.69688e-18)
(0.982591 0.136644 -1.81885e-19)
(0.982869 0.128917 1.83307e-19)
(0.983765 0.1213 0)
(0.985276 0.11377 0)
(0.987278 0.106246 0)
(0.989576 0.0987025 -2.03313e-19)
(0.991992 0.0911626 2.076e-19)
(0.994406 0.0836529 -4.0111e-18)
(0.996733 0.0761844 -3.97915e-18)
(0.998909 0.0687569 0)
(1.00087 0.0613741 -4.04682e-18)
(1.00259 0.0540534 4.03772e-18)
(1.00404 0.0468232 0)
(1.00525 0.0397109 1.96317e-18)
(1.00628 0.0327307 2.0228e-18)
(1.00718 0.0258708 0)
(1.00803 0.0190839 0)
(1.00886 0.0122891 1.01962e-18)
(1.00964 0.00539983 -1.47854e-20)
(1.01035 -0.0016738 -5.00546e-19)
(1.01084 -0.00897929 0)
(1.01097 -0.0164792 0)
(1.01056 -0.0240588 -1.00996e-18)
(1.00952 -0.0315392 0)
(1.00784 -0.0387103 -1.02356e-18)
(1.0056 -0.0453777 -6.10786e-20)
(1.00301 -0.0514001 0)
(1.0003 -0.0567189 2.15524e-18)
(0.997793 -0.0613812 4.35429e-18)
(0.995771 -0.0655379 2.20143e-18)
(0.994476 -0.0694234 0)
(0.994054 -0.0733216 -4.64396e-18)
(0.994544 -0.0775236 0)
(0.995862 -0.0822818 -2.30356e-18)
(0.997823 -0.0877681 0)
(1.00017 -0.0940438 0)
(1.00263 -0.10105 0)
(1.00493 -0.108626 0)
(1.00688 -0.116545 0)
(1.00832 -0.124562 -4.54911e-18)
(1.00916 -0.132446 4.53768e-18)
(1.00935 -0.140006 0)
(1.00883 -0.147086 4.43468e-18)
(1.0076 -0.15357 -4.67384e-18)
(1.00567 -0.159371 0)
(1.0031 -0.164417 -4.8349e-18)
(1.00001 -0.168656 0)
(0.996572 -0.172051 0)
(0.993009 -0.174594 0)
(0.989568 -0.176305 -6.04119e-18)
(0.9865 -0.177231 6.45201e-18)
(0.984051 -0.177443 -6.81053e-18)
(0.982449 -0.177023 1.43315e-17)
(0.981908 -0.176069 -7.47763e-18)
(0.982622 -0.174688 0)
(0.984778 -0.172993 8.02212e-18)
(0.988556 -0.171109 -8.05785e-18)
(0.994127 -0.169171 0)
(1.00168 -0.167327 -8.52273e-20)
(1.01135 -0.16573 -7.48008e-18)
(1.02346 -0.164536 0)
(1.0376 -0.163854 0)
(1.05561 -0.163717 -4.67517e-18)
(1.07099 -0.164023 0)
(1.10303 -0.164453 -1.29587e-18)
(0.976761 0.214805 0)
(0.984937 0.202013 -1.24347e-17)
(0.992773 0.199209 -1.09033e-17)
(0.995653 0.198998 0)
(0.994988 0.196881 1.87783e-17)
(0.993966 0.193649 1.7732e-17)
(0.993401 0.190158 0)
(0.992846 0.186228 1.59594e-17)
(0.992185 0.181716 -1.5153e-17)
(0.991592 0.176702 0)
(0.991119 0.171252 0)
(0.990695 0.165376 0)
(0.990262 0.159063 0)
(0.989798 0.152297 -1.15252e-17)
(0.989295 0.145067 -1.13158e-17)
(0.98876 0.137394 1.04047e-17)
(0.98827 0.129515 -3.07821e-17)
(0.987947 0.121676 0)
(0.987873 0.113892 0)
(0.988048 0.10612 9.8513e-18)
(0.988418 0.0983588 1.92622e-17)
(0.98892 0.0906397 -9.42937e-18)
(0.989514 0.0829937 0)
(0.990174 0.0754337 0)
(0.990866 0.0679599 -4.7275e-18)
(0.991554 0.0605727 9.3186e-18)
(0.992204 0.0532817 -9.3031e-18)
(0.992799 0.0461023 0)
(0.993346 0.0390475 0)
(0.993873 0.032119 -2.30509e-18)
(0.994422 0.0252995 0)
(0.995033 0.0185455 2.37357e-18)
(0.995722 0.0117918 -1.16224e-18)
(0.996477 0.00496176 -1.44839e-20)
(0.997241 -0.00201765 -7.42634e-21)
(0.997898 -0.00916603 0)
(0.998308 -0.0164375 0)
(0.998345 -0.0237319 -3.13745e-20)
(0.997919 -0.0309054 1.18443e-18)
(0.99701 -0.0377921 3.55149e-18)
(0.995676 -0.0442414 4.77531e-18)
(0.994055 -0.0501513 2.45513e-18)
(0.992346 -0.0554912 -2.4475e-18)
(0.990784 -0.060315 -2.49927e-18)
(0.989609 -0.0647598 2.59771e-18)
(0.989026 -0.0690272 0)
(0.989176 -0.0733549 5.26374e-18)
(0.990118 -0.0779812 -5.4108e-18)
(0.991815 -0.083108 0)
(0.994145 -0.0888681 0)
(0.996922 -0.0953018 0)
(0.999923 -0.102351 0)
(1.00293 -0.10987 0)
(1.00574 -0.117658 0)
(1.00819 -0.125491 5.13621e-18)
(1.01013 -0.133157 -1.03946e-17)
(1.01145 -0.140469 -5.28526e-18)
(1.01203 -0.147282 5.32965e-18)
(1.01178 -0.153489 5.26843e-18)
(1.01066 -0.159017 -5.54769e-18)
(1.00868 -0.163815 5.73163e-18)
(1.00592 -0.167852 0)
(1.00251 -0.17111 6.25317e-18)
(0.998664 -0.173592 -6.58164e-18)
(0.994615 -0.175321 0)
(0.990621 -0.176339 -1.46144e-17)
(0.986943 -0.176707 7.69911e-18)
(0.983836 -0.176501 -1.61969e-17)
(0.981544 -0.175808 8.47127e-18)
(0.980303 -0.174726 0)
(0.980345 -0.173366 8.98167e-18)
(0.9819 -0.171848 9.16811e-18)
(0.985197 -0.170309 -9.09949e-18)
(0.990488 -0.168897 -8.97302e-18)
(0.99796 -0.167763 8.55312e-18)
(1.00802 -0.167073 0)
(1.02032 -0.166889 0)
(1.03683 -0.167309 5.36842e-18)
(1.05112 -0.167848 0)
(1.08241 -0.168586 1.49334e-18)
(0.977833 0.212618 1.64573e-17)
(0.988995 0.199652 0)
(0.998474 0.199063 -2.45484e-17)
(1.00126 0.19974 2.22532e-17)
(1.00019 0.197599 -2.12154e-17)
(0.999039 0.194447 2.03413e-17)
(0.998412 0.19105 0)
(0.997742 0.187081 1.60028e-19)
(0.996971 0.182484 1.71077e-17)
(0.996312 0.177404 0)
(0.995838 0.171904 0)
(0.995504 0.165989 0)
(0.99527 0.159656 2.81971e-17)
(0.995109 0.152894 0)
(0.994981 0.145688 2.51202e-17)
(0.994838 0.138044 0)
(0.994668 0.130171 4.69465e-17)
(0.994515 0.122305 0)
(0.994417 0.114468 0)
(0.994377 0.106633 -2.2421e-17)
(0.994366 0.0988041 -1.09782e-17)
(0.994363 0.0910134 0)
(0.994366 0.0832939 0)
(0.994383 0.0756629 0)
(0.994417 0.068126 5.33809e-18)
(0.994464 0.0606873 -5.32307e-18)
(0.994516 0.0533553 -1.08308e-19)
(0.994576 0.0461408 0)
(0.994661 0.0390498 5.43246e-18)
(0.994801 0.032078 0)
(0.995036 0.0252053 0)
(0.995398 0.0183914 -2.68315e-18)
(0.995908 0.0115788 1.37315e-18)