# y+ ()       
# Time        	patch         	min           	max           	average       
1000          	plate	4.917173e+01	8.147900e+01	5.334533e+01
