/*--------------------------------*- C++ -*----------------------------------*\
| =========                 |                                                 |
| \\      /  F ield         | OpenFOAM: The Open Source CFD Toolbox           |
|  \\    /   O peration     | Version:  v1912                                 |
|   \\  /    A nd           | Website:  www.openfoam.com                      |
|    \\/     M anipulation  |                                                 |
\*---------------------------------------------------------------------------*/
FoamFile
{
    version     2.0;
    format      ascii;
    class       volScalarField;
    location    "425";
    object      k;
}
// * * * * * * * * * * * * * * * * * * * * * * * * * * * * * * * * * * * * * //

dimensions      [0 2 -2 0 0 0 0];


internalField   nonuniform List<scalar> 
2000
(
0.0162095
0.0147776
0.0124075
0.00897585
0.00371941
0.000824214
0.000728645
0.00083148
0.000864959
0.000736992
0.00053569
0.000417975
0.000462476
0.000513389
0.000572855
0.000656621
0.000766333
0.000896659
0.00104722
0.00122123
0.00142283
0.00165637
0.00192592
0.00223475
0.00258472
0.00297577
0.00340571
0.00387043
0.00436426
0.00488063
0.00541265
0.00595362
0.0064974
0.00703875
0.00757373
0.00810002
0.00861736
0.00912802
0.00963771
0.0101573
0.0106795
0.0111867
0.0116801
0.0121619
0.0126324
0.0130913
0.0135372
0.0139684
0.0143829
0.0147787
0.015154
0.0155068
0.0158354
0.0161384
0.0164107
0.0166521
0.0168629
0.0170442
0.0172003
0.0173451
0.0175234
0.0177139
0.0178977
0.018066
0.0182166
0.0183501
0.0184679
0.0185724
0.0186664
0.018753
0.018836
0.0189196
0.0190089
0.01911
0.0192307
0.0193817
0.0195801
0.0198514
0.0202363
0.020984
0.0068377
0.00499944
0.00452689
0.00410486
0.00326481
0.00245389
0.00191207
0.00163173
0.00452212
0.00323303
0.00179363
0.00136454
0.00139655
0.0014002
0.0013756
0.00147588
0.00167614
0.00192811
0.00222056
0.00255582
0.00293827
0.00337359
0.00386885
0.00443205
0.00507183
0.00579671
0.00661416
0.00752965
0.00854579
0.00966103
0.0108689
0.0121579
0.0135118
0.014911
0.0163339
0.0177594
0.0191678
0.020541
0.0218602
0.0230706
0.0241681
0.0252056
0.0261999
0.0271604
0.028091
0.0289925
0.0298636
0.0307021
0.031505
0.0322695
0.0329925
0.033672
0.0343079
0.0349064
0.0354323
0.0358955
0.0362989
0.0366442
0.0369332
0.03717
0.0373573
0.0374946
0.0375844
0.0376292
0.0376318
0.0375964
0.0375279
0.037432
0.0373154
0.0371849
0.0370481
0.0369129
0.0367875
0.0366797
0.0365973
0.0365393
0.0365162
0.0364366
0.0365272
0.0361489
0.00514621
0.00248523
0.00187974
0.00175546
0.00163529
0.0014742
0.00132811
0.00124341
0.00172562
0.00203257
0.00243403
0.00379021
0.00571981
0.0048624
0.00363492
0.00312527
0.00318415
0.00342846
0.00376245
0.00417783
0.00467483
0.00525473
0.00591966
0.0066717
0.00751457
0.00845385
0.00949525
0.0106425
0.0118959
0.0132507
0.014697
0.0162191
0.017797
0.0194076
0.0210273
0.0226352
0.0242159
0.0257635
0.0272346
0.0286192
0.0299323
0.0311803
0.0323618
0.033488
0.034562
0.0355833
0.0365496
0.0374578
0.0383046
0.0390868
0.0398012
0.0404455
0.0410178
0.0415169
0.0419389
0.042284
0.0425535
0.0427492
0.0428734
0.0429292
0.0429207
0.0428531
0.0427328
0.042566
0.0423588
0.042118
0.041851
0.0415659
0.0412712
0.0409755
0.040688
0.0404176
0.0401727
0.0399602
0.0397839
0.0396387
0.0395134
0.0393321
0.0392173
0.0385107
0.00490121
0.00193923
0.00108631
0.000851096
0.000792558
0.000769824
0.000751629
0.000743107
0.000857515
0.00103876
0.00133059
0.00198327
0.00324299
0.00464386
0.00617972
0.00738794
0.00771873
0.0075303
0.0073751
0.00746283
0.00779135
0.00831205
0.00898185
0.00976856
0.0106544
0.0116337
0.0127068
0.0138752
0.0151388
0.0164954
0.0179397
0.0194623
0.0210485
0.0226789
0.0243323
0.0259898
0.0276377
0.0292275
0.0307496
0.0322015
0.0335787
0.0348766
0.0360932
0.0372292
0.0382847
0.0392586
0.0401491
0.0409541
0.0416715
0.0422991
0.0428355
0.0432798
0.0436319
0.0438926
0.0440632
0.0441462
0.044145
0.0440641
0.0439085
0.0436842
0.0433978
0.043057
0.04267
0.0422453
0.0417915
0.0413172
0.0408312
0.0403426
0.0398602
0.0393931
0.03895
0.0385394
0.0381686
0.0378434
0.0375658
0.03733
0.0371241
0.0368857
0.0367122
0.0360562
0.00486817
0.00184217
0.000889179
0.000554039
0.000439143
0.000407015
0.000404712
0.000413621
0.000452818
0.000525599
0.000649021
0.000896196
0.00140118
0.00223303
0.00353939
0.00542271
0.00759228
0.00964192
0.011284
0.0124229
0.0131703
0.0137315
0.0142737
0.0148839
0.0155921
0.0164027
0.0173122
0.0183165
0.0194121
0.0205965
0.0218668
0.023217
0.0246344
0.0261
0.0276014
0.0291042
0.0305731
0.031998
0.0333664
0.034668
0.0358926
0.0370312
0.0380773
0.0390264
0.0398759
0.0406234
0.0412675
0.0418069
0.042241
0.0425701
0.0427949
0.0429172
0.0429398
0.0428667
0.0427026
0.0424534
0.0421256
0.0417269
0.0412653
0.0407495
0.0401884
0.0395915
0.0389683
0.0383284
0.0376809
0.0370348
0.0363986
0.0357806
0.0351889
0.0346309
0.034114
0.0336449
0.0332297
0.0328731
0.0325773
0.0323388
0.0321507
0.0319661
0.0318744
0.0314342
0.00486377
0.00182805
0.000849454
0.000474233
0.000317516
0.000253174
0.000231614
0.000230701
0.000245519
0.000275541
0.000325316
0.000414845
0.00058824
0.000897903
0.00143271
0.00232748
0.00365163
0.00542717
0.00761378
0.0100691
0.012573
0.0149035
0.0169156
0.0185747
0.019933
0.0210817
0.0221095
0.0230846
0.0240523
0.025041
0.0260675
0.0271379
0.028243
0.0293652
0.0304787
0.0315771
0.0326511
0.0336897
0.0346806
0.0356115
0.0364707
0.0372476
0.0379333
0.0385213
0.0390069
0.039387
0.03966
0.0398255
0.0398845
0.0398392
0.0396928
0.0394501
0.0391168
0.0386999
0.0382071
0.0376472
0.0370295
0.0363638
0.0356601
0.0349285
0.034179
0.0334214
0.0326649
0.0319184
0.03119
0.030487
0.0298162
0.0291839
0.0285954
0.0280561
0.0275707
0.0271438
0.0267795
0.0264814
0.0262521
0.0260907
0.0259963
0.0259356
0.0259927
0.0258275
0.00486318
0.00182655
0.000843158
0.000456553
0.000283055
0.000199663
0.000159927
0.000143595
0.000141888
0.000151128
0.000170775
0.000205157
0.000266494
0.000373452
0.000557149
0.000869595
0.00135563
0.00206576
0.00305664
0.00437697
0.00605299
0.00807285
0.0103756
0.0128535
0.0153702
0.0177915
0.0200146
0.0219855
0.0236984
0.0251823
0.0264833
0.0276465
0.0286715
0.0295809
0.030406
0.0311631
0.0318591
0.0324952
0.0330692
0.0335768
0.0340121
0.034369
0.0346413
0.0348242
0.0349136
0.0349076
0.0348054
0.0346082
0.0343189
0.0339417
0.0334825
0.0329483
0.0323472
0.0316883
0.0309813
0.0302362
0.0294634
0.0286731
0.0278752
0.0270793
0.0262941
0.0255278
0.0247877
0.0240801
0.0234107
0.0227842
0.0222045
0.021675
0.0211986
0.0207779
0.0204151
0.0201127
0.0198732
0.0196991
0.0195933
0.019557
0.0195942
0.0196834
0.019902
0.0200059
0.00486311
0.00182659
0.000842594
0.000453363
0.000274739
0.000183905
0.000135046
0.000108744
9.6048e-05
9.26619e-05
9.67159e-05
0.000108404
0.000130627
0.000169052
0.000233262
0.000339064
0.000499481
0.000730713
0.00105404
0.00149435
0.0020792
0.00283692
0.00379344
0.00496805
0.0063681
0.00798354
0.00978329
0.0117157
0.0137139
0.0157055
0.0176229
0.019413
0.0210722
0.0224922
0.0236541
0.0245885
0.0253318
0.0259177
0.0263719
0.0267125
0.0269502
0.0270912
0.0271387
0.0270946
0.026961
0.0267408
0.0264377
0.026057
0.0256047
0.0250882
0.0245156
0.0238957
0.0232377
0.0225512
0.0218456
0.0211303
0.0204142
0.0197058
0.0190125
0.0183413
0.0176981
0.017088
0.0165154
0.0159836
0.0154955
0.0150531
0.0146581
0.0143119
0.0140153
0.0137695
0.0135753
0.0134341
0.0133476
0.0133179
0.0133483
0.0134418
0.0136056
0.0138281
0.0141782
0.0144985
0.0048631
0.00182671
0.000842738
0.000452991
0.000273021
0.000179811
0.000127478
9.66772e-05
7.84373e-05
6.83099e-05
6.40539e-05
6.47697e-05
7.07453e-05
8.3463e-05
0.000105838
0.000142733
0.000197536
0.000274147
0.00037753
0.000513319
0.000687925
0.000908552
0.00118313
0.00152014
0.00192821
0.00241546
0.00298839
0.00365069
0.00440195
0.00523669
0.00614383
0.007107
0.00810992
0.00921929
0.0103515
0.0114465
0.0124578
0.0133513
0.0141068
0.0147159
0.0151798
0.0155057
0.0157048
0.0157895
0.0157725
0.0156659
0.0154814
0.0152297
0.0149209
0.0145648
0.0141706
0.0137471
0.0133027
0.0128455
0.0123828
0.0119214
0.0114673
0.0110261
0.0106022
0.0101997
0.00982188
0.00947135
0.00915032
0.00886051
0.00860329
0.00837978
0.0081909
0.00803748
0.00792035
0.00784044
0.00779886
0.00779706
0.00783698
0.00792123
0.00805357
0.0082383
0.00848473
0.008789
0.00920949
0.00966141
0.0048631
0.00182677
0.000842857
0.00045304
0.00027275
0.000178863
0.000125387
9.29002e-05
7.23592e-05
5.92207e-05
5.10857e-05
4.67025e-05
4.55679e-05
4.77845e-05
5.40647e-05
6.58395e-05
8.40375e-05
0.000109652
0.00014386
0.000187786
0.000242472
0.000308856
0.000387761
0.00047988
0.000585733
0.000705581
0.000839273
0.000986061
0.0011444
0.00131177
0.00148454
0.00165794
0.00182646
0.00198753
0.00219293
0.00244368
0.00273498
0.00305781
0.00339995
0.00374737
0.00408578
0.00440207
0.00468532
0.00492741
0.0051232
0.00527041
0.00536927
0.00542198
0.00543225
0.00540477
0.00534482
0.00525786
0.00514935
0.00502446
0.00488805
0.00474452
0.00459782
0.00445143
0.00430843
0.00417148
0.00404289
0.00392467
0.00381858
0.00372619
0.00364892
0.00358811
0.00354508
0.00352115
0.00351776
0.0035365
0.0035792
0.00364802
0.00374559
0.00387518
0.00404115
0.0042487
0.00450749
0.00481989
0.0052314
0.00571292
0.0048631
0.00182674
0.000842867
0.000453075
0.000272733
0.000178672
0.000124854
9.1802e-05
7.04144e-05
5.60853e-05
4.63376e-05
3.9789e-05
3.56824e-05
3.36693e-05
3.37228e-05
3.6122e-05
4.10511e-05
4.86825e-05
5.92547e-05
7.29826e-05
9.00188e-05
0.000110425
0.000134147
0.000161005
0.00019067
0.000222644
0.000256228
0.000290491
0.000324235
0.000355987
0.000384
0.000406296
0.000420763
0.000425384
0.000427358
0.000432168
0.000440986
0.000454944
0.000474984
0.000501703
0.000535223
0.000575125
0.00062045
0.000669776
0.000721354
0.00077327
0.000823618
0.000870649
0.000912897
0.000949249
0.000978988
0.00100179
0.0010177
0.00102709
0.00103057
0.00102896
0.00102321
0.00101437
0.00100351
0.000991693
0.000979977
0.000969384
0.000960904
0.000955504
0.00095415
0.00095783
0.00096759
0.00098458
0.00101011
0.0010457
0.0010932
0.00115486
0.00123345
0.00133249
0.00145656
0.00161134
0.00180593
0.00204719
0.0023673
0.00277255
0.00486311
0.00182664
0.000842771
0.000453031
0.000272711
0.000178624
0.000124719
9.14962e-05
6.98248e-05
5.50654e-05
4.47011e-05
3.72968e-05
3.20089e-05
2.83447e-05
2.60417e-05
2.5011e-05
2.52241e-05
2.66089e-05
2.91298e-05
3.27646e-05
3.74824e-05
4.32275e-05
4.9909e-05
5.73938e-05
6.55017e-05
7.40006e-05
8.26031e-05
9.09649e-05
9.86896e-05
0.000105341
0.000110469
0.000113643
0.000114506
0.000112841
0.000110228
0.000107341
0.000104223
0.000100932
9.75365e-05
9.41169e-05
9.07613e-05
8.75625e-05
8.46123e-05
8.19958e-05
7.97845e-05
7.80298e-05
7.67585e-05
7.59701e-05
7.56382e-05
7.57137e-05
7.61317e-05
7.68191e-05
7.77037e-05
7.87227e-05
7.98295e-05
8.1e-05
8.22356e-05
8.35656e-05
8.50474e-05
8.6765e-05
8.88278e-05
9.13678e-05
9.45384e-05
9.85133e-05
0.000103487
0.000109681
0.00011735
0.000126795
0.000138394
0.000152629
0.000170145
0.000191831
0.000218935
0.000253242
0.000297373
0.000355121
0.000432625
0.00053764
0.000689928
0.000910329
0.00486311
0.00182646
0.000842581
0.000452909
0.000272638
0.000178571
0.000124659
9.13975e-05
6.96435e-05
5.4743e-05
4.41615e-05
3.64409e-05
3.0706e-05
2.64165e-05
2.32361e-05
2.09634e-05
1.9519e-05
1.87685e-05
1.86048e-05
1.89511e-05
1.97439e-05
2.09226e-05
2.24228e-05
2.41728e-05
2.60914e-05
2.80873e-05
3.0059e-05
3.18964e-05
3.34845e-05
3.47095e-05
3.54674e-05
3.56746e-05
3.52799e-05
3.42731e-05
3.31133e-05
3.18947e-05
3.06246e-05
2.93113e-05
2.79645e-05
2.65948e-05
2.52131e-05
2.38305e-05
2.2458e-05
2.11064e-05
1.97856e-05
1.85054e-05
1.72747e-05
1.61024e-05
1.49981e-05
1.39724e-05
1.30388e-05
1.22149e-05
1.1525e-05
1.10016e-05
1.06882e-05
1.06405e-05
1.09283e-05
1.16353e-05
1.28583e-05
1.47051e-05
1.72904e-05
2.07315e-05
2.51432e-05
3.06318e-05
3.72912e-05
4.51993e-05
5.44172e-05
6.49903e-05
7.69532e-05
9.03373e-05
0.000105182
0.000121551
0.000139547
0.000159338
0.000181191
0.00020548
0.00023288
0.000263819
0.000301876
0.000346791
0.00486312
0.0018262
0.000842307
0.000452719
0.000272512
0.000178484
0.000124592
9.1335e-05
6.95673e-05
5.463e-05
4.39813e-05
3.61539e-05
3.02607e-05
2.57445e-05
2.22458e-05
1.95288e-05
1.75044e-05
1.60248e-05
1.4967e-05
1.42443e-05
1.37918e-05
1.35571e-05
1.34948e-05
1.35633e-05
1.37227e-05
1.39341e-05
1.4159e-05
1.43598e-05
1.45011e-05
1.45508e-05
1.44826e-05
1.42785e-05
1.39305e-05
1.3435e-05
1.29364e-05
1.24353e-05
1.19328e-05
1.14304e-05
1.09301e-05
1.04337e-05
9.94371e-06
9.4623e-06
8.99209e-06
8.53603e-06
8.09795e-06
7.68325e-06
7.30013e-06
6.96123e-06
6.68597e-06
6.50343e-06
6.45583e-06
6.60226e-06
7.02247e-06
7.82018e-06
9.1253e-06
1.10946e-05
1.39106e-05
1.77776e-05
2.29162e-05
2.9555e-05
3.79219e-05
4.82346e-05
6.06917e-05
7.54658e-05
9.27003e-05
0.000112508
0.000134977
0.000160174
0.000188154
0.000218972
0.000252688
0.000289377
0.000329117
0.000371983
0.000417986
0.000466953
0.000518378
0.00057015
0.000620857
0.000655391
0.00486313
0.00182585
0.000841955
0.00045247
0.00027234
0.00017836
0.000124501
9.1264e-05
6.95062e-05
5.45681e-05
4.3906e-05
3.60493e-05
3.01064e-05
2.55144e-05
2.19061e-05
1.9035e-05
1.68114e-05
1.5085e-05
1.37303e-05
1.26598e-05
1.18106e-05
1.11351e-05
1.05963e-05
1.01642e-05
9.81323e-06
9.52164e-06
9.27022e-06
9.04207e-06
8.82252e-06
8.59929e-06
8.36277e-06
8.10636e-06
7.82663e-06
7.5264e-06
7.23844e-06
6.96143e-06
6.69445e-06
6.43686e-06
6.18837e-06
5.94904e-06
5.7196e-06
5.50191e-06
5.29989e-06
5.12103e-06
4.97866e-06
4.8951e-06
4.90594e-06
5.06519e-06
5.45139e-06
6.17404e-06
7.37998e-06
9.25874e-06
1.20462e-05
1.60255e-05
2.15248e-05
2.89112e-05
3.85814e-05
5.09494e-05
6.64317e-05
8.54337e-05
0.000108335
0.000135481
0.000167169
0.000203649
0.000245113
0.00029169
0.000343438
0.000400331
0.000462252
0.00052897
0.000600139
0.000675284
0.0007538
0.000834943
0.000917801
0.0010012
0.00108366
0.00116166
0.00123349
0.00127818
0.00486313
0.00182539
0.000841528
0.000452169
0.000272127
0.000178206
0.000124386
9.11766e-05
6.94374e-05
5.45109e-05
4.38538e-05
3.5995e-05
3.00415e-05
2.54286e-05
2.17867e-05
1.8866e-05
1.65771e-05
1.47699e-05
1.33186e-05
1.21365e-05
1.11619e-05
1.03495e-05
9.66545e-06
9.08348e-06
8.58295e-06
8.14722e-06
7.76274e-06
7.41834e-06
7.10481e-06
6.81466e-06
6.54197e-06
6.28225e-06
6.03235e-06
5.79288e-06
5.56961e-06
5.36079e-06
5.16511e-06
4.98206e-06
4.81255e-06
4.66014e-06
4.53324e-06
4.44836e-06
4.43486e-06
4.54126e-06
4.84316e-06
5.45256e-06
6.52799e-06
8.2847e-06
1.10039e-05
1.50394e-05
2.08212e-05
2.88541e-05
3.9711e-05
5.40215e-05
7.24546e-05
9.56995e-05
0.000124443
0.000159345
0.000201018
0.000249994
0.000306699
0.000371408
0.000444202
0.000524917
0.0006131
0.000707977
0.000808453
0.000913145
0.00102045
0.00112864
0.001236
0.00134091
0.001442
0.00153815
0.00162854
0.00171243
0.00178954
0.00185667
0.00191618
0.00194445
0.00486313
0.00182483
0.000841034
0.00045182
0.000271879
0.000178026
0.000124252
9.10744e-05
6.93576e-05
5.44471e-05
4.38012e-05
3.59493e-05
2.99985e-05
2.53839e-05
2.1735e-05
1.88014e-05
1.64936e-05
1.46621e-05
1.31814e-05
1.1965e-05
1.09521e-05
1.00983e-05
9.37078e-06
8.74466e-06
8.20076e-06
7.72402e-06
7.3025e-06
6.92661e-06
6.58857e-06
6.2821e-06
6.00209e-06
5.74447e-06
5.50597e-06
5.28543e-06
5.08272e-06
4.89808e-06
4.73583e-06
4.60816e-06
4.54078e-06
4.58103e-06
4.8084e-06
5.34718e-06
6.38088e-06
8.16727e-06
1.10527e-05
1.54841e-05
2.20165e-05
3.13154e-05
4.41517e-05
6.13889e-05
8.39631e-05
0.000112856
0.000149062
0.000193549
0.000247215
0.000310831
0.00038497
0.000469935
0.000565661
0.000671642
0.00078687
0.000909819
0.0010385
0.00117058
0.00130354
0.00143486
0.00156224
0.00168374
0.00179788
0.00190364
0.00200048
0.00208827
0.00216717
0.00223757
0.00230006
0.00235491
0.00240333
0.00244184
0.00247738
0.00247732
0.00486312
0.00182418
0.000840484
0.000451433
0.000271602
0.000177824
0.000124102
9.09602e-05
6.92684e-05
5.43759e-05
4.37431e-05
3.59008e-05
2.9957e-05
2.53468e-05
2.16998e-05
1.87656e-05
1.64547e-05
1.46179e-05
1.31298e-05
1.19044e-05
1.08811e-05
1.00158e-05
9.27622e-06
8.63788e-06
8.08205e-06
7.59419e-06
7.16282e-06
6.77877e-06
6.43467e-06
6.12454e-06
5.8435e-06
5.58756e-06
5.35434e-06
5.15292e-06
5.00894e-06
4.97901e-06
5.16735e-06
5.74536e-06
6.97273e-06
9.21847e-06
1.2979e-05
1.88911e-05
2.77369e-05
4.04399e-05
5.80501e-05
8.17181e-05
0.000112659
0.000152106
0.000201258
0.000261212
0.00033289
0.000416947
0.000513677
0.000622911
0.00074393
0.000875421
0.00101549
0.00116173
0.00131141
0.00146169
0.0016098
0.0017533
0.00189019
0.00201898
0.00213865
0.00224862
0.00234863
0.00243866
0.00251886
0.0025895
0.00265096
0.00270372
0.00274836
0.00278549
0.00281597
0.00284013
0.00285993
0.00287108
0.00288494
0.00285951
0.00486312
0.00182343
0.000839893
0.000451016
0.000271302
0.000177606
0.00012394
9.08366e-05
6.91716e-05
5.42982e-05
4.36794e-05
3.58476e-05
2.99118e-05
2.53078e-05
2.16655e-05
1.87347e-05
1.64259e-05
1.459e-05
1.3102e-05
1.18761e-05
1.08517e-05
9.98533e-06
9.2448e-06
8.60618e-06
8.05138e-06
7.56675e-06
7.14217e-06
6.77059e-06
6.4481e-06
6.17451e-06
5.95491e-06
5.80458e-06
6.00385e-06
6.98248e-06
9.26268e-06
1.3557e-05
2.07745e-05
3.20089e-05
4.85096e-05
7.16357e-05
0.000102798
0.000143386
0.000194698
0.000257858
0.000333734
0.000422855
0.000525328
0.000640767
0.000768239
0.000906257
0.00105281
0.00120549
0.00136161
0.00151848
0.00167354
0.00182459
0.00196991
0.00210825
0.00223881
0.00236115
0.00247502
0.00258032
0.00267695
0.00276482
0.00284384
0.00291395
0.00297514
0.00302749
0.00307122
0.00310664
0.00313422
0.0031545
0.00316817
0.00317592
0.00317873
0.00317689
0.00317294
0.00316189
0.00315868
0.00311423
0.00486311
0.00182261
0.000839282
0.000450585
0.00027099
0.000177377
0.000123769
9.07048e-05
6.90676e-05
5.42145e-05
4.36112e-05
3.5792e-05
2.98674e-05
2.5275e-05
2.1647e-05
1.87365e-05
1.6458e-05
1.46689e-05
1.32546e-05
1.2146e-05
1.13097e-05
1.07437e-05
1.0479e-05
1.05847e-05
1.11757e-05
1.2424e-05
1.45735e-05
1.79572e-05
2.30192e-05
3.0341e-05
4.06716e-05
5.56799e-05
7.91974e-05
0.00011264
0.000157489
0.000214965
0.000285941
0.000370869
0.000469706
0.000581889
0.000706326
0.000841425
0.000985166
0.0011352
0.001289
0.00144401
0.00159785
0.00174844
0.00189418
0.00203397
0.0021672
0.0022937
0.00241363
0.00252727
0.00263494
0.00273688
0.00283318
0.00292376
0.0030084
0.00308677
0.00315852
0.00322325
0.00328065
0.00333046
0.00337252
0.00340679
0.00343336
0.00345243
0.00346433
0.0034695
0.00346851
0.00346197
0.00345062
0.00343516
0.00341661
0.00339516
0.00337367
0.0033468
0.00333144
0.00327454
0.00486313
0.00182176
0.000838695
0.000450172
0.000270694
0.000177166
0.000123623
9.062e-05
6.90551e-05
5.43083e-05
4.38829e-05
3.63799e-05
3.10296e-05
2.74812e-05
2.57242e-05
2.60815e-05
2.89749e-05
3.48516e-05
4.43068e-05
5.80421e-05
7.68384e-05
0.000101533
0.000132998
0.000172118
0.000219766
0.000276783
0.000343956
0.000421997
0.000511521
0.000613018
0.000726806
0.000852641
0.000990717
0.00113783
0.00129064
0.00144573
0.00159986
0.00175022
0.00189459
0.0020314
0.00215981
0.0022796
0.00239116
0.00249525
0.00259289
0.00268517
0.00277313
0.0028576
0.00293921
0.00301831
0.00309504
0.00316932
0.00324093
0.00330956
0.00337482
0.00343627
0.00349345
0.00354591
0.00359321
0.0036349
0.00367062
0.00370007
0.00372301
0.00373935
0.0037491
0.00375239
0.00374949
0.00374078
0.00372671
0.00370786
0.00368484
0.00365831
0.003629
0.00359756
0.00356497
0.0035313
0.00349948
0.00346427
0.00344218
0.00338016
0.00486337
0.00182128
0.000838718
0.000450595
0.000271647
0.000179017
0.000127176
9.74952e-05
8.22666e-05
7.89432e-05
8.76714e-05
0.000109973
0.000147968
0.000203917
0.00027995
0.000377833
0.000492716
0.000621129
0.000760883
0.000909777
0.00106562
0.00122621
0.00138941
0.00155309
0.00171525
0.00187406
0.00202793
0.00217555
0.00231598
0.00244864
0.00257328
0.00268924
0.00279341
0.00288665
0.00296979
0.00304416
0.00311144
0.00317329
0.00323119
0.00328632
0.00333949
0.00339125
0.00344192
0.00349164
0.00354047
0.00358839
0.00363536
0.00368128
0.00372602
0.00376939
0.00381113
0.0038509
0.00388833
0.00392297
0.00395433
0.00398194
0.00400533
0.00402408
0.00403782
0.00404629
0.00404931
0.00404684
0.00403893
0.00402575
0.00400759
0.00398485
0.00395799
0.00392757
0.00389417
0.00385842
0.00382096
0.00378245
0.00374357
0.00370488
0.00366731
0.00363088
0.00359834
0.00356537
0.00354419
0.00349002
0.00487728
0.00184554
0.000876418
0.00050843
0.000362864
0.000325613
0.00036244
0.000465144
0.00063059
0.000851727
0.00111582
0.00140686
0.00170895
0.00200851
0.00229499
0.00256064
0.00278967
0.00298159
0.00314122
0.00327366
0.00338379
0.0034761
0.00355453
0.00362246
0.00368267
0.00373736
0.0037882
0.00383639
0.00388274
0.00392773
0.00397169
0.00401475
0.00405365
0.0040871
0.0041154
0.00413975
0.00416157
0.00418202
0.00420197
0.00422199
0.00424242
0.00426342
0.00428496
0.0043069
0.00432899
0.00435086
0.00437212
0.00439229
0.00441089
0.0044274
0.00444132
0.00445216
0.00445944
0.00446274
0.00446169
0.004456
0.00444548
0.00443004
0.00440971
0.00438465
0.00435512
0.0043215
0.00428427
0.004244
0.0042013
0.00415685
0.00411136
0.00406554
0.00402012
0.00397578
0.00393323
0.00389314
0.00385623
0.0038231
0.00379478
0.00377149
0.00375585
0.00374564
0.0037416
0.00373431
0.00556867
0.00287831
0.00213726
0.00201031
0.00218341
0.00254437
0.00303184
0.00357477
0.00409178
0.00451749
0.00482252
0.00501258
0.005114
0.00515824
0.00517197
0.00517356
0.00516728
0.0051596
0.0051535
0.00514875
0.00514434
0.00513943
0.00513363
0.00512697
0.00511973
0.00511233
0.0051052
0.00509871
0.00509315
0.00508865
0.00508539
0.00508292
0.00508131
0.00508296
0.00508958
0.00510119
0.00511691
0.00513558
0.00515603
0.00517717
0.00519818
0.00521831
0.00523679
0.0052529
0.00526595
0.00527529
0.0052803
0.00528041
0.00527509
0.00526389
0.00524647
0.00522258
0.00519211
0.00515507
0.00511164
0.00506215
0.00500709
0.00494711
0.00488295
0.00481552
0.0047458
0.00467482
0.00460368
0.00453349
0.00446536
0.00440032
0.00433944
0.00428384
0.00423456
0.00419261
0.00415904
0.0041349
0.0041214
0.00411964
0.0041315
0.00415691
0.00420166
0.00425704
0.0043373
0.00450698
0.0142815
0.0119092
0.0101451
0.00887966
0.00795819
0.00729423
0.0068281
0.0065168
0.00632039
0.00619826
0.00611471
0.00604487
0.00597589
0.00590394
0.00583006
0.00575673
0.00568848
0.00562671
0.0055712
0.00552132
0.00547626
0.0054353
0.00539783
0.00536335
0.00533151
0.005302
0.00527453
0.00524881
0.0052245
0.00520122
0.0051785
0.00515603
0.00513235
0.00510597
0.00507656
0.00504434
0.00500958
0.00497248
0.00493312
0.00489155
0.00484775
0.00480174
0.00475358
0.00470334
0.00465114
0.00459711
0.00454143
0.00448432
0.00442605
0.00436694
0.00430736
0.00424772
0.00418853
0.00413033
0.00407373
0.00401941
0.00396808
0.00392056
0.00387767
0.00384032
0.00380947
0.00378612
0.00377137
0.00376635
0.0037723
0.00379058
0.00382264
0.00387014
0.00393492
0.00401911
0.00412515
0.00425596
0.00441482
0.00460628
0.00483416
0.00510939
0.00542677
0.00584334
0.00623808
0.00697504
)
;

boundaryField
{
    inlet
    {
        type            fixedValue;
        value           uniform 0.017;
    }
    outlet
    {
        type            zeroGradient;
    }
    fixedWalls
    {
        type            kqRWallFunction;
        value           nonuniform List<scalar> 
160
(
0.0142815
0.0119092
0.0101451
0.00887966
0.00795819
0.00729423
0.0068281
0.0065168
0.00632039
0.00619826
0.00611471
0.00604487
0.00597589
0.00590394
0.00583006
0.00575673
0.00568848
0.00562671
0.0055712
0.00552132
0.00547626
0.0054353
0.00539783
0.00536335
0.00533151
0.005302
0.00527453
0.00524881
0.0052245
0.00520122
0.0051785
0.00515603
0.00513235
0.00510597
0.00507656
0.00504434
0.00500958
0.00497248
0.00493312
0.00489155
0.00484775
0.00480174
0.00475358
0.00470334
0.00465114
0.00459711
0.00454143
0.00448432
0.00442605
0.00436694
0.00430736
0.00424772
0.00418853
0.00413033
0.00407373
0.00401941
0.00396808
0.00392056
0.00387767
0.00384032
0.00380947
0.00378612
0.00377137
0.00376635
0.0037723
0.00379058
0.00382264
0.00387014
0.00393492
0.00401911
0.00412515
0.00425596
0.00441482
0.00460628
0.00483416
0.00510939
0.00542677
0.00584334
0.00623808
0.00697504
0.0162095
0.0147776
0.0124075
0.00897585
0.00371941
0.000824214
0.000728645
0.00083148
0.000864959
0.000736992
0.00053569
0.000417975
0.000462476
0.000513389
0.000572855
0.000656621
0.000766333
0.000896659
0.00104722
0.00122123
0.00142283
0.00165637
0.00192592
0.00223475
0.00258472
0.00297577
0.00340571
0.00387043
0.00436426
0.00488063
0.00541265
0.00595362
0.0064974
0.00703875
0.00757373
0.00810002
0.00861736
0.00912802
0.00963771
0.0101573
0.0106795
0.0111867
0.0116801
0.0121619
0.0126324
0.0130913
0.0135372
0.0139684
0.0143829
0.0147787
0.015154
0.0155068
0.0158354
0.0161384
0.0164107
0.0166521
0.0168629
0.0170442
0.0172003
0.0173451
0.0175234
0.0177139
0.0178977
0.018066
0.0182166
0.0183501
0.0184679
0.0185724
0.0186664
0.018753
0.018836
0.0189196
0.0190089
0.01911
0.0192307
0.0193817
0.0195801
0.0198514
0.0202363
0.020984
)
;
    }
    frontAndBack
    {
        type            empty;
    }
}


// ************************************************************************* //
