# Solver information
# Time        	U_solver      	Ux_initial    	Ux_final      	Ux_iters      	Uy_initial    	Uy_final      	Uy_iters      	U_converged   	p_solver      	p_initial     	p_final       	p_iters       	p_converged   
1             	smoothSolver	1.000000e+00	8.462770e-02	10	1.000000e+00	9.009460e-02	7	false	GAMG	1.000000e+00	8.082520e-02	2	true
2             	smoothSolver	3.483120e-01	2.620050e-02	4	4.989930e-01	3.409140e-02	4	false	GAMG	2.334160e-01	1.203710e-02	4	true
3             	smoothSolver	3.812450e-02	3.416500e-03	5	4.040560e-01	3.258160e-02	4	false	GAMG	4.641550e-02	4.394780e-03	3	true
4             	smoothSolver	1.757520e-02	1.739860e-03	5	2.423090e-01	2.018740e-02	4	false	GAMG	5.342850e-02	2.767540e-03	3	true
5             	smoothSolver	1.091210e-02	9.392000e-04	7	1.651740e-01	1.528670e-02	4	false	GAMG	4.460270e-02	3.881110e-03	3	true
6             	smoothSolver	8.280690e-03	6.660410e-04	8	1.056150e-01	9.622940e-03	4	false	GAMG	4.789250e-02	4.399000e-03	3	true
7             	smoothSolver	8.081080e-03	6.432090e-04	8	7.967680e-02	6.848630e-03	4	false	GAMG	5.253610e-02	3.229450e-03	3	true
8             	smoothSolver	6.583220e-03	6.119180e-04	8	6.849710e-02	5.636140e-03	4	false	GAMG	4.999710e-02	4.284720e-03	2	true
9             	smoothSolver	5.650000e-03	4.372200e-04	9	5.919260e-02	5.421740e-03	4	false	GAMG	4.707190e-02	2.613530e-03	3	true
10            	smoothSolver	5.192070e-03	4.072210e-04	9	5.250080e-02	4.119280e-03	5	false	GAMG	3.970830e-02	2.685810e-03	3	true
11            	smoothSolver	4.864280e-03	3.798600e-04	9	4.587300e-02	3.631700e-03	5	false	GAMG	3.228030e-02	1.707560e-03	3	true
12            	smoothSolver	4.461470e-03	3.545580e-04	9	3.832690e-02	3.124900e-03	5	false	GAMG	2.826700e-02	1.561080e-03	3	true
13            	smoothSolver	4.114470e-03	3.310620e-04	9	3.167350e-02	2.687070e-03	5	false	GAMG	2.477750e-02	1.171740e-03	3	true
14            	smoothSolver	3.787620e-03	3.092940e-04	9	2.706890e-02	2.402740e-03	5	false	GAMG	2.202850e-02	1.197940e-03	3	true
15            	smoothSolver	3.529550e-03	2.892170e-04	9	2.485210e-02	2.209230e-03	5	false	GAMG	1.945890e-02	1.052100e-03	3	true
16            	smoothSolver	3.297930e-03	2.709640e-04	9	2.371200e-02	2.050770e-03	5	false	GAMG	1.725330e-02	1.234470e-03	3	true
17            	smoothSolver	3.107720e-03	2.539820e-04	9	2.319190e-02	1.897230e-03	5	false	GAMG	1.489390e-02	1.043510e-03	3	true
18            	smoothSolver	2.920570e-03	2.381460e-04	9	2.280920e-02	1.755220e-03	5	false	GAMG	1.289320e-02	1.146550e-03	3	true
19            	smoothSolver	2.755920e-03	2.233220e-04	9	2.245660e-02	2.162560e-03	4	false	GAMG	1.116960e-02	8.516200e-04	3	true
20            	smoothSolver	2.591030e-03	2.093860e-04	9	2.238380e-02	2.151100e-03	4	false	GAMG	9.669530e-03	9.413570e-04	3	true
21            	smoothSolver	2.446410e-03	1.963590e-04	9	2.217840e-02	2.090160e-03	4	false	GAMG	8.438300e-03	7.563080e-04	3	true
22            	smoothSolver	2.304110e-03	1.841670e-04	9	2.174180e-02	1.998430e-03	4	false	GAMG	7.445160e-03	5.227840e-04	4	true
23            	smoothSolver	2.178520e-03	1.728310e-04	9	2.144100e-02	1.894630e-03	4	false	GAMG	6.447730e-03	5.126760e-04	4	true
24            	smoothSolver	2.057690e-03	1.621600e-04	9	2.091420e-02	1.799250e-03	4	false	GAMG	5.742760e-03	4.959780e-04	4	true
25            	smoothSolver	1.940410e-03	1.520510e-04	9	2.042520e-02	1.706930e-03	4	false	GAMG	5.106570e-03	4.671600e-04	4	true
26            	smoothSolver	1.831150e-03	1.424850e-04	9	2.006550e-02	1.626220e-03	4	false	GAMG	4.532250e-03	4.370080e-04	4	true
27            	smoothSolver	1.727750e-03	1.334490e-04	9	1.974710e-02	1.554920e-03	4	false	GAMG	4.018230e-03	2.053510e-04	6	true
28            	smoothSolver	1.633890e-03	1.248810e-04	9	1.977600e-02	1.488600e-03	4	false	GAMG	3.474590e-03	2.851090e-04	4	true
29            	smoothSolver	1.534120e-03	1.530220e-04	8	1.908360e-02	1.432070e-03	4	false	GAMG	3.163910e-03	1.705930e-04	6	true
30            	smoothSolver	1.448380e-03	1.433670e-04	8	1.865220e-02	1.846900e-03	3	false	GAMG	2.887760e-03	2.383370e-04	4	true
31            	smoothSolver	1.360500e-03	1.341160e-04	8	1.839310e-02	1.401450e-03	4	false	GAMG	2.680710e-03	1.571080e-04	6	true
32            	smoothSolver	1.286610e-03	1.253590e-04	8	1.827760e-02	1.757520e-03	3	false	GAMG	2.353880e-03	2.202440e-04	4	true
33            	smoothSolver	1.207340e-03	1.169720e-04	8	1.805680e-02	1.799840e-03	3	false	GAMG	2.110410e-03	1.334940e-04	6	true
34            	smoothSolver	1.139520e-03	1.089740e-04	8	1.833140e-02	1.793820e-03	3	false	GAMG	1.864530e-03	1.034280e-04	6	true
35            	smoothSolver	1.068950e-03	1.013830e-04	8	1.808950e-02	1.752540e-03	3	false	GAMG	1.682420e-03	9.636770e-05	6	true
36            	smoothSolver	1.001720e-03	9.415670e-05	8	1.778770e-02	1.696010e-03	3	false	GAMG	1.528770e-03	9.476010e-05	6	true
37            	smoothSolver	9.380240e-04	8.728640e-05	8	1.754890e-02	1.635790e-03	3	false	GAMG	1.388830e-03	9.409760e-05	6	true
38            	smoothSolver	8.771920e-04	8.077310e-05	8	1.730900e-02	1.574400e-03	3	false	GAMG	1.265070e-03	9.299710e-05	6	true
39            	smoothSolver	8.190380e-04	7.460600e-05	8	1.703580e-02	1.511790e-03	3	false	GAMG	1.155050e-03	9.117730e-05	6	true
40            	smoothSolver	7.575230e-04	6.837770e-05	8	1.671420e-02	1.451390e-03	3	false	GAMG	1.048830e-03	8.804950e-05	6	true
41            	smoothSolver	7.002120e-04	6.251010e-05	8	1.635150e-02	1.389850e-03	3	false	GAMG	9.558890e-04	8.462790e-05	6	true
42            	smoothSolver	6.463960e-04	5.704120e-05	8	1.596060e-02	1.327560e-03	3	false	GAMG	8.784870e-04	8.055890e-05	6	true
43            	smoothSolver	5.959400e-04	5.195910e-05	8	1.552870e-02	1.263290e-03	3	false	GAMG	8.126170e-04	7.628580e-05	6	true
44            	smoothSolver	5.487300e-04	4.725980e-05	8	1.504940e-02	1.196670e-03	3	false	GAMG	7.560180e-04	7.205650e-05	6	true
45            	smoothSolver	5.047300e-04	4.293660e-05	8	1.452260e-02	1.127650e-03	3	false	GAMG	7.066590e-04	6.799390e-05	6	true
46            	smoothSolver	4.653100e-04	3.908080e-05	8	1.395480e-02	1.055940e-03	3	false	GAMG	6.691110e-04	6.303550e-05	6	true
47            	smoothSolver	4.288120e-04	3.559910e-05	8	1.333630e-02	9.822330e-04	3	false	GAMG	6.355710e-04	5.903400e-05	6	true
48            	smoothSolver	3.952610e-04	3.245760e-05	8	1.267940e-02	9.074660e-04	3	false	GAMG	6.038690e-04	5.556550e-05	6	true
49            	smoothSolver	3.645590e-04	2.963680e-05	8	1.198510e-02	8.323690e-04	3	false	GAMG	5.758570e-04	5.231040e-05	6	true
50            	smoothSolver	3.366860e-04	2.711870e-05	8	1.126180e-02	1.117200e-03	2	false	GAMG	5.435860e-04	2.787750e-05	8	true
51            	smoothSolver	3.118070e-04	2.489160e-05	8	1.088020e-02	7.701850e-04	3	false	GAMG	5.818370e-04	4.475120e-05	6	true
52            	smoothSolver	2.886860e-04	2.291470e-05	8	9.809640e-03	9.580340e-04	2	false	GAMG	4.812500e-04	4.644600e-05	6	true
53            	smoothSolver	2.682930e-04	2.118150e-05	8	9.263040e-03	6.310450e-04	3	false	GAMG	5.386530e-04	4.221380e-05	6	true
54            	smoothSolver	2.501250e-04	1.965860e-05	8	8.377000e-03	7.751700e-04	2	false	GAMG	4.399100e-04	3.952920e-05	6	true
55            	smoothSolver	2.333000e-04	1.833600e-05	8	7.810770e-03	7.398090e-04	2	false	GAMG	4.172960e-04	3.384180e-05	6	true
56            	smoothSolver	2.184150e-04	1.718930e-05	8	7.160610e-03	6.834210e-04	2	false	GAMG	4.011130e-04	3.041000e-05	6	true
57            	smoothSolver	2.051310e-04	1.619240e-05	8	6.504740e-03	6.169320e-04	2	false	GAMG	3.847560e-04	2.823640e-05	6	true
58            	smoothSolver	1.932180e-04	1.532910e-05	8	5.879820e-03	5.497530e-04	2	false	GAMG	3.668280e-04	2.566420e-05	6	true
59            	smoothSolver	1.825520e-04	1.458090e-05	8	5.286780e-03	4.860920e-04	2	false	GAMG	3.477420e-04	2.312530e-05	6	true
60            	smoothSolver	1.730480e-04	1.393170e-05	8	4.733270e-03	4.280780e-04	2	false	GAMG	3.281690e-04	2.070450e-05	6	true
61            	smoothSolver	1.645850e-04	1.336740e-05	8	4.221040e-03	3.764000e-04	2	false	GAMG	3.086700e-04	1.844670e-05	6	true
62            	smoothSolver	1.570540e-04	1.287370e-05	8	3.751010e-03	3.311220e-04	2	false	GAMG	2.895330e-04	1.635630e-05	6	true
63            	smoothSolver	1.503930e-04	1.243870e-05	8	3.323060e-03	2.919760e-04	2	false	GAMG	2.710170e-04	1.443980e-05	6	true
64            	smoothSolver	1.444670e-04	1.205210e-05	8	2.936200e-03	2.585170e-04	2	false	GAMG	2.533040e-04	2.450480e-05	5	true
65            	smoothSolver	1.392540e-04	1.170430e-05	8	2.580630e-03	2.294470e-04	2	false	GAMG	2.386010e-04	1.598980e-05	5	true
66            	smoothSolver	1.344660e-04	1.138740e-05	8	2.271060e-03	2.057860e-04	2	false	GAMG	2.206530e-04	2.071370e-05	4	true
67            	smoothSolver	1.303070e-04	1.109560e-05	8	1.985450e-03	1.854960e-04	2	false	GAMG	2.097650e-04	1.064640e-05	6	true
68            	smoothSolver	1.265660e-04	1.082450e-05	8	1.784640e-03	1.707880e-04	2	false	GAMG	1.935230e-04	1.627850e-05	4	true
69            	smoothSolver	1.231260e-04	1.056770e-05	8	1.548330e-03	1.100680e-04	3	false	GAMG	1.927710e-04	1.445820e-05	4	true
70            	smoothSolver	1.200860e-04	1.032380e-05	8	1.334320e-03	1.289630e-04	2	false	GAMG	1.778360e-04	1.617580e-05	4	true
71            	smoothSolver	1.171970e-04	1.008720e-05	8	1.203070e-03	8.949680e-05	3	false	GAMG	1.653660e-04	1.201910e-05	4	true
72            	smoothSolver	1.146110e-04	9.861560e-06	8	1.058230e-03	7.861760e-05	3	false	GAMG	1.549680e-04	1.086300e-05	4	true
73            	smoothSolver	1.121860e-04	9.641010e-06	8	9.405900e-04	7.153420e-05	3	false	GAMG	1.477790e-04	9.876230e-06	4	true
74            	smoothSolver	1.098990e-04	9.426970e-06	8	8.438190e-04	6.720220e-05	3	false	GAMG	1.418550e-04	9.071620e-06	4	true
75            	smoothSolver	1.077730e-04	9.218110e-06	8	7.630590e-04	6.420900e-05	3	false	GAMG	1.364710e-04	8.498180e-06	4	true
76            	smoothSolver	1.058020e-04	9.014550e-06	8	6.957070e-04	6.183190e-05	3	false	GAMG	1.316330e-04	8.150120e-06	4	true
77            	smoothSolver	1.057380e-04	8.935890e-06	8	6.393580e-04	5.944200e-05	3	false	GAMG	1.332940e-04	8.048710e-06	4	true
78            	smoothSolver	1.034690e-04	8.737850e-06	8	5.917720e-04	5.809730e-05	3	false	GAMG	1.265110e-04	7.721340e-06	4	true
79            	smoothSolver	1.033310e-04	8.657270e-06	8	5.488480e-04	4.099860e-05	4	false	GAMG	1.225440e-04	7.410770e-06	4	true
80            	smoothSolver	1.029670e-04	8.581390e-06	8	5.035610e-04	5.030840e-05	3	false	GAMG	1.324520e-04	8.188550e-06	4	true
81            	smoothSolver	1.002050e-04	8.359810e-06	8	4.758510e-04	3.741940e-05	4	false	GAMG	1.144750e-04	7.235100e-06	4	true
82            	smoothSolver	9.984610e-05	8.270730e-06	8	4.443010e-04	3.416610e-05	4	false	GAMG	1.184180e-04	7.507470e-06	4	true
83            	smoothSolver	9.929150e-05	8.183590e-06	8	4.213440e-04	3.222360e-05	4	false	GAMG	1.202180e-04	7.687600e-06	4	true
84            	smoothSolver	9.860250e-05	8.093010e-06	8	4.016250e-04	3.113440e-05	4	false	GAMG	1.200570e-04	7.731970e-06	4	true
85            	smoothSolver	9.779460e-05	7.998780e-06	8	3.845970e-04	3.032650e-05	4	false	GAMG	1.193920e-04	7.717200e-06	4	true
86            	smoothSolver	9.689960e-05	7.900120e-06	8	3.699160e-04	2.956790e-05	4	false	GAMG	1.185900e-04	7.710080e-06	4	true
87            	smoothSolver	9.593080e-05	7.797330e-06	8	3.576070e-04	2.881330e-05	4	false	GAMG	1.178200e-04	7.719210e-06	4	true
88            	smoothSolver	9.490280e-05	7.691170e-06	8	3.474910e-04	2.806690e-05	4	false	GAMG	1.170530e-04	7.732510e-06	4	true
89            	smoothSolver	9.382860e-05	7.582690e-06	8	3.393220e-04	2.733550e-05	4	false	GAMG	1.163380e-04	7.740740e-06	4	true
90            	smoothSolver	9.272370e-05	7.472900e-06	8	3.328520e-04	2.662130e-05	4	false	GAMG	1.157360e-04	7.748350e-06	4	true
91            	smoothSolver	9.160450e-05	7.362720e-06	8	3.277530e-04	2.592520e-05	4	false	GAMG	1.152360e-04	7.756880e-06	4	true
92            	smoothSolver	9.048060e-05	7.252990e-06	8	3.237120e-04	2.524750e-05	4	false	GAMG	1.147930e-04	7.763140e-06	4	true
93            	smoothSolver	8.936120e-05	7.144440e-06	8	3.204870e-04	2.458620e-05	4	false	GAMG	1.144140e-04	7.764140e-06	4	true
94            	smoothSolver	8.825660e-05	7.037740e-06	8	3.178600e-04	2.394020e-05	4	false	GAMG	1.140930e-04	7.757400e-06	4	true
95            	smoothSolver	8.136220e-05	6.561180e-06	8	3.176780e-04	2.414460e-05	4	false	GAMG	9.854970e-05	8.368310e-06	4	true
96            	smoothSolver	7.577640e-05	6.129950e-06	8	3.298620e-04	3.258680e-05	3	false	GAMG	9.941940e-05	4.662960e-06	6	true
97            	smoothSolver	7.119090e-05	5.748420e-06	8	3.757010e-04	3.442300e-05	3	false	GAMG	8.997190e-05	7.837410e-06	4	true
98            	smoothSolver	6.695720e-05	5.410390e-06	8	3.815470e-04	3.366600e-05	3	false	GAMG	8.653780e-05	8.508180e-06	4	true
99            	smoothSolver	6.337530e-05	5.110920e-06	8	4.013370e-04	3.265750e-05	3	false	GAMG	8.437550e-05	8.350140e-06	4	true
100           	smoothSolver	6.022260e-05	4.845970e-06	8	4.192640e-04	3.136920e-05	3	false	GAMG	8.247880e-05	8.019200e-06	4	true
101           	smoothSolver	5.742000e-05	4.611480e-06	8	4.295410e-04	4.266780e-05	2	false	GAMG	8.876640e-05	4.246430e-06	6	true
102           	smoothSolver	5.503350e-05	4.403720e-06	8	4.571370e-04	4.567820e-05	2	false	GAMG	8.183630e-05	7.014480e-06	4	true
103           	smoothSolver	5.271710e-05	4.220230e-06	8	4.433170e-04	3.212590e-05	3	false	GAMG	7.782950e-05	7.039030e-06	4	true
104           	smoothSolver	5.569020e-05	4.364120e-06	8	4.330200e-04	4.018390e-05	2	false	GAMG	9.361420e-05	7.639870e-06	4	true
105           	smoothSolver	5.814820e-05	4.513580e-06	8	4.266630e-04	4.129220e-05	2	false	GAMG	1.003390e-04	7.219750e-06	4	true
106           	smoothSolver	6.031820e-05	4.651360e-06	8	4.102360e-04	2.945470e-05	3	false	GAMG	9.932250e-05	5.680260e-06	4	true
107           	smoothSolver	6.220350e-05	4.774020e-06	8	3.807120e-04	2.675350e-05	3	false	GAMG	1.030620e-04	5.872100e-06	4	true
108           	smoothSolver	6.380810e-05	4.877630e-06	8	3.516010e-04	2.492800e-05	3	false	GAMG	1.056210e-04	6.290730e-06	4	true
109           	smoothSolver	6.514510e-05	4.963660e-06	8	3.244600e-04	2.388000e-05	3	false	GAMG	1.069680e-04	6.502360e-06	4	true
110           	smoothSolver	6.624140e-05	5.032990e-06	8	2.992120e-04	2.315280e-05	3	false	GAMG	1.076570e-04	6.508550e-06	4	true
111           	smoothSolver	6.712990e-05	5.086710e-06	8	2.760950e-04	2.251290e-05	3	false	GAMG	1.080020e-04	6.464220e-06	4	true
112           	smoothSolver	6.783910e-05	5.126700e-06	8	2.558070e-04	2.189480e-05	3	false	GAMG	1.081580e-04	6.412480e-06	4	true
113           	smoothSolver	6.838490e-05	5.154110e-06	8	2.385320e-04	2.130050e-05	3	false	GAMG	1.082110e-04	6.330110e-06	4	true
114           	smoothSolver	6.878950e-05	5.170540e-06	8	2.240630e-04	2.074420e-05	3	false	GAMG	1.081960e-04	6.285660e-06	4	true
115           	smoothSolver	6.906070e-05	5.177370e-06	8	2.126210e-04	2.023410e-05	3	false	GAMG	1.081870e-04	6.226170e-06	4	true
116           	smoothSolver	6.921060e-05	5.176030e-06	8	2.035890e-04	1.976830e-05	3	false	GAMG	1.082160e-04	6.134220e-06	4	true
117           	smoothSolver	6.925340e-05	5.167650e-06	8	1.966820e-04	1.933920e-05	3	false	GAMG	1.082770e-04	6.001900e-06	4	true
118           	smoothSolver	6.920410e-05	5.153390e-06	8	1.914900e-04	1.894240e-05	3	false	GAMG	1.083700e-04	5.855320e-06	4	true
119           	smoothSolver	6.906850e-05	5.134400e-06	8	1.878130e-04	1.857480e-05	3	false	GAMG	1.084670e-04	1.082900e-05	3	true
120           	smoothSolver	7.280150e-05	5.350770e-06	8	1.824580e-04	1.812660e-05	3	false	GAMG	1.212690e-04	7.157240e-06	4	true
121           	smoothSolver	7.620220e-05	7.552290e-06	7	1.993830e-04	1.834200e-05	3	false	GAMG	1.248980e-04	9.232380e-06	4	true
122           	smoothSolver	7.948050e-05	7.812330e-06	7	2.331740e-04	1.819870e-05	3	false	GAMG	1.307050e-04	1.039650e-05	4	true
123           	smoothSolver	8.218750e-05	8.033550e-06	7	2.713130e-04	1.816310e-05	3	false	GAMG	1.345770e-04	1.093140e-05	4	true
124           	smoothSolver	8.435790e-05	8.215960e-06	7	3.038320e-04	2.778430e-05	2	false	GAMG	1.496350e-04	1.206140e-05	4	true
125           	smoothSolver	8.912120e-05	8.614780e-06	7	3.340440e-04	3.095340e-05	2	false	GAMG	1.554970e-04	1.343040e-05	4	true
126           	smoothSolver	9.329840e-05	8.961400e-06	7	3.752810e-04	3.325410e-05	2	false	GAMG	1.597450e-04	1.432030e-05	4	true
127           	smoothSolver	9.684130e-05	9.250700e-06	7	4.170430e-04	3.476730e-05	2	false	GAMG	1.633420e-04	1.468140e-05	4	true
128           	smoothSolver	1.020050e-04	9.671920e-06	7	4.544600e-04	3.648520e-05	2	false	GAMG	1.725890e-04	1.600610e-05	4	true
129           	smoothSolver	1.063830e-04	1.002350e-05	7	4.983630e-04	3.783280e-05	2	false	GAMG	1.795720e-04	1.678740e-05	4	true
130           	smoothSolver	1.116640e-04	1.044170e-05	7	5.411340e-04	3.956980e-05	2	false	GAMG	1.897580e-04	1.785950e-05	4	true
131           	smoothSolver	1.159930e-04	1.077820e-05	7	5.868270e-04	4.091250e-05	2	false	GAMG	1.973550e-04	1.832060e-05	4	true
132           	smoothSolver	1.206020e-04	1.113130e-05	7	6.286990e-04	4.247490e-05	2	false	GAMG	2.068750e-04	1.882840e-05	4	true
133           	smoothSolver	1.241480e-04	1.139440e-05	7	6.694140e-04	4.353160e-05	2	false	GAMG	2.141510e-04	1.882270e-05	4	true
134           	smoothSolver	1.266260e-04	1.156790e-05	7	7.035950e-04	4.415500e-05	2	false	GAMG	2.200090e-04	2.163690e-05	3	true
135           	smoothSolver	1.287200e-04	1.172180e-05	7	7.059430e-04	4.490950e-05	2	false	GAMG	2.286040e-04	1.702700e-05	4	true
136           	smoothSolver	1.302660e-04	1.179190e-05	7	7.597870e-04	4.515040e-05	2	false	GAMG	2.338570e-04	1.450230e-05	4	true
137           	smoothSolver	1.304920e-04	1.178100e-05	7	7.721010e-04	4.504490e-05	2	false	GAMG	2.389820e-04	2.201460e-05	3	true
138           	smoothSolver	1.297410e-04	1.169620e-05	7	7.573990e-04	4.479480e-05	2	false	GAMG	2.458450e-04	2.062610e-05	3	true
139           	smoothSolver	1.282020e-04	1.154840e-05	7	7.518080e-04	4.438710e-05	2	false	GAMG	2.519920e-04	2.087890e-05	3	true
140           	smoothSolver	1.227960e-04	1.111500e-05	7	7.460050e-04	4.244490e-05	2	false	GAMG	2.494870e-04	1.708230e-05	3	true
141           	smoothSolver	1.059040e-04	9.908320e-06	7	7.090050e-04	4.003960e-05	2	false	GAMG	2.160650e-04	1.852600e-05	3	true
142           	smoothSolver	9.249820e-05	8.772990e-06	7	6.036400e-04	3.890770e-05	2	false	GAMG	2.012240e-04	1.619770e-05	4	true
143           	smoothSolver	8.008980e-05	7.852540e-06	7	4.810410e-04	3.884790e-05	2	false	GAMG	1.914390e-04	1.748220e-05	4	true
144           	smoothSolver	7.248710e-05	7.119600e-06	7	4.574160e-04	3.842550e-05	2	false	GAMG	1.777020e-04	1.728080e-05	4	true
145           	smoothSolver	6.226700e-05	6.195860e-06	7	4.782140e-04	3.704510e-05	2	false	GAMG	1.567870e-04	1.562810e-05	4	true
146           	smoothSolver	5.407960e-05	4.018980e-06	8	5.040790e-04	3.581060e-05	2	false	GAMG	1.405290e-04	1.293760e-05	4	true
147           	smoothSolver	4.721740e-05	3.583290e-06	8	5.354060e-04	3.431610e-05	2	false	GAMG	1.268260e-04	1.108760e-05	4	true
148           	smoothSolver	4.157720e-05	3.228120e-06	8	5.620110e-04	5.316440e-05	1	false	GAMG	1.203720e-04	1.141540e-05	4	true
149           	smoothSolver	3.702480e-05	2.936160e-06	8	5.928000e-04	5.621220e-05	1	false	GAMG	1.087580e-04	5.639220e-06	6	true
150           	smoothSolver	3.362860e-05	2.696030e-06	8	6.367210e-04	5.830690e-05	1	false	GAMG	9.937890e-05	9.569870e-06	4	true
151           	smoothSolver	3.035760e-05	2.495700e-06	8	6.229800e-04	5.785740e-05	1	false	GAMG	9.259780e-05	5.417970e-06	6	true
152           	smoothSolver	2.808430e-05	2.321030e-06	8	6.400830e-04	5.683820e-05	1	false	GAMG	8.461640e-05	4.535030e-06	6	true
153           	smoothSolver	2.590720e-05	2.160300e-06	8	6.312230e-04	5.513800e-05	1	false	GAMG	7.726320e-05	4.167030e-06	6	true
154           	smoothSolver	2.403800e-05	2.007500e-06	8	6.185260e-04	5.314350e-05	1	false	GAMG	7.135600e-05	3.928820e-06	6	true
155           	smoothSolver	2.242000e-05	1.860710e-06	8	6.065510e-04	5.108280e-05	1	false	GAMG	6.632940e-05	3.764610e-06	6	true
156           	smoothSolver	2.094800e-05	1.719670e-06	8	5.940480e-04	4.906840e-05	1	false	GAMG	6.174120e-05	3.675940e-06	6	true
157           	smoothSolver	1.955430e-05	1.584320e-06	8	5.804390e-04	4.716150e-05	1	false	GAMG	5.761590e-05	3.626140e-06	6	true
158           	smoothSolver	1.820390e-05	1.454700e-06	8	5.658400e-04	4.524550e-05	1	false	GAMG	5.379840e-05	3.580340e-06	6	true
159           	smoothSolver	1.688310e-05	1.330910e-06	8	5.503320e-04	4.332140e-05	1	false	GAMG	5.032320e-05	3.541500e-06	6	true
160           	smoothSolver	1.559830e-05	1.212990e-06	8	5.340040e-04	4.139090e-05	1	false	GAMG	4.719290e-05	3.477590e-06	6	true
161           	smoothSolver	1.436630e-05	1.101030e-06	8	5.169990e-04	3.949480e-05	1	false	GAMG	4.434470e-05	3.406130e-06	6	true
162           	smoothSolver	1.319250e-05	9.951170e-07	8	4.992890e-04	3.760160e-05	1	false	GAMG	4.174560e-05	3.312280e-06	6	true
163           	smoothSolver	1.208320e-05	1.199660e-06	7	4.806680e-04	3.572410e-05	1	false	GAMG	3.908840e-05	3.126110e-06	6	true
164           	smoothSolver	1.101760e-05	1.079650e-06	7	4.553220e-04	3.351250e-05	1	false	GAMG	3.682700e-05	3.039060e-06	6	true
165           	smoothSolver	1.004750e-05	9.674140e-07	7	4.328280e-04	3.144810e-05	1	false	GAMG	3.480580e-05	2.964330e-06	6	true
166           	smoothSolver	9.150870e-06	8.629550e-07	7	4.112250e-04	2.951070e-05	1	false	GAMG	3.293880e-05	2.886670e-06	6	true
167           	smoothSolver	8.320650e-06	7.662420e-07	7	3.898380e-04	2.765490e-05	1	false	GAMG	3.121470e-05	2.791960e-06	6	true
168           	smoothSolver	7.550290e-06	9.134460e-07	6	3.685560e-04	2.586320e-05	1	false	GAMG	2.938880e-05	2.570100e-06	6	true
169           	smoothSolver	6.819640e-06	8.092870e-07	6	3.428710e-04	2.382940e-05	1	false	GAMG	2.786520e-05	2.442170e-06	6	true
170           	smoothSolver	6.167540e-06	9.663540e-07	5	3.196790e-04	2.196580e-05	1	false	GAMG	2.633170e-05	2.210000e-06	6	true
171           	smoothSolver	5.563320e-06	8.569860e-07	5	2.931960e-04	1.992460e-05	1	false	GAMG	2.487050e-05	2.085560e-06	6	true
172           	smoothSolver	5.030880e-06	7.572360e-07	5	2.702250e-04	1.813260e-05	1	false	GAMG	2.353620e-05	1.983280e-06	6	true
173           	smoothSolver	4.549230e-06	9.075790e-07	4	2.496300e-04	1.654260e-05	1	false	GAMG	2.220900e-05	1.754980e-06	6	true
174           	smoothSolver	4.096720e-06	8.066410e-07	4	2.259120e-04	1.478050e-05	1	false	GAMG	2.085690e-05	1.635960e-06	6	true
175           	smoothSolver	3.697800e-06	9.778440e-07	3	2.056160e-04	1.327690e-05	1	false	GAMG	1.965860e-05	1.435430e-06	6	true
176           	smoothSolver	3.330160e-06	8.793670e-07	3	1.826240e-04	1.163330e-05	1	false	GAMG	1.831330e-05	1.311020e-06	6	true
177           	smoothSolver	3.012900e-06	7.895830e-07	3	1.641570e-04	1.030030e-05	1	false	GAMG	1.712020e-05	1.222000e-06	6	true
178           	smoothSolver	2.732180e-06	9.752690e-07	2	1.485560e-04	9.199890e-06	1	false	GAMG	1.606880e-05	1.073700e-06	6	true
179           	smoothSolver	2.473350e-06	8.929130e-07	2	1.295140e-04	7.918470e-06	1	false	GAMG	1.488710e-05	9.588740e-07	6	true
180           	smoothSolver	2.252810e-06	8.171160e-07	2	1.149800e-04	6.921550e-06	1	false	GAMG	1.383480e-05	8.787990e-07	6	true
181           	smoothSolver	2.059680e-06	7.474950e-07	2	1.030450e-04	6.130320e-06	1	false	GAMG	1.291410e-05	8.229270e-07	6	true
182           	smoothSolver	1.888980e-06	9.531860e-07	1	9.295350e-05	5.481170e-06	1	false	GAMG	1.205660e-05	1.028420e-06	5	true
183           	smoothSolver	1.747350e-06	8.974040e-07	1	7.867540e-05	4.600090e-06	1	false	GAMG	1.113850e-05	9.028650e-07	5	true
184           	smoothSolver	1.615780e-06	8.448440e-07	1	6.868280e-05	3.951760e-06	1	false	GAMG	1.021820e-05	9.741640e-07	5	true
185           	smoothSolver	1.500100e-06	7.954250e-07	1	6.121600e-05	3.462960e-06	1	false	GAMG	9.452920e-06	9.621680e-07	4	true
186           	smoothSolver	1.387650e-06	7.484860e-07	1	5.401720e-05	3.070320e-06	1	false	GAMG	8.845870e-06	9.469380e-07	4	true
187           	smoothSolver	1.297450e-06	7.047510e-07	1	4.861590e-05	2.752760e-06	1	false	GAMG	8.319990e-06	9.589220e-07	4	true
188           	smoothSolver	1.217140e-06	6.635320e-07	1	4.467530e-05	2.499010e-06	1	false	GAMG	7.872770e-06	9.584270e-07	4	true
189           	smoothSolver	1.145160e-06	6.247200e-07	1	4.123280e-05	2.286550e-06	1	false	GAMG	7.450270e-06	9.405760e-07	4	true
190           	smoothSolver	1.079300e-06	5.881930e-07	1	3.816070e-05	2.104550e-06	1	false	GAMG	7.045650e-06	9.022380e-07	4	true
191           	smoothSolver	1.018080e-06	5.538420e-07	1	3.544140e-05	1.945100e-06	1	false	GAMG	6.650060e-06	8.595800e-07	4	true
192           	smoothSolver	9.603110e-07	9.603110e-07	0	3.310870e-05	1.803370e-06	1	false	GAMG	6.432590e-06	7.403170e-07	3	true
193           	smoothSolver	9.593240e-07	9.593240e-07	0	2.471600e-05	1.510680e-06	1	false	GAMG	5.875050e-06	7.688640e-07	3	true
194           	smoothSolver	9.477060e-07	9.477060e-07	0	1.882260e-05	1.270310e-06	1	false	GAMG	5.425090e-06	5.587030e-07	3	true
195           	smoothSolver	9.232770e-07	9.232770e-07	0	1.515910e-05	1.076070e-06	1	false	GAMG	4.891860e-06	4.998830e-07	3	true
196           	smoothSolver	9.149000e-07	9.149000e-07	0	1.238700e-05	9.273800e-07	1	false	GAMG	4.273380e-06	5.570860e-07	3	true
197           	smoothSolver	9.199840e-07	9.199840e-07	0	1.015260e-05	8.125940e-07	1	false	GAMG	3.963380e-06	4.746180e-07	3	true
198           	smoothSolver	9.192140e-07	9.192140e-07	0	9.299840e-06	7.226590e-07	1	false	GAMG	4.017400e-06	5.576470e-07	3	true
199           	smoothSolver	9.144950e-07	9.144950e-07	0	9.729450e-06	6.509720e-07	1	false	GAMG	4.005820e-06	4.618890e-07	3	true
200           	smoothSolver	9.204310e-07	9.204310e-07	0	1.012720e-05	6.102820e-07	1	false	GAMG	3.787980e-06	9.005150e-07	2	true
201           	smoothSolver	9.448350e-07	9.448350e-07	0	9.623180e-06	5.712190e-07	1	false	GAMG	3.767890e-06	8.878190e-07	2	true
202           	smoothSolver	9.745750e-07	9.745750e-07	0	9.051670e-06	5.311290e-07	1	false	GAMG	4.049880e-06	9.176460e-07	2	true
203           	smoothSolver	1.008450e-06	4.258440e-07	1	9.778540e-06	5.106840e-07	1	false	GAMG	4.036400e-06	8.057150e-07	4	true
204           	smoothSolver	8.724230e-07	8.724230e-07	0	1.729190e-05	6.307750e-07	1	false	GAMG	3.938520e-06	5.327580e-07	3	true
205           	smoothSolver	8.944540e-07	8.944540e-07	0	1.510700e-05	6.075240e-07	1	false	GAMG	3.597360e-06	8.172150e-07	2	true
206           	smoothSolver	9.252080e-07	9.252080e-07	0	1.269900e-05	5.614030e-07	1	false	GAMG	3.753590e-06	8.040700e-07	2	true
207           	smoothSolver	9.650710e-07	9.650710e-07	0	1.133510e-05	5.116660e-07	1	false	GAMG	4.205010e-06	8.612700e-07	2	true
208           	smoothSolver	1.022070e-06	3.740240e-07	1	1.116890e-05	4.844840e-07	1	false	GAMG	3.507370e-06	6.079640e-07	4	true
209           	smoothSolver	8.451040e-07	8.451040e-07	0	1.606420e-05	5.644790e-07	1	false	GAMG	3.684690e-06	4.024830e-07	3	true
210           	smoothSolver	8.823240e-07	8.823240e-07	0	1.416630e-05	5.347890e-07	1	false	GAMG	3.637980e-06	7.700950e-07	2	true
211           	smoothSolver	9.335790e-07	9.335790e-07	0	1.228410e-05	4.875000e-07	1	false	GAMG	4.073060e-06	8.322690e-07	2	true
212           	smoothSolver	1.008130e-06	3.346630e-07	1	1.160270e-05	4.438900e-07	1	false	GAMG	3.024370e-06	5.795260e-07	4	true
213           	smoothSolver	7.997980e-07	7.997980e-07	0	1.505200e-05	4.885800e-07	1	false	GAMG	3.684780e-06	8.504790e-07	2	true
214           	smoothSolver	8.472780e-07	8.472780e-07	0	1.323180e-05	4.536180e-07	1	false	GAMG	3.880370e-06	8.572920e-07	2	true
215           	smoothSolver	9.147290e-07	9.147290e-07	0	1.185150e-05	4.244230e-07	1	false	GAMG	4.247490e-06	8.163850e-07	2	true
216           	smoothSolver	1.011990e-06	3.004090e-07	1	1.141510e-05	3.990010e-07	1	false	GAMG	2.588660e-06	5.066950e-07	4	true
217           	smoothSolver	7.729110e-07	7.729110e-07	0	1.374340e-05	4.272260e-07	1	false	GAMG	3.683340e-06	8.410180e-07	2	true
218           	smoothSolver	8.374470e-07	8.374470e-07	0	1.247820e-05	4.041220e-07	1	false	GAMG	4.090630e-06	7.595230e-07	2	true
219           	smoothSolver	9.253880e-07	9.253880e-07	0	1.170500e-05	3.825410e-07	1	false	GAMG	4.613770e-06	7.979560e-07	2	true
220           	smoothSolver	1.050460e-06	2.712940e-07	1	1.161980e-05	3.609740e-07	1	false	GAMG	2.250790e-06	8.717910e-07	2	true
221           	smoothSolver	7.577930e-07	7.577930e-07	0	1.130820e-05	3.327490e-07	1	false	GAMG	3.995770e-06	8.368570e-07	2	true
222           	smoothSolver	8.503300e-07	8.503300e-07	0	1.184870e-05	3.454600e-07	1	false	GAMG	4.607010e-06	8.965290e-07	2	true
223           	smoothSolver	9.753100e-07	9.753100e-07	0	1.204310e-05	3.480210e-07	1	false	GAMG	5.349420e-06	7.361620e-07	2	true
224           	smoothSolver	1.138250e-06	2.464330e-07	1	1.247360e-05	3.360070e-07	1	false	GAMG	2.083050e-06	7.629240e-07	2	true
225           	smoothSolver	7.816930e-07	7.816930e-07	0	1.120050e-05	2.992950e-07	1	false	GAMG	4.458110e-06	8.371820e-07	2	true
226           	smoothSolver	9.015200e-07	9.015200e-07	0	1.201530e-05	3.156180e-07	1	false	GAMG	5.362840e-06	8.215160e-07	2	true
227           	smoothSolver	1.069270e-06	2.262110e-07	1	1.268860e-05	3.096690e-07	1	false	GAMG	1.758720e-06	6.688940e-07	2	true
228           	smoothSolver	7.294820e-07	7.294820e-07	0	1.088710e-05	2.821300e-07	1	false	GAMG	3.943300e-06	6.991360e-07	2	true
229           	smoothSolver	8.404350e-07	8.404350e-07	0	1.107010e-05	2.870560e-07	1	false	GAMG	5.001390e-06	7.174330e-07	2	true
230           	smoothSolver	9.986000e-07	9.986000e-07	0	1.157790e-05	2.778050e-07	1	false	GAMG	6.221120e-06	7.075250e-07	2	true
231           	smoothSolver	1.224520e-06	2.085070e-07	1	1.289620e-05	2.775720e-07	1	false	GAMG	1.912780e-06	5.528910e-07	2	true
232           	smoothSolver	7.944910e-07	7.944910e-07	0	1.046350e-05	2.393100e-07	1	false	GAMG	4.847500e-06	8.811650e-07	2	true