/*--------------------------------*- C++ -*----------------------------------*\
| =========                 |                                                 |
| \\      /  F ield         | OpenFOAM: The Open Source CFD Toolbox           |
|  \\    /   O peration     | Version:  v1912                                 |
|   \\  /    A nd           | Website:  www.openfoam.com                      |
|    \\/     M anipulation  |                                                 |
\*---------------------------------------------------------------------------*/
FoamFile
{
    version     2.0;
    format      ascii;
    class       volScalarField;
    location    "600";
    object      k;
}
// * * * * * * * * * * * * * * * * * * * * * * * * * * * * * * * * * * * * * //

dimensions      [0 2 -2 0 0 0 0];


internalField   nonuniform List<scalar> 
10000
(
1e-15
1e-15
1e-15
1.0106e-15
1.15715e-15
1.28304e-15
1.83951e-15
2.15504e-15
3.29627e-15
3.98262e-15
6.42257e-15
8.02392e-15
1.32391e-14
1.68114e-14
2.87618e-14
3.73571e-14
6.46675e-14
8.69614e-14
9.61421e-13
1.61333e-07
1e-15
1e-15
1.03468e-15
1.08583e-15
1.49971e-15
1.70191e-15
2.67858e-15
3.27751e-15
5.12099e-15
6.10326e-15
1.02397e-14
1.32359e-14
2.08495e-14
2.45573e-14
4.14642e-14
5.90006e-14
9.62738e-14
1.29485e-13
3.19643e-13
1.62375e-08
1e-15
1e-15
1e-15
1e-15
1e-15
1e-15
1e-15
1e-15
1e-15
1e-15
1e-15
1.06667e-15
1.38875e-15
1.6108e-15
3.21746e-15
4.30104e-15
1.47753e-14
3.3269e-14
8.12124e-14
2.21268e-07
1e-15
1e-15
1e-15
1e-15
1e-15
1e-15
1e-15
1e-15
1e-15
1e-15
1e-15
1e-15
1e-15
1e-15
1.00496e-15
1e-15
1.12426e-15
1.01189e-15
2.68169e-15
1.01107e-15
1e-15
1e-15
1e-15
1e-15
1e-15
1e-15
1e-15
1e-15
1e-15
1e-15
1e-15
1e-15
1e-15
1e-15
1.00907e-15
1e-15
1e-15
1e-15
8.32845e-13
6.77874e-15
1e-15
1e-15
1e-15
1e-15
1e-15
1e-15
1.00108e-15
1e-15
1e-15
1e-15
1e-15
1e-15
1e-15
1e-15
1e-15
1e-15
1e-15
1e-15
4.59017e-14
1.32909e-15
1e-15
1e-15
1e-15
1e-15
1e-15
1e-15
1e-15
1e-15
1e-15
1e-15
1e-15
1.01035e-15
1e-15
1e-15
1e-15
1e-15
1e-15
1e-15
2.992e-13
7.35854e-15
1e-15
1e-15
1e-15
1e-15
1e-15
1e-15
1e-15
1e-15
1e-15
1e-15
1e-15
1e-15
1e-15
1e-15
1e-15
1e-15
1.00427e-15
1e-15
2.96873e-14
1.82032e-14
1e-15
1e-15
1e-15
1e-15
1e-15
1e-15
1e-15
1e-15
1e-15
1e-15
1e-15
1e-15
1.00955e-15
1e-15
1e-15
1e-15
1e-15
1e-15
1.58232e-15
1.84219e-15
1e-15
1e-15
1e-15
1e-15
1e-15
1e-15
1.00405e-15
1e-15
1e-15
1e-15
1e-15
1e-15
1e-15
1.01018e-15
1e-15
1e-15
1e-15
1.00997e-15
1e-15
1e-15
1e-15
1e-15
1e-15
1e-15
1e-15
1e-15
1e-15
1.00967e-15
1e-15
1e-15
1e-15
1.01008e-15
1e-15
1e-15
1e-15
1e-15
1e-15
1e-15
1.01166e-15
1e-15
1e-15
1e-15
1e-15
1e-15
1e-15
1e-15
1e-15
1e-15
1e-15
1e-15
1e-15
1e-15
1.0139e-15
1e-15
1e-15
1e-15
1e-15
1e-15
1e-15
1e-15
1e-15
1e-15
1e-15
1e-15
1e-15
1e-15
1e-15
1e-15
1e-15
1e-15
1.01413e-15
1e-15
1e-15
1e-15
1e-15
1e-15
1e-15
1e-15
1e-15
1e-15
1e-15
1e-15
1e-15
1e-15
1e-15
1e-15
1e-15
1e-15
1e-15
1.01395e-15
1e-15
1e-15
1e-15
1e-15
1e-15
1e-15
1e-15
1e-15
1e-15
1e-15
1e-15
1e-15
1e-15
1e-15
1e-15
1e-15
1e-15
1e-15
1.01329e-15
1e-15
1e-15
1e-15
1e-15
1e-15
1.00562e-15
1e-15
1e-15
1e-15
1e-15
1e-15
1e-15
1e-15
1e-15
1e-15
1e-15
1e-15
1e-15
1.01121e-15
1e-15
1e-15
1e-15
1e-15
1e-15
1.00503e-15
1e-15
1e-15
1e-15
1e-15
1e-15
1.00633e-15
1e-15
1e-15
1e-15
1e-15
1e-15
1e-15
1.00731e-15
1e-15
1e-15
1e-15
1e-15
1e-15
1.0046e-15
1e-15
1e-15
1e-15
1e-15
1e-15
1e-15
1e-15
1e-15
1e-15
1e-15
1e-15
1e-15
1e-15
1e-15
1.01249e-15
1e-15
1e-15
1e-15
1e-15
1e-15
1.00608e-15
1e-15
1e-15
1e-15
1e-15
1e-15
1.01001e-15
1e-15
1e-15
1e-15
1e-15
1e-15
1e-15
1e-15
1e-15
1.015e-15
1e-15
1e-15
1e-15
1e-15
1e-15
1.00706e-15
1e-15
1e-15
1e-15
1e-15
1e-15
1e-15
1e-15
1e-15
1e-15
1e-15
1e-15
1e-15
1e-15
1e-15
1.01589e-15
1e-15
1e-15
1e-15
1e-15
1.01625e-15
1e-15
1e-15
1e-15
1e-15
1e-15
1e-15
1e-15
1e-15
1e-15
1e-15
1e-15
1e-15
1e-15
1e-15
1e-15
1e-15
1e-15
1e-15
1e-15
1e-15
1.01586e-15
1e-15
1e-15
1e-15
1e-15
1e-15
1e-15
1e-15
1e-15
1e-15
1e-15
1e-15
1e-15
1e-15
1e-15
1e-15
1.01266e-15
1e-15
1e-15
1e-15
1e-15
1e-15
1e-15
1e-15
1e-15
1e-15
1e-15
1e-15
1e-15
1e-15
1e-15
1e-15
1e-15
1e-15
1e-15
1.0168e-15
1e-15
1e-15
1e-15
1e-15
1e-15
1e-15
1.01358e-15
1e-15
1e-15
1e-15
1e-15
1e-15
1e-15
1e-15
1e-15
1e-15
1e-15
1e-15
1.0165e-15
1e-15
1e-15
1e-15
1e-15
1e-15
1e-15
1e-15
1e-15
1.01534e-15
1e-15
1e-15
1e-15
1e-15
1e-15
1e-15
1e-15
1e-15
1e-15
1e-15
1e-15
1.01197e-15
1e-15
1e-15
1e-15
1e-15
1e-15
1e-15
1.01374e-15
1e-15
1e-15
1e-15
1e-15
1e-15
1e-15
1e-15
1e-15
1e-15
1e-15
1e-15
1e-15
1.01744e-15
1e-15
1e-15
1e-15
1e-15
1e-15
1.00849e-15
1e-15
1e-15
1e-15
1e-15
1e-15
1e-15
1e-15
1e-15
1e-15
1e-15
1e-15
1e-15
1e-15
1e-15
1.01727e-15
1e-15
1e-15
1e-15
1e-15
1e-15
1e-15
1e-15
1e-15
1e-15
1e-15
1e-15
1e-15
1e-15
1e-15
1e-15
1e-15
1e-15
1e-15
1.01737e-15
1e-15
1e-15
1e-15
1e-15
1e-15
1.0087e-15
1e-15
1e-15
1e-15
1e-15
1e-15
1e-15
1e-15
1e-15
1e-15
1e-15
1e-15
1e-15
1.01703e-15
1e-15
1e-15
1e-15
1e-15
1e-15
1.00818e-15
1e-15
1e-15
1e-15
1e-15
1e-15
1e-15
1e-15
1e-15
1e-15
1e-15
1e-15
1e-15
1.00901e-15
1e-15
1e-15
1e-15
1e-15
1e-15
1.00831e-15
1e-15
1e-15
1e-15
1e-15
1e-15
1e-15
1e-15
1e-15
1e-15
1e-15
1e-15
1e-15
1e-15
1e-15
1e-15
1e-15
1e-15
1e-15
1.00312e-15
1e-15
1e-15
1e-15
1e-15
1e-15
1.0102e-15
1e-15
1e-15
1e-15
1e-15
1e-15
1e-15
1e-15
1e-15
1.01649e-15
1e-15
1e-15
1e-15
1e-15
1e-15
1.00806e-15
1e-15
1e-15
1e-15
1e-15
1e-15
1e-15
1e-15
1e-15
1e-15
1e-15
1e-15
1e-15
1e-15
1e-15
1e-15
1e-15
1e-15
1e-15
1e-15
1e-15
1e-15
1e-15
1e-15
1.01562e-15
1e-15
1e-15
1e-15
1e-15
1e-15
1e-15
1e-15
1e-15
1e-15
1.01655e-15
1e-15
1e-15
1e-15
1e-15
1e-15
1.00824e-15
1e-15
1e-15
1e-15
1e-15
1e-15
1e-15
1e-15
1e-15
1e-15
1e-15
1e-15
1e-15
1e-15
1e-15
1e-15
1e-15
1e-15
1e-15
1e-15
1e-15
1.00889e-15
1e-15
1e-15
1e-15
1.01444e-15
1e-15
1e-15
1e-15
1e-15
1e-15
1e-15
1e-15
1e-15
1e-15
1e-15
1e-15
1e-15
1e-15
1.017e-15
1e-15
1e-15
1e-15
1e-15
1e-15
1.01571e-15
1e-15
1e-15
1e-15
1e-15
1e-15
1e-15
1.01025e-15
1e-15
1e-15
1e-15
1e-15
1e-15
1.0069e-15
1e-15
1e-15
1e-15
1e-15
1e-15
1.00931e-15
1e-15
1e-15
1e-15
1e-15
1e-15
1e-15
1e-15
1.01038e-15
1e-15
1e-15
1e-15
1e-15
1e-15
1.00704e-15
1e-15
1e-15
1e-15
1e-15
1e-15
1.01006e-15
1e-15
1e-15
1e-15
1e-15
1e-15
1e-15
1e-15
1.01037e-15
1e-15
1e-15
1e-15
1e-15
1e-15
1.0069e-15
1e-15
1e-15
1e-15
1e-15
1e-15
1.00961e-15
1e-15
1e-15
1e-15
1e-15
1e-15
1e-15
1e-15
1e-15
1e-15
1e-15
1e-15
1e-15
1e-15
1e-15
1e-15
1e-15
1.01621e-15
1e-15
1e-15
1e-15
1.01379e-15
1e-15
1e-15
1e-15
1e-15
1e-15
1e-15
1e-15
1e-15
1.01684e-15
1e-15
1e-15
1e-15
1e-15
1e-15
1.00818e-15
1e-15
1e-15
1e-15
1e-15
1e-15
1e-15
1e-15
1e-15
1e-15
1e-15
1e-15
1e-15
1.01474e-15
1e-15
1e-15
1e-15
1e-15
1e-15
1.01774e-15
1e-15
1e-15
1e-15
1e-15
1e-15
1.00917e-15
1e-15
1e-15
1e-15
1e-15
1e-15
1e-15
1.01044e-15
1e-15
1e-15
1e-15
1e-15
1e-15
1.00693e-15
1e-15
1e-15
1e-15
1e-15
1e-15
1.00947e-15
1e-15
1e-15
1e-15
1e-15
1e-15
1e-15
1e-15
1e-15
1.01484e-15
1e-15
1e-15
1e-15
1.01453e-15
1e-15
1e-15
1e-15
1e-15
1e-15
1.00946e-15
1e-15
1e-15
1e-15
1e-15
1e-15
1e-15
1e-15
1e-15
1e-15
1e-15
1e-15
1e-15
1e-15
1e-15
1.01789e-15
1e-15
1e-15
1e-15
1e-15
1e-15
1.00911e-15
1e-15
1e-15
1e-15
1e-15
1e-15
1e-15
1e-15
1e-15
1e-15
1e-15
1e-15
1e-15
1e-15
1e-15
1.01752e-15
1e-15
1e-15
1e-15
1e-15
1e-15
1.00917e-15
1e-15
1e-15
1e-15
1e-15
1e-15
1e-15
1e-15
1e-15
1.01688e-15
1e-15
1e-15
1e-15
1e-15
1e-15
1.0083e-15
1e-15
1e-15
1e-15
1e-15
1e-15
1e-15
1e-15
1e-15
1e-15
1e-15
1e-15
1e-15
1e-15
1e-15
1.01773e-15
1e-15
1e-15
1e-15
1e-15
1e-15
1.00872e-15
1e-15
1e-15
1e-15
1e-15
1e-15
1e-15
1e-15
1e-15
1e-15
1e-15
1e-15
1e-15
1.01691e-15
1e-15
1e-15
1e-15
1e-15
1e-15
1.00843e-15
1e-15
1e-15
1e-15
1e-15
1e-15
1e-15
1e-15
1e-15
1e-15
1e-15
1e-15
1e-15
1e-15
1e-15
1.01773e-15
1e-15
1e-15
1e-15
1e-15
1e-15
1.00878e-15
1e-15
1e-15
1e-15
1e-15
1e-15
1e-15
1e-15
1e-15
1e-15
1e-15
1e-15
1e-15
1.01693e-15
1e-15
1e-15
1e-15
1e-15
1e-15
1.00842e-15
1e-15
1e-15
1e-15
1e-15
1e-15
1e-15
1e-15
1e-15
1e-15
1e-15
1e-15
1e-15
1e-15
1.00979e-15
1e-15
1e-15
1e-15
1e-15
1e-15
1.00879e-15
1e-15
1e-15
1e-15
1e-15
1e-15
1e-15
1e-15
1e-15
1e-15
1e-15
1e-15
1e-15
1e-15
1e-15
1e-15
1e-15
1e-15
1e-15
1.01523e-15
1e-15
1e-15
1e-15
1e-15
1e-15
1.00974e-15
1e-15
1e-15
1e-15
1e-15
1e-15
1e-15
1e-15
1e-15
1.01695e-15
1e-15
1e-15
1e-15
1e-15
1e-15
1.00836e-15
1e-15
1e-15
1e-15
1e-15
1e-15
1e-15
1e-15
1e-15
1e-15
1e-15
1e-15
1e-15
1e-15
1e-15
1e-15
1e-15
1e-15
1e-15
1e-15
1e-15
1.00896e-15
1e-15
1e-15
1e-15
1e-15
1e-15
1e-15
1e-15
1e-15
1e-15
1e-15
1e-15
1e-15
1.0169e-15
1e-15
1e-15
1e-15
1e-15
1e-15
1.00839e-15
1e-15
1e-15
1e-15
1e-15
1e-15
1e-15
1e-15
1e-15
1e-15
1e-15
1e-15
1.0105e-15
1e-15
1e-15
1e-15
1e-15
1e-15
1e-15
1e-15
1.01688e-15
1e-15
1e-15
1e-15
1e-15
1e-15
1e-15
1e-15
1e-15
1e-15
1e-15
1e-15
1e-15
1e-15
1e-15
1e-15
1e-15
1.00518e-15
1e-15
1e-15
1.00791e-15
1e-15
1e-15
1e-15
1e-15
1e-15
1e-15
1e-15
1e-15
1e-15
1e-15
1e-15
1e-15
1e-15
1e-15
1e-15
1.00336e-15
1e-15
1e-15
1e-15
1e-15
1e-15
1e-15
1e-15
1e-15
1e-15
1e-15
1e-15
1e-15
1e-15
1e-15
1e-15
1e-15
1e-15
1e-15
1.01174e-15
1e-15
1e-15
1e-15
1e-15
1e-15
1e-15
1e-15
1e-15
1e-15
1.01537e-15
1e-15
1e-15
1e-15
1e-15
1e-15
1e-15
1e-15
1e-15
1.01696e-15
1e-15
1e-15
1e-15
1e-15
1e-15
1.00833e-15
1e-15
1e-15
1e-15
1e-15
1e-15
1e-15
1e-15
1e-15
1e-15
1e-15
1e-15
1e-15
1.01487e-15
1e-15
1e-15
1e-15
1e-15
1e-15
1.01351e-15
1e-15
1e-15
1e-15
1e-15
1e-15
1.00983e-15
1e-15
1e-15
1e-15
1e-15
1e-15
1e-15
1.01054e-15
1e-15
1e-15
1e-15
1e-15
1e-15
1.00705e-15
1e-15
1e-15
1e-15
1e-15
1e-15
1.00969e-15
1e-15
1e-15
1e-15
1e-15
1e-15
1e-15
1e-15
1e-15
1.01354e-15
1e-15
1e-15
1e-15
1e-15
1e-15
1.00775e-15
1e-15
1e-15
1e-15
1e-15
1e-15
1.00965e-15
1e-15
1e-15
1e-15
1e-15
1e-15
1e-15
1e-15
1e-15
1.01689e-15
1e-15
1e-15
1e-15
1e-15
1e-15
1.00833e-15
1e-15
1e-15
1e-15
1e-15
1e-15
1e-15
1e-15
1e-15
1e-15
1e-15
1e-15
1e-15
1e-15
1e-15
1.01739e-15
1e-15
1e-15
1e-15
1e-15
1e-15
1.00865e-15
1e-15
1e-15
1e-15
1e-15
1e-15
1e-15
1e-15
1e-15
1e-15
1e-15
1e-15
1e-15
1e-15
1e-15
1.00337e-15
1e-15
1e-15
1e-15
1e-15
1e-15
1.00931e-15
1e-15
1e-15
1e-15
1e-15
1e-15
1e-15
1e-15
1e-15
1e-15
1e-15
1e-15
1e-15
1e-15
1e-15
1.01783e-15
1e-15
1e-15
1e-15
1e-15
1e-15
1e-15
1e-15
1e-15
1e-15
1e-15
1e-15
1e-15
1e-15
1e-15
1.01049e-15
1e-15
1e-15
1e-15
1e-15
1e-15
1.00698e-15
1e-15
1e-15
1e-15
1e-15
1e-15
1.00957e-15
1e-15
1e-15
1e-15
1e-15
1e-15
1e-15
1e-15
1e-15
1.01489e-15
1e-15
1e-15
1e-15
1.01454e-15
1e-15
1e-15
1e-15
1e-15
1e-15
1e-15
1.01434e-15
1e-15
1e-15
1e-15
1e-15
1e-15
1e-15
1e-15
1e-15
1e-15
1e-15
1e-15
1.00339e-15
1e-15
1e-15
1e-15
1e-15
1e-15
1.00931e-15
1e-15
1e-15
1.00948e-15
1e-15
1e-15
1e-15
1e-15
1e-15
1.00175e-15
1e-15
1e-15
1e-15
1.01242e-15
1e-15
1e-15
1e-15
1e-15
1e-15
1.00918e-15
1e-15
1e-15
1e-15
1e-15
1e-15
1e-15
1e-15
1e-15
1e-15
1e-15
1e-15
1e-15
1.01691e-15
1e-15
1e-15
1e-15
1e-15
1e-15
1.00837e-15
1e-15
1e-15
1e-15
1e-15
1e-15
1e-15
1e-15
1e-15
1e-15
1e-15
1e-15
1e-15
1e-15
1e-15
1e-15
1e-15
1e-15
1e-15
1.01077e-15
1e-15
1e-15
1e-15
1e-15
1e-15
1.00987e-15
1e-15
1e-15
1e-15
1e-15
1e-15
1e-15
1e-15
1e-15
1e-15
1e-15
1e-15
1e-15
1e-15
1.00817e-15
1e-15
1e-15
1e-15
1e-15
1e-15
1.00979e-15
1e-15
1e-15
1e-15
1e-15
1e-15
1e-15
1.00795e-15
1e-15
1e-15
1e-15
1e-15
1e-15
1.00679e-15
1e-15
1e-15
1e-15
1e-15
1e-15
1.00961e-15
1e-15
1e-15
1e-15
1e-15
1e-15
1e-15
1e-15
1.01054e-15
1e-15
1e-15
1e-15
1e-15
1e-15
1.007e-15
1e-15
1e-15
1e-15
1e-15
1e-15
1.00962e-15
1e-15
1e-15
1e-15
1e-15
1e-15
1e-15
1e-15
1e-15
1e-15
1e-15
1e-15
1e-15
1e-15
1e-15
1.0172e-15
1e-15
1e-15
1e-15
1e-15
1e-15
1.00909e-15
1e-15
1e-15
1e-15
1e-15
1e-15
1e-15
1e-15
1e-15
1.01692e-15
1e-15
1e-15
1e-15
1e-15
1e-15
1.00832e-15
1e-15
1e-15
1e-15
1e-15
1e-15
1e-15
1e-15
1e-15
1e-15
1e-15
1e-15
1e-15
1e-15
1e-15
1e-15
1e-15
1e-15
1e-15
1e-15
1.01712e-15
1e-15
1e-15
1e-15
1e-15
1e-15
1e-15
1e-15
1e-15
1e-15
1e-15
1e-15
1e-15
1e-15
1e-15
1e-15
1.00338e-15
1e-15
1e-15
1e-15
1e-15
1e-15
1.0093e-15
1e-15
1e-15
1e-15
1e-15
1e-15
1e-15
1e-15
1e-15
1e-15
1e-15
1e-15
1e-15
1e-15
1e-15
1e-15
1e-15
1e-15
1e-15
1.00893e-15
1e-15
1e-15
1e-15
1e-15
1e-15
1e-15
1e-15
1e-15
1e-15
1e-15
1e-15
1e-15
1e-15
1e-15
1.0034e-15
1e-15
1e-15
1e-15
1.01546e-15
1e-15
1e-15
1e-15
1e-15
1e-15
1e-15
1e-15
1e-15
1e-15
1e-15
1.00175e-15
1e-15
1e-15
1e-15
1e-15
1e-15
1e-15
1e-15
1e-15
1e-15
1.0059e-15
1e-15
1e-15
1e-15
1e-15
1e-15
1e-15
1e-15
1e-15
1e-15
1e-15
1e-15
1e-15
1e-15
1e-15
1.00339e-15
1e-15
1e-15
1e-15
1e-15
1e-15
1.00932e-15
1e-15
1e-15
1e-15
1e-15
1e-15
1e-15
1e-15
1e-15
1e-15
1e-15
1e-15
1e-15
1e-15
1e-15
1e-15
1e-15
1e-15
1e-15
1.00894e-15
1e-15
1e-15
1e-15
1e-15
1e-15
1e-15
1e-15
1e-15
1e-15
1e-15
1e-15
1e-15
1.0097e-15
1e-15
1e-15
1e-15
1e-15
1e-15
1.00872e-15
1e-15
1e-15
1e-15
1e-15
1e-15
1e-15
1e-15
1e-15
1e-15
1e-15
1e-15
1e-15
1e-15
1e-15
1e-15
1e-15
1e-15
1e-15
1.01719e-15
1e-15
1e-15
1e-15
1e-15
1e-15
1.00908e-15
1e-15
1e-15
1e-15
1e-15
1e-15
1e-15
1.01052e-15
1e-15
1e-15
1e-15
1e-15
1e-15
1.00698e-15
1e-15
1e-15
1e-15
1e-15
1e-15
1.00961e-15
1e-15
1e-15
1e-15
1e-15
1e-15
1e-15
1e-15
1e-15
1.01488e-15
1e-15
1e-15
1e-15
1e-15
1e-15
1.01785e-15
1e-15
1e-15
1e-15
1e-15
1e-15
1.00929e-15
1e-15
1e-15
1e-15
1e-15
1e-15
1e-15
1e-15
1.01489e-15
1e-15
1e-15
1e-15
1e-15
1e-15
1.00785e-15
1e-15
1e-15
1e-15
1e-15
1e-15
1.00964e-15
1e-15
1e-15
1e-15
1e-15
1e-15
1e-15
1e-15
1e-15
1.0097e-15
1e-15
1e-15
1e-15
1e-15
1e-15
1.00873e-15
1e-15
1e-15
1e-15
1e-15
1e-15
1e-15
1e-15
1e-15
1e-15
1e-15
1e-15
1e-15
1e-15
1e-15
1e-15
1e-15
1e-15
1e-15
1e-15
1e-15
1.00894e-15
1e-15
1e-15
1e-15
1e-15
1e-15
1e-15
1e-15
1e-15
1e-15
1e-15
1e-15
1e-15
1e-15
1e-15
1.00257e-15
1e-15
1e-15
1e-15
1e-15
1e-15
1.00924e-15
1e-15
1e-15
1e-15
1e-15
1e-15
1e-15
1e-15
1e-15
1.00175e-15
1e-15
1e-15
1e-15
1e-15
1e-15
1.01827e-15
1e-15
1e-15
1e-15
1e-15
1e-15
1.00924e-15
1e-15
1e-15
1e-15
1e-15
1e-15
1e-15
1e-15
1e-15
1e-15
1e-15
1e-15
1e-15
1.00338e-15
1e-15
1e-15
1e-15
1e-15
1e-15
1.00931e-15
1e-15
1e-15
1e-15
1e-15
1e-15
1e-15
1e-15
1e-15
1e-15
1e-15
1e-15
1e-15
1e-15
1e-15
1.01781e-15
1e-15
1e-15
1e-15
1e-15
1e-15
1e-15
1e-15
1e-15
1e-15
1e-15
1e-15
1e-15
1e-15
1e-15
1e-15
1e-15
1e-15
1e-15
1.00338e-15
1e-15
1e-15
1e-15
1e-15
1e-15
1.00931e-15
1e-15
1e-15
1e-15
1e-15
1e-15
1e-15
1e-15
1e-15
1e-15
1e-15
1e-15
1e-15
1e-15
1e-15
1e-15
1e-15
1e-15
1e-15
1.00894e-15
1e-15
1e-15
1e-15
1e-15
1e-15
1e-15
1e-15
1e-15
1e-15
1e-15
1e-15
1e-15
1.0097e-15
1e-15
1e-15
1e-15
1e-15
1e-15
1.00872e-15
1e-15
1e-15
1e-15
1e-15
1e-15
0.00790751
0.00792192
0.00689309
0.00615082
0.00588332
0.0057551
0.00570502
0.00565161
0.0056046
0.00553437
0.00546792
0.00539474
0.00532921
0.00526004
0.00520228
0.00514144
0.00509286
0.00503924
0.00499724
0.00494924
0.00491233
0.00486956
0.00483737
0.00479906
0.00477049
0.00473538
0.00470977
0.00467749
0.00465458
0.00462479
0.00460431
0.00457671
0.00455816
0.00453221
0.00451525
0.00449084
0.00447541
0.0044524
0.00443835
0.00441662
0.0044038
0.00438307
0.00437128
0.00435144
0.0043406
0.00432162
0.00431165
0.00429347
0.00428432
0.0042668
0.00425836
0.00424145
0.00423359
0.00421734
0.00420999
0.00419434
0.0041875
0.00417242
0.00416604
0.00415142
0.00414546
0.00413125
0.00412569
0.00411188
0.00410672
0.00409328
0.00408849
0.00407538
0.00407095
0.00405813
0.00405404
0.00404147
0.0040377
0.00402535
0.00402189
0.00400974
0.00400663
0.00399458
0.00399194
0.0039793
0.000737371
0.00161408
0.00338388
0.005203
0.00605444
0.00639532
0.00653936
0.0065212
0.00646826
0.00636514
0.00628279
0.00619574
0.00612199
0.00605021
0.00599433
0.00593662
0.00589097
0.00583784
0.00579755
0.00574873
0.00571353
0.00567041
0.00563989
0.0056003
0.00557189
0.00553487
0.00550924
0.005475
0.00545202
0.00542043
0.00539986
0.00537002
0.00535085
0.00532239
0.00530484
0.00527804
0.00526208
0.00523678
0.00522228
0.00519821
0.00518473
0.00516154
0.00514908
0.00512681
0.00511536
0.00509402
0.00508352
0.00506309
0.00505332
0.00503358
0.0050243
0.00500545
0.0049966
0.00497862
0.00497018
0.00495304
0.004945
0.00492858
0.00492087
0.00490499
0.00489764
0.00488228
0.00487529
0.00486045
0.00485385
0.00483949
0.00483324
0.00481928
0.00481336
0.00479971
0.00479414
0.00478071
0.0047757
0.00476226
0.00475786
0.00474443
0.00474053
0.00472736
0.0047235
0.00471021
3.48103e-05
0.000218394
0.000470977
0.00121879
0.00233779
0.00343497
0.00417277
0.00456284
0.00477774
0.00485952
0.00491012
0.00492321
0.00492552
0.0049204
0.00491625
0.00490501
0.00489726
0.00487988
0.00486981
0.0048495
0.00483906
0.00481989
0.00480926
0.00478962
0.00477749
0.00475771
0.00474587
0.00472665
0.00471554
0.0046972
0.00468678
0.00466849
0.00465804
0.00463985
0.00462995
0.00461247
0.00460324
0.00458647
0.00457791
0.00456161
0.00455332
0.00453726
0.00452938
0.00451376
0.00450634
0.00449129
0.00448431
0.00446988
0.00446315
0.00444905
0.00444252
0.00442887
0.00442257
0.00440944
0.00440338
0.00439079
0.00438496
0.0043728
0.00436711
0.00435526
0.00434975
0.00433822
0.00433293
0.00432175
0.0043167
0.00430587
0.00430103
0.00429046
0.00428581
0.00427543
0.00427098
0.00426076
0.00425661
0.00424648
0.00424267
0.00423264
0.0042291
0.00421931
0.00421581
0.00420574
8.873e-06
2.52158e-05
3.81151e-05
0.000192822
0.000420821
0.000971461
0.00193574
0.00274034
0.00327817
0.00362591
0.00385697
0.00398754
0.00407903
0.00414199
0.00419251
0.00422477
0.00425675
0.00427301
0.00429257
0.00429888
0.00431166
0.00431406
0.00432088
0.00431935
0.0043213
0.00431722
0.00431706
0.0043114
0.00431013
0.00430347
0.00430118
0.00429304
0.00428953
0.00428029
0.00427646
0.00426698
0.00426301
0.0042535
0.00424945
0.00423973
0.00423532
0.00422526
0.00422079
0.0042107
0.00420628
0.00419632
0.00419203
0.00418228
0.00417791
0.00416811
0.00416374
0.00415404
0.00414973
0.00414026
0.00413606
0.00412685
0.00412273
0.0041137
0.00410958
0.00410062
0.00409657
0.00408776
0.00408382
0.00407521
0.0040714
0.00406302
0.00405931
0.00405108
0.00404744
0.00403928
0.00403575
0.00402767
0.00402431
0.00401631
0.00401313
0.00400523
0.00400223
0.00399448
0.00399153
0.00398347
3.56043e-09
5.12521e-07
4.49809e-06
1.62056e-05
2.72107e-05
0.000160673
0.00037396
0.000883388
0.00160988
0.00222691
0.00267066
0.00298636
0.00322172
0.0033869
0.00351642
0.00361173
0.00369212
0.00374695
0.00379981
0.0038355
0.00387358
0.00389766
0.00392473
0.00394055
0.00396021
0.00396988
0.00398447
0.00399004
0.00400131
0.00400442
0.00401215
0.00401282
0.00401743
0.00401654
0.00401944
0.0040175
0.00401922
0.00401653
0.00401728
0.0040137
0.00401337
0.00400906
0.00400811
0.00400326
0.00400194
0.00399677
0.00399524
0.00398981
0.00398789
0.00398207
0.0039799
0.00397389
0.00397158
0.00396552
0.00396315
0.0039571
0.00395464
0.00394848
0.00394591
0.00393961
0.00393698
0.00393066
0.00392804
0.00392177
0.00391918
0.00391299
0.00391041
0.00390423
0.00390162
0.0038954
0.00389281
0.00388658
0.00388408
0.00387785
0.00387546
0.00386926
0.00386698
0.00386083
0.00385859
0.00385224
1.13807e-10
1.55277e-08
2.24857e-08
1.06127e-06
6.89996e-06
1.4586e-05
2.21749e-05
0.000135514
0.000323566
0.000730788
0.00129399
0.00178917
0.00217538
0.0024723
0.00271883
0.00290655
0.0030606
0.00317502
0.00327748
0.00335439
0.00342635
0.00347942
0.00353184
0.0035688
0.00360799
0.00363387
0.00366441
0.0036832
0.00370782
0.00372147
0.00374079
0.0037504
0.00376566
0.00377221
0.00378439
0.00378881
0.00379844
0.00380145
0.00380895
0.00381049
0.00381596
0.00381651
0.00382052
0.00382033
0.00382318
0.00382238
0.00382446
0.00382301
0.00382423
0.0038222
0.00382279
0.00382036
0.00382046
0.0038178
0.00381755
0.00381465
0.00381409
0.00381081
0.00380996
0.00380637
0.00380532
0.00380155
0.00380037
0.00379649
0.00379522
0.00379128
0.00378989
0.00378582
0.0037843
0.00378006
0.00377849
0.00377414
0.00377256
0.00376814
0.00376659
0.0037621
0.00376061
0.00375607
0.00375457
0.00374998
1e-15
3.88726e-09
2.80491e-09
4.89451e-08
4.11373e-09
4.83101e-07
1.90483e-06
9.03152e-06
1.92057e-05
0.000109687
0.000251339
0.00056173
0.000977868
0.00139214
0.00174861
0.00202913
0.00227668
0.00247741
0.00264954
0.00278419
0.00290469
0.00299982
0.00308865
0.00315631
0.00322195
0.00327066
0.00332206
0.0033586
0.00339959
0.00342706
0.00345968
0.00348013
0.00350694
0.0035224
0.00354445
0.0035563
0.00357467
0.0035839
0.00359925
0.0036061
0.00361882
0.00362397
0.00363454
0.00363844
0.00364709
0.00364997
0.0036571
0.00365904
0.00366472
0.00366594
0.00367044
0.0036711
0.00367465
0.0036749
0.00367771
0.00367757
0.00367965
0.00367902
0.00368051
0.00367948
0.00368052
0.00367921
0.0036799
0.00367836
0.00367876
0.00367704
0.00367711
0.00367519
0.00367497
0.00367278
0.00367239
0.00367
0.00366951
0.00366695
0.0036664
0.00366368
0.0036631
0.00366023
0.00365954
0.00365685
1.14031e-15
1e-15
7.14553e-10
2.14589e-09
1.75028e-11
1.20056e-07
4.7712e-07
4.59559e-07
1.48671e-06
7.05467e-06
1.43495e-05
7.59158e-05
0.000170209
0.000383946
0.000684194
0.00103311
0.00136058
0.00163407
0.00187058
0.0020738
0.00225907
0.00241135
0.00254874
0.00265901
0.00276225
0.00284395
0.00292414
0.00298544
0.0030483
0.00309506
0.00314587
0.00318148
0.00322286
0.0032503
0.00328454
0.00330631
0.00333509
0.00335249
0.00337655
0.00338995
0.00341049
0.00342123
0.00343891
0.0034475
0.0034626
0.00346944
0.00348249
0.00348796
0.0034991
0.0035035
0.00351293
0.00351647
0.00352449
0.00352737
0.00353422
0.00353648
0.00354221
0.00354386
0.0035486
0.0035498
0.00355376
0.0035546
0.0035579
0.00355842
0.00356116
0.00356139
0.00356356
0.00356351
0.00356515
0.00356482
0.00356612
0.00356555
0.00356656
0.00356577
0.00356658
0.00356556
0.00356618
0.00356498
0.00356523
0.00356463
1.00724e-15
1e-15
7.3018e-13
8.4765e-11
1.19844e-12
1e-15
1.4589e-10
1.6959e-08
6.99571e-08
2.89862e-07
1.04533e-06
4.5868e-06
9.35585e-06
4.60314e-05
9.78087e-05
0.000225451
0.000444443
0.000703847
0.000997879
0.00126128
0.00149654
0.00169506
0.00188169
0.00204256
0.00219486
0.00231843
0.00243604
0.00253101
0.00262434
0.00269833
0.00277406
0.00283092
0.00289192
0.00293621
0.00298672
0.00302211
0.00306426
0.00309266
0.00312801
0.00315055
0.00318074
0.00319907
0.00322512
0.00324
0.00326256
0.00327478
0.00329446
0.0033043
0.00332143
0.00332953
0.00334452
0.00335123
0.0033644
0.00337006
0.00338159
0.00338635
0.00339638
0.00340037
0.00340908
0.00341247
0.00342005
0.00342291
0.00342951
0.00343192
0.00343767
0.00343966
0.0034446
0.00344621
0.00345043
0.00345171
0.00345533
0.00345633
0.00345945
0.00346021
0.00346289
0.00346342
0.00346564
0.0034661
0.00346741
0.0034692
1e-15
1e-15
4.10067e-14
4.41067e-12
1.99579e-12
1.90977e-14
1e-15
4.19853e-09
1.74352e-08
1.27853e-08
4.72926e-08
1.04712e-07
6.79781e-07
2.51765e-06
4.42504e-06
2.2144e-05
4.87171e-05
0.000120135
0.000244416
0.000433997
0.000664703
0.000901948
0.00113861
0.00133669
0.00152357
0.00168166
0.00183864
0.00197261
0.00210363
0.00221028
0.0023168
0.00240166
0.00248904
0.00255675
0.00262924
0.00268344
0.00274358
0.00278727
0.00283786
0.00287325
0.00291613
0.00294488
0.00298159
0.00300509
0.003037
0.0030565
0.0030844
0.00310036
0.00312465
0.00313787
0.00315933
0.00317043
0.00318948
0.00319887
0.00321578
0.00322367
0.0032386
0.00324523
0.00325852
0.00326427
0.00327604
0.00328103
0.00329146
0.00329581
0.00330508
0.0033089
0.00331711
0.00332045
0.00332772
0.00333061
0.00333705
0.00333958
0.00334528
0.00334751
0.0033525
0.00335456
0.0033587
0.00336108
0.00336344
0.00336802
1e-15
1e-15
1e-15
1.09235e-12
1.99457e-13
4.46699e-14
1e-15
3.81005e-13
5.27852e-12
5.0414e-10
3.29541e-09
6.63127e-09
1.8118e-08
7.42335e-08
2.56198e-07
9.52363e-07
1.58348e-06
9.66526e-06
1.90607e-05
5.45959e-05
0.000113966
0.000220311
0.000388902
0.000578998
0.000786127
0.000987563
0.00117693
0.00133667
0.00149386
0.00162661
0.00176379
0.00187955
0.00199757
0.0020925
0.002191
0.00226874
0.00235202
0.00241605
0.00248668
0.00253943
0.00259913
0.00264224
0.00269322
0.00272881
0.0027731
0.00280265
0.00284121
0.00286563
0.0028991
0.00291947
0.00294902
0.00296617
0.00299239
0.00300688
0.00303021
0.00304248
0.00306327
0.00307366
0.00309225
0.00310122
0.00311786
0.00312562
0.00314056
0.00314734
0.00316081
0.00316672
0.00317874
0.00318395
0.00319472
0.00319935
0.00320903
0.00321319
0.00322185
0.00322567
0.00323327
0.00323713
0.0032432
0.0032479
0.00325145
0.0032591
1e-15
1e-15
1e-15
1e-15
5.17271e-14
1.79659e-13
2.04015e-14
1.62631e-12
1.94421e-12
2.47593e-11
1.05914e-10
4.93608e-10
1.03472e-09
2.03124e-09
6.36346e-08
4.19106e-08
3.60602e-08
3.05857e-07
3.48955e-07
3.22207e-06
5.98865e-06
1.99698e-05
4.28833e-05
9.11441e-05
0.000181393
0.000309513
0.000477669
0.000648163
0.000830448
0.000997825
0.00115794
0.00129294
0.00143061
0.00154627
0.00166853
0.00177082
0.00187944
0.00196634
0.0020592
0.00213224
0.00221241
0.00227384
0.0023431
0.00239464
0.00245485
0.0024978
0.00255017
0.00258616
0.00263178
0.00266214
0.00270225
0.0027278
0.00276322
0.00278479
0.00281628
0.0028347
0.00286282
0.00287849
0.00290359
0.00291703
0.00293953
0.00295116
0.00297146
0.00298161
0.00300001
0.00300886
0.00302539
0.00303313
0.00304805
0.00305494
0.00306843
0.00307469
0.00308676
0.00309269
0.00310312
0.00310923
0.00311751
0.00312475
0.00312979
0.00314083
1e-15
1e-15
1e-15
1e-15
1e-15
4.49983e-14
6.15876e-15
8.65882e-14
3.97317e-13
1.64558e-12
2.62722e-11
1.90799e-11
7.81094e-11
1.164e-10
1.37109e-10
1.11801e-09
9.0083e-09
1.19178e-08
8.18628e-09
1.3176e-07
2.9395e-07
7.99648e-07
1.47027e-06
6.01203e-06
1.21579e-05
3.2558e-05
6.71963e-05
0.000127849
0.000228276
0.000355061
0.000510596
0.000660336
0.000819772
0.000962131
0.00110348
0.00122145
0.00134463
0.00144802
0.00155833
0.00165058
0.00175162
0.00183268
0.0019216
0.00199062
0.00206886
0.00212797
0.0021971
0.0022477
0.00230855
0.00235179
0.00240528
0.00244196
0.00248923
0.00252046
0.00256256
0.0025894
0.00262692
0.00264988
0.0026833
0.00270298
0.00273292
0.00275
0.00277699
0.00279187
0.00281629
0.0028293
0.00285127
0.00286266
0.00288248
0.00289266
0.00291053
0.00291984
0.00293575
0.00294464
0.00295829
0.00296747
0.00297823
0.00298882
0.00299557
0.00301074
1e-15
1e-15
1e-15
1e-15
1e-15
1.0064e-15
1.57117e-15
1.36424e-14
7.59747e-14
1.52404e-13
1.47083e-14
1.07232e-12
2.62652e-12
2.86167e-11
2.25933e-12
2.66217e-11
7.88875e-13
6.11472e-10
7.48573e-10
4.2986e-09
9.01157e-09
1.82968e-08
6.38048e-08
1.95203e-07
2.8382e-07
1.62692e-06
2.95257e-06
9.0432e-06
1.84485e-05
4.13979e-05
8.36285e-05
0.000145145
0.000243898
0.000358462
0.000498676
0.000630988
0.000772177
0.00089584
0.00102492
0.00113027
0.00124273
0.00133603
0.0014384
0.00152142
0.00161611
0.00169167
0.00177789
0.0018439
0.0019207
0.0019781
0.00204685
0.00209688
0.00215844
0.00220178
0.00225689
0.00229442
0.0023436
0.00237607
0.00242002
0.00244814
0.00248761
0.00251213
0.00254761
0.00256901
0.00260094
0.00261975
0.00264846
0.00266509
0.00269092
0.00270586
0.00272897
0.00274271
0.00276307
0.00277623
0.00279355
0.00280706
0.00282067
0.00283573
0.00284461
0.00286492
1e-15
1e-15
1e-15
1e-15
1e-15
1e-15
1e-15
2.47699e-15
8.33417e-15
1.48542e-14
1.48635e-15
2.81808e-14
6.43914e-13
1.8329e-15
7.14839e-14
6.16717e-13
8.64241e-13
1.30656e-11
2.56683e-11
1.33601e-10
3.81242e-10
6.9568e-10
1.09257e-09
4.78926e-08
8.80169e-09
2.27435e-08
1.4457e-08
3.33999e-07
5.39118e-07
2.08087e-06
3.98837e-06
1.0233e-05
2.116e-05
4.29542e-05
8.61918e-05
0.000140057
0.000231563
0.000328279
0.000454684
0.000571478
0.000699544
0.000808885
0.000927345
0.00102444
0.00112885
0.00121377
0.00130984
0.0013865
0.00147491
0.00154482
0.00162799
0.00169146
0.00176741
0.0018232
0.00189191
0.00194117
0.00200352
0.00204722
0.00210359
0.00214208
0.00219299
0.00222686
0.00227264
0.00230255
0.00234371
0.00237031
0.00240732
0.0024312
0.00246433
0.00248598
0.00251534
0.00253542
0.00256098
0.00258029
0.00260187
0.00262145
0.00263843
0.00265942
0.00267106
0.00269797
1e-15
1e-15
1e-15
1e-15
1e-15
1e-15
1.02034e-15
1.01073e-15
1.14085e-15
1.4976e-15
1.00623e-15
1e-15
1e-15
1e-15
1.82048e-14
1.5146e-13
1.43434e-14
2.61593e-13
7.12169e-13
3.17889e-12
1.97737e-11
3.38842e-11
6.19335e-11
2.9429e-12
1.743e-10
3.06344e-10
3.55762e-09
1.76279e-09
1.62936e-08
5.36872e-08
7.68237e-08
3.74237e-07
6.33426e-07
2.06035e-06
4.11169e-06
9.72477e-06
2.01313e-05
3.88336e-05
7.59296e-05
0.000119267
0.000197628
0.000277886
0.000386673
0.000490263
0.000607563
0.000706597
0.000816023
0.000905132
0.00100516
0.0010836
0.00117424
0.00124545
0.00133015
0.00139453
0.00147373
0.00153364
0.00160835
0.00166319
0.00173165
0.00178071
0.00184315
0.0018873
0.00194427
0.00198428
0.00203589
0.00207214
0.00211861
0.0021517
0.00219315
0.00222364
0.00226017
0.00228886
0.00232044
0.00234821
0.00237474
0.00240251
0.00242357
0.00245224
0.00246745
0.00250284
1.01417e-15
1e-15
1e-15
1e-15
1e-15
1e-15
1.01118e-15
1e-15
1e-15
1e-15
1e-15
1e-15
1e-15
1e-15
1e-15
1e-15
1e-15
5.5322e-15
1.82161e-14
8.91499e-14
4.24432e-13
1.23417e-12
2.37464e-12
3.57694e-14
2.7697e-13
1.94512e-11
1.28577e-11
4.34314e-10
3.86233e-10
1.23202e-09
2.05355e-09
7.37518e-09
6.21853e-09
6.24044e-08
9.12778e-08
2.95726e-07
6.28754e-07
1.21878e-06
3.68942e-06
6.79324e-06
1.6229e-05
2.79007e-05
5.88418e-05
8.93158e-05
0.000152761
0.000214161
0.000306606
0.000391996
0.000500001
0.000590778
0.000694211
0.000776506
0.000871315
0.000945987
0.00103279
0.00109968
0.00118012
0.00124193
0.00131725
0.00137392
0.00144464
0.00149844
0.00156513
0.0016155
0.00167646
0.00172295
0.00177808
0.00182151
0.00187108
0.00191226
0.00195614
0.00199557
0.00203349
0.0020719
0.00210378
0.00214178
0.00216753
0.0022058
0.00222542
0.00227138
1e-15
1e-15
1e-15
1e-15
1e-15
1e-15
1.01365e-15
1e-15
1e-15
1e-15
1e-15
1e-15
1e-15
1e-15
1e-15
1e-15
1e-15
1e-15
1.2492e-15
4.27091e-15
1.06309e-14
6.61614e-14
1.01327e-13
3.29078e-15
1.94659e-14
3.28206e-13
2.32462e-13
4.20003e-15
9.40942e-11
2.60749e-11
8.96465e-11
2.3361e-10
2.31141e-10
1.09473e-09
5.11821e-10
9.81992e-09
1.88516e-08
2.4085e-08
1.08642e-07
1.66196e-07
5.56721e-07
9.19206e-07
2.62161e-06
4.50866e-06
1.07572e-05
1.84889e-05
3.85899e-05
5.86581e-05
0.000105378
0.000147842
0.000221861
0.000289919
0.000381832
0.000463568
0.000560883
0.000639928
0.000730114
0.000801259
0.00088398
0.000949793
0.00102568
0.0010864
0.00115654
0.00121408
0.00127902
0.00133362
0.00139344
0.00144683
0.00150231
0.00155467
0.00160422
0.00165505
0.00169805
0.00174788
0.00178456
0.00183401
0.00186462
0.00191383
0.00193843