/*--------------------------------*- C++ -*----------------------------------*\
| =========                 |                                                 |
| \\      /  F ield         | OpenFOAM: The Open Source CFD Toolbox           |
|  \\    /   O peration     | Version:  v1912                                 |
|   \\  /    A nd           | Website:  www.openfoam.com                      |
|    \\/     M anipulation  |                                                 |
\*---------------------------------------------------------------------------*/
FoamFile
{
    version     2.0;
    format      ascii;
    class       volScalarField;
    location    "600";
    object      p;
}
// * * * * * * * * * * * * * * * * * * * * * * * * * * * * * * * * * * * * * //

dimensions      [0 2 -2 0 0 0 0];


internalField   nonuniform List<scalar> 
10000
(
0.0014181
0.00264026
0.00236682
0.00222331
0.00221508
0.00225282
0.00226391
0.00230241
0.00232209
0.00238121
0.00241452
0.0024981
0.00254779
0.00267076
0.00274735
0.00294514
0.00307696
0.00346936
0.00377538
0.00509722
0.00143404
0.0026239
0.00236456
0.0022227
0.00221473
0.00225267
0.00226376
0.00230239
0.00232197
0.00238126
0.00241437
0.00249822
0.00254757
0.00267099
0.00274699
0.00294555
0.00307631
0.00346987
0.0037751
0.00507485
0.00145516
0.00260176
0.00236363
0.00222293
0.00221501
0.00225272
0.00226399
0.00230234
0.0023222
0.00238109
0.00241465
0.00249793
0.00254796
0.0026705
0.00274759
0.00294469
0.00307736
0.00346778
0.00377811
0.00503009
0.00147776
0.00257978
0.00236329
0.0022234
0.00221489
0.00225281
0.00226378
0.00230246
0.00232193
0.00238127
0.00241431
0.00249819
0.00254753
0.00267086
0.00274702
0.0029451
0.00307665
0.00346755
0.00377735
0.00498211
0.00150123
0.00255726
0.00236257
0.00222333
0.00221486
0.00225255
0.00226391
0.00230224
0.00232213
0.00238102
0.00241456
0.00249788
0.0025478
0.00267047
0.00274729
0.00294461
0.00307679
0.00346636
0.00377561
0.00493517
0.00152532
0.00253437
0.00236132
0.00222365
0.00221469
0.00225267
0.0022638
0.00230238
0.00232199
0.00238113
0.00241439
0.00249794
0.00254765
0.00267041
0.0027472
0.00294421
0.00307692
0.00346432
0.00377417
0.00488702
0.00155015
0.00251088
0.00236002
0.00222385
0.0022147
0.00225249
0.00226385
0.00230223
0.00232203
0.00238097
0.00241442
0.00249778
0.00254763
0.00267022
0.00274712
0.00294379
0.00307686
0.00346198
0.00377238
0.00483722
0.00157558
0.00248716
0.00235826
0.00222423
0.00221452
0.00225244
0.00226378
0.00230222
0.00232199
0.00238092
0.00241438
0.00249765
0.00254761
0.00266995
0.0027471
0.00294318
0.00307682
0.00345916
0.00376998
0.00478617
0.00160167
0.00246305
0.00235622
0.00222456
0.00221442
0.0022523
0.00226377
0.00230214
0.00232196
0.00238081
0.00241433
0.00249748
0.00254755
0.00266964
0.00274703
0.00294241
0.00307678
0.00345569
0.00376702
0.00473398
0.00162819
0.00243884
0.00235379
0.002225
0.00221426
0.00225215
0.00226373
0.00230205
0.00232193
0.00238068
0.00241429
0.00249727
0.00254749
0.00266927
0.00274694
0.00294151
0.00307669
0.0034516
0.00376348
0.00468068
0.00165516
0.00241452
0.00235099
0.00222547
0.00221409
0.00225197
0.00226368
0.00230195
0.00232188
0.00238052
0.00241423
0.00249702
0.00254741
0.0026688
0.00274684
0.00294042
0.00307654
0.00344682
0.00375924
0.00462632
0.00168252
0.00239019
0.00234776
0.00222598
0.00221391
0.00225175
0.00226362
0.00230182
0.00232183
0.00238033
0.00241416
0.00249672
0.00254732
0.00266826
0.00274671
0.00293912
0.00307631
0.00344132
0.00375422
0.00457099
0.0017102
0.00236594
0.00234409
0.00222653
0.00221371
0.0022515
0.00226355
0.00230167
0.00232177
0.00238011
0.00241408
0.00249636
0.00254721
0.00266761
0.00274655
0.0029376
0.003076
0.00343503
0.00374835
0.00451478
0.00173808
0.00234189
0.00233998
0.00222711
0.00221349
0.0022512
0.00226346
0.00230149
0.00232169
0.00237984
0.00241398
0.00249595
0.00254707
0.00266686
0.00274636
0.00293582
0.00307557
0.00342792
0.00374154
0.00445778
0.00176604
0.00231819
0.00233541
0.00222771
0.00221326
0.00225086
0.00226336
0.00230128
0.0023216
0.00237953
0.00241386
0.00249546
0.00254692
0.00266597
0.00274612
0.00293377
0.00307499
0.00341994
0.00373369
0.0044001
0.00179398
0.00229494
0.00233038
0.00222832
0.00221301
0.00225046
0.00226323
0.00230103
0.0023215
0.00237917
0.00241372
0.00249489
0.00254673
0.00266495
0.00274583
0.00293141
0.00307422
0.00341105
0.00372469
0.00434185
0.0018218
0.00227226
0.00232488
0.00222891
0.00221276
0.00225001
0.00226309
0.00230074
0.00232137
0.00237876
0.00241356
0.00249424
0.00254651
0.00266377
0.00274548
0.00292871
0.00307324
0.0034012
0.00371446
0.00428314
0.00184935
0.00225028
0.00231893
0.00222948
0.0022125
0.00224949
0.00226291
0.0023004
0.00232123
0.00237828
0.00241337
0.00249349
0.00254624
0.00266242
0.00274504
0.00292565
0.00307199
0.00339037
0.00370287
0.00422408
0.0018765
0.00222916
0.00231253
0.00223
0.00221223
0.00224891
0.00226271
0.00230001
0.00232106
0.00237772
0.00241315
0.00249262
0.00254593
0.00266088
0.00274452
0.00292218
0.00307041
0.00337851
0.00368982
0.00416479
0.00190304
0.00220906
0.00230572
0.00223044
0.00221196
0.00224825
0.00226247
0.00229956
0.00232086
0.00237709
0.00241289
0.00249164
0.00254557
0.00265912
0.00274388
0.00291829
0.00306846
0.00336562
0.00367522
0.00410539
0.00192873
0.00219023
0.00229853
0.0022308
0.00221169
0.00224752
0.0022622
0.00229905
0.00232063
0.00237637
0.00241258
0.00249052
0.00254513
0.00265714
0.0027431
0.00291393
0.00306607
0.00335165
0.00365895
0.00404599
0.00195315
0.00217301
0.00229097
0.00223101
0.00221144
0.00224671
0.00226188
0.00229846
0.00232037
0.00237555
0.00241224
0.00248925
0.00254462
0.0026549
0.00274216
0.00290908
0.00306315
0.00333661
0.0036409
0.0039867
0.00197575
0.00215814
0.00228309
0.00223102
0.00221116
0.00224581
0.0022615
0.00229779
0.00232005
0.00237461
0.00241182
0.00248781
0.00254401
0.00265238
0.00274103
0.00290369
0.00305965
0.00332048
0.00362101
0.0039276
0.00199493
0.0021467
0.00227516
0.00223086
0.0022109
0.00224481
0.00226108
0.00229703
0.0023197
0.00237356
0.00241135
0.0024862
0.0025433
0.00264957
0.00273967
0.00289775
0.00305546
0.00330324
0.00359917
0.0038688
0.00201039
0.00213894
0.00226729
0.00223052
0.00221066
0.00224374
0.00226059
0.00229617
0.00231928
0.00237237
0.00241079
0.00248439
0.00254246
0.00264644
0.00273803
0.00289122
0.00305049
0.00328494
0.0035753
0.00381041
0.00202341
0.00213386
0.00225932
0.00222988
0.0022104
0.00224254
0.00226001
0.00229518
0.0023188
0.00237103
0.00241014
0.00248236
0.00254146
0.00264296
0.00273607
0.00288407
0.00304464
0.00326556
0.00354933
0.00375251
0.00203519
0.00213025
0.00225123
0.00222893
0.00221012
0.00224125
0.00225937
0.00229408
0.00231824
0.00236953
0.00240938
0.0024801
0.00254028
0.00263911
0.00273373
0.00287628
0.00303781
0.00324513
0.00352124
0.00369514
0.00204617
0.0021275
0.00224312
0.00222769
0.00220983
0.00223985
0.00225862
0.00229284
0.0023176
0.00236786
0.0024085
0.00247759
0.00253889
0.00263487
0.00273096
0.00286782
0.00302989
0.00322364
0.003491
0.0036383
0.00205644
0.00212544
0.00223512
0.00222615
0.0022095
0.00223832
0.00225778
0.00229145
0.00231685
0.00236599
0.00240746
0.0024748
0.00253725
0.00263021
0.00272768
0.00285867
0.00302079
0.00320114
0.00345861
0.00358202
0.00206598
0.00212401
0.00222727
0.00222428
0.0022091
0.00223668
0.00225681
0.00228988
0.00231598
0.00236391
0.00240626
0.00247172
0.00253532
0.00262511
0.00272383
0.0028488
0.00301038
0.00317762
0.00342411
0.0035263
0.0020748
0.00212314
0.00221963
0.00222206
0.00220863
0.00223491
0.00225572
0.00228814
0.00231497
0.00236161
0.00240485
0.00246833
0.00253305
0.00261954
0.00271932
0.00283818
0.00299859
0.0031531
0.00338755
0.00347111
0.00208285
0.00212278
0.00221225
0.00221951
0.00220806
0.00223299
0.00225449
0.0022862
0.00231381
0.00235906
0.00240321
0.0024646
0.0025304
0.00261348
0.00271408
0.00282681
0.0029853
0.00312761
0.00334901
0.00341643
0.00209016
0.00212285
0.00220518
0.00221662
0.00220737
0.00223094
0.00225309
0.00228404
0.00231245
0.00235625
0.0024013
0.00246052
0.00252731
0.0026069
0.002708
0.00281465
0.00297044
0.00310115
0.00330861
0.0033622
0.00209669
0.00212325
0.00219844
0.0022134
0.00220652
0.00222872
0.00225151
0.00228165
0.00231089
0.00235316
0.00239908
0.00245606
0.00252371
0.00259978
0.00270103
0.00280168
0.00295394
0.00307373
0.00326647
0.00330837
0.00210248
0.0021239
0.00219207
0.00220986
0.00220548
0.00222634
0.00224974
0.00227901
0.00230907
0.00234976
0.0023965
0.0024512
0.00251954
0.0025921
0.00269304
0.00278787
0.00293575
0.00304534
0.00322276
0.00325489
0.0021075
0.00212471
0.00218608
0.00220601
0.00220422
0.00222378
0.00224774
0.00227609
0.00230698
0.00234605
0.00239352
0.00244592
0.00251473
0.00258381
0.00268398
0.00277319
0.00291583
0.00301597
0.00317766
0.00320167
0.00211181
0.00212558
0.00218047
0.00220188
0.00220271
0.00222101
0.00224549
0.00227289
0.00230456
0.00234199
0.00239008
0.00244018
0.00250921
0.0025749
0.00267374
0.00275761
0.00289418
0.00298562
0.00313137
0.00314868
0.00211537
0.0021264
0.00217523
0.00219748
0.00220091
0.00221803
0.00224296
0.00226937
0.00230177
0.00233757
0.00238612
0.00243397
0.00250289
0.00256532
0.00266227
0.00274108
0.00287079
0.00295426
0.0030841
0.00309585
0.00211825
0.00212709
0.00217034
0.00219284
0.00219879
0.00221482
0.00224012
0.00226553
0.00229856
0.00233275
0.00238158
0.00242724
0.00249572
0.00255503
0.0026495
0.00272355
0.00284572
0.00292189
0.00303605
0.00304316
0.0021204
0.00212756
0.00216575
0.00218797
0.0021963
0.00221133
0.00223694
0.00226132
0.00229489
0.00232752
0.0023764
0.00241996
0.00248761
0.00254398
0.00263538
0.00270498
0.00281902
0.00288846
0.00298743
0.00299059
0.0021219
0.00212772
0.0021614
0.00218291
0.00219341
0.00220756
0.00223337
0.00225674
0.00229069
0.00232182
0.00237051
0.0024121
0.00247851
0.00253212
0.00261987
0.0026853
0.00279075
0.00285399
0.00293844
0.00293815
0.00212269
0.00212749
0.00215722
0.00217765
0.00219009
0.00220346
0.00222937
0.00225174
0.00228591
0.00231565
0.00236386
0.0024036
0.00246835
0.00251939
0.00260296
0.00266447
0.00276102
0.00281845
0.00288926
0.00288585
0.00212284
0.00212682
0.00215313
0.00217221
0.00218631
0.00219902
0.00222489
0.00224631
0.0022805
0.00230893
0.00235637
0.00239441
0.00245707
0.00250572
0.00258462
0.00264242
0.00272992
0.00278188
0.00284006
0.00283374
0.00212228
0.00212563
0.00214903
0.00216658
0.00218202
0.00219417
0.00221989
0.00224041
0.00227439
0.00230165
0.002348
0.00238447
0.00244464
0.00249105
0.00256489
0.00261912
0.00269758
0.00274428
0.00279095
0.00278188
0.00212106
0.00212389
0.00214481
0.00216076
0.00217719
0.0021889
0.00221432
0.00223399
0.00226752
0.00229372
0.00233867
0.0023737
0.00243102
0.00247528
0.00254377
0.00259451
0.0026641
0.00270571
0.00274206
0.00273035
0.00211912
0.00212154
0.00214038
0.00215471
0.00217179
0.00218315
0.00220811
0.00222701
0.00225985
0.00228511
0.00232836
0.00236205
0.00241619
0.00245836
0.0025213
0.00256857
0.00262959
0.00266623
0.00269346
0.00267922
0.00211648
0.00211855
0.00213562
0.00214839
0.00216579
0.00217688
0.00220122
0.00221943
0.00225132
0.00227573
0.00231701
0.00234941
0.00240011
0.00244021
0.00249752
0.00254127
0.00259417
0.00262592
0.00264521
0.00262857
0.00211305
0.00211487
0.00213043
0.00214176
0.00215913
0.00217003
0.00219359
0.00221118
0.00224188
0.00226551
0.00230459
0.00233574
0.00238281
0.00242078
0.00247247
0.00251265
0.00255793
0.00258488
0.00259734
0.00257847
0.00210886
0.00211047
0.0021247
0.00213475
0.0021518
0.00216254
0.00218517
0.0022022
0.00223149
0.00225438
0.00229105
0.00232092
0.00236425
0.0024
0.00244619
0.00248272
0.00252095
0.00254322
0.00254987
0.00252899
0.00210381
0.00210529
0.00211833
0.00212728
0.00214374
0.00215434
0.0021759
0.0021924
0.00222011
0.00224226
0.00227639
0.00230491
0.00234445
0.00237786
0.00241874
0.00245152
0.00248331
0.00250104
0.00250279
0.00248016
0.00209791
0.00209931
0.00211124
0.00211925
0.0021349
0.00214538
0.00216573
0.00218173
0.00220768
0.00222905
0.00226055
0.00228763
0.0023234
0.00235433
0.00239015
0.00241912
0.00244508
0.00245848
0.00245612
0.00243203
0.00209104
0.00209245
0.00210333
0.00211057
0.00212524
0.00213556
0.00215461
0.00217008
0.00219418
0.0022147
0.00224353
0.00226903
0.00230111
0.00232942
0.00236046
0.00238561
0.00240631
0.00241563
0.00240985
0.00238459
0.00208322
0.00208466
0.00209453
0.00210114
0.00211471
0.00212482
0.00214249
0.00215738
0.00217957
0.00219911
0.00222528
0.00224906
0.00227758
0.00230314
0.00232971
0.00235107
0.00236705
0.00237259
0.00236397
0.00233785
0.00207432
0.00207586
0.00208475
0.00209084
0.00210323
0.00211306
0.00212931
0.00214356
0.0021638
0.00218225
0.0022058
0.00222771
0.00225281
0.00227552
0.00229795
0.00231559
0.00232736
0.00232945
0.00231847
0.00229177
0.00206434
0.00206599
0.00207393
0.00207957
0.00209074
0.00210022
0.00211502
0.00212852
0.00214683
0.00216404
0.00218505
0.00220496
0.0022268
0.00224661
0.00226519
0.00227926
0.00228728
0.00228627
0.00227334
0.00224632
0.00205315
0.00205495
0.00206198
0.00206721
0.00207717
0.0020862
0.00209955
0.00211221
0.00212861
0.00214445
0.00216301
0.0021808
0.00219957
0.00221647
0.0022315
0.00224218
0.00224686
0.00224311
0.00222859
0.00220146
0.00204074
0.00204267
0.00204884
0.00205367
0.00206245
0.00207092
0.00208286
0.00209455
0.0021091
0.00212345
0.00213965
0.00215526
0.00217111
0.00218515
0.00219691
0.00220443
0.00220614
0.00220001
0.00218419
0.00215715
0.00202699
0.00202905
0.00203443
0.00203884
0.0020465
0.00205431
0.00206487
0.0020755
0.00208826
0.00210101
0.00211495
0.00212835
0.00214145
0.00215272
0.00216147
0.00216608
0.00216517
0.00215699
0.00214014
0.00211333
0.00201187
0.00201402
0.00201867
0.00202263
0.00202923
0.0020363
0.00204552
0.002055
0.00206603
0.00207713
0.0020889
0.00210009
0.00211062
0.00211924
0.00212523
0.0021272
0.00212398
0.00211406
0.00209641
0.00206995
0.00199527
0.0019975
0.00200149
0.00200496
0.00201055
0.00201683
0.00202475
0.00203301
0.00204237
0.00205179
0.0020615
0.00207053
0.00207863
0.00208476
0.00208824
0.00208783
0.00208259
0.00207123
0.00205299
0.00202696
0.00197713
0.0019794
0.0019828
0.00198575
0.00199041
0.00199582
0.0020025
0.00200951
0.00201727
0.00202501
0.00203274
0.00203968
0.00204552
0.00204935
0.00205054
0.00204803
0.00204105
0.0020285
0.00200983
0.00198432
0.00195737
0.00195966
0.00196252
0.00196494
0.00196871
0.00197324
0.00197872
0.00198447
0.00199068
0.00199677
0.00200263
0.0020076
0.00201134
0.00201304
0.00201219
0.00200782
0.00199935
0.00198585
0.00196691
0.00194196
0.00193593
0.00193821
0.00194059
0.00194245
0.00194539
0.00194902
0.00195336
0.00195785
0.0019626
0.00196709
0.00197119
0.0019743
0.00197611
0.00197589
0.00197321
0.00196724
0.00195751
0.00194326
0.00192419
0.00189985
0.00191274
0.00191499
0.00191693
0.00191824
0.0019204
0.00192315
0.00192638
0.00192966
0.00193301
0.00193598
0.00193844
0.00193982
0.00193987
0.00193793
0.00193365
0.0019263
0.00191553
0.0019007
0.00188162
0.00185791
0.00188775
0.00188996
0.0018915
0.00189226
0.00189368
0.00189557
0.00189776
0.00189988
0.00190191
0.00190346
0.00190439
0.00190421
0.00190267
0.00189921
0.00189352
0.00188502
0.0018734
0.00185816
0.00183917
0.00181612
0.0018609
0.00186307
0.00186424
0.00186447
0.0018652
0.00186628
0.00186749
0.00186851
0.00186931
0.00186955
0.00186909
0.00186748
0.00186453
0.00185974
0.00185286
0.00184339
0.00183111
0.0018156
0.00179677
0.0017744
0.00183216
0.00183429
0.00183512
0.00183485
0.00183493
0.00183524
0.00183555
0.00183555
0.00183522
0.00183427
0.00183254
0.00182968
0.00182548
0.00181955
0.00181166
0.00180141
0.00178863
0.00177298
0.0017544
0.00173272
0.00180151
0.00180359
0.00180411
0.00180339
0.00180287
0.00180247
0.00180194
0.00180101
0.00179966
0.00179763
0.00179479
0.00179082
0.00178555
0.00177865
0.00176994
0.00175908
0.00174594
0.00173025
0.00171199
0.001691
0.00176894
0.00177098
0.00177122
0.00177006
0.001769
0.00176797
0.00176668
0.00176491
0.00176265
0.00175967
0.00175586
0.00175094
0.00174476
0.00173707
0.00172769
0.00171637
0.001703
0.00168739
0.00166949
0.00164921
0.00173444
0.00173644
0.00173643
0.0017349
0.00173335
0.00173174
0.00172978
0.00172728
0.00172422
0.00172042
0.00171577
0.00171005
0.00170313
0.00169479
0.00168491
0.00167327
0.0016598
0.00164433
0.00162685
0.00160729
0.00169805
0.00170001
0.00169977
0.0016979
0.00169593
0.00169382
0.00169128
0.00168814
0.00168439
0.0016799
0.00167456
0.00166818
0.00166067
0.00165183
0.00164159
0.00162976
0.00161628
0.00160104
0.00158402
0.00156517
0.00165977
0.0016617
0.00166128
0.00165912
0.00165678
0.00165424
0.0016512
0.00164753
0.00164321
0.00163815
0.00163224
0.00162535
0.00161738
0.00160819
0.00159771
0.0015858
0.00157241
0.00155746
0.00154094
0.00152282
0.00161968
0.00162158
0.00162099
0.00161859
0.00161594
0.00161305
0.0016096
0.00160549
0.00160071
0.0015952
0.00158885
0.00158157
0.00157328
0.00156386
0.00155325
0.00154137
0.00152816
0.00151356
0.00149757
0.00148018
0.00157781
0.00157969
0.00157897
0.00157637
0.00157348
0.0015703
0.00156652
0.00156207
0.00155694
0.00155108
0.00154442
0.00153687
0.00152837
0.00151883
0.00150821
0.00149644
0.00148347
0.00146928
0.00145386
0.00143719
0.00153425
0.0015361
0.00153528
0.00153253
0.00152945
0.00152605
0.00152203
0.00151732
0.00151194
0.00150584
0.00149897
0.00149126
0.00148265
0.0014731
0.00146256
0.00145098
0.00143833
0.00142458
0.00140975
0.00139381
0.00148906
0.0014909
0.00149
0.00148714
0.00148392
0.00148036
0.00147618
0.0014713
0.00146575
0.00145951
0.00145252
0.00144475
0.00143615
0.00142667
0.00141629
0.00140496
0.00139268
0.00137943
0.0013652
0.00135
0.00144234
0.00144416
0.00144321
0.00144028
0.00143697
0.00143332
0.00142903
0.00142405
0.00141842
0.00141212
0.00140512
0.00139737
0.00138885
0.00137952
0.00136937
0.00135837
0.00134651
0.00133377
0.00132017
0.0013057
0.00139417
0.00139598
0.00139499
0.00139203
0.00138868
0.00138499
0.00138066
0.00137565
0.00137001
0.00136373
0.00135678
0.00134913
0.00134077
0.00133166
0.0013218
0.00131117
0.00129977
0.00128758
0.00127461
0.00126088
0.00134465
0.00134644
0.00134545
0.00134248
0.00133913
0.00133544
0.00133113
0.00132615
0.00132057
0.00131437
0.00130754
0.00130006
0.00129191
0.00128309
0.00127357
0.00126336
0.00125244
0.00124082
0.0012285
0.0012155
0.00129387
0.00129565
0.00129466
0.00129172
0.00128841
0.00128476
0.00128051
0.00127561
0.00127014
0.00126408
0.00125743
0.00125017
0.0012423
0.00123379
0.00122466
0.0012149
0.0012045
0.00119346
0.0011818
0.00116953
0.00124193
0.00124369
0.00124273
0.00123984
0.00123658
0.00123302
0.00122886
0.0012241
0.00121877
0.00121291
0.00120648
0.00119949
0.00119193
0.00118379
0.00117508
0.00116579
0.00115592
0.00114548
0.00113448
0.00112292
0.00118892
0.00119066
0.00118973
0.00118691
0.00118374
0.00118028
0.00117626
0.00117166
0.00116653
0.00116088
0.00115472
0.00114803
0.00114082
0.00113308
0.00112481
0.00111601
0.00110669
0.00109686
0.00108651
0.00107567
0.00113492
0.00113663
0.00113574
0.00113301
0.00112996
0.00112663
0.00112276
0.00111835
0.00111344
0.00110805
0.00110218
0.00109583
0.00108898
0.00108166
0.00107385
0.00106556
0.0010568
0.00104757
0.00103788
0.00102774
0.00108001
0.00108169
0.00108085
0.00107822
0.00107529
0.00107211
0.00106842
0.00106422
0.00105956
0.00105445
0.00104889
0.00104289
0.00103644
0.00102954
0.00102221
0.00101444
0.00100623
0.000997608
0.000988564
0.000979113
0.00102425
0.0010259
0.00102511
0.0010226
0.0010198
0.00101678
0.00101329
0.00100932
0.00100491
0.0010001
0.000994872
0.000989232
0.000983183
0.000976729
0.000969874
0.000962622
0.000954979
0.00094695
0.000938544
0.000929768
0.000967703
0.000969309
0.000968578
0.000966188
0.000963542
0.000960693
0.000957408
0.00095367
0.000949537
0.000945029
0.000940141
0.000934874
0.000929234
0.000923225
0.00091685
0.000910115
0.000903024
0.000895585
0.000887804
0.000879688
0.0009104
0.000911961
0.000911289
0.00090903
0.000906539
0.00090387
0.000900797
0.000897305
0.000893451
0.000889253
0.000884708
0.000879819
0.000874589
0.000869024
0.000863127
0.000856903
0.000850358
0.000843496
0.000836325
0.000828852
0.00085239
0.00085389
0.000853273
0.00085115
0.000848819
0.000846333
0.000843477
0.000840235
0.000836663
0.000832778
0.000828579
0.000824066
0.000819244
0.000814119
0.000808694
0.000802973
0.000796961
0.000790665
0.000784089
0.00077724
0.000793641
0.000795086
0.000794529
0.00079255
0.000790384
0.000788084
0.000785446
0.000782457
0.000779167
0.000775595
0.000771739
0.000767599
0.000763182
0.00075849
0.000753528
0.0007483
0.00074281
0.000737063
0.000731065
0.000724821
0.000734204
0.000735567
0.00073506
0.000733223
0.000731223
0.000729111
0.000726692
0.000723955
0.000720947
0.000717685
0.000714168
0.000710397
0.000706376
0.000702109
0.0006976
0.000692853
0.000687871
0.000682659
0.000677221
0.000671563
0.000673954
0.000675251
0.000674807
0.000673124
0.000671296
0.000669372
0.000667173
0.000664686
0.000661958
0.000659003
0.00065582
0.000652412
0.00064878
0.000644929
0.000640863
0.000636584
0.000632096
0.000627403
0.000622508
0.000617417
0.000612963
0.000614154
0.000613751
0.000612214
0.000610554
0.000608817
0.000606835
0.000604598
0.000602145
0.000599493
0.000596639
0.000593585
0.000590333
0.000586889
0.000583253
0.000579429
0.00057542
0.00057123
0.000566861
0.000562319
0.000550966
0.000552082
0.000551745
0.000550372
0.00054889
0.000547344
0.000545581
0.00054359
0.000541411
0.000539058
0.000536527
0.000533821
0.000530943
0.000527895
0.000524681
0.000521301
0.00051776
0.00051406
0.000510203
0.000506194
0.000488059
0.000489047
0.000488743
0.000487519
0.000486206
0.000484843
0.000483293
0.000481546
0.000479635
0.000477574
0.000475361
0.000472995
0.00047048
0.000467819
0.000465013
0.000462065
0.000458977
0.000455751
0.00045239
0.000448896
0.000423829
0.000424722
0.000424477
0.00042342
0.000422288
0.000421116
0.000419782
0.00041828
0.000416638
0.000414869
0.00041297
0.000410943
0.000408788
0.00040651
0.000404109
0.000401587
0.000398946
0.000396188
0.000393315
0.000390329
0.00035825
0.000359001
0.000358789
0.000357889
0.000356929
0.00035594
0.000354816
0.000353552
0.000352172
0.000350687
0.000349095
0.000347396
0.000345592
0.000343685
0.000341676
0.000339568
0.00033736
0.000335056
0.000332655
0.000330162
0.000290994
0.000291623
0.000291461
0.000290733
0.000289958
0.00028916
0.000288256
0.000287239
0.00028613
0.000284937
0.000283659
0.000282296
0.000280849
0.00027932
0.00027771
0.000276021
0.000274252
0.000272406
0.000270484
0.000268487
0.000221721
0.000222191
0.000222056
0.000221492
0.000220893
0.000220277
0.00021958
0.000218798
0.000217947
0.000217034
0.000216056
0.000215015
0.000213911
0.000212747
0.000211521
0.000210236
0.000208891
0.000207489
0.00020603
0.000204514
0.000150164
0.0001505
0.000150424
0.000150048
0.000149648
0.00014924
0.000148779
0.000148261
0.000147696
0.000147089
0.00014644
0.000145747
0.000145013
0.000144238
0.000143421
0.000142564
0.000141668
0.000140733
0.000139758
0.000138747
7.54164e-05
7.55568e-05
7.54871e-05
7.528e-05
7.50625e-05
7.48386e-05
7.45867e-05
7.4307e-05
7.40043e-05
7.36815e-05
7.33375e-05
7.29733e-05
7.25886e-05
7.21844e-05
7.17603e-05
7.13173e-05
7.08548e-05
7.0374e-05
6.98742e-05
6.93568e-05
0.00553909
0.00317593
0.00205286
0.00181478
0.00178861
0.00174044
0.00169828
0.00165935
0.00159838
0.00152572
0.00145182
0.00138412
0.00131629
0.00125446
0.00119723
0.00114612
0.00110025
0.00105548
0.00101369
0.000975172
0.000937325
0.000902134
0.000869989
0.000839169
0.000808045
0.000779385
0.000752134
0.000725169
0.000698737
0.000674676
0.000651521
0.000628192
0.000605084
0.000583484
0.000562515
0.00054193
0.000521504
0.000502378
0.000484042
0.000466261
0.000448017
0.000430584
0.000413489
0.000397246
0.00038078
0.000364688
0.000348908
0.000333749
0.000318788
0.000304319
0.000289626
0.000275432
0.000261282
0.000247857
0.000234677
0.000221836
0.000208932
0.00019652
0.000184201
0.000172526
0.000160775
0.000149324
0.000137907
0.000126744
0.000115634
0.000104935
9.4746e-05
8.46301e-05
7.48268e-05
6.49134e-05
5.5881e-05
4.63313e-05
3.81079e-05
2.89784e-05
2.19364e-05
1.28767e-05
7.22519e-06
-1.64204e-06
-4.17367e-06
-1.16084e-05
0.00551642
0.00319555
0.00208167
0.00184191
0.00180872
0.00175496
0.00170857
0.00166717
0.00160457
0.00153089
0.00145643
0.00138834
0.0013202
0.00125808
0.00120058
0.00114923
0.00110314
0.00105818
0.00101621
0.000977534
0.000939546
0.00090422
0.000871954
0.000841021
0.0008098
0.000781051
0.00075372
0.000726677
0.000700176
0.00067605
0.000652833
0.000629445
0.000606287
0.00058464
0.000563628
0.000543
0.000522536
0.000503372
0.000485003
0.000467185
0.000448912
0.000431448
0.000414329
0.000398058
0.00038157
0.000365452
0.000349653
0.000334469
0.000319493
0.000305
0.000290294
0.000276078
0.000261917
0.000248471
0.000235282
0.000222421
0.000209509
0.000197078
0.000184751
0.000173058
0.000161302
0.000149834
0.000138412
0.000127233
0.00011612
0.000105404
9.5213e-05
8.50805e-05
7.52758e-05
6.53467e-05
5.63136e-05
4.67487e-05
3.85256e-05
2.93822e-05
2.23398e-05
1.32667e-05
7.6158e-06
-1.26308e-06
-3.81007e-06
-1.12331e-05
0.00546537
0.0032035
0.00210275
0.00186434
0.00182944
0.00177299
0.00172276
0.0016776
0.00161273
0.00153781
0.00146263
0.00139397
0.00132541
0.00126293
0.00120509
0.00115344
0.00110708
0.00106186
0.00101966
0.000980776
0.000942606
0.000907103
0.000874681
0.000843595
0.000812244
0.000783377
0.000755937
0.00072879
0.000702196
0.000677981
0.000654679
0.000631211
0.000607984
0.000586272
0.000565201
0.000544512
0.000523997
0.00050478
0.000486364
0.000468497
0.000450182
0.000432675
0.000415521
0.000399212
0.000382694
0.000366539
0.000350713
0.000335495
0.000320496
0.000305972
0.000291244
0.000277
0.000262822
0.000249349
0.000236145
0.000223256
0.000210331
0.000197874
0.000185537
0.000173819
0.000162054
0.000150562
0.000139134
0.00012793
0.000116813
0.000106075
9.58806e-05
8.5725e-05
7.59177e-05
6.59667e-05
5.6932e-05
4.73453e-05
3.91229e-05
2.99594e-05
2.29168e-05
1.38241e-05
8.17421e-06
-7.21799e-07
-3.28941e-06
-1.06939e-05
0.00542031
0.00321242
0.0021133
0.00187102
0.00183602
0.00178269
0.00173356
0.00168551
0.00161967
0.00154387
0.00146774
0.00139846
0.00132964
0.00126697
0.00120896
0.00115712
0.00111053
0.00106511
0.00102273
0.000983683
0.000945372
0.000909719
0.000877181
0.000845967
0.000814503
0.000785535
0.000758002
0.000730764
0.000704088
0.000679795
0.00065642
0.00063288
0.000609588
0.00058782
0.000566695
0.000545952
0.000525389
0.000506124
0.000487665
0.000469753
0.000451398
0.000433854
0.000416666
0.000400321
0.000383774
0.000367587
0.000351735
0.000336486
0.000321463
0.000306913
0.000292162
0.000277893
0.000263696
0.000250201
0.00023698
0.000224068
0.000211128
0.000198649
0.000186297
0.000174558
0.000162784
0.000151272
0.000139833
0.000128609
0.000117487
0.00010673
9.65292e-05
8.63534e-05
7.65415e-05
6.65712e-05
5.75329e-05
4.79261e-05
3.97034e-05
3.05218e-05
2.34774e-05
1.43669e-05
8.71622e-06
-1.94427e-07
-2.78454e-06
-1.01866e-05
0.00537454
0.00321985
0.00212479
0.00187981
0.00183979
0.00178481
0.00173619
0.00169023
0.00162594
0.00154905
0.0014724
0.00140245
0.00133336
0.00127065
0.00121262
0.00116049
0.00111359
0.00106805
0.00102558
0.000986417
0.000948018
0.000912262
0.000879631
0.000848295
0.000816732
0.000787673
0.000760061
0.000732739
0.000705989
0.000681624
0.00065819
0.000634576
0.000611224
0.0005894
0.000568223
0.000547427
0.000526818
0.000507507
0.000489007
0.000471051
0.000452657
0.000435073
0.00041785
0.000401472
0.000384895
0.000368676
0.000352796
0.000337518
0.00032247
0.000307895
0.000293119
0.000278826
0.000264609
0.000251093
0.000237852
0.000224919
0.000211962
0.000199462
0.000187093
0.000175335
0.000163548
0.000152017
0.000140567
0.000129323
0.000118193
0.000107419
9.721e-05
8.70152e-05
7.71966e-05
6.72082e-05
5.81637e-05
4.85378e-05
4.03128e-05
3.11146e-05
2.4066e-05
1.49388e-05
9.28467e-06
3.62033e-07
-2.25747e-06
-9.67454e-06
0.00532562
0.00322666
0.00213742
0.00188924
0.00184516
0.00178801
0.00173621
0.00168984
0.00162707
0.00155267
0.0014773
0.00140628
0.00133713
0.00127438
0.00121614
0.00116361
0.00111653
0.00107096
0.00102837
0.000989153
0.000950733
0.000914891
0.000882091
0.000850608
0.000818976
0.000789859
0.00076219
0.000734799
0.000707994
0.000683565
0.00066007
0.00063638
0.000612972
0.00059109
0.000569867
0.000549015
0.000528363
0.000509003
0.000490467
0.000472462
0.000454029
0.000436402
0.000419144
0.000402728
0.000386121
0.000369868
0.00035396
0.000338651
0.000323577
0.000308975
0.000294172
0.000279853
0.000265615
0.000252077
0.000238815
0.000225858
0.000212882
0.000200361
0.000187973
0.000176195
0.000164393
0.000152843
0.000141378
0.000130115
0.000118975
0.000108183
9.79644e-05
8.77506e-05
7.79227e-05
6.79162e-05
5.88629e-05
4.92179e-05
4.09886e-05
3.17742e-05
2.47188e-05
1.5575e-05
9.91489e-06
9.81278e-07
-1.67474e-06
-9.11951e-06
0.00527464
0.00323371
0.0021506
0.00189896
0.00185097
0.00179112
0.00173763
0.00169026
0.00162629
0.00155251
0.00147809
0.00140878
0.00134113
0.00127796
0.00121911
0.00116662
0.00111956
0.00107381
0.00103103
0.000991834
0.000953432
0.000917465
0.000884474
0.000852887
0.000821231
0.000792076
0.00076436
0.000736913
0.000710077
0.000685566
0.000661957
0.000638205
0.000614757
0.000592833
0.000571579
0.000550679
0.000529993
0.000510586
0.000492012
0.000473957
0.000455488
0.000437816
0.000420526
0.000404069
0.000387435
0.000371147
0.000355214
0.000339871
0.000324774
0.00031014
0.000295312
0.000280963
0.000266704
0.000253143
0.00023986
0.000226877
0.000213883
0.000201338
0.000188931
0.00017713
0.000165314
0.000153743
0.000142261
0.000130977
0.000119828
0.000109019
9.87877e-05
8.85546e-05
7.87153e-05
6.86909e-05
5.9626e-05
4.99622e-05
4.17266e-05
3.24969e-05
2.5432e-05
1.62717e-05
1.06034e-05
1.6593e-06
-1.039e-06
-8.52359e-06
0.00522184
0.00324051
0.00216404
0.00190901
0.00185681
0.00179453
0.00173935
0.0016908
0.0016267
0.00155281
0.00147758
0.00140865
0.00134178
0.00127958
0.00122219
0.00117014
0.00112226
0.00107618
0.00103351
0.000994394
0.000955922
0.000919789
0.000886756
0.000855203
0.00082352
0.000794262
0.000766504
0.000739012
0.000712164
0.000687563
0.000663833
0.000640029
0.000616561
0.000594619
0.000573345
0.000552406
0.000531689
0.000512217
0.000493569
0.000475474
0.000456979
0.000439269
0.000421955
0.000405466
0.000388812