/*--------------------------------*- C++ -*----------------------------------*\
| =========                 |                                                 |
| \\      /  F ield         | OpenFOAM: The Open Source CFD Toolbox           |
|  \\    /   O peration     | Version:  v1912                                 |
|   \\  /    A nd           | Website:  www.openfoam.com                      |
|    \\/     M anipulation  |                                                 |
\*---------------------------------------------------------------------------*/
FoamFile
{
    version     2.0;
    format      ascii;
    class       surfaceScalarField;
    location    "600";
    object      phi;
}
// * * * * * * * * * * * * * * * * * * * * * * * * * * * * * * * * * * * * * //

dimensions      [0 3 -1 0 0 0 0];
oriented        oriented;


internalField   nonuniform List<scalar> 
19800
(
2.28521e-07
-1.3977e-08
2.2853e-07
-8.76181e-12
2.28672e-07
-1.42791e-10
2.28514e-07
1.57598e-10
2.28695e-07
-1.81198e-10
2.28515e-07
1.79799e-10
2.28697e-07
-1.8214e-10
2.28505e-07
1.92959e-10
2.28691e-07
-1.87106e-10
2.28485e-07
2.0639e-10
2.28676e-07
-1.91099e-10
2.28456e-07
2.20754e-10
2.28649e-07
-1.92728e-10
2.28412e-07
2.36461e-10
2.28599e-07
-1.87038e-10
2.28346e-07
2.53831e-10
2.28502e-07
-1.5709e-10
2.28239e-07
2.63552e-10
2.28175e-07
6.32599e-11
5.01174e-10
2.27674e-07
2.42204e-07
-1.70896e-08
2.42473e-07
-2.77982e-10
2.42305e-07
2.49189e-11
2.4244e-07
2.25579e-11
2.42293e-07
-3.48648e-11
2.42429e-07
4.32535e-11
2.42263e-07
-1.58195e-11
2.42411e-07
4.49512e-11
2.42227e-07
-3.08518e-12
2.42387e-07
4.57844e-11
2.42183e-07
1.34548e-11
2.42358e-07
4.63163e-11
2.42128e-07
3.74609e-11
2.42317e-07
4.73932e-11
2.4205e-07
7.96558e-11
2.42255e-07
4.94014e-11
2.41921e-07
1.76252e-10
2.4215e-07
3.43289e-11
2.41534e-07
6.78809e-10
4.19266e-10
2.41616e-07
2.55714e-07
-1.67758e-08
2.55917e-07
-4.80667e-10
2.55845e-07
9.64534e-11
2.55899e-07
-3.11992e-11
2.55859e-07
5.03908e-12
2.55899e-07
2.68484e-12
2.55852e-07
3.13297e-11
2.55887e-07
9.59962e-12
2.55837e-07
4.69553e-11
2.55867e-07
1.55048e-11
2.55813e-07
6.79829e-11
2.55837e-07
2.1947e-11
2.55775e-07
9.96282e-11
2.55793e-07
3.01271e-11
2.55714e-07
1.58242e-10
2.55723e-07
4.07085e-11
2.55599e-07
2.99533e-10
2.55603e-07
3.04279e-11
2.55232e-07
1.04979e-09
6.11121e-10
2.5504e-07
2.70137e-07
-1.60968e-08
2.70304e-07
-6.48064e-10
2.70269e-07
1.31597e-10
2.70286e-07
-4.81086e-11
2.70279e-07
1.09809e-11
2.70285e-07
-2.91286e-12
2.7027e-07
4.59025e-11
2.70272e-07
7.43601e-12
2.70252e-07
6.65448e-11
2.70251e-07
1.66358e-11
2.70225e-07
9.43494e-11
2.70221e-07
2.6302e-11
2.70184e-07
1.3692e-10
2.70176e-07
3.83407e-11
2.70118e-07
2.16543e-10
2.70105e-07
5.3826e-11
2.69995e-07
4.08886e-10
2.69979e-07
4.60106e-11
2.69618e-07
1.41067e-09
8.29594e-10
2.69399e-07
2.85463e-07
-1.54964e-08
2.85623e-07
-8.08114e-10
2.85594e-07
1.60598e-10
2.85604e-07
-5.81013e-11
2.85602e-07
1.33393e-11
2.85601e-07
-2.75849e-12
2.85589e-07
5.79243e-11
2.85586e-07
1.07885e-11
2.85568e-07
8.40046e-11
2.85563e-07
2.24039e-11
2.85537e-07
1.19705e-10
2.85529e-07
3.4926e-11
2.85491e-07
1.74384e-10
2.85479e-07
5.05118e-11
2.85419e-07
2.76601e-10
2.85402e-07
7.04389e-11
2.85288e-07
5.23737e-10
2.85266e-07
6.75011e-11
2.84899e-07
1.77734e-09
1.06434e-09
2.84664e-07
3.01666e-07
-1.49013e-08
3.01825e-07
-9.66854e-10
3.01797e-07
1.88735e-10
3.01807e-07
-6.82643e-11
3.01803e-07
1.71035e-11
3.01804e-07
-3.76652e-12
3.01789e-07
7.19442e-11
3.01787e-07
1.28055e-11
3.01767e-07
1.04374e-10
3.01762e-07
2.73017e-11
3.01734e-07
1.4833e-10
3.01726e-07
4.27024e-11
3.01685e-07
2.1586e-10
3.01673e-07
6.20031e-11
3.01608e-07
3.41999e-10
3.01591e-07
8.70632e-11
3.01469e-07
6.4614e-10
3.01444e-07
9.18367e-11
3.0107e-07
2.15104e-09
1.31037e-09
3.00824e-07
3.18789e-07
-1.4299e-08
3.18944e-07
-1.1222e-09
3.18918e-07
2.14662e-10
3.18927e-07
-7.74726e-11
3.18923e-07
2.12431e-11
3.18923e-07
-4.54644e-12
3.18909e-07
8.68002e-11
3.18906e-07
1.55251e-11
3.18885e-07
1.25348e-10
3.1888e-07
3.24959e-11
3.1885e-07
1.78266e-10
3.18842e-07
5.10098e-11
3.18798e-07
2.5943e-10
3.18786e-07
7.42921e-11
3.18717e-07
4.10656e-10
3.18699e-07
1.04748e-10
3.18571e-07
7.74841e-10
3.18541e-07
1.2163e-10
3.18163e-07
2.52812e-09
1.57003e-09
3.17904e-07
3.36883e-07
-1.36691e-08
3.37034e-07
-1.27319e-09
3.3701e-07
2.38109e-10
3.37018e-07
-8.58927e-11
3.37014e-07
2.57031e-11
3.37015e-07
-5.551e-12
3.36999e-07
1.02344e-10
3.36996e-07
1.79764e-11
3.36974e-07
1.47909e-10
3.36968e-07
3.81931e-11
3.36937e-07
2.09966e-10
3.36928e-07
5.99746e-11
3.36882e-07
3.05419e-10
3.36869e-07
8.75272e-11
3.36797e-07
4.83103e-10
3.36777e-07
1.24261e-10
3.36642e-07
9.09384e-10
3.36607e-07
1.56852e-10
3.36227e-07
2.90769e-09
1.84312e-09
3.35954e-07
3.56003e-07
-1.29832e-08
3.56148e-07
-1.41901e-09
3.56127e-07
2.59377e-10
3.56135e-07
-9.38825e-11
3.56129e-07
3.13896e-11
3.56131e-07
-7.03871e-12
3.56113e-07
1.19583e-10
3.56111e-07
2.04373e-11
3.56087e-07
1.71915e-10
3.56082e-07
4.33752e-11
3.56048e-07
2.43925e-10
3.56039e-07
6.86841e-11
3.5599e-07
3.54504e-10
3.55977e-07
1.00855e-10
3.559e-07
5.59817e-10
3.5588e-07
1.44318e-10
3.55738e-07
1.05121e-09
3.55697e-07
1.97805e-10
3.55316e-07
3.28918e-09
2.12935e-09
3.55029e-07
3.76209e-07
-1.22995e-08
3.76347e-07
-1.55774e-09
3.76329e-07
2.7711e-10
3.76336e-07
-1.00568e-10
3.7633e-07
3.70687e-11
3.76331e-07
-8.36291e-12
3.76313e-07
1.37091e-10
3.76311e-07
2.302e-11
3.76285e-07
1.97219e-10
3.76279e-07
4.95821e-11
3.76244e-07
2.79358e-10
3.76234e-07
7.85893e-11
3.76183e-07
4.05758e-10
3.76168e-07
1.15747e-10
3.76088e-07
6.4007e-10
3.76066e-07
1.67183e-10
3.75918e-07
1.19815e-09
3.7587e-07
2.46064e-10
3.75489e-07
3.66948e-09
2.43017e-09
3.75189e-07
3.97563e-07
-1.16219e-08
3.97693e-07
-1.68787e-09
3.97679e-07
2.9154e-10
3.97684e-07
-1.06038e-10
3.97678e-07
4.35368e-11
3.97679e-07
-9.44861e-12
3.9766e-07
1.55781e-10
3.97657e-07
2.64685e-11
3.9763e-07
2.23301e-10
3.97624e-07
5.60284e-11
3.97587e-07
3.16449e-10
3.97576e-07
8.90959e-11
3.97523e-07
4.59531e-10
3.97507e-07
1.31703e-10
3.97423e-07
7.24011e-10
3.97398e-07
1.9182e-10
3.97244e-07
1.35162e-09
3.97188e-07
3.02409e-10
3.96809e-07
4.04831e-09
2.745e-09
3.96494e-07
4.2013e-07
-1.09347e-08
4.2025e-07
-1.80836e-09
4.20239e-07
3.02391e-10
4.20243e-07
-1.10562e-10
4.20236e-07
5.06097e-11
4.20237e-07
-1.08692e-11
4.20218e-07
1.7528e-10
4.20215e-07
2.9484e-11
4.20186e-07
2.51442e-10
4.2018e-07
6.31136e-11
4.2014e-07
3.55782e-10
4.20129e-07
1.00422e-10
4.20073e-07
5.163e-10
4.20055e-07
1.48941e-10
4.19967e-07
8.12368e-10
4.1994e-07
2.19363e-10
4.19781e-07
1.51065e-09
4.19716e-07
3.66997e-10
4.1934e-07
4.42395e-09
3.07337e-09
4.19012e-07
4.43977e-07
-1.02337e-08
4.44086e-07
-1.91751e-09
4.44079e-07
3.09628e-10
4.44082e-07
-1.13949e-10
4.44074e-07
5.88169e-11
4.44075e-07
-1.2159e-11
4.44055e-07
1.96204e-10
4.44051e-07
3.33515e-11
4.44022e-07
2.80528e-10
4.44014e-07
7.03571e-11
4.43973e-07
3.97012e-10
4.43961e-07
1.1235e-10
4.43902e-07
5.75853e-10
4.43883e-07
1.67384e-10
4.43791e-07
9.04614e-10
4.43761e-07
2.49195e-10
4.43596e-07
1.67599e-09
4.43521e-07
4.41265e-10
4.4315e-07
4.79497e-09
3.41537e-09
4.42808e-07
4.69178e-07
-9.52459e-09
4.69275e-07
-2.01413e-09
4.69271e-07
3.12825e-10
4.69274e-07
-1.16306e-10
4.69265e-07
6.77477e-11
4.69266e-07
-1.3725e-11
4.69244e-07
2.17907e-10
4.6924e-07
3.68442e-11
4.69209e-07
3.11786e-10
4.69201e-07
7.84668e-11
4.69158e-07
4.40572e-10
4.69145e-07
1.25387e-10
4.69083e-07
6.38489e-10
4.69063e-07
1.87558e-10
4.68966e-07
1.00129e-09
4.68933e-07
2.82874e-10
4.68762e-07
1.84618e-09
4.68678e-07
5.25513e-10
4.68313e-07
5.15933e-09
3.77047e-09
4.67958e-07
4.9581e-07
-8.8182e-09
4.95892e-07
-2.09649e-09
4.95893e-07
3.12081e-10
4.95894e-07
-1.17454e-10
4.95884e-07
7.80138e-11
4.95885e-07
-1.50323e-11
4.95862e-07
2.41112e-10
4.95858e-07
4.14357e-11
4.95826e-07
3.43929e-10
4.95817e-07
8.68524e-11
4.95772e-07
4.86052e-10
4.95758e-07
1.39256e-10
4.95692e-07
7.03933e-10
4.9567e-07
2.0935e-10
4.9557e-07
1.10175e-09
4.95532e-07
3.19691e-10
4.95357e-07
2.02202e-09
4.95261e-07
6.21262e-10
4.94905e-07
5.51564e-09
4.13834e-09
4.94537e-07
5.23953e-07
-8.12305e-09
5.2402e-07
-2.16344e-09
5.24025e-07
3.0706e-10
5.24025e-07
-1.17564e-10
5.24014e-07
8.91495e-11
5.24015e-07
-1.65487e-11
5.23991e-07
2.65068e-10
5.23986e-07
4.56908e-11
5.23952e-07
3.78407e-10
5.23943e-07
9.63716e-11
5.23895e-07
5.33978e-10
5.2388e-07
1.54578e-10
5.23811e-07
7.72559e-10
5.23787e-07
2.33421e-10
5.23683e-07
1.20661e-09
5.23641e-07
3.61501e-10
5.23461e-07
2.2018e-09
5.23354e-07
7.28741e-10
5.23007e-07
5.86199e-09
4.51786e-09
5.22627e-07
5.53694e-07
-7.43402e-09
5.53744e-07
-2.21339e-09
5.53753e-07
2.98096e-10
5.53752e-07
-1.16562e-10
5.53739e-07
1.01925e-10
5.5374e-07
-1.77613e-11
5.53715e-07
2.90674e-10
5.5371e-07
5.11813e-11
5.53674e-07
4.13843e-10
5.53664e-07
1.06249e-10
5.53614e-07
5.83951e-10
5.53597e-07
1.7094e-10
5.53526e-07
8.44095e-10
5.535e-07
2.59553e-10
5.53391e-07
1.31518e-09
5.53344e-07
4.07431e-10
5.5316e-07
2.38636e-09
5.5304e-07
8.49409e-10
5.52705e-07
6.19722e-09
4.90814e-09
5.52314e-07
5.85121e-07
-6.75137e-09
5.85153e-07
-2.24539e-09
5.85166e-07
2.8494e-10
5.85164e-07
-1.14652e-10
5.8515e-07
1.15817e-10
5.85151e-07
-1.91466e-11
5.85125e-07
3.17086e-10
5.85119e-07
5.6362e-11
5.85082e-07
4.51808e-10
5.85071e-07
1.17481e-10
5.85018e-07
6.3652e-10
5.85e-07
1.89089e-10
5.84926e-07
9.18909e-10
5.84897e-07
2.8856e-10
5.84784e-07
1.42801e-09
5.84732e-07
4.59601e-10
5.84545e-07
2.5737e-09
5.84411e-07
9.83427e-10
5.84088e-07
6.51932e-09
5.30764e-09
5.83689e-07
6.18332e-07
-6.06441e-09
6.18345e-07
-2.25809e-09
6.18362e-07
2.68088e-10
6.18359e-07
-1.11753e-10
6.18343e-07
1.31637e-10
6.18344e-07
-2.00969e-11
6.18316e-07
3.45259e-10
6.1831e-07
6.302e-11
6.18271e-07
4.90711e-10
6.18259e-07
1.29222e-10
6.18204e-07
6.91164e-10
6.18184e-07
2.08595e-10
6.18107e-07
9.96592e-10
6.18075e-07
3.20237e-10
6.17959e-07
1.54421e-09
6.179e-07
5.171e-10
6.1771e-07
2.76458e-09
6.17561e-07
1.13224e-09
6.17254e-07
6.82725e-09
5.71509e-09
6.16846e-07
6.53427e-07
-5.37136e-09
6.53419e-07
-2.25084e-09
6.5344e-07
2.47374e-10
6.53436e-07
-1.0807e-10
6.53419e-07
1.4873e-10
6.53419e-07
-2.10654e-11
6.5339e-07
3.74199e-10
6.53384e-07
6.94874e-11
6.53342e-07
5.32263e-10
6.53329e-07
1.42685e-10
6.53272e-07
7.48447e-10
6.5325e-07
2.30402e-10
6.5317e-07
1.0775e-09
6.53135e-07
3.55625e-10
6.53015e-07
1.66431e-09
6.5295e-07
5.82383e-10
6.52757e-07
2.95668e-09
6.52593e-07
1.29586e-09
6.52301e-07
7.11923e-09
6.12835e-09
6.51888e-07
6.90511e-07
-4.62416e-09
6.90483e-07
-2.22297e-09
6.90507e-07
2.23644e-10
6.90502e-07
-1.03652e-10
6.90483e-07
1.68046e-10
6.90484e-07
-2.14744e-11
6.90453e-07
4.05029e-10
6.90446e-07
7.76286e-11
6.90402e-07
5.74805e-10
6.90388e-07
1.56851e-10
6.90329e-07
8.0786e-10
6.90305e-07
2.53948e-10
6.90221e-07
1.16121e-09
6.90182e-07
3.94417e-10
6.90059e-07
1.78735e-09
6.89986e-07
6.54346e-10
6.89793e-07
3.15085e-09
6.89613e-07
1.47544e-09
6.89338e-07
7.39464e-09
6.5455e-09
6.88921e-07
7.29698e-07
-3.80825e-09
7.29649e-07
-2.17451e-09
7.29676e-07
1.96854e-10
7.2967e-07
-9.85575e-11
7.2965e-07
1.88661e-10
7.29649e-07
-2.15571e-11
7.29618e-07
4.36491e-10
7.29609e-07
8.58988e-11
7.29564e-07
6.19969e-10
7.29548e-07
1.7327e-10
7.29486e-07
8.69819e-10
7.2946e-07
2.80517e-10
7.29374e-07
1.24794e-09
7.2933e-07
4.38005e-10
7.29204e-07
1.9137e-09
7.29123e-07
7.35801e-10
7.28929e-07
3.3446e-09
7.28733e-07
1.67079e-09
7.28476e-07
7.65228e-09
6.96366e-09
7.28057e-07
7.71102e-07
-2.73088e-09
7.71035e-07
-2.10791e-09
7.71063e-07
1.69174e-10
7.71058e-07
-9.37637e-11
7.71035e-07
2.12295e-10
7.71035e-07
-2.14549e-11
7.71001e-07
4.70468e-10
7.70992e-07
9.55326e-11
7.70945e-07
6.66624e-10
7.70928e-07
1.90102e-10
7.70863e-07
9.34341e-10
7.70835e-07
3.08777e-10
7.70745e-07
1.33767e-09
7.70697e-07
4.85366e-10
7.70568e-07
2.04266e-09
7.70478e-07
8.24886e-10
7.70285e-07
3.53885e-09
7.70073e-07
1.8823e-09
7.69835e-07
7.89111e-09
7.38115e-09
7.69417e-07
8.14849e-07
-1.70482e-09
8.14768e-07
-2.02678e-09
8.14796e-07
1.40875e-10
8.14792e-07
-8.91526e-11
8.14766e-07
2.37294e-10
8.14766e-07
-2.09156e-11
8.14731e-07
5.04916e-10
8.14721e-07
1.05437e-10
8.14672e-07
7.15687e-10
8.14653e-07
2.09623e-10
8.14586e-07
1.00093e-09
8.14555e-07
3.408e-10
8.14463e-07
1.42949e-09
8.1441e-07
5.38787e-10
8.1428e-07
2.17307e-09
8.14179e-07
9.25463e-10
8.13989e-07
3.72884e-09
8.1376e-07
2.11084e-09
8.13545e-07
8.10638e-09
7.7985e-09
8.13127e-07
8.61073e-07
-1.04982e-09
8.6098e-07
-1.93421e-09
8.61008e-07
1.13756e-10
8.61003e-07
-8.45047e-11
8.60976e-07
2.64027e-10
8.60974e-07
-1.8649e-11
8.60939e-07
5.40557e-10
8.60927e-07
1.18306e-10
8.60877e-07
7.64806e-10
8.60855e-07
2.31287e-10
8.60787e-07
1.06849e-09
8.60751e-07
3.76544e-10
8.60658e-07
1.52243e-09
8.60599e-07
5.98484e-10
8.60468e-07
2.30356e-09
8.60356e-07
1.03665e-09
8.6017e-07
3.9157e-09
8.59924e-07
2.35699e-09
8.5973e-07
8.29996e-09
8.21157e-09
8.59317e-07
9.09912e-07
-7.0327e-10
9.09812e-07
-1.83418e-09
9.09836e-07
8.93521e-11
9.09832e-07
-8.08043e-11
9.09804e-07
2.9215e-10
9.09801e-07
-1.55961e-11
9.09764e-07
5.7686e-10
9.09751e-07
1.31721e-10
9.09699e-07
8.1662e-10
9.09674e-07
2.56083e-10
9.09605e-07
1.13843e-09
9.09565e-07
4.16698e-10
9.0947e-07
1.6177e-09
9.09403e-07
6.652e-10
9.09271e-07
2.43564e-09
9.09148e-07
1.16034e-09
9.08965e-07
4.09846e-09
9.08704e-07
2.61827e-09
9.08529e-07
8.47436e-09
8.61399e-09
9.08126e-07
9.61517e-07
-4.99433e-10
9.61412e-07
-1.72878e-09
9.61432e-07
6.92423e-11
9.61429e-07
-7.8022e-11
9.61399e-07
3.22574e-10
9.61394e-07
-1.09565e-11
9.61357e-07
6.15044e-10
9.61341e-07
1.47902e-10
9.61288e-07
8.69156e-10
9.61261e-07
2.82946e-10
9.61189e-07
1.20993e-09
9.61145e-07
4.60748e-10
9.61048e-07
1.71455e-09
9.60974e-07
7.38686e-10
9.60842e-07
2.56797e-09
9.60706e-07
1.29505e-09
9.60527e-07
4.27807e-09
9.60251e-07
2.89445e-09
9.60095e-07
8.63063e-09
9.00263e-09
9.59707e-07
1.01605e-06
-3.49274e-10
1.01594e-06
-1.61996e-09
1.01595e-06
5.36377e-11
1.01595e-06
-7.63625e-11
1.01592e-06
3.54335e-10
1.01591e-06
-5.19999e-12
1.01587e-06
6.53858e-10
1.01586e-06
1.64972e-10
1.0158e-06
9.24252e-10
1.01577e-06
3.13509e-10
1.0157e-06
1.2835e-09
1.01565e-06
5.10068e-10
1.01555e-06
1.81309e-09
1.01547e-06
8.204e-10
1.01534e-06
2.70071e-09
1.01519e-06
1.44331e-09
1.01502e-06
4.4518e-09
1.01473e-06
3.18371e-09
1.01459e-06
8.76817e-09
9.37461e-09
1.01422e-06
1.07367e-06
-2.23965e-10
1.07356e-06
-1.50852e-09
1.07357e-06
4.33612e-11
1.07356e-06
-7.52872e-11
1.07353e-06
3.88006e-10
1.07352e-06
2.74791e-12
1.07348e-06
6.94244e-10
1.07346e-06
1.85422e-10
1.07341e-06
9.79632e-10
1.07337e-06
3.46988e-10
1.0733e-06
1.35795e-09
1.07324e-06
5.6444e-10
1.07315e-06
1.91215e-09
1.07306e-06
9.10342e-10
1.07292e-06
2.83211e-09
1.07276e-06
1.60371e-09
1.07259e-06
4.62032e-09
1.07229e-06
3.48551e-09
1.07217e-06
8.88799e-09
9.72751e-09
1.07182e-06
1.13455e-06
-1.17175e-10
1.13444e-06
-1.3961e-09
1.13445e-06
3.83299e-11
1.13444e-06
-7.4851e-11
1.13441e-06
4.22572e-10
1.1344e-06
1.24334e-11
1.13436e-06
7.34947e-10
1.13434e-06
2.07441e-10
1.13428e-06
1.03709e-09
1.13424e-06
3.85058e-10
1.13417e-06
1.4338e-09
1.13411e-06
6.25237e-10
1.13401e-06
2.01192e-09
1.13391e-06
1.00986e-09
1.13378e-06
2.96252e-09
1.1336e-06
1.77825e-09
1.13344e-06
4.78151e-09
1.13313e-06
3.79717e-09
1.13303e-06
8.99072e-09
1.0058e-08
1.1327e-06
1.19889e-06
-2.64706e-11
1.19878e-06
-1.28347e-09
1.19878e-06
3.92013e-11
1.19878e-06
-7.43664e-11
1.19874e-06
4.58581e-10
1.19873e-06
2.49352e-11
1.19869e-06
7.7697e-10
1.19866e-06
2.33434e-10
1.1986e-06
1.09448e-09
1.19856e-06
4.26911e-10
1.19848e-06
1.50991e-09
1.19842e-06
6.92205e-10
1.19832e-06
2.11129e-09
1.19821e-06
1.11879e-09
1.19808e-06
3.0904e-09
1.19789e-06
1.96513e-09
1.19774e-06
4.93649e-09
1.19742e-06
4.11729e-09
1.19733e-06
9.07838e-09
1.03635e-08
1.19703e-06
1.26687e-06
4.89891e-11
1.26676e-06
-1.17223e-09
1.26675e-06
4.56713e-11
1.26675e-06
-7.37705e-11
1.26672e-06
4.94983e-10
1.2667e-06
3.98288e-11
1.26666e-06
8.19012e-10
1.26663e-06
2.6177e-10
1.26657e-06
1.15338e-09
1.26653e-06
4.74262e-10
1.26645e-06
1.58676e-09
1.26637e-06
7.66668e-10
1.26628e-06
2.21049e-09
1.26616e-06
1.23825e-09
1.26603e-06
3.2163e-09
1.26583e-06
2.16564e-09
1.26568e-06
5.08378e-09
1.26536e-06
4.44243e-09
1.26528e-06
9.1522e-09
1.06411e-08
1.26501e-06
1.33871e-06
1.11021e-10
1.3386e-06
-1.06309e-09
1.33859e-06
5.81321e-11
1.33859e-06
-7.2221e-11
1.33855e-06
5.32252e-10
1.33853e-06
5.82024e-11
1.33849e-06
8.62062e-10
1.33846e-06
2.94748e-10
1.3384e-06
1.21181e-09
1.33834e-06
5.26326e-10
1.33827e-06
1.6632e-09
1.33819e-06
8.48346e-10
1.33809e-06
2.30848e-09
1.33796e-06
1.36789e-09
1.33783e-06
3.33887e-09
1.33762e-06
2.37754e-09
1.33748e-06
5.2248e-09
1.33715e-06
4.77054e-09
1.33709e-06
9.21456e-09
1.0889e-08
1.33684e-06
1.41462e-06
1.60606e-10
1.41451e-06
-9.57499e-10
1.41449e-06
7.59788e-11
1.41449e-06
-6.95417e-11
1.41445e-06
5.69314e-10
1.41443e-06
7.96471e-11
1.41439e-06
9.04781e-10
1.41435e-06
3.30906e-10
1.41429e-06
1.27114e-09
1.41423e-06
5.84797e-10
1.41416e-06
1.73971e-09
1.41407e-06
9.38431e-10
1.41397e-06
2.40553e-09
1.41383e-06
1.50847e-09
1.41371e-06
3.45891e-09
1.41349e-06
2.60134e-09
1.41335e-06
5.35867e-09
1.41303e-06
5.09763e-09
1.41297e-06
9.26692e-09
1.11049e-08
1.41276e-06
1.49483e-06
1.99703e-10
1.49473e-06
-8.55932e-10
1.4947e-06
9.92756e-11
1.4947e-06
-6.47731e-11
1.49466e-06
6.06583e-10
1.49463e-06
1.05232e-10
1.49459e-06
9.48159e-10
1.49455e-06
3.72356e-10
1.49449e-06
1.32959e-09
1.49443e-06
6.48851e-10
1.49435e-06
1.81519e-09
1.49425e-06
1.03652e-09
1.49416e-06
2.50075e-09
1.49401e-06
1.65928e-09
1.49389e-06
3.57535e-09
1.49366e-06
2.83428e-09
1.49353e-06
5.48704e-09
1.49321e-06
5.42127e-09
1.49316e-06
9.3117e-09
1.1288e-08
1.49298e-06
1.57958e-06
2.29377e-10
1.57949e-06
-7.59523e-10
1.57946e-06
1.27118e-10
1.57945e-06
-5.76472e-11
1.57941e-06
6.43025e-10
1.57939e-06
1.34575e-10
1.57934e-06
9.90819e-10
1.5793e-06
4.17893e-10
1.57924e-06
1.38826e-09
1.57917e-06
7.20122e-10
1.57909e-06
1.89015e-09
1.57899e-06
1.14357e-09
1.57889e-06
2.59458e-09
1.57873e-06
1.82063e-09
1.57862e-06
3.68931e-09
1.57838e-06
3.076e-09
1.57825e-06
5.60968e-09
1.57794e-06
5.73725e-09
1.5779e-06
9.35023e-09
1.14373e-08
1.57775e-06
1.66914e-06
2.51535e-10
1.66905e-06
-6.68377e-10
1.66902e-06
1.59249e-10
1.66901e-06
-4.71593e-11
1.66897e-06
6.79052e-10
1.66894e-06
1.68707e-10
1.6689e-06
1.03378e-09
1.66885e-06
4.69418e-10
1.66879e-06
1.44558e-09
1.66871e-06
7.97618e-10
1.66864e-06
1.96357e-09
1.66852e-06
1.25887e-09
1.66843e-06
2.68631e-09
1.66826e-06
1.99123e-09
1.66815e-06
3.80007e-09
1.6679e-06
3.32317e-09
1.66778e-06
5.72838e-09
1.66748e-06
6.04311e-09
1.66744e-06
9.38458e-09
1.15532e-08
1.66733e-06
1.76378e-06
2.67084e-10
1.7637e-06
-5.83228e-10
1.76366e-06
1.94472e-10
1.76365e-06
-3.30737e-11
1.76361e-06
7.13661e-10
1.76357e-06
2.07127e-10
1.76353e-06
1.07565e-09
1.76348e-06
5.25737e-10
1.76342e-06
1.50264e-09
1.76333e-06
8.8287e-10
1.76326e-06
2.0362e-09
1.76314e-06
1.38312e-09
1.76305e-06
2.77672e-09
1.76287e-06
2.17094e-09
1.76276e-06
3.90914e-09
1.76251e-06
3.57479e-09
1.76239e-06
5.84323e-09
1.7621e-06
6.33482e-09
1.76207e-06
9.41552e-09
1.1636e-08
1.76199e-06
1.86378e-06
2.77686e-10
1.8637e-06
-5.03741e-10
1.86367e-06
2.32291e-10
1.86365e-06
-1.4434e-11
1.86361e-06
7.47325e-10
1.86357e-06
2.50822e-10
1.86353e-06
1.11746e-09
1.86347e-06
5.88538e-10
1.86341e-06
1.55807e-09
1.86332e-06
9.74637e-10
1.86325e-06
2.10711e-09
1.86312e-06
1.51514e-09
1.86303e-06
2.86533e-09
1.86284e-06
2.35779e-09
1.86273e-06
4.01607e-09
1.86248e-06
3.8271e-09
1.86237e-06
5.95594e-09
1.86209e-06
6.61034e-09
1.86206e-06
9.44446e-09
1.16873e-08
1.86201e-06
1.96946e-06
2.8395e-10
1.96938e-06
-4.30198e-10
1.96934e-06
2.71349e-10
1.96932e-06
8.86022e-12
1.96929e-06
7.79168e-10
1.96924e-06
2.99145e-10
1.9692e-06
1.15797e-09
1.96913e-06
6.56585e-10
1.96907e-06
1.613e-09
1.96898e-06
1.07413e-09
1.96891e-06
2.17739e-09
1.96877e-06
1.65525e-09
1.96868e-06
2.95329e-09
1.96848e-06
2.55117e-09
1.96838e-06
4.12264e-09
1.96813e-06
4.07867e-09
1.96802e-06
6.06666e-09
1.96776e-06
6.86639e-09
1.96773e-06
9.47136e-09
1.17086e-08
1.96771e-06
2.08112e-06
2.8717e-10
2.08105e-06
-3.61849e-10
2.08101e-06
3.11065e-10
2.08098e-06
3.75945e-11
2.08095e-06
8.09775e-10
2.0809e-06
3.52961e-10
2.08086e-06
1.19821e-09
2.08078e-06
7.31259e-10
2.08073e-06
1.66633e-09
2.08062e-06
1.17981e-09
2.08055e-06
2.24626e-09
2.08041e-06
1.80171e-09
2.08032e-06
3.04031e-09
2.08012e-06
2.74847e-09
2.08002e-06
4.22854e-09
2.07977e-06
4.32559e-09
2.07966e-06
6.17668e-09
2.07942e-06
7.1017e-09
2.0794e-06
9.49678e-09
1.17026e-08
2.0794e-06
2.19911e-06
2.87567e-10
2.19905e-06
-2.9862e-10
2.19901e-06
3.50084e-10
2.19897e-06
7.15987e-11
2.19894e-06
8.3844e-10
2.19889e-06
4.11424e-10
2.19885e-06
1.23717e-09
2.19877e-06
8.11169e-10
2.19871e-06
1.71931e-09
2.1986e-06
1.29246e-09
2.19853e-06
2.31516e-09
2.19838e-06
1.95444e-09
2.19829e-06
3.12788e-09
2.19809e-06
2.94871e-09
2.19799e-06
4.33555e-09
2.19774e-06
4.56645e-09
2.19764e-06
6.28584e-09
2.19742e-06
7.31414e-09
2.1974e-06
9.51979e-09
1.16717e-08
2.19743e-06
2.32379e-06
2.86048e-10
2.32373e-06
-2.39475e-10
2.32369e-06
3.87936e-10
2.32365e-06
1.11365e-10
2.32363e-06
8.65887e-10
2.32356e-06
4.75187e-10
2.32353e-06
1.27587e-09
2.32344e-06
8.97279e-10
2.32339e-06
1.77117e-09
2.32327e-06
1.41025e-09
2.3232e-06
2.38353e-09
2.32304e-06
2.1112e-09
2.32296e-06
3.21583e-09
2.32276e-06
3.14891e-09
2.32265e-06
4.44334e-09
2.32242e-06
4.79762e-09
2.32231e-06
6.39473e-09
2.32212e-06
7.50343e-09
2.3221e-06
9.54011e-09
1.1619e-08
2.32215e-06
2.45554e-06
2.82512e-10
2.45549e-06
-1.84151e-10
2.45545e-06
4.23497e-10
2.45541e-06
1.5637e-10
2.45538e-06
8.91663e-10
2.45531e-06
5.43193e-10
2.45527e-06
1.31368e-09
2.45518e-06
9.8801e-10
2.45513e-06
1.8233e-09
2.45501e-06
1.5334e-09
2.45494e-06
2.45302e-09
2.45478e-06
2.27151e-09
2.45469e-06
3.30572e-09
2.45449e-06
3.34791e-09
2.45438e-06
4.55325e-09
2.45416e-06
5.01808e-09
2.45405e-06
6.50262e-09
2.45389e-06
7.6688e-09
2.45387e-06
9.55618e-09
1.15473e-08
2.45394e-06
2.59476e-06
2.77573e-10
2.59471e-06
-1.31552e-10
2.59468e-06
4.56583e-10
2.59463e-06
2.0672e-10
2.5946e-06
9.16613e-10
2.59453e-06
6.15777e-10
2.59449e-06
1.35161e-09
2.5944e-06
1.0838e-09
2.59434e-06
1.8753e-09
2.59422e-06
1.65987e-09
2.59415e-06
2.52326e-09
2.59398e-06
2.43284e-09
2.59389e-06
3.39734e-09
2.5937e-06
3.54276e-09
2.59359e-06
4.66464e-09
2.59338e-06
5.22493e-09
2.59327e-06
6.6092e-09
2.59313e-06
7.81094e-09
2.59312e-06
9.56716e-09
1.14598e-08
2.59321e-06
2.74188e-06
2.70969e-10
2.74183e-06
-8.1442e-11
2.7418e-06
4.86493e-10
2.74174e-06
2.61525e-10
2.74172e-06
9.40571e-10
2.74164e-06
6.91717e-10
2.7416e-06
1.3894e-09
2.7415e-06
1.18293e-09
2.74145e-06
1.92854e-09
2.74132e-06
1.78934e-09
2.74125e-06
2.59586e-09
2.74109e-06
2.59442e-09
2.74099e-06
3.49197e-09
2.7408e-06
3.7324e-09
2.74069e-06
4.77813e-09
2.7405e-06
5.41776e-09
2.74039e-06
6.71317e-09
2.74027e-06
7.93027e-09
2.74027e-06
9.5713e-09
1.1359e-08
2.74037e-06
2.89733e-06
2.63189e-10
2.89728e-06
-3.29101e-11
2.89725e-06
5.13445e-10
2.8972e-06
3.2048e-10
2.89717e-06
9.64454e-10
2.89709e-06
7.70964e-10
2.89705e-06
1.42805e-09
2.89695e-06
1.2853e-09
2.8969e-06
1.98295e-09
2.89677e-06
1.91973e-09
2.89669e-06
2.67051e-09
2.89653e-06
2.75381e-09
2.89643e-06
3.58909e-09
2.89625e-06
3.91431e-09
2.89614e-06
4.89253e-09
2.89596e-06
5.59474e-09
2.89586e-06
6.81343e-09
2.89576e-06
8.02816e-09
2.89577e-06
9.56763e-09
1.12475e-08
2.89588e-06
3.0616e-06
2.54008e-10
3.06155e-06
1.40539e-11
3.06153e-06
5.3724e-10
3.06146e-06
3.82398e-10
3.06144e-06
9.88328e-10
3.06136e-06
8.52187e-10
3.06132e-06
1.46758e-09
3.06122e-06
1.38916e-09
3.06116e-06
2.03967e-09
3.06103e-06
2.05036e-09
3.06095e-06
2.74844e-09
3.06079e-06
2.91018e-09
3.06069e-06
3.68937e-09
3.06052e-06
4.08778e-09
3.06041e-06
5.00761e-09
3.06024e-06
5.75611e-09
3.06015e-06
6.90833e-09
3.06007e-06
8.10579e-09
3.06009e-06
9.55469e-09
1.11271e-08
3.06021e-06
3.23518e-06
2.43956e-10
3.23513e-06
6.00027e-11
3.23511e-06
5.58486e-10
3.23505e-06
4.46643e-10
3.23502e-06
1.01309e-09
3.23494e-06
9.3499e-10
3.2349e-06
1.5089e-09
3.23479e-06
1.49398e-09
3.23473e-06
2.09876e-09
3.23461e-06
2.17933e-09
3.23452e-06
2.82918e-09
3.23437e-06
3.06146e-09
3.23427e-06
3.79181e-09
3.23411e-06
4.25104e-09
3.23399e-06
5.12161e-09
3.23385e-06
5.90103e-09
3.23376e-06
6.99632e-09
3.2337e-06
8.16474e-09
3.23372e-06
9.53181e-09
1.09998e-08
3.23385e-06
3.4186e-06
2.32986e-10
3.41856e-06
1.04632e-10
3.41854e-06
5.77419e-10
3.41847e-06
5.11889e-10
3.41845e-06
1.03892e-09
3.41836e-06
1.01804e-09
3.41832e-06
1.55212e-09
3.41822e-06
1.59814e-09
3.41815e-06
2.16092e-09
3.41803e-06
2.30588e-09
3.41794e-06
2.91329e-09
3.4178e-06
3.20706e-09
3.41769e-06
3.89626e-09
3.41754e-06
4.40386e-09
3.41743e-06
5.23357e-09
3.4173e-06
6.03023e-09
3.41722e-06
7.07578e-09
3.41718e-06
8.20641e-09
3.41721e-06
9.49819e-09
1.08665e-08
3.41734e-06
3.61242e-06
2.21747e-10
3.61238e-06
1.48108e-10
3.61236e-06
5.94883e-10
3.6123e-06
5.77342e-10
3.61227e-06
1.06654e-09
3.61219e-06
1.10074e-09
3.61214e-06
1.59787e-09
3.61204e-06
1.70094e-09
3.61197e-06
2.22603e-09
3.61185e-06
2.42852e-09
3.61176e-06
2.99991e-09
3.61162e-06
3.3455e-09
3.61152e-06
4.00118e-09
3.61138e-06
4.54521e-09
3.61127e-06
5.3414e-09
3.61116e-06
6.14358e-09
3.61109e-06
7.14523e-09
3.61106e-06
8.23218e-09
3.61111e-06
9.45366e-09
1.07283e-08
3.61124e-06
3.81723e-06
2.10384e-10
3.81719e-06
1.89878e-10
3.81717e-06
6.11335e-10
3.81711e-06
6.41763e-10
3.81708e-06
1.09605e-09
3.817e-06
1.18191e-09
3.81695e-06
1.64611e-09
3.81685e-06
1.80109e-09
3.81678e-06
2.29416e-09
3.81666e-06
2.54664e-09
3.81657e-06
3.08881e-09
3.81644e-06
3.47648e-09
3.81634e-06
4.1057e-09
3.81621e-06
4.67523e-09
3.81611e-06
5.44378e-09
3.81601e-06
6.24194e-09
3.81595e-06
7.20348e-09
3.81594e-06
8.24325e-09
3.816e-06
9.39811e-09
1.05856e-08
3.81614e-06
4.03365e-06
1.99603e-10
4.03361e-06
2.29849e-10
4.0336e-06
6.27598e-10
4.03353e-06
7.04424e-10
4.0335e-06
1.12786e-09
4.03342e-06
1.26096e-09
4.03337e-06
1.69703e-09
4.03328e-06
1.89795e-09
4.03321e-06
2.36478e-09
4.03309e-06
2.65927e-09
4.033e-06
3.17867e-09
4.03288e-06
3.59914e-09
4.03278e-06
4.20793e-09
4.03266e-06
4.79345e-09
4.03256e-06
5.53872e-09
4.03248e-06
6.32546e-09
4.03243e-06
7.24949e-09
4.03244e-06
8.2406e-09
4.0325e-06
9.33184e-09
1.04389e-08
4.03265e-06
4.26235e-06
1.89624e-10
4.26231e-06
2.67413e-10
4.26229e-06
6.44069e-10
4.26223e-06
7.64383e-10
4.2622e-06
1.1618e-09
4.26212e-06
1.337e-09
4.26207e-06
1.75024e-09
4.26198e-06
1.99067e-09
4.2619e-06
2.43729e-09
4.2618e-06
2.76603e-09
4.26171e-06
3.26859e-09
4.26159e-06
3.71341e-09
4.26149e-06
4.30658e-09
4.26139e-06
4.90012e-09
4.2613e-06
5.62495e-09
4.26123e-06
6.39486e-09
4.2612e-06
7.28267e-09
4.26121e-06
8.22506e-09
4.26129e-06
9.25524e-09
1.02883e-08
4.26144e-06
4.504e-06
1.8104e-10
4.50397e-06
3.02436e-10
4.50395e-06
6.61284e-10
4.50389e-06
8.21167e-10
4.50386e-06
1.19784e-09
4.50379e-06
1.40962e-09
4.50373e-06
1.80536e-09
4.50364e-06
2.07885e-09
4.50357e-06
2.51072e-09
4.50347e-06
2.86638e-09
4.50338e-06
3.35698e-09
4.50327e-06
3.8188e-09
4.50318e-06
4.39979e-09
4.50309e-06
4.995e-09
4.50301e-06
5.70094e-09
4.50295e-06
6.45029e-09
4.50293e-06
7.30258e-09
4.50296e-06
8.19726e-09
4.50305e-06
9.16886e-09
1.0134e-08
4.5032e-06
4.75936e-06
1.73964e-10
4.75933e-06
3.34471e-10
4.75931e-06
6.79352e-10
4.75926e-06
8.74248e-10
4.75922e-06
1.23548e-09
4.75915e-06
1.47828e-09
4.7591e-06
1.8616e-09
4.75901e-06
2.16199e-09
4.75894e-06
2.58396e-09
4.75885e-06
2.96013e-09
4.75876e-06
3.44254e-09
4.75866e-06
3.91528e-09
4.75858e-06
4.48623e-09
4.75849e-06
5.07822e-09
4.75843e-06
5.76578e-09
4.75839e-06
6.49219e-09
4.75838e-06
7.3092e-09
4.75842e-06
8.15775e-09
4.75852e-06
9.07326e-09
9.97605e-09
4.75867e-06
5.0292e-06
1.68713e-10
5.02917e-06
3.63533e-10
5.02915e-06
6.98371e-10
5.0291e-06
9.23467e-10
5.02906e-06
1.27424e-09
5.029e-06
1.54277e-09
5.02894e-06
1.91815e-09
5.02886e-06
2.23988e-09
5.02879e-06
2.65577e-09
5.0287e-06
3.04692e-09
5.02862e-06
3.52371e-09
5.02854e-06
4.00247e-09
5.02846e-06
4.5644e-09
5.02839e-06
5.14956e-09
5.02833e-06
5.81854e-09
5.0283e-06
6.52065e-09
5.02831e-06
7.30256e-09
5.02836e-06
8.10695e-09
5.02847e-06
8.96903e-09
9.81447e-09
5.02863e-06
5.31433e-06
1.65165e-10
5.31431e-06
3.89453e-10
5.31429e-06
7.18095e-10
5.31424e-06
9.6867e-10
5.3142e-06
1.31335e-09
5.31414e-06
1.60283e-09
5.31409e-06
1.97393e-09
5.31401e-06
2.31223e-09
5.31395e-06
2.72485e-09
5.31387e-06
3.12653e-09
5.31379e-06
3.59919e-09
5.31371e-06
4.08019e-09
5.31364e-06
4.63325e-09
5.31358e-06
5.20896e-09
5.31354e-06
5.85879e-09
5.31353e-06
6.53593e-09
5.31355e-06
7.28297e-09
5.31361e-06
8.0453e-09
5.31372e-06
8.85671e-09
9.64936e-09
5.31389e-06
5.61563e-06
1.63316e-10
5.61561e-06
4.12438e-10
5.61559e-06
7.38228e-10
5.61555e-06
1.00992e-09
5.61551e-06
1.35205e-09
5.61546e-06
1.65835e-09
5.6154e-06
2.02793e-09
5.61533e-06
2.37883e-09
5.61527e-06
2.78994e-09
5.6152e-06
3.19862e-09
5.61513e-06
3.66769e-09
5.61506e-06
4.14805e-09
5.615e-06
4.69175e-09
5.61496e-06
5.25618e-09
5.61493e-06
5.88613e-09
5.61493e-06
6.53809e-09
5.61496e-06
7.25074e-09
5.61503e-06
7.97317e-09
5.61515e-06
8.73676e-09
9.48079e-09
5.61532e-06
5.93402e-06
1.62827e-10
5.934e-06
4.32556e-10
5.93398e-06
7.58276e-10
5.93394e-06
1.04725e-09
5.9339e-06
1.38947e-09
5.93385e-06
1.70917e-09
5.9338e-06
2.07903e-09
5.93374e-06
2.43939e-09
5.93368e-06
2.84988e-09
5.93362e-06
3.2628e-09
5.93356e-06
3.72816e-09
5.9335e-06
4.2057e-09
5.93345e-06
4.73924e-09
5.93342e-06
5.29106e-09
5.9334e-06
5.90047e-09
5.93341e-06
6.52738e-09
5.93346e-06
7.20633e-09
5.93354e-06
7.89098e-09
5.93367e-06
8.60963e-09
9.30882e-09
5.93384e-06
6.27045e-06
1.63472e-10
6.27044e-06
4.5011e-10
6.27042e-06
7.77745e-10
6.27038e-06
1.08077e-09
6.27035e-06
1.42482e-09
6.2703e-06
1.75513e-09
6.27025e-06
2.12628e-09
6.2702e-06
2.49359e-09
6.27015e-06
2.90362e-09
6.27009e-06
3.31865e-09
6.27004e-06
3.77969e-09
6.26999e-06
4.25272e-09
6.26996e-06
4.77516e-09
6.26993e-06
5.31343e-09
6.26993e-06
5.90178e-09
6.26996e-06
6.50396e-09
6.27001e-06
7.15016e-09
6.2701e-06
7.79912e-09
6.27024e-06