/*--------------------------------*- C++ -*----------------------------------*\
| =========                 |                                                 |
| \\      /  F ield         | OpenFOAM: The Open Source CFD Toolbox           |
|  \\    /   O peration     | Version:  v1912                                 |
|   \\  /    A nd           | Website:  www.openfoam.com                      |
|    \\/     M anipulation  |                                                 |
\*---------------------------------------------------------------------------*/
FoamFile
{
    version     2.0;
    format      ascii;
    class       volVectorField;
    location    "600";
    object      U;
}
// * * * * * * * * * * * * * * * * * * * * * * * * * * * * * * * * * * * * * //

dimensions      [0 1 -1 0 0 0 0];


internalField   nonuniform List<vector> 
10000
(
(0.934899 -0.000807547 0)
(1.06049 -8.48056e-05 0)
(0.932602 -0.000107011 0)
(1.06245 2.35164e-05 0)
(0.931268 -8.39719e-05 0)
(1.06402 4.86539e-05 0)
(0.929642 -8.35959e-05 0)
(1.06565 6.55164e-05 0)
(0.927913 -9.07757e-05 0)
(1.06734 8.21241e-05 0)
(0.926051 -0.000103011 0)
(1.06908 0.000101403 0)
(0.924042 -0.000120823 0)
(1.07086 0.000126091 0)
(0.921854 -0.000146432 0)
(1.07265 0.00016048 0)
(0.919413 -0.000184438 0)
(1.07431 0.000211843 0)
(0.916471 -0.00023309 0)
(1.07508 0.000256316 0)
(0.986066 -0.00157559 0)
(1.01525 -0.000149913 0)
(0.986016 1.35093e-05 0)
(1.01454 -2.00308e-05 0)
(0.987176 3.31153e-05 0)
(1.01332 -2.09335e-05 0)
(0.988245 4.08688e-05 0)
(1.01199 -2.92315e-05 0)
(0.989421 4.86051e-05 0)
(1.01053 -3.95236e-05 0)
(0.990686 5.88769e-05 0)
(1.00891 -5.1928e-05 0)
(0.992042 7.26768e-05 0)
(1.00711 -6.71618e-05 0)
(0.993477 9.16039e-05 0)
(1.00507 -8.62448e-05 0)
(0.994937 0.00011955 0)
(1.00261 -0.000113415 0)
(0.996198 0.000195517 0)
(0.998819 -0.000238941 0)
(0.999313 -0.00171365 0)
(1.00021 -1.25538e-05 0)
(0.998722 7.14337e-06 0)
(1.00028 3.84332e-05 0)
(0.999195 -2.31956e-05 0)
(0.999965 3.42735e-05 0)
(0.999456 -3.12681e-05 0)
(0.999639 3.63105e-05 0)
(0.999688 -3.65629e-05 0)
(0.9993 4.10559e-05 0)
(0.999864 -4.05465e-05 0)
(0.998944 4.67782e-05 0)
(0.999973 -4.31194e-05 0)
(0.998557 5.22336e-05 0)
(0.999984 -4.17597e-05 0)
(0.998097 5.48798e-05 0)
(0.999828 -2.78283e-05 0)
(0.997424 4.50512e-05 0)
(0.999259 6.04011e-05 0)
(0.995748 -4.33916e-05 0)
(1.00035 -0.00161906 0)
(0.998565 -7.1981e-05 0)
(0.9995 2.93324e-05 0)
(0.998895 -3.41481e-05 0)
(0.999686 1.68352e-05 0)
(0.998843 -2.95297e-05 0)
(0.999669 2.56242e-05 0)
(0.998779 -2.76405e-05 0)
(0.999638 3.14419e-05 0)
(0.998689 -2.66829e-05 0)
(0.999568 3.59307e-05 0)
(0.998566 -2.51955e-05 0)
(0.999451 3.92179e-05 0)
(0.998392 -2.12019e-05 0)
(0.999263 4.14827e-05 0)
(0.99812 -1.14782e-05 0)
(0.99894 4.50435e-05 0)
(0.997603 8.69135e-06 0)
(0.998242 9.74497e-05 0)
(0.996098 9.9917e-05 0)
(1 -0.00159193 0)
(0.998926 -5.90331e-05 0)
(0.999134 -2.63047e-06 0)
(0.999266 1.07936e-05 0)
(0.999274 -1.22027e-05 0)
(0.999243 1.89033e-05 0)
(0.999216 -7.99245e-06 0)
(0.999201 1.94312e-05 0)
(0.999149 -6.07227e-06 0)
(0.999131 1.84573e-05 0)
(0.999048 -2.04277e-06 0)
(0.999024 1.62397e-05 0)
(0.998905 5.8241e-06 0)
(0.998861 1.22473e-05 0)
(0.998694 2.08359e-05 0)
(0.998597 5.85356e-06 0)
(0.998352 5.17018e-05 0)
(0.998085 -3.84009e-06 0)
(0.997639 0.000165408 0)
(0.996626 0.000106238 0)
(0.999964 -0.00150977 0)
(0.999026 -9.91185e-05 0)
(0.999125 2.78954e-05 0)
(0.999336 -1.51801e-05 0)
(0.999269 1.12308e-05 0)
(0.999306 -1.01552e-05 0)
(0.999217 1.40722e-05 0)
(0.999256 -8.27024e-06 0)
(0.999157 1.52698e-05 0)
(0.999176 -5.04424e-06 0)
(0.999063 1.71957e-05 0)
(0.999058 -6.24869e-07 0)
(0.998928 2.05284e-05 0)
(0.998884 4.8242e-06 0)
(0.998727 2.88649e-05 0)
(0.998607 1.017e-05 0)
(0.998394 5.54723e-05 0)
(0.998084 8.00299e-06 0)
(0.997694 0.000200891 0)
(0.996653 0.000114322 0)
(0.999972 -0.00146607 0)
(0.999072 -9.86194e-05 0)
(0.999159 1.47719e-05 0)
(0.999358 -2.13126e-06 0)
(0.999301 -3.34164e-06 0)
(0.999329 3.77485e-06 0)
(0.99925 4.16341e-06 0)
(0.999279 4.94953e-06 0)
(0.999189 9.54085e-06 0)
(0.9992 5.34461e-06 0)
(0.999095 1.61187e-05 0)
(0.999083 5.52583e-06 0)
(0.998959 2.49524e-05 0)
(0.998909 6.46884e-06 0)
(0.998756 3.92205e-05 0)
(0.998634 9.50695e-06 0)
(0.998422 7.09913e-05 0)
(0.998113 1.2556e-05 0)
(0.997722 0.000233036 0)
(0.996732 0.000143587 0)
(1.00005 -0.00139464 0)
(0.99905 -0.000123315 0)
(0.999261 2.51468e-05 0)
(0.999313 -1.07119e-05 0)
(0.999402 4.39259e-06 0)
(0.999284 -2.03505e-06 0)
(0.99935 1.08511e-05 0)
(0.999234 8.88348e-07 0)
(0.999289 1.40616e-05 0)
(0.999155 3.2804e-06 0)
(0.999194 1.89683e-05 0)
(0.999038 5.60586e-06 0)
(0.999058 2.74865e-05 0)
(0.998865 7.97061e-06 0)
(0.998855 4.43896e-05 0)
(0.99859 1.05763e-05 0)
(0.998521 8.47022e-05 0)
(0.998071 1.27928e-05 0)
(0.997823 0.000271614 0)
(0.996737 0.000171244 0)
(1.0002 -0.00133364 0)
(0.998945 -0.000133626 0)
(0.999441 2.36513e-05 0)
(0.99918 -8.07329e-06 0)
(0.999583 2.20253e-06 0)
(0.999148 -1.98606e-07 0)
(0.999534 1.07984e-05 0)
(0.999095 1.91051e-06 0)
(0.999477 1.59901e-05 0)
(0.999012 3.91023e-06 0)
(0.999386 2.28717e-05 0)
(0.998892 6.40187e-06 0)
(0.999254 3.31014e-05 0)
(0.998715 9.72809e-06 0)
(0.999055 5.20532e-05 0)
(0.998436 1.39022e-05 0)
(0.998725 9.81843e-05 0)
(0.997917 1.74946e-05 0)
(0.998034 0.000310677 0)
(0.996628 0.000199489 0)
(1.00018 -0.00126303 0)
(0.999005 -0.000149169 0)
(0.999456 2.72923e-05 0)
(0.999217 -9.85477e-06 0)
(0.999594 3.57414e-06 0)
(0.999188 -8.04589e-07 0)
(0.999543 1.28391e-05 0)
(0.999137 2.25718e-06 0)
(0.999483 1.84479e-05 0)
(0.999057 4.72947e-06 0)
(0.99939 2.62144e-05 0)
(0.998939 7.31533e-06 0)
(0.999255 3.81309e-05 0)
(0.998766 1.06607e-05 0)
(0.999053 6.00625e-05 0)
(0.998491 1.54522e-05 0)
(0.998721 0.000112398 0)
(0.997977 2.18237e-05 0)
(0.99803 0.000348341 0)
(0.996742 0.000228293 0)
(1.00017 -0.00119575 0)
(0.99907 -0.000162229 0)
(0.999473 2.82864e-05 0)
(0.999258 -1.03557e-05 0)
(0.999608 3.97591e-06 0)
(0.99923 -9.65258e-07 0)
(0.999556 1.46629e-05 0)
(0.99918 2.42149e-06 0)
(0.999496 2.10198e-05 0)
(0.9991 5.25711e-06 0)
(0.999402 2.97374e-05 0)
(0.998983 8.3824e-06 0)
(0.999267 4.32234e-05 0)
(0.998809 1.23391e-05 0)
(0.999065 6.82673e-05 0)
(0.998535 1.78396e-05 0)
(0.998732 0.000127683 0)
(0.998026 2.707e-05 0)
(0.998045 0.000386445 0)
(0.99684 0.000259291 0)
(1.00021 -0.00112727 0)
(0.999088 -0.000175029 0)
(0.999539 2.95681e-05 0)
(0.999251 -1.07712e-05 0)
(0.999671 4.65921e-06 0)
(0.999223 -9.59568e-07 0)
(0.999619 1.65423e-05 0)
(0.999172 2.83738e-06 0)
(0.99956 2.37346e-05 0)
(0.999092 5.98592e-06 0)
(0.999466 3.36102e-05 0)
(0.998974 9.52352e-06 0)
(0.999332 4.87682e-05 0)
(0.998801 1.41072e-05 0)
(0.99913 7.67835e-05 0)
(0.998527 2.05944e-05 0)
(0.998798 0.000143173 0)
(0.998021 3.31693e-05 0)
(0.998116 0.000424004 0)
(0.996884 0.000291676 0)
(1.00025 -0.00105782 0)
(0.999093 -0.000186559 0)
(0.999617 3.05525e-05 0)
(0.999231 -1.12418e-05 0)
(0.999746 5.48709e-06 0)
(0.999204 -1.19837e-06 0)
(0.999694 1.86053e-05 0)
(0.999153 3.09456e-06 0)
(0.999635 2.66335e-05 0)
(0.999072 6.61646e-06 0)
(0.999542 3.7693e-05 0)
(0.998954 1.05584e-05 0)
(0.999407 5.4682e-05 0)
(0.998781 1.57125e-05 0)
(0.999206 8.59472e-05 0)
(0.998508 2.32797e-05 0)
(0.998874 0.00015954 0)
(0.998006 3.99175e-05 0)
(0.998198 0.000461571 0)
(0.99692 0.000325049 0)
(1.00029 -0.000987366 0)
(0.999107 -0.000196647 0)
(0.999686 3.09896e-05 0)
(0.99922 -1.14486e-05 0)
(0.999811 6.2518e-06 0)
(0.999193 -1.25957e-06 0)
(0.99976 2.06579e-05 0)
(0.999142 3.55995e-06 0)
(0.999701 2.95649e-05 0)
(0.999062 7.50023e-06 0)
(0.999607 4.18225e-05 0)
(0.998944 1.19492e-05 0)
(0.999473 6.06642e-05 0)
(0.998771 1.77993e-05 0)
(0.999272 9.52682e-05 0)
(0.998499 2.66077e-05 0)
(0.99894 0.000176185 0)
(0.998003 4.80144e-05 0)
(0.998271 0.000498183 0)
(0.996966 0.000360152 0)
(1.00031 -0.000916489 0)
(0.99914 -0.000205579 0)
(0.999737 3.12159e-05 0)
(0.999229 -1.17096e-05 0)
(0.999858 7.32146e-06 0)
(0.999203 -1.49706e-06 0)
(0.999806 2.30176e-05 0)
(0.999152 3.85306e-06 0)
(0.999747 3.28567e-05 0)
(0.999072 8.19815e-06 0)
(0.999653 4.64091e-05 0)
(0.998955 1.31577e-05 0)
(0.999519 6.72102e-05 0)
(0.998782 1.97553e-05 0)
(0.999318 0.000105275 0)
(0.998511 2.99751e-05 0)
(0.998986 0.000193656 0)
(0.998021 5.68503e-05 0)
(0.998324 0.000534375 0)
(0.997035 0.000396241 0)
(1.00032 -0.000846505 0)
(0.999184 -0.000212947 0)
(0.999777 3.07894e-05 0)
(0.999249 -1.16767e-05 0)
(0.999893 8.26962e-06 0)
(0.999225 -1.53557e-06 0)
(0.999841 2.52493e-05 0)
(0.999174 4.40624e-06 0)
(0.999781 3.60554e-05 0)
(0.999093 9.2057e-06 0)
(0.999688 5.09426e-05 0)
(0.998977 1.47272e-05 0)
(0.999554 7.37757e-05 0)
(0.998805 2.21552e-05 0)
(0.999352 0.000115404 0)
(0.998535 3.40079e-05 0)
(0.999021 0.000211306 0)
(0.998052 6.71165e-05 0)
(0.998367 0.000569369 0)
(0.997116 0.000433813 0)
(1.00034 -0.000777184 0)
(0.999213 -0.000218954 0)
(0.999832 3.01938e-05 0)
(0.999255 -1.17403e-05 0)
(0.999943 9.59103e-06 0)
(0.999232 -1.78429e-06 0)
(0.999891 2.7862e-05 0)
(0.99918 4.78986e-06 0)
(0.999831 3.96962e-05 0)
(0.9991 1.00819e-05 0)
(0.999738 5.59888e-05 0)
(0.998983 1.62229e-05 0)
(0.999604 8.09381e-05 0)
(0.998812 2.45768e-05 0)
(0.999403 0.000126233 0)
(0.998544 3.83009e-05 0)
(0.999072 0.000229686 0)
(0.998068 7.84376e-05 0)
(0.998428 0.000603593 0)
(0.99718 0.000472304 0)
(1.00036 -0.000708733 0)
(0.999237 -0.00022299 0)
(0.999891 2.89419e-05 0)
(0.999256 -1.14751e-05 0)
(0.999996 1.0787e-05 0)
(0.999235 -1.8149e-06 0)
(0.999944 3.03015e-05 0)
(0.999183 5.40215e-06 0)
(0.999884 4.31932e-05 0)
(0.999103 1.12022e-05 0)
(0.999791 6.09428e-05 0)
(0.998987 1.8007e-05 0)
(0.999656 8.8091e-05 0)
(0.998816 2.73862e-05 0)
(0.999455 0.000137154 0)
(0.998549 4.3248e-05 0)
(0.999126 0.000248148 0)
(0.998081 9.12287e-05 0)
(0.998492 0.000636317 0)
(0.997242 0.000511936 0)
(1.00041 -0.000640168 0)
(0.999241 -0.000225392 0)
(0.999969 2.75855e-05 0)
(0.999239 -1.13438e-05 0)
(1.00007 1.24708e-05 0)
(0.999218 -1.98887e-06 0)
(1.00002 3.32604e-05 0)
(0.999166 5.95001e-06 0)
(0.999956 4.72655e-05 0)
(0.999086 1.23034e-05 0)
(0.999863 6.65221e-05 0)
(0.99897 1.98343e-05 0)
(0.999729 9.59214e-05 0)
(0.998799 3.03581e-05 0)
(0.999528 0.000148799 0)
(0.998535 4.86629e-05 0)
(0.9992 0.000267239 0)
(0.998075 0.000105322 0)
(0.998577 0.00066796 0)
(0.997282 0.000552318 0)
(1.00045 -0.000571398 0)
(0.999241 -0.000225692 0)
(1.00005 2.55007e-05 0)
(0.999218 -1.10214e-05 0)
(1.00014 1.37871e-05 0)
(0.999199 -2.1135e-06 0)
(1.00009 3.58081e-05 0)
(0.999146 6.61683e-06 0)
(1.00003 5.10158e-05 0)
(0.999067 1.36051e-05 0)
(0.999936 7.18737e-05 0)
(0.998951 2.19621e-05 0)
(0.999801 0.00010363 0)
(0.998782 3.37828e-05 0)
(0.999601 0.000160418 0)
(0.998519 5.48703e-05 0)
(0.999274 0.000286218 0)
(0.998068 0.000121031 0)
(0.998664 0.000697781 0)
(0.997322 0.000593521 0)
(1.00057 -0.000499609 0)
(0.999171 -0.000224383 0)
(1.0002 2.38231e-05 0)
(0.999129 -1.03943e-05 0)
(1.00028 1.60589e-05 0)
(0.99911 -2.12961e-06 0)
(1.00023 3.91276e-05 0)
(0.999058 7.30976e-06 0)
(1.00017 5.54978e-05 0)
(0.998978 1.49003e-05 0)
(1.00008 7.79619e-05 0)
(0.998862 2.41115e-05 0)
(0.999943 0.000112105 0)
(0.998693 3.73488e-05 0)
(0.999743 0.000172818 0)
(0.998433 6.15724e-05 0)
(0.999418 0.000305766 0)
(0.997991 0.000138066 0)
(0.998822 0.000726318 0)
(0.997289 0.000635026 0)
(1.00069 -0.000421045 0)
(0.99909 -0.000222142 0)
(1.00035 2.03767e-05 0)
(0.999031 -1.00935e-05 0)
(1.00043 1.77387e-05 0)
(0.999014 -2.08799e-06 0)
(1.00038 4.20197e-05 0)
(0.998962 8.25775e-06 0)
(1.00032 5.96825e-05 0)
(0.998883 1.65817e-05 0)
(1.00022 8.38312e-05 0)
(0.998768 2.67873e-05 0)
(1.00009 0.000120421 0)
(0.9986 4.16551e-05 0)
(0.999887 0.000185069 0)
(0.998342 6.94536e-05 0)
(0.999564 0.000324916 0)
(0.99791 0.000157091 0)
(0.998983 0.000752669 0)
(0.997251 0.000677132 0)
(1.00105 -0.000325786 0)
(0.998769 -0.000215632 0)
(1.00074 1.74433e-05 0)
(0.998693 -1.00021e-05 0)
(1.00081 1.98726e-05 0)
(0.998675 -2.3637e-06 0)
(1.00076 4.53064e-05 0)
(0.998621 8.92911e-06 0)
(1.0007 6.43427e-05 0)
(0.99854 1.80405e-05 0)
(1.00061 9.02639e-05 0)
(0.998424 2.93264e-05 0)
(1.00048 0.00012939 0)
(0.998256 4.5986e-05 0)
(1.00028 0.000198025 0)
(0.997999 7.77331e-05 0)
(0.99996 0.000344569 0)
(0.997576 0.000177159 0)
(0.999398 0.000777836 0)
(0.99696 0.00071854 0)
(1.00097 -0.000221616 0)
(0.998872 -0.00020338 0)
(1.00069 1.5962e-05 0)
(0.998786 -8.79934e-06 0)
(1.00076 2.26601e-05 0)
(0.998769 -1.97195e-06 0)
(1.00071 4.88741e-05 0)
(0.998715 1.01487e-05 0)
(1.00065 6.9194e-05 0)
(0.998636 2.00466e-05 0)
(1.00055 9.68418e-05 0)
(0.998522 3.24989e-05 0)
(1.00042 0.000138466 0)
(0.998357 5.11637e-05 0)
(1.00022 0.000210977 0)
(0.998106 8.73446e-05 0)
(0.999906 0.000363747 0)
(0.997699 0.000199333 0)
(0.999359 0.000800455 0)
(0.997133 0.0007605 0)
(1.00052 -0.000137459 0)
(0.999348 -0.000193138 0)
(1.00027 1.32135e-05 0)
(0.999255 -8.64418e-06 0)
(1.00032 2.51176e-05 0)
(0.999241 -2.10311e-06 0)
(1.00027 5.22896e-05 0)
(0.999188 1.10624e-05 0)
(1.00021 7.4053e-05 0)
(0.999111 2.19155e-05 0)
(1.00012 0.000103524 0)
(0.998998 3.57235e-05 0)
(0.999981 0.000147691 0)
(0.998836 5.66822e-05 0)
(0.999783 0.000224006 0)
(0.998591 9.78393e-05 0)
(0.999467 0.000382524 0)
(0.998198 0.000223109 0)
(0.998937 0.000820671 0)
(0.997677 0.000802255 0)
(1.00018 -8.69793e-05 0)
(0.99971 -0.000185506 0)
(0.999944 9.78694e-06 0)
(0.999613 -8.41214e-06 0)
(0.999991 2.76943e-05 0)
(0.999599 -1.74718e-06 0)
(0.999939 5.58326e-05 0)
(0.999546 1.25191e-05 0)
(0.999878 7.9074e-05 0)
(0.999469 2.43866e-05 0)
(0.999785 0.000110381 0)
(0.999357 3.96577e-05 0)
(0.999652 0.000157087 0)
(0.999196 6.31275e-05 0)
(0.999454 0.000237125 0)
(0.998954 0.000109698 0)
(0.999142 0.000400985 0)
(0.998572 0.000248647 0)
(0.998633 0.000838993 0)
(0.998086 0.000843224 0)
(1.00004 -5.95644e-05 0)
(0.999863 -0.00017714 0)
(0.999825 7.61159e-06 0)
(0.999763 -8.02601e-06 0)
(0.999864 3.08286e-05 0)
(0.99975 -1.36676e-06 0)
(0.999813 5.96783e-05 0)
(0.999696 1.3934e-05 0)
(0.999753 8.43711e-05 0)
(0.999619 2.68755e-05 0)
(0.99966 0.000117513 0)
(0.999508 4.3761e-05 0)
(0.999527 0.000166747 0)
(0.999347 7.0026e-05 0)
(0.999331 0.000250397 0)
(0.999108 0.000122514 0)
(0.999024 0.000419149 0)
(0.998738 0.000275463 0)
(0.998537 0.000855571 0)
(0.998286 0.00088265 0)
(1.00001 -4.23159e-05 0)
(0.999914 -0.000166894 0)
(0.999807 5.95802e-06 0)
(0.999812 -7.68619e-06 0)
(0.999839 3.38566e-05 0)
(0.999799 -8.18192e-07 0)
(0.999788 6.34251e-05 0)
(0.999745 1.56313e-05 0)
(0.999728 8.967e-05 0)
(0.999668 2.97975e-05 0)
(0.999635 0.000124704 0)
(0.999557 4.84922e-05 0)
(0.999503 0.000176467 0)
(0.999398 7.78599e-05 0)
(0.999309 0.000263604 0)
(0.999162 0.000136762 0)
(0.999008 0.00043675 0)
(0.998804 0.000303913 0)
(0.998543 0.000870161 0)
(0.998387 0.000920812 0)
(0.999998 -2.8646e-05 0)
(0.999933 -0.000155995 0)
(0.999818 4.78897e-06 0)
(0.999831 -7.66806e-06 0)
(0.999842 3.71761e-05 0)
(0.999817 -2.12834e-07 0)
(0.999792 6.74657e-05 0)
(0.999763 1.7445e-05 0)
(0.999732 9.52858e-05 0)
(0.999687 3.29348e-05 0)
(0.99964 0.000132197 0)
(0.999577 5.36034e-05 0)
(0.999508 0.000186438 0)
(0.99942 8.63619e-05 0)
(0.999316 0.000276897 0)
(0.999188 0.000152123 0)
(0.99902 0.000453926 0)
(0.998844 0.00033346 0)
(0.998579 0.000883055 0)
(0.998459 0.000956991 0)
(0.999997 -1.71556e-05 0)
(0.999946 -0.000144733 0)
(0.999834 3.96412e-06 0)
(0.999844 -7.54634e-06 0)
(0.999851 4.05371e-05 0)
(0.99983 7.42946e-07 0)
(0.999802 7.1465e-05 0)
(0.999775 1.96314e-05 0)
(0.999741 0.000100864 0)
(0.999699 3.65698e-05 0)
(0.999649 0.000139646 0)
(0.99959 5.942e-05 0)
(0.999519 0.000196312 0)
(0.999435 9.59015e-05 0)
(0.999328 0.000289914 0)
(0.999209 0.000168965 0)
(0.999039 0.000470317 0)
(0.998878 0.000364301 0)
(0.998622 0.000894064 0)
(0.998526 0.000991252 0)
(0.999997 -7.25152e-06 0)
(0.999955 -0.000133542 0)
(0.999851 3.83839e-06 0)
(0.999855 -7.56781e-06 0)
(0.99986 4.41373e-05 0)
(0.99984 1.78514e-06 0)
(0.999811 7.56645e-05 0)
(0.999786 2.19596e-05 0)
(0.999751 0.000106675 0)
(0.999711 4.0494e-05 0)
(0.999659 0.000147319 0)
(0.999603 6.57387e-05 0)
(0.99953 0.000206347 0)
(0.99945 0.000106261 0)
(0.999341 0.000302898 0)
(0.999228 0.000187 0)
(0.99906 0.000486169 0)
(0.998911 0.000395922 0)
(0.998668 0.000903606 0)
(0.99859 0.00102298 0)
(0.999997 9.69053e-07 0)
(0.999964 -0.000122292 0)
(0.999866 4.17548e-06 0)
(0.999866 -7.46771e-06 0)
(0.999869 4.77038e-05 0)
(0.99985 3.20764e-06 0)
(0.999821 7.98146e-05 0)
(0.999796 2.47292e-05 0)
(0.99976 0.000112441 0)
(0.999721 4.50093e-05 0)
(0.999669 0.000154917 0)
(0.999614 7.28665e-05 0)
(0.99954 0.000216222 0)
(0.999464 0.000117746 0)
(0.999354 0.000315521 0)
(0.999248 0.000206467 0)
(0.999081 0.00050119 0)
(0.998945 0.000428345 0)
(0.998714 0.000911577 0)
(0.998653 0.00105218 0)
(0.999997 7.86688e-06 0)
(0.999971 -0.000111328 0)
(0.99988 5.19975e-06 0)
(0.999876 -7.42356e-06 0)
(0.999877 5.14432e-05 0)
(0.99986 4.8175e-06 0)
(0.999829 8.41263e-05 0)
(0.999806 2.77386e-05 0)
(0.999768 0.000118366 0)
(0.999731 4.99226e-05 0)
(0.999678 0.000162639 0)
(0.999626 8.06197e-05 0)
(0.99955 0.000226137 0)
(0.999478 0.00013016 0)
(0.999368 0.000327988 0)
(0.999267 0.000227081 0)
(0.999103 0.000515624 0)
(0.998979 0.000461057 0)
(0.998762 0.000918406 0)
(0.998715 0.00107836 0)
(0.999997 1.33803e-05 0)
(0.999977 -0.000100558 0)
(0.999894 6.69881e-06 0)
(0.999886 -7.17687e-06 0)
(0.999884 5.51198e-05 0)
(0.999869 6.85085e-06 0)
(0.999837 8.83756e-05 0)
(0.999815 3.12337e-05 0)
(0.999776 0.000124216 0)
(0.999741 5.54909e-05 0)
(0.999687 0.000170249 0)
(0.999637 8.92546e-05 0)
(0.99956 0.000235845 0)
(0.999491 0.000143733 0)
(0.999381 0.000340059 0)
(0.999287 0.000248965 0)
(0.999126 0.000529287 0)
(0.999013 0.000493959 0)
(0.998811 0.000924075 0)
(0.998775 0.00110152 0)
(0.999997 1.78343e-05 0)
(0.999982 -9.02561e-05 0)
(0.999906 8.82484e-06 0)
(0.999895 -6.85069e-06 0)
(0.999891 5.88781e-05 0)
(0.999877 9.16285e-06 0)
(0.999845 9.27227e-05 0)
(0.999823 3.50732e-05 0)
(0.999784 0.000130148 0)
(0.99975 6.15781e-05 0)
(0.999695 0.000177889 0)
(0.999647 9.86317e-05 0)
(0.99957 0.000245492 0)
(0.999505 0.000158289 0)
(0.999395 0.0003519 0)
(0.999306 0.000271825 0)
(0.99915 0.000542399 0)
(0.999047 0.000526553 0)
(0.99886 0.000928955 0)
(0.998834 0.00112136 0)
(0.999997 2.12273e-05 0)
(0.999987 -8.03482e-05 0)
(0.999917 1.13805e-05 0)
(0.999904 -6.22987e-06 0)
(0.999897 6.25346e-05 0)
(0.999884 1.194e-05 0)
(0.999852 9.69985e-05 0)
(0.999831 3.94505e-05 0)
(0.999791 0.000135977 0)
(0.999759 6.83762e-05 0)
(0.999703 0.000185382 0)
(0.999658 0.000108929 0)
(0.99958 0.000254907 0)
(0.999518 0.000173956 0)
(0.999409 0.000363367 0)
(0.999326 0.000295654 0)
(0.999175 0.000554885 0)
(0.999081 0.000558647 0)
(0.99891 0.000933092 0)
(0.998893 0.00113791 0)
(0.999997 2.38385e-05 0)
(0.99999 -7.10258e-05 0)
(0.999927 1.44358e-05 0)
(0.999912 -5.37885e-06 0)
(0.999903 6.61855e-05 0)
(0.999892 1.50879e-05 0)
(0.999859 0.000101309 0)
(0.999838 4.42772e-05 0)
(0.999798 0.000141804 0)
(0.999767 7.57937e-05 0)
(0.999711 0.000192823 0)
(0.999668 0.000120037 0)
(0.99959 0.000264198 0)
(0.999531 0.000190567 0)
(0.999423 0.000374599 0)
(0.999346 0.000320145 0)
(0.999201 0.000566944 0)
(0.999116 0.000589789 0)
(0.998961 0.00093677 0)
(0.99895 0.00115103 0)
(0.999997 2.57012e-05 0)
(0.999993 -6.22231e-05 0)
(0.999936 1.78111e-05 0)
(0.99992 -4.12965e-06 0)
(0.999908 6.9697e-05 0)
(0.999898 1.87371e-05 0)
(0.999865 0.000105534 0)
(0.999846 4.96892e-05 0)
(0.999804 0.000147504 0)
(0.999775 8.39583e-05 0)
(0.999718 0.000200102 0)
(0.999677 0.000132054 0)
(0.9996 0.000273271 0)
(0.999544 0.000208143 0)
(0.999438 0.000385543 0)
(0.999366 0.000345174 0)
(0.999228 0.000578579 0)
(0.999151 0.000619743 0)
(0.999012 0.000940043 0)
(0.999007 0.00116086 0)
(0.999997 2.70301e-05 0)
(0.999995 -5.40449e-05 0)
(0.999943 2.15057e-05 0)
(0.999928 -2.50667e-06 0)
(0.999913 7.31259e-05 0)
(0.999904 2.28294e-05 0)
(0.99987 0.000109735 0)
(0.999852 5.56338e-05 0)
(0.99981 0.000153142 0)
(0.999783 9.28059e-05 0)
(0.999726 0.000207284 0)
(0.999687 0.000144879 0)
(0.99961 0.000282216 0)
(0.999557 0.000226506 0)
(0.999454 0.000396327 0)
(0.999386 0.000370427 0)
(0.999256 0.000589954 0)
(0.999186 0.000648134 0)
(0.999063 0.000943087 0)
(0.999062 0.00116741 0)
(0.999997 2.78699e-05 0)
(0.999997 -4.64197e-05 0)
(0.99995 2.5359e-05 0)
(0.999935 -3.90673e-07 0)
(0.999918 7.63867e-05 0)
(0.99991 2.74467e-05 0)
(0.999876 0.00011384 0)
(0.999859 6.21937e-05 0)
(0.999816 0.000158643 0)
(0.99979 0.000102397 0)
(0.999733 0.000214321 0)
(0.999696 0.000158527 0)
(0.99962 0.000291012 0)
(0.99957 0.000245579 0)
(0.99947 0.000406964 0)
(0.999407 0.000395696 0)
(0.999284 0.00060111 0)
(0.999222 0.000674745 0)
(0.999114 0.000945918 0)
(0.999117 0.00117091 0)
(0.999997 2.83681e-05 0)
(0.999998 -3.93746e-05 0)
(0.999956 2.93241e-05 0)
(0.999941 2.21215e-06 0)
(0.999922 7.95144e-05 0)
(0.999915 3.2551e-05 0)
(0.999881 0.000117884 0)
(0.999865 6.93322e-05 0)
(0.999822 0.000164056 0)
(0.999797 0.000112667 0)
(0.99974 0.000221271 0)
(0.999706 0.000172884 0)
(0.99963 0.000299744 0)
(0.999584 0.000265159 0)
(0.999487 0.000417571 0)
(0.999428 0.000420673 0)
(0.999314 0.00061216 0)
(0.999258 0.000699314 0)
(0.999164 0.000948595 0)
(0.999171 0.00117154 0)
(0.999997 2.8559e-05 0)
(0.999999 -3.28277e-05 0)
(0.999961 3.32649e-05 0)
(0.999947 5.37058e-06 0)
(0.999926 8.24659e-05 0)
(0.99992 3.81804e-05 0)
(0.999886 0.000121834 0)
(0.99987 7.70808e-05 0)
(0.999827 0.000169354 0)
(0.999804 0.000123615 0)
(0.999748 0.000228136 0)
(0.999715 0.000187888 0)
(0.999641 0.000308444 0)
(0.999597 0.000285094 0)
(0.999505 0.000428194 0)
(0.99945 0.000445118 0)
(0.999345 0.000623134 0)
(0.999294 0.000721694 0)
(0.999214 0.00095107 0)
(0.999224 0.00116956 0)
(0.999997 2.85269e-05 0)
(1 -2.67502e-05 0)
(0.999965 3.71179e-05 0)
(0.999953 9.0727e-06 0)
(0.99993 8.52693e-05 0)
(0.999925 4.42986e-05 0)
(0.99989 0.000125715 0)
(0.999876 8.53969e-05 0)
(0.999833 0.000174586 0)
(0.999811 0.000135162 0)
(0.999755 0.000234982 0)
(0.999724 0.000203401 0)
(0.999653 0.000317202 0)
(0.999611 0.000305164 0)
(0.999523 0.000438928 0)
(0.999472 0.000468755 0)
(0.999376 0.00063407 0)
(0.999331 0.000741751 0)
(0.999263 0.000953299 0)
(0.999276 0.00116525 0)
(0.999996 2.82901e-05 0)
(1 -2.10559e-05 0)
(0.999969 4.07823e-05 0)
(0.999958 1.33365e-05 0)
(0.999934 8.79187e-05 0)
(0.999929 5.09043e-05 0)
(0.999895 0.000129528 0)
(0.999881 9.42631e-05 0)
(0.999838 0.000179766 0)
(0.999818 0.000147245 0)
(0.999763 0.000241853 0)
(0.999733 0.000219299 0)
(0.999664 0.000326074 0)
(0.999625 0.000325173 0)
(0.999542 0.000449813 0)
(0.999495 0.000491366 0)
(0.999407 0.000644949 0)
(0.999368 0.000759446 0)
(0.999312 0.000955171 0)
(0.999328 0.00115892 0)
(0.999996 2.78864e-05 0)
(1 -1.56884e-05 0)
(0.999972 4.42076e-05 0)
(0.999963 1.81269e-05 0)
(0.999938 9.04476e-05 0)
(0.999933 5.79493e-05 0)
(0.999899 0.000133306 0)
(0.999886 0.000103614 0)
(0.999844 0.000184957 0)
(0.999825 0.000159758 0)
(0.999771 0.000248821 0)
(0.999743 0.00023542 0)
(0.999677 0.000335138 0)
(0.999639 0.000344903 0)
(0.999562 0.000460891 0)
(0.999518 0.000512743 0)
(0.99944 0.000655723 0)
(0.999405 0.000774772 0)
(0.99936 0.000956573 0)
(0.999378 0.00115086 0)
(0.999996 2.73236e-05 0)
(1 -1.05725e-05 0)
(0.999974 4.73395e-05 0)
(0.999967 2.34129e-05 0)
(0.999941 9.28808e-05 0)
(0.999937 6.53965e-05 0)
(0.999903 0.000137077 0)
(0.999891 0.000113389 0)
(0.99985 0.0001902 0)
(0.999831 0.000172591 0)
(0.999779 0.000255947 0)
(0.999753 0.000251605 0)
(0.99969 0.000344446 0)
(0.999654 0.000364159 0)
(0.999582 0.000472158 0)
(0.999542 0.00053273 0)
(0.999472 0.000666306 0)
(0.999443 0.000787791 0)
(0.999406 0.000957364 0)
(0.999427 0.00114135 0)
(0.999996 2.66165e-05 0)
(1 -5.65452e-06 0)
(0.999976 5.01621e-05 0)
(0.999971 2.91282e-05 0)
(0.999944 9.52625e-05 0)
(0.999941 7.31776e-05 0)
(0.999907 0.000140886 0)
(0.999896 0.000123495 0)
(0.999855 0.000195568 0)
(0.999838 0.000185616 0)
(0.999788 0.000263299 0)
(0.999763 0.000267686 0)
(0.999703 0.000354038 0)
(0.99967 0.000382756 0)
(0.999603 0.000483587 0)
(0.999567 0.000551211 0)
(0.999505 0.000676575 0)
(0.99948 0.000798596 0)
(0.999452 0.000957413 0)
(0.999475 0.00113067 0)
(0.999996 2.5776e-05 0)
(1 -8.86927e-07 0)
(0.999978 5.26724e-05 0)
(0.999974 3.52006e-05 0)
(0.999948 9.76386e-05 0)
(0.999944 8.12247e-05 0)
(0.999911 0.000144781 0)
(0.999901 0.000133836 0)
(0.999861 0.000201111 0)
(0.999845 0.000198699 0)
(0.999797 0.000270924 0)
(0.999773 0.000283501 0)
(0.999717 0.000363923 0)
(0.999686 0.000400538 0)
(0.999625 0.000495103 0)
(0.999592 0.000568113 0)
(0.999538 0.000686388 0)
(0.999518 0.000807317 0)
(0.999496 0.000956592 0)
(0.999522 0.00111902 0)
(0.999996 2.48169e-05 0)
(1 3.75817e-06 0)
(0.999979 5.48963e-05 0)
(0.999977 4.15357e-05 0)
(0.999951 0.000100061 0)
(0.999947 8.94499e-05 0)
(0.999916 0.000148812 0)
(0.999906 0.000144299 0)
(0.999867 0.000206894 0)
(0.999852 0.000211704 0)
(0.999806 0.000278861 0)
(0.999783 0.000298902 0)
(0.999731 0.000374083 0)
(0.999702 0.000417377 0)
(0.999647 0.000506604 0)
(0.999618 0.000583404 0)
(0.99957 0.000695581 0)
(0.999555 0.000814095 0)
(0.999539 0.000954799 0)
(0.999567 0.00110659 0)
(0.999996 2.37653e-05 0)
(1 8.29042e-06 0)
(0.999981 5.6875e-05 0)
(0.999979 4.8035e-05 0)
(0.999954 0.000102581 0)
(0.999951 9.77654e-05 0)
(0.99992 0.000153029 0)
(0.999911 0.000154772 0)
(0.999874 0.000212954 0)
(0.999859 0.000224502 0)
(0.999815 0.000287116 0)
(0.999794 0.000313758 0)
(0.999746 0.000384461 0)
(0.99972 0.000433177 0)
(0.999669 0.000517952 0)
(0.999644 0.000597086 0)
(0.999603 0.000703995 0)
(0.999592 0.00081908 0)
(0.999581 0.000951959 0)
(0.999611 0.00109352 0)
(0.999996 2.26495e-05 0)
(1 1.27039e-05 0)
(0.999982 5.86667e-05 0)
(0.999981 5.45915e-05 0)
(0.999956 0.000105247 0)
(0.999954 0.000106074 0)
(0.999924 0.000157474 0)
(0.999916 0.000165142 0)
(0.99988 0.000219324 0)
(0.999866 0.000236975 0)
(0.999825 0.000295673 0)
(0.999806 0.000327964 0)
(0.999761 0.000394967 0)
(0.999737 0.000447876 0)
(0.999692 0.00052899 0)
(0.99967 0.000609188 0)
(0.999635 0.00071147 0)
(0.999629 0.000822413 0)
(0.999622 0.000948027 0)
(0.999654 0.00107992 0)
(0.999996 2.15137e-05 0)
(1 1.69744e-05 0)
(0.999983 6.03365e-05 0)
(0.999983 6.11019e-05 0)
(0.999959 0.000108101 0)
(0.999957 0.000114285 0)
(0.999928 0.000162174 0)
(0.99992 0.000175304 0)
(0.999887 0.000225998 0)
(0.999874 0.000249022 0)
(0.999835 0.000304477 0)
(0.999817 0.000341435 0)
(0.999776 0.000405482 0)
(0.999755 0.000461434 0)
(0.999715 0.000539546 0)
(0.999697 0.000619752 0)
(0.999667 0.000717874 0)
(0.999665 0.000824222 0)
(0.999661 0.000942991 0)
(0.999694 0.00106585 0)
(0.999996 2.03984e-05 0)
(1 2.10712e-05 0)
(0.999984 6.19517e-05 0)
(0.999985 6.74679e-05 0)
(0.999962 0.000111169 0)
(0.99996 0.000122309 0)
(0.999932 0.00016714 0)
(0.999925 0.000185165 0)
(0.999893 0.000232956 0)
(0.999881 0.000260562 0)
(0.999846 0.000313448 0)
(0.99983 0.000354112 0)
(0.999791 0.000415862 0)
(0.999774 0.000473834 0)
(0.999737 0.00054945 0)
(0.999724 0.000628825 0)
(0.999698 0.000723094 0)
(0.9997 0.000824613 0)
(0.999699 0.000936863 0)
(0.999733 0.00105136 0)
(0.999996 1.93548e-05 0)
(1 2.49541e-05 0)
(0.999984 6.3573e-05 0)
(0.999986 7.36048e-05 0)
(0.999964 0.000114462 0)
(0.999962 0.000130072 0)
(0.999936 0.00017236 0)
(0.99993 0.000194648 0)
(0.9999 0.000240138 0)
(0.999889 0.00027153 0)
(0.999856 0.000322474 0)
(0.999842 0.000365953 0)
(0.999807 0.000425947 0)
(0.999792 0.000485069 0)
(0.99976 0.000558539 0)
(0.99975 0.000636455 0)
(0.999729 0.000727051 0)
(0.999735 0.000823678 0)
(0.999736 0.000929681 0)
(0.99977 0.00103647 0)
(0.999996 1.84214e-05 0)
(1 2.85883e-05 0)
(0.999985 6.52489e-05 0)
(0.999988 7.94428e-05 0)
(0.999967 0.000117972 0)
(0.999965 0.000137509 0)
(0.999941 0.000177795 0)
(0.999935 0.000203694 0)
(0.999907 0.000247465 0)
(0.999898 0.000281883 0)
(0.999867 0.000331425 0)
(0.999855 0.00037693 0)
(0.999823 0.000435575 0)
(0.999811 0.000495138 0)
(0.999783 0.00056667 0)
(0.999777 0.000642682 0)
(0.999759 0.000729695 0)
(0.999768 0.000821487 0)
(0.999771 0.000921493 0)
(0.999806 0.00102121 0)
(0.999996 1.76379e-05 0)
(1 3.19406e-05 0)
(0.999986 6.70105e-05 0)
(0.999989 8.49317e-05 0)
(0.999969 0.00012167 0)
(0.999968 0.000144573 0)
(0.999945 0.000183386 0)
(0.99994 0.000212257 0)
(0.999914 0.00025483 0)
(0.999906 0.000291584 0)
(0.999878 0.000340158 0)
(0.999868 0.000387019 0)
(0.999839 0.000444588 0)
(0.99983 0.000504037 0)
(0.999805 0.000573724 0)
(0.999803 0.000647537 0)
(0.999788 0.000731004 0)
(0.9998 0.000818097 0)
(0.999804 0.000912358 0)
(0.99984 0.00100557 0)
(0.999996 1.70226e-05 0)
(1 3.49926e-05 0)
(0.999987 6.88685e-05 0)
(0.99999 9.0039e-05 0)
(0.999971 0.000125508 0)
(0.999971 0.000151227 0)
(0.999949 0.000189051 0)
(0.999946 0.000220306 0)
(0.999921 0.000262114 0)
(0.999915 0.000300609 0)
(0.999888 0.000348525 0)
(0.999881 0.000396201 0)
(0.999855 0.000452842 0)
(0.999849 0.000511761 0)
(0.999827 0.000579608 0)
(0.999828 0.000651043 0)
(0.999816 0.000730981 0)
(0.99983 0.000813556 0)
(0.999836 0.000902332 0)
(0.999871 0.000989571 0)
(0.999996 1.65885e-05 0)
(1 3.77338e-05 0)
(0.999987 7.08133e-05 0)
(0.999991 9.47498e-05 0)
(0.999973 0.000129419 0)
(0.999974 0.00015745 0)
(0.999953 0.000194693 0)
(0.999951 0.000227814 0)
(0.999928 0.000269187 0)
(0.999923 0.000308928 0)
(0.999899 0.000356384 0)
(0.999894 0.000404447 0)
(0.999871 0.000460209 0)
(0.999868 0.000518295 0)
(0.999849 0.000584257 0)
(0.999853 0.000653216 0)
(0.999843 0.000729645 0)
(0.99986 0.000807908 0)
(0.999866 0.000891472 0)
(0.999902 0.000973216 0)
(0.999996 1.63255e-05 0)
(1 4.01704e-05 0)
(0.999988 7.2817e-05 0)
(0.999992 9.90614e-05 0)
(0.999976 0.000133328 0)
(0.999977 0.000163225 0)
(0.999957 0.000200206 0)
(0.999956 0.00023476 0)
(0.999935 0.000275921 0)
(0.999932 0.000316514 0)
(0.99991 0.000363603 0)
(0.999907 0.000411727 0)
(0.999886 0.000466586 0)
(0.999886 0.000523623 0)
(0.99987 0.000587628 0)
(0.999876 0.000654073 0)
(0.999869 0.000727028 0)