/*--------------------------------*- C++ -*----------------------------------*\
| =========                 |                                                 |
| \\      /  F ield         | OpenFOAM: The Open Source CFD Toolbox           |
|  \\    /   O peration     | Version:  v1912                                 |
|   \\  /    A nd           | Website:  www.openfoam.com                      |
|    \\/     M anipulation  |                                                 |
\*---------------------------------------------------------------------------*/
FoamFile
{
    version     2.0;
    format      ascii;
    class       volScalarField;
    location    "700";
    object      alphat;
}
// * * * * * * * * * * * * * * * * * * * * * * * * * * * * * * * * * * * * * //

dimensions      [0 2 -1 0 0 0 0];


internalField   nonuniform List<scalar> 
4000
(
0.000451141
0.000426332
0.00039103
0.000311891
0.00015516
0.000135206
0.000122252
0.000119493
0.000136509
9.44729e-05
0.000154589
0.000116954
0.00011367
0.000119359
0.000133505
0.000157797
0.000331142
0.000397739
0.000430448
0.000454519
0.000475404
0.000448488
0.000401619
0.000346119
0.000292478
0.000200479
0.000157772
0.000156594
0.000160853
0.000136428
0.000189366
0.000161048
0.000155924
0.000156439
0.000202046
0.00029549
0.000353294
0.000404015
0.00045044
0.000478165
0.000490772
0.000469486
0.000425232
0.000373752
0.000332714
0.000289528
0.000247354
0.000171231
0.000177839
0.000181668
0.000189703
0.000180314
0.000179281
0.000249544
0.00028991
0.000332961
0.000374191
0.000425172
0.000470503
0.000493042
0.000500343
0.000485511
0.000449516
0.000402042
0.000354207
0.000313343
0.000274047
0.000230864
0.000183812
0.000198492
0.000195382
0.00019011
0.000237077
0.000277518
0.00031501
0.000354875
0.000400875
0.000449822
0.000486501
0.000502293
0.000507773
0.000500888
0.000478696
0.000445888
0.000406819
0.000362323
0.000321974
0.000279439
0.000237151
0.000218032
0.000223514
0.000245783
0.000286789
0.000328088
0.000367611
0.000410619
0.000447217
0.000479718
0.000502023
0.00050952
0.000514608
0.000516874
0.000508821
0.000494417
0.000478048
0.000460318
0.000441813
0.000421944
0.000403327
0.000387541
0.000390189
0.000407166
0.000425502
0.000444935
0.000463034
0.000480324
0.000496164
0.000510329
0.000518388
0.000516224
0.000522166
0.000534096
0.000539372
0.000539756
0.000537667
0.00053253
0.000524489
0.000513278
0.00049921
0.000481182
0.000481871
0.000499761
0.000514185
0.000525705
0.000533978
0.000539248
0.00054138
0.000541006
0.000535765
0.000523673
0.000531029
0.000552779
0.000569372
0.000580475
0.000587798
0.000590673
0.000589244
0.000582648
0.000570131
0.000549297
0.000548978
0.000569233
0.000582317
0.000589471
0.000591397
0.00058891
0.00058189
0.000570972
0.000554474
0.000532418
0.000542392
0.000575414
0.000602064
0.000621727
0.000636247
0.000644966
0.000648284
0.000644995
0.00063313
0.000608933
0.000607899
0.000631356
0.000643989
0.000648037
0.000645347
0.000637103
0.000622969
0.000603558
0.000577006
0.000543645
0.000558933
0.000602292
0.000636968
0.000662386
0.000681968
0.000696185
0.000705201
0.000708021
0.000702231
0.00068068
0.000678983
0.000700117
0.000706657
0.000704537
0.000696118
0.000682402
0.00066324
0.000638139
0.000603624
0.000560001
0.000426364
0.000416624
0.00037828
0.000298879
0.000189106
0.000189429
0.000162016
0.000138521
9.64029e-05
0.000251841
9.31448e-05
0.000167518
0.000144711
0.000160048
0.000187408
0.000190746
0.000325044
0.000389295
0.000426544
0.000432339
0.00044854
0.000658388
0.000541915
0.00042538
0.000402646
0.000389623
0.000360586
0.00034208
0.000378734
0.000438091
0.000409018
0.000373702
0.000341204
0.000365895
0.000389607
0.000401494
0.000439431
0.000561199
0.000660541
0.000453893
0.000469538
0.000741211
0.000756357
0.000609011
0.000508158
0.000458306
0.000425349
0.000400399
0.000411034
0.000484005
0.000469717
0.000401226
0.000402547
0.00042847
0.00045993
0.000512542
0.000619753
0.000770649
0.000737649
0.000473957
0.000485553
0.000718204
0.000743261
0.000659763
0.00055403
0.000480589
0.000427596
0.000391636
0.000406666
0.000493586
0.000477865
0.000396132
0.000395136
0.000431408
0.000484385
0.000558714
0.000665361
0.000747884
0.000721296
0.000489346
0.000500918
0.0007247
0.000746251
0.00066711
0.000556852
0.00047455
0.000415634
0.000367326
0.000343199
0.000378545
0.000372834
0.00034176
0.00037143
0.000420312
0.000478697
0.000559994
0.000668911
0.000751276
0.000730119
0.000504051
0.000516887
0.000744918
0.000779089
0.000730703
0.000629582
0.000522745
0.000457198
0.000403142
0.000366874
0.000361278
0.000361961
0.000369148
0.000405485
0.000459961
0.00052409
0.000630802
0.000732191
0.000783703
0.000750623
0.000519377
0.000534096
0.000763555
0.000812754
0.000810101
0.000768432
0.000686729
0.000584431
0.00051184
0.000469218
0.000448563
0.000450726
0.000472153
0.000513912
0.000587787
0.000689643
0.000770765
0.000813109
0.000817129
0.000768991
0.00053599
0.000552772
0.000773115
0.000836947
0.000885255
0.000921279
0.000925991
0.000901946
0.000840625
0.000760593
0.00067819
0.000681631
0.000763511
0.000844081
0.000904086
0.000929218
0.000925419
0.000890333
0.000841456
0.000778141
0.000554242
0.000575403
0.00075586
0.000847005
0.000915715
0.00096443
0.000980256
0.000974631
0.000941768
0.000871155
0.000760961
0.000759697
0.000865802
0.000939267
0.000974783
0.000982352
0.000967408
0.000919678
0.000851119
0.000759914
0.000576557
0.000602278
0.000650667
0.000690977
0.00072217
0.000747594
0.000767312
0.000781129
0.000787356
0.000782908
0.00076177
0.000759445
0.000780369
0.00078562
0.000780165
0.000767006
0.000747822
0.000722822
0.000691905
0.000651672
0.000602918
0.000391074
0.000378287
0.000330135
0.000216606
0.000215327
0.000217512
0.000183204
0.000157757
0.000188617
0.000102994
0.000211917
0.000113684
0.000168134
0.000184983
0.000217093
0.000210134
0.000221175
0.000349676
0.000389608
0.000399629
0.000401684
0.000541987
0.000473606
0.000444155
0.000474308
0.000460398
0.000424813
0.00041422
0.000445871
0.000501255
0.000495982
0.000433219
0.000417072
0.000427516
0.000462298
0.00047453
0.000448031
0.000492344
0.000565446
0.000408607
0.000425321
0.000756562
0.000734489
0.000635392
0.000572015
0.000540239
0.000519777
0.000493645
0.000495685
0.000564561
0.000549374
0.000489649
0.000494868
0.000522421
0.000543822
0.00057954
0.000650644
0.000762833
0.000784364
0.000431786
0.000449598
0.000743373
0.000808524
0.000737848
0.00064551
0.00057732
0.000530297
0.000505231
0.000524881
0.000584224
0.000571012
0.000515858
0.000506719
0.000534738
0.000583461
0.000654122
0.000750041
0.000823854
0.000754674
0.000455406
0.000478747
0.000746365
0.00080678
0.000750665
0.00064933
0.000567472
0.000508378
0.00046679
0.000461673
0.00053648
0.000532924
0.000459368
0.000469936
0.00051286
0.000571895
0.000653934
0.000757322
0.000819315
0.000759376
0.000483285
0.000508846
0.000779183
0.000852625
0.000809203
0.000690087
0.000574921
0.000495179
0.000434356
0.000394692
0.000397699
0.000396134
0.000393481
0.000435262
0.000496762
0.000575662
0.000690943
0.000813214
0.000863201
0.000791032
0.00051228
0.000539376
0.000812831
0.0009072
0.00089444
0.000793436
0.000669041
0.000563233
0.000485267
0.000431936
0.000409168
0.00040906
0.000431351
0.000484611
0.000563033
0.000668289
0.000792903
0.000898163
0.000916927
0.000823658
0.000541689
0.000569365
0.000837005
0.000968062
0.00102112
0.000999221
0.000921788
0.000843659
0.000763365
0.00067868
0.000591252
0.000589643
0.000676766
0.000763215
0.000844202
0.000922605
0.00100025
0.00102615
0.000977787
0.000846797
0.000570926
0.000602052
0.000847037
0.00105941
0.00124028
0.00135518
0.00138364
0.00137807
0.00133647
0.00123436
0.00103359
0.00103122
0.00122517
0.00133275
0.0013787
0.00138702
0.00135975
0.00124763
0.00106778
0.000854339
0.000603212
0.00063695
0.00069097
0.00073627
0.000772505
0.00080295
0.00082735
0.000845323
0.000854596
0.000851497
0.000828719
0.000825779
0.000848569
0.000852539
0.000844075
0.000826794
0.000802941
0.000772926
0.000736945
0.000691691
0.000637351
0.000312193
0.000298895
0.000216535
0.00022214
0.000235621
0.000222545
0.000198842
0.000180507
0.000168545
0.000156869
0.000159542
0.000164654
0.000182018
0.000200572
0.000223953
0.000236132
0.000218677
0.000233526
0.000326852
0.000336756
0.00034623
0.000425446
0.000444193
0.000489886
0.000514129
0.000489961
0.000467388
0.000466153
0.000498958
0.000564899
0.000549736
0.00049129
0.000466835
0.000470202
0.00049298
0.000517855
0.000489821
0.000443175
0.000442241
0.000357942
0.000373827
0.00060918
0.000635449
0.000612149
0.000592488
0.000586388
0.000573363
0.000549367
0.000563249
0.000631085
0.000614064
0.000554868
0.000550119
0.000575814
0.000590059
0.000599988
0.000623762
0.000653617
0.000632247
0.000379953
0.00040215
0.000659972
0.000737952
0.000713674
0.000663132
0.00062102
0.000591782
0.000580161
0.000599421
0.000653549
0.000641274
0.000590806
0.000580205
0.000596443
0.000628654
0.000674182
0.000728578
0.000756926
0.000678708
0.000408286
0.000445957
0.000667343
0.000750817
0.000738569
0.000680554
0.000622195
0.000576341
0.000546828
0.000556219
0.000643267
0.000638082
0.000554065
0.000550278
0.000582182
0.000629255
0.000689427
0.000751006
0.000767932
0.000685397
0.000451961
0.000494448
0.000730902
0.000809373
0.000796844
0.000720844
0.000632297
0.000560961
0.00050604
0.00047367
0.000488675
0.000487083
0.000472743
0.000508276
0.00056467
0.000636736
0.000727253
0.00080788
0.000826509
0.000748185
0.000498663
0.000539762
0.000810232
0.000894601
0.000894345
0.000821624
0.000713946
0.000616603
0.000538386
0.000478207
0.000451657
0.000449927
0.000476409
0.000538593
0.000618201
0.000716549
0.000827175
0.000905607
0.000911897
0.000825459
0.000542279
0.000580468
0.000885306
0.00102123
0.00107917
0.00105748
0.000976883
0.000890534
0.000804331
0.000710638
0.000614651
0.000610304
0.000707384
0.000804088
0.000892505
0.000980806
0.00106528
0.0010935
0.00103744
0.000897226
0.000581974
0.000621714
0.000915756
0.00124033
0.00152585
0.00165645
0.00167963
0.00167279
0.00161634
0.00147554
0.00124595
0.00123408
0.00146864
0.00161482
0.00167542
0.00168588
0.00166576
0.0015391
0.00125314
0.000924863
0.000622742
0.000662367
0.000722159
0.0007725
0.000813993
0.00085021
0.000880495
0.000903467
0.000916502
0.000915555
0.00089642
0.000892584
0.000912258
0.000914134
0.000901929
0.000879675
0.000849966
0.000814167
0.000772863
0.00072253
0.000662486
0.000155195
0.000188575
0.000214983
0.000235722
0.000233736
0.000221459
0.000205949
0.00019071
0.000178243
0.00017318
0.000172867
0.000179369
0.000192824
0.000207923
0.00022344
0.00023536
0.000235507
0.000210349
0.00019206
0.000161137
0.000292493
0.000402638
0.000474325
0.000514167
0.000516737
0.000505069
0.000494959
0.000499424
0.000542167
0.000628543
0.000609905
0.000530758
0.000500089
0.000499037
0.000509616
0.000522322
0.000518318
0.000472669
0.000403064
0.000300094
0.000332757
0.000508254
0.000572068
0.000592514
0.000603701
0.000609954
0.000597295
0.000578161
0.000603157
0.000691899
0.000672024
0.000592241
0.000579545
0.00060086
0.000613911
0.000609589
0.000601052
0.000582369
0.000520317
0.000338414
0.000354304
0.000554197
0.000645622
0.000663176
0.000651975
0.000637366
0.000626876
0.000623206
0.00063967
0.0007075
0.000693561
0.000631753
0.000622859
0.000630857
0.000644616
0.000662457
0.000676448
0.000660639
0.000568721
0.000361355
0.000406891
0.000557083
0.000649514
0.000680631
0.000667678
0.000640479
0.000614486
0.00060025
0.000623662
0.000706807
0.000699144
0.000620238
0.000603581
0.000621047
0.000649066
0.000678417
0.000693882
0.000665201
0.00057439
0.000416109
0.000478077
0.000629845
0.000690364
0.000720991
0.000701874
0.000655856
0.000608137
0.000569697
0.000556279
0.000600582
0.000600806
0.000557466
0.000574498
0.00061526
0.000665043
0.000714029
0.000737341
0.000710731
0.000650008
0.000482926
0.000537676
0.00076861
0.000793755
0.000821841
0.000805469
0.000744859
0.000673373
0.000608439
0.000559266
0.000553857
0.000554566
0.00056072
0.000612886
0.000680573
0.000755296
0.000820991
0.000843348
0.000818091
0.000787195
0.000540241
0.000587793
0.00092133
0.00099953
0.0010577
0.00105996
0.00100599
0.000936486
0.000860085
0.000768155
0.000671541
0.000667972
0.000767087
0.000863194
0.000943932
0.00101765
0.0010776
0.00108222
0.00102514
0.000934857
0.000589112
0.000636234
0.000964471
0.00135527
0.00165657
0.00180045
0.00188465
0.00191982
0.00187978
0.00171719
0.00143794
0.00142523
0.00170694
0.00187602
0.00192304
0.00189355
0.00181438
0.00167477
0.00136952
0.000973862
0.000637008
0.000681949
0.000747581
0.000802941
0.000850207
0.000893945
0.000930832
0.000959728
0.00097802
0.000981948
0.000969482
0.000965121
0.000978212
0.00097526
0.000957783
0.000929597
0.000893345
0.000850004
0.000802863
0.00074751
0.000681728
0.000135154
0.000187553
0.000216976
0.000222457
0.00022141
0.000215771
0.000206988
0.000196455
0.000187411
0.000186179
0.000185558
0.000189176
0.000199242
0.00020977
0.00021857
0.000224159
0.000225195
0.000218971
0.000188589
0.000136762
0.000199925
0.000389429
0.000460466
0.000490032
0.000505144
0.000509643
0.000512109
0.000524419
0.000575802
0.000668289
0.000648928
0.000562762
0.000525124
0.000517374
0.000516292
0.000511863
0.000497534
0.000468673
0.000397838
0.000213487
0.00028953
0.00045831
0.000540259
0.000586416
0.000609988
0.000613617
0.000600251
0.000590642
0.000628085
0.000714959
0.000694527
0.000615246
0.000592593
0.000605779
0.000619028
0.000615222
0.000591734
0.000546336
0.000464405
0.000294919
0.000313414
0.000480701
0.000577418
0.000621086
0.000637405
0.000642938
0.000643013
0.00063945
0.00065723
0.000718027
0.000705459
0.000649843
0.000640086
0.000646448
0.000648908
0.000645747
0.000631107
0.000587944
0.000490348
0.000319377
0.000362431
0.00047471
0.000567622
0.000622291
0.000640522
0.000639043
0.00063127
0.000631322
0.000663919
0.000728329
0.000722281
0.000659553
0.000634032
0.000637533
0.000647343
0.000650413
0.000633177
0.000578706
0.000485979
0.000373144
0.000460331
0.00052293
0.000575151
0.00063247
0.000655931
0.000648558
0.000627976
0.000610508
0.000619841
0.000681875
0.000683134
0.000622415
0.000617025
0.000637111
0.000659699
0.0006689
0.000646719
0.000589309
0.000535008
0.000465396
0.000532538
0.000686947
0.000669346
0.000714223
0.000744996
0.000732748
0.000694881
0.000653222
0.000629009
0.000658139
0.000662337
0.000634849
0.000662221
0.000707143
0.000748518
0.000764543
0.000736313
0.000691064
0.000707749
0.000534987
0.000590673
0.00092605
0.000922012
0.000977148
0.00100612
0.000991676
0.000953555
0.000894991
0.000808954
0.000717477
0.000717165
0.000811867
0.000902063
0.000965412
0.00100884
0.00102793
0.00100209
0.000944504
0.000940542
0.000591701
0.000644957
0.000980287
0.00138372
0.00167972
0.00188468
0.00202253
0.00208735
0.00203869
0.00181763
0.00143135
0.00142161
0.00181005
0.00203576
0.00208862
0.0020293
0.0018974
0.00169543
0.00139767
0.000988812
0.00064535
0.000696169
0.000767298
0.000827339
0.000880488
0.000930828
0.000974044
0.00100889
0.00103288
0.00104313
0.00103907
0.00103428
0.00103922
0.0010299
0.00100659
0.000972271
0.000929645
0.00087971
0.000826691
0.000766703
0.000695555
0.000121196
0.00015977
0.00018448
0.000199174
0.000205719
0.000206893
0.000204293
0.000199869
0.000196734
0.000202096
0.000201313
0.000198552
0.000203108
0.00020775
0.000210386
0.00020919
0.000202473
0.0001888
0.000164451
0.000121996
0.00015587
0.000360339
0.000424676
0.000467215
0.000494897
0.000512096
0.000525618
0.000549973
0.000610542
0.000695755
0.000679821
0.000597363
0.000550289
0.000531387
0.000519477
0.000502761
0.000475571
0.000434727
0.000373865
0.000159201
0.00024844
0.000425592
0.000519863
0.000573413
0.000597352
0.00060029
0.000594856
0.000601023
0.000644256
0.000670847
0.000661568
0.000632303
0.000602392
0.000601726
0.000608206
0.000605008
0.000580659
0.000527464
0.000433829
0.000254261
0.00027435
0.000427763
0.000530426
0.000591884
0.000626959
0.000643066
0.000643477
0.00063981
0.000657494
0.00062743
0.000630576
0.000652723
0.000642048
0.000648021
0.000648425
0.00063359
0.000599694
0.000538788
0.000436032
0.000281115
0.00032211
0.000415771
0.000508515
0.000576451
0.000614563
0.000631311
0.00063775
0.000648031
0.000672908
0.000619627
0.000628335
0.000671004
0.000650233
0.00064325
0.000638515
0.000622758
0.000584941
0.000516741
0.000424734
0.000332899
0.000441791
0.000457317
0.000495355
0.000561123
0.000608242
0.000628023
0.000630822
0.000633274
0.000650321
0.000609482
0.000619335
0.000654419
0.000639921
0.000639923
0.000638419
0.000619014
0.000571334
0.000504516
0.000466332
0.000447061
0.000524482
0.00058457
0.000563451
0.000616844
0.000673549
0.000694959
0.000686718
0.00067121
0.000671406
0.000659965
0.0006694
0.000679917
0.000682449
0.000700785
0.000711158
0.000690788
0.000633335
0.000578011
0.000600562
0.000526701
0.000589254
0.000902002
0.000843828
0.00089075
0.000936646
0.000953624
0.000940241
0.000892291
0.000808811
0.000716238
0.000719484
0.000815192
0.000901676
0.00095295
0.000970016
0.000955225
0.000909453
0.000859938
0.000916461
0.000589921
0.000648284
0.000974647
0.00137812
0.00167282
0.00191984
0.00208735
0.00215171
0.00205287
0.00171637
0.00115759
0.00115349
0.00171813
0.00205546
0.00215366
0.00209104
0.00192706
0.00168243
0.00138763
0.000980943
0.000648195
0.000705192
0.00078112
0.000845312
0.000903457
0.00095972
0.00100889
0.0010499
0.00108091
0.00110136
0.00111437
0.00110895
0.00109737
0.0010778
0.00104731
0.00100668
0.000957927
0.000902005
0.000844016
0.000779954
0.000704154
0.000114807
0.000147478
0.000168896
0.000180927
0.000190782
0.000196543
0.000199935
0.00020323
0.000208066
0.000220202
0.000219234
0.00020972
0.000206546
0.000203633
0.000200283
0.000194367
0.000184236
0.000173601
0.000145787
0.000113707
0.000153092
0.000343734
0.000413448
0.000466636
0.000499694
0.000524556
0.000550054
0.000587103
0.000620585
0.000548207
0.000538352
0.000612191
0.000586338
0.000553884
0.000530215
0.000505891
0.000472776
0.000420796
0.000345067
0.0001554
0.000172903
0.000401889
0.000494214
0.00054964
0.000578344
0.000590769
0.000601102
0.000620741
0.000588987
0.000394435
0.000390769
0.000589528
0.000621674
0.000606305
0.000598234
0.000586425
0.000557721
0.000502338
0.000406256
0.000186137
0.000231986
0.000392264
0.000505563
0.000580378
0.000623382
0.00063958
0.000639885
0.000637289
0.000550069
0.00035786
0.000354152
0.00056166
0.000641995
0.000645672
0.000645437
0.000628701
0.000585598
0.00051146
0.000399517
0.00024073
0.000279663
0.000367579
0.000466986
0.000546985
0.000600371
0.00063141
0.000648085
0.000650974
0.000534549
0.000405965
0.000392119
0.000548662
0.00065583
0.000652395
0.000636371
0.00060573
0.000552454
0.000472594
0.000375291
0.00029174
0.000421831
0.00040325
0.000434529
0.000506206
0.00056982
0.000610582
0.000633307
0.000639484
0.000515699
0.000463871
0.000446214
0.000529895
0.000647156
0.000640598
0.00061824
0.000577018
0.000512535
0.000440485
0.000410556
0.000427246
0.00051319
0.000511868
0.000485397
0.00053857
0.000608606
0.000653327
0.000671254
0.000677992
0.000597747
0.00055473
0.000542443
0.000612228
0.000689559
0.000683991
0.000666611
0.000621064
0.000549006
0.000493784
0.000520804
0.000515169
0.000582661
0.000840638
0.000763463
0.000804484
0.000860224
0.000895077
0.000892331
0.000844348
0.000755618
0.000689374
0.0006813
0.000764393
0.000855161
0.000904298
0.000908099
0.000873593
0.000817276
0.000775734
0.0008571
0.00058296
0.000645011
0.000941795
0.0013365
0.00161631
0.00187979
0.00203871
0.00205289
0.00183098
0.00135258
0.00115562
0.00114105
0.00136656
0.00184487
0.00206001
0.00204249
0.00188351
0.0016219
0.00134292
0.000946603
0.000644428
0.000708028
0.000787359
0.000854594
0.000916496
0.000978014
0.00103288
0.00108091
0.00112262
0.00116359
0.00121911
0.00121231
0.00115901
0.00111915
0.00107793
0.00103019
0.000975594
0.00091437
0.000852643
0.000785595
0.000706525
0.000107405
0.000199048
0.00012159
0.000163037
0.00017724
0.00018729
0.000196766
0.000208097
0.000216258
0.000229689
0.000229199
0.000217778
0.000210609
0.000199727
0.00019048
0.00018062
0.000166143
0.000121996
0.000206355
0.000107808
0.000150875
0.000385009
0.000442679
0.000498156
0.000542043
0.000575894
0.00061073
0.000620748
0.000481333
0.000533647
0.000525802
0.000479887
0.000619312
0.000607687
0.000573062
0.000540261
0.000498981
0.000439253
0.000377164
0.000153621
0.000176175
0.000411565
0.000495395
0.000563242
0.000603258
0.00062825
0.000644472
0.000589141
0.000368146
0.000664733
0.000647295
0.000369453
0.000596067
0.000643583
0.000626292
0.000602302
0.000563997
0.000496171
0.000404049
0.000178823
0.000182064
0.000406678
0.000525051
0.000599605
0.000639856
0.000657406
0.000657675
0.000550186
0.000372304
0.000914443
0.000885038
0.000367974
0.000566378
0.00066179
0.000658737
0.000640321
0.000598633
0.000522195
0.000399656
0.000194585
0.00023599
0.000343125
0.000461849
0.000556394
0.000623816
0.000664057
0.000673047
0.000534643
0.000444748
0.00122633
0.0011822
0.000428439
0.000552035
0.000676812
0.000663209
0.0006211
0.000552331
0.000457101
0.000343229
0.000250216
0.000403057
0.000366896
0.000394857
0.000473845
0.000556412
0.000619925
0.000650388
0.000515749
0.00052249
0.00152037
0.00146334
0.000495891
0.000531078
0.000655016
0.00062099
0.000555856
0.000472695
0.000395009
0.000371272
0.000408641
0.000499064
0.000469139
0.000431991
0.000478345
0.00055941
0.000629109
0.000671466
0.000597783
0.000631806
0.00171963
0.00165623
0.000606054
0.000612345
0.000680254
0.000636375
0.000565084
0.000482609
0.000436377
0.00047577
0.000500757
0.000570147
0.000760536
0.000678724
0.000710761
0.000768292
0.000809064
0.000808888
0.000755665
0.000797612
0.00180886
0.00174672
0.000777753
0.000766529
0.000819606
0.000819131
0.000777606
0.000719711
0.000688561
0.000775128
0.000569966
0.000633169
0.000871252
0.0012345
0.00147566
0.00171734
0.00181781
0.00171657
0.00135275
0.00122404
0.00174003
0.00169931
0.0012057
0.00137277
0.0017316
0.00182479
0.00172048
0.00147931
0.00123881
0.00087448
0.000631976
0.000702263
0.000782935
0.000851516
0.000915566
0.000981954
0.00104312
0.00110135
0.00116357
0.00124625
0.0013531
0.00134553
0.00123958
0.00115877
0.00109745
0.00103963
0.000978715
0.000912631
0.000848796
0.000780452
0.000700186
0.000169348
8.32897e-05
0.000223482
0.000163088
0.000173265
0.000185959
0.000202128
0.000220293
0.000229756
0.000237997
0.000238034
0.000230421
0.000220926
0.000202955
0.000187005
0.000174258
0.000163955
0.000227322
8.72933e-05
0.000161157
0.000184515
0.000423465
0.0005108
0.000565199
0.000629065
0.00066855
0.000696001
0.000548381
0.000533764
0.000353983
0.000353233
0.000531704
0.000547212
0.000690428
0.000659365
0.000619417
0.000557539
0.00050183
0.000413044
0.00018369
0.00018735
0.000482943
0.000565078
0.00063116
0.000692042
0.00071511
0.000671081
0.000394548
0.000664798
0.000516043
0.000514045
0.000656187
0.000397066
0.000671685
0.00070585
0.000682064
0.000620975
0.000554975
0.000471574
0.000188369
0.000197189
0.000493232
0.000584316
0.00065365
0.000707632
0.000718184
0.000627664
0.000357927
0.000914434
0.000689702
0.000687326
0.000895683
0.000359038
0.000636166
0.000712469
0.000698764
0.000644399
0.000576745
0.000481049
0.000196345
0.000210439
0.000377004
0.000536374
0.000643315
0.000706927
0.000728481
0.000619847
0.000405974
0.00122622
0.00088789
0.000886076
0.00119376
0.0003986
0.000628783
0.000721595
0.00069355
0.000623099
0.000510682
0.000361152
0.000229195
0.000386684
0.00036077
0.000397695
0.000488777
0.000600662
0.000681952
0.000609643
0.000463773
0.0015201
0.00110464
0.00110423
0.00147332
0.000448975
0.000613723
0.000671282
0.000584924
0.000474017
0.000388256
0.000361731
0.000392615
0.000481097
0.000448414
0.000409151
0.000451727
0.000553935
0.000658192
0.000660073
0.000554592
0.00171926
0.00131984
0.00132229
0.00166473
0.000541644
0.000664479
0.000654715
0.000548696
0.000447875
0.000409436
0.000453597
0.000482421
0.000549338
0.000678181
0.000591342
0.000614797
0.000671698
0.000717615
0.000716364
0.000689261
0.0018084
0.00147787
0.00148355
0.00175173
0.000680793
0.000723352
0.000723241
0.000676091
0.000619583
0.000598362
0.000690108
0.000548487
0.000608997
0.000761183
0.001034
0.00124636
0.0014384
0.00143187
0.00115805
0.00115547
0.00173965
0.00159189
0.00159569
0.00169883
0.00113961
0.00116907
0.00144269
0.00143974
0.00124607
0.00103816
0.000762081
0.000606913
0.000680745
0.00076183
0.000828777
0.000896469
0.000969514
0.00103908
0.00111434
0.00121904
0.00135301
0.00138151
0.00138672
0.00134489
0.00121125
0.00110836
0.00103427
0.000965153
0.000892426
0.000825196
0.000758518
0.000677833
9.24973e-05
0.000210075
9.72963e-05
0.000157503
0.000172856
0.000185797
0.000201449
0.000219269
0.000229196
0.000238026
0.000237843
0.000229609
0.000219922
0.000202064
0.000186482
0.000173922
0.00015887
9.9198e-05
0.000214467
8.82186e-05
0.000137598
0.000421283
0.000486313
0.000550446
0.000609735
0.000648629
0.000679609
0.000538326
0.000525732
0.000353276
0.000353864
0.00052926
0.000543699
0.000684377
0.000652751
0.000613749
0.000553625
0.000488764
0.00042161
0.000138653
0.000179708
0.000469489
0.000548742
0.000613925
0.000671758
0.000694219
0.000661564
0.000390881
0.000646899
0.000514072
0.000514341
0.000648552
0.000394451
0.000666487
0.000697427
0.000674666
0.00061622
0.000549896
0.000468255
0.000181828
0.000195623
0.000478069
0.000570854
0.000641153
0.000693342
0.000705322
0.000630847
0.000354209
0.000884249
0.000687352
0.000686816
0.000880835
0.000355078
0.000634097
0.000704934
0.000691359
0.000639689
0.000572002
0.000476382
0.000196678
0.000220813
0.000372374
0.000532945
0.000638053
0.000699065
0.00072227
0.000628739
0.000391854
0.00118091
0.000886119
0.000884376
0.00116896
0.000388021
0.00062837
0.000715087
0.000687492
0.000619046
0.000507784
0.000359414
0.000236774
0.00038988
0.000361895
0.000396161
0.000487086
0.000600853
0.000683226
0.000619718
0.000445792
0.0014616
0.00110431
0.00110118
0.00143929
0.000434827
0.000613036
0.000666606
0.000580729
0.000470371
0.000386549
0.000363291
0.000394834
0.000481916
0.000450802
0.000409101
0.000449921
0.000554608
0.000662451
0.000669692
0.0005421
0.00165427
0.00132244
0.00131845
0.00162481
0.00052858
0.000662684
0.00065126
0.000545095
0.000445072
0.00040949
0.000455864
0.000482675
0.000549028
0.0006818
0.00058971
0.000610314
0.000667977
0.000717209
0.000719602
0.000681021
0.00174477
0.00148379
0.00148006
0.00171013
0.00067046
0.000719658
0.000718725
0.000670914
0.00061536
0.000596932
0.000692356
0.000547701
0.000607925
0.000759832
0.00103146
0.0012341
0.00142521
0.00142168
0.00115374
0.00114057
0.00169799
0.00159588
0.00159084
0.00167142
0.00112654
0.0011653
0.00143644
0.00142959
0.00123627
0.00103472
0.000759503
0.000605374
0.000678981
0.000759417
0.00082573
0.000892495
0.000964997
0.00103412
0.00110875
0.00121203
0.00134522
0.00138684
0.00138412
0.00133724
0.0012044
0.00110275
0.00102939
0.000960719
0.00088845
0.00082195
0.000755758
0.000675586
0.000118403
0.000113421
0.000200683
0.00016969
0.000179369
0.000189101
0.00019857
0.000209743
0.000217791
0.000230414
0.000229619
0.000217552
0.000209956
0.000198921
0.00018967
0.000180354
0.00017079
0.000196466
0.000108008
0.000128494
0.000153325
0.000370206
0.000437965
0.000491747
0.000530816
0.000562636
0.000597208
0.000612125
0.000479947
0.000531694
0.000529379
0.000480831
0.000615271
0.000600764
0.00056625
0.000534427
0.000495359
0.000439721
0.000368843
0.000158298
0.00017524
0.000400915
0.00049031
0.000554956
0.000592175
0.000615127
0.000632206
0.00058968
0.000369547
0.00065594
0.000648772
0.000369641
0.000593518
0.000635877
0.00061891
0.000596303
0.000559194
0.000494529
0.000400355
0.00017662
0.000190409
0.000396293
0.000515926
0.000590792
0.000631715
0.000649807
0.000652744
0.00056202
0.000367891
0.000895127
0.000881113
0.000364969
0.00056584
0.000654843
0.000651672
0.000633815
0.000592655
0.000517226
0.0003956
0.000196935
0.000246248
0.000342044
0.000459532
0.000554139
0.000620252
0.000659541
0.000671052
0.000549074
0.000428017
0.00119278
0.00116927
0.00041874
0.000551583
0.000669325
0.000655535
0.000614907
0.000547826
0.000453626
0.000341637
0.000255887
0.000407322
0.000369374
0.00039356
0.000472774
0.000557526
0.000622496
0.000654536
0.000530279
0.000495177
0.00147193
0.00143959
0.000479831
0.000530635
0.000649468
0.000615852
0.000551028
0.000467909
0.000392023
0.000372704
0.000410449
0.000499821
0.000472287
0.000431392
0.00047641
0.000560775
0.000634974
0.000680084
0.000612541
0.000605322
0.00166309
0.00162511
0.00058759
0.000610216
0.00067526
0.000631463
0.00055954
0.000477606
0.000434738
0.000477426
0.000500017
0.000569235
0.000763631
0.000676821
0.000707368
0.000767066
0.000811883
0.000815254
0.000764519
0.000777149
0.00175002
0.00171039
0.000761793
0.00076376
0.000814859
0.000812844
0.000770231
0.000712853
0.000684147
0.000774183
0.000567919
0.000631316
0.000865725
0.00122503
0.00146849
0.00170661
0.00180974
0.00171802
0.00136692
0.00120512
0.00169766
0.00167151
0.00119105
0.0013827
0.00173232
0.00181592
0.00170793
0.00146755
0.0012261
0.000866712
0.000629103
0.000700051
0.000780284
0.000848464
0.000912131
0.000978059
0.00103905
0.00109718
0.00115881
0.00123932
0.00134463
0.00133724
0.0012324
0.00115327
0.0010926
0.00103493
0.000974156
0.000908378
0.000844897
0.000776921
0.000697016
0.00011966
0.000142342
0.000156942
0.000181845
0.000192945
0.000199335
0.000203158
0.00020658
0.000210626
0.000220921
0.000219907
0.000209957
0.000206362
0.00020316
0.000199614
0.000193591
0.000182828
0.000157701
0.00014445
0.000119348
0.000156628
0.00034079
0.000416127
0.00046683
0.00050014
0.00052514
0.000550269
0.000586274
0.000619219
0.000547211
0.000543838
0.000615396
0.000585253
0.000550927
0.000526955
0.000502983
0.000470246
0.000419224
0.000343456
0.000159295
0.000178009
0.000402586
0.00049492
0.000550221
0.000579611
0.000592641
0.000602409
0.000621658
0.000596163
0.000397132
0.000394544
0.00059361
0.000620707
0.000603636
0.000595394
0.000583558
0.000554925
0.000499546
0.000404008
0.000185823
0.000237687
0.000395444
0.000506886
0.000580288
0.000622896
0.000640112
0.000642081
0.000642049
0.000566668
0.000359051
0.000355143
0.000565894
0.0006408
0.000642486
0.000641234