/*--------------------------------*- C++ -*----------------------------------*\
| =========                 |                                                 |
| \\      /  F ield         | OpenFOAM: The Open Source CFD Toolbox           |
|  \\    /   O peration     | Version:  v1912                                 |
|   \\  /    A nd           | Website:  www.openfoam.com                      |
|    \\/     M anipulation  |                                                 |
\*---------------------------------------------------------------------------*/
FoamFile
{
    version     2.0;
    format      ascii;
    class       volScalarField;
    location    "700";
    object      k;
}
// * * * * * * * * * * * * * * * * * * * * * * * * * * * * * * * * * * * * * //

dimensions      [0 2 -2 0 0 0 0];


internalField   nonuniform List<scalar> 
4000
(
4.66131e-05
4.16155e-05
3.49854e-05
2.21506e-05
5.50149e-06
4.18107e-06
3.38293e-06
3.11541e-06
3.21784e-06
4.0163e-06
3.14904e-06
3.12671e-06
3.10971e-06
3.35516e-06
4.10489e-06
5.69622e-06
2.50437e-05
3.62188e-05
4.24374e-05
4.73281e-05
5.17766e-05
4.60718e-05
3.69365e-05
2.73961e-05
1.95715e-05
9.12685e-06
5.61434e-06
5.45857e-06
5.49467e-06
6.01021e-06
5.50926e-06
5.52157e-06
5.56125e-06
5.65659e-06
9.40678e-06
1.99851e-05
2.8565e-05
3.73872e-05
4.648e-05
5.23882e-05
5.51853e-05
5.04999e-05
4.1428e-05
3.20003e-05
2.53526e-05
1.91867e-05
1.40231e-05
6.80208e-06
7.16847e-06
7.88053e-06
7.66084e-06
7.14791e-06
7.23323e-06
1.42896e-05
1.92712e-05
2.53959e-05
3.20746e-05
4.14113e-05
5.07198e-05
5.57039e-05
5.73638e-05
5.40112e-05
4.62972e-05
3.70389e-05
2.87366e-05
2.24825e-05
1.71954e-05
1.22435e-05
7.58231e-06
8.95925e-06
8.73401e-06
8.25484e-06
1.28923e-05
1.76526e-05
2.27412e-05
2.8854e-05
3.68216e-05
4.63575e-05
5.42335e-05
5.78179e-05
5.90831e-05
5.74907e-05
5.25049e-05
4.55467e-05
3.78866e-05
3.0043e-05
2.37212e-05
1.78721e-05
1.27538e-05
1.03687e-05
1.10912e-05
1.37838e-05
1.88416e-05
2.4667e-05
3.09615e-05
3.86181e-05
4.58234e-05
5.27314e-05
5.77545e-05
5.94963e-05
6.06873e-05
6.12217e-05
5.93256e-05
5.60087e-05
5.23536e-05
4.85367e-05
4.47041e-05
4.07591e-05
3.72107e-05
3.42887e-05
3.47994e-05
3.79697e-05
4.14842e-05
4.53605e-05
4.9125e-05
5.28618e-05
5.64099e-05
5.96818e-05
6.15856e-05
6.10748e-05
6.24855e-05
6.53732e-05
6.66703e-05
6.67644e-05
6.62468e-05
6.49854e-05
6.3033e-05
6.03514e-05
5.70713e-05
5.30308e-05
5.32023e-05
5.72352e-05
6.05905e-05
6.33354e-05
6.53444e-05
6.6641e-05
6.71709e-05
6.70802e-05
6.57883e-05
6.28522e-05
6.46273e-05
7.00308e-05
7.42992e-05
7.72263e-05
7.91878e-05
7.99652e-05
7.95795e-05
7.78059e-05
7.44957e-05
6.91535e-05
6.90773e-05
7.42657e-05
7.77197e-05
7.96419e-05
8.01636e-05
7.94913e-05
7.76079e-05
7.47232e-05
7.0467e-05
6.49709e-05
6.74248e-05
7.58867e-05
8.30818e-05
8.86e-05
9.27888e-05
9.53517e-05
9.63373e-05
9.53636e-05
9.18894e-05
8.50039e-05
8.4713e-05
9.13689e-05
9.50619e-05
9.6262e-05
9.54655e-05
9.30414e-05
8.89585e-05
8.35003e-05
7.63137e-05
6.77413e-05
7.1602e-05
8.31461e-05
9.30004e-05
0.000100575
0.000106612
0.000111106
0.000114005
0.000114922
0.000113054
0.000106225
0.00010569
0.000112364
0.000114472
0.000113786
0.000111083
0.000106749
0.000100837
9.33473e-05
8.352e-05
7.188e-05
4.1622e-05
3.96967e-05
3.27162e-05
2.02957e-05
8.16135e-06
8.126e-06
5.90264e-06
4.76354e-06
5.03782e-06
4.06562e-06
5.01152e-06
4.08145e-06
4.70577e-06
6.04122e-06
8.08863e-06
8.33208e-06
2.41265e-05
3.46829e-05
4.16505e-05
4.28172e-05
4.6083e-05
6.25592e-05
4.57021e-05
3.0974e-05
2.59842e-05
2.09395e-05
1.25775e-05
1.04542e-05
9.23422e-06
9.0574e-06
9.06934e-06
9.16508e-06
1.06868e-05
1.30668e-05
2.13545e-05
2.62619e-05
3.25948e-05
4.75075e-05
6.25408e-05
4.72064e-05
5.05111e-05
7.17514e-05
6.8741e-05
4.90187e-05
3.57818e-05
2.84162e-05
2.32223e-05
1.76975e-05
1.24482e-05
1.16528e-05
1.15962e-05
1.26694e-05
1.81546e-05
2.35307e-05
2.85421e-05
3.61335e-05
4.98932e-05
6.97375e-05
7.0769e-05
5.14788e-05
5.40206e-05
6.70773e-05
6.42378e-05
5.19923e-05
3.88386e-05
3.00006e-05
2.36104e-05
1.87295e-05
1.58418e-05
1.48438e-05
1.4837e-05
1.60021e-05
1.9277e-05
2.40831e-05
3.0441e-05
3.93589e-05
5.25924e-05
6.46621e-05
6.74222e-05
5.48791e-05
5.74974e-05
6.81365e-05
6.51406e-05
5.43472e-05
4.14438e-05
3.16383e-05
2.47052e-05
1.91052e-05
1.50945e-05
1.40778e-05
1.40676e-05
1.53986e-05
1.97261e-05
2.5433e-05
3.23742e-05
4.20635e-05
5.46897e-05
6.57351e-05
6.88079e-05
5.82294e-05
6.12245e-05
7.15697e-05
7.01144e-05
6.30945e-05
5.28284e-05
4.18999e-05
3.48776e-05
2.91292e-05
2.52349e-05
2.38005e-05
2.40603e-05
2.566e-05
2.9543e-05
3.53541e-05
4.22727e-05
5.31052e-05
6.33552e-05
7.06311e-05
7.22736e-05
6.18253e-05
6.53731e-05
7.5641e-05
7.59803e-05
7.32979e-05
6.87666e-05
6.07358e-05
5.06065e-05
4.33282e-05
3.89288e-05
3.63926e-05
3.66218e-05
3.91843e-05
4.34776e-05
5.0861e-05
6.09547e-05
6.89716e-05
7.36265e-05
7.63975e-05
7.62926e-05
6.58454e-05
7.00288e-05
8.08976e-05
8.38923e-05
8.61253e-05
8.86789e-05
8.83613e-05
8.52997e-05
7.83443e-05
6.97794e-05
6.03612e-05
6.06372e-05
6.988e-05
7.84154e-05
8.52124e-05
8.84555e-05
8.89613e-05
8.662e-05
8.43571e-05
8.15348e-05
7.04082e-05
7.5884e-05
8.98426e-05
9.95996e-05
0.000107039
0.00011315
0.00011593
0.000116011
0.000112025
0.000102518
8.62734e-05
8.59354e-05
0.000101616
0.000111513
0.000115875
0.000116093
0.000113479
0.000107529
0.000100153
9.04547e-05
7.6194e-05
8.31425e-05
9.70458e-05
0.000109448
0.000119558
0.000128129
0.00013498
0.000139887
0.000142129
0.000140532
0.000133053
0.000132232
0.00013961
0.000141493
0.000139536
0.000134869
0.000128206
0.000119776
0.000109746
9.73497e-05
8.33234e-05
3.49932e-05
3.27187e-05
2.48761e-05
1.07366e-05
1.06177e-05
1.07982e-05
7.73242e-06
6.17405e-06
4.89993e-06
5.66382e-06
4.45774e-06
5.72039e-06
6.0761e-06
7.82122e-06
1.07379e-05
1.01039e-05
1.11642e-05
2.79606e-05
3.47394e-05
3.65682e-05
3.69498e-05
4.57109e-05
3.56653e-05
2.97732e-05
2.88171e-05
2.30537e-05
1.5983e-05
1.32563e-05
1.13017e-05
1.11037e-05
1.0783e-05
1.15904e-05
1.35916e-05
1.6345e-05
2.36032e-05
2.92049e-05
3.04372e-05
3.77412e-05
4.81073e-05
3.82528e-05
4.1446e-05
6.87693e-05
6.15472e-05
4.71687e-05
3.76078e-05
3.16414e-05
2.69793e-05
2.11841e-05
1.60987e-05
1.40844e-05
1.42442e-05
1.66081e-05
2.16144e-05
2.73092e-05
3.19884e-05
3.83081e-05
4.86262e-05
6.44358e-05
7.17091e-05
4.27256e-05
4.63138e-05
6.42519e-05
6.40335e-05
5.31335e-05
4.18262e-05
3.36142e-05
2.75764e-05
2.31288e-05
2.02521e-05
1.76127e-05
1.78085e-05
2.04598e-05
2.35805e-05
2.80876e-05
3.42117e-05
4.26349e-05
5.42953e-05
6.5522e-05
6.55141e-05
4.75324e-05
5.25159e-05
6.51532e-05
6.27726e-05
5.33473e-05
4.19818e-05
3.32235e-05
2.68028e-05
2.18134e-05
1.86177e-05
1.83282e-05
1.83401e-05
1.88544e-05
2.23397e-05
2.74183e-05
3.38253e-05
4.25496e-05
5.40053e-05
6.39916e-05
6.66328e-05
5.35314e-05
5.93312e-05
7.0124e-05
6.79673e-05
5.93038e-05
4.7555e-05
3.70078e-05
2.97814e-05
2.42666e-05
2.04487e-05
1.92274e-05
1.92482e-05
2.05451e-05
2.44922e-05
3.00917e-05
3.72508e-05
4.77056e-05
5.96286e-05
6.89083e-05
7.13903e-05
6.01479e-05
6.66713e-05
7.59887e-05
7.54763e-05
6.78091e-05
5.67956e-05
4.63734e-05
3.77211e-05
3.14173e-05
2.71791e-05
2.49942e-05
2.50214e-05
2.71478e-05
3.13296e-05
3.76589e-05
4.6261e-05
5.66382e-05
6.79409e-05
7.62834e-05
7.70937e-05
6.72541e-05
7.42974e-05
8.38988e-05
8.88431e-05
8.56024e-05
7.44288e-05
6.8173e-05
6.22495e-05
5.56564e-05
4.8298e-05
4.00795e-05
3.98806e-05
4.79709e-05
5.54061e-05
6.20235e-05
6.80137e-05
7.44696e-05
8.56765e-05
8.97416e-05
8.4935e-05
7.47128e-05
8.30787e-05
9.96032e-05
0.000120806
0.000139352
0.000152963
0.000156822
0.000156932
0.000150189
0.00013223
9.92996e-05
9.88075e-05
0.000131131
0.000149709
0.00015697
0.000157252
0.000153475
0.000140206
0.000121768
0.000100526
8.34048e-05
9.29955e-05
0.000109447
0.000124275
0.000136815
0.000147816
0.000156941
0.000163836
0.000167452
0.000166244
0.000157478
0.000156349
0.000165086
0.000166633
0.000163342
0.000156723
0.00014781
0.000136964
0.000124505
0.000109678
9.31156e-05
2.21801e-05
2.03115e-05
1.07376e-05
1.13184e-05
1.27044e-05
1.13335e-05
9.06634e-06
7.46804e-06
6.29868e-06
5.86241e-06
5.76982e-06
6.4342e-06
7.57608e-06
9.15481e-06
1.14392e-05
1.27093e-05
1.09841e-05
1.22365e-05
2.44249e-05
2.59275e-05
2.74128e-05
3.09833e-05
2.97764e-05
3.03777e-05
2.82235e-05
2.17257e-05
1.71718e-05
1.48525e-05
1.33183e-05
1.30702e-05
1.31205e-05
1.36018e-05
1.51986e-05
1.75562e-05
2.23267e-05
2.89157e-05
3.06705e-05
2.99262e-05
3.30176e-05
2.93385e-05
3.20145e-05
4.90421e-05
4.71759e-05
4.105e-05
3.579e-05
3.20893e-05
2.78156e-05
2.21597e-05
1.79767e-05
1.62502e-05
1.6443e-05
1.84269e-05
2.26781e-05
2.82059e-05
3.24881e-05
3.6509e-05
4.21749e-05
4.90525e-05
5.16204e-05
3.3085e-05
3.70583e-05
5.20177e-05
5.3145e-05
4.70034e-05
3.96969e-05
3.37093e-05
2.89508e-05
2.52601e-05
2.21715e-05
1.9536e-05
1.98249e-05
2.2477e-05
2.56672e-05
2.95012e-05
3.442e-05
4.06855e-05
4.83819e-05
5.50423e-05
5.42129e-05
3.8212e-05
4.55607e-05
5.43705e-05
5.33607e-05
4.74624e-05
3.98928e-05
3.32799e-05
2.79976e-05
2.3824e-05
2.13232e-05
2.13334e-05
2.13979e-05
2.15942e-05
2.43473e-05
2.86217e-05
3.39494e-05
4.06634e-05
4.85139e-05
5.49345e-05
5.63402e-05
4.68168e-05
5.60154e-05
6.31116e-05
5.93167e-05
5.21515e-05
4.33721e-05
3.51154e-05
2.87787e-05
2.38275e-05
2.02589e-05
1.89609e-05
1.88888e-05
2.03246e-05
2.41009e-05
2.91597e-05
3.551e-05
4.38211e-05
5.29013e-05
6.0658e-05
6.47679e-05
5.69914e-05
6.67655e-05
7.33074e-05
6.78219e-05
5.95877e-05
5.05357e-05
4.15595e-05
3.42176e-05
2.8533e-05
2.41842e-05
2.16457e-05
2.15114e-05
2.40377e-05
2.84873e-05
3.42598e-05
4.1635e-05
5.07289e-05
6.01571e-05
6.90579e-05
7.4568e-05
6.74007e-05
7.72242e-05
8.61284e-05
8.56134e-05
7.75479e-05
7.23871e-05
6.7539e-05
6.26178e-05
5.66631e-05
4.8488e-05
3.85489e-05
3.79736e-05
4.81058e-05
5.6574e-05
6.27302e-05
6.7806e-05
7.28506e-05
7.83233e-05
8.6975e-05
8.71249e-05
7.76332e-05
8.85965e-05
0.000107042
0.000139355
0.000168882
0.000186747
0.000199321
0.000206255
0.000202323
0.000180134
0.00014064
0.00013811
0.000178844
0.000201912
0.000206515
0.000200229
0.000188078
0.000170584
0.00014072
0.000108045
8.88954e-05
0.000100569
0.000119555
0.000136813
0.000151913
0.000165738
0.000177761
0.000187159
0.000192599
0.000192206
0.000184267
0.000182673
0.000190804
0.000191588
0.000186508
0.00017742
0.000165637
0.000151976
0.000136942
0.000119679
0.000100607
5.50216e-06
8.15988e-06
1.06186e-05
1.26998e-05
1.25096e-05
1.12307e-05
9.70207e-06
8.33407e-06
7.24216e-06
6.87446e-06
6.83243e-06
7.36589e-06
8.51568e-06
9.88651e-06
1.14222e-05
1.2672e-05
1.2705e-05
1.01868e-05
8.46555e-06
5.95175e-06
1.95795e-05
2.59861e-05
2.88206e-05
2.82266e-05
2.42929e-05
2.01266e-05
1.73789e-05
1.53763e-05
1.44468e-05
1.54901e-05
1.52279e-05
1.4619e-05
1.57957e-05
1.78326e-05
2.06582e-05
2.50452e-05
2.89462e-05
2.90568e-05
2.6565e-05
2.06244e-05
2.5365e-05
3.57962e-05
3.76155e-05
3.57929e-05
3.3403e-05
3.07073e-05
2.64479e-05
2.14099e-05
1.82045e-05
1.78497e-05
1.78829e-05
1.86501e-05
2.20603e-05
2.70024e-05
3.11942e-05
3.40139e-05
3.66585e-05
3.87256e-05
3.72143e-05
2.62481e-05
2.87537e-05
3.88589e-05
4.18385e-05
3.97014e-05
3.5838e-05
3.2035e-05
2.86366e-05
2.54309e-05
2.2184e-05
2.0544e-05
2.07458e-05
2.26201e-05
2.5885e-05
2.9188e-05
3.27441e-05
3.6785e-05
4.09259e-05
4.33436e-05
4.05573e-05
2.993e-05
3.79015e-05
4.14692e-05
4.19987e-05
3.98995e-05
3.59036e-05
3.16232e-05
2.77358e-05
2.45421e-05
2.27947e-05
2.28968e-05
2.29355e-05
2.30493e-05
2.50527e-05
2.8369e-05
3.23522e-05
3.67879e-05
4.10548e-05
4.35837e-05
4.36196e-05
3.96739e-05
5.23601e-05
5.28506e-05
4.75756e-05
4.33822e-05
3.82781e-05
3.28392e-05
2.80425e-05
2.4107e-05
2.14539e-05
2.12148e-05
2.12131e-05
2.16239e-05
2.44958e-05
2.85616e-05
3.34584e-05
3.9069e-05
4.45073e-05
4.91578e-05
5.47315e-05
5.34478e-05
6.62478e-05
6.8779e-05
5.6817e-05
5.05491e-05
4.50387e-05
3.90395e-05
3.35623e-05
2.90146e-05
2.54162e-05
2.37931e-05
2.37224e-05
2.54306e-05
2.92182e-05
3.39255e-05
3.95626e-05
4.58231e-05
5.1712e-05
5.83097e-05
7.01969e-05
6.68938e-05
7.91857e-05
8.86798e-05
7.44582e-05
7.24037e-05
7.32852e-05
7.22907e-05
6.99846e-05
6.55208e-05
5.70253e-05
4.56015e-05
4.4972e-05
5.67472e-05
6.57054e-05
7.05516e-05
7.32093e-05
7.45678e-05
7.40055e-05
7.62955e-05
8.95803e-05
7.95493e-05
9.27853e-05
0.000113153
0.000152968
0.000186759
0.000220589
0.000248024
0.000265455
0.000266044
0.000238555
0.000186833
0.000183868
0.000236117
0.00026494
0.000265247
0.000248908
0.000222349
0.000189024
0.000154318
0.000114054
9.30162e-05
0.000106606
0.000128125
0.000147814
0.000165737
0.000183235
0.000198673
0.0002112
0.000219328
0.000221098
0.000215532
0.000213572
0.000219393
0.00021807
0.000210327
0.000198133
0.000182981
0.000165654
0.000147783
0.0001281
0.000106538
4.17758e-06
8.12419e-06
1.08067e-05
1.13305e-05
1.12335e-05
1.06661e-05
9.8091e-06
8.84462e-06
8.04397e-06
7.93239e-06
7.89306e-06
8.19207e-06
9.09464e-06
1.00771e-05
1.09409e-05
1.15086e-05
1.16063e-05
1.10003e-05
8.22444e-06
4.3012e-06
9.14901e-06
2.09482e-05
2.30649e-05
2.17371e-05
2.01313e-05
1.84799e-05
1.68757e-05
1.54828e-05
1.53118e-05
1.73519e-05
1.69287e-05
1.53978e-05
1.59434e-05
1.74135e-05
1.90613e-05
2.07937e-05
2.26647e-05
2.41994e-05
2.21935e-05
1.04545e-05
1.92022e-05
2.84227e-05
3.1647e-05
3.20914e-05
3.07086e-05
2.78029e-05
2.37452e-05
1.98824e-05
1.79588e-05
1.86558e-05
1.84547e-05
1.8321e-05
2.06105e-05
2.44899e-05
2.84613e-05
3.13177e-05
3.26998e-05
3.23574e-05
2.92026e-05
1.99399e-05
2.24987e-05
3.00168e-05
3.36254e-05
3.37154e-05
3.20377e-05
2.97463e-05
2.7149e-05
2.4025e-05
2.11913e-05
2.05933e-05
2.06458e-05
2.16869e-05
2.46103e-05
2.7722e-05
3.04164e-05
3.28575e-05
3.46915e-05
3.47271e-05
3.11775e-05
2.33815e-05
3.00621e-05
3.16572e-05
3.32375e-05
3.3288e-05
3.16265e-05
2.91206e-05
2.6439e-05
2.41733e-05
2.30497e-05
2.33594e-05
2.33744e-05
2.32925e-05
2.46569e-05
2.70576e-05
2.98418e-05
3.24805e-05
3.43161e-05
3.44942e-05
3.3243e-05
3.19043e-05
4.85415e-05
4.19167e-05
3.70252e-05
3.51273e-05
3.28441e-05
2.9795e-05
2.66136e-05
2.38876e-05
2.25028e-05
2.39065e-05
2.39428e-05
2.2746e-05
2.43491e-05
2.72134e-05
3.05144e-05
3.37146e-05
3.61878e-05
3.82595e-05
4.32643e-05
4.9635e-05
6.4986e-05
6.07535e-05
4.63942e-05
4.15763e-05
3.90474e-05
3.60408e-05
3.27756e-05
2.98792e-05
2.78662e-05
2.87587e-05
2.8882e-05
2.81397e-05
3.03476e-05
3.34239e-05
3.68716e-05
4.00876e-05
4.27975e-05
4.77335e-05
6.24144e-05
6.5597e-05
7.99633e-05
8.83643e-05
6.8185e-05
6.75545e-05
7.22989e-05
7.55883e-05
7.65754e-05
7.37269e-05
6.46699e-05
5.20914e-05
5.16851e-05
6.46816e-05
7.41884e-05
7.74144e-05
7.68002e-05
7.38359e-05
6.9073e-05
6.92446e-05
8.92532e-05
8.025e-05
9.53485e-05
0.00011593
0.000156826
0.000199324
0.00024803
0.000287621
0.000313468
0.00031469
0.000274857
0.000203662
0.00020097
0.000272584
0.000313457
0.000312737
0.000287368
0.000249214
0.000201005
0.000158135
0.000116628
9.54695e-05
0.000111101
0.000134975
0.000156937
0.000177758
0.000198672
0.000217551
0.000233396
0.000244626
0.000249507
0.000247584
0.000245275
0.000247611
0.000243191
0.000232308
0.000216743
0.000198155
0.000177437
0.000156687
0.000134764
0.000110905
3.40066e-06
5.92425e-06
7.73601e-06
9.05023e-06
9.70591e-06
9.81183e-06
9.55991e-06
9.15237e-06
8.86906e-06
9.36142e-06
9.29173e-06
9.03124e-06
9.45047e-06
9.88582e-06
1.01377e-05
1.00196e-05
9.36765e-06
8.14037e-06
6.36224e-06
3.50231e-06
5.63987e-06
1.26374e-05
1.59806e-05
1.71826e-05
1.7387e-05
1.68786e-05
1.61097e-05
1.5655e-05
1.67881e-05
2.12618e-05
2.05533e-05
1.67144e-05
1.61113e-05
1.6701e-05
1.74999e-05
1.8013e-05
1.78511e-05
1.68217e-05
1.361e-05
5.87016e-06
1.40505e-05
2.32389e-05
2.6995e-05
2.78248e-05
2.64539e-05
2.37481e-05
2.07891e-05
1.85284e-05
1.83205e-05
2.09603e-05
2.04495e-05
1.84513e-05
1.92199e-05
2.1637e-05
2.46204e-05
2.72966e-05
2.86363e-05
2.78614e-05
2.41902e-05
1.47905e-05
1.72161e-05
2.36297e-05
2.75905e-05
2.896e-05
2.86428e-05
2.71524e-05
2.47186e-05
2.18967e-05
2.05629e-05
2.23086e-05
2.19984e-05
2.08984e-05
2.2598e-05
2.54195e-05
2.7848e-05
2.94037e-05
2.98145e-05
2.85292e-05
2.46174e-05
1.81002e-05
2.37326e-05
2.47206e-05
2.68154e-05
2.80063e-05
2.77413e-05
2.64417e-05
2.47079e-05
2.31815e-05
2.29009e-05
2.5373e-05
2.50428e-05
2.30669e-05
2.36504e-05
2.53082e-05
2.71361e-05
2.85336e-05
2.89073e-05
2.78453e-05
2.59907e-05
2.5382e-05
4.47062e-05
3.48887e-05
2.97941e-05
2.87891e-05
2.80489e-05
2.66163e-05
2.47844e-05
2.32389e-05
2.3411e-05
2.80794e-05
2.78038e-05
2.35852e-05
2.36918e-05
2.53776e-05
2.73077e-05
2.88231e-05
2.96271e-05
3.06855e-05
3.59704e-05
4.5795e-05
6.30333e-05
5.06177e-05
3.77357e-05
3.42318e-05
3.35719e-05
3.27795e-05
3.15026e-05
3.0336e-05
3.03945e-05
3.59584e-05
3.59875e-05
3.07709e-05
3.09233e-05
3.22445e-05
3.36356e-05
3.44903e-05
3.51317e-05
3.86246e-05
5.19149e-05
6.35771e-05
7.95784e-05
8.53036e-05
6.22589e-05
6.26287e-05
6.99926e-05
7.65779e-05
8.00379e-05
7.75271e-05
6.6752e-05
5.55821e-05
5.53999e-05
6.71363e-05
7.82195e-05
8.09296e-05
7.76809e-05
7.123e-05
6.36959e-05
6.28944e-05
8.61079e-05
7.97664e-05
9.63353e-05
0.000116011
0.000156929
0.000206248
0.000265448
0.000313458
0.00034405
0.000337669
0.000272022
0.000184772
0.000182771
0.000271682
0.000337556
0.000343539
0.000312877
0.000265753
0.000207034
0.000157612
0.000116362
9.63125e-05
0.000114002
0.000139884
0.000163832
0.000187155
0.000211198
0.000233394
0.000252751
0.000267903
0.000278139
0.000284758
0.000281961
0.000276088
0.000266333
0.000251483
0.000232354
0.000210394
0.000186544
0.000163322
0.000139462
0.000113664
3.17231e-06
4.68594e-06
6.01852e-06
7.47422e-06
8.33155e-06
8.84605e-06
9.15397e-06
9.46013e-06
9.91919e-06
1.11171e-05
1.10165e-05
1.00772e-05
9.77341e-06
9.49953e-06
9.19144e-06
8.66198e-06
7.76443e-06
6.27446e-06
4.88729e-06
3.22155e-06
5.50572e-06
1.05133e-05
1.32408e-05
1.48403e-05
1.53792e-05
1.54864e-05
1.56572e-05
1.66233e-05
1.94305e-05
2.3669e-05
2.2785e-05
1.91391e-05
1.698e-05
1.62146e-05
1.61039e-05
1.60164e-05
1.548e-05
1.38415e-05
1.09612e-05
5.75518e-06
6.77635e-06
1.7729e-05
2.1193e-05
2.21696e-05
2.14184e-05
1.98878e-05
1.85311e-05
1.83203e-05
2.01955e-05
2.63147e-05
2.54273e-05
2.00103e-05
1.8836e-05
1.93319e-05
2.08125e-05
2.24008e-05
2.31867e-05
2.22537e-05
1.86933e-05
7.85845e-06
1.22303e-05
1.87517e-05
2.3147e-05
2.52732e-05
2.54413e-05
2.40322e-05
2.19002e-05
2.05029e-05
2.20538e-05
3.41427e-05
3.26617e-05
2.19271e-05
2.11399e-05
2.274e-05
2.48745e-05
2.62398e-05
2.60627e-05
2.39776e-05
1.96744e-05
1.32291e-05
1.78466e-05
1.9115e-05
2.18267e-05
2.38344e-05
2.45499e-05
2.41787e-05
2.31845e-05
2.24254e-05
2.50006e-05
4.95376e-05
4.63105e-05
2.46728e-05
2.28737e-05
2.37601e-05
2.48046e-05
2.5235e-05
2.45834e-05
2.26569e-05
2.01821e-05
1.94582e-05
4.07537e-05
2.91354e-05
2.42773e-05
2.38374e-05
2.41141e-05
2.38918e-05
2.32408e-05
2.30604e-05
2.72614e-05
6.45828e-05
6.04522e-05
2.68248e-05
2.34065e-05
2.37435e-05
2.4456e-05
2.47038e-05
2.44337e-05
2.49108e-05
3.00184e-05
4.18147e-05
6.03521e-05
4.33334e-05
3.1427e-05
2.8544e-05
2.90233e-05
2.98841e-05
3.03378e-05
3.11874e-05
3.675e-05
8.0687e-05
7.68292e-05
3.65675e-05
3.17182e-05
3.09971e-05
3.05716e-05
2.96625e-05
2.9074e-05
3.18939e-05
4.40201e-05
6.08196e-05
7.78068e-05
7.83463e-05
5.56631e-05
5.66705e-05
6.55267e-05
7.37297e-05
7.75283e-05
7.30977e-05
6.42136e-05
9.68617e-05
9.35366e-05
6.45187e-05
7.406e-05
7.84259e-05
7.45968e-05
6.63554e-05
5.73385e-05
5.60906e-05
7.93271e-05
7.78932e-05
9.53651e-05
0.000112028
0.000150183
0.000202308
0.000266032
0.000314681
0.000337662
0.00030458
0.000216733
0.000239874
0.000234731
0.000218438
0.000307092
0.000338266
0.000314455
0.000265829
0.000202534
0.000150524
0.000112129
9.51953e-05
0.000114923
0.00014213
0.000167451
0.000192598
0.000219326
0.000244623
0.0002679
0.00028897
0.000310452
0.000340795
0.000336952
0.000307971
0.000287152
0.000266395
0.000243328
0.000218224
0.000191692
0.000166677
0.000141486
0.000114431
3.381e-06
4.03423e-06
5.53034e-06
6.34963e-06
7.25521e-06
8.04958e-06
8.87307e-06
9.92196e-06
1.07162e-05
1.20939e-05
1.20387e-05
1.08674e-05
1.01633e-05
9.13984e-06
8.3159e-06
7.50924e-06
6.59895e-06
5.78972e-06
4.12276e-06
3.34409e-06
5.58501e-06
9.12762e-06
1.13937e-05
1.33332e-05
1.44656e-05
1.53225e-05
1.67969e-05
1.94392e-05
2.16598e-05
6.15324e-05
5.95253e-05
2.13819e-05
1.94729e-05
1.7049e-05
1.56744e-05
1.48757e-05
1.38276e-05
1.18631e-05
9.40245e-06
5.6716e-06
7.2389e-06
1.23901e-05
1.61184e-05
1.79898e-05
1.82148e-05
1.79664e-05
1.83285e-05
2.02039e-05
2.81048e-05
0.000133045
0.000128479
2.7663e-05
2.03516e-05
1.87932e-05
1.85931e-05
1.89355e-05
1.87675e-05
1.70515e-05
1.30995e-05
7.33096e-06
7.63077e-06
1.5858e-05
2.02653e-05
2.21829e-05
2.21944e-05
2.11994e-05
2.05706e-05
2.20613e-05
4.11811e-05
0.00022403
0.000215457
3.94391e-05
2.22689e-05
2.12273e-05
2.19833e-05
2.29863e-05
2.29089e-05
2.09007e-05
1.63465e-05
8.69384e-06
1.27359e-05
1.50994e-05
1.86252e-05
2.13318e-05
2.28038e-05
2.30578e-05
2.29085e-05
2.5007e-05
6.23765e-05
0.000339766
0.000325606
5.84868e-05
2.50246e-05
2.33684e-05
2.34902e-05
2.3173e-05
2.16539e-05
1.89533e-05
1.57411e-05
1.43236e-05
3.71982e-05
2.52287e-05
2.04539e-05
2.02675e-05
2.14613e-05
2.25079e-05
2.34147e-05
2.72633e-05
8.34529e-05
0.000450743
0.000430861
7.72325e-05
2.70061e-05
2.36795e-05
2.27668e-05
2.16825e-05
2.04858e-05
2.07656e-05
2.58941e-05
3.82382e-05
5.70655e-05
3.89229e-05
2.71823e-05
2.41922e-05
2.54241e-05
2.78714e-05
3.03972e-05
3.67493e-05
0.000105689
0.000522558
0.000499095
9.86611e-05
3.65784e-05
3.07872e-05
2.82423e-05
2.57108e-05
2.44103e-05
2.74476e-05
3.94542e-05
5.74561e-05
7.4499e-05
6.97734e-05
4.83016e-05
4.84967e-05
5.70347e-05
6.46782e-05
6.67595e-05
6.42167e-05
0.000126768
0.000525764
0.000502542
0.000120088
6.47231e-05
6.76183e-05
6.53372e-05
5.75576e-05
4.89132e-05
4.8631e-05
7.06343e-05
7.44569e-05
9.18976e-05
0.000102532
0.000132228
0.000180147
0.000238573
0.000274884
0.00027206
0.000216754
0.000239933
0.000460533
0.000446352
0.000233182
0.000219216
0.000274175
0.000275126
0.000238145
0.000180002
0.00013243
0.000102389
9.15516e-05
0.000113062
0.000140541
0.000166251
0.000192211
0.000221101
0.000249506
0.000278132
0.00031044
0.000356128
0.000419809
0.00041506
0.000352267
0.00030784
0.00027613
0.000247808
0.000219622
0.000190963
0.000165177
0.000139641
0.000112388
3.36254e-06
5.49651e-06
4.57287e-06
5.83139e-06
6.87161e-06
7.93937e-06
9.36967e-06
1.11236e-05
1.20977e-05
1.29825e-05
1.29846e-05
1.21674e-05
1.11862e-05
9.44352e-06
8.02699e-06
6.97121e-06
5.94365e-06
4.68572e-06
5.3746e-06
3.27142e-06
5.42691e-06
9.31543e-06
1.08885e-05
1.31741e-05
1.55051e-05
1.73647e-05
2.12757e-05
2.36795e-05
6.15511e-05
6.11376e-05
6.05805e-05
6.06453e-05
2.33843e-05
2.10671e-05
1.72792e-05
1.55168e-05
1.33567e-05
1.10529e-05
9.29733e-06
5.48365e-06
7.73825e-06
1.16584e-05
1.41003e-05
1.62635e-05
1.78616e-05
1.86647e-05
2.09719e-05
2.63228e-05
0.00013306
0.000109949
0.000109195
0.000130378
2.60239e-05
2.09266e-05
1.87342e-05
1.80935e-05
1.66516e-05
1.45167e-05
1.18677e-05
7.81452e-06
8.94749e-06
1.48344e-05
1.76177e-05
1.95434e-05
2.05529e-05
2.0602e-05
2.232e-05
3.4147e-05
0.000224028
0.000167526
0.000167044
0.000217945
3.33494e-05
2.2391e-05
2.08127e-05
2.08457e-05
1.99746e-05
1.82214e-05
1.53163e-05
8.89007e-06
1.03502e-05
1.40513e-05
1.83171e-05
2.13357e-05
2.29051e-05
2.3369e-05
2.53838e-05
4.95351e-05
0.000339731
0.000237086
0.000237451
0.000328335
4.7428e-05
2.53053e-05
2.33743e-05
2.27681e-05
2.09536e-05
1.78655e-05
1.41808e-05
1.2094e-05
3.42715e-05
2.37796e-05
1.92211e-05
1.89645e-05
2.12202e-05
2.3912e-05
2.80848e-05
6.45615e-05
0.000450655
0.000314639
0.00031638
0.000433125
6.10523e-05
2.76434e-05
2.35483e-05
2.07975e-05
1.86448e-05
1.91543e-05
2.42995e-05
3.53012e-05
5.30234e-05
3.63778e-05
2.4991e-05
2.16499e-05
2.3799e-05
2.87629e-05
3.59595e-05
8.06538e-05
0.000522425
0.000390739
0.000394544
0.000500701
7.68498e-05
3.56287e-05
2.85607e-05
2.35985e-05
2.15567e-05
2.51116e-05
3.68496e-05
5.33222e-05
6.91601e-05
6.0358e-05
4.00896e-05
3.85657e-05
4.56208e-05
5.21097e-05
5.55931e-05
9.6824e-05
0.000525596
0.000437065
0.00044295
0.000502933
9.32821e-05
5.57845e-05
5.24029e-05
4.57497e-05
3.86592e-05
4.02817e-05
6.10631e-05
6.89483e-05
8.50189e-05
8.63057e-05
9.93668e-05
0.000140712
0.000186917
0.000203756
0.00018483
0.000239821
0.000460403
0.000460676
0.000465591
0.000445437
0.000233823
0.00018446
0.000204092
0.000185993
0.000139633
9.92883e-05
8.5854e-05
8.44328e-05
0.000106244
0.000133073
0.000157499
0.000184288
0.000215547
0.000247589
0.000284744
0.000340754
0.000419753
0.000437509
0.000440844
0.000414647
0.000336344
0.000281648
0.000245265
0.000213583
0.000182606
0.000156123
0.000131903
0.000105327
3.65142e-06
3.93788e-06
5.72358e-06
5.87881e-06
6.84893e-06
7.89388e-06
9.29149e-06
1.10155e-05
1.20377e-05
1.29846e-05
1.29647e-05
1.2082e-05
1.10818e-05
9.348e-06
7.94639e-06
6.90379e-06
5.93236e-06
5.82739e-06
3.97535e-06
3.79631e-06
5.7737e-06
8.83488e-06
1.10036e-05
1.30584e-05
1.52592e-05
1.69407e-05
2.05509e-05
2.27748e-05
5.94826e-05
6.05718e-05
6.0505e-05
5.98738e-05
2.30539e-05
2.07546e-05
1.70703e-05
1.53717e-05
1.32e-05
1.11447e-05
8.96819e-06
5.92972e-06
7.69348e-06
1.15902e-05
1.42359e-05
1.64533e-05
1.7896e-05
1.84604e-05
2.0449e-05
2.54151e-05
0.000128355
0.000109183
0.000108944
0.000128241
2.55652e-05
2.05878e-05
1.85442e-05
1.79985e-05
1.66022e-05
1.44926e-05
1.17784e-05
7.81781e-06
8.69864e-06
1.48252e-05
1.78172e-05
1.98382e-05
2.07559e-05
2.06543e-05
2.20015e-05
3.26354e-05
0.000215199
0.000167038
0.000166497
0.000213428
3.2494e-05
2.20157e-05
2.0645e-05
2.07471e-05
1.99399e-05
1.81756e-05
1.52137e-05
8.78185e-06
1.09553e-05
1.40316e-05
1.83366e-05
2.14009e-05
2.29416e-05
2.33813e-05
2.50442e-05
4.62288e-05
0.000325154
0.000237464
0.000236517
0.000320265
4.53716e-05
2.48023e-05
2.3107e-05
2.25468e-05
2.07692e-05
1.77271e-05
1.41956e-05
1.25975e-05
3.47861e-05
2.4031e-05
1.92421e-05
1.88887e-05
2.12157e-05
2.39471e-05
2.78026e-05
6.03379e-05
0.000430203
0.000316424
0.000315057
0.000421392
5.82386e-05
2.70731e-05
2.32591e-05
2.05751e-05
1.84904e-05
1.91651e-05
2.45506e-05
3.56791e-05
5.32064e-05
3.66205e-05
2.50233e-05
2.15118e-05
2.37237e-05
2.88858e-05
3.59872e-05
7.67094e-05
0.00049831
0.000394635
0.000393068
0.000486509
7.38733e-05
3.50738e-05
2.82703e-05
2.33585e-05
2.14168e-05
2.51608e-05
3.70624e-05
5.33809e-05
6.90839e-05
6.06514e-05
3.98866e-05
3.79719e-05
4.49674e-05
5.16817e-05
5.53953e-05
9.34181e-05
0.000501751
0.000443099
0.000441888
0.000488273
9.05469e-05
5.51613e-05
5.17896e-05
4.50971e-05
3.81626e-05
4.01107e-05
6.12235e-05
6.87492e-05
8.47179e-05
8.59524e-05
9.88402e-05
0.000138095
0.000183842
0.00020095
0.000182753
0.000234533
0.000445844
0.000465711
0.000463924
0.000436163
0.000229745
0.00018271
0.000202115
0.000183585
0.000137531
9.85814e-05
8.5353e-05
8.39995e-05
0.000105689
0.000132222
0.00015633
0.000182638
0.000213519
0.000245202
0.00028186
0.000336799
0.00041487
0.000440918
0.000439172
0.000409866
0.000332491
0.000278758
0.000242922
0.000211595
0.000180957
0.000154878
0.000130931
0.00010462
3.03483e-06
4.51184e-06
4.86958e-06
6.38434e-06
7.36468e-06
8.19764e-06
9.03629e-06
1.00811e-05
1.08702e-05
1.21682e-05
1.20847e-05
1.0848e-05
1.0103e-05
9.06788e-06
8.2404e-06
7.42577e-06
6.47246e-06
4.94369e-06
4.68908e-06
3.03703e-06
5.51627e-06
9.19014e-06
1.15131e-05
1.36233e-05
1.46329e-05
1.54074e-05
1.67187e-05
1.91385e-05
2.13772e-05
6.06163e-05
5.98997e-05
2.13391e-05
1.92682e-05
1.68395e-05
1.55134e-05
1.47542e-05
1.37487e-05
1.16804e-05
9.38828e-06
5.57778e-06
7.14394e-06
1.27112e-05
1.66036e-05
1.84453e-05
1.86678e-05
1.8334e-05
1.84591e-05
2.00118e-05
2.76503e-05
0.000130286
0.000128288
2.7437e-05
2.01074e-05
1.86017e-05
1.84894e-05
1.88684e-05
1.87128e-05
1.69892e-05
1.31389e-05
7.24587e-06
8.26118e-06
1.60116e-05
2.04766e-05
2.24927e-05
2.26354e-05
2.17013e-05
2.09094e-05
2.19284e-05
3.93906e-05
0.000217741
0.000213492
3.86603e-05
2.19335e-05
2.10334e-05
2.18599e-05
2.28372e-05
2.27189e-05
2.0708e-05
1.62179e-05
8.83965e-06
1.37412e-05
1.53984e-05
1.8864e-05
2.16054e-05
2.30594e-05
2.33011e-05
2.30737e-05
2.46674e-05
5.83769e-05
0.000327963
0.00032034
5.64559e-05
2.44661e-05
2.3013e-05
2.31849e-05
2.28988e-05
2.1428e-05
1.87809e-05
1.57402e-05
1.48708e-05
3.79747e-05
2.56624e-05
2.05515e-05
2.03301e-05
2.16299e-05
2.27522e-05
2.35895e-05
2.68132e-05
7.7056e-05
0.000432569
0.000421466
7.37998e-05
2.63225e-05
2.33248e-05
2.24994e-05
2.14279e-05
2.02574e-05
2.06891e-05
2.6145e-05
3.85755e-05
5.72385e-05
3.91917e-05
2.71514e-05
2.4038e-05
2.54319e-05
2.81438e-05
3.07751e-05
3.65542e-05
9.84548e-05
0.000500016
0.000486577
9.4367e-05
3.57703e-05
3.0385e-05
2.79037e-05
2.53568e-05
2.4114e-05
2.73515e-05
3.95478e-05
5.7288e-05
7.42616e-05
6.98859e-05
4.79714e-05
4.80996e-05
5.67361e-05
6.4671e-05
6.71317e-05
6.45123e-05
0.000119884
0.000502229
0.000488328
0.000115745
6.42012e-05
6.70925e-05
6.45838e-05
5.6745e-05
4.82259e-05
4.81521e-05
7.03712e-05
7.39164e-05
9.13568e-05
0.0001016
0.000131109
0.000178805
0.000236026
0.000272486
0.000271631
0.000218461
0.000232951
0.000444987
0.000436176
0.000227671
0.000219757
0.000273651
0.000272601
0.000235197
0.000177694
0.000130699
0.000101138
9.07092e-05
0.000112344
0.00013958
0.000165046
0.000190751
0.000219325
0.000247531
0.000275996
0.000307862
0.00035212
0.000414482
0.000409871
0.000348129
0.000304874
0.000273655
0.00024554
0.00021755
0.00018916
0.00016364
0.000138361
0.000111358
3.02348e-06
4.78585e-06
6.26459e-06
7.5861e-06
8.51657e-06
9.09951e-06
9.45599e-06
9.77862e-06
1.01668e-05
1.1186e-05
1.10854e-05
1.01041e-05
9.7607e-06
9.46031e-06
9.13232e-06
8.59138e-06
7.6987e-06
6.40032e-06
4.86789e-06
3.09322e-06
5.49607e-06
1.06614e-05
1.36999e-05
1.52297e-05
1.58117e-05
1.59542e-05
1.61191e-05
1.69852e-05
1.94702e-05
2.33771e-05
2.30655e-05
1.92731e-05
1.69675e-05
1.61484e-05
1.60218e-05
1.59304e-05
1.5413e-05
1.38643e-05
1.08123e-05
5.65768e-06
7.22876e-06
1.81674e-05
2.16532e-05
2.26991e-05
2.20764e-05
2.06251e-05
1.92323e-05
1.88443e-05
2.03498e-05
2.60132e-05
2.55757e-05
2.01121e-05