/*--------------------------------*- C++ -*----------------------------------*\
| =========                 |                                                 |
| \\      /  F ield         | OpenFOAM: The Open Source CFD Toolbox           |
|  \\    /   O peration     | Version:  v1912                                 |
|   \\  /    A nd           | Website:  www.openfoam.com                      |
|    \\/     M anipulation  |                                                 |
\*---------------------------------------------------------------------------*/
FoamFile
{
    version     2.0;
    format      ascii;
    class       volScalarField;
    location    "700";
    object      nut;
}
// * * * * * * * * * * * * * * * * * * * * * * * * * * * * * * * * * * * * * //

dimensions      [0 2 -1 0 0 0 0];


internalField   nonuniform List<scalar> 
4000
(
0.000383535
0.000362481
0.000332521
0.000265605
0.0001321
0.000115028
0.000102683
9.71362e-05
9.37231e-05
0.000148042
7.78625e-05
0.000101749
0.000102556
0.00010471
0.000114157
0.000134277
0.000281828
0.00033816
0.000365941
0.000386387
0.00040415
0.000381279
0.000341459
0.000294383
0.000248709
0.000169888
0.000132365
0.000129944
0.000128119
0.000158688
0.000120827
0.000130445
0.000134185
0.000135171
0.000173647
0.000251218
0.000300438
0.000343457
0.000382919
0.000406478
0.000417203
0.000399113
0.000361494
0.000317728
0.000282828
0.000246002
0.000211063
0.000148091
0.000148055
0.000161893
0.00015275
0.000149589
0.000152061
0.0002127
0.000246732
0.000283079
0.000318113
0.000361426
0.000399963
0.000419118
0.000425333
0.000412729
0.000382136
0.000341765
0.000301124
0.000266348
0.000233075
0.000197872
0.000153139
0.000168241
0.000166964
0.00016213
0.000202295
0.000236117
0.000267874
0.000301701
0.000340772
0.000382379
0.000413559
0.000426979
0.000431643
0.000425794
0.000406932
0.000379049
0.000345881
0.000308062
0.000273816
0.000238377
0.000200707
0.000179785
0.000189247
0.000210269
0.000244607
0.000279255
0.000312663
0.000349092
0.000380168
0.000407791
0.000426749
0.000433118
0.00043745
0.00043938
0.000432537
0.000420298
0.000406394
0.000391333
0.0003756
0.000358724
0.000342771
0.000328892
0.000331564
0.000346321
0.000361881
0.000378311
0.000393638
0.000408308
0.000421766
0.000433807
0.000440656
0.000438815
0.000443873
0.000454014
0.000458497
0.000458826
0.000457055
0.000452693
0.00044585
0.000436253
0.00042426
0.000409017
0.000409683
0.000424897
0.000437131
0.000446892
0.000453907
0.00045838
0.000460192
0.000459877
0.000455423
0.000445146
0.000451404
0.000469891
0.00048399
0.000493425
0.000499649
0.000502096
0.000500889
0.000495281
0.000484636
0.00046694
0.000466678
0.000483889
0.000494998
0.000501067
0.000502698
0.000500585
0.00049462
0.000485343
0.000471322
0.000452578
0.00046106
0.000489125
0.000511772
0.000528481
0.000540818
0.000548228
0.000551052
0.00054826
0.000538174
0.000517602
0.000516724
0.000536665
0.000547399
0.000550836
0.000548548
0.000541543
0.000529532
0.000513036
0.000490472
0.000462118
0.000475115
0.000511963
0.000541431
0.000563031
0.000579671
0.000591752
0.000599414
0.000601811
0.000596887
0.000578564
0.000577126
0.000595095
0.000600654
0.000598851
0.000591696
0.00058004
0.000563755
0.000542423
0.00051309
0.000476016
0.000362509
0.000354315
0.000321739
0.000254483
0.000160592
0.00016
0.000136221
0.000128327
0.0001796
7.11205e-05
0.00017264
9.7314e-05
0.000120532
0.000138276
0.000159336
0.000161966
0.000276636
0.000331007
0.000362657
0.000367543
0.000381326
0.000559714
0.000460983
0.000361814
0.000342259
0.000331179
0.00030644
0.00029116
0.000328174
0.00036199
0.000359261
0.000314949
0.000289753
0.00031103
0.000331499
0.000341319
0.000373732
0.000477232
0.000561485
0.000385845
0.000399157
0.000630001
0.000643246
0.000517923
0.000432067
0.000389607
0.000361688
0.000340914
0.000349584
0.000410917
0.000399146
0.000340934
0.000342282
0.000364403
0.000391059
0.000435794
0.000527017
0.000655311
0.000626989
0.000402888
0.000412764
0.000610533
0.000631892
0.00056096
0.000471047
0.000408576
0.000363529
0.000333258
0.000345392
0.000419442
0.000406548
0.000336991
0.000336131
0.00036682
0.000411826
0.000475024
0.000565703
0.000635809
0.000613149
0.000415965
0.000425819
0.000616086
0.000634445
0.000567161
0.000473433
0.00040344
0.000353355
0.0003125
0.000291476
0.000320411
0.000317077
0.000291013
0.000316022
0.000357414
0.000406993
0.000476098
0.000568697
0.000638703
0.000620668
0.000428463
0.00043939
0.00063327
0.000662338
0.000621212
0.000535254
0.000444394
0.000388674
0.000342765
0.000311865
0.000306803
0.000307789
0.00031401
0.000344812
0.000391057
0.000445544
0.00053629
0.000622481
0.000666247
0.000638094
0.000441491
0.000454014
0.000649099
0.000690929
0.000688689
0.000653283
0.000583827
0.000496853
0.00043513
0.000398899
0.000381362
0.000383283
0.000401475
0.000436936
0.000499711
0.000586297
0.00065526
0.00069124
0.000694633
0.000653695
0.000455612
0.000469885
0.000657209
0.000711466
0.000752545
0.000783191
0.000787223
0.000766817
0.000714729
0.000646739
0.000576718
0.000579624
0.000649209
0.000717655
0.000768621
0.00078995
0.000786696
0.000756845
0.000715283
0.000661457
0.000471125
0.000489116
0.000642513
0.000719981
0.000778375
0.00081977
0.000833205
0.000828432
0.000800525
0.000740527
0.000646858
0.000645784
0.000735988
0.000798407
0.000828568
0.000834989
0.000822301
0.000781735
0.000723463
0.00064594
0.00049009
0.000511952
0.000553074
0.000587329
0.000613835
0.00063544
0.000652195
0.000663938
0.000669229
0.000665444
0.00064747
0.000645502
0.000663296
0.000667761
0.000663124
0.00065194
0.000635636
0.00061439
0.000588116
0.000553925
0.000512492
0.000332559
0.000321758
0.000280884
0.000184135
0.000182752
0.000184363
0.000156125
0.000145662
0.000103743
0.000181611
8.3948e-05
0.00017342
0.000134029
0.000155589
0.000183711
0.000178296
0.000187978
0.000297388
0.000331287
0.000339761
0.000341523
0.000461046
0.00040288
0.000377651
0.000403232
0.000391453
0.0003611
0.000352395
0.00037582
0.000433547
0.000413132
0.000372061
0.000353652
0.000363394
0.000393093
0.000403355
0.000380845
0.000418698
0.000480834
0.000347359
0.000361573
0.000643419
0.000624777
0.000540382
0.000486394
0.000459309
0.000441899
0.000419904
0.000421018
0.000480199
0.000466643
0.000416746
0.000420658
0.000444146
0.000462328
0.000492717
0.00055323
0.000648714
0.00066693
0.000367038
0.000382204
0.000631987
0.000687454
0.000627381
0.000548847
0.000490843
0.00045085
0.000429588
0.000446117
0.000496635
0.000485428
0.000438603
0.00043083
0.000454623
0.000496041
0.000556133
0.000637709
0.000700449
0.000641548
0.000387105
0.000406975
0.000634542
0.000685931
0.000638206
0.00055204
0.000482434
0.000432194
0.000396872
0.000392362
0.000455763
0.000452969
0.000390621
0.000399573
0.000436015
0.000486189
0.000555944
0.00064385
0.000696542
0.000645542
0.000410804
0.000432557
0.000662418
0.00072486
0.000687936
0.000586675
0.00048874
0.000420939
0.000369239
0.000335453
0.000337888
0.000336686
0.000334505
0.000370025
0.000422293
0.000489374
0.000587407
0.000691338
0.000733807
0.000672432
0.000435453
0.000458501
0.000690994
0.000771209
0.000760354
0.000674502
0.000568734
0.000478769
0.000412485
0.000367147
0.000347795
0.000347744
0.000366698
0.000411957
0.000478614
0.000568109
0.000674063
0.00076351
0.000779433
0.000700141
0.000460451
0.000483985
0.000711516
0.0008229
0.00086798
0.000849332
0.000783495
0.000717068
0.000648852
0.000576923
0.000502637
0.000501278
0.000575305
0.000648744
0.000717554
0.000784202
0.000850225
0.000872236
0.000831122
0.000719786
0.000485301
0.000511763
0.000720008
0.000900506
0.00105421
0.00115182
0.00117594
0.0011712
0.00113588
0.00104914
0.000878506
0.000876503
0.00104137
0.00113275
0.00117176
0.00117884
0.00115571
0.00106043
0.000907584
0.000726176
0.00051274
0.000541417
0.000587324
0.000625818
0.000656607
0.000682477
0.000703211
0.000718486
0.000726367
0.000723729
0.00070436
0.000701874
0.000721255
0.000724631
0.000717437
0.000702748
0.000682477
0.000656968
0.00062639
0.000587933
0.000541754
0.000265729
0.000254661
0.000184152
0.000188878
0.000200236
0.000189225
0.000169566
0.000153264
0.000139588
0.000137164
0.000131514
0.000144217
0.000154297
0.000169579
0.000189939
0.000200058
0.000186036
0.000199911
0.00027812
0.000286404
0.000294472
0.00036189
0.000377675
0.000416528
0.00043716
0.000416603
0.000397357
0.000396552
0.000423637
0.000479722
0.000467671
0.000417921
0.000396742
0.000399652
0.000419105
0.000440107
0.00041599
0.000376075
0.000376104
0.000304352
0.000317805
0.000518072
0.00054043
0.000520565
0.000503804
0.000498568
0.000487482
0.000467151
0.000478726
0.000536305
0.000522013
0.000471771
0.000467698
0.000489506
0.000501588
0.000510015
0.000530192
0.000555595
0.000537598
0.000323007
0.000341858
0.000561139
0.000627471
0.000606835
0.000563845
0.000528016
0.000503136
0.000493247
0.000509531
0.000555468
0.000545108
0.000502279
0.000493271
0.000507064
0.000534448
0.000573165
0.000619422
0.000643535
0.000576993
0.000347036
0.000379109
0.00056736
0.000638335
0.000627927
0.000578598
0.000528977
0.00048999
0.000464889
0.000472758
0.000546591
0.000542281
0.000471
0.000467819
0.00049493
0.000534945
0.000586104
0.000638449
0.000652816
0.000582628
0.000384178
0.000420323
0.00062138
0.000688081
0.000677426
0.000612825
0.000537535
0.000476879
0.000430176
0.000402576
0.000415198
0.000413887
0.000401821
0.000432072
0.000480019
0.000541291
0.000618248
0.00068676
0.000702566
0.000635985
0.000423879
0.000458831
0.000688802
0.000760492
0.000760269
0.000698456
0.0006069
0.00052413
0.000457623
0.000406437
0.000383826
0.000382381
0.000404944
0.000457817
0.000525494
0.000609113
0.000703158
0.000769792
0.000775104
0.00070166
0.000460952
0.00049342
0.000752589
0.000868071
0.000917281
0.000898802
0.000830245
0.000756814
0.000683553
0.00060396
0.000522406
0.000518733
0.000601217
0.000683371
0.000758515
0.000833595
0.000905417
0.000929403
0.000881769
0.000762652
0.000494688
0.000528472
0.000778412
0.00105425
0.00129683
0.00140769
0.00142733
0.00142149
0.00137357
0.00125397
0.00105882
0.00104879
0.00124813
0.00137232
0.00142377
0.00143268
0.00141561
0.00130806
0.00106508
0.000786102
0.000529336
0.000563017
0.000613828
0.000656604
0.000691861
0.000722637
0.000748371
0.000767894
0.000778972
0.000778163
0.000761888
0.000758647
0.000775381
0.000776978
0.000766602
0.000747687
0.000722438
0.000692013
0.000656913
0.000614141
0.000563115
0.000131919
0.000160572
0.000182905
0.000199915
0.000198652
0.000188236
0.000174872
0.000162372
0.000150801
0.000147438
0.000145944
0.000152563
0.000164014
0.000176622
0.000189869
0.000199905
0.000199982
0.000179048
0.00016351
0.00013718
0.00024876
0.000342241
0.000403247
0.000437182
0.000439387
0.000429467
0.000420804
0.000424655
0.000460615
0.000534232
0.000518148
0.000451218
0.000425112
0.000424224
0.000433238
0.000443966
0.000440429
0.000401396
0.000342664
0.000255158
0.000282925
0.000432156
0.000486443
0.000503824
0.000513313
0.000518621
0.000507861
0.000491589
0.000512643
0.000587989
0.000571204
0.00050347
0.000492719
0.000510818
0.000521874
0.000518169
0.000510867
0.000494963
0.000442388
0.000287747
0.000301229
0.000471198
0.000548946
0.000563883
0.000554352
0.000541914
0.000532971
0.000529839
0.000543757
0.000601316
0.000589554
0.000537086
0.000529532
0.000536317
0.000548012
0.000563182
0.000575074
0.00056163
0.000483493
0.000307182
0.000345959
0.000473638
0.000552199
0.000578666
0.000567659
0.000544534
0.00052243
0.000510297
0.000530086
0.000600689
0.00059425
0.000527231
0.000513119
0.000527971
0.000551787
0.000576735
0.000589868
0.000565464
0.000488265
0.000353744
0.000406418
0.000535481
0.000586915
0.000612952
0.000596708
0.000557583
0.000517006
0.000484303
0.000472811
0.000510311
0.000510527
0.000473834
0.000488365
0.000523026
0.000565349
0.000606986
0.000626772
0.000604121
0.000552511
0.000410512
0.000457059
0.000653436
0.000674778
0.000698642
0.000684723
0.000633184
0.000572395
0.000517174
0.000475332
0.000470662
0.000471276
0.000476581
0.000520947
0.000578492
0.000642017
0.000697848
0.000716815
0.000695329
0.000669126
0.000459222
0.000499644
0.000783237
0.000849599
0.000898991
0.000900859
0.000854928
0.000795804
0.000730859
0.00065276
0.000570674
0.000567663
0.000651875
0.000733522
0.000802142
0.000864823
0.000915795
0.00091972
0.000871229
0.000794652
0.000500754
0.00054081
0.000819808
0.0011519
0.00140779
0.00153
0.00160149
0.00163135
0.00159737
0.00145925
0.00122192
0.00121118
0.00145061
0.00159424
0.00163415
0.00160909
0.00154185
0.00142321
0.00116395
0.000827735
0.000541459
0.000579657
0.000635431
0.000682472
0.000722635
0.000759801
0.000791148
0.000815706
0.000831253
0.000834588
0.000823981
0.000820299
0.000831437
0.000828929
0.000814073
0.000790114
0.000759303
0.000722469
0.000682408
0.00063537
0.000579467
0.000114737
0.000160387
0.000184946
0.000188985
0.000188287
0.000183457
0.000175869
0.00016715
0.000159223
0.000158171
0.000157635
0.00016075
0.00016942
0.000178313
0.000185798
0.000190515
0.000191275
0.000186217
0.000161375
0.000116749
0.000170688
0.00033119
0.000391528
0.000416656
0.000429498
0.000433343
0.000435406
0.000445846
0.000489317
0.000567934
0.000551435
0.000478352
0.000446407
0.000439835
0.000438923
0.000435129
0.000422939
0.000398448
0.000338291
0.000182022
0.000246291
0.000389652
0.000459344
0.000498584
0.000518638
0.000521745
0.000510388
0.00050218
0.000533838
0.000607611
0.00059034
0.000523023
0.00050381
0.000515012
0.000526243
0.000522972
0.000502975
0.00046438
0.000394828
0.000250913
0.000266539
0.000408711
0.000490939
0.000528072
0.000541943
0.000546636
0.000546692
0.00054366
0.000558683
0.000610289
0.000599684
0.000552463
0.000544183
0.000549573
0.000551656
0.000548966
0.000536515
0.000499816
0.000416862
0.000271551
0.00030824
0.000403609
0.000482571
0.000529062
0.000544571
0.000543316
0.0005367
0.000536705
0.000564316
0.000619032
0.000613948
0.000560663
0.000539005
0.000541989
0.000550324
0.000552925
0.000538257
0.000491938
0.000413136
0.000317301
0.000391356
0.000444559
0.000488942
0.000537686
0.000557649
0.000551385
0.000533881
0.000519002
0.000526848
0.000579443
0.00058054
0.000529049
0.000524517
0.000541603
0.000560802
0.00056861
0.000549724
0.000500899
0.000454761
0.000395638
0.000452694
0.000584011
0.000568998
0.00060714
0.000633302
0.000622884
0.000590677
0.000555237
0.000534607
0.000559287
0.000562857
0.000539566
0.000562861
0.000601055
0.000636224
0.000649828
0.000625804
0.00058734
0.00060158
0.00045476
0.000502089
0.000787275
0.000783687
0.000830473
0.000855042
0.000842707
0.000810255
0.00076047
0.00068738
0.000609661
0.000609414
0.000689872
0.00076649
0.000820326
0.00085726
0.0008735
0.000851564
0.00080269
0.0007995
0.000502956
0.000548221
0.000833235
0.00117602
0.00142741
0.00160152
0.0017186
0.00177369
0.0017324
0.00154458
0.00121623
0.00120802
0.00153821
0.00172998
0.00177483
0.00172441
0.00161234
0.00144073
0.00118781
0.000840426
0.000548548
0.000591742
0.000652186
0.000703204
0.000748367
0.000791146
0.000827873
0.000857493
0.000877883
0.000886587
0.000883126
0.00087908
0.000883294
0.000875376
0.000855553
0.000826385
0.000790154
0.000747715
0.000702659
0.000651681
0.000591218
0.000104237
0.000137402
0.000156756
0.00016874
0.000175151
0.000176037
0.000173691
0.000169969
0.000167234
0.000171772
0.00017113
0.000168759
0.00017266
0.000176596
0.000178832
0.000177737
0.000171648
0.000159794
0.000143046
0.000106702
0.000134085
0.000306641
0.000361283
0.000397317
0.000420821
0.000435418
0.000446887
0.000467548
0.000518906
0.000591311
0.00057779
0.000507772
0.00046779
0.000451734
0.000441612
0.000427392
0.00040428
0.00036977
0.000318044
0.000136658
0.000210702
0.000361744
0.000442019
0.000487561
0.000507924
0.000510424
0.000505794
0.000510981
0.000547619
0.000570224
0.000562381
0.000537532
0.000512128
0.000511565
0.000517061
0.000514319
0.000493597
0.000448407
0.000368802
0.000216001
0.000233343
0.000363705
0.000450984
0.000503232
0.000533046
0.00054674
0.000547103
0.000543974
0.000558938
0.000533404
0.000536077
0.000554918
0.000545852
0.000550915
0.000551241
0.000538624
0.000509806
0.000458035
0.000370668
0.000238933
0.000273968
0.000353514
0.000432327
0.000490089
0.000522498
0.000536737
0.0005422
0.000550908
0.000572016
0.000526754
0.000534134
0.000570429
0.000552777
0.000546845
0.000542818
0.000529414
0.000497255
0.000439274
0.000361084
0.000283088
0.000375638
0.000388799
0.0004211
0.000477021
0.000517098
0.000533922
0.000536295
0.000538346
0.00055277
0.000518001
0.00052636
0.000556263
0.000543976
0.000543989
0.000542708
0.000526198
0.000485644
0.000428835
0.000396419
0.000380086
0.000445858
0.000496972
0.000478959
0.000524338
0.000572547
0.000590745
0.000583725
0.000570511
0.000570625
0.000560829
0.000568833
0.00057785
0.000580034
0.000595631
0.000604447
0.000587121
0.000538273
0.00049126
0.00051049
0.000447726
0.000500882
0.000766865
0.000717212
0.000756998
0.000795942
0.000810314
0.000798898
0.000758145
0.000687233
0.000608589
0.000611357
0.000692668
0.000766125
0.000809689
0.000824215
0.000811677
0.000772821
0.000730825
0.00077906
0.000501447
0.000551048
0.000828451
0.00117124
0.00142152
0.00163137
0.00177368
0.00182841
0.0017445
0.00145857
0.000983652
0.000980171
0.00146015
0.00174675
0.00183012
0.00177687
0.00163754
0.00142969
0.00117928
0.000833751
0.000550968
0.000599409
0.000663932
0.000718479
0.000767888
0.000815701
0.00085749
0.000892347
0.000918712
0.000936091
0.000947131
0.00094256
0.000932721
0.000916092
0.000890171
0.000855633
0.000814193
0.000766665
0.000717384
0.000662944
0.000598527
0.000102518
0.000117878
0.00013301
0.000154231
0.000162092
0.000167032
0.000169943
0.000172775
0.000176867
0.000187174
0.000186353
0.000178264
0.000175577
0.000173112
0.000170299
0.000165325
0.000156232
0.000135884
0.000124247
0.000104633
0.000132978
0.000291781
0.000351373
0.000396539
0.000424754
0.000445925
0.000467604
0.000499083
0.000527505
0.000465958
0.000457613
0.000520398
0.000498414
0.000470827
0.000450714
0.000430052
0.00040185
0.000356984
0.000293784
0.000137875
0.000144797
0.000341125
0.000420057
0.000467304
0.00049173
0.000502285
0.000511048
0.000527721
0.00050075
0.000335299
0.00033221
0.0005012
0.000528496
0.00051543
0.000508578
0.000498557
0.000474186
0.000426748
0.000345212
0.000157
0.000195734
0.00033323
0.000429761
0.000493406
0.000529986
0.000543777
0.000544043
0.000541831
0.000467747
0.000304196
0.000301077
0.000477542
0.000545795
0.000548912
0.000548699
0.000534466
0.000497833
0.000434748
0.000339522
0.000203851
0.000237058
0.000312294
0.000396948
0.000465002
0.000510401
0.000536787
0.000550959
0.000553422
0.000454531
0.000344996
0.000333326
0.000466473
0.00055753
0.0005546
0.000540976
0.000514927
0.000469637
0.000401729
0.000318976
0.000247728
0.000358688
0.000342803
0.000369363
0.000430311
0.00048441
0.000519069
0.000538378
0.000543615
0.000438402
0.000394115
0.000379219
0.000450432
0.000550115
0.000544548
0.000525544
0.000490492
0.000435662
0.000374413
0.000349029
0.00036324
0.000436308
0.00043519
0.00041261
0.000457786
0.00051732
0.000555331
0.000570552
0.000576246
0.000507997
0.000471294
0.000460929
0.000520273
0.000586051
0.000581337
0.000566572
0.000527856
0.000466609
0.0004197
0.000442741
0.000437938
0.000495284
0.000714742
0.000648939
0.000683686
0.000730981
0.000760546
0.000758181
0.000717406
0.000642028
0.000585713
0.000578905
0.000649485
0.000726589
0.000768336
0.000771588
0.000742305
0.000694507
0.000659302
0.000728638
0.000495536
0.000548268
0.000800558
0.00113591
0.00137355
0.00159738
0.00173241
0.00174451
0.00155601
0.00114946
0.000982025
0.000969719
0.00116133
0.0015678
0.00175057
0.00173565
0.00160057
0.00137829
0.00114132
0.00080459
0.000547769
0.000601818
0.000669234
0.000726368
0.00077897
0.00083125
0.000877878
0.000918706
0.000954162
0.000988985
0.00103616
0.00103042
0.000985122
0.000951236
0.000916195
0.000875614
0.000829211
0.000777177
0.000724719
0.000667739
0.000600542
0.000112748
8.26428e-05
0.000156838
0.000143239
0.00015184
0.000159505
0.000167343
0.000176923
0.000183836
0.000195242
0.000194824
0.000185122
0.000179033
0.000169791
0.000161988
0.000154192
0.000146783
0.000165689
8.39542e-05
0.000111947
0.000135838
0.000321084
0.000379062
0.000424031
0.000460918
0.000489533
0.000519105
0.000527657
0.000409173
0.000453585
0.000446956
0.000407943
0.000526422
0.000516512
0.00048709
0.000459277
0.000424263
0.000377212
0.000314789
0.000135763
0.000153595
0.000349312
0.000421386
0.000478905
0.00051281
0.000534011
0.000547812
0.000500887
0.000312992
0.000564983
0.000550253
0.000314096
0.000506721
0.000547055
0.000532359
0.000511996
0.000479289
0.000422559
0.000342612
0.000152679
0.000157204
0.000345617
0.000446258
0.000509677
0.00054393
0.000558851
0.000559104
0.000467854
0.000316479
0.000777163
0.000752318
0.000312829
0.000481522
0.000562568
0.000559968
0.000544324
0.00050883
0.000443967
0.000339768
0.000166565
0.000201264
0.000291703
0.000392476
0.000472878
0.000530222
0.000564452
0.000572149
0.000454619
0.000377931
0.00104214
0.00100485
0.000364169
0.000469315
0.000575324
0.000563737
0.000527941
0.000469486
0.000388586
0.000291912
0.000213281
0.000342766
0.000311906
0.0003356
0.000402734
0.000472933
0.000526935
0.00055284
0.000438452
0.000443895
0.00129194
0.00124375
0.000421445
0.000451428
0.000556764
0.000527843
0.000472469
0.000401767
0.000335754
0.00031564
0.000347417
0.000424241
0.000398858
0.000367213
0.000406572
0.000475467
0.000534704
0.000570686
0.000508031
0.000536745
0.00146124
0.00140767
0.000515011
0.000520372
0.000578137
0.000540861
0.000480271
0.000410179
0.000370929
0.000404479
0.000425655
0.00048464
0.000646682
0.000576969
0.000604074
0.000652884
0.000687479
0.000687301
0.000642068
0.000677645
0.00153709
0.00148458
0.00066089
0.000651284
0.00069639
0.000696009
0.000660767
0.000611637
0.000585272
0.000659006
0.000484491
0.000538202
0.000740623
0.00104928
0.00125408
0.00145938
0.00154473
0.00145874
0.0011496
0.00104014
0.00147871
0.0014443
0.00102467
0.00116656
0.00147148
0.00155065
0.00146205
0.00125715
0.00105288
0.000743313
0.000537187
0.000596915
0.00066547
0.000723749
0.000778177
0.000834595
0.000886586
0.000936079
0.000988967
0.00105924
0.00115006
0.00114367
0.00105361
0.000984921
0.000932792
0.000883639
0.000831863
0.000775699
0.000721449
0.000663368
0.000595154
7.99e-05
0.000209332
8.62072e-05
0.000133594
0.000146805
0.000158175
0.000171868
0.000187269
0.000195301
0.000202302
0.000202339
0.000195874
0.000187815
0.000172581
0.00015912
0.000148097
0.000134641
8.77736e-05
0.000199026
7.91476e-05
0.000113813
0.0003714
0.00042576
0.000480634
0.000534506
0.000568144
0.000591534
0.000466106
0.000453707
0.000300896
0.000300268
0.000451968
0.000465127
0.00058684
0.000560442
0.000526553
0.000474594
0.000418579
0.000362146
0.000114929
0.000152027
0.000410728
0.000479751
0.00053645
0.000588177
0.000607772
0.000570437
0.0003354
0.00056506
0.000438648
0.000436964
0.000557779
0.00033753
0.000570934
0.000599929
0.000579714
0.000528132
0.000470957
0.000401202
0.000153763
0.000167689
0.000419239
0.000496544
0.000555522
0.000601455
0.000610445
0.00053362
0.000304261
0.000777175
0.000586258
0.000584253
0.000761324
0.000305202
0.000540791
0.000605598
0.000593926
0.000547792
0.000490154
0.000409273
0.000167767
0.000182054
0.00032052
0.000455452
0.000546542
0.000600784
0.000619181
0.000526963
0.000345014
0.00104206
0.000754714
0.000753183
0.00101463
0.000338804
0.000534503
0.000613353
0.00058948
0.00052953
0.000433932
0.000307284
0.000196537
0.000329117
0.000306762
0.000337905
0.000415273
0.000510374
0.000579526
0.000518159
0.000394041
0.00129173
0.000938941
0.000938603
0.0012522
0.00038156
0.000521621
0.000570531
0.000497103
0.000402835
0.000329982
0.000307565
0.000333891
0.00040895
0.00038122
0.00034777
0.00038389
0.000470739
0.000559349
0.000560937
0.000471184
0.00146094
0.00112186
0.00112393
0.00141489
0.00046027
0.000564687
0.000556436
0.000466334
0.000380661
0.000348046
0.000385634
0.000410086
0.000466949
0.00057667
0.000502706
0.000522537
0.00057082
0.000609789
0.000608703
0.00058562
0.00153671
0.00125619
0.00126099
0.00148886
0.000578487
0.000614626
0.000614557
0.000574538
0.000526586
0.000508645
0.000586759
0.00046624
0.000517653
0.000647069
0.000878865
0.00105918
0.00122231
0.00121668
0.000984041
0.000981896
0.0014784
0.00135309
0.00135631
0.00144393
0.000968517
0.000993362
0.00122583
0.00122345
0.00105893
0.000882378
0.000647807
0.000515887
0.000578623
0.000647526
0.000704411
0.000761933
0.00082401
0.000883134
0.000947108
0.0010361
0.00114998
0.00117428
0.00117869
0.00114313
0.00102953
0.000942065
0.000879078
0.000820331
0.00075852
0.000701387
0.000644724
0.000576157
0.000133137
7.79861e-05
0.000190447
0.000138745
0.000147244
0.000157731
0.000171145
0.000186369
0.000194826
0.000202331
0.000202172
0.000195165
0.000186908
0.000171638
0.000158166
0.000147428
0.000138185
0.000194391
7.7683e-05
0.000143904
0.000149175
0.000345767
0.000421448
0.000467594
0.000518462
0.000551412
0.000577713
0.000457622
0.000446916
0.000300304
0.000300794
0.000449883
0.000462151
0.000581713
0.000554799
0.00052156
0.000469852
0.000422713
0.000346311
0.00015372
0.000157834
0.000398722
0.000466923
0.000521907
0.000571068
0.000590141
0.000562404
0.000332308
0.000549926
0.000436987
0.000437213
0.000551333
0.000335318
0.000566558
0.000592866
0.000573544
0.000523631
0.000467865
0.000397517
0.000158306
0.000164957
0.000406052
0.000485304
0.000545053
0.000589397
0.000599591
0.000536317
0.000301125
0.000751655
0.000584274
0.000583824
0.000748809
0.000301852
0.00053903
0.000599256
0.000587724
0.000543774
0.000486313
0.000404658
0.000165633
0.000184082
0.000315186
0.000452537
0.000542154
0.000594179
0.000613954
0.000534487
0.000333104
0.00100376
0.000753217
0.000751751
0.000993736
0.000329879
0.000534134
0.000607877
0.000584402
0.00052612
0.000431354
0.000304345
0.000198128
0.00033124
0.000307356
0.000336553
0.000413851
0.000510555
0.000580628
0.000526696
0.000378865
0.00124228
0.000938665
0.000936031
0.00122353
0.000369626
0.000521026
0.000566595
0.000493582
0.000399774
0.000328539
0.000308702
0.000335413
0.00040964
0.000383207
0.000347717
0.000382363
0.000471315
0.000562965
0.000569091
0.000460642
0.00140601
0.00112406
0.00112069
0.00138124
0.00044924
0.000563158
0.000553517
0.000463298
0.000378303
0.000348106
0.000387543
0.0004103
0.000466692
0.000579725
0.000501321
0.000518744
0.000567679
0.000609461
0.000611463
0.000578668
0.00148293
0.0012612
0.00125805
0.00145378
0.000569753
0.000611497
0.000610739
0.000570166
0.000523022
0.00050744
0.000588648
0.000465576
0.000516748
0.000645922
0.00087672
0.00104882
0.00121117
0.00120807
0.000980385
0.000969303
0.00144318
0.00135647
0.00135222
0.00142082
0.00095748
0.000990175
0.00122057
0.00121489
0.00105066
0.000879475
0.000645631
0.000514588
0.000577132
0.000645485
0.000701835
0.000758575
0.000820195
0.000878946
0.000942389
0.00103019
0.00114341
0.00117879
0.00117649
0.00113667
0.00102375
0.000937329
0.000874963
0.000816589
0.000755166
0.000698649
0.000642395
0.000574261
9.57661e-05
0.000139569
9.76422e-05
0.000140061
0.000152344
0.000160862
0.000168854
0.000178316
0.00018514
0.000195857
0.000195189
0.000184924
0.000178464
0.000169089
0.000161162
0.000152746
0.000141407
9.93548e-05
0.000147314
8.89546e-05
0.000134494
0.000317171
0.000368446
0.000417774
0.000451188
0.00047828
0.000507663
0.000520349
0.00040799
0.00045195
0.000449978
0.000408704
0.000522972
0.000510645
0.00048135
0.000454407
0.000420816
0.000369889
0.000316694
0.000131702
0.00015089
0.000341223
0.000416542
0.000471806
0.000503458
0.000522944
0.000537452
0.000501321
0.000314167
0.000557559
0.000551513
0.000314227
0.000504526
0.00054052
0.000526084
0.000506883
0.000475317
0.000420021
0.000340506
0.000151603
0.000161552
0.000336791
0.000438607
0.000502293
0.00053708
0.000552446
0.000554936
0.000477838
0.000312751
0.000760843
0.000749038
0.00031028
0.000481017
0.000556674
0.000553977
0.000538801
0.000503789
0.000439634
0.000336132
0.000166796
0.000207689
0.000290258
0.00039047
0.000471005
0.000527246
0.000560662
0.000570471
0.000466815
0.000363807
0.0010138
0.000993995
0.000355988
0.000468884
0.000568974
0.000557247
0.0005227
0.000465645
0.000385474
0.000289956
0.000216144
0.000346134
0.000313898
0.000334477
0.000401825
0.000473882
0.000529121
0.000556364
0.000450754
0.000420838
0.00125103
0.00122378
0.000407907
0.000451008
0.000552055
0.000523485
0.000468378
0.000397714
0.000333207
0.000316778
0.000348803
0.00042488
0.000401505
0.000366701
0.000404936
0.000476627
0.000539677
0.000577994
0.000520538
0.00051439
0.0014135
0.00138148
0.000499437
0.00051853
0.000573888
0.000536685
0.000475572
0.000405949
0.000369543
0.000405866
0.000425051
0.000483878
0.000649285
0.000575346
0.000601206
0.000651865
0.000689891
0.000692723
0.000649592
0.000660377
0.00148741
0.00145399
0.000647416
0.000648915
0.000692353
0.000690677
0.000654524
0.000605837
0.000581537
0.000658191
0.000482766
0.000536638
0.000735939
0.00104126
0.00124802
0.00145034
0.00153795
0.00146006
0.00116163
0.00102417
0.00144294
0.00142089
0.0010123
0.00117493
0.00147207
0.00154315
0.00145145
0.00124723
0.00104216
0.000736763
0.000534764
0.000595047
0.000663231
0.00072117
0.000775275
0.000831308
0.00088315
0.000932564
0.000984948
0.00105339
0.00114291
0.00113668
0.00104755
0.000980275
0.000928697
0.000879677
0.000828016
0.00077211
0.00071816
0.00066039
0.00059248
9.55289e-05
0.000126138
0.000146864
0.000154972
0.000163894
0.000169441
0.000172719
0.000175618
0.000179045
0.000187775
0.000186956
0.000178482
0.000175418
0.000172753
0.00016984
0.000164989
0.000156324
0.000150497
0.000127089
9.57545e-05
0.000130929
0.000289981
0.000354811
0.000397096
0.000425219
0.00044643
0.000467768
0.000498354
0.000526336
0.00046512
0.000462269
0.000523067
0.000497438
0.000468259
0.000447876
0.000427505
0.000399946
0.000357226
0.000291842
0.000132433
0.000151376
0.000342368
0.000421006
0.000467858
0.000492802
0.000503855
0.000512134
0.000528472
0.00050679
0.000337579
0.000335385
0.000504604
0.000527629
0.000513117
0.000506111
0.000496047
0.000471737
0.000424782
0.000343498
0.00015825
0.000201893
0.0003362
0.000430969
0.000493363
0.000529579
0.00054421
0.000545876
0.00054583