/*--------------------------------*- C++ -*----------------------------------*\
| =========                 |                                                 |
| \\      /  F ield         | OpenFOAM: The Open Source CFD Toolbox           |
|  \\    /   O peration     | Version:  v1912                                 |
|   \\  /    A nd           | Website:  www.openfoam.com                      |
|    \\/     M anipulation  |                                                 |
\*---------------------------------------------------------------------------*/
FoamFile
{
    version     2.0;
    format      ascii;
    class       surfaceScalarField;
    location    "700";
    object      phi;
}
// * * * * * * * * * * * * * * * * * * * * * * * * * * * * * * * * * * * * * //

dimensions      [0 3 -1 0 0 0 0];
oriented        oriented;


internalField   nonuniform List<scalar> 
11200
(
0.00350487
-0.00701737
0.00350317
0.0042941
-0.00351539
0.00272623
0.0022226
0.000446115
0.00162569
-0.000729258
0.00238061
0.000571871
-0.00141315
0.00060548
7.89605e-05
-0.00113253
-0.000250377
-2.98835e-05
-0.000811951
-0.000257606
-6.16379e-05
-0.000572744
-0.000175104
-5.77434e-05
-0.000442739
3.15132e-05
-0.000172482
0.000229309
-0.000711272
2.36838e-05
0.000331347
0.000137345
-0.000222871
0.000635454
-0.000289218
-1.6735e-05
0.000872225
-0.000220218
-2.29268e-05
0.0011609
-0.000253144
-4.65023e-05
0.00140037
-0.000228903
-1.19343e-05
0.000542327
0.00071193
0.000146643
-0.00271809
0.00251627
0.000745285
-0.00462687
0.00020783
0.00170142
-0.00368499
-0.0037064
0.00276482
-0.00722465
0.00353983
0.00177442
-0.0105654
0.00177374
0.00293719
-0.00620986
0.00153205
0.00317542
-0.0010412
0.00124985
0.00261307
0.00182635
0.00111751
0.000502995
0.00164959
0.00106658
-0.00101087
0.000721968
0.000542313
-0.00126978
4.38771e-05
-4.2142e-05
-0.000959835
-0.00033401
-0.000160515
-0.000403089
-0.000251353
-0.000288267
-0.000128107
-0.000497049
-0.000502435
0.000689465
-0.000360402
-0.000329167
0.00101357
-0.000285317
-0.000321975
0.00129218
-0.00035335
-0.000158105
0.00100164
5.91979e-05
-2.39371e-05
-0.000551004
0.000756886
0.000567972
-0.00262752
0.00175121
0.00103896
-0.00314692
0.00200325
0.00103327
-0.00295007
-0.00113825
0.00114991
-0.00181319
-0.0063398
0.00149686
-0.0107945
0.00175673
0.000978376
-0.0125224
0.000978695
0.00183645
-0.00823654
0.00116882
0.00307052
-0.00345924
0.00118434
0.00361761
9.47897e-05
0.00118462
0.00293835
0.00123505
0.00109407
0.00159505
0.00118317
0.000883725
1.98594e-06
0.000854841
0.000785348
-0.000748183
0.000220189
0.000178372
-0.000471098
-6.18141e-05
-0.000439499
1.14377e-05
-0.000190257
-0.000804016
0.000594775
-0.000208059
-0.000727328
0.000719724
-4.15683e-05
-0.000371272
-0.000114853
0.000233992
0.000245661
-0.00169592
0.000846634
0.000793818
-0.00297636
0.00116696
0.000871441
-0.00357375
0.00127857
0.00107082
-0.00293533
0.000249896
0.00111551
-0.0017465
-0.00344821
0.00112143
-0.000948242
-0.00827326
0.00113518
-0.0127094
0.000966664
0.000463136
-0.0134498
0.000464323
0.000666185
-0.00945856
0.00101891
0.00141116
-0.00547351
0.00126929
0.00240287
-0.00233474
0.00143773
0.00268986
-0.000391547
0.00133962
0.00221731
0.000492264
0.00116435
0.00142386
0.000672399
0.000978548
0.000342684
0.000610684
0.000685496
-0.000207919
0.000421788
7.70982e-05
3.99647e-05
0.000242357
-0.000677943
0.000165443
0.000261745
-0.000594645
-0.000524924
0.000461061
0.000187095
-0.00160098
0.000578388
0.000732109
-0.00236336
0.000591756
0.00101825
-0.00277188
0.000375084
0.0012014
-0.00239398
-0.000477741
0.00137923
-0.00130228
-0.00229755
0.00145622
-0.000557378
-0.00546956
0.00127648
-0.000403609
-0.00944975
0.00102258
-0.0135919
0.000478766
7.26417e-05
-0.0135971
7.45221e-05
-0.000302833
-0.0100184
0.0009349
-0.000343133
-0.00679686
0.00136329
-8.4659e-05
-0.00431222
0.00171865
0.000269553
-0.00261526
0.00186947
0.000556817
-0.00150999
0.00171591
0.000603102
-0.000860495
0.00148882
0.000390101
-0.00041862
0.00124372
9.84715e-05
-0.000178378
0.000897229
-2.17939e-06
-8.3378e-05
0.000433542
-5.50439e-05
-0.000141491
0.000460978
-0.000267601
-0.000272381
0.000946928
-0.00044947
-0.00052283
0.00128393
-0.000403581
-0.00098443
0.00153159
-0.000160049
-0.00163784
0.00177065
0.000172723
-0.00272754
0.0019177
0.000457282
-0.00434329
0.00176125
0.000405463
-0.00680595
0.00138798
3.9702e-06
-0.0100109
0.000962418
-0.0137052
0.000117147
-0.000245518
-0.0131085
-0.000243317
-0.00101567
-0.0100748
0.000826051
-0.00153916
-0.00756589
0.00129202
-0.00171882
-0.00574486
0.00161194
-0.00165436
-0.00452206
0.00184221
-0.00137299
-0.00367013
0.00187913
-0.000985954
-0.00302871
0.00178205
-0.000592066
-0.00250169
0.0016901
-0.000251313
-0.00214715
0.00162866
2.59072e-05
-0.0019538
0.00159448
0.000332829
-0.00203898
0.00159083
0.000716216
-0.00228702
0.00163134
0.00113241
-0.00263248
0.00169405
0.00151357
-0.00315076
0.00178591
0.0017735
-0.00377975
0.00188246
0.00181647
-0.00461301
0.00184255
0.00163973
-0.00579618
0.00162941
0.00111198
-0.00759325
0.00131471
0.00032674
-0.0100885
0.000862434
-0.0131959
-0.000182853
-0.000552893
-0.0120053
-0.00055068
-0.00161542
-0.00959514
0.000582079
-0.0023678
-0.00780404
0.00098991
-0.0026708
-0.00663699
0.00119471
-0.00261592
-0.00589376
0.00131659
-0.00228206
-0.00539167
0.0013876
-0.00175191
-0.00499061
0.00143189
-0.00109465
-0.0046043
0.00144614
-0.000437638
-0.00428977
0.00148583
6.95031e-05
-0.00403797
0.00157654
0.000568662
-0.00410335
0.00156476
0.00121101
-0.00439524
0.00146574
0.00186248
-0.0047027
0.00141886
0.00239012
-0.00507932
0.00140101
0.00272113
-0.00547206
0.00136123
0.00277198
-0.00596321
0.00129912
0.00246929
-0.00668767
0.00119382
0.00171411
-0.0078394
0.00100089
0.000632808
-0.00962048
0.000612818
-0.0120777
-0.000485839
-0.000955616
-0.0100966
-0.000953495
-0.0022921
-0.0082931
3.34705e-05
-0.00320066
-0.00717756
0.000281256
-0.00355392
-0.00658089
0.000296509
-0.00344634
-0.0062603
0.000258421
-0.00297747
-0.00608084
0.000219769
-0.00225509
-0.00593779
0.000224203
-0.00138555
-0.00576096
0.000286498
-0.000533862
-0.0055605
0.000418283
6.95168e-05
-0.00530853
0.000666317
0.000664357
-0.00534656
0.000647627
0.00150025
-0.00561785
0.000386188
0.00236268
-0.00581382
0.000248331
0.00308246
-0.00598677
0.000187331
0.00355002
-0.00612665
0.000186666
0.00365632
-0.00630192
0.000231953
0.00330213
-0.00661612
0.000282131
0.00239094
-0.00720608
0.000277304
0.00103377
-0.00831986
5.59294e-05
-0.0101515
-0.000892944
-0.00167707
-0.00674496
-0.00167511
-0.00330633
-0.00560368
-0.00106144
-0.00429441
-0.00513473
-0.00105574
-0.00463971
-0.0050113
-0.0012251
-0.00444837
-0.00500687
-0.0014455
-0.00385092
-0.0050668
-0.0016122
-0.00294367
-0.0051207
-0.0017251
-0.00183023
-0.005129
-0.00174623
-0.000704368
-0.00508008
-0.00160719
7.08077e-05
-0.00496263
-0.00112207
0.000836829
-0.00497884
-0.00113469
0.00194268
-0.00510069
-0.00162378
0.00304837
-0.00514698
-0.00177315
0.00395398
-0.00513782
-0.00175511
0.00455177
-0.00508358
-0.00164141
0.0047428
-0.00502353
-0.00147001
0.00439687
-0.00502663
-0.00124419
0.00340284
-0.00514947
-0.00106329
0.00175144
-0.00561987
-0.00104939
-0.00677636
-0.00162445
-0.00337381
-0.00337204
-0.00535715
-0.00362167
-0.00629085
-0.00420191
-0.00654439
-0.00475846
-0.00623237
-0.00531954
-0.00545768
-0.00584213
-0.00427772
-0.00630131
-0.00276288
-0.00664454
-0.0010902
-0.00675351
7.5094e-05
-0.00612879
0.00121984
-0.00612441
0.00287224
-0.00675376
0.00438245
-0.00665773
0.00556321
-0.00631909
0.00633917
-0.00586005
0.00665091
-0.0053358
0.00639472
-0.00477102
0.00545195
-0.00420737
0.00344517
-0.0036139
-0.003332
0.00272809
-0.00351999
0.00429513
0.00315312
-0.00085108
0.00315276
0.00148879
0.00191115
0.00137984
-0.000508147
0.00258993
-1.99492e-05
-0.000819556
0.000288098
0.000103289
-0.00059093
-0.00029736
4.01553e-05
-0.000381526
-0.000312905
4.2452e-05
-0.000273761
-0.000209127
2.25735e-05
-7.33519e-05
-0.000486424
9.58987e-05
-8.39375e-06
1.2116e-05
-5.87899e-05
0.000214605
-0.00050212
6.02205e-05
0.000288825
-8.48547e-05
-2.13129e-05
0.00040781
-0.000224617
8.05653e-05
0.000597163
-0.000322909
8.44374e-05
0.000798057
-0.000272542
6.07716e-05
0.000256472
0.000484094
0.000206128
-0.00204005
0.00300799
3.52063e-05
-0.00353583
0.00160472
0.00159316
-0.00292724
-0.00127977
0.00343618
-0.00398706
0.00459988
0.00153359
-0.00621585
0.00293635
0.00268509
-0.00315355
0.00268387
0.003058
0.000510512
0.00227836
0.00269452
0.00196301
0.00210828
0.00120344
0.0014489
0.00139729
-2.8791e-05
0.000646446
0.00083406
-0.000447463
-0.000115893
0.000188562
-0.00032886
-0.000385397
-0.000129143
-0.000259422
-0.000365781
-0.000465731
6.09103e-05
-0.000307339
-0.00050359
0.000161392
-0.000331505
-0.000609482
0.000409765
-0.000360489
-0.000300074
0.000472959
-0.000407035
-4.19027e-05
-1.08615e-05
-0.000118152
0.00025601
-0.00129871
0.000706649
0.000878872
-0.00281098
0.00159446
0.00144227
-0.00309621
0.00224191
0.00208526
-0.00276697
0.000255165
0.00217063
-0.00161618
-0.00358464
0.00265147
-0.00671634
0.0028701
0.00116953
-0.00824238
0.00183591
0.00239392
-0.00560127
0.0023926
0.00359017
-0.00205386
0.00255263
0.00390857
0.000460147
0.00236905
0.00332162
0.00121257
0.00191739
0.00223973
0.00111656
0.00149618
0.00106433
0.000733123
0.00111285
0.000187537
0.000161045
0.000506808
-9.22367e-05
-0.000196126
-0.000324788
8.98885e-06
-0.000349909
-0.000855656
8.0167e-05
-0.000335988
-0.000796145
-0.000255686
-0.000194731
-0.00020136
-0.00116772
0.000156177
0.00059544
-0.00234549
0.000706745
0.00114819
-0.00338017
0.00110778
0.00150602
-0.00391025
0.00128408
0.00191199
-0.00349256
0.000620146
0.00232
-0.00234711
-0.00218531
0.00241669
-0.00118604
-0.00586457
0.00225401
-0.00864865
0.00171298
0.00101867
-0.00946366
0.000666887
0.00177645
-0.00711677
0.00177649
0.00267639
-0.00398508
0.00230041
0.00336302
-0.00116663
0.00237775
0.00332788
0.000493015
0.00209453
0.00273762
0.00110963
0.00176258
0.00196842
0.00106935
0.00141362
0.00110564
0.000773278
0.000936957
0.000397369
0.000427812
0.00016506
-2.0044e-05
0.00014792
-0.000755453
-0.000466651
0.000169918
-0.000653126
-0.00122885
0.000455675
0.000299616
-0.00211802
0.000758812
0.00101986
-0.00287616
0.00101123
0.00147305
-0.00341975
0.00104086
0.00181284
-0.00337737
0.000484674
0.00213676
-0.00259626
-0.00108595
0.00238128
-0.00172392
-0.00401877
0.0022374
-0.00101018
-0.00727669
0.00172075
-0.00977852
0.000598359
0.000933924
-0.0100223
-0.000301089
0.00124847
-0.00774672
0.00124976
0.0014267
-0.00488546
0.002085
0.00167796
-0.00214456
0.00244507
0.00181789
-0.000216275
0.00243902
0.00170519
0.000768814
0.00217034
0.00138413
0.00105056
0.00183036
0.000923754
0.001062
0.0014172
0.000411156
0.000974872
0.000865709
2.24735e-05
0.000875159
9.79347e-05
-0.000350279
0.000878786
0.000125851
-0.000839292
0.000970742
0.000921785
-0.00130672
0.00104068
0.00147074
-0.00164649
0.000997672
0.00188616
-0.00177244
0.000703789
0.00223445
-0.00162515
-0.000245493
0.00250079
-0.00133921
-0.00209962
0.00248878
-0.00118
-0.0048801
0.00208974
-0.000901532
-0.00785218
0.00125908
-0.0102661
-0.000297026
0.000824809
-0.0100776
-0.00101344
0.000800284
-0.00769919
0.00080224
0.000486618
-0.00507779
0.00179736
0.000220904
-0.00258881
0.00232153
0.000145972
-0.000835381
0.00253619
0.000190528
0.000186137
0.00241754
0.000166599
0.000692448
0.00216486
7.61168e-05
0.000960207
0.00188448
-1.44595e-05
0.0010755
0.00161954
3.08681e-05
0.00106611
0.00135802
0.000104981
0.00103631
0.00135919
5.98423e-05
0.00102167
0.00162594
-1.04154e-05
0.000918911
0.00188677
-4.70292e-05
0.000649855
0.00217089
-3.67133e-05
0.000142993
0.00243316
-0.000136339
-0.000859062
0.00255555
-0.000392591
-0.00257108
0.00235665
-0.000721925
-0.00506412
0.00182754
-0.000782094
-0.00777949
0.000849408
-0.0102644
-0.000967015
0.000580829
-0.00959692
-0.00161294
0.000281779
-0.00710308
0.000283943
-0.00024638
-0.004891
0.00133032
-0.000594816
-0.00294953
0.00190308
-0.000741075
-0.0015753
0.00220212
-0.000682867
-0.000704376
0.00221933
-0.000551118
-0.000155766
0.00214767
-0.000412117
0.000225371
0.00204151
-0.000225887
0.0004172
0.00195719
6.40242e-05
0.000473424
0.00187844
0.000356546
0.000439117
0.00186881
0.000550584
0.0003556
0.00193752
0.000693887
0.000181094
0.00201331
0.000816315
-0.000188855
0.00211714
0.000857159
-0.000734656
0.00219764
0.000696421
-0.00159741
0.00219759
0.000346577
-0.00295684
0.00192873
-0.000190845
-0.00489273
0.00136619
-0.000529706
-0.00716576
0.000337251
-0.00973253
-0.00154795
3.22436e-05
-0.00829405
-0.00228957
-0.000553975
-0.0059329
-0.00055192
-0.00118971
-0.00430738
0.000332058
-0.00149557
-0.00310583
0.000757502
-0.00154103
-0.00227623
0.0010037
-0.00134507
-0.00168848
0.00100677
-0.000995807
-0.00128699
0.00100482
-0.000600663
-0.000958798
0.00107408
-0.000207194
-0.000743257
0.00118372
7.2959e-05
-0.000481198
0.00133923
0.000350328
-0.000513586
0.00132161
0.000737262
-0.000791623
0.00114543
0.00112712
-0.000989745
0.00102846
0.00146954
-0.00130765
0.00096287
0.00165879
-0.00170741
0.000969278
0.00160841
-0.00229282
0.000976814
0.0012903
-0.0031234
0.00076583
0.000648586
-0.00432715
0.00035243
2.52181e-05
-0.00597776
-0.00050972
-0.00838033
-0.00222066
-0.00106243
-0.0056041
-0.00330391
-0.00211423
-0.00383176
-0.00211247
-0.00286279
-0.00294208
-0.0016739
-0.00315012
-0.00245106
-0.00159379
-0.00302035
-0.00216409
-0.0016886
-0.00261477
-0.0020027
-0.00170476
-0.0020247
-0.00189477
-0.00170871
-0.00134141
-0.00178964
-0.00160012
-0.000645166
-0.00170433
-0.00134394
8.32702e-05
-0.00147356
-0.000859958
0.000795363
-0.0014845
-0.000877575
0.00147586
-0.00171607
-0.00138113
0.00215213
-0.00179744
-0.00164276
0.00273827
-0.00190074
-0.00174911
0.00313984
-0.00200883
-0.0017425
0.00326313
-0.00217157
-0.00171551
0.00296778
-0.00246001
-0.00161325
0.0022031
-0.00295467
-0.00167221
0.00111504
-0.00385484
-0.00208546
-0.00564764
-0.00324303
-0.00362256
-0.00535491
-0.00553934
-0.00553782
-0.00647698
-0.00620721
-0.00673522
-0.00695203
-0.00647723
-0.00774231
-0.00580211
-0.00852064
-0.00476433
-0.00923457
-0.00339408
-0.0098052
-0.0017832
-0.0100696
7.68326e-05
-0.00946334
0.00192149
-0.00945441
0.0035208
-0.0100698
0.00488475
-0.00981967
0.00591791
-0.00925353
0.00658814
-0.00853965
0.00683968
-0.00775949
0.00657208
-0.00696408
0.00561829
-0.00620901
0.00367146
-0.00552282
-0.0053086
0.00162661
0.000441316
0.00222751
0.00137962
0.00191003
0.00149071
-0.000142321
0.00304373
-0.000141234
-0.00062135
0.000706225
-0.000246484
-0.000350033
-0.00017056
2.44123e-06
-5.2304e-05
-0.000427226
0.000171413
0.000112428
-0.000353949
0.000237504
0.000109012
-0.000267159
0.000278844
-1.44307e-05
-8.35781e-05
0.000290922
0.000112307
-0.000420143
0.0002553
-6.75396e-05
1.34948e-05
0.000225693
-6.33181e-05
-0.000365397
0.00033343
-6.38029e-05
-0.000222118
0.000297943
0.00010711
-0.000351167
0.000266442
0.000406746
-0.000410322
0.000173706
0.000694149
-0.000112348
3.26434e-05
1.44644e-05
0.000959915
-0.000243973
-0.00167872
0.00318735
0.000100122
-0.00183414
0.00154538
0.00204635
-8.46534e-05
0.0028504
0.00125063
-0.00104806
0.00317588
0.00227905
0.000508202
0.00305812
0.0028452
0.00191053
0.00284571
0.00210532
0.00152877
0.0020255
0.00100175
0.00107498
0.00125522
0.000233569
0.000387316
0.000787044
-3.74906e-05
-0.000255607
0.000355917
4.82873e-06
-0.000515937
8.70967e-05
8.02082e-05
-0.000443569
-0.000184784
-6.86494e-05
-0.00033514
-0.000436441
1.07458e-05
-0.000350449
-0.000323101
-7.50656e-05
-0.000454168
-0.000129762
2.17356e-05
-0.000536118
0.00017732
-0.00025707
-0.00025235
0.000437899
-0.00106422
0.0004314
0.000845694
-0.00219796
0.0011613
0.00130321
-0.00290667
0.00167049
0.00208407
-0.00229124
0.001944
0.00279879
-0.00124657
8.92177e-05
0.00306316
-0.00162416
0.00316323
0.00118492
-0.00346672
0.00307008
0.00255388
-0.00205728
0.00358938
0.00364111
-0.000264461
0.00364037
0.00372801
0.000739958
0.00307094
0.00318486
0.00111459
0.00242115
0.00224691
0.000973427
0.00184898
0.00123501
0.000578318
0.00129308
0.000504158
4.54035e-05
0.000675445
0.000128183
-0.000338705
-5.09473e-05
-2.6016e-05
-0.000439885
-0.000594772
-0.000204838
-0.000452845
-0.000514204
-0.000610511
-0.00034727
9.90747e-05
-0.00136149
2.52981e-05
0.000786596
-0.00236759
0.000544105
0.00135885
-0.00327258
0.00095404
0.00188903
-0.0037797
0.00113856
0.00244226
-0.0036514
0.000800823
0.0030618
-0.00252182
-0.000328659
0.00355989
-0.00116837
-0.00243792
0.00342783
-0.00397112
0.00289163
0.00126915
-0.00547915
0.00141023
0.00230079
-0.00398834
0.00267579
0.00328951
-0.00224167
0.00328879
0.00373481
-0.000466589
0.00313898
0.0035374
0.000726857
0.00267993
0.00291076
0.00117002
0.00219329
0.00213328
0.0010526
0.00171802
0.00128764
0.000685517
0.00114375
0.000531868
0.000242521
0.000342948
-4.2884e-05
-0.000108514
-0.000509625
-0.000641667
-0.000103118
-0.000402708
-0.00142985
0.000245621
0.000496363
-0.00228839
0.000655702
0.00124922
-0.00305513
0.000990405
0.00179437
-0.00364666
0.00110444
0.00225452
-0.00379188
0.000698132
0.00272265
-0.00328977
-0.000459567
0.00313956
-0.00227469
-0.00232108
0.00321469
-0.00127359
-0.0042447
0.00252642
-0.00585017
0.00120382
0.00136249
-0.00680094
-0.000342123
0.00208425
-0.00488851
0.00142776
0.00251965
-0.00311259
0.0025202
0.00277812
-0.0011643
0.00288423
0.00274795
0.000413283
0.00278294
0.0024057
0.00123322
0.00244986
0.00189854
0.00134799
0.00204293
0.00131102
0.00114092
0.00155056
0.000666169
0.000860022
0.00089445
3.55634e-05
0.000616822
4.45038e-06
-0.000605579
0.000618767
4.64168e-05
-0.00126482
0.000861439
0.00096643
-0.00187504
0.00112194
0.0016157
-0.00240186
0.00130159
0.00210254
-0.00275005
0.00118007
0.00250746
-0.00277004
0.000389876
0.00282916
-0.00248909
-0.00115682
0.00290497
-0.00205018
-0.00317427
0.00250383
-0.00133998
-0.00508563
0.00138962
-0.00707677
-0.000410545
0.00129111
-0.00756872
-0.00153725
0.00179592
-0.00508045
0.000488702
0.00183847
-0.00319847
0.00184016
0.00170261
-0.00122288
0.00251569
0.00154471
0.000348056
0.00275924
0.0013616
0.00121437
0.00261964
0.00109207
0.00145745
0.00232511
0.000742643
0.00142305
0.00195215
0.000363199
0.00133376
0.00152549
4.04919e-05
0.001276
0.00102189
-0.000258215
0.00126636
0.0010109
-0.000609566
0.00131477
0.00152462
-0.000956579
0.00140054
0.00195581
-0.00124504
0.00142616
0.00233519
-0.00145509
0.00118586
0.00263755
-0.00163182
0.000342613
0.0027794
-0.00176797
-0.00120879
0.00254448
-0.00173632
-0.00324663
0.0018679
-0.00125586
-0.00524162
0.000524593
-0.00778145
-0.00151843
0.000989087
-0.00780578
-0.00236559
0.00132853
-0.00489276
-0.000244149
0.00119992
-0.00294247
0.00120212
0.000926958
-0.00107116
0.00202367
0.000677357
0.000347752
0.00245152
0.000537451
0.00107915
0.00249402
0.00041951
0.00134128
0.00238131
0.000266965
0.00140839
0.00220824
0.000123944
0.00140911
0.00202438
5.39439e-05
0.0014392
0.00178483
1.59469e-06
0.00142438
0.00176295
-0.000118458
0.0013804
0.00199191
-0.000264049
0.00138627
0.00217315
-0.000391583
0.00132021
0.00235048
-0.000548205
0.00106196
0.00247786
-0.000810684
0.000344519
0.0024577
-0.00109771
-0.0010518
0.0020582
-0.00124287
-0.0029824
0.00124657
-0.000944563
-0.00501088
-0.000192375
-0.00795701
-0.00231734
0.000280649
-0.00717852
-0.00319831
0.000330368
-0.00430807
-0.00118763
0.000140745
-0.00256513
0.000143011
1.2898e-06
-0.00109545
0.000919956
-3.05919e-05
-1.32017e-05
0.0013953
1.15963e-05
0.000532994
0.00150961
7.93774e-05
0.000761755
0.00151542
0.000137979
0.000895688
0.001527
0.000177718
0.000974509
0.00157742
6.88247e-05
0.00125567
0.00163059
-3.79815e-05
0.00123776
0.00161413
6.47182e-06
0.000942445
0.00153816
6.60769e-05
0.000870621
0.00148378
0.000131651
0.000740764
0.001476
0.000168474
0.000512205
0.00148139
0.000130396
-2.82523e-05
0.0013867
-1.84535e-05
-0.00109247
0.000954339
-0.000232583
-0.0025965
0.000179674
-0.000234279
-0.00437383
-0.00114598
-0.00727191
-0.0031406
-0.0010563
-0.00513514
-0.00429198
-0.00167523
-0.00294228
-0.00286075
-0.00202464
-0.00186818
-0.00202277
-0.00203953
-0.00120067
-0.00147492
-0.00171848
-0.000782425
-0.00124163
-0.00123636
-0.000495413
-0.00115962
-0.00075374
-0.000324478
-0.00110629
-0.000328479
-0.000161977
-0.000968969
2.50708e-07
-2.86973e-05
-0.000670838
8.37226e-05
0.000493553
-0.0001828
0.00016637
0.000478732
-0.000202526
0.000493529
-4.15543e-05
-0.000725371
0.000911784
-0.000170799
-0.00102052
0.0013842
-0.000329776
-0.00115187
0.00185195
-0.000500701
-0.00119825
0.00215845
-0.000786781
-0.00126443
0.00213999
-0.00120565
-0.00148256
0.00176429
-0.00188146
-0.00201253
0.00110328
-0.00296849
-0.00283077
-0.00517782
-0.0042345
-0.00420246
-0.00628846
-0.00620832
-0.00647511
-0.00714295
-0.00714142
-0.00735599
-0.00794023
-0.00706904
-0.00881223
-0.00638
-0.00970562
-0.0053477
-0.0105919
-0.00395898
-0.0113564
-0.00224501
-0.0118128
8.28454e-05
-0.0112982
0.00238968
-0.011283
0.00409129
-0.0118134
0.00546995
-0.0113695
0.0064938
-0.0106075
0.00717396
-0.00972092
0.00745216
-0.00882488
0.00722896
-0.00794696
0.00627743
-0.00713947
0.00424341
-0.00645791
-0.00624331
0.000572584
0.00238254
-0.000726922
-2.12822e-05
0.00259124
-0.000505569
-0.000248245
0.000706489
-0.000620038
-0.000179895
-0.000137074
-0.000178238
5.98626e-05
-0.000379899
0.000141847
0.000349202
-0.00051488
0.000396075
0.000468014
-0.000393082
0.000508189
0.000429337
-0.000291391
0.000615769
0.000262887
-0.000226828
0.000681309
1.16757e-05
-0.000182955
0.000683951
-0.000243853
-0.000194162
0.000683291
-0.000421143
-0.000217939
0.000724216
-0.000449827
-0.000301531
0.00062974
-0.000312586
-0.000396786
0.000527683
-3.0561e-05
-0.000501908
0.000394941
0.000226283
-0.000361657
0.000138328
0.000269948
-8.16283e-05
-0.000204799
-0.000140022
0.00115853
-0.000646554
-0.000842992
0.00300584
-0.000255891
0.00248387
-0.000476214
0.00111808
0.00182576
0.00261546
0.00210858
0.0019631
0.00269618
0.00202486
0.00152896
0.00210689
0.00139093
0.00112999
0.00139221
0.000688781
0.000671312
0.000906428
0.000301699
1.98989e-05
0.000640347
0.000242219
-0.000422433
0.000448639
0.000291155
-0.000600534
0.000341765
0.000216529
-0.000509279
0.000179956
-4.87652e-05
-0.000380773
2.32109e-05
-0.000257925
-0.00038939
8.35248e-05
-0.000334548
-0.000539957
0.000270941
-0.000262374
-0.000617457
0.000422873
-0.000319577
-0.000424503
0.000523847
-0.00073165
5.44607e-05
0.000702027
-0.00147779
0.000731364
0.000956976
-0.00215855
0.00121983
0.00146371
-0.00211629
0.00167872
0.0022366
-0.00109178
0.00217638
0.00286826
0.00180383
0.00275175
0.00118527
9.10879e-05
0.00361969
0.00237015
0.000458137
0.00390961
0.00307164
0.000739379
0.00372845
0.00313327
0.001006
0.00313332
0.00272139
0.00102822
0.00247629
0.00195667
0.000786461
0.00184761
0.00116055
0.000361073
0.00130706
0.000584832
-0.000142442
0.000793201
0.000236115
-0.00047897
0.000269684
-5.54104e-05
-0.00052845
-0.000154017
-0.000349995
-0.000543369
-6.38381e-05
-0.000713664
-0.000496924
0.000421496
-0.001301
-0.000163102
0.000920851
-0.00209504
0.000327868
0.00140122
-0.0028378
0.000758367
0.00192825
-0.00322917
0.00102356
0.00254179
-0.00314974
0.0010182
0.00318415
-0.00241322
0.000741505
0.00376061
-0.00116938
0.000422434
0.00393805
-0.000107961
0.00363414
0.00143801
-0.00233922
0.0024026
0.0023786
-0.00116993
0.00336322
0.00313997
-0.000467905
0.00373473
0.00345945
0.000366673
0.00345895
0.00327518
0.000958368
0.00293435
0.00274149
0.00112339
0.00239059
0.00203142
0.000913293
0.00187678
0.00124267
0.000498054
0.00129288
0.000516376
5.20677e-06
0.000586685
-6.14551e-05
-0.000377397
-8.117e-05
-0.000660831
-0.000374748
2.97391e-05
-0.00141089
1.30577e-06
0.000749691
-0.0022051
0.000461145
0.00142027
-0.0029082
0.0008489
0.00197716
-0.00342056
0.00104893
0.00247673
-0.0035761
0.00089588
0.00300606
-0.0032311
0.000310275
0.00350255
-0.00244975
-0.000560276
0.00373517
-0.00147896
-0.00133509
0.0033133
-0.00263931
0.00225641
0.00171777
-0.00431566
-8.37657e-05
0.00244459
-0.00214792
0.00167873
0.00288415
-0.00116603
0.0027787
0.00311691
-9.86901e-05
0.00311695
0.00304551
0.000835273
0.00297775
0.00267976
0.00131603
0.00262348
0.00214805
0.00128397
0.00220465
0.00152599
0.00095853
0.00171291
0.000804634
0.000556763
0.00106527
8.07057e-06
0.000164904
0.000260114
-0.000799428
0.000160562
0.000320213
-0.00153514
0.000549654
0.00115506
-0.00218046
0.000931998
0.00179106
-0.00273033
0.0012309
0.00227104
-0.00310279
0.00124947
0.00267974
-0.0031691
0.000774423
0.00301707
-0.00292323
-0.000159977
0.00312937
-0.00246667
-0.00127225
0.00275923
-0.00170519
-0.00232356
0.00161659
-0.00458047
-0.000174561
0.0016111
-0.00574725
-0.00171711
0.00232026
-0.00259162
0.000222891
0.00251436
-0.00122457
0.00170433
0.00248807
-4.6094e-05
0.00248932
0.00236545
0.000926927
0.00279035
0.00211824
0.00147737
0.00270579
0.00174984
0.001533
0.00244484
0.00127454
0.00131701
0.00206937
0.000706752
0.00105767
0.00159286
4.65403e-05
0.000891125
0.000956626
-0.000606619
0.000880247
0.000945268
-0.00117028
0.00104311
0.00159556
-0.00165557
0.00129657
0.00207709
-0.00204446
0.00150104
0.00245429
-0.00231295
0.00144076
0.00271492
-0.00244904
0.000893446
0.00279649
-0.00247261
-9.03875e-05
0.00249837
-0.00227614
-0.00132089
0.00171993
-0.00157253
-0.00275342
0.000250674
-0.00596118
-0.00171033
0.00119405
-0.00663842
-0.00266887
0.0019015
-0.00295124
-0.000592787
0.00202158
-0.0010724
0.000929215
0.00185075
0.000295052
0.00185289
0.00167466
0.00114108
0.00241318
0.00149892
0.00156464
0.00258237
0.00126007
0.0016143
0.00253876
0.000913726
0.00149725
0.00237423
0.000492283
0.00136108
0.00214235
6.07364e-05
0.00133206
0.00177549
-0.000359392
0.00131743
0.00174605
-0.000767903
0.00133858
0.00210508
-0.00111542
0.00147731
0.00233999
-0.00136635
0.00159179
0.00251063
-0.00155614
0.00154263
0.00256566
-0.00174264
0.00112318
0.00241422
-0.00191817
0.000266684
0.00187635
-0.00181428
-0.0011463
0.000967731
-0.00114356
-0.00306798
-0.000548948
-0.00678926
-0.00263306
0.000296045
-0.00658164
-0.0035518
0.000756023
-0.00310655
-0.00149348
0.000917649
-0.001096
3.68123e-06
0.000891788
0.000345369
0.000894349
0.000899955
0.00103969
0.00148765
0.000924154
0.00129884
0.00175051
0.000893501
0.00133135
0.00182833
0.000767209
0.00132066
0.0018292
0.000543031
0.00132309
0.00183893
8.46496e-05
0.00161624
0.00180421
-0.000382717
0.001617
0.00178139
-0.000610132
0.0013064
0.00179726
-0.000738641
0.00129906
0.00179009
-0.000774756
0.00130853
0.00179489
-0.000756539
0.00127687
0.00172838
-0.00075547
0.00102029
0.00148789
-0.000785532
0.000324313
0.000926048
-0.000652431
-0.00114034
3.97833e-05
-0.000244402
-0.00316912
-0.00145361
-0.00667065
-0.00350406
-0.0012254
-0.0050116
-0.00463743
-0.00159469
-0.00245128
-0.00314799
-0.00147651
-0.00120076
-0.00203744
-0.00111262
-0.000383889
-0.00111067
-0.000724619
0.000133555
-0.000724533
-0.000379095
0.000378506
-0.000585819
-0.000102441
0.000507781
-0.00056041
9.02371e-05
0.000674047
-0.000516094
0.000205598
0.000862217
-0.000326382
8.6342e-05
0.00151255
3.91116e-05
-2.70086e-05
0.00149531
3.15912e-05
9.0688e-05
0.000834685
-0.000372167
0.00027495
0.000663015
-0.000569465
0.000537782
0.000502765
-0.000609651
0.000868349
0.000373028
-0.000625695
0.00124406
0.000127506
-0.000748089
0.00159263
-0.000390601
-0.001117
0.00167637
-0.00121245
-0.00202498
0.00126978
-0.00247424
-0.00311984
-0.00504954
-0.00458636
-0.00475875
-0.00654201
-0.00695276
-0.00673312
-0.0079414
-0.00735413
-0.0081338
-0.00813223
-0.00780676
-0.00900619
-0.00711895
-0.0100154
-0.00610938
-0.0110941
-0.0046855
-0.0121067
-0.00279643
-0.0128401
9.27995e-05
-0.0126753
0.00295405
-0.0126493
0.0048177
-0.0128426
0.00622608
-0.0121152
0.00722451
-0.0111035
0.00790139
-0.0100251
0.00821718
-0.00901349
0.00801348
-0.00813422
0.00701013
-0.00734897
0.00479292
-0.00671541
-0.00650018
8.06555e-05
0.000608622
-0.0014155
0.000101318
0.000289897
-0.000816122
7.73445e-07
-0.000170218
-0.00034994
0.000140613
-0.000378778
5.99611e-05
0.000398104
-0.000514763
0.000398756
0.000654219
-0.000520743
0.00066105
0.000759046
-0.000420691
0.000826142
0.000689202
-0.000326355
0.00100862
0.000434793
-0.00025096
0.00119225
-3.89391e-06
-0.000216362
0.00133611
-0.000445153
-0.000221724
0.0013493
-0.000692575
-0.000256821
0.00122979
-0.00074905
-0.000340399
0.00102778
-0.000628939
-0.000431327
0.000839555
-0.00036859
-0.000523817
0.000658743
-0.000118691
-0.000498777
0.000387591
-1.49536e-05
-0.000355902
4.74557e-05
-0.000176853
-0.000107723
-0.000376284
-0.000146645
0.000521181
-0.000807337
0.000756876
-0.00137978
0.00106703
0.00165083
0.000506274
0.00139677
0.00144963
0.00120621
0.00125394
0.00107567
0.00100356
0.000904963
0.000671698
0.000690333
0.000570305
0.00015464
0.000571678
0.000438094
-0.00030987
0.000561928
0.000464971
-0.000588073
0.000590903
0.000500502
-0.000651881
0.000630636
0.00034392
-0.000542015
0.000630695
-6.0554e-05
-0.000402765
0.000614753
-0.000429369
-0.000421167
0.000653683
-0.000546166
-0.000577864
0.000710267
-0.000488075
-0.000674613
0.000699906
-0.000449258
-0.000594714
0.000648752
-0.000583929
-0.000294259
0.0006072
-0.000935572
0.000202071
0.000608624
-0.00130729
0.000732836
0.00074645
-0.00146173
0.00116288
0.00112015
-0.00105159
0.00158944
0.0013899
0.00172598
0.000731028
0.00109432
0.00123391
0.00294221
0.00191782
0.00121204
0.00332386
0.00242133
0.00111445
0.00318612
0.00247616
0.0010283
0.00272197
0.00213521
0.000836493
0.0021356
0.00155938
0.000516433
0.00159749
0.000992111
8.34095e-05
0.00120376
0.000585986
-0.000342628
0.000890595
0.000272521
-0.000574854
0.000617497
-7.73932e-05
-0.000592395
0.000386879
-0.00041238
-0.0006122
0.000463702
-0.0007235
-0.000598224
0.00075418
-0.00113504
-0.000359191
0.00101778
-0.00170236
6.03559e-05
0.00131392
-0.00226324
0.000490473
0.00170455
-0.00257988
0.000818418
0.00224221
-0.00250553
0.0010201
0.00282262
-0.00198232
0.00110866
0.00329165
-0.00111801
0.00121811
0.00344512
0.0011668
0.00307501
0.00133991
-0.000394538
0.00269127
0.00209508
0.000490897
0.00332929
0.00268061
0.000725716
0.00353816
0.0029348
0.000958071
0.00327529
0.00281037
0.00108545
0.00281023
0.00239503
0.00100698
0.00231592
0.00178288
0.000723889
0.00184928
0.00109581
0.000279361
0.00135878