/*--------------------------------*- C++ -*----------------------------------*\
| =========                 |                                                 |
| \\      /  F ield         | OpenFOAM: The Open Source CFD Toolbox           |
|  \\    /   O peration     | Version:  v1912                                 |
|   \\  /    A nd           | Website:  www.openfoam.com                      |
|    \\/     M anipulation  |                                                 |
\*---------------------------------------------------------------------------*/
FoamFile
{
    version     2.0;
    format      ascii;
    class       volVectorField;
    location    "700";
    object      U;
}
// * * * * * * * * * * * * * * * * * * * * * * * * * * * * * * * * * * * * * //

dimensions      [0 1 -1 0 0 0 0];


internalField   nonuniform List<vector> 
4000
(
(0.00926553 -0.024173 0.00926099)
(0.0165672 -0.0124718 0.00784821)
(0.0166212 -0.00169513 0.00595803)
(0.00340953 0.00605923 0.00287155)
(-0.00817546 -0.00176514 0.000136345)
(-0.00466475 -0.00171153 -0.000312805)
(-0.00410639 -0.000731924 -0.000500867)
(-0.00292379 -0.000676488 -0.000550496)
(-0.00146004 -0.000136638 -0.000149102)
(-0.000779147 -0.0031562 -0.00240081)
(0.00082846 -0.000186215 -0.000541675)
(0.00250516 -0.00111995 -0.000825109)
(0.00284478 -0.000653193 -0.000456695)
(0.00426188 -0.000632393 -0.000445744)
(0.00451271 -0.00167154 -0.000271969)
(0.00874217 -0.00145175 0.000212738)
(-0.00597033 0.00600996 0.00336119)
(-0.0181038 -0.00304181 0.00606174)
(-0.0175358 -0.0134068 0.00783758)
(-0.00968049 -0.0250251 0.00931032)
(0.00416731 -0.0361109 0.00416748)
(0.00927348 -0.0189179 0.00368331)
(0.0140669 0.0019834 0.00312248)
(0.0117243 0.010446 0.00298086)
(0.00829276 0.00690734 0.00296738)
(-0.00296588 0.000326232 0.000937822)
(-0.00553228 -0.00183243 -0.000679788)
(-0.00457067 -0.00108712 -0.00100518)
(-0.00264109 -0.000137055 -0.00126174)
(-0.00151713 -0.00210326 -0.00186298)
(0.00134267 -0.000261248 -0.00144833)
(0.0035368 -0.00103072 -0.00141018)
(0.00463932 -0.00137123 -0.000997248)
(0.005682 -0.00189414 -0.000670384)
(0.00259088 0.000450099 0.000980365)
(-0.00807345 0.00729833 0.00276814)
(-0.0120621 0.0111298 0.00269074)
(-0.0137857 0.0013922 0.00280099)
(-0.0094792 -0.0195591 0.00361916)
(-0.0042069 -0.0370183 0.00419124)
(0.00219968 -0.0475754 0.00220286)
(0.00534355 -0.0300764 0.00264405)
(0.00942912 -0.00982015 0.0026439)
(0.0147054 0.00493345 0.00271936)
(0.0141654 0.0066918 0.00277294)
(0.00935795 0.00514045 0.00229293)
(0.00407225 0.00271684 0.00223214)
(-0.00395859 -0.00126424 -0.000706028)
(-0.00248072 -0.00136217 -0.0020632)
(-0.00111546 -0.00214548 -0.00299566)
(0.00156603 -0.0015087 -0.00285849)
(0.00275272 -0.00162088 -0.00196666)
(0.00345068 -0.00126745 -0.000398823)
(-0.00461146 0.00282052 0.0022151)
(-0.00964701 0.00528117 0.00220215)
(-0.0140788 0.00715569 0.00263214)
(-0.0143745 0.00578459 0.00248847)
(-0.00884161 -0.00984959 0.00256961)
(-0.00517649 -0.0303775 0.00260985)
(-0.00207415 -0.0484269 0.00227447)
(0.00112842 -0.0527184 0.00113374)
(0.00238904 -0.0360654 0.00235731)
(0.00307142 -0.0183867 0.00300734)
(0.00770985 -0.00487703 0.00391711)
(0.0113582 0.00287094 0.00384524)
(0.0104483 0.00472881 0.00342801)
(0.00750034 0.00422751 0.00301912)
(0.00382792 0.00295924 0.0021524)
(-0.000894934 0.000946614 -0.000135205)
(-0.000593388 -0.00038609 -0.00261614)
(0.000918644 -0.000104035 -0.00231409)
(0.000197753 0.00145191 0.000400717)
(-0.00456957 0.00304038 0.0023018)
(-0.00820048 0.00413126 0.00313009)
(-0.0109423 0.004526 0.00353396)
(-0.0114069 0.00281512 0.00396831)
(-0.00755371 -0.00439548 0.00400643)
(-0.00248781 -0.0183001 0.00309598)
(-0.00208286 -0.0360736 0.00239701)
(-0.000926976 -0.053362 0.00126808)
(0.000335562 -0.0547827 0.000342379)
(8.39947e-06 -0.0394692 0.00209334)
(-0.00225156 -0.025123 0.00296045)
(-0.000799887 -0.0137795 0.00422162)
(-3.37492e-05 -0.00614251 0.00520383)
(0.0021079 -0.000993708 0.00516126)
(0.00257788 0.00135088 0.00472238)
(0.0023044 0.00258116 0.00415804)
(0.000741972 0.0031819 0.00309962)
(-7.62545e-07 0.00334189 0.00176773)
(0.000114955 0.00323118 0.00176557)
(-0.000427064 0.00296936 0.00323389)
(-0.00175256 0.00222854 0.00423716)
(-0.00195815 0.000797522 0.00478908)
(-0.0014945 -0.00169164 0.00525609)
(0.000356701 -0.00675029 0.00526462)
(0.00120429 -0.0139136 0.00432066)
(0.00269571 -0.0251388 0.00303627)
(0.000374783 -0.0393781 0.00216871)
(-9.15663e-05 -0.0552708 0.000530313)
(-0.000401623 -0.0539645 -0.000394158)
(-0.00192354 -0.0406186 0.00150964)
(-0.00598443 -0.0291318 0.00204922)
(-0.00658646 -0.020545 0.00262993)
(-0.00708805 -0.0147906 0.00311147)
(-0.00616198 -0.0109788 0.00338851)
(-0.00478945 -0.0081235 0.00346834)
(-0.00314074 -0.00583138 0.00359414)
(-0.00158215 -0.00442832 0.00383644)
(-0.0004062 -0.0038319 0.00425967)
(0.000633067 -0.00423486 0.00417787)
(0.00200565 -0.00506183 0.00373687)
(0.00370191 -0.00640621 0.00347992)
(0.00537963 -0.00864103 0.00334038)
(0.00669534 -0.0114182 0.00325976)
(0.00750378 -0.0151579 0.00301764)
(0.00697799 -0.0207239 0.00261074)
(0.00637575 -0.0292136 0.00206954)
(0.00231153 -0.0406528 0.00157103)
(0.000663623 -0.0543453 -0.000179864)
(-0.00133992 -0.0510368 -0.00133282)
(-0.00367836 -0.0400848 0.000319592)
(-0.00892749 -0.031471 0.000237636)
(-0.0102855 -0.0255478 -1.71328e-06)
(-0.0109748 -0.0216513 -0.000327219)
(-0.00999323 -0.0189348 -0.000666711)
(-0.00822346 -0.0168453 -0.000880684)
(-0.0057899 -0.0150087 -0.000905053)
(-0.00291853 -0.0136522 -0.000614854)
(-0.000611397 -0.0127203 0.000179694)
(0.00116608 -0.0130144 0.0001119)
(0.00340274 -0.0141267 -0.000713548)
(0.00623907 -0.0154617 -0.00104641)
(0.00866076 -0.0172682 -0.00102746)
(0.0104227 -0.0193264 -0.000799423)
(0.0113846 -0.021986 -0.000430955)
(0.0106917 -0.0257717 -5.69192e-05)
(0.00932682 -0.0316108 0.000211296)
(0.00407024 -0.0401694 0.000349703)
(0.00159249 -0.0513594 -0.00112873)
(-0.00280819 -0.0451194 -0.00280154)
(-0.0058744 -0.0368494 -0.00173156)
(-0.0120257 -0.0311672 -0.00243518)
(-0.0138454 -0.0278094 -0.00331925)
(-0.014464 -0.0258399 -0.00421313)
(-0.013112 -0.0246199 -0.0050635)
(-0.0106554 -0.0236607 -0.0057648)
(-0.00742139 -0.0226641 -0.006237)
(-0.0036034 -0.0217617 -0.00622898)
(-0.000769712 -0.0208107 -0.00529995)
(0.00132981 -0.0209947 -0.005306)
(0.00408158 -0.022058 -0.0062421)
(0.00785855 -0.0229479 -0.00631141)
(0.0110788 -0.0239235 -0.00586771)
(0.0135297 -0.0248629 -0.00516863)
(0.0148754 -0.026057 -0.00430596)
(0.0142548 -0.027986 -0.00338184)
(0.0124278 -0.0313046 -0.00247578)
(0.00626147 -0.0369642 -0.00171958)
(0.00305317 -0.045377 -0.00262105)
(-0.00548218 -0.0337259 -0.00547594)
(-0.0096391 -0.0283562 -0.00500825)
(-0.0162713 -0.0257325 -0.00609974)
(-0.0182994 -0.0247647 -0.00731326)
(-0.0186649 -0.024516 -0.00851151)
(-0.0169055 -0.0246429 -0.00956427)
(-0.0138286 -0.0248031 -0.0104576)
(-0.00975335 -0.024754 -0.0111013)
(-0.00477799 -0.0244258 -0.0112341)
(-0.00118317 -0.0236777 -0.0101182)
(0.00175831 -0.0237656 -0.0100928)
(0.00525135 -0.0245609 -0.0112088)
(0.010179 -0.0248747 -0.0111352)
(0.0142414 -0.024918 -0.0105201)
(0.0173185 -0.0247546 -0.00963451)
(0.0190778 -0.0246236 -0.00857652)
(0.018713 -0.0248631 -0.00736606)
(0.0166743 -0.0258221 -0.00613283)
(0.0100071 -0.0284523 -0.00499664)
(0.00572068 -0.0338962 -0.00531856)
(-0.0107491 -0.0202968 -0.0107432)
(-0.0179396 -0.0160149 -0.0119219)
(-0.0243363 -0.0142873 -0.0140463)
(-0.0261521 -0.01364 -0.0159861)
(-0.0260576 -0.0132454 -0.0179029)
(-0.023746 -0.0129006 -0.0196847)
(-0.0197869 -0.0123652 -0.0212746)
(-0.0143702 -0.0115387 -0.0225071)
(-0.00744412 -0.0104514 -0.0229715)
(-0.00227358 -0.00939398 -0.0208118)
(0.00286253 -0.00951665 -0.0207771)
(0.00789835 -0.010567 -0.0229377)
(0.0147924 -0.0116146 -0.0225358)
(0.020206 -0.0124217 -0.0213295)
(0.0241715 -0.0129482 -0.0197458)
(0.0264855 -0.01329 -0.0179612)
(0.0265766 -0.0136802 -0.0160343)
(0.024741 -0.0143276 -0.0140742)
(0.0182892 -0.0160606 -0.0119084)
(0.0109901 -0.0203865 -0.0106059)
(0.00785386 -0.0124839 0.0165624)
(0.0131471 -0.00371418 0.0131405)
(0.0118411 0.00444013 0.00734524)
(0.00127187 0.00778211 0.00212614)
(-0.00505159 -0.00343264 0.000445957)
(-0.00232414 -0.00271328 3.13764e-05)
(-0.00220656 -0.000948954 -9.0148e-05)
(-0.000674741 -0.000436106 2.281e-05)
(-0.00162346 -0.00249801 0.000125512)
(-0.000207034 -0.00125463 -8.96863e-05)
(0.00100416 -0.00271424 0.000199905)
(0.000692763 -0.000223104 0.00011245)
(0.00136404 -0.000499055 -8.46532e-05)
(0.00231973 -0.000987545 -9.62819e-06)
(0.00207645 -0.00283159 0.000124032)
(0.00557647 -0.00281936 0.000945027)
(-0.00416229 0.00919713 0.00297648)
(-0.0135255 0.00291009 0.00776023)
(-0.0142622 -0.00519735 0.0136186)
(-0.00830847 -0.0141254 0.0170239)
(0.00368696 -0.0189418 0.00927008)
(0.00848948 -0.00583696 0.00848232)
(0.0131089 0.008489 0.00748074)
(0.0111782 0.0111678 0.00651896)
(0.00945253 0.00633966 0.00522846)
(0.00155922 0.00101025 0.00322629)
(-0.00209854 -0.00230889 0.00026005)
(-0.00163117 -0.00187114 -0.000581486)
(-0.00119873 -0.00156492 -0.00166337)
(-0.000332501 9.04764e-05 -0.00235509)
(0.000396607 -0.00123247 -0.00184665)
(0.00129782 -0.000912065 -0.00147588)
(0.00172723 -0.00200552 -0.000444364)
(0.00215338 -0.00238001 0.000461014)
(-0.00209388 0.0013727 0.00338164)
(-0.00962308 0.00706947 0.00524359)
(-0.011701 0.0125626 0.00632053)
(-0.0132698 0.00751147 0.00694425)
(-0.00884475 -0.00781059 0.00828948)
(-0.00389619 -0.0210432 0.00920566)
(0.0026452 -0.0301006 0.00534424)
(0.00687747 -0.018811 0.00687374)
(0.0123323 -0.00380616 0.00733448)
(0.0158494 0.0053323 0.00709842)
(0.0153298 0.00585392 0.00608178)
(0.011374 0.00428249 0.00485879)
(0.00681052 0.00207579 0.00390332)
(0.0018239 -0.000846258 0.00187126)
(-0.000419906 -0.00180675 -0.00157699)
(-0.000266529 -0.00167704 -0.00350527)
(0.000334406 -0.00181833 -0.00332159)
(0.00028878 -0.00184609 -0.00120547)
(-0.00223149 -0.00086361 0.00210493)
(-0.00730497 0.00207701 0.00398605)
(-0.0117212 0.00440015 0.00485515)
(-0.0154364 0.00633599 0.00602065)
(-0.0156394 0.00619295 0.00683768)
(-0.0119108 -0.00474336 0.00689722)
(-0.00690493 -0.0201585 0.00664832)
(-0.00269379 -0.0319273 0.00522213)
(0.00235615 -0.0360875 0.00239402)
(0.00589517 -0.0263084 0.00589647)
(0.0083828 -0.0131625 0.00735664)
(0.0125341 -0.00212218 0.00769695)
(0.0142815 0.00354541 0.00688569)
(0.0125432 0.00477277 0.00589935)
(0.0095113 0.00391145 0.00483764)
(0.00619592 0.00223331 0.00331628)
(0.00274224 0.000297549 0.000639425)
(0.000516633 -0.00118033 -0.00297114)
(-0.000678787 -0.00108636 -0.0025874)
(-0.00312841 0.000445948 0.00106535)
(-0.00680141 0.00221497 0.00356973)
(-0.0101307 0.00374345 0.0050437)
(-0.0130351 0.00462563 0.00608578)
(-0.0144791 0.00368744 0.0070616)
(-0.0124008 -0.00160415 0.00775146)
(-0.00799152 -0.0133331 0.00727527)
(-0.00582662 -0.0270829 0.00589746)
(-0.00232852 -0.037503 0.00239877)
(0.00209073 -0.0394881 1.69311e-05)
(0.00530641 -0.0304703 0.00531169)
(0.00480492 -0.0185736 0.00779244)
(0.00620155 -0.00732268 0.00905508)
(0.00716269 0.000368141 0.00907248)
(0.00745978 0.00410378 0.00805066)
(0.00633275 0.00481961 0.00683524)
(0.00476518 0.00431689 0.00546569)
(0.00260293 0.00361539 0.00366694)
(0.000773903 0.0030344 0.00127157)
(-0.000592436 0.00311662 0.00134086)
(-0.0022743 0.00368212 0.00386259)
(-0.004434 0.00423403 0.00565879)
(-0.00606709 0.00453879 0.00705722)
(-0.0072523 0.00372026 0.00832367)
(-0.00699641 0.000157762 0.00934929)
(-0.00591185 -0.00715765 0.00926822)
(-0.00443727 -0.0186156 0.00788692)
(-0.0051184 -0.0309677 0.0054517)
(-0.00200657 -0.0405966 0.000177387)
(0.00150709 -0.0406316 -0.00191345)
(0.00472684 -0.0314559 0.00473411)
(0.00191171 -0.0204444 0.00772653)
(0.00161809 -0.00975062 0.00935783)
(0.000189511 -0.00208963 0.0102481)
(0.000906253 0.00221016 0.00997988)
(0.000770169 0.00384734 0.00910189)
(0.000570495 0.00453091 0.00821109)
(6.29913e-05 0.00467987 0.00745209)
(-7.42115e-05 0.00447498 0.0067744)
(0.000322094 0.00438442 0.00682491)
(0.0004109 0.00451541 0.00754629)
(4.15147e-05 0.00439709 0.0082946)
(-0.000146294 0.00367188 0.00919082)
(-0.000383833 0.00203103 0.0100803)
(0.000163482 -0.00215289 0.0103207)
(-0.00126814 -0.00959267 0.00949349)
(-0.0015285 -0.020392 0.00786053)
(-0.00447667 -0.0318169 0.00495072)
(-0.00140756 -0.0414844 -0.00164632)
(0.00031751 -0.0400938 -0.00366774)
(0.00355391 -0.0303187 0.00356187)
(-0.000837258 -0.0203674 0.00668304)
(-0.00156331 -0.0112947 0.00821475)
(-0.00303948 -0.00513739 0.0091316)
(-0.00295437 -0.00149912 0.00961672)
(-0.00246281 0.000737564 0.00985176)
(-0.00193085 0.00208176 0.00976257)
(-0.00132177 0.00273991 0.00962406)
(-0.000388637 0.00283311 0.00948851)
(0.000894718 0.00269072 0.00949252)
(0.00186078 0.00247982 0.00961239)
(0.00250458 0.00186891 0.0097194)
(0.00302785 0.000547074 0.0097759)
(0.00345976 -0.00167565 0.00954726)
(0.00345927 -0.00525484 0.00909858)
(0.00195989 -0.0113041 0.00826201)
(0.00124423 -0.0203054 0.00679107)
(-0.00324011 -0.0306042 0.00377227)
(-0.00021187 -0.0407408 -0.00335719)
(-0.00173336 -0.0368546 -0.00586399)
(0.000750243 -0.0265835 0.000758474)
(-0.00454559 -0.0187374 0.00332066)
(-0.00540216 -0.0121741 0.00408962)
(-0.006416 -0.00728792 0.00434923)
(-0.005902 -0.00381454 0.00457634)
(-0.0047801 -0.00145735 0.00498742)
(-0.00320517 0.000380447 0.00569878)
(-0.00153606 0.00128727 0.00644853)
(-0.000232917 0.00151778 0.00730572)
(0.000820485 0.00140284 0.00721427)
(0.0020915 0.00108406 0.00628727)
(0.00374314 0.000276253 0.00552744)
(0.00528899 -0.00150022 0.00484332)
(0.00638643 -0.00385702 0.00444348)
(0.00687754 -0.00733081 0.00424679)
(0.00583401 -0.0122147 0.00404166)
(0.0049289 -0.0188037 0.00334067)
(-0.000384443 -0.0267935 0.000930435)
(0.00183859 -0.0372904 -0.00555919)
(-0.00501023 -0.0283584 -0.00962949)
(-0.00532535 -0.0204731 -0.00531911)
(-0.0109315 -0.0160053 -0.00426514)
(-0.0122649 -0.0134754 -0.00455723)
(-0.0127342 -0.0121382 -0.00534201)
(-0.0114354 -0.0115114 -0.00592002)
(-0.00940868 -0.0113553 -0.00625179)
(-0.00682038 -0.0113269 -0.006149)
(-0.00385729 -0.0113493 -0.00542763)
(-0.00143556 -0.0103181 -0.00334058)
(0.00208895 -0.0103762 -0.00340463)
(0.00441592 -0.0114476 -0.00551012)
(0.00733918 -0.0114159 -0.00627791)
(0.00990879 -0.0114366 -0.00639076)
(0.011924 -0.0115905 -0.00605628)
(0.0131981 -0.0122133 -0.00545701)
(0.0127069 -0.0135559 -0.00465013)
(0.0113265 -0.0160915 -0.00428091)
(0.00564007 -0.0206128 -0.00522445)
(0.00513139 -0.028597 -0.00937855)
(-0.0119243 -0.0160159 -0.0179311)
(-0.0186401 -0.00937798 -0.0186349)
(-0.0251252 -0.00623726 -0.0211944)
(-0.0268611 -0.00437595 -0.023895)
(-0.0269008 -0.00300054 -0.026716)
(-0.0248931 -0.00180339 -0.0294362)
(-0.0214474 -0.000492668 -0.031869)
(-0.0166677 0.00102578 -0.0337633)
(-0.0102715 0.00264651 -0.034555)
(-0.00450784 0.00446231 -0.032266)
(0.00511363 0.00433749 -0.0322315)
(0.0107844 0.002558 -0.0345516)
(0.0171614 0.000985012 -0.0338194)
(0.0219196 -0.000510372 -0.031945)
(0.0253476 -0.00181309 -0.0295126)
(0.0273326 -0.00301204 -0.0267858)
(0.0272646 -0.00438933 -0.0239465)
(0.0254819 -0.00626383 -0.0212066)
(0.0189102 -0.00943225 -0.0185802)
(0.0120687 -0.0161277 -0.0177437)
(0.00596277 -0.00170689 0.0166292)
(0.00734766 0.00443607 0.0118426)
(0.00397998 0.0096962 0.0039831)
(-0.00429411 -0.0022828 -0.00175004)
(-0.00166788 -0.00443077 0.000200549)
(-0.00079086 -0.00291724 0.000427066)
(0.000108002 -0.00123465 0.00054584)
(0.000369944 -0.00056111 0.00047448)
(0.000581816 -0.000126063 9.75072e-05)
(3.87614e-05 -0.00220773 0.000967087)
(-5.08159e-05 -0.000153006 -0.000173598)
(0.000172214 -0.00134241 0.000754132)
(-0.00076313 -0.000386398 0.000614428)
(0.000196012 -0.00122763 0.000674099)
(0.000813763 -0.00300085 0.000476049)
(0.0021701 -0.00456039 0.000433754)
(0.00460452 -0.00127924 -0.00190387)
(-0.00552487 0.0099632 0.00535066)
(-0.00827896 0.00272233 0.0132919)
(-0.00654985 -0.00353191 0.0181825)
(0.00312351 0.0019576 0.0140611)
(0.00748572 0.00848477 0.0131052)
(0.0107146 0.0123526 0.010714)
(0.010721 0.00793241 0.00912645)
(0.00699249 0.00408439 0.00591289)
(0.00154152 -5.18216e-05 0.00353383)
(-7.16949e-05 -0.00246272 0.0012724)
(-7.66414e-05 -0.00234272 -0.000156637)
(0.000137352 -0.00115754 -0.00148492)
(7.76108e-05 -0.00126063 -0.00226048)
(-0.000184144 -0.000481544 -0.00209653)
(-0.000115265 -0.00183018 -0.00111433)
(-8.912e-05 -0.0023362 0.000214413)
(0.000102005 -0.00244152 0.00158813)
(-0.00177126 0.000228371 0.00375635)
(-0.00741218 0.00461092 0.00614391)
(-0.0108452 0.00869365 0.00909858)
(-0.0110236 0.0128601 0.0105837)
(-0.00749256 0.00725469 0.012872)
(-0.00297559 -0.000412835 0.0133518)
(0.00264466 -0.009851 0.00942262)
(0.00733875 -0.00382052 0.0123254)
(0.0129392 0.00382243 0.0129339)
(0.0156045 0.00524972 0.0115031)
(0.0143779 0.00494388 0.00914848)
(0.0111255 0.00339553 0.00702589)
(0.00706219 0.00117395 0.00502339)
(0.00296689 -0.00133499 0.00241781)
(0.000945103 -0.00215429 -0.000817652)
(0.000110289 -0.00189449 -0.00313781)
(-0.000329852 -0.00195288 -0.00283409)
(-0.00132229 -0.00222586 -0.00024511)
(-0.00346023 -0.00136885 0.00282428)
(-0.00759861 0.00114424 0.00522269)
(-0.0115384 0.00344426 0.00711504)
(-0.0146717 0.00515693 0.00916566)
(-0.0156991 0.00563364 0.0113429)
(-0.0128739 0.00360483 0.0123967)
(-0.00721804 -0.00583034 0.0114325)
(-0.00263213 -0.0120558 0.00844829)
(0.00300574 -0.0184138 0.00307116)
(0.00735707 -0.0131756 0.00838166)
(0.0111067 -0.0064351 0.0111042)
(0.0146962 0.000150994 0.0112171)
(0.0151991 0.00379235 0.00980374)
(0.0132201 0.00447868 0.008138)
(0.0101645 0.0034902 0.00642363)
(0.00691843 0.00178184 0.00423198)
(0.00346746 -0.000301039 0.000933078)
(0.000868624 -0.00158357 -0.00275904)
(-0.00121964 -0.00156583 -0.00233868)
(-0.00398719 -0.000295761 0.00152711)
(-0.00754236 0.00166392 0.00461644)
(-0.0107929 0.00327037 0.00669103)
(-0.013746 0.00428851 0.00835061)
(-0.0155365 0.00376537 0.00995393)
(-0.0148006 0.000259848 0.011187)
(-0.0109833 -0.00671905 0.0107636)
(-0.0073399 -0.0142689 0.00789503)
(-0.00300076 -0.0201562 0.0024623)
(0.0029576 -0.0251417 -0.00224643)
(0.00778924 -0.0185864 0.00480999)
(0.00905287 -0.011621 0.00905584)
(0.0107479 -0.00409406 0.010681)
(0.0114286 0.00185347 0.0105597)
(0.0106254 0.00472818 0.0093703)
(0.00871886 0.00487418 0.00784006)
(0.00651039 0.00370573 0.00594443)
(0.00394387 0.00223071 0.00339493)
(0.00154096 0.000780561 -0.000168884)
(-0.00126534 0.000811084 -5.22004e-05)
(-0.0037206 0.00225794 0.00365128)
(-0.00637272 0.00359697 0.00618632)
(-0.00867793 0.00461095 0.00807617)
(-0.0106358 0.00441263 0.00962155)
(-0.0114351 0.00166342 0.0107878)
(-0.010667 -0.00412661 0.0108228)
(-0.00888052 -0.011923 0.00902805)
(-0.00770525 -0.0194833 0.00474155)
(-0.00285303 -0.0263848 -0.00239453)
(0.002047 -0.0291455 -0.00597652)
(0.00772177 -0.0204559 0.00192033)
(0.00704412 -0.013141 0.00705111)
(0.0073221 -0.00511377 0.00975127)
(0.00633674 0.00157809 0.0108342)
(0.0060029 0.00525987 0.0102802)
(0.00498395 0.00608108 0.00909129)
(0.00376317 0.00566108 0.00768862)
(0.00217375 0.00499907 0.00622797)
(0.000759648 0.00454991 0.00464047)
(-0.000429404 0.00452631 0.00461847)
(-0.00167016 0.00496234 0.00623558)
(-0.00320272 0.00559449 0.00770551)
(-0.00446617 0.00595099 0.00913907)
(-0.00559147 0.00512894 0.0103721)
(-0.00603452 0.00155979 0.0109407)
(-0.00705379 -0.00503921 0.00990688)
(-0.00673802 -0.0133471 0.00717988)
(-0.00756015 -0.0211627 0.00208911)
(-0.0019173 -0.0301288 -0.00586912)
(0.000236356 -0.0314799 -0.00891822)
(0.00667775 -0.0203772 -0.000827942)
(0.0045981 -0.0126228 0.00460715)
(0.0045742 -0.0049678 0.00787244)
(0.00299697 0.000750224 0.00962474)
(0.00241894 0.00402114 0.00965036)
(0.00193528 0.00511271 0.00912293)
(0.00141426 0.00520954 0.00847792)
(0.000722889 0.00508237 0.0079323)
(0.000282402 0.00505251 0.00734393)
(0.000153077 0.00499014 0.00727615)
(-0.000158847 0.00495784 0.00780672)
(-0.000788941 0.00508853 0.00831913)
(-0.00131895 0.00498111 0.00897041)
(-0.00187425 0.00391304 0.00956079)
(-0.00250207 0.000720688 0.00963002)
(-0.00416061 -0.00494407 0.00802097)
(-0.00416675 -0.0128028 0.00478887)
(-0.00643553 -0.0209634 -0.00060964)
(-0.000112359 -0.032206 -0.00870404)
(-0.00243595 -0.0311724 -0.012016)
(0.00331629 -0.0187418 -0.00453752)
(7.05535e-05 -0.0107804 7.94659e-05)
(0.000491225 -0.00311784 0.00290119)
(-0.000134339 0.00291018 0.00496977)
(-4.74368e-05 0.00563917 0.00516592)
(0.000183494 0.00678563 0.00509343)
(0.000432382 0.00734024 0.00519619)
(0.000715275 0.0074973 0.00554281)
(0.000582288 0.00763123 0.00601893)
(-3.13337e-05 0.00760351 0.00594851)
(-0.000148138 0.00745463 0.00536623)
(0.000153391 0.00733482 0.00498611)
(0.000400439 0.0067781 0.00488872)
(0.000604417 0.00562404 0.00499783)
(0.000682502 0.00291663 0.00485966)
(7.25877e-07 -0.00297155 0.00301535)
(0.000426403 -0.0109123 0.000211984)
(-0.00303973 -0.0190938 -0.00437458)
(0.00254384 -0.0316584 -0.0117697)
(-0.00610046 -0.0257347 -0.0162616)
(-0.00426925 -0.0160065 -0.0109239)
(-0.00838969 -0.010761 -0.00838327)
(-0.00814635 -0.0073998 -0.00733786)
(-0.00787301 -0.00545929 -0.00717402)
(-0.00585461 -0.00432337 -0.00650664)
(-0.00396191 -0.00417381 -0.00595178)
(-0.00212886 -0.0042399 -0.0049258)
(-0.000433629 -0.00444261 -0.00325267)
(0.000254054 -0.00225402 -0.000947534)
(0.000414625 -0.00232899 -0.00107007)
(0.00110281 -0.0045954 -0.00350791)
(0.00277769 -0.00438229 -0.00515924)
(0.00457366 -0.00428117 -0.00614938)
(0.00642674 -0.00442119 -0.00667828)
(0.00836254 -0.00553441 -0.00727361)
(0.0086272 -0.00747674 -0.00739014)
(0.00880899 -0.0108577 -0.00835939)
(0.00456608 -0.0161654 -0.0108079)
(0.00619554 -0.0259736 -0.0160251)
(-0.0140475 -0.0142882 -0.024327)
(-0.0211979 -0.00623778 -0.0251184)
(-0.0278794 -0.00247678 -0.0278741)
(-0.0294319 -0.000125211 -0.03108)
(-0.0293056 0.00161047 -0.0345437)
(-0.0272013 0.0031079 -0.0379762)
(-0.0237765 0.00474245 -0.0411938)
(-0.0190212 0.00661319 -0.0438406)
(-0.012481 0.00860489 -0.0452018)
(-0.00590488 0.0106249 -0.0425757)
(0.0065531 0.0105162 -0.0425403)
(0.013016 0.00854642 -0.0451974)
(0.0195294 0.00659413 -0.0438966)
(0.0242483 0.00473802 -0.0412671)
(0.0276397 0.00310695 -0.0380487)
(0.0297076 0.00160483 -0.0346067)
(0.0297992 -0.000131603 -0.0311217)
(0.0281973 -0.00250581 -0.0278769)
(0.0214286 -0.00629893 -0.0250548)
(0.0141667 -0.014394 -0.0241444)
(0.00287727 0.00606594 0.00344081)
(0.00212414 0.00778757 0.00128447)
(-0.00175595 -0.00228209 -0.0042897)
(-0.000893852 -0.00477151 -0.00089019)
(-0.000169757 -0.00369071 0.000191777)
(0.000697815 -0.00263805 0.00108105)
(0.00175278 -0.00132991 0.00143738)
(0.00194576 -0.000593252 0.00172522)
(0.00147665 -0.000416475 0.00198502)
(0.000705688 -0.000437492 0.00132461)
(-0.000607224 -0.000525493 0.00189573)
(-0.0014634 -0.000283859 0.00183602)
(-0.00189389 -0.000579292 0.00182292)
(-0.00160213 -0.00133238 0.00153002)
(-0.000596327 -0.00268147 0.00108579)
(0.000298351 -0.00387128 0.000229422)
(0.00115485 -0.00494272 -0.000978315)
(0.0016078 0.00011406 -0.00382315)
(-0.00331196 0.00921718 0.0043698)
(-0.00382843 0.00600404 0.00686097)
(0.00298371 0.0104484 0.0117344)
(0.00652083 0.011172 0.0111829)
(0.00912698 0.00793439 0.0107254)
(0.00751432 0.00473109 0.00751874)
(0.00413471 0.00160486 0.00446245)
(0.00127348 -0.00165624 0.00278795)
(0.00100828 -0.00266725 0.00162796)
(0.00107282 -0.00240407 0.000877374)
(0.00113831 -0.00165611 -9.27742e-05)
(0.000459387 -0.00111351 -0.000989066)
(-0.000762143 -0.00111835 -0.000705548)
(-0.00131768 -0.00176172 0.0003123)
(-0.00118974 -0.00249555 0.00122156)
(-0.00104456 -0.00268346 0.00194639)
(-0.00135293 -0.00143445 0.00304663)
(-0.00441229 0.00199635 0.00468943)
(-0.00811795 0.00533145 0.0078598)
(-0.00923204 0.0088227 0.0106031)
(-0.00656825 0.0125527 0.0118346)
(-0.00291261 0.0107368 0.012574)
(0.00272116 0.004927 0.0147096)
(0.0071024 0.00532935 0.0158501)
(0.0115076 0.00524936 0.0156037)
(0.0130225 0.00488229 0.0130211)
(0.012049 0.00396976 0.0101925)
(0.00971006 0.00226786 0.00774334)
(0.00617312 4.01098e-06 0.00538507)
(0.00313796 -0.00205107 0.00299579)
(0.00150722 -0.00252127 0.000452204)
(0.000356671 -0.00207846 -0.00161202)
(-0.000796609 -0.00216017 -0.00126524)
(-0.00198888 -0.00264049 0.001075)
(-0.00369079 -0.00207909 0.00348566)
(-0.0067613 -1.9935e-05 0.00570897)
(-0.0102141 0.00228464 0.00797573)
(-0.0124651 0.00407878 0.0103578)
(-0.0133892 0.00508083 0.0131023)
(-0.0117433 0.00556624 0.0154595)
(-0.00715885 0.00568385 0.0155949)
(-0.00262724 0.00460591 0.0144546)
(0.00391686 -0.00489857 0.00770431)
(0.00769952 -0.00213516 0.0125311)
(0.0112213 0.000146796 0.0146933)
(0.0137452 0.00290232 0.0137416)
(0.0139327 0.00427384 0.0116246)
(0.0123157 0.00409488 0.00944363)
(0.00965948 0.0028864 0.00736136)
(0.00664287 0.00104813 0.00495987)
(0.00334185 -0.00105586 0.00183584)
(0.000899239 -0.00206768 -0.00128506)
(-0.00139434 -0.00206368 -0.000844985)
(-0.00400003 -0.00107008 0.00247459)
(-0.00733508 0.000910641 0.00542409)
(-0.010361 0.00266236 0.00770895)
(-0.0129494 0.00386669 0.00972459)
(-0.0144573 0.0041171 0.0118279)
(-0.0141582 0.00277208 0.0137852)
(-0.0115198 -0.000138713 0.0144519)
(-0.00795656 -0.00270458 0.0119732)
(-0.0039919 -0.00611265 0.00685501)
(0.00421785 -0.0137943 -0.000796531)
(0.00905251 -0.00733593 0.00620545)
(0.0106796 -0.00410021 0.0107498)
(0.0122487 -0.000144988 0.0122483)
(0.0126661 0.00321451 0.0117239)
(0.0117181 0.00473896 0.0102909)
(0.00977158 0.00433947 0.00857298)
(0.00744242 0.00283885 0.00653092)
(0.00473346 0.00098049 0.00384746)
(0.00190956 -0.00107164 0.000347706)
(-0.00186196 -0.00105921 0.000557353)
(-0.00472067 0.000959107 0.00416668)
(-0.00752951 0.00269298 0.0068152)
(-0.0099505 0.00405644 0.00881822)
(-0.0119467 0.00438291 0.0105053)
(-0.0128985 0.0028826 0.0118736)
(-0.0124342 -0.000459059 0.0122854)
(-0.0107877 -0.00454685 0.0106678)
(-0.00912357 -0.00806141 0.00603455)
(-0.00405946 -0.014951 -0.00112717)
(0.00262758 -0.0205567 -0.00657909)
(0.00935372 -0.00976407 0.00162625)
(0.00974523 -0.00512134 0.00732891)
(0.0101947 -0.000543636 0.0101998)
(0.00975571 0.0035704 0.0112123)
(0.00914065 0.00589925 0.0107046)
(0.00784052 0.00608036 0.00953587)
(0.00616582 0.00505274 0.00796518)
(0.00401409 0.00378504 0.00605381)
(0.00170427 0.00283197 0.00366232)
(-0.00132644 0.00278794 0.00359646)
(-0.00359247 0.00374414 0.0060413)
(-0.00575487 0.00497424 0.00798017)
(-0.0075009 0.00592987 0.00957182)
(-0.00889458 0.00571397 0.0107593)
(-0.00958653 0.00340559 0.0112715)
(-0.0100499 -0.000733768 0.0102855)
(-0.0095353 -0.00553954 0.0074341)
(-0.00923336 -0.0104751 0.00176147)
(-0.00242767 -0.0215353 -0.00652069)
(-2.98162e-06 -0.0255552 -0.0102771)
(0.00821061 -0.0113036 -0.00155469)
(0.00786406 -0.00497369 0.00458308)
(0.00802566 -0.00021396 0.00803422)
(0.00696046 0.00346001 0.00987461)
(0.00639923 0.00554095 0.0102099)
(0.00559952 0.00577777 0.00980464)
(0.00446205 0.00503352 0.00905026)
(0.00282851 0.00416368 0.00814443)
(0.00115527 0.0037241 0.00685957)
(-0.000664613 0.00366835 0.00674308)
(-0.00225855 0.00407485 0.00798997)
(-0.0038666 0.00493833 0.00890447)
(-0.00503844 0.00566247 0.00968837)
(-0.00590451 0.00542615 0.0101541)
(-0.00650617 0.0033566 0.00990703)
(-0.00762248 -0.000380877 0.00817059)
(-0.00742218 -0.00532499 0.00476291)
(-0.00797325 -0.0118723 -0.00135498)
(0.000179826 -0.0262862 -0.0101068)
(-0.00331978 -0.0278136 -0.0138364)
(0.00408628 -0.012179 -0.00539374)
(0.00289273 -0.00312214 0.000500683)
(0.00406342 0.00343867 0.00407346)
(0.00346937 0.00654783 0.00601488)
(0.00368408 0.00790569 0.00670941)
(0.00371334 0.00820614 0.00679865)
(0.00339276 0.00816269 0.00674605)
(0.00276158 0.00806052 0.00680136)
(0.00150041 0.00826708 0.00678644)
(-0.000830005 0.00821534 0.00670816)
(-0.00214031 0.00801086 0.00663808)
(-0.00276122 0.00813999 0.00658751)
(-0.00310254 0.00817939 0.00666445)
(-0.00310376 0.00787408 0.00662811)
(-0.00290601 0.00652696 0.00603363)
(-0.00354133 0.00339988 0.00422809)
(-0.00235044 -0.00335611 0.000662792)
(-0.0038036 -0.0125276 -0.00522789)
(0.00345518 -0.0282884 -0.0136238)
(-0.00731348 -0.0247663 -0.0182898)
(-0.00455974 -0.0134763 -0.0122563)
(-0.00734255 -0.00740004 -0.008138)
(-0.00483984 -0.0031521 -0.00483215)
(-0.00359303 -0.000791752 -0.00296137)
(-0.00214951 -0.000279892 -0.00273347)
(-0.000897748 -0.000743158 -0.00277286)
(2.2008e-06 -0.00120765 -0.00260925)
(0.000766113 -0.00156378 -0.0018129)
(0.000711633 0.000774655 -0.000161994)
(-7.71675e-06 0.000790739 -0.000194743)
(-4.74538e-05 -0.00172019 -0.0020093)
(0.00071514 -0.00134163 -0.00281675)
(0.00156047 -0.00085622 -0.0029611)
(0.00275494 -0.000385697 -0.00288466)
(0.00413659 -0.000888571 -0.00304907)
(0.00536701 -0.00324369 -0.00484836)
(0.00772428 -0.00748762 -0.00808119)
(0.00483312 -0.0136125 -0.0121343)
(0.00740721 -0.0249792 -0.0180701)
(-0.0159866 -0.0136408 -0.0261425)
(-0.0238971 -0.00437667 -0.0268531)
(-0.0310837 -0.00012562 -0.029425)
(-0.0326219 0.00243635 -0.0326163)
(-0.032293 0.00422902 -0.0360735)
(-0.0301029 0.00583421 -0.0397275)
(-0.0268119 0.00766124 -0.0435552)
(-0.0220931 0.00978245 -0.0469788)
(-0.0151872 0.0121097 -0.0491831)
(-0.00758252 0.0147663 -0.0476042)
(0.00830525 0.0146433 -0.0475254)
(0.015749 0.0120825 -0.0492073)
(0.0225849 0.0097774 -0.0470309)
(0.027253 0.00765891 -0.0436109)
(0.0305038 0.00583043 -0.0397824)
(0.0326503 0.00422097 -0.0361147)
(0.0329334 0.002422 -0.032629)
(0.031346 -0.000160039 -0.0294083)
(0.0240885 -0.00443649 -0.0267815)
(0.0160891 -0.0137353 -0.0259672)
(0.00013591 -0.00175709 -0.0081834)
(0.00044562 -0.00342826 -0.00504582)
(0.00019521 -0.00443089 -0.0016644)
(0.000184607 -0.00368663 -0.000164147)
(0.00103028 -0.00304854 0.00103244)
(0.00207973 -0.00221317 0.00206348)
(0.00296835 -0.00129071 0.00263474)
(0.00307535 -0.000673159 0.00319564)
(0.00241371 -0.00043824 0.00367764)
(0.00114152 -0.000501135 0.00388123)
(-0.00119074 -0.000490925 0.00393327)
(-0.00244579 -0.000395166 0.00382344)
(-0.00306613 -0.000681218 0.0032757)
(-0.00288068 -0.00131962 0.00269877)