# y+ ()       
# Time        	patch         	min           	max           	average       
1000          	plate	5.728675e+01	8.907372e+01	6.240321e+01
