/*--------------------------------*- C++ -*----------------------------------*\
| =========                 |                                                 |
| \\      /  F ield         | OpenFOAM: The Open Source CFD Toolbox           |
|  \\    /   O peration     | Version:  v1912                                 |
|   \\  /    A nd           | Website:  www.openfoam.com                      |
|    \\/     M anipulation  |                                                 |
\*---------------------------------------------------------------------------*/
FoamFile
{
    version     2.0;
    format      ascii;
    class       volScalarField;
    location    "3500";
    object      mag(U);
}
// * * * * * * * * * * * * * * * * * * * * * * * * * * * * * * * * * * * * * //

dimensions      [0 1 -1 0 0 0 0];


internalField   nonuniform List<scalar> 
12405
(
29.9954
29.9549
29.8767
29.7681
29.6322
29.4685
29.2754
29.05
28.7878
28.4824
28.1254
27.7041
27.2034
26.5949
25.8526
24.9014
23.6988
22.0237
19.7889
16.4588
11.603
5.31154
29.9954
29.9549
29.8767
29.7681
29.6322
29.4685
29.2754
29.05
28.7879
28.4825
28.1256
27.7043
27.2038
26.5956
25.8538
24.9035
23.7029
22.0314
19.8065
16.4914
11.6771
5.54818
29.9954
29.9549
29.8767
29.7682
29.6322
29.4685
29.2755
29.0501
28.788
28.4827
28.1259
27.7048
27.2046
26.5969
25.8562
24.9076
23.711
22.0464
19.8405
16.5567
11.8312
5.99754
29.9954
29.9549
29.8767
29.7682
29.6323
29.4686
29.2755
29.0502
28.7882
28.483
28.1263
27.7056
27.2057
26.5989
25.8596
24.9138
23.723
22.0686
19.8912
16.6542
12.0627
6.63088
29.9954
29.9549
29.8767
29.7682
29.6323
29.4686
29.2756
29.0504
28.7884
28.4833
28.127
27.7065
27.2073
26.6016
25.8642
24.9219
23.7389
22.0981
19.9585
16.7828
12.3683
7.41448
29.9954
29.9549
29.8767
29.7682
29.6323
29.4687
29.2758
29.0506
28.7887
28.4839
28.1277
27.7077
27.2094
26.6048
25.8699
24.932
23.7587
22.1347
20.0418
16.9411
12.7447
8.3196
29.9954
29.9549
29.8767
29.7683
29.6324
29.4688
29.2759
29.0508
28.7891
28.4844
28.1286
27.7092
27.2117
26.6088
25.8767
24.9441
23.7824
22.1781
20.1408
17.1275
13.1892
9.32782
29.9954
29.955
29.8768
29.7683
29.6325
29.4689
29.2761
29.0511
28.7896
28.4851
28.1297
27.7109
27.2145
26.6134
25.8847
24.9582
23.8096
22.2282
20.2548
17.3404
13.6995
10.4292
29.9954
29.955
29.8768
29.7683
29.6325
29.469
29.2763
29.0514
28.79
28.4858
28.1309
27.7128
27.2175
26.6185
25.8937
24.9741
23.8405
22.2849
20.3831
17.5777
14.2743
11.6194
29.9954
29.955
29.8768
29.7684
29.6326
29.4692
29.2765
29.0518
28.7906
28.4868
28.1322
27.715
27.2211
26.6244
25.9038
24.9919
23.8748
22.3477
20.5249
17.8374
14.913
12.8985
29.9954
29.955
29.8768
29.7684
29.6327
29.4693
29.2767
29.0522
28.7912
28.4877
28.1338
27.7174
27.225
26.6309
25.9149
25.0115
23.9124
22.4165
20.6792
18.1166
15.6157
14.2699
29.9954
29.955
29.8769
29.7685
29.6328
29.4695
29.2771
29.0526
28.7919
28.4888
28.1355
27.7199
27.2292
26.6379
25.9271
25.033
23.9532
22.4907
20.845
18.4127
16.3843
15.7399
29.9954
29.955
29.8769
29.7686
29.6329
29.4697
29.2774
29.0531
28.7926
28.4899
28.1372
27.7229
27.2338
26.6457
25.9403
25.0561
23.9969
22.5702
21.0212
18.7223
17.2222
17.3167
29.9954
29.955
29.8769
29.7686
29.6331
29.4699
29.2777
29.0536
28.7934
28.4912
28.1391
27.7259
27.2388
26.6539
25.9545
25.081
24.0435
22.6545
21.2063
19.0419
18.1333
19.0173
29.9954
29.955
29.877
29.7687
29.6332
29.4701
29.2781
29.0541
28.7942
28.4925
28.1412
27.7293
27.2442
26.6628
25.9697
25.1074
24.0927
22.7434
21.3986
19.367
19.1274
20.7682
0.144232
0.801778
1.25241
1.64042
2.00205
2.36327
2.82082
3.42625
4.30574
5.56806
7.32218
9.57961
12.2157
14.9658
17.5367
19.7255
21.4608
22.744
23.5729
23.9076
23.6834
22.863
21.5048
19.4848
16.0901
10.7376
4.16099
2.04219
6.88382
10.4482
13.0837
15.0218
16.6775
17.7389
19.5563
0.165097
0.807367
1.25306
1.63841
1.99834
2.35798
2.81391
3.41742
4.29448
5.5536
7.3035
9.55541
12.1847
14.9272
17.49
19.6709
21.3986
22.6746
23.4968
23.8251
23.5946
22.768
21.4036
19.3772
15.9757
10.6191
4.04666
2.14989
6.97694
10.5307
13.1566
15.0867
16.7345
17.7917
19.6005
0.200358
0.818433
1.25434
1.63441
1.99094
2.34741
2.80013
3.39979
4.27202
5.52479
7.26631
9.50739
12.1234
14.8508
17.3974
19.5623
21.275
22.5371
23.3462
23.6621
23.4194
22.5808
21.2046
19.1663
15.7525
10.3879
3.82358
2.36063
7.16038
10.6937
13.3008
15.2156
16.8478
17.8963
19.6881
0.244061
0.83477
1.25621
1.62839
1.97986
2.3316
2.77955
3.37342
4.23844
5.48178
7.21084
9.43583
12.0321
14.7369
17.2597
19.4011
21.0919
22.3338
23.1241
23.4221
23.1623
22.3067
20.9143
18.8601
15.4301
10.0552
3.50312
2.66507
7.42826
10.9328
13.5133
15.4058
17.0155
18.0515
19.8182
0.292673
0.856054
1.25864
1.62035
1.96513
2.3106
2.75222
3.33845
4.1939
5.42473
7.13733
9.3411
11.9114
14.5866
17.0782
19.1893
20.8518
22.0679
22.8344
23.1102
22.8291
21.9531
20.5413
18.4691
15.0211
9.63486
3.10113
3.05147
7.77244
11.2419
13.7893
15.6538
17.2348
18.2547
19.9892
0.344409
0.881899
1.26155
1.61028
1.94678
2.28448
2.71822
3.29498
4.13858
5.35392
7.04616
9.22369
11.762
14.4009
16.8545
18.9289
20.5578
21.7436
22.4825
22.7327
22.4274
21.5286
20.0961
18.0056
14.5398
9.14293
2.63757
3.50682
8.18327
11.6138
14.1234
15.9553
17.5026
18.5032
20.199
0.39844
0.911883
1.26487
1.59815
1.92484
2.25331
2.67771
3.24318
4.0727
5.26966
6.93773
9.0842
11.5848
14.181
16.5907
18.6229
20.2137
21.3655
22.0741
22.2965
21.9657
21.0428
19.5898
17.4823
14.0007
8.59529
2.13835
4.01838
8.65033
12.0402
14.5091
16.3053
17.8148
18.7934
20.445
0.454482
0.945557
1.26848
1.58393
1.89937
2.21718
2.6308
3.18326
3.99654
5.17231
6.81257
8.92335
11.3806
13.9286
16.2888
18.2744
19.8235
20.939
21.6155
21.8092
21.4523
20.5056
19.0331
16.9115
13.4172
8.00655
1.64226
4.57411
9.16321
12.5122
14.9393
16.6978
18.1667
19.1215
20.7243
0.512629
0.982462
1.27227
1.5676
1.87043
2.17622
2.57768
3.11544
3.91042
5.06233
6.67126
8.74192
11.1509
13.6454
15.9515
17.8867
19.3918
20.4693
21.1132
21.2783
20.8958
19.9263
18.4366
16.3042
12.801
7.38926
1.22623
5.16318
9.71196
13.0216
15.4071
17.127
18.5538
19.4832
21.0338
0.573337
1.02212
1.27606
1.5491
1.83805
2.13053
2.51851
3.03999
3.81471
4.9402
6.51448
8.54085
10.8968
13.3331
15.5812
17.4634
18.9228
19.9621
20.5737
20.7111
20.3042
19.3137
17.8091
15.6697
12.1615
6.75383
1.0537
5.77629
10.2877
13.5601
15.9051
17.5868
18.9709
19.8741
21.3701
0.637545
1.064
1.2797
1.5284
1.80233
2.08027
2.45353
2.95721
3.70983
4.80651
6.34297
8.32112
10.6197
12.9937
15.1805
17.0079
18.421
19.4227
20.0032
20.1144
19.6851
18.6752
17.1585
15.0158
11.5064
6.10877
1.26086
6.40595
10.8827
14.1202
16.4269
18.0713
19.413
20.2896
21.7295
0.707164
1.10751
1.28294
1.50542
1.76331
2.02559
2.38298
2.86744
3.59625
4.66186
6.15758
8.08383
10.3211
12.6293
14.7524
16.5237
17.891
18.8561
19.4074
19.4946
19.0448
18.0176
16.4911
14.3487
10.8413
5.46152
1.727
7.04642
11.4908
14.6956
16.9661
18.5748
19.8751
20.7251
22.1085
0.786615
1.15185
1.2855
1.48009
1.72106
1.96666
2.30711
2.77105
3.47449
4.50702
5.95923
7.83017
10.0025
12.2418
14.2994
16.0145
17.3368
18.2671
18.7915
18.8572
18.3891
17.3464
15.8121
13.6728
10.1706
4.81944
2.30392
7.69347
12.1069
15.2808
17.5172
19.0919
20.3522
21.176
22.5033
0.885385
1.19589
1.28701
1.45232
1.67567
1.90366
2.22623
2.66846
3.34515
4.34274
5.74895
7.5614
9.66548
11.8333
13.8242
15.4833
16.7622
17.6602
18.1603
18.2069
17.7226
16.6659
15.1256
12.9915
9.49722
4.19131
2.92808
8.34413
12.7271
15.8712
18.0751
19.6176
20.84
21.6383
22.9105
1.01372
1.23788
1.28697
1.42201
1.62721
1.8368
2.14064
2.56013
3.20888
4.16994
5.52786
7.27892
9.31177
11.4059
13.3295
14.9334
16.1708
17.039
17.5176
17.5478
17.0492
15.98
14.4348
12.3075
8.82371
3.58968
3.57486
8.99641
13.3486
16.463
18.636
20.1478
21.3342
22.1078
23.3262
29.9954
29.9551
29.877
29.7688
29.6333
29.4704
29.2784
29.0548
28.7952
28.4939
28.1434
27.7327
27.2497
26.672
25.9853
25.1347
24.1429
22.8339
21.5907
19.6869
20.1363
22.9324
29.9954
29.9551
29.8771
29.7689
29.6335
29.4707
29.2788
29.0553
28.7961
28.4953
28.1457
27.7363
27.2556
26.6816
26.0014
25.1628
24.1941
22.9262
21.7818
20.0065
21.0299
24.2967
29.9954
29.9551
29.8771
29.769
29.6336
29.4709
29.2792
29.056
28.7971
28.4969
28.1481
27.7402
27.2617
26.6918
26.0187
25.1928
24.2482
23.0235
21.9763
20.3399
21.7595
25.1826
29.9954
29.9551
29.8772
29.769
29.6338
29.4712
29.2796
29.0566
28.7982
28.4986
28.1508
27.7443
27.2684
26.7028
26.0371
25.2247
24.305
23.1261
22.1722
20.6875
22.3322
25.9569
29.9954
29.9551
29.8772
29.7691
29.634
29.4715
29.2801
29.0574
28.7993
28.5003
28.1536
27.7488
27.2755
26.7145
26.0567
25.2585
24.3644
23.2337
22.3678
21.0486
22.7863
26.6853
29.9954
29.9552
29.8773
29.7693
29.6342
29.4718
29.2807
29.0582
28.8006
28.5023
28.1565
27.7535
27.2832
26.727
26.0774
25.2944
24.4264
23.3461
22.5618
21.4206
23.1521
27.3122
29.9954
29.9552
29.8773
29.7694
29.6344
29.4721
29.2812
29.0591
28.8019
28.5043
28.1598
27.7586
27.2912
26.7403
26.0993
25.332
24.4907
23.4631
22.7536
21.7995
23.4518
27.8089
29.9955
29.9552
29.8774
29.7695
29.6347
29.4725
29.2818
29.0599
28.8034
28.5066
28.1632
27.764
27.2998
26.7543
26.1225
25.3718
24.5576
23.5844
22.9425
22.18
23.7061
28.1793
29.9955
29.9553
29.8775
29.7696
29.6349
29.4729
29.2824
29.061
28.8048
28.5089
28.1668
27.7698
27.3089
26.7692
26.1468
25.4134
24.6267
23.7093
23.129
22.5567
23.9343
28.4348
29.9955
29.9553
29.8775
29.7698
29.6351
29.4733
29.283
29.062
28.8065
28.5114
28.1707
27.7759
27.3186
26.785
26.1725
25.4569
24.698
23.8376
23.3132
22.9247
24.1528
28.5882
29.9955
29.9553
29.8776
29.7699
29.6354
29.4737
29.2838
29.0631
28.8081
28.514
28.1749
27.7823
27.3289
26.8015
26.1994
25.5024
24.7716
23.9686
23.4955
23.2793
24.3728
28.6575
29.9955
29.9554
29.8777
29.7701
29.6357
29.4743
29.2846
29.0643
28.81
28.5168
28.1791
27.7891
27.3397
26.819
26.2275
25.5497
24.8472
24.1017
23.6766
23.6167
24.6012
28.6646
29.9955
29.9554
29.8778
29.7702
29.636
29.4748
29.2853
29.0655
28.8119
28.5198
28.1838
27.7963
27.351
26.8373
26.2569
25.5987
24.9249
24.2363
23.8571
23.9347
24.8402
28.6323
29.9955
29.9554
29.8779
29.7705
29.6363
29.4753
29.2862
29.0669
28.814
28.5229
28.1887
27.804
27.363
26.8565
26.2877
25.6496
25.0045
24.3719
24.0372
24.2318
25.0888
28.5814
29.9955
29.9555
29.878
29.7707
29.6366
29.4758
29.287
29.0682
28.8161
28.5263
28.1938
27.812
27.3755
26.8766
26.3196
25.7022
25.0862
24.5078
24.2172
24.5082
25.3431
28.5281
29.9955
29.9555
29.8781
29.7709
29.637
29.4764
29.288
29.0697
28.8184
28.5298
28.1992
27.8204
27.3888
26.8976
26.3529
25.7564
25.1696
24.6438
24.397
24.7646
25.5978
28.4841
29.9955
29.9556
29.8782
29.7711
29.6374
29.477
29.289
29.0713
28.8208
28.5335
28.2049
27.8293
27.4026
26.9196
26.3875
25.8121
25.2547
24.7794
24.5764
25.0027
25.8476
28.4564
29.9955
29.9556
29.8783
29.7714
29.6378
29.4778
29.29
29.073
28.8233
28.5374
28.2109
27.8386
27.4172
26.9425
26.4234
25.8693
25.3414
24.9143
24.755
25.2247
26.0877
28.4471
29.9955
29.9557
29.8785
29.7716
29.6383
29.4784
29.2912
29.0746
28.826
28.5415
28.2172
27.8483
27.4323
26.9663
26.4605
25.928
25.4296
25.0483
24.9321
25.4326
26.3145
28.455
29.9955
29.9557
29.8786
29.7718
29.6387
29.4792
29.2924
29.0765
28.8288
28.5459
28.2238
27.8586
27.4481
26.991
26.4988
25.9879
25.5191
25.1811
25.107
25.6287
26.5262
28.4768
29.9955
29.9558
29.8787
29.7721
29.6392
29.4799
29.2936
29.0784
28.8318
28.5503
28.2308
27.8693
27.4647
27.0168
26.5383
26.0493
25.6098
25.3129
25.2792
25.8148
26.7218
28.5089
29.9955
29.9559
29.8789
29.7724
29.6397
29.4807
29.2949
29.0804
28.8349
28.5551
28.2381
27.8806
27.4819
27.0434
26.5791
26.1119
25.7015
25.4432
25.4481
25.9921
26.9018
28.5477
29.9955
29.9559
29.879
29.7727
29.6402
29.4817
29.2963
29.0826
28.8381
28.5601
28.2458
27.8922
27.4998
27.0709
26.6211
26.1755
25.794
25.5723
25.6133
26.162
27.0673
28.5901
29.9956
29.956
29.8793
29.773
29.6407
29.4826
29.2978
29.0848
28.8415
28.5654
28.2537
27.9044
27.5184
27.0995
26.6643
26.2402
25.8872
25.7
25.7743
26.3249
27.2198
28.6339
29.9956
29.9561
29.8795
29.7733
29.6413
29.4835
29.2992
29.0871
28.8452
28.5708
28.262
27.9171
27.5377
27.1289
26.7084
26.306
25.9807
25.8261
25.9309
26.4814
27.3609
28.6781
29.9956
29.9561
29.8796
29.7737
29.6419
29.4845
29.3009
29.0896
28.8489
28.5765
28.2707
27.9304
27.5578
27.1593
26.7538
26.3727
26.0746
25.9506
26.0831
26.6316
27.492
28.7218
29.9956
29.9562
29.8798
29.774
29.6426
29.4856
29.3025
29.0922
28.8529
28.5826
28.2798
27.9441
27.5786
27.1906
26.8002
26.4401
26.1687
26.0735
26.2308
26.7758
27.6144
28.7646
29.9956
29.9563
29.88
29.7744
29.6433
29.4867
29.3043
29.0949
28.857
28.5888
28.2893
27.9584
27.6
27.2228
26.8475
26.5084
26.2627
26.1946
26.374
26.914
27.7289
28.8066
29.9956
29.9564
29.8802
29.7749
29.6439
29.4878
29.3061
29.0978
28.8613
28.5954
28.2992
27.9733
27.6222
27.2558
26.8958
26.5773
26.3566
26.3138
26.5127
27.0467
27.8364
28.8477
29.9956
29.9565
29.8805
29.7753
29.6447
29.4891
29.3081
29.1007
28.8659
28.6022
28.3094
27.9886
27.6452
27.2898
26.945
26.6469
26.4503
26.431
26.647
27.1738
27.9376
28.8879
29.9956
29.9566
29.8807
29.7757
29.6454
29.4903
29.31
29.1038
28.8705
28.6093
28.32
28.0045
27.6688
27.3245
26.9951
26.7169
26.5436
26.5463
26.777
27.2957
28.033
28.927
29.9957
29.9567
29.8809
29.7762
29.6463
29.4916
29.3121
29.107
28.8755
28.6168
28.3312
28.021
27.6932
27.3601
27.046
26.7874
26.6363
26.6593
26.9029
27.4125
28.1232
28.9654
29.9957
29.9568
29.8812
29.7767
29.6471
29.4931
29.3143
29.1104
28.8806
28.6244
28.3426
28.0382
27.7183
27.3966
27.0976
26.8582
26.7285
26.7703
27.0245
27.5245
28.2084
29.0028
29.9957
29.9569
29.8814
29.7772
29.648
29.4945
29.3166
29.114
28.886
28.6324
28.3546
28.0558
27.7441
27.4338
27.15
26.9293
26.82
26.8791
27.1421
27.6319
28.2894
29.0393
29.9957
29.957
29.8817
29.7777
29.6489
29.496
29.319
29.1176
28.8915
28.6407
28.3669
28.0739
27.7706
27.4718
27.203
27.0005
26.9107
26.9856
27.2557
27.7349
28.3663
29.075
29.9957
29.9571
29.882
29.7782
29.6499
29.4976
29.3216
29.1215
28.8973
28.6493
28.3797
28.0927
27.7977
27.5105
27.2566
27.0719
27.0004
27.0898
27.3656
27.8336
28.4396
29.1097
29.9957
29.9572
29.8823
29.7788
29.651
29.4993
29.3241
29.1254
28.9033
28.6584
28.393
28.1121
27.8257
27.55
27.3107
27.1432
27.0893
27.1918
27.4717
27.9283
28.5094
29.1436
29.9957
29.9574
29.8826
29.7795
29.652
29.501
29.3268
29.1296
28.9096
28.6677
28.4066
28.1321
27.8542
27.5901
27.3653
27.2145
27.1769
27.2914
27.5742
28.0193
28.5763
29.1768
29.9958
29.9575
29.8829
29.7801
29.6531
29.5028
29.3297
29.134
28.9161
28.6773
28.4208
28.1525
27.8835
27.6308
27.4204
27.2857
27.2637
27.3887
27.6732
28.1065
28.6401
29.2093
29.9958
29.9576
29.8833
29.7808
29.6542
29.5047
29.3327
29.1384
28.9228
28.6873
28.4354
28.1736
27.9133
27.6722
27.4758
27.3566
27.3492
27.4835
27.7689
28.1903
28.7014
29.241
29.9958
29.9578
29.8836
29.7814
29.6555
29.5067
29.3358
29.1432
28.9298
28.6976
28.4504
28.1952
27.9437
27.7141
27.5316
27.4272
27.4334
27.5762
27.8612
28.2707
28.7603
29.2721
29.9958
29.958
29.884
29.7821
29.6567
29.5087
29.3389
29.148
28.9371
28.7083
28.4659
28.2174
27.9748
27.7566
27.5875
27.4976
27.5164
27.6666
27.9505
28.3481
28.8167
29.3027
29.9958
29.9582
29.8845
29.7829
29.658
29.5108
29.3422
29.1531
28.9446
28.7193
28.4818
28.2401
28.0066
27.7995
27.6436
27.5674
27.5981
27.7546
28.0367
28.4225
28.8711
29.3326
29.9959
29.9583
29.8849
29.7837
29.6594
29.5131
29.3456
29.1583
28.9523
28.7308
28.4983
28.2633
28.0388
27.843
27.7
27.6368
27.6784
27.8404
28.12
28.494
28.9235
29.362
29.9959
29.9585
29.8853
29.7845
29.6608
29.5154
29.3492
29.1637
28.9604
28.7425
28.5152
28.2872
28.0715
27.8868
27.7563
27.7057
27.7574
27.924
28.2005
28.5628
28.974
29.3909
29.9959
29.9587
29.8857
29.7854
29.6622
29.5178
29.353
29.1693
28.9688
28.7546
28.5325
28.3115
28.1049
27.9311
27.8128
27.7739
27.8349
28.0054
28.2783
28.6291
29.0227
29.4192
29.9959
29.9589
29.8862
29.7862
29.6638
29.5203
29.3568
29.1752
28.9773
28.7671
28.5503
28.3363
28.1386
27.9757
27.8691
27.8416
27.911
28.0845
28.3534
28.693
29.0698
29.4471
29.9959
29.9591
29.8867
29.7871
29.6654
29.5228
29.3609
29.1812
28.9863
28.78
28.5686
28.3616
28.173
28.0206
27.9253
27.9085
27.9856
28.1616
28.4261
28.7546
29.1154
29.4746
29.996
29.9592
29.8871
29.7882
29.6671
29.5255
29.3651
29.1875
28.9955
28.7932
28.5873
28.3875
28.2078
28.0657
27.9816
27.9747
28.0588
28.2365
28.4964
28.814
29.1595
29.5017
29.996
29.9594
29.8877
29.7891
29.6688
29.5283
29.3694
29.1939
29.005
28.8068
28.6064
28.4138
28.2429
28.111
28.0375
28.0402
28.1306
28.3095
28.5645
28.8713
29.2022
29.5283
29.996
29.9597
29.8882
29.7901
29.6705
29.5312
29.3738
29.2005
29.0147
28.8207
28.626
28.4406
28.2785
28.1565
28.0932
28.1048
28.2008
28.3805
28.6303
28.9268
29.2436
29.5545
29.996
29.9599
29.8887
29.7912
29.6724
29.5342
29.3784
29.2075
29.0247
28.8351
28.646
28.4678
28.3144
28.2022
28.1487
28.1686
28.2697
28.4494
28.6939
28.9803
29.2839
29.5804
29.9961
29.9601
29.8894
29.7924
29.6743
29.5373
29.3832
29.2146
29.035
28.8498
28.6664
28.4955
28.3507
28.248
28.2038
28.2315
28.3369
28.5165
28.7556
29.032
29.3229
29.6058
29.9961
29.9603
29.89
29.7935
29.6763
29.5405
29.3881
29.2219
29.0458
28.8649
28.6873
28.5235
28.3872
28.2938
28.2586
28.2934
28.4028
28.5816
28.8152
29.0821
29.3609
29.631
29.9961
29.9606
29.8906
29.7947
29.6783
29.5439
29.3932
29.2295
29.0567
28.8803
28.7085
28.552
28.424
28.3396
28.313
28.3545
28.4672
28.645
28.8731
29.1307
29.3979
29.6558
29.9962
29.9608
29.8912
29.7959
29.6805
29.5473
29.3986
29.2374
29.0679
28.8961
28.7302
28.5808
28.4611
28.3854
28.3669
28.4146
28.5302
28.7066
28.9291
29.1777
29.4339
29.6802
29.9962
29.9611
29.8919
29.7972
29.6827
29.5508
29.404
29.2454
29.0795
28.9123
28.7522
28.6099
28.4984
28.4311
28.4204
28.4738
28.5918
28.7666
28.9833
29.2232
29.4689
29.7045
29.9962
29.9613
29.8925
29.7985
29.685
29.5545
29.4095
29.2536
29.0913
28.9288
28.7747
28.6394
28.5358
28.4768
28.4733
28.5319
28.652
28.8249
29.036
29.2674
29.5031
29.7283
29.9963
29.9616
29.8932
29.7999
29.6873
29.5583
29.4154
29.2621
29.1034
28.9457
28.7974
28.6693
28.5734
28.5223
28.5257
28.5891
28.7107
28.8814
29.087
29.3104
29.5364
29.7519
29.9963
29.9619
29.8941
29.8014
29.6898
29.5622
29.4213
29.2708
29.1159
28.9629
28.8205
28.6993
28.6111
28.5676
28.5775
28.6452
28.768
28.9365
29.1366
29.352
29.5691
29.7753
29.9963
29.9622
29.8948
29.8028
29.6924
29.5662
29.4275
29.2799
29.1286
28.9805
28.844
28.7296
28.649
28.6126
28.6288
28.7004
28.824
28.99
29.1847
29.3925
29.6008
29.7983
29.9964
29.9625
29.8956
29.8043
29.695
29.5704
29.4337
29.2891
29.1416
28.9983
28.8678
28.7602
28.6868
28.6575
28.6793
28.7545
28.8787
29.0421
29.2313
29.4318
29.6319
29.8212
29.9964
29.9628
29.8964
29.8059
29.6977
29.5747
29.4403
29.2985
29.155
29.0165
28.8918
28.791
28.7246
28.702
28.7293
28.8075
28.9321
29.0927
29.2767
29.4702
29.6623
29.8437
29.9964
29.9631
29.8972
29.8075
29.7004
29.5791
29.447
29.3082
29.1685
29.035
28.9162
28.822
28.7625
28.7462
28.7785
28.8596
28.9841
29.1419
29.3207
29.5073
29.692
29.866
29.9965
29.9635
29.898
29.8092
29.7033
29.5837
29.4538
29.3181
29.1824
29.0537
28.9408
28.8531
28.8003
28.7901
28.8272
28.9106
29.0349
29.1898
29.3634
29.5437
29.7212
29.888
29.9965
29.9638
29.899
29.811
29.7063
29.5884
29.4608
29.3283
29.1966
29.0729
28.9657
28.8844
28.838
28.8337
28.875
28.9606
29.0844
29.2365
29.4051
29.5789
29.7497
29.9098
29.9965
29.9642
29.8999
29.8127
29.7093
29.5932
29.4681
29.3387
29.211
29.0922
28.9908
28.9158
28.8757
28.8768
28.9221
29.0095
29.1328
29.2817
29.4455
29.6134
29.7775
29.9314
29.9966
29.9645
29.9009
29.8145
29.7125
29.5982
29.4754
29.3493
29.2256
29.1118
29.0161
28.9472
28.9131
28.9195
28.9685
29.0576
29.1798
29.3258
29.4849
29.6469
29.8048
29.9527
29.9966
29.9649
29.9018
29.8165
29.7157
29.6033
29.4831
29.3601
29.2406
29.1317
29.0416
28.9787
28.9504
28.9618
29.0141
29.1045
29.2258
29.3687
29.5231
29.6796
29.8317
29.9737
29.9967
29.9653
29.9028
29.8184
29.7191
29.6085
29.4909
29.3712
29.2558
29.1518
29.0672
29.0102
28.9876
29.0036
29.0591
29.1504
29.2706
29.4104
29.5603
29.7115
29.8579
29.9946
29.9967
29.9656
29.9039
29.8205
29.7224
29.6139
29.4988
29.3825
29.2712
29.1722
29.0931
29.0417
29.0244
29.0449
29.1031
29.1953
29.3143
29.4511
29.5966
29.7426
29.8837
30.0152
29.9968
29.966
29.905
29.8225
29.726
29.6194
29.5069
29.3939
29.2868
29.1927
29.119
29.0733
29.0611
29.0857
29.1465
29.2393
29.3569
29.4907
29.6319
29.773
29.909
30.0355
29.9968
29.9664
29.906
29.8246
29.7296
29.6251
29.5152
29.4057
29.3028
29.2134
29.1451
29.1046
29.0975
29.1259
29.189
29.2822
29.3984
29.5291
29.6663
29.8026
29.9337
30.0556
29.9968
29.9668
29.9071
29.8268
29.7333
29.6308
29.5237
29.4176
29.3189
29.2343
29.1712
29.136
29.1335
29.1655
29.2307
29.3242
29.4389
29.5666
29.6997
29.8316
29.958
30.0754
29.9969
29.9673
29.9083
29.829
29.737
29.6367
29.5324
29.4298
29.3351
29.2554
29.1974
29.1673
29.1693
29.2047
29.2716
29.3652
29.4783
29.6031
29.7323
29.8598
29.9818
30.095
29.9969
29.9677
29.9095
29.8314
29.7409
29.6427
29.5413
29.442
29.3516
29.2765
29.2236
29.1985
29.2046
29.2432
29.3117
29.4052
29.5166
29.6385
29.764
29.8874
30.0051
30.1144
29.997
29.9681
29.9107
29.8337
29.745
29.649
29.5503
29.4546
29.3683
29.2979
29.2499
29.2294
29.2396
29.2811
29.3511
29.4443
29.554
29.673
29.7949
29.9143
30.0281
30.1334
29.997
29.9687
29.912
29.8362
29.749
29.6552
29.5593
29.4672
29.385
29.3193
29.2761
29.2601
29.2743
29.3184
29.3895
29.4825
29.5905
29.7067
29.825
29.9406
30.0504
30.1522
29.9971
29.9691
29.9132
29.8386
29.7532
29.6616
29.5687
29.48
29.402
29.3408
29.3023
29.2908
29.3085
29.355
29.4273
29.5197
29.626
29.7394
29.8543
29.9663
30.0724
30.1708
29.9971
29.9696
29.9146
29.8412
29.7575
29.6681
29.5782
29.4931
29.4191
29.3624
29.3284
29.3211
29.3422
29.3911
29.4642
29.5561
29.6605
29.7713
29.8829
29.9913
30.094
30.189
29.9972
29.9701
29.9159
29.8438
29.7618
29.6749
29.5878
29.5062
29.4363
29.384
29.3544
29.3511
29.3755
29.4264
29.5002
29.5915
29.6941
29.8021
29.9107
30.0157
30.115
30.2069
29.9972
29.9706
29.9173
29.8465
29.7662
29.6817
29.5976
29.5195
29.4537
29.4057
29.3804
29.381
29.4084
29.4611
29.5355
29.626
29.7268
29.8323
29.9377
30.0395
30.1356
30.2245
29.9973
29.9711
29.9186
29.8491
29.7708
29.6885
29.6074
29.5329
29.4711
29.4273
29.4062
29.4105
29.4407
29.4952
29.5699
29.6597
29.7587
29.8616
29.9641
30.0627
30.1558
30.2419
29.9973
29.9716
29.9201
29.852
29.7754
29.6956
29.6174
29.5465
29.4885
29.449
29.4319
29.4396
29.4726
29.5285
29.6035
29.6924
29.7896
29.89
29.9896
30.0853
30.1754
30.2588
29.9974
29.9721
29.9216
29.8548
29.7801
29.7027
29.6276
29.5602
29.5062
29.4706
29.4573
29.4685
29.5038
29.5611
29.6363
29.7243
29.8197
29.9177
30.0146
30.1075
30.1947
30.2754
29.9974
29.9726
29.923
29.8577
29.7849
29.7099
29.6377
29.5739
29.5238
29.4922
29.4826
29.4969
29.5346
29.5931
29.6684
29.7553
29.8489
29.9445
30.0387
30.1289
30.2135
30.2917
29.9975
29.9731
29.9246
29.8607
29.7898
29.7173
29.6481
29.5877
29.5414
29.5136
29.5077
29.525
29.5647
29.6243
29.6995
29.7855
29.8772
29.9706
30.0623
30.1498
30.2318
30.3076
29.9975
29.9738
29.9261
29.8636
29.7948
29.7247
29.6586
29.6015
29.5589
29.535
29.5326
29.5527
29.5944
29.6549
29.7299
29.8148
29.9048
29.9959
30.0851
30.1701
30.2496
30.3231
29.9976
29.9743
29.9277
29.8667
29.7998
29.7322
29.669
29.6155
29.5766
29.5563
29.5572
29.5799
29.6235
29.6847
29.7596
29.8433
29.9315
30.0204
30.1072
30.1898
30.2669
30.3383
29.9976
29.9749
29.9292
29.8697
29.8048
29.7398
29.6797
29.6295
29.5941
29.5774
29.5814
29.6067
29.6519
29.7138
29.7883
29.8709
29.9574
30.0442
30.1287
30.2088
30.2838
30.353
29.9977
29.9755
29.9309
29.8729
29.8099
29.7476
29.6903
29.6435
29.6117
29.5983
29.6054
29.6331
29.6798
29.7422
29.8163
29.8978
29.9825
30.0672
30.1495
30.2274
30.3001
30.3674
29.9978
29.976
29.9326
29.8761
29.8152
29.7553
29.7011
29.6575
29.6291
29.619
29.6291
29.659
29.7069
29.7698
29.8434
29.9237
30.0067
30.0895
30.1695
30.2453
30.316
30.3813
29.9978
29.9766
29.9342
29.8793
29.8205
29.7631
29.7118
29.6715
29.6465
29.6397
29.6524
29.6844
29.7335
29.7966
29.8698
29.9489
30.0303
30.111
30.1889
30.2626
30.3313
30.3947
29.9979
29.9772
29.936
29.8827
29.8258
29.7709
29.7227
29.6856
29.6638
29.66
29.6753
29.7092
29.7595
29.8228
29.8953
29.9732
30.0529
30.1317
30.2076
30.2794
30.346
30.4077
29.9979
29.9778
29.9377
29.8859
29.8312
29.7788
29.7334
29.6995
29.681
29.6801
29.6978
29.7336
29.7847
29.8482
29.9202
29.9967
30.0749
30.1518
30.2258
30.2954
30.3602
30.4202
29.9981
29.9784
29.9394
29.8893
29.8366
29.7867
29.7442
29.7134
29.6979
29.6999
29.72
29.7573
29.8093
29.8729
29.9441
30.0194
30.0959
30.1711
30.243
30.3109
30.3739
30.4322
29.9981
29.9791
29.9412
29.8926
29.842
29.7947
29.755
29.7273
29.7148
29.7194
29.7418
29.7806
29.8333
29.8967
29.9673
30.0414
30.1163
30.1896
30.2598
30.3258
30.3871
30.4438
29.9982
29.9797
29.9429
29.8961
29.8475
29.8028
29.7659
29.741
29.7314
29.7387
29.763
29.8032
29.8565
29.9199
29.9896
30.0625
30.1358
30.2074
30.2757
30.3401
30.3996
30.4547
29.9983
29.9803
29.9447
29.8995
29.8531
29.8108
29.7767
29.7547
29.7478
29.7576
29.784
29.8253
29.8791
29.9422
30.0111
30.0828
30.1545
30.2244
30.2911
30.3536
30.4115
30.4652
29.9983
29.981
29.9465
29.903
29.8586
29.8188
29.7874
29.7682
29.7641
29.7762
29.8043
29.8468
29.901
29.9638
30.0319
30.1022
30.1724
30.2407
30.3057
30.3666
30.4229
30.4751
29.9984
29.9816
29.9483
29.9064
29.8642
29.8267
29.798
29.7816
29.7801
29.7944
29.8242
29.8676
29.9221
29.9846
30.0518
30.1209
30.1896
30.2562
30.3195
30.3788
30.4336
30.4844
29.9984
29.9822
29.9501
29.9099
29.8697
29.8346
29.8086
29.7949
29.7958
29.8122
29.8435
29.8879
29.9426
30.0046
30.0709
30.1388
30.206
30.271
30.3327
30.3904
30.4437
30.4931
29.9985
29.9828
29.9519
29.9135
29.8753
29.8426
29.8191
29.808
29.8112
29.8297
29.8624
29.9075
29.9624
30.0239
30.0892
30.1558
30.2216
30.285
30.3451
30.4013
30.4532
30.5013
29.9986
29.9835
29.9538
29.9169
29.8808
29.8505
29.8296
29.8209
29.8265
29.8467
29.8806
29.9265
29.9813
30.0424
30.1067
30.1721
30.2364
30.2983
30.3568
30.4116
30.4621
30.5088
29.9986
29.9842
29.9556
29.9205
29.8864
29.8584
29.8398
29.8335
29.8413
29.8633
29.8985
29.9447
29.9996
30.06
30.1235
30.1876
30.2503
30.3108
30.3679
30.4211
30.4702
30.5157
29.9987
29.9848
29.9574
29.9239
29.8919
29.8661
29.85
29.846
29.8558
29.8794
29.9156
29.9624
30.0171
30.0769
30.1394
30.2021
30.2636
30.3225
30.378
30.43
30.4776
30.522
29.9987
29.9855
29.9593
29.9274
29.8974
29.8738
29.86
29.8583
29.87
29.895
29.9322
29.9793
30.0339
30.093
30.1544
30.2159
30.2759
30.3334
30.3876
30.4381
30.4844
30.5276
29.9988
29.9861
29.9611
29.9309
29.9028
29.8815
29.8699
29.8703
29.8838
29.9103
29.9483
29.9956
30.0499
30.1083
30.1686
30.2289
30.2876
30.3435
30.3963
30.4454
30.4905
30.5325
29.9988
29.9867
29.9629
29.9343
29.9082
29.8889
29.8796
29.882
29.8973
29.9249
29.9637
30.0112
30.0651
30.1228
30.182
30.2411
30.2984
30.353
30.4043
30.452
30.4959
30.5367
29.9989
29.9873
29.9648
29.9378
29.9135
29.8964
29.889
29.8934
29.9102
29.9392
29.9785
30.0261
30.0796
30.1365
30.1947
30.2524
30.3083
30.3616
30.4115
30.4579
30.5006
30.5402
29.999
29.988
29.9666
29.9412
29.9188
29.9037
29.8983
29.9046
29.9229
29.9528
29.9926
30.0403
30.0933
30.1493
30.2064
30.2629
30.3174
30.3693
30.4179
30.4631
30.5046
30.543
29.999
29.9886
29.9683
29.9446
29.924
29.9108
29.9074
29.9154
29.9351
29.9659
30.0062
30.0537
30.1062
30.1615
30.2174
30.2725
30.3258
30.3762
30.4236
30.4675
30.5077
30.5451
29.9991
29.9893
29.9701
29.9479
29.9292
29.9179
29.9163
29.9259
29.9469
29.9785
30.0191
30.0665
30.1184
30.1727
30.2275
30.2814
30.3333
30.3824
30.4284
30.4711
30.5102
30.5465
29.9991
29.9899
29.9719
29.9512
29.9341
29.9247
29.9249
29.936
29.9582
29.9905
30.0314
30.0785
30.1297
30.1831
30.2368
30.2894
30.3399
30.3878
30.4325
30.4739
30.5119
30.5471
29.9992
29.9905
29.9736
29.9544
29.9391
29.9314
29.9333
29.9458
29.969
30.002
30.0429
30.0898
30.1404
30.1928
30.2452
30.2966
30.3458
30.3923
30.4357
30.4759
30.5128
30.547
29.9992
29.9911
29.9753
29.9576
29.9439
29.9379
29.9414
29.9552
29.9794
30.0129
30.0539
30.1003
30.1501
30.2015
30.2528
30.3029
30.3508
30.396
30.4382
30.4772
30.5129
30.5461
29.9993
29.9916
29.9769
29.9607
29.9486
29.9442
29.9492
29.9643
29.9893
30.0232
30.0641
30.1101
30.1592
30.2095
30.2596
30.3084
30.355
30.3989
30.4398
30.4777
30.5122
30.5444
29.9993
29.9922
29.9786
29.9638
29.9532
29.9503
29.9567
29.9729
29.9987
30.0328
30.0736
30.1192
30.1673
30.2167
30.2655
30.3131
30.3583
30.401
30.4406
30.4773
30.5108
30.5419
29.9994
29.9927
29.9802
29.9667
29.9577
29.9562
29.9639
29.9812
30.0075
30.0419
30.0825
30.1274
30.1748
30.223
30.2706
30.3169
30.3608
30.4022
30.4406
30.4761
30.5085
30.5387
29.9994
29.9933
29.9818
29.9696
29.962
29.9619
29.9709
29.9889
30.0159
30.0504
30.0906
30.1349
30.1813
30.2284
30.2748
30.3198
30.3625
30.4025
30.4397
30.4741
30.5055
30.5347
29.9995
29.9938
29.9833
29.9724
29.9662
29.9674
29.9774
29.9964
30.0237
30.0581
30.0981
30.1417
30.1871
30.2331
30.2783
30.3218
30.3632
30.402
30.4382
30.4713
30.5017
30.5298
29.9995
29.9943
29.9847
29.9751
29.9702
29.9727
29.9837
30.0034
30.031
30.0654
30.1049
30.1477
30.1921
30.2369
30.2809
30.3231
30.3633
30.4008
30.4356
30.4677
30.497
30.5243
29.9996
29.9948
29.9861
29.9778
29.974
29.9777
29.9896
30.0098
30.0377
30.0719
30.1109
30.1529
30.1963
30.2399
30.2826
30.3236
30.3624
30.3986
30.4323
30.4633
30.4916
30.5178
29.9996
29.9953
29.9875
29.9803
29.9777
29.9825
29.9951
30.0159
30.0439
30.0779
30.1163
30.1574
30.1998
30.2421
30.2834
30.3231
30.3607
30.3957
30.4281
30.458
30.4852
30.5106
29.9996
29.9959
29.9888
29.9827
29.9812
29.9869
30.0003
30.0215
30.0495
30.0832
30.1209
30.1611
30.2023
30.2435
30.2835
30.3219
30.3581
30.3919
30.4232
30.452
30.4781
30.5026
29.9997
29.9963
29.9902
29.985
29.9846
29.9911
30.0051
30.0267
30.0547
30.0878
30.1248
30.1641
30.2042
30.244
30.2828
30.3198
30.3547
30.3873
30.4173
30.4451
30.4702
30.4937
29.9997
29.9967
29.9914
29.9872
29.9877
29.9951
30.0097
30.0313
30.0591
30.0919
30.1281
30.1662
30.2051
30.2437
30.2812
30.3168
30.3504
30.3818
30.4107
30.4373
30.4615
30.484
29.9998
29.9971
29.9925
29.9892
29.9907
29.9987
30.0138
30.0355
30.0631
30.0953
30.1307
30.1677
30.2054
30.2426
30.2787
30.3131
30.3454
30.3755
30.4032
30.4288
30.4519
30.4735
29.9998
29.9975
29.9936
29.9912
29.9935
30.0021
30.0175
30.0392
30.0664
30.098
30.1324
30.1684
30.2048