/*--------------------------------*- C++ -*----------------------------------*\
| =========                 |                                                 |
| \\      /  F ield         | OpenFOAM: The Open Source CFD Toolbox           |
|  \\    /   O peration     | Version:  v1912                                 |
|   \\  /    A nd           | Website:  www.openfoam.com                      |
|    \\/     M anipulation  |                                                 |
\*---------------------------------------------------------------------------*/
FoamFile
{
    version     2.0;
    format      ascii;
    class       surfaceScalarField;
    location    "3500";
    object      phi;
}
// * * * * * * * * * * * * * * * * * * * * * * * * * * * * * * * * * * * * * //

dimensions      [0 3 -1 0 0 0 0];
oriented        oriented;


internalField   nonuniform List<scalar> 
24553
(
0.000199828
1.4533e-07
0.000199423
4.05024e-07
0.000198796
6.27692e-07
0.000197976
8.19766e-07
0.000196972
1.00404e-06
0.000195777
1.19467e-06
0.000194376
1.40075e-06
0.000192745
1.63174e-06
0.000190845
1.89924e-06
0.000188629
2.21655e-06
0.000186024
2.60449e-06
0.000182938
3.08664e-06
0.000179226
3.7114e-06
0.000174699
4.52678e-06
0.000169038
5.661e-06
0.000161794
7.24479e-06
0.000152207
9.58703e-06
0.00013891
1.32965e-05
0.000120406
1.85039e-05
9.20069e-05
2.83994e-05
5.41144e-05
3.78925e-05
5.41144e-05
0.00019983
2.92495e-07
0.000199423
8.11425e-07
0.000198796
1.25478e-06
0.000197977
1.63916e-06
0.000196973
2.00788e-06
0.000195778
2.38903e-06
0.000194378
2.80106e-06
0.000192747
3.26289e-06
0.000190849
3.79762e-06
0.000188633
4.43202e-06
0.000186031
5.20707e-06
0.000182946
6.17127e-06
0.00017924
7.4176e-06
0.000174716
9.05057e-06
0.000169073
1.13044e-05
0.000161826
1.44909e-05
0.000152304
1.91093e-05
0.000138961
2.66399e-05
0.00012063
3.68349e-05
9.19321e-05
5.7097e-05
5.40265e-05
7.5798e-05
0.000108141
0.00019983
4.39653e-07
0.000199423
1.21781e-06
0.000198796
1.88185e-06
0.000197977
2.4585e-06
0.000196973
3.01165e-06
0.000195779
3.58328e-06
0.000194379
4.20121e-06
0.000192748
4.89381e-06
0.00019085
5.69564e-06
0.000188635
6.64692e-06
0.000186033
7.80876e-06
0.00018295
9.25442e-06
0.000179246
1.11213e-05
0.000174727
1.35699e-05
0.000169091
1.69403e-05
0.000161861
2.17207e-05
0.000152364
2.86067e-05
0.00013909
3.99135e-05
0.000120845
5.508e-05
9.23807e-05
8.55613e-05
5.47468e-05
0.000113432
0.000162888
0.00019983
5.86799e-07
0.000199423
1.62416e-06
0.000198796
2.50887e-06
0.000197977
3.27779e-06
0.000196973
4.01532e-06
0.000195779
4.77738e-06
0.000194379
5.60113e-06
0.000192749
6.52438e-06
0.000190851
7.59312e-06
0.000188637
8.86099e-06
0.000186037
1.04091e-05
0.000182956
1.23354e-05
0.000179256
1.48214e-05
0.000174743
1.80825e-05
0.000169119
2.25648e-05
0.000161913
2.8926e-05
0.000152456
3.80644e-05
0.000139284
5.30848e-05
0.000121185
7.31798e-05
9.30298e-05
0.000113716
5.57051e-05
0.000150757
0.000218593
0.00019983
7.33929e-07
0.000199423
2.03048e-06
0.000198796
3.13584e-06
0.000197977
4.09698e-06
0.000196974
5.01885e-06
0.00019578
5.97127e-06
0.00019438
7.00074e-06
0.00019275
8.15449e-06
0.000190853
9.48989e-06
0.00018864
1.10739e-05
0.000186042
1.30076e-05
0.000182964
1.54133e-05
0.000179269
1.85164e-05
0.000174765
2.25861e-05
0.000169156
2.81737e-05
0.000161984
3.60986e-05
0.00015258
4.74678e-05
0.000139544
6.6121e-05
0.000121645
9.10787e-05
9.38838e-05
0.000141477
5.69216e-05
0.000187719
0.000275514
0.00019983
8.81041e-07
0.000199423
2.43676e-06
0.000198796
3.76274e-06
0.000197977
4.91606e-06
0.000196974
6.02222e-06
0.00019578
7.16491e-06
0.000194381
8.39997e-06
0.000192752
9.78401e-06
0.000190856
1.13858e-05
0.000188644
1.32855e-05
0.000186048
1.56039e-05
0.000182974
1.84876e-05
0.000179285
2.22052e-05
0.000174792
2.70785e-05
0.000169203
3.37631e-05
0.000162071
4.32307e-05
0.000152736
5.68025e-05
0.000139868
7.89893e-05
0.000122224
0.000108723
9.49495e-05
0.000168751
5.84143e-05
0.000224254
0.000333929
0.00019983
1.02813e-06
0.000199423
2.84297e-06
0.000198797
4.38956e-06
0.000197978
5.73502e-06
0.000196974
7.02538e-06
0.000195781
8.35825e-06
0.000194382
9.79874e-06
0.000192754
1.14128e-05
0.000190859
1.32806e-05
0.000188649
1.54953e-05
0.000186055
1.81975e-05
0.000182986
2.15573e-05
0.000179304
2.58864e-05
0.000174825
3.15574e-05
0.000169259
3.93291e-05
0.000162176
5.03142e-05
0.000152924
6.60543e-05
0.000140256
9.16575e-05
0.000122917
0.000126062
9.62358e-05
0.000195433
6.0205e-05
0.000260285
0.000394134
0.00019983
1.17519e-06
0.000199423
3.24913e-06
0.000198797
5.01628e-06
0.000197978
6.55381e-06
0.000196975
8.02831e-06
0.000195782
9.55123e-06
0.000194384
1.1197e-05
0.000192756
1.30409e-05
0.000190862
1.51741e-05
0.000188654
1.77032e-05
0.000186064
2.07879e-05
0.000182999
2.46219e-05
0.000179327
2.9559e-05
0.000174864
3.60207e-05
0.000169325
4.48678e-05
0.000162298
5.73415e-05
0.000153142
7.52098e-05
0.000140706
0.000104094
0.000123723
0.000143045
9.77534e-05
0.000221402
6.23196e-05
0.000295719
0.000456453
0.00019983
1.32222e-06
0.000199424
3.65521e-06
0.000198797
5.64289e-06
0.000197978
7.37244e-06
0.000196976
9.03096e-06
0.000195783
1.07438e-05
0.000194386
1.25946e-05
0.000192758
1.46679e-05
0.000190866
1.70662e-05
0.000188661
1.99088e-05
0.000186074
2.33747e-05
0.000183015
2.76805e-05
0.000179353
3.32215e-05
0.000174907
4.04662e-05
0.0001694
5.03754e-05
0.000162436
6.43052e-05
0.00015339
8.42558e-05
0.000141216
0.000116268
0.000124636
0.000159625
9.95156e-05
0.000246522
6.4789e-05
0.000330445
0.000521242
0.00019983
1.46922e-06
0.000199424
4.06122e-06
0.000198797
6.26938e-06
0.000197979
8.19086e-06
0.000196976
1.00333e-05
0.000195784
1.19359e-05
0.000194387
1.39915e-05
0.000192761
1.6294e-05
0.000190871
1.89567e-05
0.000188668
2.21119e-05
0.000186085
2.59575e-05
0.000183033
3.07325e-05
0.000179382
3.68728e-05
0.000174956
4.48917e-05
0.000169483
5.58481e-05
0.000162591
7.11981e-05
0.000153667
9.31796e-05
0.000141785
0.000128149
0.000125653
0.000175757
0.000101538
0.000270637
6.76488e-05
0.000364334
0.000588891
0.00019983
1.61618e-06
0.000199424
4.46713e-06
0.000198798
6.89574e-06
0.000197979
9.00907e-06
0.000196977
1.10353e-05
0.000195786
1.31275e-05
0.00019439
1.53877e-05
0.000192765
1.79188e-05
0.000190876
2.08454e-05
0.000188676
2.43122e-05
0.000186097
2.85357e-05
0.000183053
3.37771e-05
0.000179414
4.05117e-05
0.00017501
4.92953e-05
0.000169576
6.12824e-05
0.000162761
7.80135e-05
0.000153971
0.000101969
0.00014241
0.00013971
0.000126768
0.0001914
0.000103838
0.000293567
7.09405e-05
0.000397232
0.000659832
0.00019983
1.76309e-06
0.000199424
4.87294e-06
0.000198798
7.52194e-06
0.00019798
9.82704e-06
0.000196978
1.2037e-05
0.000195787
1.43186e-05
0.000194392
1.6783e-05
0.000192768
1.95424e-05
0.000190882
2.27321e-05
0.000188684
2.65094e-05
0.000186111
3.1109e-05
0.000183075
3.68135e-05
0.000179449
4.41371e-05
0.00017507
5.36747e-05
0.000169678
6.66746e-05
0.000162946
8.47447e-05
0.000154302
0.000110614
0.000143088
0.000150924
0.000127973
0.000206514
0.000106437
0.000315104
7.4713e-05
0.000428955
0.000734545
0.00019983
1.90996e-06
0.000199424
5.27865e-06
0.000198798
8.14797e-06
0.00019798
1.06447e-05
0.000196979
1.30382e-05
0.000195789
1.5509e-05
0.000194394
1.81775e-05
0.000192772
2.11646e-05
0.000190888
2.46167e-05
0.000188694
2.87032e-05
0.000186126
3.3677e-05
0.000183098
3.98412e-05
0.000179488
4.77476e-05
0.000175134
5.80282e-05
0.000169787
7.20213e-05
0.000163146
9.13858e-05
0.000154658
0.000119102
0.000143816
0.000161767
0.000129262
0.000221068
0.000109359
0.000335007
7.90191e-05
0.000459295
0.000813564
0.00019983
2.05678e-06
0.000199424
5.68424e-06
0.000198798
8.77383e-06
0.000197981
1.14622e-05
0.00019698
1.4039e-05
0.00019579
1.66988e-05
0.000194397
1.95709e-05
0.000192776
2.27853e-05
0.000190894
2.64989e-05
0.000188704
3.08934e-05
0.000186142
3.62391e-05
0.000183124
4.28594e-05
0.000179529
5.13422e-05
0.000175203
6.23538e-05
0.000169906
7.73192e-05
0.00016336
9.7931e-05
0.000155038
0.000127424
0.000144589
0.000172216
0.000130623
0.000235035
0.000112631
0.000352998
8.39651e-05
0.000487961
0.000897529
0.00019983
2.20349e-06
0.000199425
6.08966e-06
0.000198799
9.39951e-06
0.000197982
1.22793e-05
0.000196981
1.50393e-05
0.000195792
1.78879e-05
0.0001944
2.09632e-05
0.000192781
2.44044e-05
0.000190901
2.83787e-05
0.000188715
3.30798e-05
0.000186159
3.87951e-05
0.000183151
4.58674e-05
0.000179573
5.49198e-05
0.000175278
6.66495e-05
0.000170032
8.25652e-05
0.000163588
0.000104375
0.00015544
0.000135571
0.000145404
0.000182252
0.000132041
0.000248398
0.000116296
0.000368744
8.92507e-05
0.000515006
0.000986779
-3.04948e-06
3.04948e-06
-6.79578e-06
3.74631e-06
-9.58113e-06
2.78535e-06
-1.21064e-05
2.5253e-06
-1.45001e-05
2.3937e-06
-1.7231e-05
2.73089e-06
-2.07503e-05
3.51928e-06
-2.56758e-05
4.92555e-06
-3.27681e-05
7.09238e-06
-4.27627e-05
9.99446e-06
-5.6054e-05
1.32913e-05
-7.22902e-05
1.62362e-05
-9.02101e-05
1.79199e-05
-0.000107978
1.77678e-05
-0.000123915
1.59367e-05
-0.000137069
1.31543e-05
-0.000147191
1.01215e-05
-0.000154287
7.09634e-06
-0.000158228
3.94157e-06
-0.000158676
4.47724e-07
-0.000155297
-3.37938e-06
-0.000148068
-7.22875e-06
-0.000136832
-1.12365e-05
-0.000119056
-1.77758e-05
-9.02536e-05
-2.88021e-05
-5.05208e-05
-3.97327e-05
-7.76132e-06
-4.27592e-05
2.92114e-05
-3.69729e-05
5.73517e-05
-2.81402e-05
7.81102e-05
-2.07585e-05
9.34439e-05
-1.53338e-05
0.000105442
-1.19983e-05
0.000114611
-9.16902e-06
0.000124043
-9.43129e-06
-6.38482e-06
-3.04512e-06
6.09461e-06
-6.80058e-06
7.50178e-06
-9.56003e-06
5.5448e-06
-1.2091e-05
5.05631e-06
-1.44631e-05
4.76576e-06
-1.71932e-05
5.461e-06
-2.06956e-05
7.02178e-06
-2.56121e-05
9.842e-06
-3.26838e-05
1.41642e-05
-4.26521e-05
1.99627e-05
-5.58983e-05
2.65375e-05
-7.2077e-05
3.24149e-05
-8.99394e-05
3.57822e-05
-0.000107663
3.54917e-05
-0.000123563
3.18365e-05
-0.000136677
2.62683e-05
-0.000146753
2.01967e-05
-0.000153803
1.41462e-05
-0.000157701
7.83988e-06
-0.000158114
8.60368e-07
-0.000154712
-6.78124e-06
-0.000147417
-1.45231e-05
-0.000136097
-2.25569e-05
-0.000118347
-3.55255e-05
-8.95835e-05
-5.75657e-05
-4.97569e-05
-7.95591e-05
-6.96295e-06
-8.55528e-05
2.99195e-05
-7.38556e-05
5.79559e-05
-5.61767e-05
7.86299e-05
-4.14326e-05
9.39061e-05
-3.06101e-05
0.000105839
-2.39316e-05
0.000114995
-1.8325e-05
0.000124331
-1.87666e-05
-1.2815e-05
-3.05091e-06
9.14552e-06
-6.79842e-06
1.12493e-05
-9.53548e-06
8.28187e-06
-1.20441e-05
7.56495e-06
-1.43967e-05
7.11834e-06
-1.71049e-05
8.16925e-06
-2.05818e-05
1.04986e-05
-2.54651e-05
1.47254e-05
-3.24947e-05
2.11938e-05
-4.24097e-05
2.98776e-05
-5.55913e-05
3.97192e-05
-7.16935e-05
4.85171e-05
-8.94672e-05
5.35559e-05
-0.000107092
5.31166e-05
-0.000122889
4.76331e-05
-0.000135902
3.92816e-05
-0.000145883
3.01769e-05
-0.000152843
2.11069e-05
-0.000156657
1.16534e-05
-0.000156988
1.19168e-06
-0.000153505
-1.02641e-05
-0.000146131
-2.18974e-05
-0.000134732
-3.39562e-05
-0.000116897
-5.33599e-05
-8.80539e-05
-8.6409e-05
-4.82108e-05
-0.000119402
-5.51624e-06
-0.000128247
3.12091e-05
-0.000110581
5.91078e-05
-8.40754e-05
7.96547e-05
-6.19795e-05
9.48176e-05
-4.5773e-05
0.000106648
-3.57622e-05
0.000115723
-2.73996e-05
0.000124974
-2.8018e-05
-1.91859e-05
-3.05992e-06
1.22054e-05
-6.79554e-06
1.49849e-05
-9.49861e-06
1.0985e-05
-1.1974e-05
1.00403e-05
-1.42973e-05
9.44166e-06
-1.6973e-05
1.0845e-05
-2.04115e-05
1.39372e-05
-2.52456e-05
1.95595e-05
-3.22122e-05
2.81605e-05
-4.20479e-05
3.97132e-05
-5.51331e-05
5.28044e-05
-7.11212e-05
6.45052e-05
-8.87629e-05
7.11976e-05
-0.000106242
7.05952e-05
-0.000121887
6.32781e-05
-0.000134752
5.21475e-05
-0.000144595
4.00188e-05
-0.000151426
2.79385e-05
-0.000155118
1.53451e-05
-0.000155333
1.40685e-06
-0.000151736
-1.38611e-05
-0.00014425
-2.9383e-05
-0.000132743
-4.54632e-05
-0.000114797
-7.13066e-05
-8.58486e-05
-0.000115357
-4.59802e-05
-0.00015927
-3.41928e-06
-0.000170807
3.30879e-05
-0.000147089
6.07939e-05
-0.000111781
8.11608e-05
-8.23464e-05
9.61614e-05
-6.07737e-05
0.000107843
-4.74442e-05
0.0001168
-3.63559e-05
0.000125928
-3.71465e-05
-2.54701e-05
-3.07291e-06
1.52784e-05
-6.79212e-06
1.87041e-05
-9.44958e-06
1.36424e-05
-1.18808e-05
1.24715e-05
-1.41652e-05
1.17261e-05
-1.67978e-05
1.34776e-05
-2.01854e-05
1.73247e-05
-2.49542e-05
2.43283e-05
-3.18374e-05
3.50438e-05
-4.15681e-05
4.94439e-05
-5.45259e-05
6.57622e-05
-7.0363e-05
8.03423e-05
-8.7831e-05
8.86656e-05
-0.000105119
8.78828e-05
-0.000120567
7.87264e-05
-0.000133243
6.48233e-05
-0.000142908
4.96838e-05
-0.000149576
3.46065e-05
-0.000153115
1.8884e-05
-0.000153186
1.47772e-06
-0.000149449
-1.75983e-05
-0.000141829
-3.70027e-05
-0.000130196
-5.70961e-05
-0.000112122
-8.93805e-05
-8.30561e-05
-0.000144423
-4.31564e-05
-0.00019917
-7.52996e-07
-0.000213211
3.5493e-05
-0.000183335
6.29673e-05
-0.000139256
8.31129e-05
-0.000102492
9.79109e-05
-7.55717e-05
0.000109405
-5.89381e-05
0.00011821
-4.51611e-05
0.00012718
-4.61161e-05
-3.16423e-05
-3.09098e-06
1.83693e-05
-6.78848e-06
2.24016e-05
-9.38854e-06
1.62425e-05
-1.17646e-05
1.48476e-05
-1.40007e-05
1.39622e-05
-1.65799e-05
1.60567e-05
-1.99041e-05
2.06491e-05
-2.45918e-05
2.9016e-05
-3.13714e-05
4.18235e-05
-4.09721e-05
5.90445e-05
-5.37719e-05
7.8562e-05
-6.94226e-05
9.5993e-05
-8.66774e-05
0.00010592
-0.000103732
0.000104938
-0.000118943
9.39372e-05
-0.000131391
7.72716e-05
-0.000140847
5.91393e-05
-0.000147324
4.10831e-05
-0.000150686
2.22462e-05
-0.000150592
1.38383e-06
-0.000146698
-2.14929e-05
-0.000138931
-4.47692e-05
-0.000127166
-6.88612e-05
-0.000108963
-0.000107584
-7.97751e-05
-0.00017361
-3.98416e-05
-0.000239103
2.3901e-06
-0.000255442
3.83506e-05
-0.000219295
6.55712e-05
-0.000166476
8.54676e-05
-0.000122389
0.000100032
-9.01366e-05
0.000111306
-7.02119e-05
0.000119933
-5.37876e-05
0.000128712
-5.48954e-05
-3.768e-05
-3.11576e-06
2.14851e-05
-6.78501e-06
2.60709e-05
-9.31565e-06
1.87731e-05
-1.16257e-05
1.71576e-05
-1.38044e-05
1.61409e-05
-1.63198e-05
1.85722e-05
-1.95686e-05
2.38979e-05
-2.41596e-05
3.36069e-05
-3.08159e-05
4.84799e-05
-4.02619e-05
6.84904e-05
-5.28742e-05
9.11744e-05
-6.83045e-05
0.000111423
-8.53089e-05
0.000122925
-0.000102093
0.000121722
-0.00011703
0.000108875
-0.00012922
8.94609e-05
-0.00013844
6.83592e-05
-0.000144704
4.73473e-05
-0.000147873
2.54155e-05
-0.000147602
1.11274e-06
-0.000143541
-2.55539e-05
-0.000135624
-5.26864e-05
-0.000123731
-8.07547e-05
-0.000105407
-0.000125907
-7.61048e-05
-0.000202912
-3.61398e-05
-0.000279068
5.91529e-06
-0.000297497
4.15844e-05
-0.000254965
6.85435e-05
-0.000193436
8.81756e-05
-0.000142021
0.000102487
-0.000104448
0.000113517
-8.12418e-05
0.000121943
-6.22133e-05
0.000130505
-6.34576e-05
-4.35643e-05
-3.14967e-06
2.46348e-05
-6.78219e-06
2.97034e-05
-9.23109e-06
2.1222e-05
-1.14644e-05
1.93909e-05
-1.35766e-05
1.82532e-05
-1.60185e-05
2.1014e-05
-1.91799e-05
2.70594e-05
-2.36589e-05
3.8086e-05
-3.01725e-05
5.49935e-05
-3.94398e-05
7.77577e-05
-5.18363e-05
0.000103571
-6.70141e-05
0.000126601
-8.37339e-05
0.000139644
-0.000100214
0.000138201
-0.000114847
0.000123508
-0.000126752
0.000101366
-0.000135717
7.73242e-05
-0.000141755
5.33858e-05
-0.000144723
2.8383e-05
-0.00014427
6.59587e-07
-0.000140041
-2.97827e-05
-0.000131977
-6.07503e-05
-0.000119968
-9.27645e-05
-0.00010154
-0.000144335
-7.21356e-05
-0.000232317
-3.21465e-05
-0.000319057
9.73334e-06
-0.000339376
4.51195e-05
-0.000290351
7.18207e-05
-0.000220137
9.11849e-05
-0.000161385
0.000105233
-0.000118496
0.000116003
-9.20121e-05
0.000124212
-7.04221e-05
0.000132536
-7.17813e-05
-4.92794e-05
-3.19646e-06
2.78312e-05
-6.78058e-06
3.32875e-05
-9.13502e-06
2.35765e-05
-1.12808e-05
2.15367e-05
-1.33181e-05
2.02905e-05
-1.56767e-05
2.33727e-05
-1.87392e-05
3.01219e-05
-2.30914e-05
4.24382e-05
-2.94433e-05
6.13455e-05
-3.85087e-05
8.6823e-05
-5.06621e-05
0.000115724
-6.55572e-05
0.000141496
-8.19612e-05
0.000156049
-9.8107e-05
0.000154347
-0.000112411
0.000137812
-0.000124013
0.000112968
-0.000132711
8.60223e-05
-0.000138518
5.91923e-05
-0.000141282
3.11474e-05
-0.000140649
2.62182e-08
-0.000136257
-3.41745e-05
-0.000128056
-6.89513e-05
-0.000115947
-0.000104873
-9.74374e-05
-0.000162844
-6.79449e-05
-0.000261809
-2.79418e-05
-0.00035906
1.3766e-05
-0.000381084
4.88865e-05
-0.000325472
7.53412e-05
-0.000246592
9.44428e-05
-0.000180487
0.000108226
-0.00013228
0.000118729
-0.000102515
0.000126711
-7.84038e-05
0.00013478
-7.98505e-05
-5.48134e-05
-3.26186e-06
3.10931e-05
-6.78079e-06
3.68065e-05
-9.02759e-06
2.58233e-05
-1.10753e-05
2.35844e-05
-1.30294e-05
2.22447e-05
-1.52956e-05
2.56388e-05
-1.82479e-05
3.30742e-05
-2.24587e-05
4.66491e-05
-2.86306e-05
6.75175e-05
-3.74717e-05
9.5664e-05
-4.9356e-05
0.000127609
-6.39403e-05
0.00015608
-8.00008e-05
0.000172109
-9.57878e-05
0.000170134
-0.000109743
0.000151767
-0.00012103
0.000124254
-0.000129455
9.44479e-05
-0.00013503
6.4767e-05
-0.000137596
3.37128e-05
-0.000136789
-7.80293e-07
-0.000132244
-3.872e-05
-0.000123919
-7.72761e-05
-0.000111731
-0.000117061
-9.31609e-05
-0.000181414
-6.35942e-05
-0.000291376
-2.35892e-05
-0.000399065
1.7949e-05
-0.000422622
5.28244e-05
-0.000360347
7.90482e-05
-0.000272815
9.78988e-05
-0.000199338
0.000111422
-0.000145803
0.000121657
-0.00011275
0.000129407
-8.61536e-05
0.00013721
-8.76544e-05
-6.01581e-05
-3.35498e-06
3.44481e-05
-6.78351e-06
4.0235e-05
-8.90886e-06
2.79487e-05
-1.08481e-05
2.55236e-05
-1.27114e-05
2.4108e-05
-1.48762e-05
2.78035e-05
-1.77074e-05
3.59055e-05
-2.17629e-05
5.07045e-05
-2.7737e-05
7.34916e-05
-3.6332e-05
0.000104259
-4.79227e-05
0.000139199
-6.21704e-05
0.000170328
-7.78628e-05
0.000187801
-9.32708e-05
0.000185542
-0.000106864
0.000165361
-0.000117829
0.000135218
-0.000125983
0.000102602
-0.000131331
7.0116e-05
-0.000133708
3.60892e-05
-0.000132739
-1.74891e-06
-0.000128052
-4.34072e-05
-0.000119618
-8.57103e-05
-0.000107371
-0.000129309
-8.87605e-05
-0.000200024
-5.91305e-05
-0.000321006
-1.91357e-05
-0.000439059
2.22325e-05
-0.00046399
5.68825e-05
-0.000394997
8.28917e-05
-0.000298825
0.000101506
-0.000217952
0.000114779
-0.000159076
0.00012475
-0.000122721
0.000132268
-9.36712e-05
0.000139801
-9.51872e-05
-6.53086e-05
-3.49045e-06
3.79385e-05
-6.78948e-06
4.35341e-05
-8.77879e-06
2.9938e-05
-1.05996e-05
2.73444e-05
-1.23648e-05
2.58733e-05
-1.44198e-05
2.98585e-05
-1.71196e-05
3.86054e-05
-2.1006e-05
5.4591e-05
-2.67652e-05
7.92508e-05
-3.50935e-05
0.000112587
-4.63673e-05
0.000150473
-6.02548e-05
0.000184215
-7.55581e-05
0.000203105
-9.05713e-05
0.000200555
-0.000103794
0.000178583
-0.000114436
0.00014586
-0.000122324
0.000110489
-0.000127458
7.52497e-05
-0.000129658
3.82896e-05
-0.000128541
-2.86589e-06
-0.000123726
-4.82229e-05
-0.000115196
-9.42399e-05
-0.000102907
-0.000141598
-8.42744e-05
-0.000218656
-5.45875e-05
-0.000350692
-1.46144e-05
-0.000479032
2.65795e-05
-0.000505183
6.10203e-05
-0.000429438
8.6829e-05
-0.000324633
0.000105221
-0.000236344
0.000118257
-0.000172112
0.000127973
-0.000132436
0.000135262
-0.000100961
0.000142522
-0.000102448
-7.02632e-05
-3.69278e-06
4.16313e-05
-6.79955e-06
4.66408e-05
-8.63713e-06
3.17755e-05
-1.03299e-05
2.90372e-05
-1.19905e-05
2.75338e-05
-1.39277e-05
3.17957e-05
-1.64861e-05
4.11638e-05
-2.01905e-05
5.82954e-05
-2.57181e-05
8.47785e-05
-3.37599e-05
0.000120629
-4.46952e-05
0.000161409
-5.82013e-05
0.000197721
-7.30975e-05
0.000218001
-8.77045e-05
0.000215162
-0.000100553
0.000191432
-0.000110877
0.000156184
-0.000118509
0.000118121
-0.000123442
8.01827e-05
-0.000125482
4.03301e-05
-0.000124232
-4.11609e-06
-0.000119301
-5.31542e-05
-0.000110688
-0.000102853
-9.83724e-05
-0.000153914
-7.97305e-05
-0.000237298
-4.99892e-05
-0.000380434
-1.00478e-05
-0.000518973
3.09644e-05
-0.000546195
6.5207e-05
-0.000463681
9.08253e-05
-0.000350252
0.000109008
-0.000254527
0.00012182
-0.000184924
0.000131291
-0.000141908
0.000138359
-0.000108028
0.000145349
-0.000109438
-7.5023e-05
-4.00581e-06
4.56371e-05
-6.81472e-06
4.94497e-05
-8.48333e-06
3.34442e-05
-1.00393e-05
3.05932e-05
-1.15893e-05
2.90838e-05
-1.34014e-05
3.36079e-05
-1.5809e-05
4.35713e-05
-1.93188e-05
6.18052e-05
-2.4599e-05
9.00588e-05
-3.23355e-05
0.000128365
-4.29121e-05
0.000171985
-5.60176e-05
0.000210827
-7.04921e-05
0.000232475
-8.46854e-05
0.000229356
-9.71607e-05
0.000203907
-0.000107174
0.000166197
-0.000114565
0.000125512
-0.000119314
8.4932e-05
-0.000121212
4.22282e-05
-0.000119844
-5.48403e-06
-0.00011481
-5.81893e-05
-0.000106123
-0.000111539
-9.37915e-05
-0.000166246
-7.5149e-05
-0.00025594
-4.53517e-05
-0.000410231
-5.45071e-06
-0.000558874
3.53698e-05
-0.000587015
6.942e-05
-0.000497731
9.48526e-05
-0.000375684
0.000112836
-0.000272511
0.000125435
-0.000197522
0.000134674
-0.000151147
0.000141528
-0.000114882
0.000148254
-0.000116164
-7.95914e-05
-4.51061e-06
5.01478e-05
-6.83431e-06
5.17734e-05
-8.31676e-06
3.49266e-05
-9.72767e-06
3.20041e-05
-1.11622e-05
3.05183e-05
-1.28423e-05
3.5288e-05
-1.50903e-05
4.58193e-05
-1.83933e-05
6.51082e-05
-2.34112e-05
9.50768e-05
-3.08246e-05
0.000135779
-4.10238e-05
0.000182185
-5.37123e-05
0.000223515
-6.77537e-05
0.000246517
-8.15291e-05
0.000243131
-9.36355e-05
0.000216014
-0.000103351
0.000175913
-0.000110516
0.000132677
-0.000115101
8.95163e-05
-0.000116875
4.40022e-05
-0.000115404
-6.95499e-06
-0.000110275
-6.33181e-05
-0.000101524
-0.00012029
-8.91836e-05
-0.000178586
-7.0543e-05
-0.000274581
-4.06838e-05
-0.00044009
-8.32504e-07
-0.000598725
3.97832e-05
-0.000627631
7.36419e-05
-0.00053159
9.88886e-05
-0.000400931
0.000116678
-0.0002903
0.000129073
-0.000209918
0.000138092
-0.000160166
0.000144742
-0.000121532
0.000151212
-0.000122634
-8.39716e-05
0.000188708
2.34169e-06
0.000188326
6.47217e-06
0.000187735
9.99027e-06
0.000186964
1.30507e-05
0.000186019
1.59835e-05
0.000184897
1.90101e-05
0.000183583
2.22771e-05
0.000182056
2.59319e-05
0.000180283
3.01515e-05
0.000178222
3.51407e-05
0.000175814
4.12028e-05
0.000172984
4.86981e-05
0.000169622
5.8282e-05
0.000165594
7.0677e-05
0.00016069
8.74697e-05
0.000154704
0.00011036
0.000147175
0.000143101
0.000138103
0.000191324
0.000126031
0.00026047
0.000113545
0.00038123
9.09925e-05
0.000537558
0.00100411
7.3658e-05
0.00019217
2.48242e-06
0.00019178
6.86162e-06
0.000191179
1.05917e-05
0.000190394
1.38359e-05
0.000189432
1.69446e-05
0.00018829
2.01522e-05
0.000186954
2.3614e-05
0.0001854
2.74856e-05
0.000183597
3.19542e-05
0.000181502
3.72353e-05
0.000179057
4.36482e-05
0.000176185
5.15701e-05
0.000172779
6.16881e-05
0.000168708
7.47479e-05
0.000163767
9.24106e-05
0.000157772
0.000116355
0.000150282
0.000150591
0.000141435
0.000200171
0.000129754
0.000272151
0.000119364
0.00039162
0.000102929
0.000553993
0.000996475
0.000110567
0.000195694
2.62582e-06
0.000195298
7.25816e-06
0.000194686
1.12038e-05
0.000193886
1.46351e-05
0.000192908
1.79227e-05
0.000191746
2.13144e-05
0.000190386
2.49741e-05
0.000188806
2.9066e-05
0.000186973
3.3787e-05
0.000184844
3.93638e-05
0.000182361
4.61312e-05
0.000179448
5.44833e-05
0.000175999
6.51374e-05
0.000171886
7.88605e-05
0.000166913
9.73839e-05
0.000160915
0.000122354
0.00015348
0.000158026
0.000144872
0.000208778
0.000133665
0.000283358
0.000125118
0.000400167
0.000113905
0.000565207
0.000976666
0.000133715
0.000199284
2.77191e-06
0.00019888
7.66192e-06
0.000198257
1.18269e-05
0.000197443
1.54486e-05
0.000196448
1.89181e-05
0.000195265
2.2497e-05
0.000193882
2.63578e-05
0.000192274
3.06733e-05
0.000190411
3.56503e-05
0.000188248
4.15265e-05
0.000185728
4.8652e-05
0.000182774
5.74373e-05
0.000179282
6.86288e-05
0.00017513
8.30128e-05
0.000170128
0.000102385
0.000164134
0.000128348
0.000156769
0.00016539
0.000148414
0.000217133
0.000137765
0.000294007
0.000130645
0.000407287
0.000124078
0.000571773
0.000950372
0.000150372
0.000202939
2.92076e-06
0.000202528
8.07304e-06
0.000201894
1.24611e-05
0.000201066
1.62766e-05
0.000200053
1.99312e-05
0.000198849
2.37003e-05
0.000197442
2.77654e-05
0.000195807
3.23078e-05
0.000193913
3.75444e-05
0.000191716
4.37235e-05
0.000189158
5.12105e-05
0.000186163
6.04318e-05
0.000182631
7.21613e-05
0.000178441
8.72026e-05
0.000173415
0.000107411
0.000167432
0.000134332
0.000160153
0.000172669
0.000152058
0.000225228
0.000142044
0.000304021
0.000136013
0.000413318
0.000133568
0.000574219
0.000920674
0.000163267
0.000206661
3.07242e-06
0.000206243
8.49162e-06
0.000205597
1.31066e-05
0.000204755
1.71192e-05
0.000203724
2.09621e-05
0.000202499
2.49246e-05
0.000201068
2.91972e-05
0.000199406
3.39699e-05
0.00019748
3.94694e-05
0.000195249
4.5955e-05
0.000192653
5.38067e-05
0.000189618
6.34663e-05
0.000186046
7.57339e-05
0.000181821
9.14278e-05
0.000176776
0.000112456
0.00017081
0.000140298
0.000163634
0.000179845
0.000155803
0.000233059
0.000146493
0.000313331
0.000141323
0.000418487
0.000142368
0.000573174
0.000889034
0.000174008
0.000210452
3.22693e-06
0.000210026
8.91779e-06
0.000209369
1.37636e-05
0.000208511
1.79768e-05
0.000207462
2.20111e-05
0.000206217
2.61702e-05
0.00020476
3.06534e-05
0.00020307
3.56597e-05
0.000201114
4.14256e-05
0.000198848
4.82211e-05
0.000196214
5.64405e-05
0.00019314
6.65404e-05
0.000189529
7.93453e-05
0.000185271
9.56858e-05
0.000180212
0.000117515
0.000174271
0.000146239
0.000167214
0.000186901
0.00015965
0.000240623
0.000151096
0.000321885
0.00014663
0.000422953
0.000150483
0.000569321
0.000856194
0.000183323
0.000214312
3.38436e-06
0.000213878
9.35169e-06
0.000213209
1.44322e-05
0.000212337
1.88495e-05
0.000211269
2.30785e-05
0.000210002
2.74373e-05
0.000208521
3.21345e-05
0.000206803
3.73777e-05
0.000204815
4.34133e-05
0.000202515
5.05218e-05
0.000199843
5.91117e-05
0.00019673
6.96535e-05
0.000193082
8.29941e-05
0.000188793
9.99742e-05
0.000183725
0.000122583
0.000177816
0.000152148
0.000170895
0.000193823
0.000163599
0.000247918
0.000155836
0.000329649
0.000151969
0.000426819
0.000157974
0.000563317
0.000822683
0.000191485
0.000218243
3.54475e-06
0.000217801
9.79344e-06
0.000217121
1.51127e-05
0.000216233
1.97376e-05
0.000215147
2.41646e-05
0.000213858
2.87263e-05
0.000212351
3.36407e-05
0.000210605
3.91241e-05
0.000208586
4.54327e-05
0.00020625
5.28574e-05
0.000203542
6.18201e-05
0.00020039
7.28049e-05
0.000196705
8.66789e-05
0.00019239
0.00010429
0.000187317
0.000127656
0.000181448
0.000158017
0.000174677
0.000200593
0.000167653
0.000254942
0.000160695
0.000336607
0.000157372
0.000430142
0.000164925
0.000555764
0.000788993
0.000198615
0.000222246
3.70815e-06
0.000221796
1.02432e-05
0.000221104
1.58051e-05
0.0002202
2.06413e-05
0.000219095
2.52696e-05
0.000217784
3.00374e-05
0.000216252
3.51722e-05
0.000214477
4.0899e-05
0.000212426
4.74839e-05
0.000210056
5.52278e-05
0.00020731
6.45656e-05
0.000204121
7.5994e-05
0.000200402
9.03981e-05
0.000196062
0.00010863
0.000190991
0.000132727
0.000185168
0.000163839
0.000178562
0.000207199
0.000171814
0.000261691
0.000165656
0.000342765
0.000162868
0.000432931
0.000171434
0.000547198
0.000755605
0.000204822
0.000226323
3.87463e-06
0.000225865
1.0701e-05
0.00022516
1.65098e-05
0.00022424
2.15609e-05
0.000223116
2.63937e-05
0.000221783
3.13709e-05
0.000220226
3.67293e-05
0.000218422
4.27029e-05
0.000216339
4.95671e-05
0.000213933
5.7633e-05
0.000211151
6.73478e-05
0.000207925
7.92199e-05
0.000204173
9.41499e-05
0.000199811
0.000112992
0.000194747
0.000137791
0.00018898
0.000169607
0.000182552
0.000213627
0.000176084
0.000268158
0.000170705
0.000348145
0.000168473
0.000435162
0.000177605
0.000538066
0.000722974
0.000210235
0.000230474
4.04424e-06
0.000230008
1.11671e-05
0.000229291
1.72269e-05
0.000228355
2.24965e-05
0.000227211
2.75373e-05
0.000225855
3.27272e-05
0.000224272
3.83124e-05
0.000222439
4.45359e-05
0.000220324
5.16824e-05
0.000217884
6.0073e-05
0.000215065
7.01664e-05
0.000211803
8.24817e-05
0.000208021
9.79325e-05
0.00020364
0.000117373
0.000198589
0.000142843
0.000192884
0.000175312
0.000186645
0.000219866
0.000180467
0.000274336
0.000175828
0.000352784
0.000174194
0.000436796
0.000183546
0.000528714
0.000691502
0.000215018
0.000234701
4.21703e-06
0.000234227
1.16416e-05
0.000233497
1.79566e-05
0.000232545
2.34484e-05
0.000231382
2.87006e-05
0.000230003
3.41064e-05
0.000228393
3.99217e-05
0.000226531
4.63982e-05
0.000224383
5.38301e-05
0.000221909
6.25477e-05
0.000219054
7.30209e-05
0.000215757
8.57785e-05
0.000211946
0.000101744
0.000207551
0.000121768
0.000202518
0.000147876
0.000196883
0.000180946
0.000190843
0.000225906
0.000184964
0.000280215
0.000181018
0.00035673
0.000180024
0.00043779
0.000189355
0.000519383
0.000661506
0.000219351
0.000239006
4.39306e-06
0.000238523
1.21246e-05
0.000237781
1.8699e-05
0.000236812
2.44169e-05
0.000235629
2.98839e-05
0.000234227
3.55088e-05
0.000232591
4.15575e-05
0.000230699
4.82901e-05
0.000228519
5.60101e-05
0.00022601
6.50571e-05
0.00022312
7.59109e-05
0.000219789
8.91091e-05
0.000215951
0.000105582
0.000211544
0.000126174
0.000206535
0.000152885
0.000200979
0.000186502
0.000195147
0.000231739
0.000189578
0.000285784
0.00018627
0.000360039
0.00018595
0.00043811
0.000195116
0.000510217
0.000633206
0.000223417
0.00024339
4.57239e-06
0.000242899
1.26162e-05
0.000242143
1.94544e-05
0.000241158
2.54021e-05
0.000239954
3.10874e-05
0.000238529
3.69348e-05
0.000236866
4.32199e-05
0.000234944
5.02117e-05
0.000232732
5.82226e-05
0.000230188
6.76009e-05
0.000227263
7.88359e-05
0.0002239
9.24723e-05
0.000220037
0.000109445
0.000215623
0.000130588
0.000210644
0.000157864
0.000205175
0.000191971
0.000199556
0.000237357
0.00019431
0.00029103
0.000191583
0.000362765
0.000191953
0.00043774
0.000200891
0.000501279
0.000606721
0.000227375
0.000247855
4.75508e-06
0.000247354
1.31166e-05
0.000246586
2.02229e-05
0.000245583
2.64044e-05
0.000244359
3.23114e-05
0.00024291
3.83846e-05
0.00024122
4.49093e-05
0.000239269
5.21632e-05
0.000237024
6.04675e-05
0.000234446
7.0179e-05
0.000231487
8.17952e-05
0.000228092
9.5867e-05
0.000224207
0.00011333
0.000219789
0.000135006
0.000214846
0.000162807
0.000209472
0.000197345
0.000204073
0.000242757
0.000199159
0.000295944
0.00019696
0.000364965
0.000198015
0.000436684
0.000206718
0.000492577
0.000582125
0.000231314
0.000252401
4.94119e-06
0.000251892
1.3626e-05
0.00025111
2.10047e-05
0.00025009
2.74238e-05
0.000248846