/*--------------------------------*- C++ -*----------------------------------*\
| =========                 |                                                 |
| \\      /  F ield         | OpenFOAM: The Open Source CFD Toolbox           |
|  \\    /   O peration     | Version:  v1912                                 |
|   \\  /    A nd           | Website:  www.openfoam.com                      |
|    \\/     M anipulation  |                                                 |
\*---------------------------------------------------------------------------*/
FoamFile
{
    version     2.0;
    format      ascii;
    class       volVectorField;
    location    "3500";
    object      U;
}
// * * * * * * * * * * * * * * * * * * * * * * * * * * * * * * * * * * * * * //

dimensions      [0 1 -1 0 0 0 0];


internalField   nonuniform List<vector> 
12405
(
(29.9954 0.000122853 0)
(29.9549 0.000382012 0)
(29.8767 0.000664915 0)
(29.7681 0.000976048 0)
(29.6322 0.00134421 0)
(29.4685 0.00179882 0)
(29.2754 0.00237228 0)
(29.05 0.00310852 0)
(28.7878 0.00407023 0)
(28.4824 0.00534421 0)
(28.1254 0.0070654 0)
(27.7041 0.00942189 0)
(27.2034 0.0127497 0)
(26.5949 0.0175016 0)
(25.8526 0.0246409 0)
(24.9014 0.0354983 0)
(23.6987 0.0529129 0)
(22.0235 0.082621 0)
(19.7885 0.129464 0)
(16.4573 0.223623 0)
(11.5982 0.334759 0)
(5.28429 0.537362 0)
(29.9954 0.000367168 0)
(29.9549 0.00114387 0)
(29.8767 0.00198998 0)
(29.7681 0.00292243 0)
(29.6322 0.00402529 0)
(29.4685 0.00538621 0)
(29.2754 0.00710237 0)
(29.05 0.00930496 0)
(28.7879 0.0121807 0)
(28.4825 0.015989 0)
(28.1256 0.0211303 0)
(27.7043 0.0281684 0)
(27.2038 0.0380915 0)
(26.5955 0.0522746 0)
(25.8537 0.0734946 0)
(24.9033 0.105916 0)
(23.7024 0.157389 0)
(22.03 0.246333 0)
(19.8028 0.384174 0)
(16.4779 0.666996 0)
(11.6345 0.996749 0)
(5.31317 1.59766 0)
(29.9954 0.000611096 0)
(29.9549 0.00190464 0)
(29.8767 0.00331101 0)
(29.7682 0.00486411 0)
(29.6322 0.00670048 0)
(29.4685 0.00896534 0)
(29.2755 0.0118208 0)
(29.0501 0.0154847 0)
(28.788 0.020267 0)
(28.4827 0.0265984 0)
(28.1259 0.0351412 0)
(27.7048 0.0468353 0)
(27.2045 0.0633005 0)
(26.5968 0.0868575 0)
(25.8559 0.12197 0)
(24.907 0.175848 0)
(23.7096 0.260608 0)
(22.0426 0.408716 0)
(19.8303 0.634853 0)
(16.5196 1.10731 0)
(11.7153 1.6517 0)
(5.37765 2.65545 0)
(29.9954 0.000856556 0)
(29.9549 0.00266725 0)
(29.8767 0.00463416 0)
(29.7682 0.00680846 0)
(29.6323 0.00937922 0)
(29.4686 0.0125493 0)
(29.2755 0.0165458 0)
(29.0502 0.0216739 0)
(28.7882 0.0283663 0)
(28.483 0.0372265 0)
(28.1263 0.0491787 0)
(27.7055 0.0655404 0)
(27.2056 0.0885642 0)
(26.5986 0.121516 0)
(25.859 0.170555 0)
(24.9126 0.245901 0)
(23.7202 0.364015 0)
(22.0612 0.571057 0)
(19.8715 0.885589 0)
(16.5822 1.54706 0)
(11.8402 2.3061 0)
(5.47746 3.73711 0)
(29.9954 0.00110228 0)
(29.9549 0.00343015 0)
(29.8767 0.00595786 0)
(29.7682 0.00875342 0)
(29.6323 0.0120587 0)
(29.4686 0.0161341 0)
(29.2756 0.0212719 0)
(29.0504 0.0278642 0)
(28.7884 0.0364669 0)
(28.4833 0.0478555 0)
(28.1269 0.0632159 0)
(27.7064 0.0842416 0)
(27.2071 0.113817 0)
(26.6011 0.156142 0)
(25.8633 0.219072 0)
(24.9199 0.315745 0)
(23.7343 0.467058 0)
(22.086 0.732131 0)
(19.9262 1.13445 0)
(16.6654 1.98201 0)
(12.0099 2.95581 0)
(5.61369 4.84366 0)
(29.9954 0.00134791 0)
(29.9549 0.00419289 0)
(29.8767 0.00728138 0)
(29.7682 0.0106981 0)
(29.6323 0.0147376 0)
(29.4687 0.0197181 0)
(29.2758 0.0259967 0)
(29.0506 0.0340522 0)
(28.7887 0.0445636 0)
(28.4838 0.0584776 0)
(28.1276 0.0772411 0)
(27.7075 0.102921 0)
(27.209 0.139028 0)
(26.6041 0.190686 0)
(25.8685 0.267431 0)
(24.929 0.385219 0)
(23.7519 0.569413 0)
(22.1167 0.891292 0)
(19.9942 1.3801 0)
(16.7688 2.40987 0)
(12.2262 3.5983 0)
(5.78786 5.97632 0)
(29.9954 0.00159346 0)
(29.9549 0.00495548 0)
(29.8767 0.00860467 0)
(29.7683 0.0126424 0)
(29.6324 0.0174159 0)
(29.4688 0.0233011 0)
(29.2759 0.0307198 0)
(29.0508 0.0402374 0)
(28.7891 0.0526556 0)
(28.4843 0.0690917 0)
(28.1285 0.091252 0)
(27.7089 0.121574 0)
(27.2112 0.164191 0)
(26.6078 0.225131 0)
(25.8748 0.315599 0)
(24.94 0.454251 0)
(23.7729 0.670923 0)
(22.1533 1.04817 0)
(20.0754 1.62181 0)
(16.8922 2.82924 0)
(12.4916 4.23246 0)
(6.00201 7.14032 0)
(29.9954 0.00183896 0)
(29.955 0.00571796 0)
(29.8768 0.00992777 0)
(29.7683 0.0145863 0)
(29.6325 0.0200936 0)
(29.4689 0.0268831 0)
(29.2761 0.0354411 0)
(29.0511 0.0464198 0)
(28.7895 0.0607426 0)
(28.485 0.079697 0)
(28.1295 0.105247 0)
(27.7105 0.140197 0)
(27.2138 0.189298 0)
(26.6121 0.259465 0)
(25.8821 0.363548 0)
(24.9527 0.522775 0)
(23.7971 0.771452 0)
(22.1957 1.20239 0)
(20.1693 1.85894 0)
(17.0353 3.23852 0)
(12.8096 4.85707 0)
(6.25884 8.34235 0)
(29.9954 0.00208442 0)
(29.955 0.00648032 0)
(29.8768 0.0112506 0)
(29.7683 0.0165298 0)
(29.6325 0.0227706 0)
(29.469 0.0304639 0)
(29.2763 0.0401606 0)
(29.0514 0.0525988 0)
(28.7899 0.0688239 0)
(28.4857 0.0902921 0)
(28.1306 0.119224 0)
(27.7123 0.158787 0)
(27.2167 0.214341 0)
(26.6169 0.29367 0)
(25.8904 0.411246 0)
(24.9671 0.590717 0)
(23.8246 0.870858 0)
(22.2438 1.35357 0)
(20.2756 2.09083 0)
(17.1976 3.63575 0)
(13.1845 5.47039 0)
(6.56173 9.58929 0)
(29.9954 0.00232982 0)
(29.955 0.00724253 0)
(29.8768 0.0125733 0)
(29.7684 0.0184729 0)
(29.6326 0.0254469 0)
(29.4692 0.0340435 0)
(29.2765 0.0448779 0)
(29.0517 0.0587741 0)
(28.7905 0.0768987 0)
(28.4866 0.100876 0)
(28.1319 0.13318 0)
(27.7144 0.177338 0)
(27.22 0.239312 0)
(26.6224 0.327731 0)
(25.8997 0.458658 0)
(24.9832 0.658007 0)
(23.8551 0.968998 0)
(22.2972 1.50135 0)
(20.3937 2.31683 0)
(17.3788 4.01864 0)
(13.6216 6.07032 0)
(6.91473 10.8884 0)
(29.9954 0.00257516 0)
(29.955 0.00800458 0)
(29.8768 0.0138956 0)
(29.7684 0.0204156 0)
(29.6327 0.0281223 0)
(29.4693 0.0376216 0)
(29.2767 0.0495927 0)
(29.0521 0.0649453 0)
(28.7911 0.0849662 0)
(28.4875 0.111447 0)
(28.1334 0.147113 0)
(27.7167 0.195847 0)
(27.2237 0.264202 0)
(26.6284 0.36163 0)
(25.91 0.505754 0)
(25.001 0.724576 0)
(23.8886 1.06574 0)
(22.356 1.64537 0)
(20.5231 2.53634 0)
(17.578 4.38459 0)
(14.1269 6.65441 0)
(7.32261 12.2478 0)
(29.9954 0.00282045 0)
(29.955 0.00876647 0)
(29.8769 0.0152177 0)
(29.7685 0.0223576 0)
(29.6328 0.0307968 0)
(29.4695 0.0411981 0)
(29.277 0.0543049 0)
(29.0525 0.0711118 0)
(28.7917 0.0930257 0)
(28.4885 0.122003 0)
(28.135 0.16102 0)
(27.7191 0.214309 0)
(27.2277 0.289003 0)
(26.635 0.395353 0)
(25.9212 0.552502 0)
(25.0205 0.79036 0)
(23.925 1.16095 0)
(22.4197 1.78528 0)
(20.663 2.74881 0)
(17.7946 4.7306 0)
(14.7079 7.21972 0)
(7.791 13.6764 0)
(29.9954 0.00306566 0)
(29.955 0.00952817 0)
(29.8769 0.0165394 0)
(29.7686 0.0242991 0)
(29.6329 0.0334703 0)
(29.4697 0.0447729 0)
(29.2773 0.059014 0)
(29.053 0.0772733 0)
(28.7924 0.101076 0)
(28.4896 0.132545 0)
(28.1367 0.1749 0)
(27.7219 0.23272 0)
(27.232 0.313708 0)
(26.6422 0.428884 0)
(25.9334 0.598872 0)
(25.0415 0.855297 0)
(23.9641 1.25452 0)
(22.4883 1.92077 0)
(20.8126 2.95374 0)
(18.0275 5.05321 0)
(15.3733 7.76303 0)
(8.32531 15.1841 0)
(29.9954 0.00331071 0)
(29.955 0.0102895 0)
(29.8769 0.0178607 0)
(29.7686 0.0262397 0)
(29.6331 0.0361424 0)
(29.4699 0.0483454 0)
(29.2776 0.0637195 0)
(29.0535 0.0834286 0)
(28.7932 0.109117 0)
(28.4908 0.143068 0)
(28.1385 0.188748 0)
(27.7248 0.251073 0)
(27.2367 0.338304 0)
(26.6499 0.462203 0)
(25.9465 0.644828 0)
(25.0641 0.919322 0)
(24.0058 1.34631 0)
(22.5614 2.05155 0)
(20.9709 3.15069 0)
(18.2753 5.34847 0)
(16.1331 8.27884 0)
(8.94447 16.7825 0)
(29.9954 0.00355544 0)
(29.955 0.0110504 0)
(29.877 0.0191813 0)
(29.7687 0.0281794 0)
(29.6332 0.0388128 0)
(29.4701 0.0519154 0)
(29.278 0.0684208 0)
(29.054 0.0895769 0)
(28.794 0.117145 0)
(28.4921 0.153571 0)
(28.1405 0.20256 0)
(27.728 0.26936 0)
(27.2418 0.362781 0)
(26.6582 0.495289 0)
(25.9605 0.690333 0)
(25.0882 0.982363 0)
(24.0499 1.4362 0)
(22.6389 2.17733 0)
(21.1364 3.3393 0)
(18.5363 5.61137 0)
(17.0006 8.76559 0)
(9.5509 18.4418 0)
(-0.141448 0.0282024 0)
(-0.801134 0.0321375 0)
(-1.25221 0.0221634 0)
(-1.64031 0.0186294 0)
(-2.00198 0.0163691 0)
(-2.36321 0.017305 0)
(-2.82074 0.0206732 0)
(-3.42615 0.0268231 0)
(-4.30559 0.0358186 0)
(-5.56786 0.0468222 0)
(-7.32195 0.0577787 0)
(-9.57939 0.0655068 0)
(-12.2155 0.0671123 0)
(-14.9657 0.0617703 0)
(-17.5366 0.0514259 0)
(-19.7255 0.0393941 0)
(-21.4608 0.0281339 0)
(-22.744 0.018325 0)
(-23.5729 0.00949461 0)
(-23.9076 0.00110733 0)
(-23.6834 -0.00679474 0)
(-22.863 -0.0135969 0)
(-21.5048 -0.0196269 0)
(-19.4848 -0.0287941 0)
(-16.09 -0.0433115 0)
(-10.7375 -0.0554762 0)
(-4.16062 -0.0554109 0)
(2.04171 -0.0444514 0)
(6.88375 -0.031374 0)
(10.4482 -0.0214675 0)
(13.0837 -0.0147097 0)
(15.0218 -0.0106792 0)
(16.6775 -0.00756788 0)
(17.7389 -0.00722807 0)
(19.5563 -0.00452937 0)
(-0.141854 0.0844657 0)
(-0.801595 0.0963657 0)
(-1.25131 0.066246 0)
(-1.63746 0.0558787 0)
(-1.99774 0.0489494 0)
(-2.35741 0.0519011 0)
(-2.81323 0.0619336 0)
(-3.41647 0.0804378 0)
(-4.29314 0.107373 0)
(-5.55183 0.140336 0)
(-7.30145 0.173065 0)
(-9.5534 0.1961 0)
(-12.183 0.200804 0)
(-14.9261 0.18475 0)
(-17.4893 0.153739 0)
(-19.6705 0.117697 0)
(-21.3984 0.0839825 0)
(-22.6745 0.0546217 0)
(-23.4968 0.0281792 0)
(-23.8251 0.00306525 0)
(-23.5946 -0.0205842 0)
(-22.768 -0.0410321 0)
(-21.4035 -0.0591674 0)
(-19.377 -0.0865905 0)
(-15.9752 -0.130183 0)
(-10.6178 -0.166816 0)
(-4.04323 -0.16648 0)
(2.14575 -0.133403 0)
(6.97631 -0.0941242 0)
(10.5305 -0.0643922 0)
(13.1565 -0.0441215 0)
(15.0867 -0.0320092 0)
(16.7345 -0.0227103 0)
(17.7917 -0.0216197 0)
(19.6005 -0.0136301 0)
(-0.142693 0.140648 0)
(-0.802535 0.160531 0)
(-1.24952 0.109875 0)
(-1.63176 0.0929864 0)
(-1.98928 0.0812121 0)
(-2.34582 0.0863547 0)
(-2.79824 0.10294 0)
(-3.39715 0.133836 0)
(-4.26828 0.178614 0)
(-5.51986 0.233458 0)
(-7.26061 0.28779 0)
(-9.5018 0.325978 0)
(-12.1188 0.333685 0)
(-14.8476 0.306917 0)
(-17.3955 0.255281 0)
(-19.5613 0.195295 0)
(-21.2745 0.139205 0)
(-22.5369 0.0903768 0)
(-23.3462 0.0463913 0)
(-23.6621 0.00461982 0)
(-23.4194 -0.0347069 0)
(-22.5807 -0.0688569 0)
(-21.2044 -0.0991283 0)
(-19.1658 -0.144654 0)
(-15.751 -0.217325 0)
(-10.3842 -0.278529 0)
(-3.81349 -0.277628 0)
(2.35015 -0.222157 0)
(7.15867 -0.156672 0)
(10.6932 -0.107141 0)
(13.3006 -0.0733977 0)
(15.2155 -0.0532031 0)
(16.8478 -0.0377893 0)
(17.8963 -0.0358656 0)
(19.6881 -0.0227392 0)
(-0.144051 0.197015 0)
(-0.803988 0.224599 0)
(-1.24685 0.15308 0)
(-1.62322 0.129719 0)
(-1.97662 0.113149 0)
(-2.32849 0.120474 0)
(-2.77584 0.143567 0)
(-3.36825 0.186782 0)
(-4.2311 0.249319 0)
(-5.47208 0.325969 0)
(-7.19963 0.401862 0)
(-9.42484 0.455195 0)
(-12.0231 0.46592 0)
(-14.7307 0.428463 0)
(-17.256 0.356239 0)
(-19.3992 0.272356 0)
(-21.091 0.193944 0)
(-22.3334 0.125701 0)
(-23.124 0.0642218 0)
(-23.4221 0.00583539 0)
(-23.1622 -0.0491468 0)
(-22.3065 -0.0969845 0)
(-20.9138 -0.139347 0)
(-18.859 -0.202906 0)
(-15.4271 -0.304582 0)
(-10.0476 -0.390163 0)
(-3.48153 -0.388366 0)
(2.64694 -0.310368 0)
(7.42504 -0.218784 0)
(10.9318 -0.149529 0)
(13.5129 -0.102383 0)
(15.4056 -0.0741573 0)
(17.0154 -0.052695 0)
(18.0514 -0.049948 0)
(19.8182 -0.0317412 0)
(-0.146093 0.253603 0)
(-0.805999 0.288435 0)
(-1.24334 0.195673 0)
(-1.61184 0.165878 0)
(-1.9598 0.144631 0)
(-2.30546 0.154109 0)
(-2.74608 0.183671 0)
(-3.32988 0.239098 0)
(-4.18173 0.319282 0)
(-5.40863 0.41762 0)
(-7.11873 0.51498 0)
(-9.32287 0.583384 0)
(-11.8964 0.597068 0)
(-14.5763 0.5489 0)
(-17.0721 0.456133 0)
(-19.1861 0.348458 0)
(-20.8503 0.247848 0)
(-22.0673 0.160303 0)
(-22.8343 0.0814223 0)
(-23.1102 0.00649418 0)
(-22.829 -0.0640949 0)
(-21.9527 -0.125563 0)
(-20.5405 -0.179959 0)
(-18.4672 -0.261535 0)
(-15.016 -0.392151 0)
(-9.62178 -0.50183 0)
(-3.06077 -0.498686 0)
(3.02541 -0.397966 0)
(7.76738 -0.280401 0)
(11.2403 -0.191487 0)
(13.7887 -0.131008 0)
(15.6535 -0.0948063 0)
(17.2347 -0.0673721 0)
(18.2546 -0.0638166 0)
(19.9892 -0.0405947 0)
(-0.14908 0.310472 0)
(-0.808629 0.351945 0)
(-1.239 0.237453 0)
(-1.59765 0.201302 0)
(-1.93885 0.17552 0)
(-2.2768 0.187131 0)
(-2.70905 0.223106 0)
(-3.28214 0.290615 0)
(-4.12032 0.388301 0)
(-5.32975 0.508169 0)
(-7.01822 0.626858 0)
(-9.19631 0.71021 0)
(-11.7395 0.726761 0)
(-14.3854 0.667855 0)
(-16.8454 0.554618 0)
(-18.9242 0.423302 0)
(-20.5556 0.300673 0)
(-21.7427 0.193984 0)
(-22.4823 0.097829 0)
(-22.7327 0.00646126 0)
(-22.4273 -0.0796618 0)
(-21.528 -0.154683 0)
(-20.0949 -0.221035 0)
(-18.0027 -0.320597 0)
(-14.5319 -0.480096 0)
(-9.12232 -0.613592 0)
(-2.5664 -0.608565 0)
(3.47313 -0.484904 0)
(8.17614 -0.341471 0)
(11.6115 -0.232953 0)
(14.1225 -0.15921 0)
(15.9549 -0.115089 0)
(17.5024 -0.0817741 0)
(18.503 -0.0774174 0)
(20.1989 -0.0492707 0)
(-0.153406 0.367724 0)
(-0.81196 0.415032 0)
(-1.23389 0.278225 0)
(-1.58065 0.235834 0)
(-1.91382 0.205686 0)
(-2.2426 0.21941 0)
(-2.66489 0.261725 0)
(-3.22519 0.341165 0)
(-4.04707 0.456174 0)
(-5.23569 0.597383 0)
(-6.89845 0.737232 0)
(-9.04571 0.83539 0)
(-11.5532 0.854713 0)
(-14.1593 0.785054 0)
(-16.5779 0.651447 0)
(-18.6163 0.496683 0)
(-20.2106 0.352255 0)
(-21.3643 0.226619 0)
(-22.0738 0.113347 0)
(-22.2965 0.00566481 0)
(-21.9655 -0.0958999 0)
(-21.042 -0.184376 0)
(-19.588 -0.262578 0)
(-17.4782 -0.380076 0)
(-13.9892 -0.568407 0)
(-8.56462 -0.725452 0)
(-2.01421 -0.71799 0)
(3.97758 -0.571142 0)
(8.64099 -0.401961 0)
(12.0371 -0.273882 0)
(14.5079 -0.186942 0)
(16.3047 -0.134955 0)
(17.8145 -0.0958608 0)
(18.7932 -0.0907042 0)
(20.4449 -0.0577414 0)
(-0.159688 0.425504 0)
(-0.81609 0.477573 0)
(-1.22802 0.317799 0)
(-1.56087 0.269314 0)
(-1.88478 0.235004 0)
(-2.20295 0.25082 0)
(-2.61371 0.299387 0)
(-3.15921 0.390577 0)
(-3.96221 0.522702 0)
(-5.12675 0.685036 0)
(-6.75986 0.845853 0)
(-8.8717 0.958663 0)
(-11.3383 0.980662 0)
(-13.8995 0.900254 0)
(-16.2717 0.746414 0)
(-18.2656 0.568439 0)
(-19.8194 0.402475 0)
(-20.9374 0.258124 0)
(-21.6151 0.127919 0)
(-21.8092 0.00407014 0)
(-21.452 -0.112827 0)
(-20.5045 -0.214639 0)
(-19.0307 -0.304556 0)
(-16.9058 -0.439923 0)
(-13.4011 -0.657047 0)
(-7.96264 -0.837394 0)
(-1.41886 -0.826958 0)
(4.52673 -0.656682 0)
(9.15156 -0.461866 0)
(12.5083 -0.314256 0)
(14.9378 -0.214172 0)
(16.6971 -0.15437 0)
(18.1664 -0.1096 0)
(19.1212 -0.10364 0)
(20.7242 -0.065982 0)
(-0.168888 0.48401 0)
(-0.821145 0.539401 0)
(-1.22145 0.355975 0)
(-1.53832 0.301585 0)
(-1.8518 0.263357 0)
(-2.15797 0.281236 0)
(-2.55569 0.335955 0)
(-3.0844 0.438689 0)
(-3.86601 0.587693 0)
(-5.00329 0.770905 0)
(-6.60292 0.952479 0)
(-8.67498 1.07978 0)
(-11.0961 1.10437 0)
(-13.6077 1.01324 0)
(-15.9294 0.839341 0)
(-17.8753 0.638437 0)
(-19.3865 0.451247 0)
(-20.4673 0.28845 0)
(-21.1127 0.141524 0)
(-21.2783 0.00167216 0)
(-20.8954 -0.130434 0)
(-19.9248 -0.245442 0)
(-18.4333 -0.346915 0)
(-16.2965 -0.500074 0)
(-12.7792 -0.745975 0)
(-7.32802 -0.949391 0)
(-0.792798 -0.935476 0)
(5.10965 -0.741557 0)
(9.69796 -0.521205 0)
(13.0168 -0.354076 0)
(15.4052 -0.240892 0)
(17.1261 -0.173312 0)
(18.5534 -0.122971 0)
(19.4829 -0.116196 0)
(21.0337 -0.0739727 0)
(-0.182535 0.543504 0)
(-0.827275 0.600284 0)
(-1.21418 0.39255 0)
(-1.513 0.33249 0)
(-1.81493 0.29063 0)
(-2.10778 0.310539 0)
(-2.49099 0.371294 0)
(-3.001 0.48534 0)
(-3.75876 0.650957 0)
(-4.86569 0.854776 0)
(-6.42818 1.05688 0)
(-8.45634 1.1985 0)
(-10.8277 1.2256 0)
(-13.2857 1.12382 0)
(-15.5534 0.930085 0)
(-17.4491 0.706586 0)
(-18.9162 0.498521 0)
(-19.9596 0.317581 0)
(-20.5731 0.154168 0)
(-20.7111 -0.00150824 0)
(-20.3037 -0.14869 0)
(-19.3117 -0.276741 0)
(-17.8048 -0.389588 0)
(-15.6597 -0.560458 0)
(-12.1328 -0.835145 0)
(-6.6699 -1.06141 0)
(-0.145937 -1.04355 0)
(5.71695 -0.825817 0)
(10.2713 -0.58001 0)
(13.5544 -0.393363 0)
(15.9029 -0.267105 0)
(17.5858 -0.191775 0)
(18.9704 -0.135961 0)
(19.8737 -0.128353 0)
(21.3699 -0.0816992 0)
(-0.203096 0.604331 0)
(-0.83466 0.659881 0)
(-1.20625 0.42731 0)
(-1.48494 0.361873 0)
(-1.77428 0.316713 0)
(-2.05253 0.338613 0)
(-2.41983 0.405275 0)
(-2.90926 0.530375 0)
(-3.6408 0.712314 0)
(-4.7144 0.936445 0)
(-6.23622 1.15883 0)
(-8.21662 1.31461 0)
(-10.5343 1.34418 0)
(-12.9352 1.23184 0)
(-15.1463 1.01854 0)
(-16.9903 0.77283 0)
(-18.413 0.544286 0)
(-19.4196 0.345536 0)
(-20.0025 0.165887 0)
(-20.1144 -0.00542962 0)
(-19.6844 -0.167551 0)
(-18.6727 -0.308481 0)
(-17.153 -0.432503 0)
(-15.003 -0.621002 0)
(-11.4692 -0.92452 0)
(-5.99501 -1.17342 0)
(0.514331 -1.15119 0)
(6.34106 -0.909512 0)
(10.864 -0.638318 0)
(14.1136 -0.432144 0)
(16.4243 -0.292827 0)
(18.0701 -0.209762 0)
(19.4124 -0.148565 0)
(20.2891 -0.140096 0)
(21.7293 -0.089152 0)
(-0.234639 0.667102 0)
(-0.843507 0.71768 0)
(-1.19763 0.460029 0)
(-1.45414 0.389585 0)
(-1.72992 0.341504 0)
(-1.99237 0.365349 0)
(-2.34242 0.437772 0)
(-2.80947 0.573642 0)
(-3.5125 0.771584 0)
(-4.54987 1.01571 0)
(-6.02768 1.25814 0)
(-7.95672 1.42791 0)
(-10.2173 1.45992 0)
(-12.5583 1.33717 0)
(-14.711 1.10464 0)
(-16.5025 0.837149 0)
(-17.8813 0.58856 0)
(-18.8524 0.372357 0)
(-19.4066 0.176735 0)
(-19.4946 -0.010036 0)
(-19.0439 -0.186964 0)
(-18.0144 -0.340608 0)
(-16.4842 -0.475593 0)
(-14.3325 -0.681644 0)
(-10.7938 -1.01407 0)
(-5.30811 -1.28538 0)
(1.18279 -1.25838 0)
(6.97615 -0.992685 0)
(11.4697 -0.696164 0)
(14.6881 -0.470451 0)
(16.9631 -0.318081 0)
(18.5734 -0.227285 0)
(19.8744 -0.160788 0)
(20.7245 -0.151422 0)
(22.1083 -0.0963268 0)
(-0.284114 0.733514 0)
(-0.854068 0.772863 0)
(-1.18826 0.490467 0)
(-1.42058 0.415482 0)
(-1.68193 0.36491 0)
(-1.92747 0.390643 0)
(-2.25901 0.468666 0)
(-2.70194 0.614998 0)
(-3.37424 0.8286 0)
(-4.37263 1.09238 0)
(-5.80323 1.35459 0)
(-7.67759 1.53823 0)
(-9.87808 1.57268 0)
(-12.1568 1.43973 0)
(-14.2499 1.18833 0)
(-15.9892 0.899554 0)
(-17.3253 0.631389 0)
(-18.2628 0.398109 0)
(-18.7906 0.186784 0)
(-18.8572 -0.015263 0)
(-18.3879 -0.206874 0)
(-17.3424 -0.373071 0)
(-15.8036 -0.5188 0)
(-13.6526 -0.742334 0)
(-10.1105 -1.10379 0)
(-4.61244 -1.39727 0)
(1.85594 -1.36511 0)
(7.61794 -1.07537 0)
(12.0834 -0.753577 0)
(15.2723 -0.508313 0)
(17.5138 -0.342891 0)
(19.0903 -0.244363 0)
(20.3515 -0.172639 0)
(21.1754 -0.162332 0)
(22.5031 -0.103224 0)
(-0.363868 0.80716 0)
(-0.866723 0.823984 0)
(-1.17801 0.518359 0)
(-1.38425 0.439429 0)
(-1.63041 0.386842 0)
(-1.85801 0.4144 0)
(-2.16985 0.497842 0)
(-2.587 0.654301 0)
(-3.22645 0.883196 0)
(-4.1832 1.16629 0)
(-5.5636 1.44801 0)
(-7.38021 1.64538 0)
(-9.51794 1.68235 0)
(-11.7327 1.53944 0)
(-13.7658 1.26962 0)
(-15.4535 0.960082 0)
(-16.7487 0.672839 0)
(-17.6551 0.422873 0)
(-18.1592 0.196113 0)
(-18.2069 -0.0210436 0)
(-17.7211 -0.227231 0)
(-16.661 -0.405829 0)
(-15.1152 -0.562082 0)
(-12.9667 -0.803036 0)
(-9.42191 -1.19367 0)
(-3.91022 -1.50906 0)
(2.53154 -1.47137 0)
(8.26344 -1.1576 0)
(12.7013 -0.810579 0)
(15.8618 -0.545758 0)
(18.0714 -0.367285 0)
(19.6159 -0.261017 0)
(20.8392 -0.184131 0)
(21.6376 -0.17283 0)
(22.9102 -0.109847 0)
(-0.495836 0.884183 0)
(-0.882083 0.868498 0)
(-1.16661 0.543434 0)
(-1.34511 0.461295 0)
(-1.57543 0.407231 0)
(-1.78417 0.436527 0)
(-2.07521 0.525195 0)
(-2.465 0.691418 0)
(-3.06957 0.935217 0)
(-3.98216 1.23724 0)
(-5.30953 1.53823 0)
(-7.06561 1.74924 0)
(-9.13834 1.78881 0)
(-11.2879 1.63625 0)
(-13.2611 1.34852 0)
(-14.8986 1.01879 0)
(-16.1551 0.712997 0)
(-17.0331 0.446741 0)
(-17.5164 0.204808 0)
(-17.5478 -0.0273112 0)
(-17.0474 -0.247992 0)
(-15.974 -0.438848 0)
(-14.4221 -0.605402 0)
(-12.2772 -0.863738 0)
(-8.72983 -1.28374 0)
(-3.20297 -1.62074 0)
(3.20817 -1.57711 0)
(8.91063 -1.23938 0)
(13.3204 -0.867178 0)
(16.4527 -0.582804 0)
(18.6319 -0.391285 0)
(20.1459 -0.277271 0)
(21.3333 -0.195278 0)
(22.107 -0.182931 0)
(23.3259 -0.116199 0)
(29.9954 0.00379333 0)
(29.9551 0.0117901 0)
(29.877 0.0204654 0)
(29.7688 0.0300651 0)
(29.6333 0.0414087 0)
(29.4703 0.0553851 0)
(29.2783 0.0729894 0)
(29.0546 0.0955505 0)
(28.7949 0.124943 0)
(28.4934 0.163768 0)
(28.1426 0.215961 0)
(27.7312 0.287088 0)
(27.247 0.386476 0)
(26.6668 0.527246 0)
(25.9749 0.73416 0)
(25.1131 1.04271 0)
(24.0949 1.5218 0)
(22.7183 2.2946 0)
(21.3027 3.51485 0)
(18.8037 5.83054 0)
(17.9118 9.19983 0)
(11.7111 19.7166 0)
(29.9954 0.0040265 0)
(29.9551 0.0125151 0)
(29.8771 0.0217242 0)
(29.7689 0.0319134 0)
(29.6335 0.0439527 0)
(29.4706 0.0587853 0)
(29.2787 0.0774656 0)
(29.0551 0.101402 0)
(28.7958 0.132579 0)
(28.4948 0.173749 0)
(28.1448 0.229071 0)
(27.7346 0.304412 0)
(27.2525 0.4096 0)
(26.6758 0.558363 0)
(25.9898 0.776707 0)
(25.1387 1.10094 0)
(24.1409 1.6039 0)
(22.7997 2.40474 0)
(21.4688 3.67916 0)
(19.0831 6.00803 0)
(18.7383 9.54637 0)
(13.9181 19.9152 0)
(29.9954 0.00426372 0)
(29.9551 0.0132529 0)
(29.8771 0.0230053 0)
(29.769 0.0337943 0)
(29.6336 0.0465414 0)
(29.4708 0.0622445 0)
(29.2791 0.0820187 0)
(29.0558 0.107352 0)
(28.7968 0.140341 0)
(28.4963 0.183889 0)
(28.1471 0.242378 0)
(27.7383 0.321979 0)
(27.2583 0.43301 0)
(26.6853 0.589791 0)
(26.0058 0.819527 0)
(25.1661 1.15919 0)
(24.1896 1.68544 0)
(22.8861 2.51193 0)
(21.6387 3.83752 0)
(19.3865 6.15415 0)
(19.4305 9.7944 0)
(15.9559 19.4826 0)
(29.9954 0.00450533 0)
(29.9551 0.014004 0)
(29.8772 0.024309 0)
(29.769 0.0357085 0)
(29.6338 0.0491757 0)
(29.4711 0.0657642 0)
(29.2795 0.0866503 0)
(29.0564 0.113403 0)
(28.7978 0.148232 0)
(28.4979 0.194191 0)
(28.1496 0.255887 0)
(27.7422 0.339791 0)
(27.2646 0.456706 0)
(26.6956 0.621524 0)
(26.0228 0.862598 0)
(25.1953 1.21742 0)
(24.2407 1.76627 0)
(22.9777 2.61607 0)
(21.8105 3.98871 0)
(19.713 6.27451 0)
(19.9942 9.94788 0)
(17.7718 18.9189 0)
(29.9954 0.0047515 0)
(29.9551 0.0147689 0)
(29.8772 0.0256361 0)
(29.7691 0.0376569 0)
(29.634 0.0518566 0)
(29.4714 0.0693455 0)
(29.28 0.0913621 0)
(29.0572 0.119557 0)
(28.7989 0.156253 0)
(28.4996 0.204657 0)
(28.1523 0.269599 0)
(27.7465 0.357851 0)
(27.2713 0.480688 0)
(26.7065 0.653554 0)
(26.0409 0.905896 0)
(25.2263 1.27559 0)
(24.2943 1.84625 0)
(23.0743 2.71707 0)
(21.9829 4.1316 0)
(20.0598 6.37544 0)
(20.4638 10.0223 0)
(19.3637 18.3617 0)
(29.9954 0.00500232 0)
(29.9552 0.0155476 0)
(29.8773 0.0269868 0)
(29.7693 0.0396398 0)
(29.6341 0.0545849 0)
(29.4717 0.0729895 0)
(29.2805 0.0961551 0)
(29.0579 0.125815 0)
(28.8001 0.164405 0)
(28.5015 0.215288 0)
(28.1551 0.283515 0)
(27.751 0.376155 0)
(27.2785 0.504947 0)
(26.7182 0.685865 0)
(26.0601 0.949381 0)
(25.2592 1.33362 0)
(24.3504 1.9252 0)
(23.1758 2.81485 0)
(22.155 4.2652 0)
(20.4228 6.46162 0)
(20.8661 10.0312 0)
(20.7363 17.7753 0)
(29.9954 0.00525787 0)
(29.9552 0.0163405 0)
(29.8773 0.0283616 0)
(29.7694 0.041658 0)
(29.6343 0.0573612 0)
(29.472 0.076697 0)
(29.281 0.10103 0)
(29.0588 0.132178 0)
(28.8014 0.172691 0)
(28.5034 0.226085 0)
(28.1582 0.297635 0)
(27.7558 0.394702 0)
(27.2861 0.529476 0)
(26.7306 0.718439 0)
(26.0804 0.993012 0)
(25.2938 1.39144 0)
(24.4087 2.00294 0)
(23.282 2.90936 0)
(22.3263 4.38867 0)
(20.7966 6.53598 0)
(21.2195 9.98594 0)
(21.8961 17.1434 0)
(29.9955 0.00551824 0)
(29.9552 0.0171478 0)
(29.8774 0.0297608 0)
(29.7695 0.0437118 0)
(29.6346 0.0601863 0)
(29.4724 0.0804688 0)
(29.2816 0.105989 0)
(29.0596 0.138647 0)
(28.8028 0.181111 0)
(28.5056 0.237049 0)
(28.1615 0.311957 0)
(27.7609 0.413486 0)
(27.2942 0.554264 0)
(26.7438 0.751254 0)
(26.1019 1.03675 0)
(25.3304 1.44898 0)
(24.4694 2.07929 0)
(23.3927 3.00059 0)
(22.4966 4.5014 0)
(21.1751 6.60042 0)
(21.5411 9.89742 0)
(22.854 16.4854 0)
(29.9955 0.00578351 0)
(29.9553 0.0179697 0)
(29.8775 0.0311848 0)
(29.7696 0.0458019 0)
(29.6348 0.0630608 0)
(29.4728 0.0843057 0)
(29.2822 0.111031 0)
(29.0606 0.145224 0)
(28.8042 0.189665 0)
(28.5078 0.248179 0)
(28.1649 0.326481 0)
(27.7664 0.432506 0)
(27.3028 0.579304 0)
(26.7577 0.784292 0)
(26.1245 1.08054 0)
(25.3687 1.50618 0)
(24.5323 2.15408 0)
(23.5073 3.0885 0)
(22.6663 4.60305 0)
(21.5523 6.65613 0)
(21.8465 9.77661 0)
(23.6268 15.8212 0)
(29.9955 0.00605377 0)
(29.9553 0.0188064 0)
(29.8775 0.032634 0)
(29.7698 0.0479287 0)
(29.635 0.0659854 0)
(29.4732 0.0882087 0)
(29.2828 0.116159 0)
(29.0616 0.151908 0)
(28.8058 0.198354 0)
(28.5102 0.259477 0)
(28.1686 0.341205 0)
(27.7722 0.451757 0)
(27.3119 0.604584 0)
(26.7725 0.81753 0)
(26.1483 1.12434 0)
(25.4089 1.56295 0)
(24.5974 2.22714 0)
(23.6255 3.17307 0)
(22.8358 4.69354 0)
(21.9227 6.7036 0)
(22.1483 9.63372 0)
(24.2372 15.1606 0)
(29.9955 0.00632912 0)
(29.9553 0.0196583 0)
(29.8776 0.0341087 0)
(29.7699 0.0500929 0)
(29.6353 0.068961 0)
(29.4736 0.0921785 0)
(29.2835 0.121373 0)
(29.0627 0.158702 0)
(28.8074 0.207181 0)
(28.5127 0.270942 0)
(28.1726 0.356129 0)
(27.7783 0.471233 0)
(27.3216 0.630092 0)
(26.788 0.850946 0)
(26.1733 1.16811 0)
(25.4509 1.61924 0)
(24.6647 2.29832 0)
(23.7467 3.25422 0)
(23.0056 4.77308 0)
(22.2814 6.74268 0)
(22.4546 9.47751 0)
(24.7121 14.5108 0)
(29.9955 0.00660964 0)
(29.9554 0.0205255 0)
(29.8777 0.0356094 0)
(29.7701 0.0522949 0)
(29.6356 0.071988 0)
(29.4741 0.0962161 0)
(29.2843 0.126674 0)
(29.0638 0.165606 0)
(28.8092 0.216144 0)
(28.5154 0.282574 0)
(28.1767 0.37125 0)
(27.7848 0.490931 0)
(27.3318 0.655818 0)
(26.8044 0.884514 0)
(26.1995 1.21179 0)
(25.4947 1.67495 0)
(24.7342 2.3675 0)
(23.8703 3.33187 0)
(23.1762 4.84209 0)
(22.6247 6.77282 0)
(22.7695 9.31491 0)
(25.0802 13.8796 0)
(29.9955 0.00689544 0)
(29.9554 0.0214083 0)
(29.8778 0.0371364 0)
(29.7702 0.0545354 0)
(29.6359 0.0750674 0)
(29.4746 0.100322 0)
(29.285 0.132063 0)
(29.065 0.172621 0)
(28.811 0.225244 0)
(28.5183 0.294373 0)
(28.1811 0.386566 0)
(27.7916 0.510843 0)
(27.3425 0.681747 0)
(26.8216 0.91821 0)
(26.2269 1.25534 0)
(25.5402 1.73002 0)
(24.8057 2.43455 0)
(23.9958 3.40592 0)
(23.3482 4.90117 0)
(22.9504 6.79334 0)
(23.0932 9.151 0)
(25.3692 13.2746 0)
(29.9955 0.00718659 0)
(29.9554 0.022307 0)
(29.8779 0.0386902 0)
(29.7704 0.0568149 0)
(29.6362 0.0781996 0)
(29.4751 0.104498 0)
(29.2859 0.137541 0)
(29.0663 0.179748 0)
(28.813 0.234483 0)
(28.5213 0.306338 0)
(28.1858 0.402075 0)
(27.7989 0.530965 0)
(27.3538 0.707866 0)
(26.8396 0.952006 0)
(26.2556 1.2987 0)
(25.5875 1.78436 0)
(24.8793 2.49938 0)
(24.1227 3.47623 0)
(23.5218 4.95106 0)
(23.2571 6.8036 0)
(23.4232 8.98908 0)
(25.6041 12.7014 0)
(29.9955 0.00748321 0)
(29.9555 0.0232218 0)
(29.878 0.0402712 0)
(29.7706 0.0591339 0)
(29.6365 0.0813856 0)
(29.4756 0.108744 0)
(29.2867 0.143108 0)
(29.0676 0.186987 0)
(28.8151 0.24386 0)
(28.5245 0.31847 0)
(28.1907 0.417774 0)
(27.8065 0.551288 0)
(27.3657 0.73416 0)
(26.8585 0.985875 0)
(26.2854 1.34183 0)
(25.6364 1.8379 0)
(24.955 2.5619 0)
(24.2504 3.54266 0)
(23.697 4.99253 0)
(23.545 6.80318 0)
(23.7547 8.83089 0)
(25.8052 12.1633 0)
(29.9955 0.00778539 0)
(29.9555 0.0241529 0)
(29.8781 0.0418797 0)
(29.7708 0.061493 0)
(29.6369 0.0846259 0)
(29.4762 0.11306 0)
(29.2876 0.148766 0)
(29.0691 0.194339 0)
(28.8173 0.253376 0)
(28.5279 0.330766 0)
(28.1959 0.433661 0)
(27.8145 0.571806 0)
(27.3782 0.760614 0)
(26.8783 1.01979 0)
(26.3165 1.38468 0)
(25.6869 1.89056 0)
(25.0326 2.62206 0)
(24.3787 3.60507 0)
(23.8736 5.02636 0)
(23.815 6.792 0)
(24.0823 8.67695 0)
(25.9874 11.6618 0)
(29.9955 0.00809322 0)
(29.9556 0.0251007 0)
(29.8782 0.0435161 0)
(29.771 0.0638927 0)
(29.6373 0.0879212 0)
(29.4768 0.117449 0)
(29.2886 0.154516 0)
(29.0706 0.201806 0)
(28.8196 0.26303 0)
(28.5314 0.343226 0)
(28.2013 0.449731 0)
(27.823 0.592511 0)
(27.3913 0.787211 0)
(26.899 1.05371 0)
(26.3489 1.42719 0)
(25.7389 1.94225 0)
(25.1121 2.67981 0)
(24.5071 3.66331 0)
(24.0513 5.05327 0)
(24.0686 6.77033 0)
(24.4006 8.52692 0)
(26.1607 11.1975 0)
(29.9955 0.00840681 0)
(29.9556 0.0260654 0)
(29.8783 0.0451808 0)
(29.7713 0.0663336 0)
(29.6377 0.0912722 0)
(29.4775 0.12191 0)
(29.2896 0.160357 0)
(29.0722 0.209387 0)
(28.822 0.272824 0)
(28.5352 0.355849 0)
(28.2071 0.46598 0)
(27.8318 0.613393 0)
(27.4051 0.813934 0)
(26.9205 1.08762 0)
(26.3825 1.46932 0)
(25.7924 1.9929 0)
(25.1934 2.7351 0)
(24.6354 3.71729 0)
(24.2294 5.07391 0)
(24.3079 6.73876 0)
(24.7051 8.38001 0)
(26.33 10.7689 0)
(29.9955 0.00872625 0)
(29.9557 0.0270472 0)
(29.8785 0.0468743 0)
(29.7715 0.0688162 0)
(29.6381 0.0946797 0)
(29.4781 0.126444 0)
(29.2907 0.166292 0)
(29.0738 0.217083 0)
(28.8246 0.282755 0)
(28.5391 0.368633 0)
(28.2131 0.482405 0)
(27.8411 0.634443 0)
(27.4194 0.840765 0)
(26.943 1.12147 0)
(26.4173 1.51101 0)
(25.8474 2.04241 0)
(25.2763 2.78791 0)
(24.7634 3.76691 0)
(24.4072 5.08883 0)
(24.5347 6.69814 0)
(24.9927 8.23531 0)
(26.4969 10.373 0)
(29.9955 0.00905165 0)
(29.9557 0.0280464 0)
(29.8786 0.0485969 0)
(29.7717 0.071341 0)
(29.6385 0.0981441 0)
(29.4789 0.131052 0)
(29.2919 0.17232 0)
(29.0756 0.224894 0)
(28.8273 0.292826 0)
(28.5433 0.381576 0)
(28.2194 0.499 0)
(27.8509 0.655652 0)
(27.4344 0.867685 0)
(26.9663 1.15524 0)
(26.4533 1.55221 0)
(25.9037 2.09073 0)
(25.3608 2.8382 0)
(24.8909 3.81214 0)
(24.5839 5.09847 0)
(24.751 6.6495 0)
(25.2618 8.09204 0)
(26.6608 10.0066 0)
(29.9955 0.00938311 0)
(29.9558 0.0290633 0)
(29.8787 0.050349 0)
(29.772 0.0739087 0)
(29.639 0.101666 0)
(29.4796 0.135735 0)
(29.2931 0.178442 0)
(29.0775 0.23282 0)
(28.8302 0.303033 0)
(28.5476 0.394677 0)
(28.2261 0.515762 0)
(27.8611 0.677008 0)
(27.4501 0.894674 0)
(26.9906 1.18889 0)
(26.4905 1.59288 0)
(25.9614 2.13778 0)
(25.4467 2.88597 0)
(25.0179 3.85298 0)
(24.7587 5.10319 0)
(24.9584 6.59394 0)
(25.5119 7.94966 0)
(26.8201 9.66654 0)
(29.9955 0.00972074 0)
(29.9559 0.0300981 0)
(29.8789 0.0521311 0)
(29.7723 0.0765197 0)
(29.6395 0.105247 0)
(29.4804 0.140494 0)
(29.2943 0.184658 0)
(29.0794 0.240863 0)
(28.8332 0.313378 0)
(28.5522 0.407932 0)
(28.2331 0.532683 0)
(27.8718 0.698501 0)
(27.4664 0.921712 0)
(27.0158 1.22238 0)
(26.5289 1.63296 0)
(26.0204 2.18348 0)
(25.5338 2.9312 0)
(25.1442 3.88947 0)
(24.9312 5.10328 0)
(25.1578 6.53252 0)
(25.7438 7.80789 0)
(26.9731 9.35002 0)
(29.9955 0.0100646 0)
(29.9559 0.0311511 0)
(29.879 0.0539434 0)
(29.7726 0.0791745 0)
(29.64 0.108886 0)
(29.4813 0.145328 0)
(29.2957 0.19097 0)
(29.0815 0.249021 0)
(28.8363 0.32386 0)
(28.557 0.421339 0)
(28.2404 0.549757 0)
(27.8829 0.720118 0)
(27.4834 0.948776 0)
(27.0418 1.25568 0)
(26.5685 1.67241 0)
(26.0805 2.22777 0)
(25.622 2.97387 0)
(25.2698 3.92166 0)
(25.1006 5.09897 0)
(25.3503 6.46625 0)
(25.9588 7.66672 0)