/*--------------------------------*- C++ -*----------------------------------*\
| =========                 |                                                 |
| \\      /  F ield         | OpenFOAM: The Open Source CFD Toolbox           |
|  \\    /   O peration     | Version:  v1912                                 |
|   \\  /    A nd           | Website:  www.openfoam.com                      |
|    \\/     M anipulation  |                                                 |
\*---------------------------------------------------------------------------*/
FoamFile
{
    version     2.0;
    format      ascii;
    class       volScalarField;
    location    "270";
    object      epsilon;
}
// * * * * * * * * * * * * * * * * * * * * * * * * * * * * * * * * * * * * * //

dimensions      [0 2 -3 0 0 0 0];


internalField   nonuniform List<scalar> 
12441
(
0.0102961
0.00908471
0.00832688
0.00770247
0.00718357
0.00674886
0.00638224
0.00607079
0.00580494
0.00557649
0.00537918
0.00520787
0.00504561
0.00491503
0.00479291
0.00469201
0.00481536
0.0195861
0.266563
2.99322
20.9564
39.25
0.0101185
0.00891971
0.00818363
0.00757657
0.00707169
0.0066484
0.00629121
0.00598761
0.00572841
0.00550565
0.00531327
0.00514631
0.00498692
0.0048601
0.00474127
0.00464479
0.00475889
0.0193213
0.251123
2.9858
21.2479
40.2318
0.00989651
0.00871694
0.00799992
0.00740874
0.0069172
0.00650521
0.0061577
0.00586249
0.00561064
0.00539443
0.00520797
0.00504655
0.00489177
0.00477012
0.00465603
0.00456511
0.00462391
0.0175331
0.213011
2.95589
21.6285
41.3784
0.00967292
0.00851329
0.00781454
0.00723848
0.00675958
0.0063583
0.00601992
0.00573261
0.00548767
0.00527761
0.00509668
0.00494043
0.00479178
0.00467489
0.00456653
0.00448033
0.00449201
0.0153793
0.175541
2.93414
22.0966
42.5504
0.00942872
0.00828869
0.00760865
0.00704821
0.00658248
0.00619242
0.00586371
0.00558486
0.00534741
0.00514409
0.00496934
0.00481899
0.00467525
0.00456419
0.0044612
0.00438249
0.00434745
0.0134474
0.156501
2.94156
22.6131
43.6698
0.00922273
0.00809906
0.00743424
0.00688641
0.00643124
0.0060501
0.00572899
0.00545669
0.00522491
0.00502661
0.00485633
0.00471009
0.00457191
0.00446473
0.00436691
0.00429158
0.00427354
0.0136322
0.176237
3.04745
23.2392
44.7472
0.00900209
0.00789547
0.00724709
0.00671298
0.00626937
0.00589808
0.00558545
0.00532055
0.00509532
0.00490289
0.00473796
0.00459677
0.00446242
0.00436109
0.00426561
0.00419833
0.00602995
0.0227654
0.28122
3.34387
24.0721
45.7945
0.00882362
0.00773081
0.00709526
0.00657176
0.00613698
0.00577311
0.00546675
0.00520719
0.00498653
0.00479807
0.00463662
0.00449854
0.00436922
0.00427228
0.00418593
0.00516879
0.0345625
0.0795257
0.591451
3.96576
25.231
46.8732
0.00862951
0.00755162
0.00693059
0.00641918
0.0059946
0.00563942
0.00534054
0.00508751
0.00487259
0.00468926
0.00453247
0.00439875
0.00427256
0.00414366
0.00539407
0.0271556
0.177839
0.300515
1.2699
5.05771
26.8417
48.0153
0.0084748
0.00740872
0.00679868
0.00629633
0.00587927
0.00553038
0.00523677
0.0049882
0.00477708
0.00459701
0.00444303
0.00431201
0.00419018
0.00427442
0.0253551
0.151548
0.537336
0.805591
2.34735
6.67638
28.9951
49.2846
0.00830539
0.00725228
0.00665496
0.00616322
0.00575511
0.00541383
0.00512678
0.00488393
0.00467782
0.00450221
0.00435224
0.00422594
0.00407404
0.0095401
0.115631
0.445258
1.07981
1.55425
3.62875
8.72585
31.7166
50.6975
0.00817034
0.00712757
0.00653981
0.00605594
0.00565432
0.00531846
0.00503592
0.00479687
0.00459396
0.00442109
0.00427349
0.004151
0.00415589
0.0490405
0.330672
0.849965
1.62761
2.33447
4.86079
11.0025
34.9556
52.295
0.00802124
0.00698993
0.00641351
0.00593909
0.00554543
0.00521635
0.00493965
0.00470566
0.00450719
0.00433823
0.00419411
0.00403838
0.00838678
0.169512
0.625341
1.23017
2.0631
2.98279
5.9116
13.3009
38.6088
54.0597
0.00790032
0.00687827
0.00631042
0.00584304
0.0054552
0.00513096
0.00485829
0.00462771
0.00443211
0.00426563
0.00412365
0.00388331
0.037474
0.358841
0.89711
1.51961
2.37491
3.46679
6.76627
15.4776
42.5466
56.0037
0.00776897
0.00675694
0.00619911
0.00574007
0.00535925
0.00504098
0.00477344
0.00454729
0.00435557
0.00419247
0.0040535
0.00426781
0.116063
0.555014
1.10774
1.72723
2.59472
3.81933
7.45823
17.46
46.6431
58.0812
0.00765987
0.00665625
0.00610615
0.00565345
0.00527789
0.00496399
0.0047001
0.00447703
0.00428792
0.00412707
0.0039901
0.00954131
0.233174
0.719413
1.26237
1.87703
2.75332
4.08117
8.02771
19.2245
50.7883
60.2902
0.00754397
0.00654921
0.00600802
0.00556273
0.00519337
0.00488473
0.00462533
0.00440613
0.00422035
0.00406239
0.00392843
0.0329614
0.356639
0.847146
1.37698
1.98841
2.87212
4.28338
8.50818
20.7763
54.8988
62.571
0.00744241
0.00645561
0.00592171
0.00548243
0.00511806
0.0048136
0.00455772
0.00434151
0.00415829
0.00400258
0.00387328
0.084419
0.465372
0.945276
1.46458
2.07433
2.96493
4.44689
8.92432
22.1324
58.9147
64.9213
0.00733984
0.00636074
0.00583467
0.00540188
0.00504294
0.00474305
0.00449105
0.00427817
0.0040978
0.00394455
0.00380989
0.153351
0.554218
1.02233
1.53398
2.14315
3.0406
4.58531
9.29345
23.3142
62.8018
67.2818
0.00724517
0.00627357
0.00575435
0.00532722
0.004973
0.00467709
0.00442846
0.00421846
0.00404058
0.00388952
0.00428937
0.223873
0.625653
1.0848
1.59096
2.20036
3.105
4.70747
9.62739
24.3429
66.5437
69.6617
0.00715499
0.0061901
0.00567775
0.00525627
0.00490673
0.00461473
0.00436938
0.00416216
0.00398663
0.00383763
0.0100738
0.28791
0.684002
1.13714
1.63934
2.24966
3.1621
4.81905
9.93394
25.2378
70.1432
72.0102
0.00706417
0.00610664
0.00560103
0.00518516
0.00484034
0.00455235
0.00431043
0.00410617
0.00393323
0.00378702
0.0293211
0.343392
0.733009
1.18235
1.68176
2.29364
3.21476
4.92351
10.2181
26.0163
73.6162
74.3523
0.00698493
0.00603308
0.00553335
0.00512229
0.00478141
0.00449668
0.00425748
0.00405548
0.00388445
0.00374197
0.0627948
0.391062
0.775404
1.2225
1.72009
2.33419
3.265
5.02277
10.483
26.6939
76.9937
76.6493
0.00689839
0.00595365
0.00546042
0.00505481
0.00471856
0.00443779
0.00420199
0.00400297
0.00383453
0.00370231
0.102324
0.432349
0.813099
1.25903
1.75571
2.37271
3.31421
5.11775
10.7306
27.2842
80.3171
78.9445
0.00683017
0.0058902
0.00540195
0.00500033
0.00466728
0.00438909
0.00415539
0.00395806
0.00379102
0.00368403
0.141022
0.468743
0.847412
1.29304
1.78966
2.41023
3.36322
5.20886
10.9621
27.7994
83.6407
81.212
0.00674443
0.00581178
0.00533025
0.00493433
0.00460616
0.0043322
0.00410217
0.00390806
0.00374387
0.00364604
0.176363
0.501507
0.879283
1.32534
1.82271
2.44748
3.41237
5.29632
11.1786
28.2503
87.0272
83.5114
0.00668534
0.0057565
0.00527903
0.00488629
0.00456062
0.00428862
0.00406014
0.00386726
0.00370411
0.00385187
0.208321
0.531618
0.909389
1.35653
1.85544
2.48493
3.46173
5.38032
11.3806
28.6463
90.5483
85.8273
0.00660156
0.00568002
0.00520927
0.00482227
0.00450156
0.00423389
0.00400918
0.00381963
0.00365949
0.00587235
0.237635
0.5598
0.938241
1.38711
1.88825
2.52282
3.51116
5.46109
11.5689
28.9953
94.2786
88.2307
0.00655195
0.00563336
0.00516578
0.00478116
0.00446221
0.00419583
0.00397207
0.0037832
0.00362399
0.0115667
0.265073
0.58658
0.966227
1.41741
1.92139
2.56124
3.56054
5.53889
11.7443
29.3041
98.294
90.7106
0.00646781
0.00555687
0.00509636
0.00471784
0.00440421
0.00414249
0.00392281
0.00373754
0.0035825
0.0223052
0.291222
0.612345
0.993646
1.4477
1.95498
2.60015
3.60975
5.61398
11.9074
29.5779
102.664
93.3406
0.00642564
0.00551679
0.00505861
0.00468173
0.00436922
0.00410823
0.00388904
0.00370406
0.00355151
0.038649
0.316479
0.637385
1.02072
1.47813
1.98907
2.63951
3.65874
5.68664
12.0589
29.8216
107.449
96.1058
0.00634312
0.0054419
0.00499079
0.00462006
0.00431294
0.00405671
0.00384169
0.00366039
0.00351559
0.0600836
0.341098
0.661915
1.04763
1.50881
2.02365
2.67923
3.70751
5.75708
12.1998
30.0391
112.695
99.0732
0.0063095
0.00540961
0.00496002
0.00459018
0.00428348
0.00402732
0.00381219
0.00363066
0.00349479
0.0854947
0.365234
0.686101
1.07449
1.53979
2.05867
2.71925
3.75607
5.82554
12.3306
30.2346
118.438
102.217
0.00622496
0.00533326
0.00489129
0.00452813
0.00422733
0.00397641
0.00376587
0.00358838
0.00347385
0.113591
0.388977
0.710062
1.10137
1.57108
2.09408
2.75952
3.80449
5.89221
12.4523
30.4118
124.698
105.592
0.00619819
0.00530706
0.00486579
0.00450278
0.00420174
0.00395032
0.00373919
0.00356108
0.00347924
0.143241
0.412368
0.733883
1.12833
1.60266
2.12982
2.8
3.8528
5.95727
12.5657
30.5745
131.488
109.157
0.00611114
0.00522886
0.00479581
0.00444003
0.00414539
0.00389966
0.0036935
0.00351974
0.00355285
0.173487
0.435407
0.757617
1.15537
1.63451
2.16582
2.84068
3.90108
6.02084
12.6716
30.7264
138.815
112.957
0.00608765
0.00520559
0.00477284
0.00441681
0.00412157
0.00387503
0.00366803
0.00349347
0.00643338
0.203485
0.458055
0.781289
1.18249
1.66657
2.20202
2.88152
3.94939
6.08306
12.771
30.8701
146.68
116.938
0.0059956
0.00512348
0.00469984
0.00435184
0.00406367
0.00382337
0.00362182
0.00345202
0.0310056
0.232338
0.480239
0.804899
1.20964
1.69879
2.23836
2.92252
3.99776
6.14402
12.8647
31.0075
155.067
121.137
0.00596736
0.00509612
0.00467331
0.00432547
0.00403706
0.00379628
0.00359421
0.00342453
0.0693927
0.258738
0.501862
0.828421
1.23679
1.73108
2.27478
2.96366
4.04625
6.20382
12.954
31.139
163.923
125.495
0.00586261
0.00500309
0.00459099
0.00425255
0.00397241
0.00373893
0.00354323
0.00338439
0.0964948
0.281783
0.522818
0.851811
1.26385
1.76337
2.31121
3.00489
4.09486
6.2625
13.0397
31.2638
173.114
130.045
0.00582108
0.00496374
0.00455359
0.0042163
0.00393679
0.00370365
0.00350823
0.0033682
0.113548
0.30146
0.543013
0.875006
1.29075
1.79556
2.34758
3.04619
4.14359
6.32017
13.1229
31.3803
182.37
134.727
0.0056994
0.00485609
0.00445836
0.00413171
0.00386142
0.00363638
0.00344806
0.00391568
0.124713
0.318148
0.562369
0.897925
1.31741
1.82752
2.38379
3.08748
4.1924
6.37688
13.2045
31.4876
191.208
139.588
0.00561716
0.00478965
0.00440401
0.00408572
0.00382109
0.0035997
0.00341357
0.00508095
0.132395
0.3323
0.580837
0.920472
1.34374
1.85913
2.41974
3.1287
4.24122
6.43276
13.2849
31.5859
198.93
144.654
0.00525463
0.00446019
0.00411184
0.00382625
0.00358897
0.00339044
0.00322354
0.00568702
0.137866
0.344295
0.598376
0.942534
1.36966
1.89023
2.45531
3.16972
4.28995
6.488
13.3637
31.6771
204.725
150.447
95.0235
66.6396
44.1816
34.658
30.6694
25.0331
23.7446
21.3648
20.1554
19.7957
20.3327
20.682
22.6979
26.5754
30.0798
33.6845
36.9494
37.6362
37.4304
36.7463
35.9088
35.4256
35.3407
35.4235
35.4474
35.0704
38.7431
38.9062
6.65416
4.42275
4.51524
4.62139
4.60252
4.22206
3.69558
94.6475
66.8175
44.5233
35.464
31.6292
25.6773
24.3502
21.8299
20.5552
20.1226
20.5208
20.9343
23.1234
27.3349
30.8142
33.927
37.0958
37.9832
37.907
37.4291
36.7358
36.1938
35.9486
35.8877
35.847
35.4408
39.0418
40.3688
6.69128
4.41983
4.5106
4.61569
4.59636
4.21591
3.69044
93.9266
67.0998
45.1759
37.0705
33.5132
26.9399
25.5011
22.7054
21.3234
20.7714
20.895
21.4087
24.0065
28.9467
32.3604
34.5699
37.3376
38.466
38.7086
38.749
38.4607
37.8624
37.2858
36.8816
36.6343
36.1355
39.5518
40.2794
6.73392
4.41402
4.50128
4.60432
4.58406
4.20362
3.68016
92.8104
67.4556
46.1643
39.5416
36.2965
28.8223
27.1599
23.9736
22.4634
21.7438
21.4987
22.1769
25.4654
31.669
35.1913
36.0618
37.8781
39.1839
39.927
40.8276
41.2821
40.6958
39.6057
38.5924
37.9355
37.2326
40.4371
39.4482
6.78723
4.40542
4.48731
4.58729
4.56565
4.18524
3.66479
91.3035
67.8569
47.525
42.9169
39.9406
31.3222
29.3002
25.6337
23.9774
23.0388
22.3879
23.3186
27.6233
35.8739
40.018
39.0967
39.1601
40.3428
41.7211
43.8623
45.4942
45.0937
43.3081
41.3164
39.936
38.8353
41.8662
38.541
6.85976
4.39417
4.4687
4.56461
4.54117
4.16079
3.64435
89.3553
68.2787
49.3035
47.2098
44.416
34.4514
31.9247
27.711
25.8894
24.6727
23.6161
24.9069
30.5585
41.8661
47.75
44.6371
41.9099
42.357
44.3815
48.1617
51.5073
51.6291
49.0077
45.5246
42.923
41.0944
44.0303
37.9882
6.96177
4.38046
4.44546
4.5363
4.51065
4.13032
3.61891
87.0012
68.6989
51.5534
52.388
49.6932
38.2386
35.0674
30.2578
28.2523
26.6929
25.2462
27.0165
34.3
49.7385
59.4049
53.9562
47.1235
45.9458
48.424
54.2087
59.8834
61.0862
57.6232
51.9633
47.3501
44.2366
47.1661
38.0598
7.10467
4.36449
4.41761
4.5024
4.47414
4.09389
3.58851
84.2135
69.0972
54.332
58.3133
55.7069
42.71
38.7818
33.3493
31.1498
29.1824
27.3689
29.7485
38.8522
59.145
75.4285
68.4551
55.9829
52.1401
54.6859
62.7468
71.3767
74.4671
70.458
61.7942
53.9348
48.6077
51.5838
38.9661
7.30128
4.3465
4.38518
4.46292
4.43172
4.05156
3.55323
81.0699
69.4539
57.6945
64.679
62.3207
47.8603
43.1228
37.0743
34.6896
32.2637
30.1229
33.2622
44.2456
68.9875
93.8046
88.2267
69.4128
62.0769
64.3143
74.8082
86.9021
92.8482
89.1281
76.7134
63.7854
54.7281
57.6977
40.9448
7.56662
4.3267
4.34821
4.41794
4.38347
4.00344
3.51317
77.574
69.7479
61.6938
71.0238
69.3206
53.6274
48.1242
41.5205
38.9943
36.1019
33.7119
37.7918
50.449
77.4916
108.598
108.773
86.5414
76.2377
78.3469
91.4068
107.166
116.774
114.892
98.7486
78.4713
63.3481
66.0429
44.3378
7.91884
4.3053
4.30674
4.3675
4.3295
3.94963
3.46845
73.8369
69.9553
66.3881
76.8801
76.45
59.8834
53.7755
46.7499
44.1802
40.898
38.4122
43.6423
57.3268
82.9488
113.642
120.934
102.74
92.8805
96.4157
112.394
131.532
144.801
146.604
128.806
99.664
75.4236
77.2302
49.6664
8.37971
4.28245
4.26084
4.31171
4.26995
3.8903
3.4192
69.8857
70.0458
71.8545
81.9879
83.4748
66.4564
60.0037
52.7708
50.3194
46.8632
44.5602
51.1023
64.5213
84.8792
109.019
120.052
111.851
107.509
115.198
134.75
156.512
172.029
177.948
162.93
127.394
91.7791
91.7136
57.6925
8.97348
4.25817
4.21058
4.25068
4.205
3.82561
3.3656
65.8489
69.9796
78.1759
86.399
90.2453
73.1816
66.6736
59.5001
57.3838
54.1553
52.4815
60.2865
71.4746
84.3019
99.9796
110.979
112.529
116.338
129.893
153.205
176.498
191.814
199.2
189.941
156.523
112.044
109.176
69.3629
9.72155
4.23226
4.15606
4.18456
4.13483
3.7558
3.30785
61.7626
69.7014
85.3513
90.3896
96.7222
79.9611
73.6191
66.7629
65.2003
62.7732
62.3361
70.7158
77.683
82.8317
91.2237
100.709
108.705
119.832
138.627
164.566
187.879
200.715
205.406
199.429
176.324
133.007
127.566
85.3285
10.6279
4.20413
4.09741
4.11355
4.05971
3.68112
3.24616
57.7502
69.138
93.0905
94.2838
102.958
86.8003
80.7028
74.3198
73.4511
72.4381
73.8605
81.3107
82.9491
81.7417
84.7866
92.7769
104.574
121.043
143.307
169.879
191.344
200.203
199.59
192.223
179.507
148.721
142.809
104.553
11.6513
4.17263
4.03475
4.03785
3.9799
3.60185
3.1808
53.8399
68.2033
100.583
98.3252
109.069
93.793
87.8628
81.9452
81.7684
82.5728
86.1239
90.8522
87.3881
81.7106
81.0849
87.996
102.239
122.471
146.531
171.825
189.658
193.673
187.418
176.537
169.343
154.581
150.784
122.541
12.6725
4.136
3.96824
3.95772
3.89571
3.51834
3.11205
50.1273
66.8256
106.498
102.64
115.199
101.045
95.1352
89.5301
89.8631
92.4603
97.7678
98.8174
91.4123
82.9713
79.9198
86.1439
102.267
125.199
149.661
172.119
184.969
183.739
172.82
159.097
153.812
151.098
150.335
132.547
13.4961
4.09206
3.89806
3.87343
3.80748
3.43094
3.0402
46.6135
65.003
109.817
107.207
121.472
108.665
102.631
97.1338
97.6508
101.562
107.797
105.46
95.5308
85.5392
80.9943
86.8429
104.588
129.333
152.824
171.145
178.191
171.812
157.687
142.891
138.387
142.243
143.567
131.097
13.9257
4.03866
3.8244
3.78531
3.71558
3.34004
2.9656
43.349
62.8655
110.634
111.946
127.956
116.716
110.479
104.93
105.275
109.773
116.137
111.647
100.364
89.3929
83.9966
89.7331
108.936
134.532
155.582
168.635
169.575
158.672
142.874
128.7
125.101
131.733
133.515
120.643
13.8629
3.97445
3.74749
3.69368
3.62041
3.24606
2.88857
40.3033
60.7023
109.995
116.768
134.653
125.182
118.773
113.128
113.038
117.449
123.529
118.276
106.501
94.624
88.6943
94.5456
114.995
140.286
157.353
164.267
159.302
144.951
128.883
116.491
114.155
121.552
122.352
105.961
13.3402
3.89919
3.66759
3.5989
3.52238
3.14945
2.80948
37.4893
58.9193
109.031
121.63
141.51
133.967
127.53
121.888
121.27
125.193
131.017
126.233
114.59
101.536
94.9475
101.048
122.445
146.095
157.716
157.962
147.762
131.285
116.067
106.035
105.144
112.324
111.141
90.5841
12.4771
3.81378
3.58498
3.50136
3.42191
3.05064
2.72868
34.8769
57.891
108.442
126.513
148.436
142.913
136.683
131.27
130.237
133.579
139.506
136.125
125.199
110.684
102.869
109.14
131.005
151.537
156.442
149.941
135.538
118.261
104.65
97.0873
97.5707
104.013
100.266
76.2364
11.4181
3.71992
3.49995
3.40145
3.31943
2.9501
2.64654
32.4767
57.7214
108.517
131.389
155.32
151.831
146.099
141.221
140.058
143.051
149.595
148.484
138.937
122.844
112.859
118.873
140.474
156.346
153.579
140.665
123.286
106.325
94.7081
89.4185
91.0084
96.3669
89.8267
63.5405
10.2905
3.61969
3.41284
3.29956
3.21539
2.84828
2.56342
30.2708
58.3633
109.174
136.195
162.042
160.531
155.606
151.604
150.719
153.777
161.585
163.594
156.29
138.941
125.703
130.584
150.781
160.392
149.354
130.722
111.592
95.7345
86.1931
82.8139
85.1282
89.1294
79.8633
52.6166
9.18631
3.51519
3.32398
3.1961
3.1102
2.74563
2.47966
28.2673
59.5636
110.234
140.843
168.486
168.841
165.02
162.241
162.134
165.826
175.625
181.805
177.82
159.937
142.43
144.803
161.946
163.678
144.164
120.72
100.889
86.574
78.9698
77.0729
79.6906
82.1183
70.4327
43.3831
8.16183
3.4083
3.23368
3.09148
3.00431
2.6426
2.39562
26.4614
60.8731
111.53
145.232
174.546
176.627
174.177
172.959
174.193
179.208
191.853
203.488
204.139
186.733
164.246
162.222
174.002
166.231
138.416
111.176
91.424
78.7927
72.8592
72.0118
74.5288
75.2449
61.6195
35.68
7.24454
3.30055
3.14229
2.98608
2.89811
2.53961
2.31162
24.8623
61.8049
112.942
149.269
180.141
183.802
182.954
183.624
186.802
193.958
210.538
229.38
236.263
220.122
192.115
183.352
186.84
168.052
132.498
102.464
83.2782
72.2583
67.6699
67.4695
69.5376
68.5016
53.5099
29.3197
6.44222
3.19314
3.05011
2.8803
2.792
2.43706
2.22796
23.4808
62.1247
114.396
152.886
185.225
190.336
191.285
194.168
199.934
210.188
232.113
260.447
275.452
260.77
226.446
208.284
200.07
169.024
126.644
94.7801
76.4064
66.7989
63.2191
63.3108
64.6618
61.939
46.1704
24.1105
5.75073
3.08692
2.95746
2.77452
2.68636
2.33533
2.14493
22.3333
62.03
115.843
156.054
189.791
196.254
199.172
204.595
213.636
228.108
257.187
297.934
322.95
308.781
266.403
236.069
212.866
168.933
120.979
88.1685
70.6861
62.2329
59.3434
59.4297
59.8881
55.6363
39.6315
19.8697
5.1598
2.98246
2.86463
2.66908
2.58153
2.23476
2.0628
21.4546
62.0207
117.251
158.773
193.863
201.621
206.672
214.984
228.042
248.018
286.452
342.814
378.723
362.567
309.587
264.571
223.979
167.48
115.475
82.5503
65.9523
58.3862
55.9036
55.7496
55.2332
49.6779
33.8869
16.4315
4.65677
2.88016
2.77189
2.56432
2.47784
2.13567
1.98179
20.8892
62.596
118.588
161.069
197.49
206.53
213.888
225.466
243.352
270.288
320.596
395.344
440.081
417.344
351.379
290.368
231.905
164.406
110.072
77.7747
62.0276
55.1017
52.7861
52.2226
50.7339
44.1334
28.8979
13.6503
4.22874
2.78023
2.67949
2.46055
2.37557
2.03835
1.90212
20.7351
64.0547
119.826
162.983
200.74
211.087
220.955
236.227
259.835
295.34
360.15
454.124
500.439
464.894
385.567
309.742
235.339
159.566
104.672
73.6551
58.7364
52.242
49.9022
48.8254
46.4341
39.049
24.6046
11.4021
3.86373
2.68277
2.58767
2.35807
2.27499
1.94305
1.82398
21.1259
66.465
120.941
164.569
203.69
215.41
228.033
247.495
277.823
323.652
405.399
515.708
550.579
496.079
405.987
319.598
233.554
153.029
99.2326
70.0058
55.9167
49.6906
47.1867
45.5549
42.3763
34.4445
20.9351
9.58331
3.55119
2.58782
2.49666
2.25713
2.17635
1.84998
1.74753
22.2957
69.7226
121.915
165.882
206.426
219.624
235.314
259.564
297.75
355.815
456.245
574.341
581.862
505.278
409.503
318.795
226.649
145.034
93.7247
66.6601
53.4232
47.3518
44.5951
42.4209
38.5934
30.3164
17.8141
8.10873
3.28205
2.49538
2.40665
2.15797
2.07984
1.75934
1.67291
24.5223
73.6217
122.742
166.98
209.041
223.868
243.036
272.825
320.223
392.656
512.03
622.945
590.007
492.9
397.056
308.156
215.389
135.941
88.1628
63.4844
51.133
45.1494
42.1001
39.4399
35.1054
26.6436
15.168
6.90932
3.04875
2.40541
2.31784
2.06081
1.98567
1.67128
1.60024
28.1637
77.9154
123.423
167.914
211.638
228.311
251.518
287.845
346.186
435.43
570.878
654.114
575.603
463.99
372.779
290.055
200.926
126.123
82.5606
60.3797
48.9466
43.0264
39.688
36.6282
31.9185
23.3934
12.9292
5.92954
2.84498
2.31786
2.23038
1.96584
1.89398
1.58596
1.52961
33.4954
82.3612
123.967
168.735
214.335
233.169
261.22
305.519
377.188
485.949
628.301
661.975
542.62
424.838
341.417
267.149
184.443
115.926
76.9509
57.2821
46.7914
40.9434
37.3539
33.998
29.0264
20.5274
11.0367
5.12501
2.66558
2.23266
2.14446
1.87323
1.80493
1.50347
1.46112
40.701
86.7542
124.381
169.491
217.283
238.754
272.875
327.35
415.826
546.08
675.121
643.227
495.974
380.678
306.94
241.811
166.961
105.631
71.3618
54.157
44.6207
38.8768
35.0983
31.5542
26.4132
18.0051
9.43733
4.46045
2.50631
2.14979
2.0602
1.78316
1.71864
1.42394
1.39483
49.6321
90.9493
124.676
170.236
220.687
245.557
287.716
355.95
466.17
615.021
697.498
598.755
440.804
335.143
271.892
215.669
149.243
95.4603
65.8379
50.9966
42.4127
36.8168
32.9236
29.2939
24.0564
15.7875
8.08512
3.90788
2.36372
2.06918
1.97778
1.69576
1.63523
1.34743
1.33081
59.8743
94.8698
124.86
171.038
224.86
254.407
307.936
395.838
533.109
682.146
682.246
533.708
381.928
290.688
237.87
189.82
131.823
85.5814
60.425
47.814
40.1653
34.7644
30.8326
27.2075
21.9301
13.8381
6.94092
3.44514
2.235
1.99082
1.89732
1.61119
1.5548
1.27403
1.26912
70.5911
98.4998
124.941
171.995
230.317
266.797
337.52
454.071
616.265
719.874
625.722
456.894
323.855
249.051
205.792
164.89
115.05
76.1266
55.1831
44.6401
37.8923
32.7288
28.8275
25.28
20.0068
12.1244
5.97158
3.0547
2.11784
1.9147
1.81897
1.52958
1.47745
1.2038
1.2098
80.9187
101.866
124.929
173.265
237.974
285.545
383.537
537.081
691.69
695.896
537.33
377.751
270.053
211.472
176.339
141.32
99.1564
67.1956
50.1706
41.5173
35.6177
30.7251
26.9115
23.4945
18.2599
10.6173
5.14922
2.72272
2.01036
1.84082
1.74288
1.45105
1.40325
1.13679
1.15289
89.3733
105.02
124.835
175.128
249.589
316.106
455.863
630.145
701.931
604.763
434.803
304.005
222.783
178.741
149.999
119.406
84.2882
58.862
45.4485
38.4941
33.3722
28.7728
25.0897
21.8347
16.6646
9.29142
4.4504
2.4382
1.91104
1.7692
1.66918
1.37573
1.33227
1.07303
1.09842
95.1437
108.043
124.68
178.121
268.756
368.063
550.737
662.899
612.427
476.213
335.709
240.101
182.822
151.045
127.083
99.4386
70.5648
51.1764
41.0633
35.6173
31.1882
26.8931
23.3705
20.2882
15.1997
8.12454
3.8555
2.19244
1.81858
1.69987
1.598
1.30373
1.26458
1.01257
1.04642
0.00337763
0.00250271
0.00227303
0.00215925
0.00211666
0.00211961
0.00215314
0.00587187
0.140856
0.351904
0.610769
0.958463
1.38838
1.91256
2.48098
3.19954
4.32571
6.52882
13.4213
31.7448
207.073
160.11
0.00334414
0.00224156
0.00184022
0.0016025
0.00147908
0.00143935
0.00147152
0.00595588
0.142339
0.356017
0.61788
0.967437
1.39858
1.9244
2.49451
3.21548
4.3457
6.55305
13.4585
31.7957
208.074
170.217
0.00354027
0.00237561
0.0018817
0.00154337
0.00132028
0.00118791
0.00115699
0.00600895
0.143316
0.359005
0.623401
0.974148
1.40573
1.93229
2.50338
3.2262
4.36019
6.57224
13.4899
31.8482
208.228
179.873
0.00367056
0.00251726
0.00200379
0.0016296
0.00135747
0.00116536
0.00103144
0.00604108
0.143856
0.360932
0.627309
0.978536
1.40976
1.93617
2.50752
3.23159
4.36899
6.58611
13.5138
31.9031
207.596
188.938
0.0039224
0.00276397
0.00222668
0.0018226
0.00151484
0.0012804
0.00100062
0.00605724
0.144
0.36184
0.629584
0.980561
1.41061
1.93599
2.50685
3.23157
4.37195
6.59444
13.5287
31.961
206.222
197.876
0.00405999
0.00292964
0.0023986
0.00199243
0.00167589
0.00142605
0.000990759
0.00606009
0.143773
0.361758
0.630214
0.980202
1.40827
1.93174
2.50136
3.22606
4.36891
6.59695
13.533
32.0223
204.139
206.86
0.00434033
0.00320807
0.00265989
0.00223418
0.00189723
0.00162611
0.00106075
0.00605087
0.143192
0.360713
0.629205
0.977462
1.40274
1.92343
2.49106
3.21506
4.35977
6.59341
13.5251
32.0867
201.385
215.888
0.00447837
0.00337921
0.00284404
0.00242393
0.00208744
0.00181273
0.00118795
0.00602971
0.142269
0.358729
0.626582
0.972371
1.39407
1.91114
2.476
3.19855
4.34443
6.58357
13.5037
32.1537
198.008
224.9
0.00478392
0.00368477
0.00313508
0.00269779
0.00234347
0.00205088
0.00131296
0.00599598
0.141013
0.355837
0.622389
0.964985
1.38233
1.89496
2.45629
3.1766
4.32281
6.56722
13.4676
32.222
194.065
233.827
0.00490851
0.00384881
0.00331967
0.00289516
0.00254796
0.002258
0.00140298
0.00594858
0.139435
0.35207
0.616693
0.955387
1.36764
1.87502
2.43206
3.14926
4.29484
6.54411
13.4157
32.2893
189.615
242.584
0.0052293
0.00417141
0.00363056
0.00319145
0.00282872
0.00252309
0.00151683
0.0058862
0.137542
0.347468
0.609574
0.943685
1.35015
1.85148
2.40348
3.11665
4.26048
6.51401
13.3472
32.3526
184.724
251.064
0.00533913
0.00432467
0.00381003
0.00338958
0.00303971
0.00274223
0.00163582
0.00580696
0.135339
0.342075
0.601127
0.93001
1.33002
1.82454
2.37075
3.07894
4.21971
6.47668
13.2612
32.4078
179.459
259.133
0.00567201
0.00466112
0.0041373
0.00370442
0.00334086
0.0030294
0.00184018
0.00570857
0.132831
0.335939
0.591456
0.914512
1.30746
1.79442
2.33412
3.0363
4.17253
6.43188
13.1572
32.4496
173.887
266.643
0.00575611
0.00479287
0.00430129
0.0038934
0.00354896
0.00325174
0.00211759
0.00558754
0.130014
0.329107
0.580668
0.897357
1.28266
1.76136
2.29386
2.98899
4.119
6.37935
13.0347
32.4718
168.077
273.441
0.00609202
0.00513352
0.0046349
0.00421664
0.00386046
0.00355117
0.00252261
0.0054397
0.126881
0.321621
0.568873
0.878722
1.25587
1.72562
2.25024
2.93727
4.05922
6.31884
12.8933
32.467
162.092
279.379
0.00615205
0.00524292
0.00478027
0.00439143
0.00405912
0.003769
0.00298861
0.00525857
0.123409
0.313516
0.556172
0.85879
1.22732
1.68749
2.20359
2.88146
3.99333
6.25006
12.7329
32.4272
155.994
284.324
0.0064867
0.0055833
0.00511539
0.00471782
0.0043752
0.00407439
0.00350143
0.00503687
0.119562
0.304815
0.542659
0.837746
1.19725
1.64724
2.15421
2.82189
3.92156
6.17277
12.5534
32.3435
149.836
288.166
0.00651826
0.00566542
0.00523657
0.00487226
0.00455776
0.00428057
0.00389672
0.00476375
0.115281
0.29552
0.528412
0.815771
1.1659
1.60517
2.10245
2.75892
3.84417
6.08672
12.3548
32.2064
143.668
290.819
0.00683896
0.00599267
0.00556038
0.00518918
0.0048662
0.00458013
0.00427359
0.00443823
0.110475
0.285603
0.513487
0.793033
1.13353
1.56155
2.04863
2.69294
3.76149
5.9917
12.1373
32.0065
137.531
292.223
0.00685341
0.00605571
0.00566235
0.00532524
0.00503188
0.00477147
0.00452757
0.00407806
0.105019
0.275
0.49791
0.769686
1.10037
1.51668
1.99308
2.62434
3.6739
5.88753
11.9013
31.7344
131.46
292.345
0.00716007
0.00636963
0.00597434
0.00563174
0.00533115
0.00506292
0.00482336
0.00378063
0.0987379
0.263596
0.481667
0.745855
1.06665
1.47085
1.93613
2.55351
3.58183
5.77411
11.6473
31.3812
125.482
291.168
0.00715657
0.00641247
0.00605556
0.00574744
0.00547752
0.0052365
0.00502272
0.00375978
0.0914077
0.251207
0.464689
0.721624
1.03259
1.42431
1.8781
2.48085
3.48574
5.65139
11.3759
30.939
119.618
288.695
0.00744655
0.00670989
0.00635196
0.00603934
0.0057631
0.00551511
0.00529275
0.00412273
0.082762
0.237569
0.446836
0.697029
0.998357
1.37735
1.81928
2.40675
3.38616
5.51945
11.088
30.4014
113.885
284.94
0.00743051
0.00673698
0.00641572
0.0061367
0.00589095
0.00567048
0.00547073
0.00466817
0.0725356
0.222323
0.427874
0.672029
0.964114
1.3302
1.75997
2.33158
3.28359
5.37844
10.7844
29.7637
108.291
279.925
0.00770417
0.00701801
0.00669636
0.0064135
0.00616204
0.00593508
0.00572779
0.00524526
0.0605917
0.205007
0.407449
0.646489
0.929945
1.2831
1.70045
2.25572
3.1786
5.22867
10.4661
29.0235
102.841
273.681
0.00767669
0.00703037
0.0067434
0.0064929
0.00627131
0.00607176
0.00588853
0.00562011
0.047188
0.185087
0.385055
0.620139
0.895858
1.23625
1.64098
2.1795
3.07176
5.07057
10.1341
28.1808
97.5364
266.248
0.00793332
0.00729399
0.00700689
0.00675295
0.00652604
0.00632033
0.00613086
0.0059269
0.0333484
0.162066
0.360013
0.592536
0.86174
1.1898
1.58181
2.10328
2.96364
4.90471
9.78965
27.2386
92.3733
257.676
0.00789948
0.00729634
0.00704134
0.00681782
0.00661937
0.00644012
0.00627469
0.00611224
0.0209654
0.135741
0.331462
0.563018
0.827315
1.14382
1.52315
2.02736
2.85484
4.73182
9.43369
26.2026
87.3447
248.026
0.00814121
0.00754454
0.00728948
0.0070627
0.00685912
0.00667381
0.00650242
0.00633929
0.0121921
0.106665
0.298409
0.530648
0.792075
1.09826
1.46517
1.95204
2.74595
4.55283
9.06742
25.0814
82.4412
237.376
0.00810332
0.00753935
0.0073138
0.00711538
0.00693868
0.00677865
0.00663057
0.00648945
0.00782997
0.0767282
0.25993
0.494172
0.755222
1.05286
1.40794
1.87758
2.63758
4.36883
8.69198
23.8861
77.6496
225.821
0.00833028
0.00777219
0.00754656
0.00734502
0.00716335
0.00699739
0.00684345
0.00669775
0.00663382
0.0492618
0.215659
0.452008
0.71558
1.0071
1.35142
1.80418
2.53034
4.18113
8.30863
22.6301
72.9559
213.476
0.00829262
0.00776376
0.00756484
0.00738931
0.00723255
0.00709024
0.0069583
0.00683273
0.00661082
0.0279313
0.16667
0.402386
0.671514
0.960055
1.29532
1.73194
2.4248
3.99121
7.91876
21.3284
68.3438
200.476
0.00850606
0.00798254
0.00778352
0.007605
0.00744347
0.0072954
0.00715765
0.0070272
0.0068497
0.0148734
0.116536
0.343833
0.620848
0.910344
1.23905
1.66081
2.32149
3.80079
7.52405
19.9973
63.799
186.973
0.00847099
0.00797344
0.00779845
0.00764358
0.00750492
0.00737876
0.00726155
0.00714988
0.00702386
0.0089959
0.0714793
0.276315
0.560909
0.85597
1.18157
1.59046
2.22078
3.61171
7.1266
18.6535
59.3089
173.136
0.00867171
0.00817899
0.00800386
0.00784617
0.00770297
0.00757128
0.00744839
0.00733178
0.0072135
0.00721205
0.0380192
0.203082
0.488933
0.794219
1.12123
1.52022
2.12282
3.42588
6.729
17.314
54.8682
159.142
0.00864157
0.00817177
0.00801807
0.00788167
0.00775925
0.0076476
0.00754366
0.00744443
0.00734511
0.00698036
0.0187395
0.132059
0.403353
0.721611
1.05567
1.4489
2.02744
3.2451
6.33443
15.9954
50.4793
145.175
0.00883167
0.0083662
0.00821228
0.00807317
0.00794639
0.0078294
0.0077199
0.00761569
0.00751362
0.00721202
0.0105689
0.0740854
0.306446
0.634295
0.981613
1.37468
1.93393
3.07087
5.94654
14.7133
46.157
131.413
0.00880914
0.00836382
0.00822887
0.00810878
0.0080007
0.00790186
0.0078096
0.00772128
0.00763386
0.00745748
0.00806468
0.0365246
0.207318
0.529454
0.894804
1.29495
1.841