/*--------------------------------*- C++ -*----------------------------------*\
| =========                 |                                                 |
| \\      /  F ield         | OpenFOAM: The Open Source CFD Toolbox           |
|  \\    /   O peration     | Version:  v1912                                 |
|   \\  /    A nd           | Website:  www.openfoam.com                      |
|    \\/     M anipulation  |                                                 |
\*---------------------------------------------------------------------------*/
FoamFile
{
    version     2.0;
    format      ascii;
    class       volScalarField;
    location    "270";
    object      nut;
}
// * * * * * * * * * * * * * * * * * * * * * * * * * * * * * * * * * * * * * //

dimensions      [0 2 -1 0 0 0 0];


internalField   nonuniform List<scalar> 
12441
(
5.822e-24
1.79052e-20
8.10491e-20
3.3254e-19
1.06829e-18
3.88833e-18
1.01056e-17
2.50054e-17
6.13839e-17
1.2753e-16
3.05654e-16
7.7148e-16
2.18081e-15
7.40539e-15
1.03766e-13
1.89506e-11
0.000196575
0.000972901
0.00312123
0.00265987
0.00364631
0.00775321
6.34206e-24
3.03351e-20
1.11732e-19
4.23947e-19
1.30209e-18
4.80735e-18
1.21985e-17
3.0011e-17
7.36108e-17
1.54455e-16
3.79805e-16
1.02924e-15
2.82796e-15
9.37917e-15
1.13211e-13
3.90114e-11
5.82796e-05
0.00118047
0.00357318
0.0028958
0.00400858
0.00781733
6.36482e-24
3.58957e-20
1.20779e-19
4.48131e-19
1.37773e-18
4.9068e-18
1.2929e-17
3.20422e-17
8.05159e-17
1.71777e-16
4.17899e-16
1.11752e-15
2.78464e-15
7.66856e-15
5.35947e-14
6.5748e-12
1.11552e-05
0.000865508
0.00142298
0.00273164
0.00416146
0.0078909
6.31929e-24
3.76919e-20
1.18534e-19
4.2931e-19
1.32535e-18
4.71362e-18
1.25135e-17
3.1328e-17
7.8496e-17
1.73679e-16
4.23771e-16
1.15405e-15
2.61015e-15
8.47815e-15
3.8552e-14
1.54344e-12
1.62919e-06
0.000603107
0.00106064
0.00265356
0.00432402
0.0079647
6.28525e-24
4.38833e-20
1.29779e-19
4.58315e-19
1.40269e-18
4.7794e-18
1.3091e-17
3.2796e-17
8.43e-17
1.87532e-16
4.54187e-16
1.28475e-15
3.01877e-15
4.07401e-14
2.47559e-13
2.29819e-12
1.39835e-07
0.000425315
0.00104017
0.00264022
0.00446455
0.00803394
6.23507e-24
4.12883e-20
1.2054e-19
4.2919e-19
1.34272e-18
4.62213e-18
1.27505e-17
3.23942e-17
8.28962e-17
1.92695e-16
4.76971e-16
1.44564e-15
4.53208e-15
1.32956e-12
1.19116e-11
5.10455e-11
4.59158e-07
0.000390098
0.00110541
0.0026972
0.00459163
0.00809948
6.20017e-24
5.02642e-20
1.37796e-19
4.7577e-19
1.46015e-18
4.79253e-18
1.35933e-17
3.4455e-17
9.07055e-17
2.11136e-16
5.2088e-16
2.00024e-15
2.50213e-14
4.14751e-11
6.58803e-10
9.37798e-09
1.87619e-05
0.000406765
0.00129098
0.00288354
0.00473844
0.00816218
6.1504e-24
4.34525e-20
1.23172e-19
4.40159e-19
1.40816e-18
4.72286e-18
1.35124e-17
3.48462e-17
9.13223e-17
2.23859e-16
5.7255e-16
5.4364e-15
6.09666e-13
2.25354e-09
8.42325e-08
4.97642e-06
0.000194996
0.000464928
0.00174654
0.00326572
0.0049315
0.00822577
6.1176e-24
5.57046e-20
1.46131e-19
4.9968e-19
1.55412e-18
4.95874e-18
1.4612e-17
3.75722e-17
1.02078e-16
2.50962e-16
6.45403e-16
6.13556e-14
2.59037e-11
7.42195e-08
1.04385e-05
0.000153933
0.000796592
0.000826708
0.00269337
0.00391996
0.00520387
0.00829204
6.07075e-24
4.435e-20
1.25436e-19
4.56633e-19
1.50754e-18
4.9537e-18
1.47476e-17
3.87268e-17
1.04882e-16
2.75137e-16
7.4868e-16
1.68212e-12
1.08315e-09
4.43415e-06
0.000191295
0.000612966
0.00168172
0.00156046
0.00443008
0.00492491
0.00556938
0.00836448
6.04158e-24
6.02606e-20
1.53435e-19
5.25911e-19
1.67273e-18
5.20605e-18
1.60254e-17
4.20365e-17
1.19299e-16
3.17392e-16
8.92161e-16
5.23134e-11
5.50685e-08
8.19917e-05
0.000718722
0.00169021
0.00365656
0.00309874
0.00739033
0.00637928
0.00604125
0.00844366
5.99617e-24
4.46294e-20
1.27737e-19
4.76946e-19
1.6337e-18
5.28104e-18
1.64024e-17
4.40668e-17
1.25504e-16
3.64653e-16
1.15871e-15
1.45675e-09
3.24614e-06
0.000345937
0.00156754
0.00376105
0.00758956
0.00618083
0.0120158
0.00832466
0.00660785
0.00853143
5.97056e-24
6.41501e-20
1.60452e-19
5.53814e-19
1.81498e-18
5.54203e-18
1.79088e-17
4.82241e-17
1.4671e-16
4.44759e-16
1.69472e-15
3.5213e-08
7.25691e-05
0.00107558
0.00383
0.00826424
0.0150559
0.0118223
0.0184557
0.0107396
0.00725912
0.00862633
5.9266e-24
4.43258e-20
1.29671e-19
4.99318e-19
1.78321e-18
5.69202e-18
1.85327e-17
5.13859e-17
1.59858e-16
5.59191e-16
3.60169e-15
7.96359e-07
0.000345733
0.00275859
0.00843409
0.0164462
0.0274283
0.0208783
0.0263958
0.0134945
0.00796191
0.00872852
5.90421e-24
6.75164e-20
1.66656e-19
5.82627e-19
1.97802e-18
5.94026e-18
2.02695e-17
5.67852e-17
1.96065e-16
7.78768e-16
1.65187e-14
1.51866e-05
0.00112068
0.00645194
0.0166834
0.0293606
0.0452856
0.0334298
0.0350537
0.0164292
0.00869542
0.00883515
5.86053e-24
4.39595e-20
1.31999e-19
5.24812e-19
1.95782e-18
6.18568e-18
2.12025e-17
6.16818e-17
2.28178e-16
1.21636e-15
3.02187e-13
0.000137313
0.00276733
0.013185
0.0295449
0.0473069
0.0679105
0.0483661
0.0434791
0.0193425
0.00942236
0.00894576
5.84144e-24
7.05413e-20
1.73506e-19
6.1513e-19
2.17063e-18
6.43971e-18
2.33112e-17
6.93817e-17
3.08249e-16
2.30513e-15
1.26036e-11
0.000521551
0.0062656
0.0238289
0.0469824
0.069642
0.0930639
0.0635954
0.0508412
0.0220957
0.0101277
0.00905718
5.79749e-24
4.35029e-20
1.34495e-19
5.53148e-19
2.16071e-18
6.77178e-18
2.4619e-17
7.72337e-17
4.08489e-16
5.44604e-15
5.48031e-10
0.00132929
0.0124703
0.0387488
0.0684856
0.0945921
0.117351
0.0767906
0.0567241
0.0245674
0.0107839
0.00916919
5.78113e-24
7.32651e-20
1.80291e-19
6.49147e-19
2.38806e-18
7.01189e-18
2.71834e-17
8.90761e-17
6.61768e-16
1.69245e-14
4.40857e-08
0.00320811
0.0222022
0.0572377
0.0922881
0.119584
0.137167
0.0863772
0.0610936
0.026727
0.0113907
0.00927899
5.7366e-24
4.30541e-20
1.36874e-19
5.8242e-19
2.38694e-18
7.43844e-18
2.90083e-17
1.02322e-16
1.08049e-15
7.52777e-14
8.54233e-06
0.00675613
0.0355572
0.0783222
0.11653
0.141666
0.149829
0.0920238
0.0642408
0.0285467
0.0119341
0.00938714
5.72353e-24
7.57312e-20
1.86807e-19
6.83198e-19
2.62934e-18
7.67336e-18
3.23054e-17
1.22254e-16
2.19391e-15
7.80262e-13
0.00016657
0.0128412
0.0519356
0.100276
0.138617
0.158401
0.154464
0.0945597
0.0665284
0.0300653
0.0124277
0.00949146
5.67818e-24
4.24353e-20
1.38576e-19
6.10947e-19
2.63522e-18
8.19366e-18
3.49413e-17
1.46473e-16
4.34045e-15
1.3407e-11
0.000648096
0.0219349
0.0702275
0.121708
0.156749
0.168373
0.152162
0.0952992
0.0683139
0.0312973
0.012869
0.00959327
5.6678e-24
7.80247e-20
1.92476e-19
7.15507e-19
2.88998e-18
8.41871e-18
3.9435e-17
1.83595e-16
1.02764e-14
1.66116e-10
0.00169458
0.0339347
0.0891424
0.14091
0.169324
0.17163
0.145367
0.0954154
0.0698222
0.0323054
0.013283
0.00969106
5.62191e-24
4.19656e-20
1.39797e-19
6.38027e-19
2.90273e-18
9.03808e-18
4.35033e-17
2.31508e-16
2.24219e-14
1.55812e-09
0.00385897
0.0482805
0.107482
0.156889
0.176203
0.16938
0.1368
0.0955648
0.071201
0.0331213
0.013677
0.00978684
5.61505e-24
8.02776e-20
1.97584e-19
7.45843e-19
3.17132e-18
9.26784e-18
5.02669e-17
3.06449e-16
5.64444e-14
1.37803e-08
0.00768373
0.0639465
0.124282
0.168765
0.177797
0.163569
0.128553
0.0959528
0.0724986
0.0338216
0.0140847
0.00987966
5.56737e-24
4.17935e-20
1.40769e-19
6.63899e-19
3.19218e-18
9.99306e-18
5.71554e-17
4.08489e-16
1.30491e-13
3.18886e-07
0.0136003
0.0799837
0.138852
0.17656
0.175523
0.156129
0.121706
0.0965108
0.0737391
0.0344521
0.0145197
0.00997203
5.56302e-24
8.24866e-20
2.02104e-19
7.74048e-19
3.47305e-18
1.02329e-17
6.84641e-17
5.734e-16
3.92569e-13
1.86917e-05
0.0215638
0.0954424
0.150782
0.18049
0.170688
0.148582
0.116501
0.0971012
0.0749047
0.035095
0.0150192
0.0100634
5.51421e-24
4.18612e-20
1.41228e-19
6.87557e-19
3.50172e-18
1.10696e-17
8.13337e-17
8.10455e-16
1.83009e-12
0.00021053
0.031274
0.109718
0.159921
0.181381
0.164729
0.141798
0.112711
0.0975971
0.0759839
0.0357925
0.0155958
0.0101564
5.51322e-24
8.46785e-20
2.05805e-19
7.99252e-19
3.79643e-18
1.13449e-17
1.02519e-16
1.20448e-15
1.28024e-11
0.000700971
0.0421006
0.122334
0.166356
0.179947
0.158505
0.136136
0.109973
0.0979274
0.076946
0.0366076
0.0162796
0.0102507
5.46215e-24
4.20363e-20
1.40973e-19
7.08454e-19
3.83385e-18
1.23056e-17
1.28837e-16
1.7959e-15
7.40975e-11
0.00140842
0.0535145
0.133077
0.17035
0.177082
0.152689
0.131589
0.10795
0.09806
0.0777742
0.0375517
0.0170704
0.0103488
5.4632e-24
8.68097e-20
2.08986e-19
8.21839e-19
4.14341e-18
1.2654e-17
1.72488e-16
2.80981e-15
3.56425e-10
0.00244542
0.0649405
0.141818
0.172281
0.173352
0.147485
0.128005
0.106391
0.0979985
0.0784393
0.038647
0.0179816
0.01045
5.41106e-24
4.22485e-20
1.39907e-19
7.26652e-19
4.19113e-18
1.37426e-17
2.3015e-16
4.39001e-15
1.38695e-09
0.00392846
0.0760049
0.148612
0.172567
0.169313
0.143021
0.125174
0.10513
0.097759
0.0789266
0.0398645
0.0189918
0.0105565
5.41521e-24
8.89215e-20
2.11422e-19
8.42422e-19
4.52288e-18
1.41942e-17
3.2642e-16
7.08416e-15
4.74645e-09
0.00601512
0.0863424
0.15356
0.17162
0.165214
0.139204
0.122912
0.104065
0.09737
0.0792115
0.0411909
0.0200931
0.010667
5.35961e-24
4.2281e-20
1.37817e-19
7.42925e-19
4.58527e-18
1.5455e-17
4.58293e-16
1.12968e-14
1.44514e-08
0.00884135
0.0957879
0.156877
0.169802
0.161302
0.135986
0.121065
0.103136
0.0968579
0.079283
0.0425753
0.0212446
0.0107831
5.3657e-24
8.8461e-20
2.10348e-19
8.57277e-19
4.93686e-18
1.6049e-17
6.78027e-16
1.85088e-14
4.27979e-08
0.0125352
0.104215
0.158778
0.167419
0.157622
0.133229
0.11952
0.102315
0.0962533
0.0791219
0.0439981
0.0224253
0.0109032
5.30606e-24
4.14883e-20
1.32584e-19
7.51674e-19
5.01053e-18
1.74643e-17
9.80566e-16
2.99217e-14
2.19546e-07
0.0172787
0.111676
0.159538
0.164707
0.154263
0.130874
0.118196
0.10159
0.0955817
0.0787226
0.0454198
0.0235872
0.0110282
5.31253e-24
8.52669e-20
2.03834e-19
8.6211e-19
5.38139e-18
1.81879e-17
1.47481e-15
5.74642e-14
1.12621e-05
0.0233238
0.118249
0.159389
0.161846
0.151193
0.128813
0.11704
0.100959
0.0948718
0.0780735
0.0468476
0.0247117
0.0111563
5.24612e-24
4.16175e-20
1.27333e-19
7.57755e-19
5.48314e-18
1.98591e-17
2.14258e-15
4.65086e-13
0.000200683
0.0310958
0.124117
0.158583
0.158965
0.14845
0.127019
0.116017
0.100428
0.0941475
0.0771785
0.048279
0.0257614
0.0112883
5.24948e-24
5.37924e-20
1.5473e-19
7.99531e-19
5.76922e-18
2.06407e-17
3.2018e-15
2.31309e-11
0.00142325
0.0411274
0.129418
0.157314
0.156153
0.145989
0.125423
0.115112
0.100009
0.0934357
0.0760393
0.04976
0.0267399
0.011422
5.17272e-24
4.32833e-20
1.14481e-19
7.24336e-19
5.94095e-18
2.35475e-17
4.66321e-15
1.03291e-09
0.00562533
0.0537657
0.134303
0.155777
0.153463
0.143849
0.124028
0.114318
0.0997147
0.0927575
0.0746772
0.0513148
0.0276393
0.0115584
5.16607e-24
1.93961e-21
1.12098e-20
4.00677e-19
5.44953e-18
2.44403e-17
7.2079e-15
1.83373e-07
0.0152309
0.0689579
0.138805
0.15411
0.150925
0.141997
0.122794
0.113641
0.0995612
0.0921342
0.0731157
0.0529818
0.028498
0.0116955
5.07795e-24
1.71177e-20
4.47769e-20
4.17423e-19
5.46291e-18
3.62124e-17
1.80085e-14
4.85351e-05
0.0322681
0.0863894
0.14293
0.152454
0.148539
0.14049
0.121753
0.113091
0.0995614
0.0915767
0.0714034
0.0547062
0.0293304
0.0118345
5.03912e-24
6.72056e-22
8.45978e-23
2.35263e-19
5.06679e-18
8.2827e-17
3.70827e-13
0.00107005
0.0580919
0.105549
0.146567
0.150902
0.146286
0.139297
0.120878
0.112694
0.0997278
0.0910906
0.0695939
0.0563211
0.0301371
0.011976
4.83844e-24
2.10343e-19
4.58188e-19
1.02966e-18
7.26155e-18
9.13695e-16
7.18259e-12
0.00661263
0.0932264
0.126156
0.149833
0.149623
0.144149
0.138473
0.120202
0.112461
0.100057
0.0906207
0.0677546
0.0574009
0.0306138
0.0121338
0.00987657
0.0222022
0.0238348
0.00908702
0.00766412
0.00790172
0.0081268
0.00841909
0.0083701
0.00871796
0.0118556
0.0106731
0.009608
0.00935448
0.010344
0.0118102
0.0133072
0.0150975
0.0155857
0.0137456
0.0124179
0.0124963
0.0128918
0.0132663
0.0137632
0.0143598
0.0133033
0.0134825
0.0795282
0.11936
0.11704
0.114303
0.115006
0.12523
0.143327
0.00986353
0.0225506
0.0230474
0.00873926
0.00750452
0.00774769
0.00814121
0.0084655
0.00835848
0.0087119
0.0115841
0.0103402
0.00925876
0.00891605
0.00990977
0.0115502
0.0132057
0.0151254
0.0156968
0.0136776
0.012165
0.0122132
0.0126495
0.013064
0.0135768
0.0141745
0.0131704
0.012966
0.0789502
0.119207
0.116951
0.114228
0.114966
0.12519
0.143302
0.00983842
0.022832
0.0216781
0.00814155
0.00732183
0.0075501
0.00823344
0.00859145
0.00838443
0.00872654
0.0106904
0.00935986
0.00836437
0.00786222
0.00858684
0.0100257
0.0115229
0.0133393
0.014229
0.0126769
0.0114182
0.0115592
0.0121093
0.0126308
0.013205
0.0138195
0.0129286
0.0129297
0.0781383
0.118842
0.116718
0.114022
0.114836
0.125059
0.143203
0.00979929
0.0230446
0.0199284
0.00752124
0.00717774
0.00739655
0.00838293
0.00870049
0.00843003
0.00877369
0.00971905
0.00827197
0.00731379
0.00670324
0.00718659
0.0083312
0.00949986
0.0109612
0.0120247
0.0111363
0.0103029
0.0105701
0.0112635
0.0119456
0.0126298
0.0132868
0.012536
0.0130988
0.0770433
0.118263
0.116342
0.113688
0.114617
0.124839
0.14303
0.00974597
0.0231032
0.0179337
0.00689693
0.00701209
0.00723332
0.00848767
0.00870887
0.00841613
0.00876961
0.00887775
0.00732091
0.00637508
0.00569063
0.00597906
0.00687133
0.00772488
0.00872958
0.00972947
0.0093979
0.00896482
0.00931946
0.0101319
0.0110003
0.0118423
0.0125787
0.0119677
0.0132668
0.075596
0.117483
0.115837
0.113236
0.11432
0.12454
0.142796
0.00967615
0.0229358
0.0158111
0.00625633
0.00678655
0.00701224
0.00847047
0.0085722
0.00828041
0.00862831
0.00814926
0.00652424
0.00557933
0.00481599
0.0049236
0.00564227
0.00630619
0.00692218
0.00770242
0.00770598
0.00755058
0.00791604
0.00877343
0.00980922
0.0108436
0.0117047
0.0112179
0.0132873
0.0737305
0.116527
0.115226
0.11269
0.113964
0.124183
0.14252
0.00959042
0.0224984
0.0136786
0.00562049
0.00651169
0.00673129
0.00830981
0.00828913
0.00800369
0.0083136
0.00746185
0.00581861
0.00487049
0.00402851
0.00394947
0.00453351
0.00513645
0.0055198
0.00605279
0.00619314
0.00618252
0.00648689
0.00728952
0.00841985
0.00964983
0.0106807
0.0103004
0.0130655
0.0713969
0.115421
0.114535
0.112076
0.113572
0.123794
0.142228
0.00948687
0.0217607
0.0116464
0.00503568
0.00622757
0.00642042
0.00802968
0.00788911
0.00760328
0.00783852
0.00676879
0.00515614
0.00421491
0.00333505
0.00309051
0.00352204
0.00410798
0.00439668
0.00474027
0.00490186
0.004945
0.00515118
0.00581141
0.00692171
0.00830048
0.00953013
0.00924731
0.0125514
0.0685661
0.114198
0.113797
0.111423
0.113171
0.1234
0.141947
0.00936733
0.0207254
0.00980052
0.00454906
0.00597929
0.00612073
0.00767687
0.00741614
0.0071161
0.00724508
0.00606317
0.00452181
0.00361316
0.00277621
0.0024382
0.0026951
0.00321567
0.00346371
0.00368751
0.00382948
0.00388598
0.00399827
0.00447236
0.00544217
0.00686729
0.00828763
0.00810675
0.0117333
0.0652316
0.11289
0.113043
0.110765
0.112789
0.123033
0.141707
0.0092307
0.0194079
0.00819499
0.00419237
0.00580383
0.00587119
0.00730436
0.00691855
0.00658715
0.00658525
0.00536028
0.00392077
0.0030837
0.00237413
0.00204068
0.00214433
0.0025267
0.00271266
0.00285124
0.00296762
0.00302935
0.00307901
0.00337573
0.00412287
0.00545728
0.00700462
0.0069388
0.0106343
0.0614116
0.11153
0.112305
0.110132
0.112456
0.122723
0.141538
0.00908003
0.0178535
0.00685101
0.00397812
0.00572633
0.00570318
0.00696152
0.00644209
0.00606072
0.00591065
0.00468425
0.00336563
0.002641
0.00212052
0.00187426
0.00188114
0.00209106
0.00217379
0.00222991
0.00231812
0.00238494
0.00240868
0.00257442
0.0030814
0.00419953
0.00575356
0.00581089
0.00931246
0.0571563
0.11015
0.111616
0.109557
0.112198
0.122502
0.141473
0.00891508
0.016116
0.00576597
0.00390373
0.0057622
0.00563926
0.00669033
0.00602684
0.00557776
0.00526796
0.00406049
0.00287327
0.00229177
0.00198329
0.00187215
0.00184122
0.00188758
0.00184818
0.00182218
0.00187791
0.00194631
0.00197078
0.00206543
0.00237534
0.00321149
0.0046244
0.00479171
0.00786281
0.0525598
0.108781
0.111003
0.109069
0.112045
0.122398
0.141539
0.00874002
0.0142726
0.00492315
0.00395918
0.00592112
0.00569431
0.00652379
0.00570591
0.00517329
0.00469719
0.00351366
0.00246089
0.00203375
0.00192102
0.00195906
0.00193303
0.00184361
0.00168772
0.00159191
0.00161734
0.00168343
0.0017221
0.00179877
0.00198806
0.00255637
0.00370633
0.00394278
0.00641483
0.0477791
0.107455
0.110492
0.108696
0.112019
0.122441
0.141763
0.00855535
0.0124029
0.00430396
0.00413433
0.00621144
0.00587786
0.00648623
0.00550395
0.0048753
0.00423054
0.00306556
0.00214777
0.00185594
0.00189502
0.00206957
0.0020695
0.00187583
0.00162254
0.00147706
0.00148273
0.00154839
0.00160728
0.001703
0.00184926
0.00222116
0.00305689
0.00330686
0.00511655
0.0430528
0.106211
0.110107
0.108461
0.112146
0.122657
0.142173
0.00836592
0.0105972
0.0038954
0.00442406
0.00664413
0.00619757
0.00659436
0.00543831
0.00470354
0.0038914
0.00273365
0.00194231
0.00174317
0.00187746
0.00215927
0.00218841
0.00191859
0.00159271
0.00141914
0.00141992
0.00149321
0.00157735
0.00171365
0.00187597
0.00213763
0.00267905
0.00289673
0.00409932
0.0387012
0.105095
0.109868
0.108387
0.112444
0.123069
0.14279
0.00817267
0.00893517
0.00369591
0.00483139
0.0072352
0.00666457
0.00686133
0.00552126
0.00467002
0.00369375
0.00253069
0.00184048
0.00168193
0.00185353
0.00220411
0.00225611
0.00193407
0.00156229
0.00138073
0.00139124
0.00148329
0.00159947
0.00178719
0.0019999
0.00222253
0.00252823
0.00269256
0.00343568
0.0350837
0.104165
0.109789
0.108492
0.112932
0.1237
0.143635
0.00798033
0.00748761
0.00371984
0.0053692
0.00800837
0.00730117
0.00730125
0.00576246
0.0047821
0.00364416
0.00246194
0.00182864
0.00166123
0.00182004
0.00219828
0.00226352
0.00191002
0.0015182
0.00134596
0.0013786
0.00150041
0.00165695
0.00190098
0.00217559
0.00240287
0.00253968
0.00265272
0.00312231
0.0324989
0.103485
0.109886
0.108791
0.113626
0.124569
0.144727
0.00778933
0.00630481
0.00399225
0.00606405
0.00899765
0.00814262
0.00793438
0.00617335
0.00504588
0.00374512
0.00252535
0.00189439
0.00167496
0.00178138
0.002148
0.0022163
0.00185011
0.00146158
0.00131274
0.00137741
0.00153881
0.00174434
0.00204646
0.00237798
0.00262559
0.00265169
0.00273091
0.00310542
0.0310906
0.10312
0.110169
0.109299
0.114539
0.125694
0.146081
0.00760307
0.005409
0.00454754
0.00695509
0.0102496
0.0092402
0.00879116
0.00677294
0.00546978
0.00399888
0.00271759
0.00202866
0.00172008
0.00174552
0.00206821
0.00212949
0.00176599
0.00139947
0.00128431
0.0013894
0.00159939
0.00186194
0.00222157
0.00259516
0.00285858
0.0028172
0.0028895
0.00332204
0.0308473
0.103117
0.110645
0.110026
0.115684
0.12709
0.147712
0.00742066
0.00478845
0.00543703
0.00809325
0.011823
0.0106602
0.00991314
0.00759042
0.00606721
0.00441038
0.00303952
0.00223136
0.0017988
0.0017208
0.00197586
0.00202065
0.00167103
0.00133964
0.00126479
0.00141769
0.00168533
0.00201153
0.0024253
0.00282164
0.00308642
0.00300697
0.00310527
0.0037262
0.0316803
0.103497
0.111323
0.110982
0.11707
0.128772
0.149631
0.00724378
0.00440319
0.00674226
0.00953924
0.013787
0.0124794
0.0113507
0.00866433
0.0068581
0.00498916
0.00349965
0.00250928
0.00191764
0.00171506
0.00188704
0.0019074
0.00157765
0.00128861
0.00125738
0.00146503
0.00179961
0.00219403
0.0026551
0.00305408
0.00330467
0.00320766
0.0033693
0.00429709
0.0334936
0.104261
0.112205
0.112176
0.118708
0.130752
0.151849
0.00707145
0.00420519
0.00858138
0.0113682
0.0162209
0.01478
0.013159
0.0100388
0.00786698
0.00574988
0.00411391
0.00287957
0.00209069
0.00173693
0.00181329
0.00180324
0.00149555
0.0012514
0.00126473
0.00153318
0.0019439
0.00240815
0.00290615
0.00328968
0.00351517
0.0034175
0.00368372
0.00503691
0.0362102
0.105387
0.113295
0.113614
0.120604
0.133044
0.154376
0.00690537
0.00416285
0.0110954
0.0136825
0.0192215
0.0176517
0.0153976
0.0117587
0.00912072
0.00670613
0.00489927
0.0033622
0.00233686
0.00179857
0.00176357
0.00171818
0.00143196
0.00123208
0.00128917
0.00162316
0.00211801
0.00265019
0.00317204
0.0035261
0.00372304
0.00364202
0.00405849
0.00596548
0.0397693
0.106844
0.114595
0.115303
0.122767
0.135657
0.157219
0.00674534
0.0042601
0.0144383
0.0166309
0.0229141
0.0211996
0.0181324
0.0138656
0.0106434
0.00786803
0.00586204
0.00397429
0.00267671
0.00191746
0.00174555
0.00165818
0.00139186
0.0012345
0.00133371
0.00173509
0.00231959
0.00291419
0.00344591
0.00376207
0.0039351
0.00389081
0.00450852
0.00711528
0.0441156
0.108598
0.116106
0.117249
0.125202
0.138602
0.160384
0.00659312
0.0045021
0.0187457
0.0204237
0.0274602
0.0255459
0.0214345
0.0163924
0.0124463
0.00922717
0.00698245
0.00470959
0.00311647
0.00211359
0.00177018
0.00162859
0.00137949
0.00126294
0.00140225
0.00186864
0.00254411
0.0031928
0.00372175
0.00399787
0.00415906
0.00417554
0.0050522
0.00852794
0.0491886
0.110612
0.117827
0.119456
0.127915
0.141889
0.163876
0.00644962
0.00492173
0.0241054
0.0253321
0.0330443
0.0308082
0.0253611
0.0193481
0.0145158
0.0107471
0.00820327
0.00552748
0.0036333
0.00239662
0.00185072
0.0016349
0.001399
0.00132257
0.00150048
0.00202335
0.00278541
0.00347837
0.00399533
0.00423573
0.0044032
0.00450871
0.00571031
0.0102518
0.0549171
0.112857
0.119758
0.12193
0.130911
0.145526
0.167698
0.00631698
0.00557391
0.030538
0.0316608
0.0398341
0.0370453
0.029915
0.0226906
0.0167954
0.0123529
0.00942632
0.00634334
0.00416433
0.00274742
0.00199904
0.0016852
0.00145578
0.00141985
0.00163578
0.00219991
0.0030368
0.00376427
0.00426488
0.00447969
0.00467607
0.0049033
0.00650583
0.0123403
0.0612177
0.115306
0.121899
0.124673
0.134194
0.14952
0.171853
0.00619775
0.00652605
0.0380229
0.0397011
0.0479209
0.0441847
0.034991
0.0262951
0.0191676
0.0139266
0.0105226
0.0070469
0.00462365
0.00311198
0.00221179
0.00178707
0.00155652
0.00156278
0.00181771
0.00240126
0.00329268
0.00404598
0.00453122
0.00473542
0.00498647
0.00537239
0.00746377
0.0148496
0.0679971
0.117936
0.124246
0.127689
0.137767
0.153879
0.176342
0.00609509
0.00783525
0.0465579
0.0496815
0.0572567
0.051964
0.0403359
0.029935
0.0214497
0.0153151
0.0113539
0.0075283
0.0049331
0.00342526
0.00246506
0.00194516
0.00170906
0.00176071
0.00205715
0.00263409
0.00355026
0.00432193
0.00479769
0.00500976
0.00534308
0.00592924
0.00861161
0.0178372
0.075156
0.120731
0.126797
0.130979
0.141634
0.158608
0.181163
0.00601408
0.00953906
0.0562252
0.0617098
0.067595
0.0599078
0.0455423
0.0332901
0.0234078
0.0163517
0.0118037
0.00771837
0.00506018
0.00364694
0.00272295
0.00215485
0.00191964
0.00202306
0.00236565
0.00290893
0.00381112
0.00459387
0.00506969
0.00531029
0.00575436
0.00658732
0.0099794
0.0213591
0.0825955
0.123675
0.12955
0.134545
0.145796
0.163712
0.186313
0.00596079
0.0116547
0.0671812
0.0756578
0.0784261
0.0673444
0.0500839
0.0359834
0.0247923
0.0168871
0.0118044
0.00760772
0.00502818
0.00378131
0.00296243
0.002405
0.00219026
0.00235649
0.00275202
0.00323961
0.00408193
0.00486698
0.00535426
0.00564473
0.00622814
0.0073605
0.0116004
0.0254671
0.0902214
0.126757
0.132499
0.138387
0.150255
0.169197
0.191791
0.00594609
0.014207
0.0795729
0.0909769
0.0889251
0.0734648
0.0533883
0.0376417
0.0253842
0.0168213
0.0113532
0.00724795
0.00489989
0.00386495
0.0031809
0.00268077
0.00251518
0.00276058
0.00321858
0.0036399
0.00437455
0.00514944
0.00565948
0.00602047
0.00677152
0.00826315
0.0135114
0.0302061
0.0979496
0.129966
0.135643
0.142506
0.155012
0.175067
0.197593
0.00598322
0.0172406
0.0933421
0.106524
0.0979744
0.0774412
0.054941
0.0379693
0.0250428
0.0161278
0.0105099
0.00672276
0.00473921
0.00393932
0.00339047
0.00297061
0.00288143
0.00322444
0.00375578
0.00411932
0.00470485
0.00545204
0.00599389
0.00644391
0.00739044
0.00931051
0.0157529
0.0356114
0.105708
0.133293
0.138977
0.146902
0.160072
0.181329
0.203716
0.00609167
0.0208391
0.108028
0.120592
0.104335
0.0786045
0.0544046
0.036821
0.0237436
0.0148615
0.00938106
0.00612066
0.004587
0.00402641
0.00359877
0.00326236
0.00326933
0.00372594
0.00434037
0.00467628
0.00509047
0.00578709
0.00636575
0.00691993
0.00808957
0.0105188
0.0183692
0.041707
0.113439
0.13673
0.142499
0.151577
0.165438
0.187993
0.210162
0.00628805
0.0250969
0.12265
0.131264
0.10695
0.0766293
0.0517147
0.0342472
0.0215892
0.0131483
0.00809609
0.00551131
0.00445418
0.0041241
0.00380252
0.00354375
0.0036569
0.00423569
0.00493761
0.00529473
0.00554692
0.00616738
0.0067824
0.00745118
0.00887209
0.0119057
0.0214085
0.048504
0.121101
0.14027
0.14621
0.156538
0.171121
0.195074
0.216933
0.00658505
0.0301173
0.135889
0.136993
0.105273
0.0716466
0.0471132
0.0304944
0.018792
0.01116
0.00678698
0.00494327
0.0043356
0.00421379
0.00398533
0.00379841
0.00402171
0.00472242
0.00550885
0.00594287
0.00608235
0.00660403
0.00724923
0.00803761
0.00973961
0.0134903
0.0249224
0.0560019
0.128664
0.14391
0.150113
0.161794
0.177133
0.202592
0.224038
0.00697682
0.0359288
0.1464
0.137064
0.0994257
0.0642162
0.0410932
0.0259502
0.0156279
0.0090837
0.00557093
0.00444448
0.00422247
0.0042762
0.00413002
0.00401282
0.00434624
0.00516024
0.00602042
0.00658117
0.0066922
0.00710412
0.00776885
0.00867602
0.0106922
0.0152937
0.0289655
0.0641898
0.136116
0.147648
0.154217
0.167365
0.183495
0.21058
0.231496
0.00744499
0.0424275
0.153131
0.13169
0.0901253
0.0551699
0.0342766
0.0210551
0.0123831
0.00709793
0.00453679
0.00403055
0.00411269
0.0043
0.00422351
0.00417662
0.00461851
0.00553163
0.00644991
0.00716999
0.00735604
0.00766737
0.00834007
0.00936018
0.0117287
0.0173391
0.0335958
0.0730506
0.143458
0.15149
0.158538
0.173276
0.190236
0.219076
0.23933
0.00795396
0.0491372
0.155337
0.121735
0.0784258
0.0453982
0.0272748
0.0162183
0.00931324
0.00535821
0.00373077
0.00370515
0.00400795
0.00428513
0.00426465
0.00428934
0.00483593
0.00583063
0.00678941
0.00768106
0.00803951
0.00828397
0.00895748
0.0100814
0.0128475
0.019653
0.0388745
0.0825666
0.150703
0.155449
0.163098
0.179565
0.197393
0.228136
0.247577
0.00846726
0.0551316
0.152531
0.108334
0.0654314
0.0356763
0.0205912
0.0117715
0.00663163
0.00398134
0.00315234
0.00346312
0.0039103
0.00423586
0.00425805
0.00435601
0.00500243
0.00605997
0.00704323
0.00809871
0.00870056
0.00893333
0.00961144
0.0108297
0.0140472
0.0222653
0.0448679
0.0927261
0.157884
0.159547
0.167931
0.186283
0.205014
0.237825
0.256283
0.00894498
0.0589743
0.144387
0.09262
0.0520991
0.0265759
0.0145886
0.00796868
0.00450747
0.00301316
0.00276586
0.00328798
0.00381433
0.00415536
0.00421311
0.00438905
0.00512963
0.0062306
0.00722542
0.00842341
0.00929886
0.0095869
0.0102893
0.0115961
0.0153286
0.0252119
0.051649
0.10353
0.165043
0.163815
0.173075
0.193488
0.213156
0.24822
0.265504
0.0093615
0.0592044
0.130826
0.0756433
0.0391888
0.0184826
0.00952441
0.00500874
0.00303401
0.00240656
0.00252119
0.0031557
0.0037072
0.00403883
0.00413423
0.00440082
0.00523189
0.00635659
0.00735419
0.00866492
0.00980344
0.0102124
0.0109769
0.0123741
0.0166966
0.0285366
0.0593005
0.115001
0.172242
0.168294
0.178581
0.201251
0.221885
0.25941
0.275307
0.0096768
0.0545848
0.112055
0.0584058
0.0273383
0.0116874
0.00561445
0.00301144
0.00215696
0.00205584
0.00236543
0.00303613
0.00356848
0.00387511
0.00402193
0.00440493
0.00532788
0.00645561
0.00745066
0.00884279
0.0101987
0.0107813
0.0116611
0.0131612
0.0181615
0.0322944
0.0679188
0.127185
0.179557
0.173035
0.1845
0.209646
0.231269
0.271489
0.285761
0.00988074
0.0450388
0.0889065
0.0418434
0.0171145
0.00644308
0.00300248
0.001881
0.00167713
0.00184081
0.0022367
0.00288935
0.00336875
0.00364468
0.00386494
0.00440328
0.00542959
0.00653875
0.0075333
0.00897948
0.0104856
0.0112722
0.0123301
0.0139591
0.0197411
0.0365547
0.0776174
0.14016
0.187078
0.178093
0.190889
0.218753
0.241381
0.284552
0.29694
4.88266e-24
3.15471e-19
1.14345e-18
4.32263e-18
2.5085e-17
3.16596e-14
9.06473e-11
0.0244011
0.126289
0.142108
0.151913
0.148893
0.142637
0.138154
0.119868
0.112475
0.10049
0.0901641
0.066384
0.0575763
0.0302258
0.0121441
4.99642e-24
7.39667e-20
8.36012e-20
6.25735e-18
6.26468e-17
2.47019e-13
9.28178e-10
0.0460615
0.148789
0.151747
0.152741
0.148421
0.141756
0.138157
0.119873
0.112666
0.100999
0.0898938
0.0657028
0.0573439
0.0297897
0.0121941
5.10247e-24
2.76635e-19
8.77952e-19
8.90368e-18
1.22384e-16
9.30569e-13
9.3482e-09
0.0718892
0.168921
0.159676
0.153197
0.148022
0.14108
0.138339
0.120087
0.11302
0.101686
0.0897055
0.0653606
0.0567471
0.0292525
0.0123531
5.06226e-24
5.72605e-20
2.14763e-20
6.84919e-18
1.92259e-16
2.27926e-12
1.69641e-07
0.0991446
0.186331
0.16614
0.153594
0.147777
0.14066
0.138737
0.12054
0.113521
0.102522
0.089606
0.0653461
0.0558173
0.0286487
0.0126109
5.16605e-24
2.21299e-19
6.32087e-19
7.22706e-18
2.87952e-16
3.60637e-12
6.5398e-06
0.123646
0.200993
0.171389
0.154152
0.14775
0.140546
0.139339
0.121214
0.11416
0.103472
0.0895965
0.0656277
0.054624
0.0280237
0.0129584
5.11428e-24
4.59237e-20
1.20657e-20
4.61352e-18
4.09402e-16
4.86525e-12
1.8585e-05
0.140832
0.213009
0.175694
0.155052
0.148011
0.140777
0.140187
0.122142
0.114927
0.104502
0.0896736
0.0661715
0.0532239
0.0273878
0.013413
5.22952e-24
1.78681e-19
4.73261e-19
4.63434e-18
5.79766e-16
5.05353e-12
3.43441e-05
0.148496
0.222579
0.179278
0.156396
0.148604
0.141389
0.14127
0.123306
0.115824
0.105578
0.089834
0.0669261
0.0516976
0.0267665
0.0139881
5.17043e-24
3.80403e-20
7.87958e-21
2.77888e-18
7.71542e-16
4.37015e-12
2.56891e-05
0.147267
0.229858
0.182349
0.158265
0.149583
0.142406
0.142637
0.124744
0.116854
0.106673
0.0900686
0.067846
0.0500998
0.0261576
0.0147016
5.29817e-24
1.46651e-19
3.69473e-19
2.85992e-18
9.84934e-16
2.87611e-12
2.73023e-05
0.139444
0.234974
0.185038
0.160678
0.150977
0.143847
0.144276
0.126439
0.118035
0.107771
0.0903701
0.0688748
0.0485023
0.0255804
0.0155571
5.22372e-24
3.24412e-20
5.88687e-21
1.68626e-18
1.14697e-15
1.68682e-12
3.51623e-05
0.127189
0.237924
0.187442
0.163651
0.152823
0.145724
0.146232
0.128435
0.119382
0.108868
0.0907273
0.069971
0.0469451
0.0250258
0.0165581
5.35793e-24
1.21925e-19
2.97328e-19
1.84133e-18
1.25109e-15
8.51298e-13
3.99987e-05
0.111891
0.238625
0.189573
0.167147
0.155134
0.148044
0.148489
0.130714
0.120926
0.109976
0.0911338
0.0710861
0.0454845
0.0245092
0.0176901
5.27132e-24
2.84274e-20
4.6914e-21
1.0802e-18
1.23793e-15
4.16012e-13
4.09783e-05
0.0948286
0.236842
0.191395
0.171132
0.157936
0.150812
0.151087
0.133318
0.12269
0.111118
0.0915819
0.0721931
0.0441432
0.0240175
0.0189375
5.41234e-24
1.02859e-19
2.48096e-19
1.26226e-18
1.14721e-15
1.89105e-13
3.48248e-05
0.0770676
0.232275
0.192781