/*--------------------------------*- C++ -*----------------------------------*\
| =========                 |                                                 |
| \\      /  F ield         | OpenFOAM: The Open Source CFD Toolbox           |
|  \\    /   O peration     | Version:  v1912                                 |
|   \\  /    A nd           | Website:  www.openfoam.com                      |
|    \\/     M anipulation  |                                                 |
\*---------------------------------------------------------------------------*/
FoamFile
{
    version     2.0;
    format      ascii;
    class       volScalarField;
    location    "270";
    object      p;
}
// * * * * * * * * * * * * * * * * * * * * * * * * * * * * * * * * * * * * * //

dimensions      [0 2 -2 0 0 0 0];


internalField   nonuniform List<scalar> 
12441
(
8.56867
8.86128
9.69665
10.9962
12.6847
14.8126
17.4665
20.7649
24.8747
29.9621
36.2538
44.0615
53.8533
65.5419
81.4718
101.034
129.094
163.869
220.239
282.492
373.793
437.66
8.56866
8.86127
9.69664
10.9962
12.6846
14.8125
17.4665
20.7648
24.8746
29.9619
36.2534
44.0609
53.8523
65.5401
81.4688
101.027
129.078
163.845
220.157
282.416
373.744
437.462
8.56865
8.86126
9.69662
10.9962
12.6846
14.8124
17.4663
20.7646
24.8743
29.9614
36.2526
44.0596
53.8504
65.5367
81.4628
101.013
129.054
163.789
219.987
282.235
373.61
437.103
8.56862
8.86123
9.69658
10.9961
12.6845
14.8123
17.4662
20.7643
24.8738
29.9607
36.2515
44.0578
53.8474
65.5315
81.4538
100.993
129.021
163.703
219.808
281.956
373.367
436.546
8.56859
8.86119
9.69654
10.9961
12.6844
14.8122
17.4659
20.7639
24.8733
29.9598
36.2501
44.0553
53.8435
65.5245
81.4419
100.966
128.979
163.597
219.643
281.607
373.025
435.786
8.56856
8.86115
9.69648
10.996
12.6843
14.812
17.4656
20.7634
24.8725
29.9586
36.2482
44.0523
53.8386
65.5158
81.4271
100.933
128.926
163.471
219.456
281.184
372.589
434.825
8.56851
8.8611
9.69641
10.9959
12.6841
14.8117
17.4653
20.7628
24.8716
29.9572
36.246
44.0486
53.8327
65.5054
81.4093
100.894
128.865
163.324
219.238
280.692
372.064
433.661
8.56846
8.86104
9.69633
10.9958
12.6839
14.8114
17.4648
20.7621
24.8706
29.9555
36.2434
44.0443
53.8258
65.4932
81.3887
100.849
128.797
163.156
219
280.143
371.455
432.291
8.56839
8.86097
9.69624
10.9956
12.6837
14.8111
17.4644
20.7614
24.8694
29.9536
36.2404
44.0394
53.8179
65.4794
81.3656
100.8
128.727
162.975
218.763
279.548
370.766
430.713
8.56833
8.86089
9.69614
10.9955
12.6835
14.8108
17.4638
20.7605
24.8681
29.9515
36.2371
44.0338
53.809
65.464
81.3412
100.75
128.661
162.792
218.55
278.92
369.997
428.919
8.56825
8.8608
9.69602
10.9953
12.6832
14.8104
17.4632
20.7595
24.8666
29.9491
36.2334
44.0277
53.7992
65.4472
81.3169
100.705
128.611
162.623
218.391
278.267
369.147
426.904
8.56817
8.86071
9.6959
10.9951
12.683
14.8099
17.4626
20.7584
24.865
29.9465
36.2293
44.0209
53.7885
65.4302
81.2957
100.674
128.607
162.502
218.314
277.594
368.209
424.658
8.56807
8.8606
9.69576
10.9949
12.6826
14.8095
17.4618
20.7573
24.8632
29.9437
36.2248
44.0136
53.7771
65.4148
81.286
100.676
128.686
162.47
218.326
276.893
367.176
422.169
8.56797
8.86049
9.69561
10.9947
12.6823
14.809
17.4611
20.756
24.8613
29.9406
36.22
44.0056
53.7656
65.4054
81.301
100.735
128.887
162.563
218.399
276.145
366.037
419.427
8.56787
8.86037
9.69545
10.9944
12.6819
14.8084
17.4602
20.7546
24.8592
29.9373
36.2148
43.9971
53.7556
65.4093
81.3552
100.869
129.228
162.783
218.472
275.323
364.783
416.417
8.56775
8.86023
9.69528
10.9942
12.6816
14.8078
17.4593
20.7532
24.857
29.9338
36.2092
43.9882
53.7495
65.4354
81.4595
101.085
129.688
163.08
218.474
274.401
363.405
413.127
8.56763
8.86009
9.69509
10.9939
12.6811
14.8072
17.4583
20.7516
24.8546
29.93
36.2032
43.9796
53.752
65.4904
81.6158
101.37
130.206
163.365
218.349
273.361
361.896
409.542
8.5675
8.85995
9.6949
10.9936
12.6807
14.8065
17.4573
20.7499
24.8521
29.926
36.1968
43.9722
53.7684
65.5772
81.8155
101.695
130.691
163.541
218.069
272.192
360.25
405.648
8.56736
8.85979
9.69469
10.9933
12.6802
14.8058
17.4562
20.7482
24.8495
29.9217
36.1899
43.9678
53.803
65.691
82.0407
102.017
131.044
163.542
217.637
270.892
358.464
401.43
8.56722
8.85962
9.69448
10.993
12.6798
14.8051
17.4551
20.7463
24.8467
29.9171
36.1827
43.9693
53.856
65.8239
82.2666
102.285
131.193
163.356
217.078
269.464
356.535
396.873
8.56706
8.85945
9.69425
10.9926
12.6792
14.8043
17.4539
20.7444
24.8437
29.9124
36.1755
43.9798
53.9249
65.9627
82.4662
102.457
131.115
163.021
216.419
267.915
354.463
391.961
8.5669
8.85927
9.69401
10.9923
12.6787
14.8034
17.4526
20.7423
24.8406
29.9073
36.1687
44.0015
54.0024
66.0965
82.6155
102.511
130.84
162.592
215.689
266.253
352.247
386.677
8.56673
8.85907
9.69375
10.9919
12.6781
14.8026
17.4513
20.7402
24.8373
29.902
36.163
44.0339
54.0831
66.2115
82.6987
102.444
130.432
162.118
214.904
264.488
349.891
381.006
8.56656
8.85887
9.69349
10.9915
12.6775
14.8017
17.4499
20.738
24.8339
29.8964
36.16
44.0747
54.1585
66.3008
82.7115
102.279
129.965
161.63
214.074
262.628
347.396
374.928
8.56637
8.85867
9.69322
10.9911
12.6769
14.8007
17.4485
20.7356
24.8303
29.8905
36.161
44.1201
54.2256
66.3565
82.6608
102.046
129.496
161.136
213.205
260.684
344.764
368.423
8.56618
8.85845
9.69293
10.9907
12.6763
14.7997
17.447
20.7332
24.8266
29.8843
36.1673
44.166
54.2781
66.3797
82.5608
101.78
129.053
160.636
212.296
258.664
341.999
361.473
8.56598
8.85822
9.69263
10.9902
12.6756
14.7987
17.4454
20.7307
24.8227
29.878
36.179
44.2093
54.3164
66.3706
82.4283
101.505
128.646
160.123
211.349
256.579
339.103
354.053
8.56578
8.85799
9.69232
10.9898
12.6749
14.7976
17.4438
20.728
24.8187
29.8718
36.1955
44.2472
54.3371
66.3369
82.2787
101.238
128.268
159.592
210.361
254.435
336.078
346.141
8.56556
8.85774
9.692
10.9893
12.6742
14.7965
17.4421
20.7253
24.8144
29.8658
36.2151
44.2782
54.3435
66.2825
82.1232
100.985
127.91
159.041
209.333
252.241
332.923
337.709
8.56534
8.85749
9.69167
10.9888
12.6734
14.7954
17.4404
20.7225
24.81
29.8601
36.2358
44.3014
54.3341
66.216
81.9688
100.746
127.562
158.469
208.265
250
329.637
328.731
8.56511
8.85723
9.69132
10.9883
12.6727
14.7942
17.4386
20.7195
24.8055
29.8548
36.2563
44.3165
54.3139
66.1398
81.8189
100.518
127.218
157.875
207.155
247.715
326.215
319.175
8.56487
8.85696
9.69097
10.9877
12.6719
14.793
17.4367
20.7165
24.8007
29.8501
36.2753
44.3235
54.2822
66.0605
81.6742
100.299
126.872
157.262
206.005
245.386
322.651
309.01
8.56463
8.85668
9.6906
10.9872
12.671
14.7917
17.4348
20.7134
24.7958
29.8465
36.2921
44.3229
54.2443
65.9779
81.5344
100.083
126.521
156.629
204.815
243.012
318.935
298.2
8.56438
8.85639
9.69022
10.9866
12.6702
14.7904
17.4328
20.7101
24.7908
29.844
36.306
44.3155
54.1993
65.8959
81.3985
99.8708
126.165
155.98
203.585
240.594
315.057
286.708
8.56412
8.8561
9.68983
10.9861
12.6693
14.7891
17.4308
20.7068
24.7855
29.8429
36.3169
44.3021
54.1516
65.813
81.2652
99.658
125.803
155.313
202.315
238.13
311.005
274.495
8.56385
8.85579
9.68943
10.9855
12.6684
14.7877
17.4287
20.7033
24.7801
29.8436
36.3247
44.2838
54.0998
65.732
81.1336
99.4445
125.434
154.632
201.007
235.623
306.766
261.52
8.56357
8.85548
9.68901
10.9848
12.6675
14.7863
17.4265
20.6998
24.7746
29.8468
36.3298
44.2615
54.0476
65.6504
81.0026
99.2288
125.058
153.936
199.661
233.075
302.33
247.74
8.56329
8.85516
9.68859
10.9842
12.6665
14.7848
17.4243
20.6961
24.7693
29.8535
36.3326
44.236
53.993
65.5707
80.8718
99.0109
124.675
153.227
198.278
230.49
297.687
233.107
8.563
8.85483
9.68815
10.9836
12.6656
14.7833
17.422
20.6924
24.7652
29.8644
36.3333
44.2082
53.9392
65.4906
80.7406
98.79
124.286
152.506
196.86
227.874
292.828
217.573
8.5627
8.85449
9.6877
10.9829
12.6646
14.7818
17.4197
20.6885
24.7645
29.8798
36.3325
44.1787
53.8839
65.4122
80.6089
98.5667
123.892
151.772
195.41
225.231
287.749
201.086
8.5624
8.85414
9.68724
10.9822
12.6635
14.7802
17.4173
20.6845
24.7707
29.8996
36.3302
44.1482
53.8298
65.3334
80.4763
98.3405
123.492
151.027
193.931
222.568
282.448
183.592
8.56208
8.85378
9.68677
10.9815
12.6625
14.7786
17.4148
20.6806
24.7871
29.9233
36.3264
44.1171
53.7741
65.2567
80.3431
98.1124
123.087
150.271
192.427
219.885
276.922
165.044
8.56176
8.85342
9.68629
10.9808
12.6614
14.777
17.4123
20.6775
24.8157
29.95
36.3209
44.0859
53.7196
65.1796
80.2091
97.8817
122.678
149.502
190.903
217.18
271.147
145.354
8.56143
8.85304
9.68579
10.9801
12.6603
14.7753
17.4096
20.6783
24.8558
29.9785
36.3138
44.0549
53.6634
65.1052
80.0747
97.6501
122.264
148.719
189.366
214.441
265.042
123.783
-18.547
-26.0708
-29.4382
-23.0953
-17.8794
-14.885
-13.2439
-12.2946
-12.1354
-11.8459
-10.4765
-5.43442
2.87394
9.27897
11.22
8.82415
8.85593
12.7266
16.1715
16.0379
14.5892
11.84
9.6085
7.84537
6.73732
5.72746
3.59737
-3.36078
-3.94117
9.32584
6.35392
4.92849
3.01382
1.69978
0.705768
-18.5602
-26.0687
-29.4647
-23.0941
-17.8756
-14.8819
-13.2433
-12.2939
-12.1339
-11.8438
-10.4723
-5.4331
2.87484
9.28191
11.2296
8.83953
8.87105
12.7361
16.1757
16.0411
14.5926
11.8434
9.61136
7.84785
6.73932
5.72957
3.60394
-3.35899
-3.98926
9.3136
6.35417
4.92885
3.01389
1.6998
0.705771
-18.5816
-26.0801
-29.5105
-23.0923
-17.8704
-14.8773
-13.2421
-12.2927
-12.1323
-11.8421
-10.4693
-5.43132
2.87816
9.28979
11.2465
8.86605
8.90322
12.7665
16.1961
16.0523
14.5999
11.8493
9.61613
7.85186
6.74262
5.73303
3.61082
-3.36163
-4.03324
9.30178
6.35454
4.92926
3.01398
1.69984
0.705778
-18.6118
-26.1129
-29.5753
-23.0923
-17.8648
-14.8717
-13.2402
-12.2912
-12.1308
-11.8404
-10.4669
-5.42888
2.88336
9.29964
11.2655
8.89657
8.94488
12.8127
16.2317
16.072
14.6116
11.8584
9.62338
7.85777
6.74751
5.73718
3.61942
-3.36735
-4.06034
9.29039
6.35502
4.92969
3.01408
1.69989
0.705792
-18.6504
-26.1714
-29.6561
-23.0952
-17.8579
-14.8648
-13.237
-12.2895
-12.1294
-11.8392
-10.4657
-5.42739
2.88907
9.30963
11.2821
8.92182
8.98105
12.8577
16.271
16.0956
14.6263
11.8704
9.63307
7.86564
6.75404
5.74231
3.62988
-3.3732
-4.06867
9.28011
6.35563
4.93015
3.01419
1.69995
0.705811
-18.6967
-26.2598
-29.749
-23.1003
-17.8484
-14.8561
-13.2322
-12.2875
-12.1281
-11.8388
-10.4663
-5.42717
2.89466
9.31945
11.2963
8.94076
9.00746
12.8935
16.306
16.1189
14.6423
11.8842
9.64478
7.87536
6.76213
5.74847
3.64216
-3.37565
-4.0591
9.27108
6.35637
4.93063
3.01432
1.70002
0.705833
-18.7497
-26.3809
-29.8503
-23.1073
-17.8363
-14.8458
-13.2258
-12.2855
-12.1271
-11.8393
-10.4687
-5.42823
2.90005
9.32939
11.3094
8.95586
9.0264
12.9197
16.334
16.1397
14.6581
11.8986
9.65778
7.88657
6.7716
5.75558
3.65609
-3.37201
-4.03276
9.26327
6.35726
4.93112
3.01445
1.7001
0.705857
-18.8086
-26.5357
-29.9562
-23.1168
-17.8226
-14.8345
-13.2183
-12.2835
-12.1264
-11.8411
-10.4729
-5.43018
2.90504
9.33872
11.3212
8.96884
9.04096
12.9386
16.3551
16.1567
14.6721
11.9122
9.67095
7.89867
6.78214
5.76346
3.67141
-3.36094
-3.99045
9.25662
6.35827
4.93161
3.01457
1.70018
0.70588
-18.8724
-26.7228
-30.0628
-23.1298
-17.8083
-14.823
-13.2102
-12.2819
-12.1262
-11.8443
-10.4788
-5.4329
2.90911
9.34616
11.3309
8.97975
9.05251
12.9521
16.37
16.1693
14.6832
11.9237
9.68299
7.91073
6.79326
5.7719
3.68782
-3.3423
-3.93307
9.25107
6.35941
4.93212
3.01469
1.70025
0.705901
-18.9401
-26.9384
-30.1663
-23.1465
-17.7947
-14.8122
-13.2022
-12.2805
-12.1265
-11.8489
-10.4861
-5.43623
2.91171
9.35049
11.3373
8.98785
9.0609
12.9609
16.3791
16.1771
14.6903
11.9318
9.69265
7.92165
6.80425
5.78061
3.7049
-3.31676
-3.86162
9.2466
6.36066
4.93262
3.0148
1.70031
0.705916
-19.0106
-27.1763
-30.264
-23.1668
-17.7827
-14.8028
-13.1948
-12.2797
-12.1274
-11.8548
-10.4945
-5.44017
2.91252
9.35146
11.3401
8.99269
9.06565
12.965
16.3826
16.1798
14.6933
11.9363
9.69913
7.93044
6.81426
5.78922
3.72218
-3.28569
-3.77753
9.24327
6.36202
4.93312
3.01489
1.70036
0.705923
-19.0829
-27.4281
-30.3539
-23.1898
-17.773
-14.7953
-13.1886
-12.2795
-12.129
-11.8619
-10.5036
-5.44464
2.91172
9.3495
11.3399
8.99443
9.06691
12.9647
16.381
16.1779
14.6922
11.937
9.70221
7.93646
6.82249
5.79723
3.73917
-3.25109
-3.68265
9.2412
6.36347
4.93362
3.01495
1.70039
0.705921
-19.1558
-27.6838
-30.4349
-23.2144
-17.7663
-14.7902
-13.1841
-12.2801
-12.1314
-11.8701
-10.5131
-5.44962
2.90974
9.34568
11.3375
8.99374
9.06543
12.9611
16.3752
16.1718
14.6875
11.9346
9.70223
7.93964
6.82843
5.80415
3.75548
-3.21552
-3.57971
9.24066
6.36501
4.9341
3.01498
1.70039
0.705908
-19.2283
-27.9323
-30.5067
-23.2386
-17.7627
-14.7878
-13.1816
-12.2815
-12.1347
-11.8793
-10.5226
-5.45501
2.90714
9.34093
11.3339
8.99139
9.06227
12.9553
16.3661
16.1624
14.68
11.9299
9.69993
7.94038
6.832
5.80955
3.77089
-3.18169
-3.47243
9.24202
6.36663
4.93456
3.01499
1.70036
0.705882
-19.2993
-28.1624
-30.569
-23.2607
-17.7623
-14.7881
-13.1813
-12.2841
-12.139
-11.8894
-10.532
-5.46068
2.90426
9.33618
11.3299
8.98805
9.05834
12.9482
16.3548
16.1505
14.6703
11.9237
9.69615
7.93939
6.83356
5.81334
3.78542
-3.15179
-3.36603
9.24575
6.36831
4.93501
3.01495
1.70029
0.705841
-19.3674
-28.3638
-30.622
-23.2783
-17.7648
-14.7916
-13.1833
-12.2878
-12.1445
-11.9004
-10.5414
-5.46647
2.90139
9.33169
11.3259
8.98414
9.05433
12.9408
16.3417
16.1364
14.6587
11.9163
9.69157
7.93739
6.83367
5.81576
3.79925
-3.12678
-3.26675
9.25228
6.37005
4.93543
3.01487
1.7002
0.705785
-19.4314
-28.5283
-30.6661
-23.2891
-17.7706
-14.7984
-13.1878
-12.293
-12.1513
-11.9126
-10.5512
-5.47236
2.89858
9.3276
11.3219
8.97987
9.05062
12.9331
16.3272
16.1203
14.6453
11.908
9.68656
7.93492
6.83289
5.81728
3.81262
-3.10614
-3.18093
9.26189
6.37185
4.93583
3.01476
1.70006
0.705713
-19.4897
-28.652
-30.7025
-23.2917
-17.7804
-14.8085
-13.1947
-12.2998
-12.1596
-11.9259
-10.5615
-5.47842
2.89575
9.3234
11.3174
8.97523
9.04745
12.9253
16.3111
16.1022
14.6302
11.8988
9.68124
7.93226
6.83163
5.81833
3.82583
-3.08844
-3.11278
9.27449
6.37368
4.93619
3.01459
1.69988
0.705624
-19.5408
-28.7357
-30.7333
-23.2866
-17.7939
-14.8221
-13.2043
-12.3085
-12.1698
-11.9411
-10.5731
-5.485
2.89262
9.31873
11.312
8.97016
9.04486
12.9172
16.2933
16.0821
14.6134
11.8886
9.67558
7.92948
6.83011
5.81929
3.83915
-3.07214
-3.06312
9.28962
6.37556
4.93652
3.01438
1.69967
0.705517
-19.5832
-28.7837
-30.7608
-23.2756
-17.8103
-14.8392
-13.217
-12.3195
-12.1823
-11.9585
-10.5866
-5.49262
2.88875
9.3128
11.3049
8.96448
9.04289
12.9088
16.2737
16.0598
14.5948
11.8776
9.66954
7.92655
6.82846
5.82036
3.85279
-3.05609
-3.02924
9.30654
6.37747
4.9368
3.01413
1.69941
0.705394
-19.6167
-28.8019
-30.7863
-23.2605
-17.8287
-14.86
-13.2333
-12.3334
-12.1977
-11.9792
-10.6035
-5.50226
2.88346
9.30518
11.2957
8.95808
9.04137
12.8998
16.2521
16.0354
14.5746
11.8657
9.66312
7.92344
6.82672
5.82165
3.86689
-3.03967
-3.0067
9.32444
6.37941
4.93704
3.01382
1.6991
0.705253
-19.6429
-28.7961
-30.8075
-23.2429
-17.8482
-14.8847
-13.2535
-12.3507
-12.2166
-12.0039
-10.6249
-5.51511
2.87591
9.29508
11.2837
8.9508
9.04023
12.8901
16.2284
16.0088
14.5527
11.8531
9.65631
7.9201
6.8249
5.82322
3.88147
-3.02266
-2.99075
9.34261
6.38139
4.93722
3.01347
1.69876
0.705095
-19.6631
-28.7705
-30.8203
-23.2235
-17.8678
-14.9134
-13.2785
-12.3725
-12.24
-12.034
-10.6528
-5.53277
2.86504
9.28216
11.2688
8.94263
9.03922
12.8793
16.2024
15.9803
14.5295
11.8398
9.64914
7.91653
6.82302
5.82505
3.8965
-3.00508
-2.97757
9.36058
6.38339
4.93734
3.01306
1.69837
0.70492
-19.6768
-28.7276
-30.8187
-23.2023
-17.8866
-14.9464
-13.3088
-12.3993
-12.2687
-12.0705
-10.6883
-5.55663
2.84987
9.26557
11.2507
8.93352
9.03821
12.8671
16.1741
15.9498
14.505
11.826
9.64165
7.91275
6.82109
5.82712
3.91184
-2.98699
-2.96427
9.37812
6.38543
4.9374
3.0126
1.69793
0.704728
-19.6828
-28.6704
-30.7921
-23.1783
-17.9037
-14.9841
-13.3454
-12.432
-12.3037
-12.1146
-10.7331
-5.58778
2.82981
9.245
11.2293
8.92348
9.03693
12.8534
16.1431
15.9175
14.4794
11.8117
9.63389
7.90878
6.81911
5.8294
3.9274
-2.96852
-2.949
9.39519
6.3875
4.93738
3.01209
1.69745
0.704521
-19.6806
-28.6026
-30.7258
-23.1492
-17.9184
-15.0269
-13.389
-12.4712
-12.3455
-12.1667
-10.7867
-5.62605
2.80523
9.21984
11.2041
8.91231
9.03518
12.8377
16.1094
15.8833
14.4528
11.7971
9.6259
7.90468
6.81708
5.83181
3.943
-2.94978
-2.93038
9.4119
6.38962
4.93729
3.01153
1.69693
0.704298
-19.6695
-28.5286
-30.6059
-23.1113
-17.93
-15.0751
-13.4402
-12.5169
-12.3945
-12.227
-10.8487
-5.67002
2.77775
9.1908
11.1745
8.89959
9.03246
12.8198
16.0728
15.8474
14.4254
11.7822
9.61772
7.90048
6.81501
5.8343
3.9585
-2.9309
-2.9076
9.42843
6.39179
4.93712
3.01092
1.69637
0.704061
-19.6495
-28.4546
-30.4258
-23.06
-17.9378
-15.1284
-13.498
-12.568
-12.4495
-12.294
-10.9159
-5.71644
2.75008
9.15883
11.1401
8.88458
9.02829
12.7992
16.0331
15.8095
14.3971
11.767
9.60941
7.89622
6.81287
5.83679
3.97372
-2.91196
-2.87988
9.44499
6.39402
4.93686
3.01025
1.69576
0.70381
-19.6211
-28.3872
-30.1895
-22.9896
-17.9415
-15.1852
-13.5603
-12.6219
-12.5086
-12.3657
-10.985
-5.76122
2.72527
9.12622
11.1012
8.86665
9.02196
12.7757
15.9902
15.7698
14.3681
11.7515
9.60102
7.89195
6.81066
5.83922
3.98852
-2.89309
-2.84687
9.46182
6.39632
4.93651
3.00952
1.69511
0.703545
-19.5867
-28.3337
-29.9099
-22.8955
-17.9411
-15.2431
-13.6226
-12.6744
-12.568
-12.4379
-11.0502
-5.79974
2.70558
9.09408
11.0586
8.8455
9.01304
12.749
15.9442
15.7283
14.3384
11.736
9.59259
7.88768
6.80834
5.84148
4.00267
-2.87441
-2.80809
9.47913
6.3987
4.93606
3.00875
1.69443
0.703269
-19.5498
-28.3015
-29.6023
-22.7747
-17.9376
-15.2981
-13.679
-12.7199
-12.6232
-12.5068
-11.1075
-5.82859
2.69168
9.06332
11.0138
8.82154
9.00126
12.7192
15.8953
15.6849
14.3079
11.7203
9.58418
7.88346
6.80588
5.84351
4.01604
-2.85608
-2.76344
9.49714
6.40117
4.93551
3.00792
1.6937
0.702981
-19.5144
-28.299
-29.2805
-22.6288
-17.9326
-15.3454
-13.7219
-12.752
-12.669
-12.5673
-11.1513
-5.84608
2.68229
9.03268
10.9676
8.79557
8.987
12.6864
15.8439
15.6399
14.2767
11.7044
9.57585
7.87927
6.80322
5.84519
4.02832
-2.83825
-2.71262
9.516
6.40375
4.93486
3.00703
1.69293
0.702683
-19.4845
-28.3365
-28.9565
-22.4659
-17.9285
-15.3797
-13.7446
-12.7653
-12.7011
-12.6159
-11.1795
-5.85309
2.67489
9.00107
10.9206
8.76861
8.9707
12.6512
15.7905
15.5937
14.2449
11.6886
9.56764
7.87516
6.80033
5.84647
4.03935
-2.82113
-2.65573
9.53591
6.40646
4.9341
3.00609
1.69213
0.702375
-19.4635
-28.4277
-28.6421
-22.3018
-17.9283
-15.3961
-13.7414
-12.7557
-12.7164
-12.6494
-11.1903
-5.8521
2.66689
8.96651
10.8721
8.74135
8.95318
12.6142
15.7358
15.5465
14.2126
11.6728
9.55962
7.8711
6.79716
5.84718
4.04876
-2.8049
-2.59258
9.55698
6.4093
4.93322
3.0051
1.69129
0.702058
-19.4533
-28.5902
-28.3492
-22.157
-17.9346
-15.3918
-13.7102
-12.7226
-12.7146
-12.6668
-11.1858
-5.84644
2.65671
8.9285
10.8221
8.71419
8.93481
12.5758
15.6802
15.499
14.18
11.657
9.55183
7.86713
6.79365
5.84729
4.05634
-2.78982
-2.52341
9.57934
6.41228
4.93224
3.00405
1.69041
0.701733
-19.4543
-28.8456
-28.0882
-22.0521
-17.9493
-15.3666
-13.6523
-12.6684
-12.6974
-12.6677
-11.1693
-5.83829
2.64422
8.8864
10.7699
8.68705
8.91611
12.5367
15.6246
15.4516
14.1474
11.6415
9.54432
7.86322
6.78975
5.84662
4.06159
-2.77605
-2.44808
9.6031
6.41543
4.93112
3.00294
1.6895
0.701399
-19.4639
-29.2172
-27.8644
-22.0016
-17.9732
-15.3237
-13.5734
-12.599
-12.6678
-12.6539
-11.1463
-5.82863
2.63011
8.84088
10.7154
8.65975
8.89705
12.4971
15.569
15.4049
14.1151
11.6263
9.53715
7.85939
6.78542
5.84511
4.06428
-2.76389
-2.3669
9.62837
6.41875
4.92989
3.00177
1.68854
0.701056
-19.4779
-29.7242
-27.6775
-22.0107
-18.0057
-15.2678
-13.481
-12.5216
-12.6287
-12.6292
-11.1208
-5.81675
2.61518
8.79169
10.658
8.63198
8.87801
12.4574
15.5139
15.3591
14.0834
11.6116
9.53033
7.8556
6.78057
5.84259
4.06374
-2.75351
-2.27969
9.65523
6.42225
4.92851
3.00053
1.68753
0.700704
-19.4907
-30.3683
-27.522
-22.0765
-18.0453
-15.2051
-13.3837
-12.4427
-12.5832
-12.6002
-11.0954
-5.80217
2.5993
8.73881
10.5977
8.60387
8.85921
12.4178
15.4591
15.3144
14.0526
11.5975
9.52389
7.85184
6.77521
5.83904
4.05966
-2.7452
-2.18664
9.68382
6.42595
4.92698
2.99922
1.68648
0.700341
-19.4967
-31.114
-27.3907
-22.1906
-18.0899
-15.1409
-13.289
-12.3664
-12.5357
-12.5731
-11.0694
-5.78485
2.58114
8.68082
10.5342
8.5761
8.84154
12.3786
15.4046
15.2707
14.0228
11.5839
9.5178
7.84812
6.76931
5.83424
4.05112
-2.73901
-2.08731
9.71419
6.42984
4.92529
2.99782
1.68537
0.699967
-19.4877
-31.8675
-27.2759
-22.3415
-18.1366
-15.0793
-13.2012
-12.2955
-12.4937
-12.5511
-11.0423
-5.76681
2.5582
8.61749
10.4693
8.55051
8.82538
12.339
15.3495
15.2274
13.9939
11.5711
9.51217
7.84459
6.76298
5.8282
4.03788
-2.73499
-1.98247
9.74613
6.43391
4.92342
2.99635
1.68421
0.699578
-19.4487
-32.4668
-27.1701
-22.5154
-18.1813
-15.0221
-13.122
-12.2347
-12.463
-12.533
-11.0142
-5.75105
2.52867
8.54999
10.4062
8.52885
8.81003
12.2974
15.2926
15.1839
13.9658
11.5591
9.50732
7.84156
6.75635
5.82074
4.0197
-2.7334
-1.87491
9.77866
6.43811
4.9214
2.99478
1.68297
0.699173
-19.3807
-32.7028
-27.0644
-22.6977
-18.2188
-14.9687
-13.0535
-12.1911
-12.4438
-12.5178
-10.9888
-5.74122
2.49393
8.48478
10.3504
8.51069
8.79066
12.2497
15.2326
15.1401
13.9392
11.5487
9.50399
7.8394
6.74942
5.81195
3.9972
-2.73581
-1.76865
9.81154
6.44249
4.91924
2.99313
1.68165
0.698744
-19.4236
-32.4072
-26.9464
-22.8773
-18.248
-14.9187
-13.0008
-12.1663
-12.4333
-12.5067
-10.9688
-5.73697
2.45986
8.42776
10.3024
8.48923
8.7592
12.1928
15.1711
15.0989
13.9169
11.5422
9.5031
7.83752
6.74031
5.79888
3.9614
-2.74353
-1.64139
9.85474
6.44793
4.91652
2.99125
1.68025
0.698309
8.56117
8.85274
9.6854
10.9795
12.6594
14.7739
17.4075
20.6895
24.8937
30.0002
36.3071
44.0313
53.6209
65.0493
79.971
97.4696
121.942
148.096
188.167
212.273
259.999
102.103
8.56098
8.85252
9.68511
10.9791
12.6588
14.7729
17.406
20.7077
24.9213
30.0132
36.3009
44.0144
53.5885
65.0132
79.897
97.3403
121.708
147.639
187.298
210.696
256.147
99.1861
8.56078
8.85229
9.6848
10.9786
12.6581
14.7719
17.4044
20.7302
24.9447
30.0223
36.2932
43.997
53.5579
64.975
79.8216
97.2065
121.465
147.163
186.407
209.058
252.136
100.875
8.56056
8.85205
9.68448
10.9781
12.6574
14.7707
17.4027
20.7529
24.9636
30.0279
36.2846
43.9792
53.5254
64.9374
79.7447
97.0684
121.213
146.667
185.491
207.354
248.013
100.773
8.56034
8.85179
9.68414
10.9776
12.6566
14.7696
17.4009
20.7724
24.9784
30.0309
36.2758
43.9614
53.495
64.8971
79.6658
96.9244
120.948
146.151
184.545
205.581
243.766
98.9862
8.5601
8.85152
9.68378
10.9771
12.6558
14.7683
17.399
20.7852
24.9895
30.0316
36.2672
43.9436
53.463
64.8573
79.5849
96.7749
120.671
145.613
183.565
203.742
239.391
96.9447
8.55985
8.85124
9.6834
10.9765
12.655
14.767
17.397
20.789
24.9971
30.0307
36.2592
43.926
53.4332
64.8148
79.5016
96.6184
120.379
145.051
182.544
201.839
234.893
95.0437
8.55959
8.85093
9.683
10.9759
12.6541
14.7656
17.3948
20.7842
25.0014
30.0283
36.2518
43.9088
53.4022
64.7728
79.4161
96.4556
120.07
144.465
181.475
199.871
230.276
93.1207
8.55931
8.85062
9.68258
10.9753
12.6531
14.7642
17.3926
20.7729
25.0025
30.0248
36.2452
43.892
53.3731
64.728
79.3276
96.2851
119.744
143.853
180.355
197.84
225.547
91.0775
8.55901
8.85028
9.68213
10.9747
12.6522
14.7626
17.3902
20.7572
25.0004
30.0202
36.2392
43.8756
53.3428
64.6836
79.2365
96.1076
119.399
143.214
179.175
195.744
220.707
88.9384
8.5587
8.84992
9.68166
10.974
12.6511
14.761
17.3877
20.7384
24.995
30.0146
36.2338
43.8597
53.3144
64.6365
79.1421
95.9219
119.035
142.546
177.932
193.583
215.764
86.7384
8.55837
8.84955
9.68117
10.9732
12.65
14.7592
17.3851
20.7176
24.986
30.0079
36.2288
43.8441
53.2845
64.5893
79.0445
95.7286
118.65
141.848
176.62
191.356
210.72
84.4884
8.55803
8.84915
9.68064
10.9725
12.6488
14.7574
17.3823
20.6959
24.9729
29.9999
36.224
43.829
53.2561
64.5392
78.943
95.5266
118.245
141.117
175.236
189.062
205.581
82.1925
8.55766
8.84873
9.68009
10.9717
12.6476
14.7554
17.3793
20.6743
24.9552
29.99
36.219
43.8142
53.226
64.4887
78.8378
95.3164
117.82
140.353
173.776
186.699
200.353
79.8595
8.55727
8.84829
9.6795
10.9708
12.6463
14.7534
17.3762
20.6539
24.9324
29.9779
36.2133
43.7997
53.1972
64.4347
78.7279
95.0965
117.373
139.553
172.237
184.267
195.041
77.5016
8.55686
8.84782
9.67887
10.9699
12.6449
14.7512
17.3728
20.6355
24.904
29.9627
36.2063
43.7851
53.1665
64.3799
78.6135
94.8675
116.904
138.717
170.617
181.762
189.648
75.132
8.55643
8.84732
9.67821
10.9689
12.6434
14.7488
17.3693
20.6196
24.8702
29.9437
36.1974
43.7705
53.1368
64.3211
78.4936
94.6278
116.413
137.842
168.914
179.185
184.179
72.7647
8.55597
8.8468
9.67752
10.9679
12.6419
14.7464
17.3656
20.6063
24.8314
29.9198
36.1853
43.7553
53.105
64.2607
78.3682
94.3775
115.898
136.928
167.129
176.532
178.638
70.4136
8.55548
8.84624
9.67677
10.9668
12.6402
14.7438
17.3616
20.5953
24.7888
29.8899
36.1689
43.7392
53.0739
64.1958
78.2362
94.1151
115.359
135.973
165.258
173.804
173.03
68.0915
8.55496
8.84565
9.67599
10.9656
12.6385
14.741
17.3574
20.586
24.7442
29.8533
36.1463
43.7211
53.0403
64.1287
78.0976
93.8406
114.794
134.975
163.302
170.998
167.358
65.8088
8.55441
8.84502
9.67516
10.9644
12.6366
14.738
17.3529
20.5778
24.6997
29.8095
36.1156
43.6999
53.0069
64.0565
77.9512
93.5523
114.201
133.933
161.261
168.113
161.627
63.5724
8.55383
8.84436
9.67427
10.9631
12.6347
14.7349
17.3481
20.57
24.6576
29.7588
36.0746
43.6736
52.9702
63.9814
77.7968
93.25
113.58
132.845
159.134
165.147
155.843
61.3852
8.55321
8.84365
9.67334
10.9617
12.6326
14.7316
17.343
20.5623
24.6198
29.7025
36.021
43.6396
52.9322
63.9005
77.6332
92.932
112.928
131.709
156.919
162.1
150.011
59.2452
8.55256
8.8429
9.67234
10.9603
12.6304
14.7281
17.3376
20.5543
24.5872
29.6427
35.9535
43.5938
52.888
63.8159
77.4603
92.5981
112.245
130.523
154.618
158.968
144.138
57.1451
8.55186
8.84211
9.67128
10.9587
12.628
14.7244
17.3319
20.5458
24.5595
29.5822
35.8719
43.5317
52.8377
63.7243
77.2767
92.2464
111.528
129.285
152.228
155.752
138.234
55.0731
8.55112
8.84126
9.67016
10.9571
12.6255
14.7204
17.3258
20.5368
24.5358
29.5237
35.7784
43.448
52.7738
63.627
77.0823
91.8768
110.775
127.993
149.75
152.448
132.306
53.0124
8.55034
8.84037
9.66896
10.9553
12.6229
14.7162
17.3193
20.5272
24.5149
29.4692
35.6767
43.3386
52.6916
63.519
76.8754
91.4874
109.986
126.646
147.182
149.056
126.366
50.9432
8.5495
8.83941
9.66769
10.9535
12.6201
14.7118
17.3124
20.5169
24.4953
29.4197
35.5722
43.2024
52.5789
63.3982
76.6549
91.078
109.159
125.241
144.526
145.574
120.427
48.8429
8.54861
8.8384
9.66634
10.9515
12.6171
14.7071
17.3051
20.5059
24.4761
29.3749
35.4699
43.0428
52.4272
63.2547
76.4175
90.6464
108.293
123.776
141.78
142
114.5
46.6879
8.54767
8.83732
9.6649
10.9494
12.6139
14.702
17.2973
20.4941
24.4565
29.334
35.3739
42.868
52.2266
63.0787
76.1586
90.1915
107.388
122.25
138.945
138.334
108.601
44.4548
8.54666
8.83617
9.66337
10.9471
12.6105
14.6967
17.289
20.4816
24.4362
29.2955
35.2857
42.6886
51.9779
62.8529
75.8686
89.7094
106.44
120.661
136.022
134.573
102.742
42.1218
8.54559
8.83495
9.66174
10.9447
12.6069
14.691
17.2802
20.4682
24.4148
29.2578
35.2053
42.5145
51.6889
62.5636
75.5339
89.1957
105.451
119.008
133.011
130.718
96.9383
39.6701
8.54445
8.83365
9.66001
10.9422
12.6031
14.685
17.2708
20.454
24.392
29.2196
35.1307
42.3523
51.3789
62.2012
75.1341
88.6402
104.415
117.289
129.914
126.77
91.205
37.0846
8.54323
8.83227
9.65816
10.9395
12.599
14.6786
17.2609
20.4389
24.3678
29.18
35.0593
42.2037
51.0679
61.7725
74.6489
88.0295
103.33
115.503
126.732
122.729
85.5559
34.3551
8.54193
8.83079
9.65619
10.9366
12.5946
14.6717
17.2503
20.4227
24.342
29.1386
34.9885
42.0667
50.7727
61.2972
74.064
87.3433
102.187
113.648
123.467
118.598
80.0051
31.477
8.54055
8.82922
9.65408
10.9335
12.59
14.6645
17.239
20.4055
24.3145
29.0948
34.9161
41.9369
50.5008
60.8063
73.3828
86.5612
100.975
111.722
120.122
114.381
74.5658
28.4516
8.53908
8.82754
9.65184
10.9302
12.585
14.6567
17.227
20.3872
24.2853
29.0482
34.8406
41.8093
50.251
60.3267
72.6297
85.6677
99.6789
109.724
116.702
110.082
69.2507
25.2864
8.5375
8.82575
9.64945
10.9267
12.5797
14.6485
17.2142
20.3677
24.2542
28.9987
34.7612
41.6797
50.0159
59.875
71.844
84.6637
98.2828
107.653
113.214
105.711
64.0719
21.9949
8.53582
8.82384
9.6469
10.923
12.5741
14.6397
17.2006
20.3468
24.2211
28.9462
34.6772
41.545
49.7863
59.4524
71.0651
83.5697
96.7767
105.506
109.67
101.275
59.0415
18.5962
8.53403
8.8218
9.64417
10.919
12.5681
14.6303
17.1861
20.3246
24.1858
28.8902
34.588
41.4034
49.5538
59.0495
70.3172
82.4229
95.1628
103.286
106.085
96.7901
54.1723
15.1142
8.53212
8.81963
9.64126
10.9148
12.5617
14.6203
17.1706
20.301
24.1482
28.8307
34.4933
41.2537
49.3124
58.6521
69.6037
81.2618
93.4581
100.999
102.484
92.2751
49.4783
11.5775
8.53007
8.8173
9.63815
10.9102
12.5548
14.6097
17.1541
20.2757
24.1082
28.7674
34.3927
41.0951
49.0587
58.2471
68.9111
80.1123
91.6908
98.6546
98.8962
87.7564
44.9758
8.01816
8.52788
8.81482
9.63483
10.9054
12.5475
14.5983
17.1366
20.2488
24.0656
28.7
34.2858
40.9269
48.7909
57.8253
68.2186
78.9795
89.8897
96.2649
95.3556
83.2682
40.6835
4.47194
8.52555
8.81217
9.63127
10.9002
12.5397
14.5862
17.1178
20.22
24.0201
28.6283
34.1723
40.7485
48.5077
57.3814
67.5071
77.8509
88.0743
93.8364
91.8905
78.8511
36.6228
0.977488
8.52305
8.80933
9.62748
10.8946
12.5313
14.5732
17.0978
20.1893
23.9717
28.552
34.0516
40.5591
48.2083
56.9133
66.7633
76.7049
86.2495
91.3665
88.5136
74.548
32.8159
-2.42417
8.52037
8.8063
9.62341
10.8887
12.5224
14.5594
17.0765
20.1566
23.9201
28.4707
33.9233
40.3582
47.8915
56.4196
65.9812
75.5205
84.4065
88.8462
85.2116
70.3955
29.2832
-5.69077
8.51751
8.80306
9.61907
10.8824
12.5129
14.5447
17.0537
20.1217
23.8652
28.3842
33.787
40.145
47.5563
55.8991
65.159
74.2837
82.5272
86.2678
81.9432
66.4116
26.0386
-8.78063
8.51445
8.79959
9.61442
10.8756
12.5027
14.5289
17.0294
20.0843
23.8065
28.2921
33.6421
39.9189
47.2017
55.3503
64.2966
72.9889
80.5916
83.6283
78.6551
62.5837
23.0828
-11.6555
8.51117
8.79587
9.60945
10.8683
12.4918
14.5121
17.0035
20.0445
23.7441
28.1941
33.4882
39.6792
46.8268
54.7718
63.3935
71.6362
78.5868
80.9252
75.3073
58.8668
20.396
-14.2843
8.50766
8.7919
9.60412
10.8605
12.4801
14.4941
16.9758
20.002
23.6774
28.0897
33.3248
39.425
46.4305
54.1625
62.4486
70.2276
76.5101
78.1543
71.8882
55.199
17.9322
-16.6478
8.50391