/*--------------------------------*- C++ -*----------------------------------*\
| =========                 |                                                 |
| \\      /  F ield         | OpenFOAM: The Open Source CFD Toolbox           |
|  \\    /   O peration     | Version:  v1912                                 |
|   \\  /    A nd           | Website:  www.openfoam.com                      |
|    \\/     M anipulation  |                                                 |
\*---------------------------------------------------------------------------*/
FoamFile
{
    version     2.0;
    format      ascii;
    class       surfaceScalarField;
    location    "270";
    object      phi;
}
// * * * * * * * * * * * * * * * * * * * * * * * * * * * * * * * * * * * * * //

dimensions      [0 3 -1 0 0 0 0];
oriented        oriented;


internalField   nonuniform List<scalar> 
24588
(
6.81687e-05
1.93264e-08
6.81163e-05
5.30842e-08
6.80338e-05
8.19571e-08
6.79214e-05
1.12292e-07
6.77743e-05
1.46095e-07
6.75894e-05
1.85491e-07
6.73574e-05
2.30934e-07
6.70676e-05
2.90983e-07
6.67058e-05
3.59927e-07
6.62558e-05
4.50221e-07
6.57076e-05
5.47345e-07
6.49622e-05
7.18522e-07
6.41649e-05
8.82225e-07
6.29286e-05
1.14464e-06
6.1507e-05
1.46399e-06
5.91876e-05
2.29838e-06
5.63168e-05
2.87486e-06
5.1603e-05
4.71286e-06
4.49844e-05
6.61862e-06
3.38372e-05
1.11477e-05
2.01354e-05
1.37018e-05
2.01354e-05
6.8169e-05
3.91518e-08
6.81162e-05
1.06816e-07
6.80336e-05
1.63738e-07
6.79215e-05
2.24323e-07
6.77744e-05
2.91867e-07
6.75896e-05
3.70905e-07
6.73575e-05
4.61758e-07
6.70678e-05
5.82132e-07
6.67058e-05
7.196e-07
6.62568e-05
8.99438e-07
6.57056e-05
1.09737e-06
6.49599e-05
1.43377e-06
6.41796e-05
1.75579e-06
6.29111e-05
2.32275e-06
6.14948e-05
2.92428e-06
5.92413e-05
4.5323e-06
5.63303e-05
5.79288e-06
5.15708e-05
9.47126e-06
4.50292e-05
1.31605e-05
3.37412e-05
2.24365e-05
2.00939e-05
2.7349e-05
4.02292e-05
6.81689e-05
5.89803e-08
6.81162e-05
1.60551e-07
6.80336e-05
2.45542e-07
6.79215e-05
3.36397e-07
6.77743e-05
4.37695e-07
6.75896e-05
5.56348e-07
6.73574e-05
6.92674e-07
6.70677e-05
8.73276e-07
6.67057e-05
1.07936e-06
6.62564e-05
1.34901e-06
6.57069e-05
1.64576e-06
6.49569e-05
2.15223e-06
6.41784e-05
2.63347e-06
6.29225e-05
3.4716e-06
6.15018e-05
4.39365e-06
5.92791e-05
6.73043e-06
5.63298e-05
8.7509e-06
5.15915e-05
1.42075e-05
4.50041e-05
1.97481e-05
3.37605e-05
3.36811e-05
2.01136e-05
4.09959e-05
6.03428e-05
6.81689e-05
7.88048e-08
6.81162e-05
2.14234e-07
6.80337e-05
3.27314e-07
6.79215e-05
4.48419e-07
6.77744e-05
5.83416e-07
6.75897e-05
7.41711e-07
6.73576e-05
9.23466e-07
6.70679e-05
1.16435e-06
6.67059e-05
1.439e-06
6.62568e-05
1.79839e-06
6.57057e-05
2.19561e-06
6.49611e-05
2.86634e-06
6.41758e-05
3.51076e-06
6.29107e-05
4.64973e-06
6.1488e-05
5.85839e-06
5.92924e-05
8.90707e-06
5.63507e-05
1.17004e-05
5.16057e-05
1.89513e-05
4.49923e-05
2.63619e-05
3.37881e-05
4.48861e-05
2.0147e-05
5.46371e-05
8.04897e-05
6.81689e-05
9.86275e-08
6.81162e-05
2.67909e-07
6.80337e-05
4.09104e-07
6.79215e-05
5.60496e-07
6.77744e-05
7.29204e-07
6.75896e-05
9.2711e-07
6.73575e-05
1.15437e-06
6.70678e-05
1.45543e-06
6.67058e-05
1.79872e-06
6.62565e-05
2.24798e-06
6.57071e-05
2.74395e-06
6.49568e-05
3.58561e-06
6.4174e-05
4.39363e-06
6.29227e-05
5.79403e-06
6.14943e-05
7.33603e-06
5.93046e-05
1.10722e-05
5.63771e-05
1.46367e-05
5.16072e-05
2.37188e-05
4.50099e-05
3.29593e-05
3.38328e-05
5.60642e-05
2.0195e-05
6.82749e-05
0.000100685
6.81689e-05
1.18449e-07
6.81162e-05
3.21538e-07
6.80337e-05
4.90855e-07
6.79216e-05
6.72498e-07
6.77745e-05
8.74843e-07
6.75898e-05
1.11241e-06
6.73577e-05
1.3851e-06
6.7068e-05
1.74644e-06
6.67061e-05
2.15826e-06
6.6257e-05
2.69735e-06
6.57056e-05
3.29411e-06
6.49629e-05
4.29818e-06
6.41732e-05
5.27211e-06
6.29107e-05
6.97467e-06
6.14822e-05
8.80399e-06
5.93004e-05
1.32361e-05
5.6391e-05
1.75537e-05
5.16162e-05
2.84925e-05
4.50404e-05
3.95357e-05
3.38972e-05
6.72083e-05
2.02596e-05
8.19124e-05
0.000120944
6.81689e-05
1.38269e-07
6.81162e-05
3.75162e-07
6.80337e-05
5.72627e-07
6.79215e-05
7.84569e-07
6.77744e-05
1.02056e-06
6.75897e-05
1.29776e-06
6.73576e-05
1.61597e-06
6.70679e-05
2.03745e-06
6.6706e-05
2.51789e-06
6.62568e-05
3.14683e-06
6.5707e-05
3.84282e-06
6.49566e-05
5.01855e-06
6.41718e-05
6.15666e-06
6.29256e-05
8.11266e-06
6.14897e-05
1.02896e-05
5.92988e-05
1.5403e-05
5.64079e-05
2.04519e-05
5.16354e-05
3.32626e-05
4.50861e-05
4.6085e-05
3.39875e-05
7.83076e-05
2.03435e-05
9.55564e-05
0.000141288
6.81689e-05
1.58089e-07
6.81162e-05
4.28743e-07
6.80337e-05
6.54358e-07
6.79216e-05
8.96546e-07
6.77746e-05
1.16611e-06
6.75899e-05
1.483e-06
6.73579e-05
1.84663e-06
6.70682e-05
2.32838e-06
6.67064e-05
2.8773e-06
6.62573e-05
3.59613e-06
6.57054e-05
4.39351e-06
6.49653e-05
5.72886e-06
6.41726e-05
7.03328e-06
6.29118e-05
9.29745e-06
6.14693e-05
1.177e-05
5.92821e-05
1.75753e-05
5.64233e-05
2.33165e-05
5.16767e-05
3.80086e-05
4.51597e-05
5.26026e-05
3.41134e-05
8.93547e-05
2.04502e-05
0.000109219
0.000161738
6.81689e-05
1.77906e-07
6.81162e-05
4.82319e-07
6.80337e-05
7.36113e-07
6.79216e-05
1.00861e-06
6.77745e-05
1.31175e-06
6.75898e-05
1.66829e-06
6.73578e-05
2.07746e-06
6.70681e-05
2.61931e-06
6.67062e-05
3.23683e-06
6.62572e-05
4.04542e-06
6.57072e-05
4.9425e-06
6.49568e-05
6.45054e-06
6.41654e-05
7.92559e-06
6.29231e-05
1.04341e-05
6.14585e-05
1.32768e-05
5.92866e-05
1.97303e-05
5.64262e-05
2.61803e-05
5.17638e-05
4.26691e-05
4.52763e-05
5.90899e-05
3.4284e-05
0.000100347
2.05834e-05
0.00012292
0.000182321
6.81689e-05
1.97722e-07
6.81162e-05
5.35853e-07
6.80337e-05
8.17833e-07
6.79217e-05
1.12055e-06
6.77746e-05
1.45721e-06
6.759e-05
1.85346e-06
6.7358e-05
2.30807e-06
6.70684e-05
2.91016e-06
6.67067e-05
3.59609e-06
6.62578e-05
4.49454e-06
6.57049e-05
5.49421e-06
6.49693e-05
7.1569e-06
6.41653e-05
8.80519e-06
6.29071e-05
1.16248e-05
6.14272e-05
1.47828e-05
5.93045e-05
2.18463e-05
5.64217e-05
2.90661e-05
5.18933e-05
4.71976e-05
4.54381e-05
6.55456e-05
3.45026e-05
0.000111283
2.07462e-05
0.000136676
0.000203068
6.81689e-05
2.17535e-07
6.81163e-05
5.89385e-07
6.80337e-05
8.99583e-07
6.79216e-05
1.2326e-06
6.77746e-05
1.60278e-06
6.75899e-05
2.03871e-06
6.73579e-05
2.53887e-06
6.70683e-05
3.20101e-06
6.67066e-05
3.95545e-06
6.62577e-05
4.94373e-06
6.5706e-05
6.0449e-06
6.49595e-05
7.87647e-06
6.41382e-05
9.72303e-06
6.28992e-05
1.27781e-05
6.14054e-05
1.62984e-05
5.93255e-05
2.3918e-05
5.64292e-05
3.19632e-05
5.2044e-05
5.15814e-05
4.5628e-05
7.19613e-05
3.47623e-05
0.000122149
2.09396e-05
0.000150499
0.000224007
6.81689e-05
2.37345e-07
6.81163e-05
6.42875e-07
6.80338e-05
9.81303e-07
6.79217e-05
1.34453e-06
6.77747e-05
1.74815e-06
6.75901e-05
2.22381e-06
6.73582e-05
2.76942e-06
6.70686e-05
3.49178e-06
6.67071e-05
4.31452e-06
6.62584e-05
5.39257e-06
6.57024e-05
6.59971e-06
6.4972e-05
8.58003e-06
6.41238e-05
1.06317e-05
6.28959e-05
1.39659e-05
6.13887e-05
1.78158e-05
5.93434e-05
2.59625e-05
5.64491e-05
3.4859e-05
5.21858e-05
5.58451e-05
4.58222e-05
7.83253e-05
3.50495e-05
0.000132922
2.11625e-05
0.000164386
0.00024517
6.81689e-05
2.57151e-07
6.81163e-05
6.96363e-07
6.80338e-05
1.06306e-06
6.79217e-05
1.45657e-06
6.77747e-05
1.89367e-06
6.759e-05
2.40899e-06
6.7358e-05
3.00021e-06
6.70685e-05
3.78254e-06
6.67071e-05
4.67353e-06
6.62586e-05
5.84137e-06
6.57008e-05
7.15654e-06
6.49659e-05
9.29163e-06
6.40929e-05
1.15807e-05
6.29041e-05
1.51154e-05
6.13815e-05
1.93459e-05
5.93573e-05
2.7983e-05
5.64728e-05
3.77433e-05
5.23012e-05
6.00158e-05
4.60044e-05
8.46218e-05
3.53502e-05
0.000143577
2.14118e-05
0.000178324
0.000266582
6.81689e-05
2.76954e-07
6.81163e-05
7.49808e-07
6.80338e-05
1.14479e-06
6.79217e-05
1.56847e-06
6.77748e-05
2.03897e-06
6.75902e-05
2.59403e-06
6.73583e-05
3.23074e-06
6.70688e-05
4.07325e-06
6.67076e-05
5.03224e-06
6.62598e-05
6.28939e-06
6.56953e-05
7.71983e-06
6.49713e-05
9.99466e-06
6.40885e-05
1.24916e-05
6.29102e-05
1.62841e-05
6.13776e-05
2.08809e-05
5.93664e-05
2.99952e-05
5.6494e-05
4.06165e-05
5.23895e-05
6.41209e-05
4.61683e-05
9.08432e-05
3.5654e-05
0.000154091
2.16836e-05
0.000192295
0.000288265
6.81689e-05
2.96752e-07
6.81163e-05
8.03253e-07
6.80338e-05
1.22655e-06
6.79217e-05
1.6805e-06
6.77747e-05
2.18444e-06
6.75901e-05
2.77915e-06
6.73582e-05
3.46152e-06
6.70686e-05
4.36397e-06
6.67077e-05
5.39083e-06
6.62602e-05
6.73715e-06
6.56897e-05
8.28951e-06
6.49632e-05
1.07048e-05
6.40789e-05
1.34108e-05
6.2912e-05
1.74352e-05
6.13757e-05
2.24199e-05
5.93719e-05
3.19967e-05
5.65103e-05
4.34778e-05
5.24566e-05
6.81738e-05
4.63136e-05
9.69859e-05
3.59544e-05
0.000164451
2.19737e-05
0.000206276
0.000310239
6.81689e-05
3.16546e-07
6.81163e-05
8.56653e-07
6.80338e-05
1.3083e-06
6.79218e-05
1.79238e-06
6.77749e-05
2.32968e-06
6.75904e-05
2.96411e-06
6.73585e-05
3.69202e-06
6.70689e-05
4.65469e-06
6.67081e-05
5.74921e-06
6.62615e-05
7.18387e-06
6.56816e-05
8.86846e-06
6.49609e-05
1.14129e-05
6.40729e-05
1.43024e-05
6.2911e-05
1.85974e-05
6.13746e-05
2.39567e-05
5.9375e-05
3.39976e-05
5.65222e-05
4.63311e-05
5.2509e-05
7.21875e-05
4.64424e-05
0.000103053
3.62482e-05
0.000174645
2.22787e-05
0.000220245
0.000332517
6.81689e-05
3.36333e-07
6.81163e-05
9.10053e-07
6.80338e-05
1.39009e-06
6.79217e-05
1.90441e-06
6.77748e-05
2.47511e-06
6.75902e-05
3.14918e-06
6.73583e-05
3.92281e-06
6.70687e-05
4.94546e-06
6.67081e-05
6.1075e-06
6.62623e-05
7.63001e-06
6.567e-05
9.45997e-06
6.49612e-05
1.21149e-05
6.40669e-05
1.52133e-05
6.29099e-05
1.97465e-05
6.13741e-05
2.54939e-05
5.93765e-05
3.59934e-05
5.65305e-05
4.91768e-05
5.25515e-05
7.61659e-05
4.65576e-05
0.000109046
3.65342e-05
0.000184668
2.25958e-05
0.000234183
0.000355113
6.81689e-05
3.56116e-07
6.81163e-05
9.63409e-07
6.80338e-05
1.47185e-06
6.79218e-05
2.01626e-06
6.77749e-05
2.62028e-06
6.75905e-05
3.33406e-06
6.73587e-05
4.15329e-06
6.7069e-05
5.23619e-06
6.67085e-05
6.46566e-06
6.62635e-05
8.07507e-06
6.56603e-05
1.00623e-05
6.49639e-05
1.2807e-05
6.40631e-05
1.61108e-05
6.29088e-05
2.09035e-05
6.13738e-05
2.70288e-05
5.93771e-05
3.79912e-05
5.65364e-05
5.2018e-05
5.25878e-05
8.01149e-05
4.66625e-05
0.000114972
3.68126e-05
0.000194518
2.29229e-05
0.000248073
0.000378036
6.81689e-05
3.75892e-07
6.81163e-05
1.01677e-06
6.80338e-05
1.55366e-06
6.79217e-05
2.12828e-06
6.77749e-05
2.76567e-06
6.75903e-05
3.51906e-06
6.73584e-05
4.38408e-06
6.70689e-05
5.52689e-06
6.67084e-05
6.82384e-06
6.62631e-05
8.52073e-06
6.56543e-05
1.06705e-05
6.49647e-05
1.34951e-05
6.40604e-05
1.70247e-05
6.2908e-05
2.20503e-05
6.13737e-05
2.8564e-05
5.93773e-05
3.99862e-05
5.65409e-05
5.48541e-05
5.26207e-05
8.40346e-05
4.67601e-05
0.000120832
3.70847e-05
0.000204194
2.3259e-05
0.000261899
0.000401295
6.81689e-05
3.95664e-07
6.81163e-05
1.07008e-06
6.80338e-05
1.63545e-06
6.79218e-05
2.24011e-06
6.7775e-05
2.91078e-06
6.75906e-05
3.70386e-06
6.73588e-05
4.61452e-06
6.70693e-05
5.81753e-06
6.67088e-05
7.18196e-06
6.62595e-05
8.97011e-06
6.56548e-05
1.12746e-05
6.49646e-05
1.4184e-05
6.40587e-05
1.79259e-05
6.29075e-05
2.32046e-05
6.1374e-05
3.00972e-05
5.93774e-05
4.19839e-05
5.65448e-05
5.7687e-05
5.26521e-05
8.79278e-05
4.68529e-05
0.000126632
3.7352e-05
0.000213695
2.36033e-05
0.000275647
0.000424898
6.81689e-05
4.15426e-07
6.81163e-05
1.12339e-06
6.80338e-05
1.71729e-06
6.79218e-05
2.35213e-06
6.77749e-05
3.05615e-06
6.75904e-05
3.8888e-06
6.73586e-05
4.84528e-06
6.70691e-05
6.10814e-06
6.67087e-05
7.54015e-06
6.62503e-05
9.42885e-06
6.56603e-05
1.18643e-05
6.49639e-05
1.48802e-05
6.40576e-05
1.88393e-05
6.29072e-05
2.43506e-05
6.13745e-05
3.16306e-05
5.93777e-05
4.39794e-05
5.65491e-05
6.05154e-05
5.26838e-05
9.17926e-05
4.69432e-05
0.000132372
3.76165e-05
0.000223021
2.3956e-05
0.000289308
0.000448854
6.81689e-05
4.35186e-07
6.81163e-05
1.17665e-06
6.80339e-05
1.79909e-06
6.79219e-05
2.46393e-06
6.77751e-05
3.20121e-06
6.75907e-05
4.07353e-06
6.73591e-05
5.07561e-06
6.70695e-05
6.39877e-06
6.67092e-05
7.89814e-06
6.62408e-05
9.89737e-06
6.5667e-05
1.24378e-05
6.49634e-05
1.55831e-05
6.4057e-05
1.9741e-05
6.29073e-05
2.55033e-05
6.13755e-05
3.31621e-05
5.93788e-05
4.59771e-05
5.65543e-05
6.33403e-05
5.27168e-05
9.56305e-05
4.70328e-05
0.000138056
3.78803e-05
0.000232174
2.43173e-05
0.000302871
0.000473172
6.81689e-05
4.54936e-07
6.81163e-05
1.22992e-06
6.80339e-05
1.88096e-06
6.79218e-05
2.57594e-06
6.7775e-05
3.34654e-06
6.75905e-05
4.25842e-06
6.73589e-05
5.30626e-06
6.70693e-05
6.68941e-06
6.67092e-05
8.25607e-06
6.62334e-05
1.03735e-05
6.56713e-05
1.29999e-05
6.49629e-05
1.62916e-05
6.40568e-05
2.0653e-05
6.29076e-05
2.66486e-05
6.13769e-05
3.46935e-05
5.93808e-05
4.79721e-05
5.6561e-05
6.61598e-05
5.27519e-05
9.9439e-05
4.71231e-05
0.000143685
3.81456e-05
0.000241151
2.4688e-05
0.000316329
0.00049786
6.81689e-05
4.74683e-07
6.81163e-05
1.28314e-06
6.80339e-05
1.96279e-06
6.79219e-05
2.68772e-06
6.77752e-05
3.49154e-06
6.75909e-05
4.44308e-06
6.73594e-05
5.53649e-06
6.70697e-05
6.98005e-06
6.67098e-05
8.6137e-06
6.62296e-05
1.08538e-05
6.56735e-05
1.35558e-05
6.49626e-05
1.70021e-05
6.40568e-05
2.15543e-05
6.29083e-05
2.78e-05
6.13789e-05
3.62225e-05
5.93842e-05
4.99677e-05
5.65698e-05
6.89746e-05
5.27896e-05
0.00010322
4.72152e-05
0.000149259
3.84146e-05
0.000249952
2.50692e-05
0.000329674
0.000522929
6.81689e-05
4.94419e-07
6.81163e-05
1.33637e-06
6.80339e-05
2.04469e-06
6.79218e-05
2.79972e-06
6.77751e-05
3.63685e-06
6.75907e-05
4.62789e-06
6.73591e-05
5.7671e-06
6.70696e-05
7.27059e-06
6.67097e-05
8.9715e-06
6.62272e-05
1.13367e-05
6.56744e-05
1.41087e-05
6.49625e-05
1.77141e-05
6.40571e-05
2.2465e-05
6.29092e-05
2.89443e-05
6.13816e-05
3.77507e-05
5.93892e-05
5.1959e-05
5.65808e-05
7.17827e-05
5.28299e-05
0.00010697
4.73098e-05
0.000154779
3.86896e-05
0.000258572
2.54622e-05
0.000342901
0.000548391
6.81689e-05
5.14152e-07
6.81164e-05
1.38955e-06
6.80339e-05
2.12654e-06
6.79219e-05
2.91147e-06
6.77753e-05
3.78179e-06
6.7591e-05
4.81246e-06
6.73596e-05
5.9973e-06
6.70701e-05
7.56101e-06
6.67088e-05
9.33061e-06
6.62272e-05
1.18184e-05
6.56749e-05
1.46609e-05
6.49626e-05
1.84259e-05
6.40576e-05
2.33658e-05
6.29106e-05
3.00941e-05
6.13851e-05
3.92759e-05
5.9396e-05
5.39491e-05
5.65944e-05
7.45846e-05
5.28729e-05
0.000110692
4.74074e-05
0.000160245
3.89727e-05
0.000267007
2.58685e-05
0.000356006
0.00057426
6.81689e-05
5.33874e-07
6.81164e-05
1.44273e-06
6.80339e-05
2.20846e-06
6.79218e-05
3.02346e-06
6.77752e-05
3.92707e-06
6.75908e-05
4.99719e-06
6.73593e-05
6.22792e-06
6.70701e-05
7.85121e-06
6.67037e-05
9.69495e-06
6.62301e-05
1.22925e-05
6.56751e-05
1.5216e-05
6.49628e-05
1.91383e-05
6.40583e-05
2.42752e-05
6.29123e-05
3.12366e-05
6.13894e-05
4.07994e-05
5.94045e-05
5.59328e-05
5.66105e-05
7.73784e-05
5.29184e-05
0.000114384
4.75084e-05
0.000165655
3.92659e-05
0.00027525
2.62895e-05
0.000368982
0.000600549
6.81689e-05
5.53595e-07
6.81164e-05
1.49586e-06
6.80339e-05
2.29033e-06
6.7922e-05
3.13517e-06
6.77754e-05
4.07197e-06
6.75912e-05
5.18165e-06
6.73598e-05
6.45812e-06
6.70708e-05
8.14116e-06
6.6697e-05
1.00666e-05
6.62352e-05
1.27542e-05
6.56754e-05
1.57757e-05
6.49632e-05
1.98501e-05
6.40592e-05
2.51751e-05
6.29144e-05
3.23841e-05
6.13946e-05
4.2319e-05
5.94149e-05
5.79135e-05
5.66292e-05
8.01644e-05
5.29666e-05
0.000118047
4.76127e-05
0.000171009
3.95709e-05
0.000283292
2.67269e-05
0.000381826
0.000627276
6.81689e-05
5.73303e-07
6.81164e-05
1.549e-06
6.80339e-05
2.37228e-06
6.79219e-05
3.24715e-06
6.77752e-05
4.21723e-06
6.7591e-05
5.36629e-06
6.73595e-05
6.68878e-06
6.70708e-05
8.43087e-06
6.66914e-05
1.04441e-05
6.62389e-05
1.32071e-05
6.56757e-05
1.6339e-05
6.49637e-05
2.05623e-05
6.40603e-05
2.60831e-05
6.2917e-05
3.3524e-05
6.14006e-05
4.38359e-05
5.94269e-05
5.9886e-05
5.66505e-05
8.29405e-05
5.30173e-05
0.000121679
4.77205e-05
0.000176305
3.98889e-05
0.000291123
2.7182e-05
0.000394533
0.000654458
6.81689e-05
5.9301e-07
6.81164e-05
1.60209e-06
6.8034e-05
2.45417e-06
6.7922e-05
3.35883e-06
6.77755e-05
4.36208e-06
6.75914e-05
5.55063e-06
6.736e-05
6.91896e-06
6.70715e-05
8.72037e-06
6.66881e-05
1.08255e-05
6.62415e-05
1.36536e-05
6.56761e-05
1.69043e-05
6.49643e-05
2.12738e-05
6.40615e-05
2.69818e-05
6.292e-05
3.46684e-05
6.14074e-05
4.53482e-05
5.94404e-05
6.1854e-05
5.66744e-05
8.57069e-05
5.30705e-05
0.000125284
4.78315e-05
0.000181544
4.02209e-05
0.000298734
2.76561e-05
0.000407098
0.000682114
6.81689e-05
6.12704e-07
6.81164e-05
1.65519e-06
6.8034e-05
2.53615e-06
6.79219e-05
3.4708e-06
6.77753e-05
4.50731e-06
6.75911e-05
5.73518e-06
6.73597e-05
7.14959e-06
6.70713e-05
9.00973e-06
6.66858e-05
1.12092e-05
6.62432e-05
1.40966e-05
6.56765e-05
1.74711e-05
6.4965e-05
2.19854e-05
6.4063e-05
2.78881e-05
6.29233e-05
3.58047e-05
6.1415e-05
4.68569e-05
5.94555e-05
6.38123e-05
5.67007e-05
8.84613e-05
5.31264e-05
0.000128857
4.79456e-05
0.000186725
4.05672e-05
0.000306112
2.815e-05
0.000419515
0.000710264
6.81689e-05
6.32398e-07
6.81164e-05
1.70824e-06
6.8034e-05
2.61805e-06
6.79221e-05
3.58244e-06
6.77756e-05
4.65209e-06
6.75915e-05
5.91943e-06
6.73603e-05
7.37967e-06
6.70719e-05
9.29902e-06
6.66848e-05
1.15946e-05
6.62447e-05
1.45366e-05
6.56771e-05
1.80386e-05
6.49658e-05
2.26964e-05
6.40647e-05
2.87853e-05
6.29271e-05
3.69451e-05
6.14233e-05
4.83605e-05
5.94719e-05
6.57648e-05
5.67297e-05
9.12039e-05
5.31849e-05
0.000132403
4.80625e-05
0.000191848
4.09277e-05
0.000313247
2.86645e-05
0.000431778
0.000738929
6.81689e-05
6.52078e-07
6.81164e-05
1.76129e-06
6.8034e-05
2.70005e-06
6.7922e-05
3.69439e-06
6.77754e-05
4.7973e-06
6.75913e-05
6.10391e-06
6.73601e-05
7.61018e-06
6.70717e-05
9.58831e-06
6.66841e-05
1.19805e-05
6.62459e-05
1.49751e-05
6.56777e-05
1.86069e-05
6.49667e-05
2.34076e-05
6.40666e-05
2.96898e-05
6.29312e-05
3.80771e-05
6.14323e-05
4.98599e-05
5.94897e-05
6.77061e-05
5.67612e-05
9.39321e-05
5.32462e-05
0.000135917
4.81822e-05
0.000196911
4.13019e-05
0.000320127
2.91997e-05
0.00044388
0.000768128
6.81689e-05
6.7176e-07
6.81164e-05
1.8143e-06
6.8034e-05
2.78197e-06
6.79221e-05
3.80599e-06
6.77757e-05
4.94201e-06
6.75917e-05
6.28809e-06
6.73607e-05
7.84005e-06
6.70722e-05
9.87772e-06
6.66841e-05
1.2367e-05
6.62471e-05
1.5412e-05
6.56784e-05
1.91755e-05
6.49677e-05
2.4118e-05
6.40686e-05
3.05851e-05
6.29357e-05
3.92129e-05
6.14418e-05
5.13536e-05
5.95087e-05
6.96403e-05
5.67952e-05
9.6646e-05
5.33104e-05
0.000139402
4.83048e-05
0.000201917
4.16896e-05
0.000326743
2.97559e-05
0.000455814
0.000797884
6.81689e-05
6.91428e-07
6.81164e-05
1.86732e-06
6.8034e-05
2.86398e-06
6.7922e-05
3.91792e-06
6.77756e-05
5.08717e-06
6.75914e-05
6.47252e-06
6.73605e-05
8.07033e-06
6.70719e-05
1.01673e-05
6.66839e-05
1.27534e-05
6.62482e-05
1.5848e-05
6.56792e-05
1.97445e-05
6.49688e-05
2.48284e-05
6.40708e-05
3.14872e-05
6.29405e-05
4.03397e-05
6.1452e-05
5.28424e-05
5.95289e-05
7.1562e-05
5.68317e-05
9.93429e-05
5.33777e-05
0.000142856
4.84304e-05
0.000206864
4.20902e-05
0.000333083
3.03332e-05
0.000467571
0.000828217
6.81689e-05
7.11099e-07
6.81164e-05
1.92029e-06
6.8034e-05
2.9459e-06
6.79222e-05
4.02949e-06
6.77759e-05
5.23179e-06
6.75919e-05
6.65666e-06
6.73612e-05
8.2999e-06
6.7072e-05
1.04573e-05
6.66844e-05
1.31396e-05
6.62493e-05
1.62831e-05
6.568e-05
2.03138e-05
6.49701e-05
2.55382e-05
6.40732e-05
3.23803e-05
6.29455e-05
4.14702e-05
6.14627e-05
5.43252e-05
5.95504e-05
7.34754e-05
5.68707e-05
0.000102023
5.34481e-05
0.000146279
4.85594e-05
0.000211753
4.25037e-05
0.000339139
3.09316e-05
0.000479143
0.000859149
6.81689e-05
7.30756e-07
6.81164e-05
1.97328e-06
6.80341e-05
3.02792e-06
6.79221e-05
4.14139e-06
6.77757e-05
5.37688e-06
6.75916e-05
6.84106e-06
6.7361e-05
8.52981e-06
6.70689e-05
1.07504e-05
6.66867e-05
1.35208e-05
6.62504e-05
1.67196e-05
6.5681e-05
2.08833e-05
6.49714e-05
2.62479e-05
6.40757e-05
3.328e-05
6.29509e-05
4.25914e-05
6.14739e-05
5.58025e-05
5.95729e-05
7.5375e-05
5.69122e-05
0.000104683
5.3522e-05
0.000149669
4.86922e-05
0.000216583
4.29302e-05
0.000344901
3.15516e-05
0.000490522
0.000890701
6.81689e-05
7.50416e-07
6.81164e-05
2.02621e-06
6.80341e-05
3.10985e-06
6.79223e-05
4.25291e-06
6.7776e-05
5.5214e-06
6.75921e-05
7.02513e-06
6.73618e-05
8.75903e-06
6.70605e-05
1.10525e-05
6.66956e-05
1.38852e-05
6.62515e-05
1.71635e-05
6.56819e-05
2.14528e-05
6.49728e-05
2.69567e-05
6.40784e-05
3.41707e-05
6.29566e-05
4.37161e-05
6.14857e-05
5.72734e-05
5.95966e-05
7.72651e-05
5.69561e-05
0.000107324
5.35995e-05
0.000153026
4.88291e-05
0.000221353
4.337e-05
0.00035036
3.21937e-05
0.000501698
0.000922894
6.81689e-05
7.7006e-07
6.81165e-05
2.07915e-06
6.80341e-05
3.19188e-06
6.79221e-05
4.3648e-06
6.77758e-05
5.66645e-06
6.75918e-05
7.20942e-06
6.73614e-05
8.98885e-06
6.70538e-05
1.13611e-05
6.67027e-05
1.42362e-05
6.62525e-05
1.76138e-05
6.56829e-05
2.20224e-05
6.49743e-05
2.76655e-05
6.40812e-05
3.50678e-05
6.29626e-05
4.48312e-05
6.14979e-05
5.87383e-05
5.96214e-05
7.91403e-05
5.70024e-05
0.000109943
5.36809e-05
0.000156347
4.89704e-05
0.000226063
4.38236e-05
0.000355507
3.28585e-05
0.000512663
0.000955753
6.81689e-05
7.89711e-07
6.81165e-05
2.13204e-06
6.80341e-05
3.27382e-06
6.79224e-05
4.47627e-06
6.77761e-05
5.8109e-06
6.75924e-05
7.39333e-06
6.7362e-05
9.21815e-06
6.70519e-05
1.16719e-05
6.67054e-05
1.45827e-05
6.62535e-05
1.80657e-05
6.5684e-05
2.25918e-05
6.49758e-05
2.83734e-05
6.40842e-05
3.59555e-05
6.29688e-05
4.59498e-05
6.15107e-05
6.01963e-05
5.96473e-05
8.10049e-05
5.70508e-05
0.00011254
5.37664e-05
0.000159632
4.91163e-05
0.000230714
4.42908e-05
0.000360332
3.35464e-05
0.000523407
0.000989299
6.81689e-05
8.09349e-07
6.81165e-05
2.18495e-06
6.80341e-05
3.35584e-06
6.79222e-05
4.5881e-06
6.7776e-05
5.95586e-06
6.75922e-05
7.57738e-06
6.73604e-05
9.44933e-06
6.70518e-05
1.19812e-05
6.67065e-05
1.4928e-05
6.62543e-05
1.8518e-05
6.56851e-05
2.31611e-05
6.49775e-05
2.90812e-05
6.40873e-05
3.68507e-05
6.29753e-05
4.70577e-05
6.15241e-05
6.16478e-05
5.96742e-05
8.28533e-05
5.71014e-05
0.000115112
5.38563e-05
0.000162876
4.92663e-05
0.000235303
4.47702e-05
0.000364828
3.4257e-05
0.000533921
0.00102356
6.81689e-05
8.28989e-07
6.81165e-05
2.2378e-06
6.80342e-05
3.43778e-06
6.79224e-05
4.69954e-06
6.77762e-05
6.10036e-06
6.75928e-05
7.76087e-06
6.73523e-05
9.68894e-06
6.70578e-05
1.22759e-05
6.6707e-05
1.52788e-05
6.62551e-05
1.89697e-05
6.56862e-05
2.37299e-05
6.49792e-05
2.97879e-05
6.40905e-05
3.7735e-05
6.2982e-05
4.81698e-05
6.15379e-05
6.3092e-05
5.97021e-05
8.46904e-05
5.71539e-05
0.000117661
5.39512e-05
0.000166079
4.94201e-05
0.000239835
4.52573e-05
0.000368991
3.4987e-05
0.000544191
0.00105854
6.81689e-05
8.4861e-07
6.81165e-05
2.29066e-06
6.80342e-05
3.51982e-06
6.79223e-05
4.81134e-06
6.7776e-05
6.24544e-06
6.75927e-05
7.94437e-06
6.73444e-05
9.93674e-06
6.7063e-05
1.25574e-05
6.67072e-05
1.56346e-05
6.62558e-05
1.94213e-05
6.56873e-05
2.42984e-05
6.49809e-05
3.04945e-05
6.40938e-05
3.86272e-05
6.2989e-05
4.92705e-05
6.15522e-05
6.45289e-05
5.97309e-05
8.65101e-05
5.72081e-05
0.000120183
5.40512e-05
0.000169236
4.95773e-05
0.000244308
4.57425e-05
0.000372826
3.57286e-05
0.000554205
0.00109427
6.81689e-05
8.68206e-07
6.81165e-05
2.34347e-06
6.80342e-05
3.6017e-06
6.79226e-05
4.9226e-06
6.77765e-05
6.38961e-06
6.75935e-05
8.12747e-06
6.73425e-05
1.01867e-05
6.70644e-05
1.28355e-05
6.67074e-05
1.59916e-05
6.62563e-05
1.98723e-05
6.56884e-05
2.48663e-05
6.49827e-05
3.11998e-05
6.40972e-05
3.95083e-05
6.29962e-05
5.0375e-05
6.15669e-05
6.59583e-05
5.97606e-05
8.83177e-05
5.72637e-05
0.000122681
5.41577e-05
0.000172342
4.9737e-05
0.000248729
4.62228e-05
0.00037634
3.65611e-05
0.000563866
0.00113083
-4.78302e-06
4.78294e-06
-8.88606e-06
4.103e-06
-9.63537e-06
7.49254e-07
-7.57195e-06
-2.06352e-06
-5.48188e-06
-2.09021e-06
-4.33273e-06
-1.1496e-06
-3.84826e-06
-4.849e-07
-3.7492e-06
-9.96558e-08
-3.61921e-06
-1.34584e-07
-3.42772e-06
-1.97515e-07
-3.1576e-06
-3.00281e-07
-2.51672e-06
-5.93691e-07
-1.43018e-06
-1.06948e-06
6.48678e-08
-1.50349e-06
2.42136e-06
-2.36651e-06
5.96642e-06
-3.55192e-06
1.04111e-05
-4.44472e-06
1.50081e-05
-4.59614e-06
1.91781e-05
-4.16492e-06
2.28014e-05
-3.62523e-06
2.60892e-05
-3.28613e-06
2.92399e-05
-3.15148e-06
3.23468e-05
-3.10714e-06
3.55307e-05
-3.18346e-06
3.88763e-05
-3.34233e-06
4.19046e-05
-3.02954e-06
4.83735e-05
-6.47691e-06
5.92446e-05
-1.08696e-05
6.59051e-05
-6.66043e-06
6.69153e-05
-1.00988e-06
6.70322e-05
-1.16882e-07
6.7178e-05
-1.45767e-07
6.73384e-05
-1.60473e-07
6.7476e-05
-1.37539e-07
-6.66166e-08
-4.69467e-06
9.47744e-06
-8.77029e-06
8.17854e-06
-9.52138e-06
1.50025e-06
-7.46581e-06
-4.11929e-06
-5.37825e-06
-4.17803e-06
-4.22938e-06
-2.29933e-06
-3.7421e-06
-9.73019e-07
-3.64666e-06
-1.96272e-07
-3.54395e-06
-2.4588e-07
-3.42471e-06
-3.282e-07
-3.23926e-06
-5.32813e-07
-2.61847e-06
-1.13421e-06
-1.44112e-06
-2.21338e-06
1.96731e-07
-3.15789e-06
2.57801e-06
-4.76777e-06
5.97079e-06
-6.95871e-06
1.02437e-05
-8.71776e-06
1.47976e-05
-9.14814e-06
1.90196e-05
-8.37689e-06
2.27051e-05
-7.31457e-06
2.60293e-05
-6.60725e-06
2.9184e-05
-6.30764e-06
3.22739e-05
-6.19747e-06
3.54207e-05
-6.32935e-06
3.87364e-05
-6.65199e-06
4.17265e-05
-6.02204e-06
4.7834e-05
-1.25993e-05
5.8677e-05
-2.171e-05
6.58026e-05
-1.37859e-05
6.69218e-05
-2.12843e-06
6.70385e-05
-2.33599e-07
6.71799e-05
-2.87168e-07
6.73395e-05
-3.20056e-07
6.74769e-05
-2.74921e-07
-1.33229e-07
-4.59981e-06
1.40771e-05
-8.63485e-06
1.22135e-05
-9.37007e-06
2.23537e-06
-7.30491e-06
-6.18467e-06
-5.22731e-06
-6.25589e-06
-4.08895e-06
-3.43852e-06
-3.60871e-06
-1.45401e-06
-3.53123e-06
-2.74786e-07
-3.47664e-06
-3.08493e-07
-3.43779e-06
-3.77745e-07
-3.31878e-06
-6.99859e-07
-2.67335e-06
-1.69585e-06
-1.35407e-06
-3.49779e-06
4.20727e-07
-4.95076e-06
2.77651e-06
-7.14455e-06
5.9822e-06
-1.01791e-05
1.00859e-05
-1.28215e-05
1.46113e-05
-1.36717e-05
1.88933e-05
-1.26484e-05
2.26451e-05
-1.10704e-05
2.60083e-05
-9.96718e-06
2.91699e-05
-9.47079e-06
3.22419e-05
-9.26986e-06
3.53514e-05
-9.4379e-06
3.86348e-05
-9.92937e-06
4.15934e-05
-8.98288e-06
4.73687e-05
-1.83894e-05
5.81713e-05
-3.25099e-05
6.57053e-05
-2.13198e-05
6.69277e-05
-3.35026e-06
6.70449e-05
-3.5077e-07
6.71821e-05
-4.24362e-07
6.73408e-05
-4.78711e-07
6.7478e-05
-4.12071e-07
-1.99778e-07
-4.4909e-06
1.85678e-05
-8.47893e-06
1.62015e-05
-9.17983e-06
2.93616e-06
-7.09181e-06
-8.27292e-06
-5.03246e-06
-8.31552e-06
-3.91627e-06
-4.5556e-06
-3.45193e-06
-1.91915e-06
-3.39719e-06
-3.30713e-07
-3.39103e-06
-3.22971e-07
-3.43096e-06
-3.49222e-07
-3.37291e-06
-7.96408e-07
-2.69061e-06
-2.29785e-06
-1.21502e-06
-4.93256e-06
7.07972e-07
-6.89509e-06
3.04065e-06
-9.50295e-06
6.04538e-06
-1.32024e-05
9.95585e-06
-1.67321e-05
1.44396e-05
-1.81529e-05
1.87873e-05
-1.69831e-05
2.26177e-05
-1.49055e-05
2.60282e-05
-1.33741e-05
2.91997e-05
-1.2644e-05
3.22542e-05
-1.23249e-05
3.53251e-05
-1.25076e-05
3.85713e-05
-1.31693e-05
4.15007e-05
-1.19149e-05
4.69855e-05
-2.38896e-05
5.77321e-05
-4.32537e-05
6.56124e-05
-2.92001e-05
6.69331e-05
-4.67034e-06
6.70514e-05
-4.69057e-07
6.71846e-05
-5.57528e-07
6.73423e-05
-6.36382e-07
6.74791e-05
-5.48898e-07
-2.662e-07
-4.3679e-06
2.29356e-05
-8.30045e-06
2.01339e-05
-8.94487e-06
3.58046e-06
-6.82277e-06
-1.03953e-05
-4.79319e-06
-1.03454e-05
-3.71117e-06
-5.63846e-06
-3.27089e-06
-2.36013e-06
-3.24163e-06
-3.60964e-07
-3.28335e-06
-2.88873e-07
-3.39977e-06
-2.43605e-07
-3.39614e-06
-8.34443e-07
-2.66367e-06
-2.95174e-06
-1.01407e-06
-6.53927e-06
1.07485e-06
-9.00802e-06
3.39378e-06
-1.18498e-05
6.18535e-06
-1.60137e-05
9.87061e-06
-2.04174e-05
1.42894e-05
-2.2569e-05
1.87062e-05
-2.13851e-05
2.26298e-05
-1.88346e-05
2.60976e-05
-1.68378e-05
2.92813e-05
-1.58297e-05
3.23174e-05
-1.53615e-05
3.53467e-05
-1.55358e-05
3.85493e-05
-1.63652e-05
4.145e-05
-1.48182e-05
4.6681e-05
-2.9136e-05
5.73552e-05
-5.39252e-05
6.55236e-05
-3.73684e-05
6.69379e-05
-6.08402e-06
6.7058e-05
-5.89157e-07
6.71874e-05
-6.8686e-07
6.7344e-05
-7.93004e-07
6.74804e-05
-6.85309e-07
-3.32436e-07
-4.23051e-06
2.7166e-05
-8.09658e-06
2.39999e-05
-8.65819e-06
4.14193e-06
-6.49228e-06
-1.25615e-05
-4.50718e-06
-1.23307e-05
-3.47148e-06
-6.67512e-06
-3.06277e-06
-2.76965e-06
-3.06036e-06
-3.64645e-07
-3.1492e-06
-2.08396e-07
-3.33891e-06
-6.5877e-08
-3.3809e-06
-8.18835e-07
-2.58348e-06
-3.6703e-06
-7.40599e-07
-8.33078e-06
1.53688e-06
-1.13145e-05
3.86003e-06
-1.42081e-05
6.43389e-06
-1.86135e-05
9.86216e-06
-2.3846e-05
1.41837e-05
-2.68867e-05
1.86663e-05
-2.58483e-05
2.26976e-05
-2.28727e-05
2.62329e-05
-2.03683e-05
2.943e-05
-1.90291e-05
3.24436e-05
-1.83758e-05
3.54254e-05
-1.85163e-05
3.85748e-05
-1.95072e-05
4.1445e-05
-1.76914e-05
4.64503e-05
-3.41585e-05
5.70339e-05
-6.45059e-05
6.54388e-05
-4.57732e-05
6.6942e-05
-7.58652e-06
6.70646e-05
-7.11822e-07
6.71904e-05
-8.12575e-07
6.73459e-05
-9.48522e-07
6.74818e-05
-8.2121e-07
-3.9842e-07
-4.07817e-06
3.1244e-05
-7.86363e-06
2.77853e-05
-8.31118e-06
4.58933e-06
-6.093e-06
-1.47799e-05
-4.1704e-06
-1.42536e-05
-3.1931e-06
-7.65332e-06
-2.82304e-06
-3.14039e-06
-2.84788e-06
-3.40887e-07
-2.98301e-06
-8.10442e-08
-3.2422e-06
1.81575e-07
-3.31871e-06
-7.62756e-07
-2.43956e-06
-4.47511e-06
-3.80346e-07
-1.03364e-05
2.11792e-06
-1.3846e-05
4.47338e-06
-1.66027e-05
6.83041e-06
-2.09992e-05
9.97409e-06
-2.69898e-05
1.41621e-05
-3.10707e-05
1.86986e-05
-3.03626e-05
2.28488e-05
-2.70311e-05
2.6462e-05
-2.39757e-05
2.96718e-05
-2.22418e-05
3.2654e-05
-2.13585e-05
3.55763e-05
-2.14371e-05
3.86582e-05
-2.25811e-05
4.14924e-05
-2.05288e-05
4.62911e-05
-3.8975e-05
5.67621e-05
-7.4974e-05
6.53578e-05
-5.43689e-05
6.69453e-05
-9.17342e-06
6.70713e-05
-8.37813e-07
6.71937e-05
-9.34905e-07
6.7348e-05
-1.10287e-06
6.74834e-05
-9.56507e-07
-4.64095e-07
-3.91016e-06
3.5154e-05
-7.59708e-06
3.14721e-05
-7.89481e-06
4.88687e-06
-5.61799e-06
-1.70571e-05
-3.7786e-06
-1.60933e-05
-2.87089e-06
-8.5621e-06
-2.54595e-06
-3.46619e-06
-2.59755e-06
-2.90716e-07
-2.77786e-06
9.02982e-08
-3.10207e-06
4.92316e-07
-3.19955e-06
-6.79539e-07
-2.21825e-06
-5.3772e-06
8.86406e-08
-1.25781e-05
2.85741e-06
-1.66549e-05
5.28701e-06
-1.90844e-05
7.42731e-06
-2.3178e-05
1.02599e-05
-2.98228e-05
1.42794e-05
-3.50845e-05
1.88513e-05
-3.49051e-05
2.3127e-05
-3.1317e-05
2.68288e-05
-2.76704e-05
3.00494e-05