/*--------------------------------*- C++ -*----------------------------------*\
| =========                 |                                                 |
| \\      /  F ield         | OpenFOAM: The Open Source CFD Toolbox           |
|  \\    /   O peration     | Version:  v1912                                 |
|   \\  /    A nd           | Website:  www.openfoam.com                      |
|    \\/     M anipulation  |                                                 |
\*---------------------------------------------------------------------------*/
FoamFile
{
    version     2.0;
    format      ascii;
    class       volVectorField;
    location    "270";
    object      U;
}
// * * * * * * * * * * * * * * * * * * * * * * * * * * * * * * * * * * * * * //

dimensions      [0 1 -1 0 0 0 0];


internalField   nonuniform List<vector> 
12441
(
(29.9989 1.65909e-05 0)
(29.9858 5.03707e-05 0)
(29.9574 8.72173e-05 0)
(29.9142 0.000134289 0)
(29.8576 0.000196325 0)
(29.7849 0.000280145 0)
(29.6948 0.000391607 0)
(29.5809 0.000554613 0)
(29.4402 0.000771417 0)
(29.264 0.00108363 0)
(29.0411 0.00148575 0)
(28.7835 0.0021791 0)
(28.4091 0.00302491 0)
(27.9985 0.00440772 0)
(27.4277 0.00627242 0)
(26.6341 0.0111473 0)
(25.6029 0.0147814 0)
(23.9719 0.0308246 0)
(21.671 0.0520818 0)
(18.03 0.0908118 0)
(12.2529 0.122883 0)
(5.89206 0.198996 0)
(29.9989 4.93323e-05 0)
(29.9857 0.000150564 0)
(29.9574 0.000259752 0)
(29.9141 0.000400305 0)
(29.8577 0.000585648 0)
(29.7848 0.000836243 0)
(29.6949 0.00117071 0)
(29.5808 0.00165926 0)
(29.4402 0.00230581 0)
(29.2645 0.00324233 0)
(29.0402 0.00443753 0)
(28.7834 0.00653927 0)
(28.4119 0.00900936 0)
(27.9981 0.0133042 0)
(27.4219 0.0189077 0)
(26.631 0.0332553 0)
(25.6018 0.0470264 0)
(23.9711 0.0883752 0)
(21.6706 0.135981 0)
(18.0279 0.262774 0)
(12.2534 0.361038 0)
(5.89531 0.594214 0)
(29.9989 8.19475e-05 0)
(29.9857 0.000250798 0)
(29.9574 0.000431819 0)
(29.9141 0.00066534 0)
(29.8576 0.000973505 0)
(29.7848 0.00139136 0)
(29.6949 0.00194804 0)
(29.5808 0.00276185 0)
(29.4402 0.00383881 0)
(29.2645 0.00539544 0)
(29.04 0.00740287 0)
(28.7849 0.0108831 0)
(28.408 0.0149746 0)
(28.0021 0.0222281 0)
(27.4279 0.031567 0)
(26.6356 0.0545039 0)
(25.605 0.0799627 0)
(23.9759 0.14411 0)
(21.6736 0.217354 0)
(18.027 0.432402 0)
(12.2586 0.595739 0)
(5.90292 0.987426 0)
(29.9989 0.000114985 0)
(29.9857 0.000351731 0)
(29.9574 0.000604653 0)
(29.9141 0.000931535 0)
(29.8577 0.00136295 0)
(29.7848 0.00194841 0)
(29.695 0.00272797 0)
(29.5809 0.00386772 0)
(29.4403 0.00537554 0)
(29.2646 0.00755484 0)
(29.0404 0.0103686 0)
(28.7838 0.0152327 0)
(28.4126 0.0209698 0)
(27.9974 0.0311652 0)
(27.4223 0.0442332 0)
(26.6328 0.0758271 0)
(25.6049 0.112172 0)
(23.9799 0.202866 0)
(21.6818 0.323479 0)
(18.031 0.610048 0)
(12.2701 0.834409 0)
(5.91531 1.38229 0)
(29.9989 0.000148081 0)
(29.9857 0.000452528 0)
(29.9574 0.000777284 0)
(29.9141 0.0011975 0)
(29.8577 0.00175201 0)
(29.7848 0.00250488 0)
(29.6949 0.00350721 0)
(29.5809 0.00497268 0)
(29.4403 0.00691094 0)
(29.2646 0.0097125 0)
(29.0403 0.0133326 0)
(28.7852 0.0195849 0)
(28.4077 0.0269769 0)
(28.0018 0.0400862 0)
(27.4284 0.056937 0)
(26.636 0.0969136 0)
(25.6085 0.143872 0)
(23.9845 0.262367 0)
(21.6927 0.412379 0)
(18.041 0.783882 0)
(12.2896 1.07285 0)
(5.93277 1.77844 0)
(29.9989 0.000181172 0)
(29.9857 0.000553239 0)
(29.9574 0.000949886 0)
(29.9141 0.00146346 0)
(29.8577 0.002141 0)
(29.7849 0.00306131 0)
(29.695 0.00428646 0)
(29.581 0.0060776 0)
(29.4405 0.00844632 0)
(29.2648 0.0118708 0)
(29.0407 0.0162985 0)
(28.7838 0.0239296 0)
(28.4141 0.0329937 0)
(27.9969 0.0490039 0)
(27.4229 0.0696373 0)
(26.6341 0.117895 0)
(25.6096 0.17531 0)
(23.9882 0.321303 0)
(21.7051 0.499713 0)
(18.0575 0.956416 0)
(12.3183 1.31096 0)
(5.95568 2.17567 0)
(29.9989 0.000214258 0)
(29.9857 0.000653903 0)
(29.9574 0.00112248 0)
(29.9141 0.00172943 0)
(29.8577 0.00252991 0)
(29.7849 0.00361769 0)
(29.695 0.00506564 0)
(29.581 0.00718245 0)
(29.4404 0.00998159 0)
(29.2647 0.0140283 0)
(29.0407 0.0192644 0)
(28.7851 0.0282822 0)
(28.4077 0.0390083 0)
(28.0029 0.0578947 0)
(27.4301 0.0823502 0)
(26.6377 0.138727 0)
(25.6137 0.206073 0)
(23.9929 0.377785 0)
(21.7216 0.589217 0)
(18.083 1.12906 0)
(12.3585 1.54915 0)
(5.98451 2.57429 0)
(29.9989 0.000247342 0)
(29.9857 0.000754523 0)
(29.9574 0.00129506 0)
(29.9141 0.00199536 0)
(29.8578 0.00291868 0)
(29.785 0.00417395 0)
(29.6951 0.00584471 0)
(29.5811 0.00828708 0)
(29.4406 0.0115164 0)
(29.265 0.0161861 0)
(29.041 0.0222333 0)
(28.7836 0.0326222 0)
(28.4162 0.0450245 0)
(27.9976 0.0667563 0)
(27.4243 0.0949072 0)
(26.6354 0.159219 0)
(25.6174 0.238375 0)
(23.9981 0.436297 0)
(21.7483 0.679867 0)
(18.1229 1.30121 0)
(12.4129 1.78761 0)
(6.01983 2.97476 0)
(29.9989 0.000280424 0)
(29.9857 0.000855099 0)
(29.9574 0.00146761 0)
(29.9141 0.00226128 0)
(29.8577 0.00330736 0)
(29.785 0.00473013 0)
(29.6951 0.00662371 0)
(29.5811 0.00939163 0)
(29.4406 0.0130513 0)
(29.2649 0.0183431 0)
(29.0412 0.0252006 0)
(28.7852 0.0369742 0)
(28.4078 0.0510414 0)
(28.0028 0.0757284 0)
(27.4321 0.107585 0)
(26.6396 0.180163 0)
(25.6248 0.269181 0)
(24.0063 0.494325 0)
(21.7933 0.770228 0)
(18.1831 1.47247 0)
(12.4846 2.02657 0)
(6.06223 3.37758 0)
(29.9989 0.000313503 0)
(29.9857 0.000955632 0)
(29.9574 0.00164016 0)
(29.9142 0.00252717 0)
(29.8578 0.00369591 0)
(29.785 0.00528621 0)
(29.6952 0.00740262 0)
(29.5812 0.010496 0)
(29.4408 0.0145856 0)
(29.2652 0.0204999 0)
(29.0415 0.0281721 0)
(28.7831 0.0413081 0)
(28.4202 0.0570822 0)
(27.9988 0.0844311 0)
(27.4296 0.120867 0)
(26.639 0.201455 0)
(25.6332 0.300469 0)
(24.0216 0.550524 0)
(21.8577 0.860219 0)
(18.2657 1.64302 0)
(12.5756 2.26635 0)
(6.11235 3.78329 0)
(29.9989 0.000346578 0)
(29.9857 0.00105612 0)
(29.9574 0.0018127 0)
(29.9142 0.00279304 0)
(29.8578 0.00408438 0)
(29.785 0.00584222 0)
(29.6952 0.00818146 0)
(29.5812 0.0116002 0)
(29.4408 0.0161196 0)
(29.2652 0.0226565 0)
(29.0416 0.0311475 0)
(28.7841 0.0456354 0)
(28.4117 0.0631852 0)
(27.996 0.0931775 0)
(27.4296 0.133419 0)
(26.6373 0.221625 0)
(25.6431 0.332812 0)
(24.047 0.606089 0)
(21.9312 0.949933 0)
(18.3655 1.81273 0)
(12.6862 2.5072 0)
(6.17076 4.19249 0)
(29.9989 0.000379649 0)
(29.9857 0.00115657 0)
(29.9575 0.00198524 0)
(29.9142 0.00305889 0)
(29.8578 0.00447273 0)
(29.7851 0.00639811 0)
(29.6953 0.00896022 0)
(29.5813 0.0127042 0)
(29.4409 0.0176535 0)
(29.2655 0.0248118 0)
(29.0421 0.0341319 0)
(28.781 0.0499342 0)
(28.4266 0.0693106 0)
(27.9908 0.102191 0)
(27.4252 0.146828 0)
(26.6356 0.242143 0)
(25.6529 0.365127 0)
(24.077 0.660133 0)
(22.0008 1.03869 0)
(18.4732 1.98111 0)
(12.8148 2.7492 0)
(6.23788 4.60578 0)
(29.9989 0.000412714 0)
(29.9858 0.00125698 0)
(29.9575 0.00215778 0)
(29.9142 0.00332472 0)
(29.8578 0.00486101 0)
(29.7851 0.00695394 0)
(29.6952 0.00973898 0)
(29.5813 0.0138081 0)
(29.4409 0.0191862 0)
(29.2656 0.0269674 0)
(29.0423 0.0371289 0)
(28.7804 0.0542393 0)
(28.4248 0.0754334 0)
(27.9872 0.111371 0)
(27.4227 0.160567 0)
(26.6351 0.262326 0)
(25.6608 0.397037 0)
(24.1038 0.71241 0)
(22.0597 1.12617 0)
(18.5799 2.14765 0)
(12.958 2.99223 0)
(6.31394 5.02371 0)
(29.9989 0.000445773 0)
(29.9858 0.00135735 0)
(29.9575 0.00233033 0)
(29.9142 0.00359052 0)
(29.8579 0.00524919 0)
(29.7851 0.00750964 0)
(29.6954 0.0105177 0)
(29.5815 0.0149119 0)
(29.4411 0.0207184 0)
(29.266 0.0291217 0)
(29.0431 0.0401551 0)
(28.7776 0.0585241 0)
(28.4359 0.0819447 0)
(27.9843 0.120644 0)
(27.4205 0.173963 0)
(26.6352 0.281936 0)
(25.6663 0.428473 0)
(24.1246 0.763265 0)
(22.1074 1.2124 0)
(18.6801 2.31203 0)
(13.1121 3.236 0)
(6.3989 5.44677 0)
(29.9989 0.000478824 0)
(29.9858 0.00145767 0)
(29.9575 0.0025029 0)
(29.9142 0.00385632 0)
(29.8578 0.00563731 0)
(29.7851 0.00806528 0)
(29.6953 0.0112964 0)
(29.5814 0.0160155 0)
(29.441 0.0222498 0)
(29.2661 0.0312716 0)
(29.0435 0.043223 0)
(28.7762 0.0626566 0)
(28.4332 0.0883239 0)
(27.9815 0.129679 0)
(27.4192 0.187254 0)
(26.6356 0.301327 0)
(25.6696 0.459658 0)
(24.1397 0.81315 0)
(22.146 1.29749 0)
(18.7716 2.47404 0)
(13.2735 3.48012 0)
(6.4925 5.87537 0)
(29.9989 0.000511868 0)
(29.9858 0.00155795 0)
(29.9575 0.00267548 0)
(29.9142 0.00412209 0)
(29.8579 0.00602533 0)
(29.7852 0.00862079 0)
(29.6955 0.012075 0)
(29.5816 0.0171193 0)
(29.4412 0.0237798 0)
(29.2664 0.0334219 0)
(29.0444 0.0463081 0)
(28.7747 0.0669367 0)
(28.4311 0.0946451 0)
(27.9788 0.138559 0)
(27.4183 0.200456 0)
(26.6359 0.320669 0)
(25.6714 0.490725 0)
(24.1504 0.862402 0)
(22.1779 1.38154 0)
(18.8541 2.63355 0)
(13.4393 3.72424 0)
(6.59434 6.30982 0)
(29.9989 0.000544903 0)
(29.9858 0.00165819 0)
(29.9575 0.00284809 0)
(29.9142 0.00438785 0)
(29.8578 0.00641331 0)
(29.7852 0.00917622 0)
(29.6954 0.0128536 0)
(29.5815 0.0182231 0)
(29.4411 0.0253097 0)
(29.2665 0.0355642 0)
(29.0451 0.0494725 0)
(28.7728 0.0712503 0)
(28.4274 0.100903 0)
(27.9772 0.147379 0)
(27.4178 0.21366 0)
(26.6363 0.339996 0)
(25.6722 0.521716 0)
(24.1581 0.911203 0)
(22.2054 1.46463 0)
(18.9285 2.79047 0)
(13.6074 3.96798 0)
(6.70393 6.75039 0)
(29.9989 0.00057793 0)
(29.9858 0.00175839 0)
(29.9575 0.00302072 0)
(29.9142 0.00465359 0)
(29.8579 0.0068012 0)
(29.7853 0.00973151 0)
(29.6955 0.0136323 0)
(29.5817 0.0193269 0)
(29.4412 0.0268395 0)
(29.2667 0.0376974 0)
(29.0461 0.0526663 0)
(28.7712 0.0756258 0)
(28.4253 0.107068 0)
(27.976 0.156185 0)
(27.4173 0.226869 0)
(26.6366 0.359328 0)
(25.6723 0.552655 0)
(24.1637 0.95966 0)
(22.2299 1.54683 0)
(18.996 2.94475 0)
(13.7765 4.21103 0)
(6.82077 7.1973 0)
(29.9989 0.000610947 0)
(29.9858 0.00185855 0)
(29.9575 0.00319337 0)
(29.9142 0.00491932 0)
(29.8579 0.00718904 0)
(29.7853 0.0102867 0)
(29.6954 0.0144109 0)
(29.5816 0.0204307 0)
(29.4412 0.0283684 0)
(29.2667 0.0398404 0)
(29.0465 0.0558491 0)
(28.7697 0.0799004 0)
(28.4236 0.113239 0)
(27.9753 0.164981 0)
(27.417 0.240088 0)
(26.637 0.378663 0)
(25.672 0.583554 0)
(24.1681 1.00783 0)
(22.253 1.62818 0)
(19.0581 3.09635 0)
(13.946 4.45308 0)
(6.9444 7.65073 0)
(29.9989 0.000643954 0)
(29.9858 0.00195867 0)
(29.9575 0.00336604 0)
(29.9142 0.00518502 0)
(29.8579 0.00757681 0)
(29.7853 0.0108418 0)
(29.6956 0.0151895 0)
(29.5818 0.0215343 0)
(29.4414 0.0298986 0)
(29.2669 0.0419909 0)
(29.0471 0.059097 0)
(28.7686 0.0841055 0)
(28.4226 0.119391 0)
(27.9748 0.17379 0)
(27.4168 0.253307 0)
(26.6374 0.398006 0)
(25.6715 0.614424 0)
(24.172 1.05573 0)
(22.2757 1.70869 0)
(19.1163 3.24525 0)
(14.1158 4.6939 0)
(7.07442 8.11084 0)
(29.9989 0.000676951 0)
(29.9858 0.00205874 0)
(29.9575 0.00353875 0)
(29.9142 0.00545071 0)
(29.8579 0.00796453 0)
(29.7853 0.0113968 0)
(29.6955 0.015968 0)
(29.5818 0.0226373 0)
(29.4414 0.0314296 0)
(29.2669 0.0441568 0)
(29.047 0.0623503 0)
(28.7677 0.0883133 0)
(28.4219 0.125564 0)
(27.9746 0.182599 0)
(27.4167 0.266525 0)
(26.638 0.417357 0)
(25.6713 0.645273 0)
(24.1759 1.10337 0)
(22.2986 1.7884 0)
(19.1718 3.39145 0)
(14.2863 4.93326 0)
(7.21052 8.57779 0)
(29.9989 0.000709937 0)
(29.9858 0.00215878 0)
(29.9575 0.00371147 0)
(29.9143 0.00571637 0)
(29.858 0.00835219 0)
(29.7854 0.0119517 0)
(29.6957 0.0167463 0)
(29.582 0.0237408 0)
(29.4415 0.0329577 0)
(29.2672 0.0463841 0)
(29.0466 0.0655435 0)
(28.7671 0.092542 0)
(28.4215 0.131735 0)
(27.9745 0.191415 0)
(27.4168 0.279738 0)
(26.6388 0.436717 0)
(25.6714 0.676109 0)
(24.1802 1.15071 0)
(22.3223 1.86731 0)
(19.2258 3.53494 0)
(14.4582 5.17101 0)
(7.35248 9.05175 0)
(29.9989 0.000742913 0)
(29.9858 0.00225877 0)
(29.9575 0.00388423 0)
(29.9143 0.00598203 0)
(29.8579 0.00873978 0)
(29.7854 0.0125065 0)
(29.6956 0.0175245 0)
(29.582 0.0248441 0)
(29.4415 0.0344856 0)
(29.2673 0.0486524 0)
(29.0459 0.0686994 0)
(28.7667 0.0968077 0)
(28.4213 0.137918 0)
(27.9746 0.200226 0)
(27.417 0.292947 0)
(26.6398 0.456084 0)
(25.6721 0.706933 0)
(24.1853 1.19772 0)
(22.3472 1.94544 0)
(19.2792 3.67573 0)
(14.6321 5.40697 0)
(7.50018 9.5329 0)
(29.9989 0.000775878 0)
(29.9858 0.00235872 0)
(29.9575 0.00405701 0)
(29.9143 0.00624766 0)
(29.858 0.00912732 0)
(29.7855 0.0130612 0)
(29.6958 0.0183025 0)
(29.5822 0.0259477 0)
(29.4417 0.0360111 0)
(29.2677 0.0509482 0)
(29.0453 0.0717605 0)
(28.7665 0.101099 0)
(28.4211 0.144098 0)
(27.9747 0.209038 0)
(27.4173 0.30615 0)
(26.6411 0.475454 0)
(25.6737 0.737732 0)
(24.1913 1.24436 0)
(22.3733 2.02281 0)
(19.3328 3.81378 0)
(14.8093 5.64103 0)
(7.65359 10.0214 0)
(29.9989 0.000808831 0)
(29.9858 0.00245863 0)
(29.9575 0.00422981 0)
(29.9143 0.00651327 0)
(29.8579 0.00951481 0)
(29.7855 0.0136158 0)
(29.6957 0.0190802 0)
(29.5821 0.0270513 0)
(29.4417 0.0375339 0)
(29.2676 0.053223 0)
(29.0449 0.0747534 0)
(28.7663 0.105406 0)
(28.4211 0.150282 0)
(27.975 0.217846 0)
(27.4179 0.319344 0)
(26.6428 0.494818 0)
(25.6762 0.768479 0)
(24.1983 1.29062 0)
(22.4006 2.09942 0)
(19.3873 3.94906 0)
(14.9908 5.87308 0)
(7.81278 10.5175 0)
(29.9989 0.000841774 0)
(29.9858 0.00255849 0)
(29.9575 0.00440265 0)
(29.9143 0.00677885 0)
(29.858 0.00990225 0)
(29.7855 0.0141703 0)
(29.6959 0.0198582 0)
(29.5824 0.0281535 0)
(29.442 0.0390721 0)
(29.2676 0.0554797 0)
(29.0447 0.0777164 0)
(28.7663 0.109721 0)
(28.4212 0.156462 0)
(27.9754 0.22665 0)
(27.4187 0.332528 0)
(26.645 0.514162 0)
(25.6799 0.799147 0)
(24.2064 1.3365 0)
(22.4292 2.17527 0)
(19.4431 4.08152 0)
(15.178 6.10303 0)
(7.97789 11.0215 0)
(29.9989 0.000874704 0)
(29.9858 0.00265832 0)
(29.9575 0.00457551 0)
(29.9143 0.00704441 0)
(29.858 0.0102896 0)
(29.7855 0.0147246 0)
(29.6958 0.0206361 0)
(29.5822 0.0292569 0)
(29.4421 0.0406171 0)
(29.267 0.0578363 0)
(29.0446 0.0806864 0)
(28.7663 0.11404 0)
(28.4213 0.162641 0)
(27.9758 0.235449 0)
(27.4197 0.345695 0)
(26.6477 0.533473 0)
(25.6847 0.829719 0)
(24.2157 1.38201 0)
(22.459 2.25037 0)
(19.5008 4.21105 0)
(15.3719 6.33079 0)
(8.14914 11.5336 0)
(29.9989 0.000907624 0)
(29.9858 0.0027581 0)
(29.9575 0.00474839 0)
(29.9143 0.00730995 0)
(29.8581 0.010677 0)
(29.7856 0.0152788 0)
(29.696 0.0214137 0)
(29.5825 0.0303598 0)
(29.4425 0.0421705 0)
(29.2665 0.0601534 0)
(29.0445 0.083681 0)
(28.7664 0.118362 0)
(28.4215 0.168816 0)
(27.9764 0.244241 0)
(27.4209 0.35884 0)
(26.6508 0.552735 0)
(25.6905 0.86019 0)
(24.2262 1.42716 0)
(22.4897 2.32469 0)
(19.5603 4.33754 0)
(15.5739 6.55628 0)
(8.32682 12.0541 0)
(29.9989 0.000940531 0)
(29.9858 0.00285785 0)
(29.9575 0.0049213 0)
(29.9143 0.00757546 0)
(29.858 0.0110643 0)
(29.7856 0.0158328 0)
(29.6959 0.0221918 0)
(29.5824 0.0314588 0)
(29.4426 0.0437752 0)
(29.2659 0.0623269 0)
(29.0446 0.0867028 0)
(28.7665 0.122684 0)
(28.4218 0.174988 0)
(27.9771 0.253025 0)
(27.4224 0.371956 0)
(26.6544 0.571938 0)
(25.6972 0.890556 0)
(24.238 1.47195 0)
(22.5215 2.39823 0)
(19.6219 4.46084 0)
(15.7849 6.77942 0)
(8.51125 12.5834 0)
(29.9989 0.000973429 0)
(29.9859 0.00295756 0)
(29.9575 0.00509423 0)
(29.9143 0.00784093 0)
(29.8581 0.0114515 0)
(29.7857 0.0163866 0)
(29.6961 0.0229698 0)
(29.5826 0.0325575 0)
(29.443 0.0454011 0)
(29.2655 0.0644759 0)
(29.0446 0.0897451 0)
(28.7667 0.127005 0)
(28.4221 0.181156 0)
(27.9778 0.261796 0)
(27.4242 0.38504 0)
(26.6585 0.591075 0)
(25.7049 0.920814 0)
(24.251 1.51638 0)
(22.5543 2.47097 0)
(19.6854 4.5808 0)
(16.0056 7.00013 0)
(8.7028 13.1217 0)
(29.9989 0.00100631 0)
(29.9859 0.00305722 0)
(29.9575 0.00526719 0)
(29.9143 0.00810638 0)
(29.858 0.0118387 0)
(29.7857 0.0169404 0)
(29.696 0.0237475 0)
(29.5825 0.0336563 0)
(29.443 0.0470342 0)
(29.2653 0.0666191 0)
(29.0448 0.0927994 0)
(28.7669 0.131325 0)
(28.4225 0.187319 0)
(27.9787 0.270554 0)
(27.4262 0.398086 0)
(26.6631 0.61014 0)
(25.7134 0.950955 0)
(24.2654 1.56046 0)
(22.588 2.54292 0)
(19.7507 4.69723 0)
(16.2364 7.2183 0)
(8.90182 13.6696 0)
(29.9989 0.00103919 0)
(29.9859 0.00315684 0)
(29.9575 0.00544016 0)
(29.9144 0.00837179 0)
(29.8581 0.0122258 0)
(29.7858 0.0174939 0)
(29.6962 0.0245253 0)
(29.5828 0.0347545 0)
(29.4433 0.048676 0)
(29.2653 0.0687433 0)
(29.045 0.0958604 0)
(28.7672 0.135644 0)
(28.4229 0.193476 0)
(27.9797 0.279297 0)
(27.4284 0.411094 0)
(26.668 0.629127 0)
(25.7227 0.980967 0)
(24.2812 1.60417 0)
(22.6227 2.61406 0)
(19.8175 4.80997 0)
(16.4775 7.43384 0)
(9.10867 14.2274 0)
(29.9989 0.00107205 0)
(29.9859 0.00325643 0)
(29.9575 0.00561316 0)
(29.9144 0.00863718 0)
(29.8581 0.0126129 0)
(29.7857 0.0180474 0)
(29.6961 0.0253027 0)
(29.5828 0.0358527 0)
(29.4432 0.0503223 0)
(29.2655 0.0708544 0)
(29.0452 0.0989258 0)
(28.7675 0.139961 0)
(28.4234 0.199628 0)
(27.9808 0.288023 0)
(27.4309 0.42406 0)
(26.6732 0.648032 0)
(25.7328 1.01084 0)
(24.2984 1.64751 0)
(22.6585 2.68439 0)
(19.8858 4.91883 0)
(16.7288 7.64663 0)
(9.32368 14.7955 0)
(29.9989 0.0011049 0)
(29.9859 0.00335598 0)
(29.9575 0.00578617 0)
(29.9144 0.00890253 0)
(29.8582 0.0129999 0)
(29.7859 0.0186008 0)
(29.6963 0.0260797 0)
(29.5831 0.0369513 0)
(29.4433 0.0519718 0)
(29.2658 0.0729539 0)
(29.0455 0.101994 0)
(28.7678 0.144276 0)
(28.424 0.205773 0)
(27.982 0.29673 0)
(27.4335 0.436982 0)
(26.6788 0.666848 0)
(25.7437 1.04055 0)
(24.3171 1.69049 0)
(22.6954 2.75391 0)
(19.9554 5.02365 0)
(16.99 7.85653 0)
(9.54714 15.3743 0)
(29.9989 0.00113775 0)
(29.9859 0.0034555 0)
(29.9576 0.00595919 0)
(29.9144 0.00916786 0)
(29.8581 0.0133867 0)
(29.7858 0.0191542 0)
(29.6962 0.0268564 0)
(29.5831 0.0380466 0)
(29.443 0.0536202 0)
(29.2662 0.0750455 0)
(29.0458 0.105065 0)
(28.7682 0.14859 0)
(28.4245 0.211909 0)
(27.9833 0.305417 0)
(27.4363 0.449859 0)
(26.6847 0.685569 0)
(25.7553 1.0701 0)
(24.3372 1.73309 0)
(22.7335 2.82263 0)
(20.0264 5.12427 0)
(17.2609 8.06342 0)
(9.77932 15.9642 0)
(29.9989 0.00117058 0)
(29.9859 0.00355498 0)
(29.9576 0.00613223 0)
(29.9144 0.00943311 0)
(29.8582 0.0137737 0)
(29.786 0.019707 0)
(29.6964 0.027635 0)
(29.5835 0.0391402 0)
(29.443 0.0552046 0)
(29.2667 0.0771297 0)
(29.0461 0.108138 0)
(28.7686 0.152902 0)
(28.4252 0.218039 0)
(27.9847 0.314083 0)
(27.4393 0.462688 0)
(26.691 0.704189 0)
(25.7676 1.09946 0)
(24.3587 1.77532 0)
(22.7731 2.89054 0)
(20.0991 5.22055 0)
(17.5412 8.26715 0)
(10.0205 16.5657 0)
(29.9989 0.0012034 0)
(29.9859 0.00365442 0)
(29.9576 0.00630526 0)
(29.9144 0.00969838 0)
(29.8581 0.0141602 0)
(29.7859 0.0202609 0)
(29.6962 0.0284072 0)
(29.5835 0.0402738 0)
(29.4425 0.0566199 0)
(29.2671 0.0792169 0)
(29.0465 0.111212 0)
(28.769 0.157211 0)
(28.4259 0.22416 0)
(27.9862 0.322729 0)
(27.4425 0.475468 0)
(26.6975 0.722702 0)
(25.7806 1.12862 0)
(24.3816 1.81715 0)
(22.8141 2.95764 0)
(20.1735 5.31234 0)
(17.8309 8.46757 0)
(10.2708 17.1791 0)
(29.9989 0.00123622 0)
(29.9859 0.00375384 0)
(29.9576 0.00647831 0)
(29.9144 0.00996359 0)
(29.8583 0.0145468 0)
(29.7861 0.0208135 0)
(29.6965 0.0291854 0)
(29.5839 0.0413841 0)
(29.4428 0.0583895 0)
(29.2676 0.0813354 0)
(29.0468 0.114287 0)
(28.7695 0.161518 0)
(28.4267 0.230272 0)
(27.9878 0.331351 0)
(27.4458 0.488197 0)
(26.7043 0.741103 0)
(25.7942 1.15756 0)
(24.406 1.85858 0)
(22.857 3.02393 0)
(20.2498 5.3995 0)
(18.1303 8.66454 0)
(10.5305 17.8049 0)
(29.9989 0.00126902 0)
(29.9859 0.0038532 0)
(29.9576 0.00665138 0)
(29.9144 0.0102287 0)
(29.8582 0.0149336 0)
(29.786 0.0213656 0)
(29.6964 0.0299604 0)
(29.5837 0.0425301 0)
(29.4432 0.0601403 0)
(29.2681 0.0834882 0)
(29.0472 0.117363 0)
(28.77 0.165822 0)
(28.4274 0.236376 0)
(27.9894 0.33995 0)
(27.4493 0.500872 0)
(26.7114 0.759384 0)
(25.8085 1.18628 0)
(24.4317 1.89959 0)
(22.9019 3.08939 0)
(20.328 5.48189 0)
(18.4397 8.85789 0)
(10.7999 18.4436 0)
(29.9989 0.00130182 0)
(29.9859 0.00395254 0)
(29.9576 0.00682441 0)
(29.9145 0.0104939 0)
(29.8583 0.0153194 0)
(29.7862 0.0219217 0)
(29.6967 0.0307187 0)
(29.5839 0.043698 0)
(29.4434 0.0616365 0)
(29.2684 0.0856565 0)
(29.0476 0.120439 0)
(28.7705 0.170123 0)
(28.4283 0.24247 0)
(27.9911 0.348526 0)
(27.453 0.513491 0)
(26.7188 0.777542 0)
(25.8235 1.21476 0)
(24.4587 1.94015 0)
(22.949 3.15402 0)
(20.408 5.55936 0)
(18.7592 9.04747 0)
(11.0791 19.0955 0)
(29.9989 0.00133461 0)
(29.9859 0.00405184 0)
(29.9576 0.00699748 0)
(29.9145 0.0107589 0)
(29.8582 0.0157062 0)
(29.7861 0.0224707 0)
(29.6967 0.0315239 0)
(29.5835 0.0446223 0)
(29.4435 0.0630656 0)
(29.2688 0.0878274 0)
(29.048 0.123513 0)
(28.7711 0.17442 0)
(28.4292 0.248556 0)
(27.993 0.357074 0)
(27.4568 0.526053 0)
(26.7265 0.79557 0)
(25.839 1.24299 0)
(24.487 1.98025 0)
(22.9988 3.21781 0)
(20.4891 5.63178 0)
(19.0879 9.23316 0)
(11.3685 19.761 0)
(29.9989 0.00136739 0)
(29.9859 0.00415117 0)
(29.9576 0.00717057 0)
(29.9145 0.0110239 0)
(29.8584 0.0160925 0)
(29.7862 0.0230236 0)
(29.6972 0.0323152 0)
(29.5828 0.0458586 0)
(29.4435 0.0645249 0)
(29.269 0.0899966 0)
(29.0484 0.126585 0)
(28.7716 0.178715 0)
(28.4301 0.254632 0)
(27.9948 0.365596 0)
(27.4607 0.538554 0)
(26.7345 0.813464 0)
(25.8551 1.27095 0)
(24.5163 2.01985 0)
(23.0517 3.28078 0)
(20.5707 5.69905 0)
(19.4229 9.41495 0)
(11.6681 20.4415 0)
(29.9989 0.00139999 0)
(29.9859 0.00425035 0)
(29.9576 0.00734365 0)
(29.9145 0.0112892 0)
(29.8583 0.0164794 0)
(29.7861 0.0235769 0)
(29.6972 0.0331119 0)
(29.5821 0.0472245 0)
(29.4434 0.0660232 0)
(29.2692 0.0921663 0)
(29.0488 0.129656 0)
(28.7722 0.183005 0)
(28.431 0.260697 0)
(27.9967 0.374088 0)
(27.4648 0.550992 0)
(26.7427 0.831218 0)
(25.8717 1.29863 0)
(24.5467 2.05891 0)
(23.108 3.34293 0)
(20.652 5.76114 0)
(19.757 9.59254 0)
(11.9776 21.1443 0)
(29.9989 0.00143218 0)
(29.9859 0.00434875 0)
(29.9576 0.00751477 0)
(29.9145 0.0115517 0)
(29.8585 0.0168634 0)
(29.7863 0.024121 0)
(29.6976 0.0339571 0)
(29.5818 0.0483498 0)
(29.4434 0.0675347 0)
(29.2693 0.0943347 0)
(29.0491 0.132724 0)
(28.7728 0.187296 0)
(28.432 0.266752 0)
(27.9987 0.382539 0)
(27.469 0.563365 0)
(26.7513 0.848833 0)
(25.8889 1.32604 0)
(24.578 2.09737 0)
(23.1682 3.40431 0)
(20.7331 5.81814 0)
(20.079 9.76392 0)
(12.3831 21.8909 0)
(-0.992572 0.0492515 0)
(-3.32152 0.039003 0)
(-4.54879 0.00657477 0)
(-3.89803 -0.0166378 0)
(-2.71707 -0.0155325 0)
(-2.08341 -0.00789879 0)
(-1.71577 -0.00310328 0)
(-1.66893 -0.000649137 0)
(-1.62961 -0.000854086 0)
(-1.55289 -0.0011199 0)
(-1.4608 -0.00146339 0)
(-1.31162 -0.0023524 0)
(-0.883368 -0.00393235 0)
(-0.352942 -0.00534216 0)
(0.441037 -0.0081187 0)
(1.73866 -0.0113729 0)
(3.58502 -0.0130764 0)
(5.66055 -0.0123819 0)
(7.62542 -0.0103238 0)
(9.31825 -0.00824535 0)
(10.8062 -0.00685239 0)
(12.2077 -0.00605963 0)
(13.578 -0.00552185 0)
(14.9414 -0.00523043 0)
(16.3831 -0.00506027 0)
(17.8881 -0.0042689 0)
(19.034 -0.0084526 0)
(23.7199 -0.0128732 0)
(28.6106 -0.00713963 0)
(29.4184 -0.00100079 0)
(29.4688 -0.000110345 0)
(29.5216 -0.000127288 0)
(29.598 -0.00012836 0)
(29.6624 -0.000101458 0)
(29.7187 -4.53608e-05 0)
(-0.970386 0.146141 0)
(-3.27347 0.116131 0)
(-4.49574 0.0196516 0)
(-3.84774 -0.0496989 0)
(-2.67141 -0.0465063 0)
(-2.03944 -0.0236375 0)
(-1.66915 -0.00921852 0)
(-1.6213 -0.00173511 0)
(-1.58521 -0.00211991 0)
(-1.53375 -0.00280892 0)
(-1.48414 -0.00396789 0)
(-1.36632 -0.00747919 0)
(-0.917429 -0.0128074 0)
(-0.314376 -0.016703 0)
(0.528185 -0.0238781 0)
(1.78292 -0.0328102 0)
(3.53215 -0.0379616 0)
(5.56253 -0.0365108 0)
(7.54193 -0.0306558 0)
(9.26509 -0.0246025 0)
(10.7752 -0.020537 0)
(12.1853 -0.0181665 0)
(13.5515 -0.0165255 0)
(14.9029 -0.0156112 0)
(16.3239 -0.0151349 0)
(17.824 -0.0126337 0)
(18.9425 -0.0248086 0)
(23.3213 -0.0385942 0)
(28.5228 -0.0223145 0)
(29.4199 -0.00312726 0)
(29.4731 -0.000327666 0)
(29.5228 -0.000376238 0)
(29.5985 -0.000384122 0)
(29.6628 -0.000304247 0)
(29.7192 -0.000136109 0)
(-0.941463 0.24113 0)
(-3.21757 0.192603 0)
(-4.4328 0.0326343 0)
(-3.77644 -0.0827257 0)
(-2.60127 -0.0775582 0)
(-1.97712 -0.0394129 0)
(-1.60803 -0.0154323 0)
(-1.56524 -0.00282834 0)
(-1.5401 -0.00313035 0)
(-1.5209 -0.00371021 0)
(-1.51034 -0.00579448 0)
(-1.41136 -0.0118966 0)
(-0.918744 -0.022051 0)
(-0.231854 -0.0290213 0)
(0.645047 -0.0397435 0)
(1.83733 -0.0529855 0)
(3.48261 -0.0613857 0)
(5.47145 -0.0598837 0)
(7.47027 -0.0509495 0)
(9.22708 -0.0411915 0)
(10.7614 -0.0343511 0)
(12.1809 -0.0302427 0)
(13.5433 -0.0274104 0)
(14.8824 -0.0258243 0)
(16.2825 -0.025073 0)
(17.7758 -0.0209538 0)
(18.8729 -0.0400815 0)
(22.9703 -0.0646089 0)
(28.4395 -0.0383549 0)
(29.421 -0.00550909 0)
(29.4773 -0.000547054 0)
(29.5241 -0.000617065 0)
(29.5992 -0.000638251 0)
(29.6633 -0.000506716 0)
(29.7196 -0.000226804 0)
(-0.906825 0.334036 0)
(-3.15508 0.268318 0)
(-4.35847 0.0452155 0)
(-3.68143 -0.116185 0)
(-2.50904 -0.108379 0)
(-1.89847 -0.0549535 0)
(-1.53506 -0.021448 0)
(-1.50057 -0.0036172 0)
(-1.48728 -0.00354103 0)
(-1.49963 -0.00380411 0)
(-1.52754 -0.00701421 0)
(-1.44316 -0.0168572 0)
(-0.899835 -0.0327085 0)
(-0.122871 -0.0425711 0)
(0.791772 -0.0556813 0)
(1.91909 -0.0724682 0)
(3.45011 -0.0844633 0)
(5.38731 -0.0837018 0)
(7.40492 -0.0718757 0)
(9.20084 -0.058225 0)
(10.7646 -0.0483762 0)
(12.1956 -0.0423712 0)
(13.5548 -0.038248 0)
(14.8813 -0.0359245 0)
(16.2596 -0.034919 0)
(17.7424 -0.0291684 0)
(18.8242 -0.0546077 0)
(22.6717 -0.0902488 0)
(28.3602 -0.0553016 0)
(29.4217 -0.00808637 0)
(29.4815 -0.000767124 0)
(29.5255 -0.000850823 0)
(29.5999 -0.000890885 0)
(29.6638 -0.000708786 0)
(29.7201 -0.000317374 0)
(-0.866358 0.424591 0)
(-3.08612 0.343068 0)
(-4.27069 0.0570305 0)
(-3.55962 -0.150027 0)
(-2.39462 -0.138773 0)
(-1.80316 -0.0700712 0)
(-1.45042 -0.0272002 0)
(-1.42628 -0.00412238 0)
(-1.42514 -0.00342999 0)
(-1.46825 -0.00312535 0)
(-1.53343 -0.00763563 0)
(-1.45908 -0.0222039 0)
(-0.85761 -0.0446773 0)
(0.0181004 -0.0573071 0)
(0.977237 -0.0714931 0)
(2.04008 -0.0906796 0)
(3.44495 -0.106439 0)
(5.31447 -0.107407 0)
(7.3474 -0.0932474 0)
(9.18903 -0.0757076 0)
(10.7884 -0.0626414 0)
(12.2332 -0.054554 0)
(13.589 -0.0490235 0)
(14.9021 -0.0458921 0)
(16.2569 -0.0446422 0)
(17.7251 -0.0373033 0)
(18.7966 -0.0684385 0)
(22.4224 -0.115698 0)
(28.2849 -0.0729574 0)
(29.4219 -0.0108601 0)
(29.4856 -0.000989979 0)
(29.527 -0.00107774 0)
(29.6008 -0.0011419 0)
(29.6645 -0.000910315 0)
(29.7205 -0.000407732 0)
(-0.819891 0.512494 0)
(-3.01062 0.416673 0)
(-4.16699 0.0676458 0)
(-3.40719 -0.184447 0)
(-2.25708 -0.168613 0)
(-1.69011 -0.0846261 0)
(-1.35328 -0.0325974 0)
(-1.3407 -0.00431954 0)
(-1.35165 -0.00280583 0)
(-1.42492 -0.00170469 0)
(-1.52513 -0.00772245 0)
(-1.45522 -0.0280322 0)
(-0.788042 -0.0580411 0)
(0.196378 -0.0732907 0)
(1.21005 -0.0871565 0)
(2.21293 -0.107403 0)
(3.48265 -0.126891 0)
(5.26543 -0.130653 0)
(7.30528 -0.114951 0)
(9.19849 -0.0936539 0)
(10.8402 -0.0771709 0)
(12.3008 -0.066795 0)
(13.6521 -0.0597282 0)
(14.9493 -0.0557114 0)
(16.2779 -0.0542173 0)
(17.7259 -0.0453608 0)
(18.7913 -0.0816548 0)
(22.2165 -0.14095 0)
(28.2134 -0.0911872 0)
(29.4216 -0.0138195 0)
(29.4897 -0.00121695 0)
(29.5287 -0.0012982 0)
(29.6017 -0.00139119 0)
(29.6652 -0.00111116 0)
(29.721 -0.000497792 0)
(-0.767232 0.597439 0)
(-2.92833 0.488902 0)
(-4.0443 0.0765633 0)
(-3.21948 -0.219654 0)
(-2.09471 -0.197694 0)
(-1.55745 -0.0984712 0)
(-1.24193 -0.0375521 0)
(-1.24152 -0.00419964 0)
(-1.26426 -0.00167987 0)
(-1.36732 0.000420669 0)
(-1.49953 -0.0073619 0)
(-1.4272 -0.0344862 0)
(-0.686281 -0.0729258 0)
(0.419949 -0.0907261 0)
(1.50391 -0.102899 0)
(2.45352 -0.122719 0)
(3.58183 -0.145655 0)
(5.25998 -0.153185 0)
(7.29341 -0.136903 0)
(9.24148 -0.112104 0)
(10.932 -0.0919972 0)
(12.4109 -0.0790957 0)
(13.7547 -0.070344 0)
(15.0309 -0.0653552 0)
(16.3278 -0.0636075 0)
(17.7482 -0.0533286 0)
(18.8109 -0.0943188 0)
(22.049 -0.165975 0)
(28.1457 -0.109881 0)
(29.4208 -0.0169549 0)
(29.4937 -0.00144944 0)
(29.5305 -0.0015126 0)
(29.6028 -0.00163866 0)
(29.666 -0.00131119 0)
(29.7216 -0.00058747 0)
(-0.708185 0.679116 0)
(-2.83881 0.559459 0)
(-3.89901 0.0831967 0)
(-2.99209 -0.255793 0)
(-1.90596 -0.225718 0)
(-1.40295 -0.111445 0)
(-1.11406 -0.0419775 0)
(-1.12598 -0.00376241 0)
(-1.15987 -6.26405e-05 0)
(-1.29247 0.00321085 0)
(-1.453 -0.00668624 0)
(-1.36981 -0.0417112 0)
(-0.545378 -0.0895397 0)
(0.701562 -0.109973 0)
(1.88172 -0.119088 0)
(2.78544 -0.136773 0)
(3.76447 -0.162672 0)
(5.32341 -0.174802 0)
(7.33467 -0.158983 0)
(9.33742 -0.131076 0)
(11.0828 -0.107148 0)
(12.583 -0.0914467 0)
(13.9145 -0.0808338 0)
(15.1599 -0.0747747 0)
(16.4154 -0.0727577 0)
(17.7975 -0.0611846 0)
(18.8597 -0.106471 0)
(21.9171 -0.190711 0)
(28.0818 -0.128946 0)
(29.4194 -0.0202567 0)
(29.4976 -0.0016889 0)
(29.5324 -0.00172136 0)
(29.604 -0.00188422 0)
(29.6669 -0.00151025 0)
(29.7221 -0.000676681 0)
(-0.642575 0.757196 0)
(-2.74144 0.627965 0)
(-3.72705 0.0868934 0)
(-2.72291 -0.292939 0)
(-1.6904 -0.252353 0)
(-1.22477 -0.123399 0)
(-0.967164 -0.045796 0)
(-0.990964 -0.00301857 0)
(-1.03491 0.00203132 0)
(-1.19651 0.00661629 0)
(-1.3809 -0.00582816 0)
(-1.27636 -0.0499071 0)
(-0.355993 -0.108175 0)
(1.056 -0.13152 0)
(2.37058 -0.136154 0)
(3.23936 -0.14964 0)
(4.05725 -0.177873 0)
(5.48566 -0.195379 0)
(7.46037 -0.181076 0)
(9.51459 -0.150582 0)
(11.3202 -0.122655 0)
(12.8466 -0.103833 0)
(14.16 -0.0911302 0)
(15.3582 -0.083884 0)
(16.5545 -0.08158 0)
(17.8815 -0.0688905 0)
(18.9448 -0.118128 0)
(21.8209 -0.215077 0)
(28.0222 -0.14829 0)
(29.4174 -0.0237149 0)
(29.5013 -0.00193684 0)
(29.5345 -0.00192495 0)
(29.6053 -0.00212778 0)
(29.6678 -0.00170821 0)
(29.7227 -0.000765339 0)
(-0.570253 0.83133 0)
(-2.63543 0.693956 0)
(-3.52411 0.0870059 0)
(-2.41449 -0.331074 0)
(-1.44958 -0.277287 0)
(-1.02221 -0.134234 0)
(-0.799016 -0.048957 0)
(-0.833271 -0.00199769 0)
(-0.885395 0.00457355 0)
(-1.07468 0.0105711 0)
(-1.27712 -0.00497103 0)
(-1.13792 -0.0592844 0)
(-0.107257 -0.129173 0)
(1.49104 -0.155917 0)
(2.97904 -0.154548 0)
(3.83545 -0.161332 0)
(4.48565 -0.191139 0)
(5.77922 -0.214875 0)
(7.70924 -0.203154 0)
(9.8104 -0.170658 0)
(11.6795 -0.138581 0)
(13.2395 -0.116257 0)
(14.5319 -0.101136 0)
(15.6599 -0.0925378 0)
(16.767 -0.0899321 0)
(18.012 -0.0763801 0)
(19.0761 -0.129285 0)
(21.7641 -0.238971 0)
(27.9674 -0.167818 0)
(29.4148 -0.0273186 0)
(29.5049 -0.00219475 0)
(29.5367 -0.00212388 0)
(29.6067 -0.00236925 0)
(29.6689 -0.00190492 0)
(29.7233 -0.000853361 0)
(-0.491106 0.901146 0)
(-2.5198 0.756885 0)
(-3.28586 0.0829941 0)
(-2.07497 -0.370039 0)
(-1.18733 -0.300306 0)
(-0.796441 -0.143923 0)