/*--------------------------------*- C++ -*----------------------------------*\
| =========                 |                                                 |
| \\      /  F ield         | OpenFOAM: The Open Source CFD Toolbox           |
|  \\    /   O peration     | Version:  v1912                                 |
|   \\  /    A nd           | Website:  www.openfoam.com                      |
|    \\/     M anipulation  |                                                 |
\*---------------------------------------------------------------------------*/
FoamFile
{
    version     2.0;
    format      ascii;
    class       volScalarField;
    location    "270";
    object      yPlus;
}
// * * * * * * * * * * * * * * * * * * * * * * * * * * * * * * * * * * * * * //

dimensions      [0 0 0 0 0 0 0];


internalField   uniform 0;

boundaryField
{
    inlet
    {
        type            calculated;
        value           uniform 0;
    }
    outlet
    {
        type            calculated;
        value           uniform 0;
    }
    lowerSymmetry
    {
        type            symmetryPlane;
    }
    obstical
    {
        type            calculated;
        value           nonuniform List<scalar> 
88
(
485.237
487.423
491.81
498.389
507.094
517.836
530.522
545.061
561.362
579.338
598.907
619.984
642.482
666.308
691.367
717.565
744.813
773.031
802.151
832.114
862.874
894.393
926.645
959.613
993.287
1027.67
1062.75
1098.56
1135.1
1172.4
1210.47
1249.33
1289.02
1329.54
1370.93
1413.2
1456.37
1500.47
1545.52
1591.54
1638.56
1686.65
1736.2
1791.14
98.0338
96.9749
96.1689
95.704
95.5692
95.7463
96.2162
96.9627
97.975
99.2488
100.787
102.598
104.696
107.098
109.826
112.902
116.351
120.195
124.445
129.079
133.997
139.028
144.058
148.963
153.626
157.934
161.789
165.095
167.74
169.547
170.228
169.347
166.332
160.546
151.407
138.509
121.67
100.855
76.0723
47.7936
27.7745
54.4959
94.2438
137.407
)
;
    }
    obsticalTop
    {
        type            calculated;
        value           nonuniform List<scalar> 
20
(
53.3103
38.6123
47.0346
53.1712
56.0473
57.7106
58.3407
58.0688
57.155
55.7334
53.7827
51.1972
47.887
43.6727
38.5233
31.8017
25.4872
16.0422
14.4906
10.9005
)
;
    }
    top
    {
        type            calculated;
        value           uniform 0;
    }
    defaultFaces
    {
        type            empty;
    }
}


// ************************************************************************* //
