/*--------------------------------*- C++ -*----------------------------------*\
| =========                 |                                                 |
| \\      /  F ield         | OpenFOAM: The Open Source CFD Toolbox           |
|  \\    /   O peration     | Version:  v1912                                 |
|   \\  /    A nd           | Website:  www.openfoam.com                      |
|    \\/     M anipulation  |                                                 |
\*---------------------------------------------------------------------------*/
FoamFile
{
    version     2.0;
    format      ascii;
    class       volScalarField;
    location    "430";
    object      epsilon;
}
// * * * * * * * * * * * * * * * * * * * * * * * * * * * * * * * * * * * * * //

dimensions      [0 2 -3 0 0 0 0];


internalField   nonuniform List<scalar> 
12441
(
0.0102963
0.00908492
0.00832703
0.00770258
0.00718361
0.00674894
0.00638222
0.00607088
0.00580493
0.00557655
0.00537903
0.00520878
0.00504388
0.00491769
0.00480229
0.00469444
0.00487246
0.0202783
0.275084
3.03738
20.9539
39.25
0.0101188
0.00892004
0.00818391
0.0075768
0.00707185
0.00664861
0.00629131
0.00598785
0.00572855
0.00550588
0.00531326
0.00514749
0.00498504
0.00486235
0.00475049
0.00464744
0.00479925
0.0200183
0.259035
3.0295
21.2441
40.2318
0.00989682
0.00871727
0.00800022
0.007409
0.00691739
0.00650546
0.00615786
0.00586279
0.00561086
0.00539474
0.00520808
0.00504787
0.00489024
0.00477354
0.00466672
0.00456813
0.0046457
0.0181359
0.219244
2.99831
21.6232
41.3784
0.00967324
0.00851363
0.00781484
0.00723875
0.0067598
0.00635858
0.00602011
0.00573294
0.00548792
0.00527795
0.00509683
0.00494169
0.00479015
0.00467703
0.00457517
0.00448309
0.00450281
0.0158764
0.180463
2.97534
22.0906
42.5504
0.00942901
0.00828901
0.00760895
0.00704849
0.00658271
0.00619273
0.00586394
0.00558523
0.00534771
0.0051445
0.0049696
0.00482032
0.00467404
0.00456764
0.0044715
0.00438549
0.00435392
0.0138451
0.160606
2.98191
22.6083
43.6698
0.00922304
0.0080994
0.00743455
0.0068867
0.00643149
0.00605042
0.00572923
0.00545706
0.00522523
0.00502702
0.00485659
0.00471135
0.00457047
0.00446659
0.00437473
0.00429418
0.00427933
0.0139585
0.180069
3.08853
23.2391
44.7472
0.00900237
0.00789579
0.00724739
0.00671327
0.00626963
0.00589842
0.00558572
0.00532096
0.00509568
0.00490336
0.00473831
0.00459808
0.00446139
0.00436422
0.00427534
0.00420131
0.00603193
0.0230118
0.285746
3.38978
24.0839
45.7945
0.00882392
0.00773114
0.00709558
0.00657206
0.00613725
0.00577346
0.00546702
0.00520759
0.00498688
0.00479851
0.00463694
0.00449978
0.00436797
0.00427201
0.00419168
0.00516365
0.0343149
0.0792762
0.599465
4.02596
25.2672
46.8732
0.00862978
0.00755193
0.00693088
0.00641948
0.00599488
0.00563978
0.00534084
0.00508794
0.00487299
0.00468977
0.00453287
0.0044
0.00427194
0.0041415
0.00539374
0.0268651
0.173701
0.295608
1.28601
5.14906
26.9215
48.0153
0.00847509
0.00740905
0.00679899
0.00629664
0.00587955
0.00553073
0.00523706
0.00498862
0.00477745
0.00459748
0.0044434
0.0043132
0.00419031
0.00427099
0.0250986
0.146697
0.510039
0.778127
2.367
6.81807
29.1432
49.2846
0.00830565
0.00725258
0.00665525
0.00616352
0.0057554
0.0054142
0.0051271
0.00488437
0.00467823
0.00450273
0.00435268
0.00422706
0.00407665
0.00948862
0.111531
0.413935
0.984484
1.46436
3.62533
8.92742
31.9585
50.6975
0.00817063
0.00712789
0.00654012
0.00605625
0.00565461
0.00531882
0.00503623
0.00479729
0.00459436
0.00442158
0.00427388
0.00415169
0.00415446
0.047835
0.305567
0.752261
1.42729
2.14462
4.80269
11.258
35.3123
52.295
0.00802149
0.00699021
0.0064138
0.00593939
0.00554573
0.00521672
0.00493997
0.0047061
0.00450761
0.00433876
0.00419456
0.00403777
0.00832376
0.158991
0.548572
1.04203
1.75619
2.68537
5.78282
13.5932
39.0933
54.0597
0.00790061
0.00687859
0.00631073
0.00584334
0.00545549
0.00513132
0.00485861
0.00462813
0.00443251
0.00426612
0.00412405
0.00388168
0.0364353
0.320226
0.752723
1.2467
1.98059
3.07652
6.56555
15.7864
43.1629
56.0037
0.00776921
0.00675722
0.00619939
0.00574036
0.00535954
0.00504135
0.00477377
0.00454773
0.00435599
0.004193
0.00405395
0.0042615
0.108505
0.473077
0.899274
1.38585
2.13375
3.3556
7.19068
17.7663
47.3875
58.0812
0.00766014
0.00665656
0.00610645
0.00565376
0.00527818
0.00496435
0.00470042
0.00447745
0.00428832
0.00412757
0.00399051
0.00943181
0.208073
0.591475
1.00088
1.48259
2.24191
3.56009
7.69974
19.513
51.6512
60.2902
0.00754419
0.00654948
0.00600829
0.00556302
0.00519366
0.00488509
0.00462566
0.00440655
0.00422077
0.00406293
0.00392888
0.0317466
0.304944
0.677854
1.07316
1.55266
2.32179
3.71661
8.12546
21.035
55.8668
62.571
0.00744268
0.00645591
0.00592201
0.00548273
0.00511836
0.00481396
0.00455804
0.00434193
0.0041587
0.00400308
0.00387365
0.0781228
0.384361
0.741075
1.12675
1.60573
2.38363
3.84239
8.49141
22.3524
59.9722
64.9213
0.00734005
0.006361
0.00583493
0.00540216
0.00504322
0.0047434
0.00449137
0.00427858
0.00409821
0.00394508
0.00380988
0.135799
0.445446
0.788913
1.16826
1.6477
2.43381
3.94847
8.81388
23.489
63.9322
67.2818
0.00724543
0.00627386
0.00575464
0.00532752
0.0049733
0.00467745
0.00442878
0.00421887
0.00404099
0.00389002
0.0042784
0.190658
0.492193
0.826587
1.20177
1.68228
2.47642
4.04188
9.10394
24.4677
67.7306
69.6617
0.00715519
0.00619034
0.005678
0.00525654
0.00490701
0.00461507
0.0043697
0.00416256
0.00398703
0.00383815
0.00988542
0.237413
0.52888
0.857437
1.22986
1.71192
2.51424
4.12713
9.36886
25.3092
71.3708
72.0102
0.00706443
0.00610693
0.00560132
0.00518546
0.00484064
0.00455271
0.00431076
0.00410659
0.00393364
0.00378751
0.0278321
0.2758
0.558697
0.883589
1.25424
1.73829
2.54919
4.20696
9.61336
26.0321
74.8697
74.3523
0.00698512
0.00603331
0.00553359
0.00512254
0.00478168
0.00449701
0.00425778
0.00405587
0.00388484
0.00374244
0.057062
0.307273
0.58379
0.906446
1.27611
1.76257
2.58267
4.28288
9.84042
26.6525
78.2594
76.6493
0.00689864
0.00595393
0.00546071
0.00505512
0.00471887
0.00443816
0.00420233
0.00400338
0.00383495
0.00370267
0.0890644
0.333429
0.605577
0.926972
1.29631
1.78564
2.61558
4.35562
10.0519
27.1848
81.5826
78.9445
0.00683035
0.00589042
0.00540218
0.00500057
0.00466753
0.0043894
0.00415568
0.00395843
0.0037914
0.00368416
0.118273
0.355663
0.624999
0.945852
1.31547
1.80813
2.64847
4.42551
10.2492
27.6418
84.895
81.212
0.00674467
0.00581206
0.00533054
0.00493463
0.00460648
0.00433257
0.00410251
0.00390848
0.00374428
0.0036452
0.143386
0.375048
0.642701
0.96359
1.33405
1.83046
2.68155
4.49269
10.433
28.0346
88.2603
83.5114
0.00668551
0.00575671
0.00527925
0.00488652
0.00456086
0.00428892
0.00406042
0.00386762
0.00370448
0.00384035
0.16496
0.392358
0.659136
0.980558
1.35236
1.8529
2.7148
4.55731
10.6043
28.373
91.7515
85.8273
0.0066018
0.0056803
0.00520956
0.00482258
0.00450188
0.00423426
0.00400953
0.00382005
0.00365991
0.00578169
0.183886
0.408142
0.674632
0.997031
1.37064
1.87556
2.74811
4.61951
10.7637
28.6653
95.444
88.2307
0.00655212
0.00563356
0.00516599
0.00478138
0.00446244
0.00419611
0.00397234
0.00378354
0.00362434
0.0111196
0.200905
0.422782
0.689432
1.01321
1.38901
1.89847
2.78131
4.67945
10.912
28.9185
99.4145
90.7106
0.00646804
0.00555714
0.00509664
0.00471815
0.00440453
0.00414286
0.00392317
0.00373796
0.00358289
0.0207529
0.216531
0.436554
0.703719
1.02922
1.40752
1.92158
2.81429
4.73731
11.0499
29.1385
103.733
93.3406
0.00642579
0.00551698
0.0050588
0.00468193
0.00436943
0.0041085
0.0038893
0.0037044
0.0035518
0.0345676
0.231096
0.449654
0.717623
1.04516
1.42619
1.94481
2.84695
4.79323
11.178
29.3301
108.46
96.1058
0.00634334
0.00544217
0.00499108
0.00462038
0.00431327
0.00405709
0.00384205
0.00366081
0.00351588
0.0514634
0.244812
0.462228
0.731243
1.06107
1.44497
1.96808
2.87924
4.84734
11.2972
29.4979
113.643
99.0732
0.00630964
0.00540979
0.0049602
0.00459037
0.00428368
0.00402757
0.00381243
0.00363097
0.00349485
0.0700459
0.257818
0.474384
0.744645
1.07697
1.46383
1.99132
2.91111
4.89974
11.4081
29.646
119.316
102.217
0.00622518
0.00533353
0.00489158
0.00452845
0.00422767
0.0039768
0.00376624
0.0035888
0.00347377
0.089088
0.270208
0.486201
0.757869
1.09285
1.48271
2.01446
2.94254
4.95048
11.5116
29.7786
125.499
105.592
0.00619833
0.00530723
0.00486596
0.00450296
0.00420192
0.00395056
0.00373942
0.00356138
0.00347861
0.107747
0.282047
0.497735
0.770938
1.1087
1.50155
2.03745
2.9735
4.99961
11.6082
29.8997
132.206
109.157
0.00611135
0.00522912
0.0047961
0.00444036
0.00414575
0.00390006
0.00369388
0.00352017
0.00354888
0.125478
0.293376
0.509022
0.783858
1.12448
1.52029
2.06023
3.00396
5.04712
11.6988
30.0131
139.442
112.957
0.00608779
0.00520576
0.004773
0.00441699
0.00412176
0.00387526
0.00366826
0.00349378
0.00624559
0.141932
0.304216
0.520085
0.796621
1.14016
1.53889
2.08277
3.0339
5.09299
11.7841
30.1215
147.21
116.938
0.00599581
0.00512375
0.00470015
0.00435218
0.00406405
0.0038238
0.00362222
0.00345246
0.0265573
0.156796
0.314571
0.530932
0.80921
1.15569
1.55729
2.105
3.06329
5.13717
11.8649
30.2269
155.491
121.137
0.00596749
0.00509628
0.00467348
0.00432566
0.00403727
0.00379654
0.00359448
0.00342479
0.0510038
0.169602
0.324435
0.541559
0.821597
1.17103
1.57543
2.1269
3.09206
5.17959
11.942
30.3298
164.235
125.495
0.00586282
0.00500337
0.00459131
0.00425293
0.00397283
0.00373941
0.00354369
0.00338449
0.0650854
0.180232
0.333797
0.551953
0.833752
1.18613
1.59327
2.1484
3.12018
5.22016
12.0161
30.4294
173.308
130.045
0.00582122
0.00496391
0.00455379
0.00421653
0.00393705
0.00370398
0.00350858
0.00334729
0.0729607
0.188949
0.342647
0.562095
0.845639
1.20093
1.61073
2.16946
3.14755
5.2588
12.088
30.5245
182.44
134.727
0.0056996
0.00485637
0.00445871
0.00413212
0.00386191
0.00363695
0.00344863
0.00348927
0.0777464
0.196105
0.350982
0.571954
0.857219
1.21537
1.62777
2.18999
3.1741
5.29543
12.1581
30.614
191.153
139.588
0.00561729
0.00478984
0.00440423
0.004086
0.00382142
0.00360011
0.00341396
0.00393013
0.0808757
0.202009
0.358803
0.581499
0.868453
1.22937
1.64431
2.20994
3.19972
5.33001
12.2264
30.698
198.753
144.654
0.00525487
0.00446055
0.00411224
0.00382668
0.00358945
0.00339096
0.00322375
0.00412983
0.0830238
0.206897
0.366117
0.590687
0.879306
1.24287
1.66027
2.22922
3.22431
5.36255
12.292
30.7783
204.432
150.447
95.0235
46.5326
31.3624
24.8247
24.5452
20.9255
20.1439
18.0124
16.8929
16.2218
15.455
14.5725
15.5074
18.0191
21.5753
24.6096
26.6131
28.484
31.0282
33.3584
35.2072
36.7846
37.827
38.1434
38.0655
37.5781
36.8454
35.8772
34.566
34.3878
36.7306
20.5468
4.58031
3.4618
3.06958
94.6475
46.5489
31.4196
25.0938
25.0403
21.2951
20.5098
18.2981
17.1552
16.4513
15.5709
14.661
15.6032
18.166
21.7845
24.8509
26.8612
28.6771
31.187
33.6199
35.6515
37.3667
38.4959
38.8443
38.7532
38.2056
37.3892
36.3342
34.9569
34.7471
36.9912
21.0604
4.58739
3.45801
3.06607
93.9266
46.5667
31.5294
25.639
26.029
22.0405
21.2286
18.8573
17.6726
16.8942
15.8011
14.8374
15.8023
18.4586
22.2022
25.3647
27.4048
29.1127
31.5423
34.1601
36.5419
38.5303
39.8513
40.2844
40.1815
39.5191
38.531
37.2864
35.7622
35.479
37.4998
21.4202
4.59947
3.45041
3.05905
92.8104
46.5768
31.6986
26.4853
27.5006
23.1635
22.2726
19.67
18.431
17.5402
16.1755
15.1346
16.1311
18.929
22.9041
26.271
28.4001
29.9574
32.2276
35.0845
37.9727
40.3707
41.9958
42.5777
42.4755
41.6435
40.3822
38.8227
37.0437
36.6147
38.3747
21.7555
4.61741
3.43905
3.04855
91.3035
46.5701
31.937
27.6509
29.4333
24.6571
23.6144
20.7244
19.4223
18.3866
16.7295
15.5904
16.6204
19.6096
23.9582
27.7142
30.0896
31.5068
33.4983
36.5937
40.1082
43.0417
45.0911
45.9028
45.8302
44.7744
43.1183
41.0806
38.8956
38.2067
39.7452
22.1749
4.64258
3.42396
3.03458
89.3553
46.5384
32.2583
29.1576
31.8193
26.5238
25.2447
22.0241
20.6512
19.4434
17.4999
16.2439
17.2969
20.515
25.3976
29.8129
32.7621
34.2095
35.7884
39.0259
43.2152
46.785
49.385
50.5281
50.5367
49.2045
47.0033
44.2662
41.4583
40.3347
41.7639
22.7671
4.67672
3.40521
3.01718
87.0012
46.4742
32.6814
31.0389
34.6697
28.7833
27.1768
23.5892
22.1385
20.738
18.5304
17.1395
18.1882
21.6566
27.2339
32.6373
36.6881
38.6529
39.7769
42.9229
47.7183
51.978
55.2529
56.8495
57.0193
55.3618
52.4266
48.685
44.9362
43.113
44.6211
23.6085
4.72182
3.38284
2.99637
84.2135
46.3708
33.232
33.3378
38.0039
31.4676
29.442
25.4542
23.92
22.3156
19.8812
18.3372
19.3384
23.0663
29.4937
36.2349
42.0632
45.4743
46.4377
49.1215
54.2812
59.2034
63.2574
65.4437
65.8867
63.8614
59.9539
54.783
49.6247
46.7021
48.5614
24.7723
4.78001
3.3569
2.9722
81.0699
46.2222
33.9431
36.0953
41.8336
34.6121
32.0831
27.6643
26.0433
24.2373
21.6347
19.9224
20.8208
24.8144
32.2489
40.6698
48.9705
55.1286
56.9527
58.8285
63.9007
69.3312
74.216
77.1235
77.9815
75.5569
70.3827
63.1986
55.9438
51.3221
53.8995
26.3389
4.85349
3.32745
2.94471
77.574
46.0223
34.8566
39.3327
46.1502
38.2453
35.1476
30.2724
28.5632
26.577
23.8971
22.0139
22.7497
27.0217
35.6322
46.0401
57.3278
67.4255
72.1282
73.4577
77.9044
83.5416
89.2137
92.9335
94.3659
91.5353
84.7598
74.7987
64.4698
57.2654
61.0262
28.4071
4.94443
3.29454
2.91398
73.8369
45.7659
36.0227
43.0328
50.9171
42.3815
38.6809
33.3342
31.537
29.4153
26.7933
24.7657
25.2897
29.8739
39.8524
52.4768
66.8155
80.9968
90.8542
93.6118
97.4778
103.033
109.348
113.887
116.048
112.869
104.211
90.611
75.9298
64.8981
70.3811
31.1069
5.05483
3.25821
2.88008
69.8857
45.4477
37.5
47.1278
56.0707
47.0164
42.7192
36.9026
35.017
32.8299
30.4514
28.3645
28.6684
33.635
45.1918
60.1041
76.8499
93.4863
108.825
116.81
122.069
127.885
134.766
140.046
143.057
139.732
129.225
111.407
91.0552
74.6197
82.3402
34.6105
5.18618
3.21852
2.8431
65.8489
45.0599
39.351
51.5056
61.5297
52.1289
47.2825
41.0199
39.0414
36.8816
34.9691
33.0019
33.1773
38.6518
51.97
68.9523
86.7013
102.992
121.091
136.753
147.272
155.038
162.865
168.826
172.738
169.639
158.007
136.542
110.078
86.7222
96.9386
39.1358
5.33891
3.17548
2.80317
61.7626
44.5879
41.6328
56.0383
67.2085
57.6877
52.3715
45.7125
43.6283
41.5924
40.3712
38.8156
39.1357
45.3034
60.4015
78.7935
95.7691
109.415
126.817
148.358
166.283
178.06
187.615
194.257
198.898
196.259
184.804
162.184
131.677
101.06
113.391
44.9247
5.51139
3.1291
2.76041
57.7502
44.0166
44.3805
60.6232
73.031
63.6611
57.9731
50.9836
48.7691
46.9319
46.5623
45.7877
46.7765
53.8237
70.3409
89.0249
103.832
114.117
129.101
152.633
175.904
191.667
203.06
210.098
214.831
212.176
201.671
181.278
151.939
116.537
129.638
52.1574
5.6983
3.07937
2.71497
53.8399
43.332
47.5872
65.2118
78.9406
70.0258
64.0571
56.8171
54.434
52.8165
53.3176
53.6528
55.9898
63.9871
80.9502
98.7337
111.043
118.657
131.269
153.967
178.64
196.007
207.988
214.538
218.262
214.437
204.352
187.929
165.326
130.777
142.57
60.7492
5.88828
3.02626
2.66702
50.1273
42.525
51.1896
69.8125
84.9092
76.744
70.5852
63.1877
60.587
59.1367
60.3418
61.8729
66.0557
74.7408
90.8012
107.101
117.7
123.934
134.915
155.581
178.584
194.76
205.485
210.365
211.949
205.877
195.174
182.182
168.386
140.748
149.383
70.0015
6.06151
2.9697
2.61674
46.6135
41.5986
55.0738
74.4394
90.9299
83.7684
77.5114
70.0667
67.2016
65.8064
67.4004
69.8388
75.7017
84.3712
98.5962
113.799
124.007
130.029
140.024
158.304
178.009
191.14
199.194
201.472
200.173
191.422
179.616
168.798
162.22
144.396
149.149
78.2808
6.18912
2.90967
2.56433
43.349
40.5792
59.1014
79.1006
96.9928
91.0283
84.7764
77.4204
74.2697
72.8001
74.4354
77.1664
83.7489
91.5643
104.075
119.178
130.043
136.401
145.579
161.36
177.159
186.493
191.248
190.493
186.082
174.884
162.225
152.795
150.715
141.818
143.033
83.2647
6.2377
2.84614
2.50999
40.3033
39.529
63.1043
83.8188
103.067
98.4202
92.2992
85.1995
81.7954
80.1664
81.6115
83.9651
89.9481
96.3723
108.05
124.004
135.872
142.34
150.323
163.446
175.346
180.944
182.423
178.651
171.329
158.333
145.462
137.188
137.49
134.789
133.157
83.1263
6.18022
2.77922
2.45394
37.4893
38.555
66.9493
88.5882
109.099
105.812
99.9723
93.3262
89.7765
87.9929
89.2463
90.7625
95.1479
100.115
111.899
129.19
141.678
147.383
153.353
163.576
171.923
174.312
172.904
166.406
156.658
142.682
130.283
123.181
124.635
125.415
121.427
77.7856
6.00826
2.70912
2.39642
34.8769
37.7345
70.594
93.3668
115.017
113.056
107.667
101.688
98.1832
96.3624
97.6125
98.2939
100.793
104.526
116.939
135.514
147.767
151.523
154.483
161.48
166.751
166.606
162.797
153.983
142.436
128.283
116.889
110.998
112.96
115.253
109.089
68.8461
5.73602
2.63622
2.33764
32.4767
37.133
74.0219
98.0858
120.739
120.013
115.247
110.146
106.946
105.303
106.884
107.171
108.232
111.211
124.338
143.632
154.491
155.056
154.035
157.495
160.155
158.084
152.295
141.591
128.91
115.246
105.177
100.461
102.583
105.146
96.8214
58.4277
5.39334
2.56101
2.27786
30.2708
36.816
77.2196
102.658
126.186
126.563
122.578
118.548
115.957
114.78
117.094
117.787
118.359
121.425
135.074
154.05
162.155
158.358
152.563
152.235
152.674
149.116
141.645
129.462
116.273
103.577
94.9473
91.2872
93.3365
95.4319
84.9745
48.1839
5.01427
2.48406
2.21728
28.2673
36.8591
80.176
106.988
131.281
132.613
129.548
126.754
125.091
124.701
128.148
130.186
131.543
136.098
150.143
167.294
170.994
161.713
150.565
146.321
144.836
140.048
131.083
117.814
104.663
93.2198
85.9906
83.2046
84.9895
86.1825
73.7587
39.0326
4.6281
2.40596
2.15615
26.4614
37.3499
82.8882
110.986
135.964
138.107
136.068
134.648
134.222
134.959
139.918
144.192
147.73
155.648
170.378
183.802
181.153
165.309
148.478
140.283
137.054
131.129
120.796
106.827
94.1505
84.0803
78.112
75.9857
77.3292
77.3739
63.3343
31.3137
4.25563
2.32725
2.09468
24.8623
38.3804
85.3638
114.585
140.197
143.023
142.087
142.155
143.251
145.454
152.283
159.6
166.638
180.003
196.353
203.906
192.633
169.209
146.611
134.536
129.605
122.509
110.919
96.6285
84.7462
76.0415
71.142
69.4545
70.1944
68.9784
53.8318
25.028
3.90922
2.24843
2.03307
23.4808
40.0333
87.6178
117.75
143.969
147.377
147.596
149.247
152.122
156.126
165.184
176.267
187.982
208.69
227.83
227.392
205.174
173.364
145.196
129.386
122.655
114.258
101.541
87.2909
76.4081
68.9761
64.9372
63.479
63.4794
61.0016
45.3437
20.0184
3.59458
2.16992
1.97154
22.3333
42.3689
89.6651
120.479
147.296
151.216
152.624
155.941
160.828
166.965
178.619
194.115
211.578
241.231
263.84
253.35
218.144
177.534
144.275
124.998
116.265
106.393
92.7282
78.841
69.0598
62.7583
59.3788
57.9637
57.1267
53.4848
37.9108
16.0758
3.31293
2.09207
1.91025
21.4546
45.4147
91.5178
122.799
150.215
154.607
157.23
162.299
169.415
178.025
192.662
213.186
237.404
277.226
302.659
279.894
230.488
181.323
143.752
121.391
110.414
98.9055
84.5215
71.2686
62.6057
57.2707
54.37
52.8413
51.1173
46.4904
31.5199
12.9932
3.06285
2.01517
1.84938
20.8892
49.1534
93.1828
124.753
152.778
157.626
161.498
168.413
177.983
189.424
207.469
233.628
265.626
316.462
342.321
304.646
240.887
184.182
143.333
118.43
105.011
91.7742
76.9499
64.535
56.9433
52.4088
49.8329
48.0659
45.4577
40.0812
26.1108
10.5881
2.84152
1.93945
1.78908
20.7351
53.5133
94.6643
126.39
155.043
160.354
165.525
174.411
186.696
201.381
223.333
255.79
296.678
358.721
380.363
324.973
248.02
185.56
142.665
115.86
99.923
84.9831
70.0268
58.5821
51.9715
48.0821
45.7055
43.6068
40.1684
34.3035
21.5914
8.70971
2.64563
1.86509
1.72949
21.1259
58.3628
95.9674
127.766
157.073
162.874
169.425
180.464
195.8
214.257
240.751
280.303
331.37
403.66
414.02
338.651
250.875
184.978
141.346
113.348
94.9938
78.5265
63.7517
53.3396
47.5956
44.2139
41.9379
39.4447
35.2734
29.1771
17.8528
7.23752
2.47179
1.79223
1.67074
22.2957
63.518
97.1019
128.935
158.932
165.271
173.335
186.802
205.679
228.659
260.602
308.328
371.054
450.213
439.913
343.936
248.906
182.158
139.073
110.565
90.0807
72.4127
58.1083
48.7317
43.7307
40.7403
38.4899
35.5669
30.7924
24.6938
14.782
6.07749
2.31685
1.72098
1.61294
24.5223
68.7673
98.083
129.947
160.69
167.641
177.427
193.761
216.944
245.613
284.409
341.851
417.631
495.842
454.629
340.054
242.099
177.013
135.611
107.232
85.0771
66.6592
53.0669
44.6812
40.3019
37.608
35.3286
31.9649
26.7357
20.822
12.2716
5.1572
2.17802
1.65144
1.55617
28.1637
73.9027
98.9294
130.849
162.419
170.097
181.941
201.846
230.594
266.875
314.811
384.172
473.013
535.306
455.117
327.143
230.908
169.67
130.881
103.175
79.9344
61.2874
48.5849
41.1141
37.2451
34.7729
32.4262
28.6319
23.1027
17.5127
10.2242
4.42134
2.05285
1.58367
1.50054
33.4954
78.7508
99.6609
131.684
164.203
172.789
187.219
211.853
248.303
295.474
356.233
440.088
536.786
560.506
440.018
306.491
216.165
160.4
124.882
98.3204
74.6606
56.3131
44.611
37.9617
34.5058
32.1982
29.7588
25.5615
19.8816
14.708
8.55562
3.8278
1.93929
1.51774
1.44612
40.701
83.1936
100.296
132.492
166.144
175.923
193.787
225.08
272.939
336.56
415.471
514.477
600.941
562.391
410.235
280.124
198.92
149.608
117.736
92.6944
69.3097
51.7405
41.088
35.1621
32.0384
29.8531
27.3055
22.7464
17.0515
12.3461
7.19452
3.34457
1.83561
1.45371
1.39298
49.6321
87.1777
100.851
133.32
168.383
179.812
202.485
243.706
309.431
398.262
499.89
604.541
644.855
535.781
369.368
250.562
180.3
137.761
109.619
86.3897
63.9552
47.5577
37.9575
32.6612
29.8056
27.7118
25.0477
20.178
14.5852
10.3668
6.08188
2.94729
1.74037
1.39163
1.34119
59.8743
90.7107
101.342
134.224
171.128
184.956
214.708
271.501
365.953
489.915
605.979
683.339
642.958
483.242
322.47
220.165
161.354
125.367
100.786
79.5519
58.6717
43.7389
35.1624
30.4131
27.7765
25.7528
22.969
17.8466
12.4509
8.71386
5.16951
2.61733
1.65239
1.33154
1.29081
70.5911
93.8446
101.785
135.284
174.707
192.198
232.905
315.062
453.435
607.427
694.132
700.117
586.759
414.885
274.773
190.893
142.965
112.915
91.5187
72.3588
53.5203
40.2467
32.6502
28.3795
25.9267
23.9579
21.0551
15.7411
10.6152
7.3366
4.41846
2.34043
1.57071
1.2735
1.2419
80.9187
96.6593
102.2
136.625
179.688
203.074
261.61
385.059
572.503
699.769
698.059
631.979
494.707
343.036
230.124
164.015
125.796
100.855
82.1303
65.01
48.5462
37.0385
30.3742
26.5295
24.2366
22.3123
19.2937
13.8495
9.04457
6.19065
3.79744
2.1056
1.49453
1.21757
1.19452
89.3733
99.2477
102.614
138.462
187.142
220.618
309.41
490.334
671.217
688.46
605.936
514.74
395.454
276.868
190.697
140.243
110.297
89.5616
72.923
57.7112
43.78
34.0699
28.294
24.8379
22.6908
20.8041
17.6744
12.1591
7.70675
5.23772
3.2814
1.90433
1.4232
1.16378
1.14874
95.1437
101.716
103.075
141.199
199.303
251.297
389.568
596.212
654.525
574.403
475.654
397.892
308.116
220.451
157.097
119.738
96.6767
79.3129
64.1938
50.6693
39.2434
31.2992
26.3756
23.285
21.277
19.4238
16.1892
10.6566
6.57145
4.44527
2.85035
1.72997
1.35617
1.11218
1.10459
0.00337786
0.00250515
0.00227781
0.00216641
0.00212596
0.00212971
0.00216219
0.00419123
0.0841671
0.209942
0.371214
0.597203
0.88697
1.2523
1.67143
2.24268
3.24143
5.38513
12.3382
30.8395
206.698
160.164
0.00334444
0.00224248
0.00184237
0.00160654
0.00148556
0.00144794
0.00148048
0.00422349
0.0847306
0.211589
0.374139
0.600816
0.890991
1.25707
1.67695
2.24934
3.25012
5.3973
12.3663
30.8854
207.633
170.298
0.00354049
0.00237579
0.00188211
0.00154451
0.0013228
0.00119223
0.00116182
0.00424594
0.0851004
0.212795
0.376417
0.603453
0.893625
1.25994
1.68011
2.25313
3.25531
5.40541
12.3878
30.9325
207.72
179.974
0.00367085
0.0025174
0.00200379
0.00162963
0.00135789
0.00116667
0.00103206
0.00426105
0.0853039
0.213587
0.378045
0.605095
0.894842
1.26089
1.68086
2.25398
3.25689
5.40928
12.4011
30.9815
207.022
189.058
0.00392261
0.0027639
0.00222628
0.00182191
0.00151397
0.00127976
0.000998378
0.00427035
0.0853569
0.213983
0.379016
0.605729
0.894622
1.25989
1.67918
2.25185
3.25477
5.4087
12.4045
31.0326
205.583
198.012
0.00406027
0.00292971
0.00239836
0.00199182
0.00167486
0.00142482
0.000987287
0.00427475
0.085269
0.213994
0.379326
0.605345
0.892955
1.25695
1.67505
2.24671
3.24887
5.40352
12.3966
31.0861
203.436
207.004
0.00434052
0.00320795
0.00265937
0.00223318
0.00189569
0.00162422
0.00105631
0.00427477
0.0850458
0.213629
0.378974
0.603943
0.889842
1.25207
1.66848
2.23855
3.23914
5.39357
12.3758
31.1415
200.62
216.034
0.00447864
0.00337927
0.00284377
0.0024232
0.00208614
0.00181095
0.00118293
0.00427049
0.0846904
0.212893
0.377964
0.601529
0.885299
1.24526
1.6595
2.22738
3.22553
5.37872
12.3411
31.1982
197.184
225.041
0.00478408
0.00368461
0.00313448
0.00269666
0.00234168
0.00204859
0.00130756
0.00426166
0.084205
0.211794
0.37631
0.598121
0.879353
1.23658
1.64814
2.2132
3.20798
5.35885
12.2913
31.2545
193.184
233.952
0.00490876
0.00384888
0.0033194
0.00289441
0.00254656
0.00225603
0.00139791
0.00424779
0.0835903
0.210339
0.374027
0.593744
0.872044
1.22606
1.63447
2.19606
3.18649
5.33382
12.2257
31.3083
188.681
242.686
0.00522942
0.00417122
0.00362992
0.00319023
0.00282679
0.00252058
0.00151187
0.00422833
0.0828467
0.208538
0.371141
0.588432
0.863423
1.21377
1.61855
2.17602
3.16101
5.30352
12.1435
31.3561
183.74
251.13
0.00533936
0.00432473
0.00380977
0.00338884
0.00303829
0.00274018
0.00163141
0.00420243
0.081973
0.206398
0.367678
0.582228
0.853556
1.19979
1.60049
2.15314
3.13155
5.26784
12.0444
31.3939
178.428
259.152
0.00567212
0.0046609
0.00413662
0.00370314
0.00333883
0.00302674
0.00183576
0.00416917
0.0809666
0.203932
0.363669
0.575183
0.842512
1.1842
1.58038
2.12754
3.09812
5.22664
11.9279
31.4164
172.813
266.603
0.00575633
0.00479295
0.00430106
0.00389271
0.0035476
0.00324971
0.00211342
0.00412705
0.0798219
0.201148
0.359147
0.567354
0.830373
1.1671
1.55834
2.09932
3.06074
5.1798
11.794
31.4172
166.964
273.33
0.0060921
0.00513328
0.0046342
0.00421535
0.0038584
0.00354848
0.00251793
0.00407434
0.0785295
0.198054
0.354145
0.558802
0.817226
1.1486
1.5345
2.06861
3.01948
5.12718
11.6426
31.3891
160.944
279.185
0.00615225
0.00524301
0.00478008
0.00439082
0.00405784
0.00376706
0.00298403
0.00400803
0.0770739
0.194655
0.348693
0.549594
0.803162
1.1288
1.50901
2.03559
2.97442
5.06863
11.4737
31.3239
154.813
284.036
0.00648674
0.00558305
0.0051147
0.00471653
0.00437316
0.00407171
0.00349639
0.00392471
0.0754306
0.190946
0.342819
0.539797
0.788279
1.10784
1.48199
2.00041
2.9257
5.00399
11.2877
31.213
148.626
287.772
0.00651843
0.00566551
0.00523644
0.00487173
0.00455661
0.00427878
0.00389274
0.00381792
0.0735629
0.186916
0.336542
0.529478
0.772675
1.08583
1.45361
1.96326
2.87347
4.93312
11.0849
31.0471
142.43
290.311
0.00683899
0.00599241
0.00555971
0.00518795
0.00486425
0.00457758
0.00426948
0.00368661
0.0714161
0.182537
0.329872
0.518701
0.75645
1.06288
1.42401
1.92433
2.81791
4.85587
10.8658
30.8171
136.268
291.595
0.00685357
0.0060558
0.00566225
0.00532479
0.00503087
0.00476986
0.00452467
0.0035399
0.0689107
0.177762
0.322806
0.507523
0.739706
1.03914
1.39334
1.88382
2.75926
4.77213
10.6312
30.5138
130.172
291.592
0.00716007
0.00636937
0.00597369
0.00563058
0.0053293
0.00506052
0.00481994
0.00344599
0.0659331
0.172514
0.31532
0.495988
0.722541
1.01471
1.36176
1.84192
2.69777
4.68182
10.3817
30.1291
124.171
290.289
0.00715671
0.00641256
0.00605549
0.00574706
0.00547664
0.00523508
0.00502034
0.00358412
0.0623256
0.166674
0.307362
0.484125
0.705048
0.989727
1.3294
1.79885
2.6337
4.58488
10.1184
29.6558
118.284
287.691
0.00744653
0.00670963
0.00635135
0.00603824
0.00576138
0.00551287
0.00528965
0.00404732
0.0578786
0.16007
0.298838
0.471934
0.687308
0.964314
1.29642
1.75479
2.56736
4.48134
9.84216
29.0881
112.527
283.813
0.00743063
0.00673707
0.00641568
0.00613639
0.0058902
0.00566924
0.00546866
0.00464067
0.0523326
0.152456
0.289601
0.459379
0.669386
0.938585
1.26296
1.70994
2.49905
4.37129
9.55411
28.4224
106.909
278.682
0.00770414
0.00701775
0.00669577
0.00641247
0.00616044
0.00593301
0.00572494
0.00523449
0.0454297
0.143492
0.279425
0.446368
0.651317
0.912658
1.22914
1.6645
2.42911
4.2549
9.25535
27.6574
101.435
272.331
0.00767679
0.00703045
0.00674338
0.00649266
0.00627068
0.00607069
0.00588673
0.00561518
0.0370697
0.132731
0.267982
0.432735
0.633094
0.886628
1.19511
1.61864
2.35787
4.13245
8.94698
26.7943
96.1044
264.802
0.00793327
0.00729373
0.00700634
0.006752
0.00652456
0.00631842
0.00612827
0.0059229
0.0276487
0.119644
0.254804
0.418203
0.614639
0.860572
1.16098
1.57254
2.28569
4.00432
8.6301
25.8372
90.9152
256.146
0.00789957
0.00729642
0.00704133
0.00681762
0.00661884
0.0064392
0.00627314
0.0061097
0.0183911
0.103741
0.23925
0.402354
0.595779
0.83452
1.12686
1.52638
2.21294
3.87103
8.30575
24.7932
85.8604
246.427
0.00814115
0.00754429
0.00728896
0.00706181
0.00685775
0.00667204
0.00650005
0.00633631
0.0112669
0.0848902
0.22048
0.384569
0.5762
0.808429
1.09284
1.48032
2.14
3.73323
7.97496
23.6719
80.9315
235.723
0.00810338
0.00753941
0.00731379
0.00711522
0.00693823
0.00677785
0.00662922
0.00648745
0.00754617
0.0638985
0.197508
0.363972
0.555395
0.782134
1.05896
1.4345
2.06725
3.59172
7.63872
22.4855
76.1163
224.13
0.00833021
0.00777195
0.00754606
0.00734419
0.00716208
0.00699576
0.00684128
0.00669512
0.00655409
0.0430073
0.169449
0.339358
0.532595
0.755298
1.02516
1.38903
1.99509
3.44749
7.29807
21.2481
71.4023
211.762
0.00829267
0.00776381
0.00756484
0.00738917
0.00723216
0.00708954
0.00695711
0.00683099
0.00659061
0.025484
0.136161
0.309179
0.506679
0.727328
0.991273
1.34398
1.92392
3.30167
6.95414
19.9751
66.7753
198.755
0.00850598
0.0079823
0.00778305
0.00760423
0.00744229
0.00729389
0.00715566
0.00702481
0.00684309
0.0140823
0.0993704
0.271729
0.476056
0.697295
0.956889
1.29928
1.85408
3.15558
6.60831
18.6831
62.2231
185.26
0.00847103
0.00797348
0.00779843
0.00764345
0.00750457
0.00737813
0.00726048
0.00714833
0.00702085
0.00876587
0.0636136
0.225841
0.438568
0.663811
0.921305
1.25472
1.78584
3.01067
6.26226
17.3884
57.7358
171.444
0.00867163
0.00817876
0.00800342
0.00784545
0.00770188
0.00756988
0.00744657
0.00732959
0.00721063
0.00714654
0.0351295
0.172462
0.391576
0.62488
0.883399
1.20984
1.71931
2.86844
5.91814
16.1073
53.3106
157.485
0.00864159
0.0081718
0.00801805
0.00788154
0.00775892
0.00764703
0.00754269
0.00744302
0.00734309
0.00696155
0.0178475
0.116687
0.332644
0.577731
0.841478
1.16381
1.65437
2.73032
5.57855
14.8554
48.9525
143.565
0.00883158
0.00836597
0.00821185
0.00807248
0.00794536
0.0078281
0.00771821
0.00761366
0.00751115
0.00720531
0.0103181
0.0678431
0.261539
0.518856
0.793096
1.11535
1.59055
2.59749
5.24651
13.647
44.6782
129.86
0.00880915
0.00836383
0.00822883
0.00810864