/*--------------------------------*- C++ -*----------------------------------*\
| =========                 |                                                 |
| \\      /  F ield         | OpenFOAM: The Open Source CFD Toolbox           |
|  \\    /   O peration     | Version:  v1912                                 |
|   \\  /    A nd           | Website:  www.openfoam.com                      |
|    \\/     M anipulation  |                                                 |
\*---------------------------------------------------------------------------*/
FoamFile
{
    version     2.0;
    format      ascii;
    class       volScalarField;
    location    "430";
    object      nut;
}
// * * * * * * * * * * * * * * * * * * * * * * * * * * * * * * * * * * * * * //

dimensions      [0 2 -1 0 0 0 0];


internalField   nonuniform List<scalar> 
12441
(
5.82188e-24
1.79048e-20
8.10476e-20
3.32535e-19
1.06829e-18
3.88828e-18
1.01056e-17
2.5005e-17
6.1384e-17
1.27529e-16
3.05662e-16
7.71344e-16
2.18156e-15
7.40138e-15
1.03563e-13
1.89408e-11
0.000194271
0.000939693
0.00302454
0.00262121
0.00364674
0.00775321
6.34185e-24
3.0334e-20
1.11728e-19
4.23934e-19
1.30206e-18
4.8072e-18
1.21983e-17
3.00097e-17
7.3609e-17
1.54449e-16
3.79806e-16
1.029e-15
2.82902e-15
9.37483e-15
1.12992e-13
3.89891e-11
5.77895e-05
0.00113937
0.00346405
0.00285403
0.00400929
0.00781733
6.36462e-24
3.58943e-20
1.20774e-19
4.48116e-19
1.3777e-18
4.9066e-18
1.29287e-17
3.20405e-17
8.05129e-17
1.71767e-16
4.1789e-16
1.11722e-15
2.78551e-15
7.66307e-15
5.34719e-14
6.57045e-12
1.11029e-05
0.000836743
0.00138252
0.002693
0.00416248
0.0078909
6.31908e-24
3.76904e-20
1.1853e-19
4.29294e-19
1.3253e-18
4.71341e-18
1.25131e-17
3.13261e-17
7.84924e-17
1.73668e-16
4.23758e-16
1.15376e-15
2.61104e-15
8.47426e-15
3.84792e-14
1.54249e-12
1.62528e-06
0.000584221
0.00103172
0.00261682
0.0043252
0.0079647
6.28505e-24
4.38816e-20
1.29774e-19
4.58297e-19
1.40264e-18
4.77916e-18
1.30905e-17
3.27938e-17
8.42952e-17
1.87517e-16
4.54164e-16
1.28439e-15
3.01955e-15
4.07093e-14
2.46988e-13
2.29662e-12
1.39628e-07
0.0004131
0.00101359
0.00260451
0.00446551
0.00803394
6.23486e-24
4.12865e-20
1.20535e-19
4.29172e-19
1.34267e-18
4.62189e-18
1.27499e-17
3.23919e-17
8.28912e-17
1.92679e-16
4.76946e-16
1.44526e-15
4.5335e-15
1.32901e-12
1.18903e-11
5.10146e-11
4.58537e-07
0.000380978
0.0010819
0.00266133
0.00459164
0.00809948
6.19998e-24
5.02622e-20
1.3779e-19
4.7575e-19
1.46009e-18
4.79226e-18
1.35926e-17
3.44523e-17
9.06991e-17
2.11115e-16
5.20842e-16
1.99967e-15
2.50271e-14
4.14453e-11
6.57303e-10
9.37133e-09
1.87557e-05
0.000402411
0.00127052
0.00284449
0.00473612
0.00816218
6.15019e-24
4.34506e-20
1.23167e-19
4.40139e-19
1.4081e-18
4.72258e-18
1.35117e-17
3.48435e-17
9.13158e-17
2.23838e-16
5.7251e-16
5.4349e-15
6.09841e-13
2.25368e-09
8.41169e-08
4.98137e-06
0.000196403
0.000466391
0.00172319
0.00321689
0.00492445
0.00822577
6.11741e-24
5.57023e-20
1.46125e-19
4.99657e-19
1.55405e-18
4.95842e-18
1.46111e-17
3.7569e-17
1.0207e-16
2.50935e-16
6.45345e-16
6.13382e-14
2.59074e-11
7.42582e-08
1.04391e-05
0.000155597
0.000815569
0.000840431
0.00265962
0.00385042
0.00518844
0.00829204
6.07054e-24
4.4348e-20
1.25431e-19
4.56611e-19
1.50747e-18
4.95338e-18
1.47468e-17
3.87236e-17
1.04873e-16
2.75109e-16
7.48619e-16
1.68165e-12
1.08312e-09
4.43771e-06
0.00019325
0.000633235
0.00177172
0.00161553
0.00439329
0.00482256
0.00554107
0.00836448
6.04139e-24
6.02581e-20
1.53428e-19
5.25885e-19
1.67264e-18
5.20569e-18
1.60244e-17
4.20327e-17
1.19289e-16
3.17355e-16
8.92071e-16
5.22996e-11
5.50333e-08
8.24366e-05
0.000745147
0.00181811
0.00401061
0.00328895
0.00739729
0.00623523
0.00599552
0.00844366
5.99596e-24
4.46273e-20
1.27731e-19
4.76922e-19
1.63362e-18
5.28068e-18
1.64015e-17
4.40629e-17
1.25494e-16
3.64613e-16
1.1586e-15
1.45651e-09
3.24726e-06
0.000354655
0.00169632
0.00424954
0.00865475
0.00672797
0.0121612
0.00813575
0.0065411
0.00853143
5.97038e-24
6.41474e-20
1.60444e-19
5.53787e-19
1.81488e-18
5.54164e-18
1.79076e-17
4.82197e-17
1.46697e-16
4.44705e-16
1.69454e-15
3.52183e-08
7.31184e-05
0.00114675
0.00436599
0.00975638
0.017687
0.0131317
0.0188667
0.0105086
0.00716916
0.00862633
5.92638e-24
4.43238e-20
1.29665e-19
4.99292e-19
1.78311e-18
5.69162e-18
1.85315e-17
5.13813e-17
1.59844e-16
5.59127e-16
3.60134e-15
7.96694e-07
0.00035559
0.00309124
0.0100519
0.0200464
0.0328892
0.0235267
0.0272028
0.0132306
0.00784823
0.00872852
5.90403e-24
6.75137e-20
1.66649e-19
5.82598e-19
1.97791e-18
5.93982e-18
2.02681e-17
5.67798e-17
1.96046e-16
7.78669e-16
1.65169e-14
1.52091e-05
0.00119875
0.00756941
0.0205509
0.036593
0.0550691
0.0380496
0.036358
0.0161459
0.00855882
0.00883515
5.86032e-24
4.39574e-20
1.31992e-19
5.24784e-19
1.95771e-18
6.18523e-18
2.12011e-17
6.1676e-17
2.28157e-16
1.21621e-15
3.02156e-13
0.000138907
0.00310117
0.0160369
0.0372636
0.0598928
0.0834018
0.0554452
0.0453311
0.0190565
0.00926494
0.00894576
5.84127e-24
7.05384e-20
1.73499e-19
6.15099e-19
2.17051e-18
6.43923e-18
2.33096e-17
6.9375e-17
3.08218e-16
2.30482e-15
1.26022e-11
0.00054151
0.00732776
0.0297801
0.0602835
0.0891868
0.115123
0.0732936
0.0532359
0.021824
0.00995224
0.00905718
5.79728e-24
4.35009e-20
1.34488e-19
5.53117e-19
2.16058e-18
6.77127e-18
2.46172e-17
7.72263e-17
4.08448e-16
5.44536e-15
5.47979e-10
0.00143643
0.0150986
0.0494259
0.0890193
0.122197
0.145969
0.0888715
0.0596161
0.0243255
0.0105938
0.00916919
5.78096e-24
7.32622e-20
1.80283e-19
6.49113e-19
2.38793e-18
7.01137e-18
2.71815e-17
8.90674e-17
6.61701e-16
1.69223e-14
4.40859e-08
0.00362276
0.0276237
0.074173
0.121178
0.155543
0.171366
0.100309
0.0644178
0.0265281
0.0111893
0.00927899
5.7364e-24
4.30521e-20
1.36867e-19
5.82386e-19
2.3868e-18
7.43786e-18
2.90062e-17
1.02312e-16
1.08038e-15
7.5268e-14
8.56422e-06
0.0079331
0.0451987
0.102789
0.154268
0.185294
0.187859
0.107178
0.0679345
0.0284011
0.011725
0.00938714
5.72337e-24
7.57282e-20
1.86798e-19
6.83164e-19
2.6292e-18
7.6728e-18
3.23031e-17
1.22242e-16
2.19369e-15
7.80157e-13
0.000169744
0.0155725
0.0671684
0.132986
0.184769
0.208157
0.194267
0.110413
0.070541
0.0299805
0.0122139
0.00949146
5.67798e-24
4.24333e-20
1.38568e-19
6.10911e-19
2.63505e-18
8.19301e-18
3.49386e-17
1.46458e-16
4.33999e-15
1.34053e-11
0.00068277
0.0273106
0.0921382
0.162861
0.210178
0.222165
0.19189
0.111531
0.0726112
0.0312784
0.0126536
0.00959327
5.66764e-24
7.80217e-20
1.92467e-19
7.15471e-19
2.88982e-18
8.41809e-18
3.94322e-17
1.83577e-16
1.02754e-14
1.66095e-10
0.00186483
0.0431882
0.118401
0.190041
0.228234
0.227291
0.183772
0.111899
0.0743815
0.0323557
0.0130681
0.00969106
5.62171e-24
4.19635e-20
1.39789e-19
6.37989e-19
2.90254e-18
9.03733e-18
4.34998e-17
2.31484e-16
2.24195e-14
1.55797e-09
0.00443349
0.062604
0.144314
0.21309
0.238648
0.225066
0.17334
0.112286
0.0760081
0.0332424
0.0134649
0.00978684
5.6149e-24
8.02746e-20
1.97576e-19
7.45807e-19
3.17115e-18
9.26719e-18
5.02634e-17
3.0642e-16
5.64388e-14
1.37798e-08
0.00916168
0.0842776
0.168509
0.230712
0.241888
0.218037
0.163246
0.112937
0.0775419
0.0340146
0.0138766
0.00987966
5.56718e-24
4.17915e-20
1.40761e-19
6.63857e-19
3.19197e-18
9.99221e-18
5.71506e-17
4.08446e-16
1.30476e-13
3.18959e-07
0.0167282
0.106953
0.189965
0.242844
0.239818
0.208758
0.154876
0.113774
0.0790084
0.0347172
0.0143169
0.00997203
5.56288e-24
8.24835e-20
2.02096e-19
7.74011e-19
3.47286e-18
1.02322e-17
6.84593e-17
5.73346e-16
3.9253e-13
1.87477e-05
0.027232
0.129318
0.20803
0.249695
0.234184
0.199264
0.148553
0.114637
0.080388
0.0354331
0.0148223
0.0100634
5.51401e-24
4.18591e-20
1.4122e-19
6.87514e-19
3.50147e-18
1.10687e-17
8.13266e-17
8.10366e-16
1.82988e-12
0.000213831
0.0404152
0.150488
0.222409
0.252344
0.226937
0.190733
0.144007
0.115377
0.0816679
0.0362046
0.0154053
0.0101564
5.51309e-24
8.46755e-20
2.05797e-19
7.99215e-19
3.79624e-18
1.13441e-17
1.02512e-16
1.20437e-15
1.28011e-11
0.000729155
0.0555472
0.16973
0.233145
0.251735
0.219256
0.183661
0.140783
0.115913
0.0828147
0.0370956
0.0160961
0.0102507
5.46196e-24
4.20342e-20
1.40965e-19
7.08407e-19
3.83357e-18
1.23044e-17
1.28825e-16
1.79569e-15
7.40893e-11
0.00151378
0.0719738
0.186665
0.240533
0.249083
0.212077
0.178058
0.138462
0.116207
0.0838097
0.038118
0.0168945
0.0103488
5.46306e-24
8.68067e-20
2.08978e-19
8.21802e-19
4.14321e-18
1.26532e-17
1.72477e-16
2.80955e-15
3.56396e-10
0.00273415
0.0889339
0.201027
0.245047
0.245165
0.205693
0.173729
0.136728
0.116264
0.084621
0.0392946
0.0178139
0.01045
5.41087e-24
4.22464e-20
1.39899e-19
7.26602e-19
4.19081e-18
1.37413e-17
2.30129e-16
4.38951e-15
1.38684e-09
0.00458649
0.105898
0.212814
0.247232
0.240757
0.200297
0.170404
0.135373
0.116106
0.0852322
0.040596
0.0188335
0.0105565
5.41508e-24
8.89186e-20
2.11415e-19
8.42387e-19
4.52267e-18
1.41933e-17
3.26399e-16
7.08354e-15
4.74637e-09
0.00734177
0.122316
0.222093
0.247639
0.236213
0.195771
0.167843
0.13427
0.115768
0.0856167
0.0420087
0.0199454
0.010667
5.35942e-24
4.22789e-20
1.37809e-19
7.42873e-19
4.5849e-18
1.54535e-17
4.58249e-16
1.12955e-14
1.44518e-08
0.0112731
0.137891
0.229107
0.246765
0.231887
0.192059
0.165841
0.133347
0.115283
0.0857623
0.0434806
0.021109
0.0107831
5.36557e-24
8.84582e-20
2.1034e-19
8.57242e-19
4.93663e-18
1.60481e-17
6.77985e-16
1.85072e-14
4.28057e-08
0.0166647
0.152368
0.23411
0.245031
0.227848
0.188974
0.164253
0.132571
0.11469
0.0856484
0.0449911
0.0223036
0.0109032
5.30587e-24
4.14862e-20
1.32575e-19
7.51619e-19
5.0101e-18
1.74625e-17
9.80464e-16
2.99181e-14
2.19791e-07
0.0238896
0.165742
0.237453
0.242771
0.224233
0.186443
0.16297
0.131929
0.114022
0.0852689
0.0464992
0.0234812
0.0110282
5.31241e-24
8.52642e-20
2.03827e-19
8.62075e-19
5.38115e-18
1.81868e-17
1.47472e-15
5.74591e-14
1.16007e-05
0.0334387
0.178046
0.23944
0.240241
0.220999
0.18432
0.161926
0.131423
0.113315
0.084612
0.0480119
0.0246228
0.0111563
5.24594e-24
4.16152e-20
1.27325e-19
7.57695e-19
5.48264e-18
1.98569e-17
2.14234e-15
4.65027e-13
0.000234297
0.0460772
0.189483
0.240414
0.237628
0.218212
0.18257
0.161074
0.131064
0.1126
0.0836824
0.0495259
0.0256911
0.0112883
5.24937e-24
5.37907e-20
1.54724e-19
7.99496e-19
5.76893e-18
2.06393e-17
3.20156e-15
2.31292e-11
0.00193639
0.0627424
0.200194
0.240643
0.235063
0.215808
0.181099
0.160399
0.13087
0.111912
0.0824832
0.0510877
0.0266891
0.011422
5.17253e-24
4.32809e-20
1.14473e-19
7.24272e-19
5.94032e-18
2.35446e-17
4.6626e-15
1.03288e-09
0.00834005
0.0840602
0.210356
0.240406
0.232628
0.213855
0.179917
0.159892
0.130864
0.111279
0.0810384
0.0527218
0.0276084
0.0115584
5.16595e-24
1.93954e-21
1.12093e-20
4.00655e-19
5.44916e-18
2.44381e-17
7.20719e-15
1.84518e-07
0.0237036
0.110019
0.219972
0.239901
0.230366
0.212305
0.178967
0.159566
0.131067
0.110729
0.0793755
0.0544673
0.028487
0.0116955
5.07777e-24
1.71167e-20
4.47735e-20
4.17381e-19
5.46223e-18
3.62068e-17
1.80056e-14
5.44663e-05
0.0517613
0.140153
0.229013
0.239342
0.228281
0.211252
0.178303
0.159438
0.131502
0.110279
0.0775488
0.0562673
0.0293388
0.0118345
5.03901e-24
6.7203e-22
8.45934e-23
2.35247e-19
5.06636e-18
8.28177e-17
3.70784e-13
0.00138338
0.095098
0.173626
0.237265
0.238868
0.226347
0.210653
0.177883
0.159546
0.132189
0.109937
0.0756191
0.05795
0.0301641
0.011976
4.83822e-24
2.10326e-19
4.58143e-19
1.02954e-18
7.26058e-18
9.13555e-16
7.18211e-12
0.00910599
0.154808
0.209934
0.244885
0.238747
0.224534
0.210599
0.177763
0.159907
0.133125
0.109639
0.0736622
0.0590772
0.0306577
0.0121338
0.00987657
0.0317959
0.0335771
0.0126865
0.00957639
0.00945281
0.00957945
0.00998603
0.00998658
0.0106387
0.0155972
0.0151479
0.0140631
0.0137965
0.0144213
0.0161653
0.0184756
0.0199485
0.0188016
0.0151416
0.0126653
0.0120346
0.0120444
0.0123203
0.0128166
0.0134015
0.0139885
0.0146208
0.0153097
0.0153513
0.0143876
0.0257092
0.115564
0.152732
0.172557
0.00986353
0.0323697
0.0326595
0.0123508
0.00947921
0.00934204
0.00966562
0.0100995
0.010015
0.0106561
0.0152667
0.0147648
0.0137212
0.0134162
0.0140173
0.0157687
0.0182373
0.0200338
0.019079
0.0152273
0.012535
0.0118298
0.0118125
0.0120697
0.0125586
0.0131487
0.0137525
0.0144057
0.0151123
0.0151632
0.0142607
0.0250346
0.11519
0.152628
0.172483
0.00983842
0.0328996
0.0310608
0.0117716
0.00942708
0.00922842
0.00989051
0.0103446
0.0101165
0.0107293
0.0141367
0.0135052
0.012707
0.0123295
0.0125156
0.0136642
0.0156994
0.017625
0.0174618
0.0143799
0.0120178
0.0113588
0.0113297
0.0115639
0.0120393
0.0126363
0.0132712
0.0139675
0.0147132
0.0147853
0.0140102
0.0245094
0.114451
0.152359
0.172279
0.00979929
0.0333747
0.0290228
0.0112289
0.00947347
0.00920351
0.0102224
0.0106041
0.0102744
0.0108764
0.0129175
0.012121
0.0115459
0.0112148
0.0110419
0.0114361
0.0126702
0.0143372
0.0148975
0.0129593
0.0112008
0.0106552
0.0106224
0.0108274
0.0112799
0.0118795
0.012553
0.0133098
0.0141161
0.0142292
0.0136044
0.0239718
0.113332
0.151926
0.171943
0.00974597
0.0336634
0.0266869
0.0107047
0.00951531
0.00918858
0.0105313
0.0107719
0.01039
0.0109885
0.0118804
0.01095
0.0105954
0.0104105
0.00998698
0.00969343
0.0100536
0.0111778
0.0121177
0.0112646
0.0101687
0.00976377
0.00973122
0.0099012
0.0103192
0.0109102
0.0116202
0.0124467
0.0133323
0.0135118
0.013024
0.0233092
0.111823
0.15134
0.17149
0.00967615
0.0336502
0.0241657
0.0101298
0.00947323
0.00910811
0.0107119
0.0107857
0.0103808
0.0109489
0.0109974
0.0100037
0.00985702
0.00982826
0.00925684
0.00844785
0.00806699
0.00857081
0.00955184
0.00950992
0.00899938
0.00873567
0.0087064
0.00883787
0.0092099
0.00977546
0.0105084
0.0114028
0.012381
0.0126552
0.0122649
0.0224533
0.109917
0.150627
0.170944
0.00959042
0.0332575
0.0215773
0.00948637
0.00933342
0.00894252
0.0107225
0.0106324
0.010214
0.0107008
0.0101662
0.00917174
0.00918493
0.00925224
0.00861492
0.00749482
0.00659744
0.00656125
0.00736861
0.00782152
0.00775868
0.0076236
0.00760223
0.00769618
0.00801342
0.00853435
0.00926683
0.0102141
0.0112883
0.0116846
0.0113393
0.021374
0.107615
0.149814
0.170335
0.00948687
0.0324257
0.0190411
0.00880824
0.00912851
0.00871423
0.0105769
0.0103361
0.00990135
0.0102506
0.00931808
0.00836481
0.00846806
0.00855151
0.00790381
0.00665385
0.0054674
0.00504116
0.00558223
0.00626153
0.0065024
0.00647925
0.00647293
0.00653572
0.00679477
0.00725379
0.00795631
0.00892761
0.0100881
0.0106283
0.0102761
0.0200737
0.104925
0.148936
0.169696
0.00936733
0.0311422
0.0166583
0.00815145
0.00890751
0.00846352
0.0103185
0.00993874
0.00947864
0.00964435
0.00844202
0.00754955
0.0076782
0.00771825
0.00709217
0.0058466
0.00455803
0.00390026
0.00416414
0.00486968
0.00528476
0.00535448
0.00537098
0.00541324
0.00561714
0.00600297
0.00664568
0.00760174
0.00882282
0.00951721
0.00911946
0.018579
0.101867
0.148028
0.169062
0.0092307
0.0294131
0.0145046
0.00757024
0.00871773
0.00823257
0.0100012
0.00948923
0.00899274
0.00894532
0.00756183
0.00673088
0.00683833
0.00680841
0.00621947
0.00506611
0.00381427
0.00306719
0.00309707
0.00369274
0.00416719
0.00430383
0.00434735
0.00438085
0.00453808
0.00484763
0.00540655
0.0063036
0.00754321
0.00838502
0.00792562
0.0169324
0.09847
0.147126
0.16847
0.00908003
0.0272899
0.0126261
0.0071071
0.00859787
0.00805837
0.00967814
0.00903476
0.00849047
0.00821797
0.00671558
0.00593094
0.00598663
0.00588791
0.0053446
0.00433513
0.00321534
0.00249273
0.00236641
0.00278323
0.00321813
0.00338511
0.00345156
0.00348505
0.00360664
0.00384476
0.00430642
0.00510442
0.00630784
0.0072685
0.00675716
0.0151856
0.0947772
0.146266
0.167955
0.00891508
0.0248386
0.0110483
0.00679129
0.00857843
0.00797094
0.00939729
0.0086184
0.00801523
0.00751977
0.00594181
0.00517656
0.00515788
0.0050049
0.00451631
0.00367765
0.00274726
0.0021254
0.00192889
0.00216633
0.00249548
0.00265107
0.00272723
0.00276349
0.00285988
0.0030374
0.00340077
0.00407177
0.00517977
0.00620757
0.00567627
0.0133953
0.0908468
0.145485
0.16755
0.00874002
0.0221659
0.00978048
0.0066414
0.00868447
0.00799401
0.00919927
0.00827651
0.00760382
0.00689714
0.0052733
0.00449545
0.00438135
0.00418987
0.00376883
0.00311122
0.00239281
0.00190642
0.00170762
0.00181191
0.00201751
0.00213059
0.00220007
0.0022367
0.0023164
0.00244796
0.00272429
0.00325872
0.00421961
0.00524409
0.00473715
0.0116222
0.0867559
0.144817
0.167286
0.00855535
0.0193887
0.00882355
0.00666865
0.00893912
0.00814732
0.00911776
0.00803849
0.00728588
0.00638493
0.00473346
0.00391289
0.00368398
0.0034648
0.00312564
0.0026451
0.0021292
0.00177702
0.0016146
0.00164471
0.00174948
0.00181178
0.0018645
0.0018985
0.00196907
0.00207169
0.00228265
0.00269193
0.00347486
0.00441841
0.00397875
0.00993132
0.0826068
0.144295
0.167191
0.00836592
0.0166452
0.00817081
0.00688049
0.00936675
0.00845024
0.00917982
0.00792752
0.007084
0.00600627
0.00433631
0.00344919
0.00309117
0.00285129
0.00260271
0.00228064
0.00193231
0.00168937
0.00157529
0.00158036
0.00162427
0.0016476
0.00168437
0.00171637
0.00178615
0.00187783
0.00205125
0.00236431
0.00296777
0.00376296
0.00341942
0.00839098
0.0785347
0.143951
0.167289
0.00817267
0.0140637
0.0078119
0.00728469
0.00999659
0.00892657
0.00941122
0.0079631
0.0070151
0.00577476
0.00408782
0.00311655
0.00262513
0.00236693
0.00220777
0.00201074
0.00178072
0.0016125
0.00154125
0.00155261
0.00157477
0.00158043
0.00161043
0.00164566
0.00172441
0.00182252
0.00198674
0.00224027
0.00268921
0.00329435
0.00305584
0.00706808
0.0747161
0.143814
0.167602
0.00798033
0.0117663
0.00773901
0.00789391
0.0108652
0.00961307
0.00984067
0.00816478
0.00709285
0.00569764
0.00398892
0.00292052
0.00229893
0.00202046
0.00193484
0.00182061
0.00165957
0.00153369
0.00149307
0.00152514
0.00155406
0.00156319
0.00159879
0.00164538
0.00174377
0.00186394
0.00204329
0.00227164
0.00260478
0.00300868
0.00286741
0.00601982
0.0713729
0.143916
0.168148
0.00778933
0.00985205
0.00796051
0.00873342
0.0120198
0.0105627
0.0105057
0.00855815
0.00733218
0.00577999
0.00403892
0.00286063
0.00211369
0.00180604
0.00176453
0.00169131
0.00156039
0.00145375
0.00143275
0.00148915
0.00154039
0.00156796
0.00162003
0.00168655
0.00181518
0.00197044
0.00218282
0.00241182
0.00266895
0.0028842
0.00282488
0.00528521
0.0687625
0.144285
0.16894
0.00760307
0.00837964
0.00851273
0.00984312
0.0135216
0.0118477
0.0114565
0.00917957
0.00775323
0.0060298
0.00424008
0.00293514
0.00206132
0.00170413
0.0016692
0.00160336
0.00147935
0.00138029
0.00137255
0.00145204
0.00153092
0.00158417
0.00165965
0.00175333
0.00192178
0.00212209
0.00237814
0.00262298
0.00283736
0.00288984
0.00289892
0.00488083
0.0671439
0.144948
0.169991
0.00742066
0.00735332
0.00947716
0.0112747
0.0154464
0.0135589
0.0127565
0.0100785
0.00838464
0.00646151
0.00460069
0.00314316
0.00212982
0.00168958
0.00162191
0.00154063
0.00141426
0.00132031
0.00132395
0.00142481
0.00153113
0.00161141
0.00171349
0.00183988
0.00205645
0.00230845
0.00261193
0.00287805
0.00307384
0.00299399
0.0030662
0.0048049
0.0667236
0.145926
0.17131
0.00724378
0.00672889
0.0109802
0.0130972
0.0178828
0.0158
0.0144795
0.011316
0.00926393
0.00709841
0.00513763
0.00348992
0.00230947
0.0017394
0.00160117
0.0014919
0.00136349
0.00127736
0.00129315
0.00141475
0.0015467
0.00165246
0.00178233
0.00194608
0.002218
0.00252517
0.00287426
0.00315995
0.00335302
0.0031705
0.00331271
0.00504937
0.0676081
0.147235
0.172904
0.00707145
0.00645145
0.0131822
0.015404
0.0209341
0.0186832
0.0167053
0.0129591
0.0104353
0.00797058
0.00587952
0.00398786
0.00259695
0.00183926
0.00159512
0.0014523
0.0013259
0.00125152
0.00128077
0.00142363
0.00158003
0.00170937
0.00186815
0.00207417
0.00240794
0.00277094
0.00315985
0.00345949
0.00366016
0.00340149
0.00363489
0.00561327
0.0697937
0.148884
0.174776
0.00690537
0.00647096
0.0162659
0.0183281
0.0247266
0.0223315
0.0195197
0.0150761
0.0119447
0.00911007
0.00685699
0.00465826
0.00299983
0.00198671
0.00160075
0.00142201
0.00130204
0.00124233
0.00128536
0.00144971
0.00163043
0.00178248
0.00197261
0.00222682
0.0026284
0.00304539
0.00346618
0.00377311
0.00398944
0.00367816
0.00403934
0.00651145
0.0731906
0.150874
0.176928
0.00674534
0.0067534
0.0204131
0.0220639
0.0294253
0.0268893
0.023018
0.0177319
0.013834
0.0105412
0.00808939
0.00551987
0.00353454
0.00219405
0.00162445
0.00140559
0.00129423
0.00125036
0.00130566
0.0014899
0.00169542
0.00187095
0.00209689
0.00240651
0.00288104
0.00334809
0.00379226
0.00410114
0.00434192
0.00400015
0.00454174
0.00777727
0.0776589
0.153197
0.179363
0.00659312
0.0072753
0.0257735
0.0268865
0.0352424
0.0325246
0.0273035
0.0209818
0.016132
0.0122701
0.00956934
0.00657698
0.00421287
0.0024838
0.00167924
0.00140964
0.00130649
0.00127829
0.00134264
0.00154169
0.00177216
0.00197371
0.00224213
0.00261538
0.00316673
0.00367827
0.00413813
0.00444649
0.00472374
0.00437444
0.00516569
0.00946121
0.0830352
0.155845
0.182077
0.00644962
0.00802147
0.032435
0.0331486
0.042421
0.0394011
0.0324641
0.0248532
0.0188386
0.0142707
0.0112482
0.00780054
0.00502062
0.00287526
0.00178411
0.00144295
0.00134377
0.00132995
0.0013988
0.00160353
0.00185806
0.00209008
0.00240982
0.00285528
0.00348553
0.00403492
0.00450464
0.00481388
0.00514488
0.00481418
0.00594173
0.0116272
0.0891509
0.158805
0.185067
0.00631698
0.0089758
0.0404039
0.0412441
0.0511833
0.0476078
0.038519
0.0293099
0.0219015
0.0164722
0.0130323
0.00911675
0.00590428
0.00335977
0.00195589
0.00151533
0.001412
0.00141014
0.00147832
0.00167547
0.0019513
0.00222025
0.00260194
0.00312788
0.0038369
0.00441712
0.00489339
0.00520936
0.00561836
0.00533773
0.00690677
0.0143477
0.0958425
0.162064
0.188327
0.00619775
0.0101273
0.0496437
0.0515479
0.0616534
0.0570642
0.0453485
0.0342096
0.025192
0.0187489
0.0147861
0.0104123
0.00677508
0.0038886
0.00219835
0.0016369
0.0015178
0.00152365
0.00158545
0.00175902
0.00205113
0.00236542
0.00282112
0.00343453
0.00421989
0.00482428
0.00530674
0.00564016
0.00616
0.00596803
0.0081037
0.0176974
0.102959
0.165609
0.191851
0.00609509
0.0114711
0.0601507
0.0643514
0.0737754
0.0674407
0.0526378
0.0392748
0.0284928
0.0209234
0.016348
0.0115547
0.00752985
0.00438441
0.00248901
0.00181248
0.00166771
0.0016754
0.00172499
0.00185798
0.00215847
0.00252804
0.00307039
0.00377632
0.00463348
0.00525638
0.00574769
0.00611452
0.00678825
0.00673229
0.00958106
0.0217465
0.110365
0.169426
0.19563
0.00601408
0.0130271
0.0720345
0.0797875
0.0872359
0.0781251
0.0598633
0.0440966
0.0315083
0.0227806
0.0175499
0.0124116
0.00807233
0.00476962
0.00278527
0.00203687
0.00186543
0.0018686
0.00190031
0.00197817
0.00227645
0.00271187
0.00335316
0.00415396
0.00507672
0.00571399
0.00621981
0.00664181
0.00752442
0.00766189
0.0113927
0.0265537
0.117949
0.173502
0.199653
0.00596079
0.0148421
0.0854974
0.0976824
0.101378
0.0882381
0.0663311
0.0481734
0.033898
0.0240961
0.0182409
0.0128738
0.00833053
0.00498673
0.00304083
0.00229228
0.00210859
0.00210347
0.0021134
0.00212749
0.0024111
0.00292216
0.00367291
0.00456779
0.00554899
0.00619827
0.00672705
0.00723245
0.00839292
0.00879248
0.0135971
0.0321596
0.125616
0.177825
0.203909
0.00594609
0.0170056
0.100724
0.117317
0.115135
0.0967076
0.0712664
0.0509827
0.0353286
0.0246696
0.0183084
0.0128678
0.00826517
0.00500888
0.00322443
0.00255513
0.00238658
0.00237386
0.00236143
0.00231398
0.00257143
0.00316554
0.00403303
0.00501777
0.00605004
0.00671078
0.0072736
0.00789816
0.00942161
0.0101642
0.0162565
0.0385821
0.133296
0.182384
0.208388
0.00598322
0.0196341
0.117633
0.137208
0.127052
0.10242
0.0739461
0.0520726
0.0355337
0.0243624
0.0176976
0.0123687
0.00787432
0.00484124
0.00332469
0.00280349
0.00268249
0.00266752
0.00263675
0.00254416
0.00276944
0.00344998
0.00443646
0.00550345
0.00658
0.00725328
0.00786375
0.00865199
0.0106423
0.0118223
0.0194356
0.0458135
0.140939
0.187172
0.213079
0.00609167
0.0228747
0.135633
0.155148
0.135512
0.104455
0.0738581
0.0511634
0.0343723
0.0231259
0.0164237
0.0114013
0.00719305
0.00451888
0.00335
0.00302389
0.00297699
0.00296658
0.00292509
0.00281934
0.00301895
0.00378427
0.00488538
0.00602381
0.00713924
0.00782746
0.00850171
0.00950858
0.0120911
0.013817
0.0232003
0.0538214
0.148514
0.192183
0.217976
0.00628805
0.0268686
0.153486
0.168671
0.139131
0.102331
0.0708377
0.0482217
0.031867
0.02102
0.0145757
0.0100431
0.00629263
0.00409963
0.00332098
0.00321133
0.00325344
0.00325288
0.00321001
0.00313462
0.00333381
0.00417728
0.00538075
0.00657713
0.00772813
0.00843465
0.00919156
0.0104843
0.0138094
0.0162044
0.027616
0.0625522
0.156008
0.197418
0.223075
0.00658505
0.0317526
0.169533
0.175797
0.137174
0.0961668
0.0651301
0.043487
0.0282121
0.0182085
0.0123075
0.0084167
0.00527593
0.0036524
0.00326431
0.00336778
0.00349952
0.00351037
0.00347501
0.00347787
0.00372444
0.00463631
0.00592174
0.00716063
0.00834669
0.00907558
0.00993721
0.0115977
0.0158443
0.0190468
0.0327468
0.0719377
0.163424
0.202885
0.228378
0.00697682
0.037576
0.182105
0.175628
0.129781
0.0866563
0.057336
0.0374234
0.0237398
0.0149395
0.00982564
0.00668534
0.00426837
0.00324116
0.00320455
0.00349772
0.00370843
0.00372948
0.00370971
0.00383423
0.00419415
0.00516517
0.00650505
0.00777013
0.00899432
0.0097502
0.0107425
0.0128699
0.0182495
0.0224129
0.0386543
0.0819041
0.170782
0.2086
0.233896
0.00744499
0.0442434
0.189904
0.168465
0.117866
0.074874
0.0482652
0.030622
0.0188658
0.0115166
0.00737208
0.00503921
0.00339432
0.00291064
0.00316005
0.00360539
0.00387649
0.00390562
0.00390939
0.00418909
0.00473573
0.00576111
0.00712428
0.00839975
0.00966942
0.0104576
0.0116114
0.0143249
0.021086
0.0263785
0.0453984
0.0923819
0.178114
0.214589
0.239648
0.00795396
0.0512631
0.192034
0.155442
0.102787
0.0619971
0.0387554
0.023688
0.0140308
0.00827448
0.00520555
0.00366969
0.00273972
0.00268045
0.0031392
0.00369201
0.00400292
0.00404029
0.00407778
0.0045342
0.00533151
0.00641303
0.00776956
0.00904201
0.0103694
0.0111963
0.0125483
0.0159907
0.0244235
0.0310272
0.0530382
0.103316
0.185468
0.220891
0.245662
0.00846726
0.0576594
0.187928
0.138047
0.085976
0.0490728
0.0295321
0.0171624
0.00966075
0.00554352
0.00354909
0.0027048
0.00232278
0.00254802
0.00314095
0.00375563
0.00408689
0.00413681
0.00422267
0.00486766
0.0059562
0.00710036
0.0084279
0.00968824
0.0110905
0.0119642
0.0135585
0.0179
0.028341
0.0364512
0.061634
0.114673
0.192906
0.227553
0.251977
0.00894498
0.0618998
0.177235
0.117753
0.0686823
0.036891
0.0211414
0.0114845
0.00612612
0.00357096
0.00249327
0.00214572
0.00210528
0.00249441
0.00315542
0.00379118
0.00412803
0.00420065
0.00435672
0.00519663
0.00658358
0.00779611
0.0090846
0.0103296
0.0118286
0.0127591
0.0146485
0.0200909
0.0329278
0.0427523
0.0712509
0.126453
0.2005
0.234634
0.258642
0.0093615
0.0623933
0.159922
0.095929
0.0519004
0.0259886
0.0139634
0.0069862
0.00366565
0.00239324
0.00194068
0.00188625
0.0020237
0.00248983
0.00316796
0.00379188
0.00412393
0.00423515
0.00449243
0.00553368
0.00719264
0.0084717
0.00972555
0.0109585
0.0125792
0.0135792
0.0158265
0.0226084
0.0382848
0.0500431
0.0819618
0.13869
0.208332
0.2422
0.265711
0.0096768
0.0577595
0.136321
0.073872
0.0364608
0.0167459
0.00827194
0.00387011
0.00225566
0.00180591
0.00169737
0.00179314
0.00201034
0.00250171
0.00316357
0.00375047
0.00407152
0.00424278
0.00464355
0.00589826
0.00777419
0.00910506
0.0103404
0.0115698
0.0133382
0.0144231
0.0171019
0.0255039
0.0445246
0.0584478
0.0938515
0.151454
0.216494
0.250321
0.273244
0.00988074
0.0478405
0.107542
0.0527847
0.0230786
0.0094369
0.00424464
0.00209139
0.00156927
0.00152614
0.00157863
0.00174353
0.00199887
0.00249721
0.00312653
0.00365678
0.00396308
0.00421911
0.00481888
0.006312
0.00833328
0.00968534
0.0109252
0.0121626
0.0141025
0.01529
0.0184848
0.0288357
0.0517719
0.0681026
0.107019
0.164855
0.225079
0.259066
0.281304
4.88232e-24
3.15165e-19
1.14105e-18
4.30834e-18
2.49753e-17
3.15094e-14
9.02681e-11
0.0341856
0.211348
0.238202
0.249946
0.238962
0.223271
0.210993
0.177926
0.160463
0.134105
0.109313
0.0722118
0.0592664
0.0302806
0.0121401
4.99598e-24
7.39364e-20
8.35037e-20
6.24159e-18
6.23735e-17
2.45553e-13
9.22562e-10
0.064955
0.249951
0.255327
0.252248
0.238989
0.222513
0.211499
0.178313
0.161058
0.135044
0.109143
0.0715057
0.0590341
0.0298529
0.0121883
5.10214e-24
2.76614e-19
8.77762e-19
8.8971e-18
1.22151e-16
9.27194e-13
9.30929e-09
0.101739
0.284477
0.269389
0.253717
0.23895
0.221927
0.212162
0.17893
0.16183
0.136199
0.109069
0.0711752
0.058427
0.0293239
0.0123462
5.06186e-24
5.72574e-20
2.14763e-20
6.84904e-18
1.92199e-16
2.2767e-12
1.69539e-07
0.140562
0.314229
0.280754
0.254866
0.238979
0.221599
0.21304
0.179822
0.162758
0.137529
0.109101
0.0712094
0.0574778
0.028728
0.0126028
5.16578e-24
2.21305e-19
6.322e-19
7.22982e-18
2.88118e-16
3.60819e-12
6.55447e-06
0.175385
0.339082
0.289814
0.256062
0.23918
0.221608
0.214113
0.180961
0.163828
0.138989
0.109238
0.0715755
0.0562582
0.0281108
0.0129496
5.11393e-24
4.59224e-20
1.20669e-20
4.61496e-18
4.09655e-16
4.86944e-12
1.86503e-05
0.19965
0.359157
0.297011
0.257605
0.239665
0.222018
0.215446
0.182396
0.165024
0.140528
0.109479
0.0722377
0.0548268
0.0274824
0.0134036
5.2293e-24
1.78688e-19
4.73354e-19
4.63642e-18
5.80237e-16
5.0594e-12
3.44886e-05
0.210194
0.374757
0.302712
0.259663
0.24051
0.222884
0.217021
0.184097
0.166349
0.142104
0.109818
0.0731414
0.0532667
0.0268686
0.0139786
5.17012e-24
3.80396e-20
7.88033e-21
2.77971e-18
7.72025e-16
4.37445e-12
2.57981e-05
0.207933
0.38613
0.307262
0.262369
0.241801
0.224244
0.21891
0.186121
0.167805
0.143676
0.110244
0.0742379
0.0516342
0.026267
0.0146924
5.298e-24
1.46657e-19
3.69543e-19
2.86112e-18
9.85687e-16
2.87932e-12
2.74151e-05
0.196191
0.393497
0.310883
0.26575
0.243581
0.226125
0.221092
0.188438
0.169415
0.145223
0.110748
0.0754665
0.0500036
0.0256971
0.0155488
5.22345e-24
3.24406e-20
5.88735e-21
1.68669e-18
1.14759e-15
1.68829e-12
3.52897e-05
0.178114
0.396876
0.313744
0.269827
0.245906
0.228541
0.223634
0.191109
0.1712
0.146736
0.111314
0.0767821
0.0484162
0.0251498
0.0165512
5.3578e-24
1.2193e-19
2.97381e-19
1.84204e-18
1.25195e-15
8.52144e-13
4.01299e-05
0.155762
0.396164
0.315868
0.274528
0.248793
0.231499
0.226505
0.194104
0.173199
0.148228
0.111934
0.0781321
0.04693
0.0246406
0.0176854
5.27109e-24
2.84269e-20
4.69171e-21
1.08044e-18
1.23851e-15
4.16323e-13
4.10891e-05
0.131035
0.39103
0.31721
0.279788
0.252276
0.234997
0.229761
0.19748
0.175443
0.149729
0.112598
0.0794865