/*--------------------------------*- C++ -*----------------------------------*\
| =========                 |                                                 |
| \\      /  F ield         | OpenFOAM: The Open Source CFD Toolbox           |
|  \\    /   O peration     | Version:  v1912                                 |
|   \\  /    A nd           | Website:  www.openfoam.com                      |
|    \\/     M anipulation  |                                                 |
\*---------------------------------------------------------------------------*/
FoamFile
{
    version     2.0;
    format      ascii;
    class       volScalarField;
    location    "430";
    object      p;
}
// * * * * * * * * * * * * * * * * * * * * * * * * * * * * * * * * * * * * * //

dimensions      [0 2 -2 0 0 0 0];


internalField   nonuniform List<scalar> 
12441
(
8.93694
9.23809
10.0974
11.4338
13.1637
15.3343
18.039
21.3804
25.5402
30.6744
37.0065
44.7939
54.546
66.4504
82.0531
101.506
129.661
164.998
222.383
285.074
375.988
438.345
8.93693
9.23808
10.0974
11.4337
13.1637
15.3342
18.039
21.3803
25.54
30.6742
37.0062
44.7933
54.5451
66.4487
82.05
101.499
129.645
164.973
222.303
284.999
375.941
438.152
8.93691
9.23806
10.0974
11.4337
13.1637
15.3341
18.0389
21.3801
25.5397
30.6737
37.0054
44.7921
54.5431
66.4454
82.044
101.485
129.62
164.916
222.135
284.819
375.811
437.802
8.93689
9.23803
10.0974
11.4337
13.1636
15.334
18.0387
21.3799
25.5393
30.673
37.0043
44.7903
54.5402
66.4403
82.035
101.464
129.587
164.829
221.957
284.542
375.575
437.258
8.93686
9.238
10.0973
11.4336
13.1635
15.3339
18.0384
21.3795
25.5387
30.672
37.0028
44.7878
54.5364
66.4336
82.0231
101.436
129.543
164.721
221.792
284.196
375.242
436.516
8.93682
9.23795
10.0973
11.4335
13.1633
15.3337
18.0381
21.379
25.538
30.6709
37.001
44.7848
54.5315
66.4252
82.0081
101.402
129.489
164.593
221.606
283.776
374.817
435.577
8.93677
9.2379
10.0972
11.4334
13.1632
15.3334
18.0378
21.3784
25.5371
30.6694
36.9988
44.7811
54.5257
66.4151
81.9903
101.362
129.425
164.443
221.389
283.288
374.305
434.44
8.93672
9.23783
10.0971
11.4333
13.163
15.3332
18.0374
21.3777
25.536
30.6678
36.9962
44.7768
54.5189
66.4033
81.9695
101.315
129.354
164.273
221.152
282.742
373.711
433.102
8.93665
9.23776
10.097
11.4331
13.1628
15.3328
18.0369
21.3769
25.5348
30.6659
36.9932
44.7719
54.5111
66.39
81.9462
101.265
129.283
164.09
220.915
282.15
373.037
431.559
8.93658
9.23768
10.0969
11.433
13.1626
15.3325
18.0363
21.376
25.5335
30.6638
36.9899
44.7664
54.5024
66.3751
81.9217
101.214
129.216
163.905
220.705
281.523
372.286
429.806
8.9365
9.23759
10.0968
11.4328
13.1623
15.3321
18.0357
21.375
25.532
30.6614
36.9862
44.7603
54.4927
66.359
81.8973
101.168
129.171
163.74
220.552
280.871
371.453
427.835
8.93642
9.2375
10.0967
11.4326
13.162
15.3316
18.0351
21.3739
25.5304
30.6588
36.9821
44.7536
54.4821
66.3427
81.877
101.141
129.183
163.632
220.489
280.197
370.533
425.637
8.93632
9.23739
10.0965
11.4324
13.1617
15.3312
18.0344
21.3727
25.5286
30.656
36.9777
44.7463
54.4708
66.3287
81.871
101.157
129.3
163.631
220.524
279.495
369.518
423.2
8.93622
9.23727
10.0964
11.4322
13.1613
15.3307
18.0336
21.3714
25.5266
30.6529
36.9728
44.7384
54.4597
66.3221
81.8969
101.247
129.573
163.778
220.628
278.745
368.397
420.513
8.93611
9.23715
10.0962
11.4319
13.161
15.3301
18.0328
21.3701
25.5246
30.6496
36.9677
44.7299
54.4502
66.3324
81.9747
101.438
130.024
164.076
220.735
277.922
367.162
417.56
8.93599
9.23701
10.096
11.4317
13.1606
15.3295
18.0319
21.3686
25.5223
30.6461
36.9621
44.7211
54.4458
66.3718
82.1202
101.738
130.63
164.471
220.772
277
365.802
414.33
8.93587
9.23687
10.0959
11.4314
13.1602
15.3289
18.0309
21.367
25.5199
30.6423
36.9561
44.7126
54.4524
66.4499
82.3373
102.134
131.316
164.857
220.677
275.959
364.312
410.806
8.93573
9.23672
10.0957
11.4311
13.1597
15.3282
18.0299
21.3653
25.5174
30.6382
36.9497
44.7055
54.4775
66.571
82.6161
102.588
131.967
165.12
220.42
274.79
362.685
406.974
8.93559
9.23656
10.0954
11.4308
13.1592
15.3275
18.0288
21.3635
25.5147
30.634
36.9428
44.7024
54.527
66.7304
82.9332
103.043
132.461
165.185
220.005
273.488
360.918
402.819
8.93544
9.23639
10.0952
11.4304
13.1587
15.3267
18.0277
21.3617
25.5119
30.6294
36.9357
44.7069
54.6029
66.9171
83.2565
103.434
132.706
165.037
219.456
272.058
359.008
398.325
8.93528
9.23621
10.095
11.4301
13.1582
15.3259
18.0265
21.3597
25.5089
30.6246
36.9285
44.7234
54.7016
67.115
83.5492
103.706
132.671
164.717
218.804
270.507
356.953
393.477
8.93512
9.23602
10.0948
11.4297
13.1577
15.3251
18.0252
21.3576
25.5058
30.6196
36.9218
44.7552
54.8154
67.3078
83.7789
103.825
132.391
164.29
218.077
268.842
354.756
388.257
8.93495
9.23583
10.0945
11.4293
13.1571
15.3242
18.0239
21.3554
25.5025
30.6143
36.9166
44.8026
54.9355
67.4788
83.9233
103.789
131.947
163.813
217.293
267.072
352.416
382.647
8.93477
9.23562
10.0942
11.4289
13.1565
15.3233
18.0225
21.3532
25.4991
30.6086
36.9147
44.8628
55.0523
67.6159
83.9758
103.625
131.429
163.321
216.463
265.206
349.936
376.63
8.93458
9.23541
10.0939
11.4285
13.1558
15.3224
18.0211
21.3508
25.4955
30.6027
36.9182
44.9312
55.1591
67.7101
83.9442
103.373
130.908
162.824
215.592
263.254
347.319
370.186
8.93438
9.23519
10.0937
11.4281
13.1552
15.3214
18.0196
21.3483
25.4917
30.5966
36.929
45.0027
55.2496
67.7602
83.8472
103.077
130.423
162.321
214.681
261.227
344.567
363.293
8.93418
9.23495
10.0934
11.4276
13.1545
15.3203
18.018
21.3458
25.4878
30.5903
36.9478
45.0726
55.3212
67.7681
83.7066
102.771
129.983
161.806
213.729
259.132
341.682
355.929
8.93396
9.23471
10.093
11.4271
13.1538
15.3193
18.0164
21.3431
25.4837
30.5841
36.9739
45.1372
55.3715
67.742
83.5433
102.475
129.582
161.272
212.736
256.978
338.667
348.069
8.93374
9.23446
10.0927
11.4266
13.1531
15.3182
18.0148
21.3403
25.4794
30.5781
37.0054
45.194
55.4015
67.689
83.3721
102.198
129.208
160.716
211.702
254.773
335.521
339.688
8.93352
9.23421
10.0924
11.4261
13.1523
15.317
18.013
21.3374
25.475
30.5725
37.0401
45.2414
55.412
67.6186
83.203
101.94
128.848
160.137
210.625
252.52
332.241
330.757
8.93328
9.23394
10.092
11.4256
13.1515
15.3158
18.0112
21.3345
25.4704
30.5675
37.0758
45.2787
55.4065
67.5367
83.0402
101.699
128.495
159.535
209.506
250.222
328.825
321.244
8.93304
9.23366
10.0917
11.4251
13.1507
15.3146
18.0094
21.3314
25.4656
30.5637
37.1111
45.3055
55.3868
67.4495
82.8856
101.47
128.142
158.912
208.344
247.879
325.264
311.118
8.93279
9.23338
10.0913
11.4245
13.1499
15.3133
18.0075
21.3282
25.4607
30.5613
37.1447
45.3223
55.3571
67.3594
82.7381
101.249
127.787
158.269
207.141
245.491
321.55
300.344
8.93253
9.23308
10.0909
11.4239
13.149
15.312
18.0055
21.3249
25.4555
30.561
37.1755
45.3299
55.3189
67.2697
82.5969
101.032
127.426
157.608
205.896
243.058
317.671
288.883
8.93226
9.23278
10.0905
11.4233
13.1481
15.3107
18.0034
21.3215
25.4502
30.5634
37.2031
45.3294
55.2756
67.1803
82.4602
100.816
127.059
156.929
204.611
240.578
313.617
276.697
8.93199
9.23247
10.0901
11.4227
13.1472
15.3093
18.0014
21.318
25.4448
30.569
37.2273
45.3219
55.2281
67.093
82.3268
100.601
126.687
156.235
203.285
238.053
309.375
263.743
8.9317
9.23215
10.0897
11.4221
13.1462
15.3079
17.9992
21.3144
25.4392
30.579
37.2483
45.3087
55.1786
67.0067
82.1953
100.385
126.308
155.526
201.919
235.486
304.934
249.978
8.93141
9.23182
10.0892
11.4214
13.1453
15.3064
17.997
21.3107
25.434
30.5955
37.2664
45.291
55.1272
66.9227
82.0652
100.167
125.924
154.804
200.515
232.881
300.283
235.356
8.93111
9.23148
10.0888
11.4208
13.1443
15.3049
17.9947
21.3069
25.4305
30.6196
37.2821
45.27
55.0756
66.8398
81.9355
99.9478
125.534
154.069
199.075
230.245
295.414
219.826
8.93081
9.23113
10.0883
11.4201
13.1432
15.3033
17.9924
21.3029
25.4326
30.652
37.2958
45.2464
55.0234
66.7591
81.8063
99.7263
125.14
153.323
197.602
227.581
290.324
203.337
8.93049
9.23078
10.0879
11.4194
13.1422
15.3018
17.99
21.2988
25.4464
30.6928
37.3076
45.2212
54.9716
66.6797
81.677
99.5031
124.741
152.565
196.099
224.896
285.008
185.834
8.93017
9.23041
10.0874
11.4187
13.1411
15.3001
17.9875
21.2949
25.4778
30.7413
37.3173
45.1952
54.9192
66.6029
81.5481
99.2786
124.339
151.796
194.57
222.19
279.467
167.271
8.92984
9.23004
10.0869
11.4179
13.14
15.2985
17.985
21.2922
25.5303
30.7962
37.3246
45.1691
54.8673
66.5275
81.4192
99.0532
123.934
151.015
193.021
219.461
273.673
147.558
8.92951
9.22966
10.0864
11.4172
13.1389
15.2968
17.9824
21.2951
25.6033
30.8549
37.3293
45.1434
54.8147
66.4551
81.2911
98.8277
123.527
150.218
191.458
216.697
267.548
125.954
-19.7627
-21.5516
-21.9016
-21.7439
-18.7224
-17.0966
-14.7893
-12.9924
-10.5363
-8.79883
-8.56708
-10.1739
-12.0423
-10.6715
-4.16154
4.62241
10.385
11.9481
11.4303
11.518
11.2493
11.5424
10.7212
9.243
7.81283
6.38056
5.00176
4.16285
3.44927
1.47922
0.647858
-2.50522
-3.61343
4.91561
0.921113
-19.7623
-21.5311
-21.9254
-21.7464
-18.7222
-17.0948
-14.7897
-12.9929
-10.5373
-8.79884
-8.56807
-10.172
-12.0388
-10.6667
-4.15579
4.63006
10.3945
11.9572
11.4356
11.5214
11.2524
11.5449
10.7234
9.24512
7.81483
6.38234
5.00339
4.16429
3.4498
1.48058
0.650955
-2.49948
-3.64657
4.91204
0.921688
-19.7607
-21.5105
-21.9626
-21.7513
-18.7225
-17.0931
-14.7904
-12.9935
-10.5378
-8.79792
-8.56822
-10.1702
-12.0349
-10.6608
-4.146
4.6468
10.4182
11.9833
11.4551
11.5321
11.2587
11.5499
10.7278
9.24914
7.81847
6.38553
5.00623
4.16678
3.45107
1.48272
0.654905
-2.49398
-3.67859
4.90861
0.922319
-19.7582
-21.4967
-22.0118
-21.7584
-18.7242
-17.0916
-14.7912
-12.9941
-10.5381
-8.79666
-8.56872
-10.1692
-12.0314
-10.6551
-4.13496
4.66778
10.4503
12.0224
11.488
11.5504
11.2687
11.5576
10.7345
9.25523
7.82398
6.39037
5.01048
4.17055
3.45335
1.48496
0.661207
-2.48628
-3.70318
4.90515
0.922972
-19.755
-21.4943
-22.0702
-21.7672
-18.7263
-17.0901
-14.7915
-12.9947
-10.5381
-8.79514
-8.56954
-10.1686
-12.0292
-10.6516
-4.12684
4.68576
10.4799
12.0612
11.5241
11.5722
11.2811
11.5673
10.7432
9.26304
7.83109
6.39668
5.01604
4.17551
3.45656
1.48749
0.670158
-2.47603
-3.71911
4.90187
0.923654
-19.7509
-21.508
-22.1348
-21.7769
-18.7277
-17.0878
-14.7909
-12.995
-10.5377
-8.79349
-8.57045
-10.1683
-12.0286
-10.6505
-4.12202
4.6989
10.503
12.093
11.5567
11.5941
11.2948
11.5784
10.7531
9.27204
7.83936
6.40413
5.02268
4.18149
3.46061
1.49038
0.681619
-2.46233
-3.72662
4.89881
0.924376
-19.7462
-21.542
-22.2026
-21.7869
-18.7279
-17.0845
-14.7893
-12.9951
-10.5367
-8.7917
-8.57139
-10.1682
-12.0291
-10.6507
-4.11886
4.70854
10.52
12.1172
11.5836
11.6145
11.309
11.5902
10.7636
9.28164
7.84828
6.41231
5.03011
4.18829
3.46535
1.49357
0.695283
-2.44442
-3.72606
4.89599
0.925143
-19.7407
-21.5992
-22.2709
-21.7967
-18.7271
-17.0804
-14.7868
-12.9951
-10.5353
-8.78989
-8.57244
-10.1684
-12.0304
-10.6511
-4.11569
4.71649
10.5327
12.135
11.6049
11.6329
11.323
11.602
10.7741
9.29122
7.85728
6.42074
5.03796
4.19565
3.47063
1.49697
0.710766
-2.42221
-3.71757
4.89339
0.925962
-19.7348
-21.6814
-22.3373
-21.8063
-18.7257
-17.0761
-14.7838
-12.9951
-10.5337
-8.78803
-8.57356
-10.1689
-12.0324
-10.6517
-4.11191
4.72375
10.5423
12.148
11.6214
11.6488
11.3361
11.6132
10.784
9.30019
7.86579
6.4289
5.0458
4.20323
3.47625
1.50051
0.727621
-2.39625
-3.7013
4.89102
0.926834
-19.7285
-21.7889
-22.3997
-21.8158
-18.7241
-17.072
-14.7808
-12.9952
-10.5319
-8.78627
-8.57484
-10.1698
-12.0351
-10.6523
-4.10763
4.73047
10.5494
12.1568
11.6334
11.662
11.3478
11.623
10.7927
9.30794
7.87323
6.43624
5.05316
4.21067
3.48194
1.50412
0.745318
-2.36744
-3.6773
4.88885
0.927766
-19.722
-21.9202
-22.4565
-21.8252
-18.7226
-17.0687
-14.778
-12.9957
-10.5302
-8.78465
-8.5761
-10.1711
-12.0386
-10.6533
-4.10341
4.73634
10.554
12.1619
11.6414
11.6719
11.3572
11.6308
10.7994
9.31392
7.8791
6.44228
5.05957
4.21754
3.48743
1.50772
0.763321
-2.33683
-3.6457
4.88694
0.928759
-19.7157
-22.0722
-22.5068
-21.8346
-18.7213
-17.0663
-14.7761
-12.9967
-10.5288
-8.78338
-8.57745
-10.1727
-12.0428
-10.6548
-4.09965
4.74099
10.5563
12.1638
11.6455
11.6782
11.3636
11.636
10.8037
9.31773
7.88304
6.44664
5.06466
4.22346
3.49238
1.51121
0.781149
-2.3055
-3.6066
4.88527
0.929819
-19.7097
-22.2401
-22.55
-21.844
-18.7205
-17.0654
-14.7753
-12.9984
-10.5279
-8.78251
-8.57876
-10.1747
-12.0474
-10.6567
-4.09674
4.74414
10.5564
12.163
11.6463
11.681
11.3668
11.6383
10.8053
9.31919
7.88488
6.44915
5.06817
4.22812
3.4965
1.51451
0.798461
-2.27461
-3.5602
4.88392
0.930945
-19.7038
-22.4172
-22.5861
-21.8533
-18.7205
-17.066
-14.776
-13.0011
-10.5277
-8.78227
-8.58024
-10.1769
-12.0523
-10.6587
-4.09476
4.74571
10.5548
12.1603
11.6447
11.6808
11.3671
11.6377
10.8044
9.31841
7.88472
6.44985
5.07008
4.23138
3.49951
1.51752
0.815102
-2.24531
-3.50674
4.88294
0.932142
-19.6984
-22.5953
-22.6155
-21.8625
-18.7214
-17.0684
-14.7785
-13.0048
-10.5284
-8.78271
-8.58189
-10.1794
-12.0572
-10.6608
-4.09377
4.74575
10.5519
12.1564
11.6414
11.6785
11.365
11.6347
10.8012
9.31569
7.88285
6.449
5.07056
4.23326
3.50129
1.52015
0.831117
-2.21878
-3.44677
4.88244
0.933406
-19.6937
-22.766
-22.6389
-21.8713
-18.7234
-17.0728
-14.783
-13.0099
-10.5301
-8.78404
-8.58401
-10.1823
-12.062
-10.6627
-4.09363
4.74444
10.5478
12.1516
11.6373
11.675
11.3615
11.63
10.7963
9.31147
7.87965
6.44697
5.06992
4.23397
3.50185
1.52237
0.846708
-2.19605
-3.38118
4.88251
0.93474
-19.6902
-22.9214
-22.6573
-21.8792
-18.7269
-17.0797
-14.7897
-13.0167
-10.533
-8.7863
-8.58668
-10.1856
-12.0665
-10.6644
-4.09418
4.74194
10.5429
12.1461
11.6325
11.6708
11.357
11.6241
10.7901
9.30609
7.8755
6.44413
5.0685
4.2338
3.50134
1.52418
0.862133
-2.1777
-3.3116
4.8833
0.936138
-19.688
-23.0561
-22.6716
-21.8858
-18.7321
-17.0892
-14.7992
-13.0253
-10.5373
-8.7897
-8.59024
-10.1894
-12.0707
-10.6655
-4.09507
4.73847
10.5368
12.1397
11.6273
11.6662
11.3521
11.6172
10.7829
9.29984
7.87065
6.44075
5.06661
4.23303
3.49999
1.52565
0.877597
-2.16376
-3.24027
4.88486
0.937603
-19.6873
-23.1676
-22.6829
-21.891
-18.7394
-17.1018
-14.8117
-13.0364
-10.5433
-8.79424
-8.59475
-10.1939
-12.0748
-10.6663
-4.09605
4.73416
10.5297
12.1323
11.6214
11.6612
11.3468
11.6096
10.7748
9.29285
7.86525
6.43701
5.06445
4.2319
3.49802
1.5269
0.89322
-2.15364
-3.17008
4.88728
0.939127
-19.6879
-23.2568
-22.6924
-21.8954
-18.7487
-17.1179
-14.8281
-13.0505
-10.5514
-8.80017
-8.6006
-10.1994
-12.0789
-10.6666
-4.09677
4.72912
10.521
12.1233
11.6146
11.6556
11.3411
11.6013
10.7658
9.28521
7.8594
6.43301
5.06212
4.23057
3.49561
1.52805
0.909044
-2.14652
-3.10375
4.89051
0.940713
-19.6897
-23.3287
-22.7001
-21.8999
-18.7598
-17.1379
-14.849
-13.0684
-10.5619
-8.80758
-8.60788
-10.2063
-12.0838
-10.6667
-4.09708
4.7234
10.5108
12.1126
11.6065
11.6493
11.3348
11.5922
10.756
9.27693
7.85313
6.42879
5.05969
4.22911
3.49289
1.52918
0.925103
-2.14152
-3.04324
4.89447
0.942351
-19.6921
-23.3893
-22.7052
-21.9057
-18.7728
-17.1625
-14.8753
-13.0913
-10.5757
-8.81688
-8.61713
-10.2151
-12.0901
-10.6667
-4.09684
4.71702
10.4986
12.0999
11.5972
11.6422
11.328
11.5822
10.7454
9.26803
7.84647
6.42437
5.05716
4.22757
3.48992
1.53038
0.941413
-2.13795
-2.98909
4.89901
0.944043
-19.6944
-23.4436
-22.7081
-21.9144
-18.7875
-17.1922
-14.9082
-13.1202
-10.5931
-8.82816
-8.62844
-10.2264
-12.0988
-10.6675
-4.09626
4.70984
10.4844
12.085
11.5863
11.634
11.3204
11.5715
10.734
9.25854
7.83945
6.41977
5.05453
4.22596
3.48677
1.53169
0.957982
-2.13529
-2.94066
4.90401
0.94578
-19.6961
-23.4951
-22.7088
-21.9274
-18.8041
-17.228
-14.949
-13.1564
-10.6152
-8.84183
-8.64226
-10.241
-12.1114
-10.6699
-4.09572
4.70167
10.4679
12.0678
11.5738
11.6249
11.3122
11.5598
10.7217
9.24849
7.83211
6.41501
5.05182
4.22429
3.48348
1.53313
0.974761
-2.13321
-2.89638
4.90931
0.947562
-19.6967
-23.5473
-22.7069
-21.9461
-18.823
-17.271
-14.9991
-13.2011
-10.6424
-8.85768
-8.6581
-10.2595
-12.1291
-10.6757
-4.09618
4.69205
10.449
12.0481
11.5597
11.6148
11.3033
11.5473
10.7086
9.2379
7.82449
6.4101
5.04903
4.22256
3.48006
1.53471
0.991676
-2.13151
-2.85455
4.91487
0.949379
-19.6957
-23.603
-22.7012
-21.9715
-18.8448
-17.3224
-15.0601
-13.2555
-10.6752
-8.87569
-8.67569
-10.2817
-12.1528
-10.686
-4.09874
4.68042
10.4273
12.0258
11.5439
11.6037
11.2939
11.534
10.6947
9.22684
7.81661
6.40507
5.04616
4.22079
3.47653
1.53642
1.00858
-2.13006
-2.8135
4.92061
0.951234
-19.6931
-23.6652
-22.6905
-22.0039
-18.8702
-17.3833
-15.1331
-13.32
-10.7132
-8.8947
-8.69335
-10.307
-12.1826
-10.7022
-4.1048
4.66597
10.4025
12.0008
11.5263
11.5916
11.2839
11.52
10.6802
9.21534
7.80853
6.39994
5.04324
4.21896
3.4729
1.53824
1.02534
-2.12881
-2.77197
4.92658
0.953113
-19.6888
-23.7363
-22.6742
-22.0429
-18.8999
-17.4545
-15.2187
-13.3942
-10.7556
-8.91365
-8.7098
-10.334
-12.2174
-10.7236
-4.11497
4.64797
10.3743
11.973
11.5068
11.5784
11.2733
11.5052
10.6649
9.20345
7.80028
6.39475
5.04028
4.21711
3.46917
1.54014
1.04174
-2.12772
-2.72892
4.93278
0.955022
-19.6829
-23.8188
-22.6532
-22.0872
-18.9345
-17.5355
-15.3153
-13.4757
-10.7998
-8.92999
-8.72236
-10.361
-12.2554
-10.7485
-4.12911
4.62591
10.3424
11.9424
11.4854
11.5641
11.2622
11.4897
10.649
9.19122
7.7919
6.38952
5.0373
4.21524
3.46534
1.54208
1.0576
-2.12678
-2.68371
4.93928
0.956947
-19.6754
-23.9153
-22.6299
-22.135
-18.9747
-17.6246
-15.4195
-13.5606
-10.8426
-8.94153
-8.72937
-10.3855
-12.2938
-10.7735
-4.14564
4.59994
10.3068
11.9089
11.4621
11.5487
11.2506
11.4735
10.6326
9.17871
7.78343
6.38428
5.03433
4.21337
3.46142
1.54402
1.07266
-2.12601
-2.63573
4.94611
0.958895
-19.6664
-24.0293
-22.6079
-22.1839
-19.0209
-17.7185
-15.5258
-13.6427
-10.8792
-8.9449
-8.72822
-10.4058
-12.3298
-10.7959
-4.16267
4.57078
10.2677
11.8729
11.437
11.5319
11.2382
11.4566
10.6155
9.16594
7.7749
6.37906
5.03139
4.21151
3.45741
1.54592
1.08668
-2.12543
-2.58473
4.95337
0.960854
-19.6558
-24.1659
-22.5912
-22.2308
-19.073
-17.8123
-15.6268
-13.7153
-10.9052
-8.93802
-8.71808
-10.4201
-12.3601
-10.8124
-4.17803
4.53968
10.2256
11.8344
11.41
11.5138
11.2251
11.4389
10.598
9.15295
7.76635
6.37389
5.02851
4.20967
3.4533
1.54772
1.09933
-2.12506
-2.53033
4.96106
0.96283
-19.6434
-24.3326
-22.5828
-22.273
-19.1307
-17.9001
-15.7142
-13.771
-10.9157
-8.91845
-8.6978
-10.4274
-12.3825
-10.8217
-4.19055
4.50776
10.1813
11.7941
11.3816
11.4941
11.2108
11.4204
10.5799
9.13979
7.75782
6.36881
5.02571
4.20787
3.44909
1.5494
1.11031
-2.12496
-2.47247
4.9693
0.964812
-19.6286
-24.5399
-22.5834
-22.3083
-19.1927
-17.9755
-15.7809
-13.8043
-10.908
-8.88602
-8.66852
-10.4271
-12.3945
-10.8228
-4.19929
4.47604
10.1355
11.7522
11.3519
11.4729
11.1954
11.4009
10.5613
9.12649
7.74934
6.36384
5.02303
4.20612
3.44477
1.5509
1.1192
-2.12514
-2.4109
4.97806
0.966808
-19.6109
-24.8012
-22.591
-22.3364
-19.2573
-18.0337
-15.8217
-13.8116
-10.8808
-8.84112
-8.63158
-10.4192
-12.3958
-10.8168
-4.20433
4.44492
10.0888
11.7093
11.3213
11.4503
11.1785
11.3804
10.5422
9.11309
7.74095
6.35902
5.02049
4.20443
3.44035
1.55217
1.12562
-2.12569
-2.34568
4.98748
0.968806
-19.5887
-25.1322
-22.6012
-22.359
-19.3223
-18.0717
-15.835
-13.793
-10.8355
-8.78672
-8.59015
-10.404
-12.3874
-10.8045
-4.20553
4.41464
10.0415
11.6655
11.2901
11.4266
11.1601
11.3588
10.5226
9.09962
7.73268
6.35437
5.01812
4.20282
3.43581
1.55315
1.12904
-2.12662
-2.27661
4.99751
0.970816
-19.5604
-25.5489
-22.6081
-22.3795
-19.3859
-18.0895
-15.8227
-13.7514
-10.7753
-8.72644
-8.54713
-10.3834
-12.3724
-10.7875
-4.20349
4.38496
9.99358
11.6211
11.2585
11.4019
11.1401
11.3359
10.5025
9.08612
7.72457
6.34993
5.01596
4.2013
3.43115
1.55378
1.12904
-2.12801
-2.20379
5.00827
0.972823
-19.5241
-26.061
-22.6051
-22.4012
-19.4461
-18.0898
-15.7897
-13.6923
-10.7057
-8.66536
-8.50635
-10.3607
-12.3542
-10.7662
-4.19833
4.35566
9.94482
11.5757
11.2265
11.3766
11.1187
11.3118
10.4819
9.07265
7.71667
6.34573
5.01403
4.19987
3.42635
1.554
1.12496
-2.1299
-2.127
5.01974
0.97484
-19.479
-26.6594
-22.5849
-22.4265
-19.5016
-18.0763
-15.742
-13.6219
-10.6323
-8.60832
-8.47164
-10.3405
-12.3352
-10.7413
-4.19085
4.32613
9.89497
11.5293
11.1941
11.3508
11.0961
11.2866
10.461
9.05924
7.70901
6.34178
5.01236
4.19854
3.42143
1.55371
1.11627
-2.13239
-2.04622
5.03206
0.976848
-19.4254
-27.299
-22.5389
-22.456
-19.5515
-18.0532
-15.6857
-13.5468
-10.5619
-8.56054
-8.44744
-10.3263
-12.3157
-10.7127
-4.18154
4.29565
9.84325
11.4815
11.1612
11.3248
11.0727
11.2604
10.4398
9.04593
7.70161
6.33811
5.01096
4.19732
3.41637
1.55278
1.10214
-2.13541
-1.96103
5.04517
0.978856
-19.3559
-27.886
-22.4577
-22.4882
-19.5944
-18.0239
-15.6258
-13.4727
-10.5006
-8.5267
-8.43616
-10.3187
-12.2951
-10.6811
-4.17208
4.26293
9.78933
11.4327
11.1285
11.2989
11.0486
11.2333
10.4181
9.03267
7.69445
6.33469
5.00986
4.19625
3.41122
1.55104
1.08218
-2.13886
-1.8719
5.0591
0.98085
-19.2421
-28.279
-22.3311
-22.5198
-19.6284
-17.9902
-15.5656
-13.4056
-10.4548
-8.50932
-8.43662
-10.3157
-12.2729
-10.6478
-4.16432
4.22705
9.7334
11.3837
11.0965
11.2733
11.0239
11.2051
10.396
9.01935
7.68749
6.33155
5.00916
4.19543
3.40596
1.5485
1.05656
-2.14303
-1.78086
5.07338
0.982869
-19.0892
-28.3101
-22.1499
-22.547
-19.651
-17.9527
-15.5076
-13.3514
-10.4276
-8.50558
-8.44428
-10.3148
-12.25
-10.6168
-4.16115
4.18846
9.67822
11.3373
11.0662
11.2472
10.9971
11.1751
10.3729
9.00596
7.68086
6.32886
5.00903
4.19497
3.40064
1.54546
1.02614
-2.14914
-1.69058
5.08818
0.984908
-19.1681
-27.8454
-21.9086
-22.5704
-19.6647
-17.9145
-15.4549
-13.3144
-10.4157
-8.51024
-8.45589
-10.3154
-12.2293
-10.5905
-4.16189
4.15084
9.62751
11.2951
11.0364
11.2179
10.9656
11.1424
10.3495
8.99349
7.6756
6.32738
5.00979
4.19467
3.3947
1.54046
0.981792
-2.15682
-1.58293
5.10743
0.986777
8.92924
9.22935
10.086
11.4166
13.138
15.2954
17.9803
21.3131
25.6724
30.9003
37.3303
45.124
54.7739
66.3993
81.1929
98.6535
123.211
149.585
190.242
214.509
262.487
104.236
8.92904
9.22913
10.0857
11.4161
13.1373
15.2944
17.9787
21.341
25.723
30.9286
37.328
45.1099
54.7436
66.3599
81.1236
98.5287
122.983
149.12
189.361
212.919
258.621
101.29
8.92883
9.22889
10.0854
11.4157
13.1366
15.2933
17.9771
21.3756
25.7666
30.95
37.3228
45.0947
54.7136
66.3187
81.0529
98.4001
122.746
148.637
188.46
211.269
254.596
102.957
8.92861
9.22864
10.0851
11.4152
13.1359
15.2922
17.9753
21.4104
25.8026
30.9655
37.3159
45.0787
54.683
66.2775
80.9811
98.2668
122.5
148.133
187.535
209.55
250.457
102.835
8.92838
9.22838
10.0847
11.4147
13.1351
15.291
17.9735
21.4406
25.8316
30.9762
37.3087
45.0625
54.6536
66.2347
80.9074
98.1278
122.242
147.608
186.581
207.763
246.194
101.029
8.92814
9.2281
10.0843
11.4141
13.1343
15.2898
17.9716
21.4613
25.854
30.983
37.3017
45.0464
54.624
66.1921
80.8324
97.9829
121.97
147.061
185.593
205.909
241.802
98.9695
8.92788
9.22781
10.084
11.4136
13.1334
15.2885
17.9696
21.4688
25.8701
30.9865
37.2954
45.0306
54.596
66.148
80.7552
97.8315
121.683
146.49
184.564
203.99
237.286
97.0519
8.92761
9.2275
10.0836
11.413
13.1325
15.2871
17.9674
21.4638
25.8804
30.9874
37.2902
45.0154
54.5682
66.1042
80.6763
97.6732
121.379
145.895
183.488
202.006
232.652
95.1132
8.92732
9.22718
10.0831
11.4123
13.1316
15.2856
17.9651
21.4493
25.8849
30.9861
37.2861
45.0009
54.542
66.0589
80.5948
97.5076
121.055
145.273
182.359
199.958
227.903
93.0552
8.92702
9.22683
10.0827
11.4116
13.1306
15.284
17.9627
21.4285
25.8838
30.9828
37.2831
44.9872
54.5161
66.0137
80.5113
97.3348
120.712
144.624
181.171
197.845
223.044
90.902
8.9267
9.22647
10.0822
11.4109
13.1295
15.2823
17.9602
21.4032
25.8769
30.9777
37.281
44.9743
54.4916
65.967
80.4249
97.1543
120.349
143.945
179.918
195.667
218.08
88.6887
8.92637
9.22609
10.0817
11.4102
13.1284
15.2806
17.9576
21.3751
25.8638
30.9705
37.2795
44.9623
54.4672
65.9203
80.3359
96.9662
119.964
143.236
178.595
193.422
213.015
86.4262
8.92601
9.22568
10.0812
11.4094
13.1272
15.2787
17.9547
21.3457
25.8437
30.9609
37.2783
44.951
54.4439
65.8717
80.2435
96.7701
119.558
142.494
177.197
191.11
207.856
84.1183
8.92563
9.22525
10.0806
11.4085
13.1259
15.2767
17.9517
21.3168
25.8161
30.9483
37.2766
44.9405
54.4204
65.8225
80.1479
96.5659
119.131
141.717
175.721
188.728
202.605
81.7739
8.92523
9.2248
10.08
11.4077
13.1246
15.2747
17.9485
21.2898
25.7801
30.9319
37.274
44.9306
54.3977
65.771
80.048
96.3531
118.682
140.905
174.165
186.276
197.27
79.4052
8.92481
9.22432
10.0794
11.4067
13.1231
15.2724
17.9451
21.266
25.7356
30.9106
37.2693
44.921
54.3744
65.7184
79.9442
96.1313
118.212
140.056
172.525
183.751
191.854
77.0251
8.92437
9.22381
10.0787
11.4057
13.1216
15.2701
17.9416
21.246
25.6827
30.8832
37.2614
44.9114
54.3516
65.6627
79.8351
95.8997
117.719
139.169
170.8
181.153
186.361
74.6477
8.92389
9.22327
10.078
11.4047
13.1201
15.2676
17.9378
21.2299
25.6225
30.8481
37.2487
44.9014
54.3281
65.6051
79.721
95.6579
117.202
138.242
168.99
178.48
180.797
72.2869
8.92339
9.2227
10.0772
11.4035
13.1184
15.2649
17.9337
21.2172
25.5574
30.8041
37.2292
44.8901
54.3047
65.5439
79.6004
95.4048
116.662
137.273
167.092
175.729
175.164
69.9555
8.92286
9.2221
10.0764
11.4024
13.1166
15.2621
17.9294
21.2071
25.4905
30.7501
37.2005
44.8763
54.2801
65.4798
79.4733
95.1397
116.095
136.262
165.107
172.901
169.466
67.6638
8.9223
9.22146
10.0756
11.4011
13.1147
15.2592
17.9249
21.1986
25.4252
30.6857
37.1596
44.858
54.255
65.4115
79.3385
94.8617
115.502
135.207
163.035
169.993
163.71
65.4189
8.9217
9.22078
10.0747
11.3998
13.1127
15.256
17.92
21.1907
25.365
30.6118
37.1033
44.8325
54.2275
65.3396
79.1957
94.5697
114.88
134.105
160.874
167.003
157.899
63.2239
8.92107
9.22005
10.0737
11.3984
13.1106
15.2527
17.9148
21.1829
25.3128
30.5309
37.0289
44.7959
54.1972
65.2627
79.0435
94.2627
114.228
132.956
158.624
163.931
152.039
61.0767
8.9204
9.21929
10.0727
11.3969
13.1083
15.2491
17.9093
21.1749
25.2696
30.4465
36.9347
44.7426
54.1607
65.1814
78.8818
93.9396
113.545
131.758
156.285
160.774
146.138
58.9705
8.91968
9.21848
10.0716
11.3953
13.1059
15.2453
17.9034
21.1664
25.2349
30.3633
36.8213
44.6661
54.1148
65.0937
78.7091
93.5993
112.827
130.508
153.856
157.532
140.204
56.8934
8.91892
9.21761
10.0705
11.3936
13.1034
15.2414
17.8972
21.1573
25.2072
30.2853
36.6924
44.5593
54.0519
64.9989
78.5252
93.2409
112.076
129.205
151.338
154.202
134.246
54.829
8.91811
9.21669
10.0693
11.3918
13.1007
15.2371
17.8906
21.1476
25.184
30.2155
36.5547
44.4172
53.9629
64.8927
78.3283
92.8632
111.287
127.846
148.73
150.782
128.275
52.7576
8.91726
9.21572
10.068
11.3899
13.0978
15.2326
17.8836
21.1372
25.1634
30.1549
36.4163
44.239
53.8337
64.7702
78.1169
92.465
110.462
126.431
146.031
147.271
122.303
50.6568
8.91634
9.21468
10.0666
11.3878
13.0947
15.2278
17.8761
21.1261
25.1438
30.1029
36.2851
44.0311
53.651
64.6201
77.8871
92.045
109.598
124.957
143.243
143.668
116.343
48.5031
8.91537
9.21358
10.0651
11.3857
13.0915
15.2227
17.8682
21.1142
25.1241
30.0576
36.1663
43.8062
53.4041
64.4276
77.6327
91.6009
108.695
123.422
140.366
139.97
110.409
46.2732
8.91434
9.2124
10.0636
11.3834
13.088
15.2173
17.8598
21.1015
25.1037
30.0167
36.0621
43.5802
53.0942
64.1718
77.3417
91.129
107.751
121.825
137.4
136.178
104.514
43.9455
8.91324
9.21115
10.0619
11.3809
13.0844
15.2116
17.8508
21.088
25.0822
29.9778
35.9716
43.3672
52.7357
63.8341
76.9959
90.6226
106.766
120.164
134.347
132.29
98.6732
41.5008
8.91207
9.20982
10.0601
11.3783
13.0804
15.2055
17.8413
21.0737
25.0593
29.939
35.8914
43.176
52.3554
63.405
76.5698
90.0702
105.736
118.439
131.208
128.308
92.9017
38.9241
8.91082
9.2084
10.0582
11.3756
13.0763
15.199
17.8312
21.0584
25.0349
29.8991
35.8174
43.0084
51.9825
62.8949
76.0379
89.4537
104.655
116.647
127.986
124.232
87.2139
36.2048
8.90949
9.20689
10.0562
11.3726
13.0718
15.1921
17.8204
21.042
25.009
29.8573
35.7455
42.8604
51.6393
62.3341
75.3837
88.7488
103.514
114.788
124.682
120.065
81.624
33.3379
8.90807
9.20528
10.0541
11.3695
13.0671
15.1847
17.8089
21.0246
24.9814
29.8131
35.6727
42.7254
51.3352
61.7643
74.6146
87.9301
102.3
112.859
121.301
115.812
76.1458
30.3242
8.90655
9.20356
10.0518
11.3661
13.062
15.1769
17.7967
21.0061
24.952
29.7661
35.5971
42.5958
51.0668
61.2224
73.7651
86.9802
100.992
110.858
117.847
111.478
70.7925
27.1706
8.90494
9.20173
10.0494
11.3625
13.0567
15.1685
17.7837
20.9864
24.9207
29.7162
35.5175
42.4658
50.8232
60.7284
72.8887
85.9025
99.5735
108.784
114.329
107.072
65.5774
23.8898
8.90321
9.19977
10.0468
11.3587
13.0509
15.1596
17.7699
20.9653
24.8873
29.6632
35.4333
42.3312
50.591
60.2824
72.0365
84.7264
98.0312
106.634
110.758
102.603
60.5134
20.5001
8.90137
9.19768
10.044
11.3546
13.0448
15.1501
17.7552
20.9429
24.8518
29.6068
35.3439
42.1896
50.3587
59.87
71.2391
83.501
96.3694
104.41
107.153
98.0878
55.6145
17.0249
8.89941
9.19545
10.041
11.3503
13.0382
15.14
17.7395
20.919
24.814
29.5469
35.2489
42.0399
50.1185
59.4714
70.4987
82.2766
94.6111
102.118
103.54
93.547
50.8957
13.492
8.8973
9.19307
10.0378
11.3456
13.0313
15.1292
17.7228
20.8934
24.7738
29.4831
35.1481
41.8814
49.866
59.0689
69.7959
81.0848
92.7931
99.7691
99.9516
89.0085
46.3745
9.93325
8.89506
9.19053
10.0344
11.3406
13.0238
15.1177
17.7049
20.8662
24.7309
29.4152
35.041
41.7133
49.5992
58.6505
69.1029
79.9304
90.952
97.3764
96.4219
84.5083
42.0707
6.38408
8.89266
9.18781
10.0308
11.3353
13.0158
15.1055
17.6859
20.8372
24.6852
29.343
34.9271
41.5349
49.3172
58.2101
68.395
78.7959
89.1113
94.9485
92.9812
80.0891
38.0063
2.88333
8.89009
9.1849
10.0269
11.3297
13.0073
15.0924
17.6656
20.8062
24.6365
29.2662
34.8061
41.3457
49.0189
57.7452
67.6554
77.6533
87.276
92.4834
89.6413
75.7956
34.2039
-0.527584
8.88734
9.18179
10.0228
11.3236
12.9982
15.0784
17.644
20.7731
24.5846
29.1844
34.6776
41.1448
48.7033
57.2547
66.8769
76.4759
85.4346
89.9705
86.385
71.6653
30.6839
-3.80577
8.8844
9.17847
10.0183
11.3171
12.9885
15.0634
17.6209
20.7378
24.5292
29.0974
34.5409
40.9318
48.3693
56.7375
66.0577
75.2459
83.5641
87.401
83.1639
67.7156
27.4599
-6.9088
8.88126
9.17491
10.0136
11.3102
12.9781
15.0475
17.5963
20.7001
24.4703
29.0047
34.3958
40.7058
48.016
56.1919
65.1984
73.9567
81.6394
84.7719
79.9166
63.9307
24.5317
-9.79763
8.87789
9.1711
10.0085
11.3028
12.967
15.0304
17.57
20.6599
24.4074
28.9061
34.2415
40.4662
47.6423
55.6167
64.2984
72.6088
79.6442
82.0805
76.5981
60.2586
21.8776
-12.4406
8.87428
9.16703
10.0031