/*--------------------------------*- C++ -*----------------------------------*\
| =========                 |                                                 |
| \\      /  F ield         | OpenFOAM: The Open Source CFD Toolbox           |
|  \\    /   O peration     | Version:  v1912                                 |
|   \\  /    A nd           | Website:  www.openfoam.com                      |
|    \\/     M anipulation  |                                                 |
\*---------------------------------------------------------------------------*/
FoamFile
{
    version     2.0;
    format      ascii;
    class       volVectorField;
    location    "430";
    object      U;
}
// * * * * * * * * * * * * * * * * * * * * * * * * * * * * * * * * * * * * * //

dimensions      [0 1 -1 0 0 0 0];


internalField   nonuniform List<vector> 
12441
(
(29.9988 1.70656e-05 0)
(29.9854 5.16774e-05 0)
(29.9562 8.93856e-05 0)
(29.9119 0.000137571 0)
(29.8539 0.000200873 0)
(29.7798 0.000285571 0)
(29.6879 0.000396914 0)
(29.5731 0.000559572 0)
(29.4307 0.000782503 0)
(29.2519 0.00108983 0)
(29.032 0.00151322 0)
(28.7505 0.00214512 0)
(28.4338 0.00306057 0)
(27.9663 0.00437428 0)
(27.4089 0.00619261 0)
(26.6248 0.0112601 0)
(25.5914 0.0150442 0)
(23.9289 0.0314064 0)
(21.5862 0.0527535 0)
(17.9038 0.0912272 0)
(12.1225 0.122229 0)
(5.81669 0.196761 0)
(29.9989 5.07474e-05 0)
(29.9853 0.000154389 0)
(29.9562 0.000266431 0)
(29.9119 0.000410153 0)
(29.854 0.000599356 0)
(29.7798 0.00085222 0)
(29.688 0.00118743 0)
(29.5732 0.00167117 0)
(29.4311 0.00234048 0)
(29.2523 0.003263 0)
(29.0317 0.00452344 0)
(28.7486 0.0064098 0)
(28.4386 0.00917402 0)
(27.9703 0.0131304 0)
(27.4096 0.0186619 0)
(26.6268 0.0335553 0)
(25.5927 0.04769 0)
(23.928 0.0901257 0)
(21.5859 0.13781 0)
(17.9021 0.263969 0)
(12.1238 0.359128 0)
(5.82058 0.587642 0)
(29.9989 8.42973e-05 0)
(29.9853 0.00025716 0)
(29.9562 0.000442657 0)
(29.9119 0.000681474 0)
(29.8539 0.000996207 0)
(29.7798 0.00141799 0)
(29.6879 0.00197596 0)
(29.5732 0.00278115 0)
(29.4311 0.00389467 0)
(29.2522 0.00543527 0)
(29.0317 0.00753205 0)
(28.7485 0.0106913 0)
(28.4386 0.0152327 0)
(27.9665 0.0219026 0)
(27.4083 0.0311758 0)
(26.6263 0.0549621 0)
(25.5935 0.081168 0)
(23.9324 0.147013 0)
(21.5891 0.220327 0)
(17.9016 0.434362 0)
(12.1297 0.592541 0)
(5.82883 0.976584 0)
(29.9989 0.000118281 0)
(29.9853 0.000360638 0)
(29.9562 0.000619721 0)
(29.9119 0.000954074 0)
(29.854 0.0013948 0)
(29.7799 0.00198575 0)
(29.688 0.00276728 0)
(29.5733 0.00389404 0)
(29.4311 0.00545358 0)
(29.2524 0.0076129 0)
(29.0318 0.0105447 0)
(28.7489 0.0149804 0)
(28.4385 0.0213174 0)
(27.9709 0.0306968 0)
(27.4106 0.0437159 0)
(26.6284 0.0764344 0)
(25.5958 0.113881 0)
(23.9373 0.206886 0)
(21.5976 0.327582 0)
(17.9061 0.612792 0)
(12.1419 0.829915 0)
(5.84178 1.36718 0)
(29.9989 0.000152323 0)
(29.9853 0.000463981 0)
(29.9562 0.000796595 0)
(29.9119 0.00122648 0)
(29.854 0.00179307 0)
(29.7799 0.00255297 0)
(29.688 0.00355792 0)
(29.5732 0.00500624 0)
(29.4311 0.00701139 0)
(29.2523 0.00978893 0)
(29.0319 0.013557 0)
(28.7489 0.0192663 0)
(28.4388 0.0274062 0)
(27.9667 0.0394639 0)
(27.4096 0.056265 0)
(26.628 0.0976747 0)
(25.5979 0.146108 0)
(23.9415 0.267515 0)
(21.6087 0.417657 0)
(17.9165 0.78741 0)
(12.162 1.06707 0)
(5.85975 1.75906 0)
(29.9989 0.000186361 0)
(29.9853 0.000567239 0)
(29.9562 0.000973431 0)
(29.9119 0.00149888 0)
(29.854 0.00219129 0)
(29.7799 0.00312019 0)
(29.6881 0.00434864 0)
(29.5734 0.00611859 0)
(29.4312 0.00856932 0)
(29.2525 0.0119657 0)
(29.0319 0.0165697 0)
(28.7493 0.023551 0)
(28.4382 0.033496 0)
(27.9719 0.0482517 0)
(27.4123 0.0688328 0)
(26.6305 0.118809 0)
(25.6011 0.178064 0)
(23.9462 0.327606 0)
(21.6216 0.506175 0)
(17.9336 0.960716 0)
(12.1915 1.30393 0)
(5.88315 2.15204 0)
(29.9989 0.000220393 0)
(29.9853 0.000670452 0)
(29.9562 0.00115026 0)
(29.9119 0.00177131 0)
(29.854 0.00258948 0)
(29.7799 0.0036874 0)
(29.688 0.00513936 0)
(29.5733 0.00723099 0)
(29.4312 0.0101272 0)
(29.2525 0.0141419 0)
(29.0322 0.0195833 0)
(28.7495 0.0278371 0)
(28.4389 0.0395913 0)
(27.967 0.0569811 0)
(27.4116 0.0813786 0)
(26.6303 0.139797 0)
(25.604 0.209314 0)
(23.9505 0.385171 0)
(21.639 0.596833 0)
(17.9606 1.13412 0)
(12.2328 1.54087 0)
(5.91248 2.54644 0)
(29.9989 0.000254422 0)
(29.9853 0.00077362 0)
(29.9563 0.00132706 0)
(29.912 0.00204371 0)
(29.8541 0.00298758 0)
(29.78 0.00425452 0)
(29.6882 0.00593 0)
(29.5734 0.00834333 0)
(29.4313 0.011685 0)
(29.2527 0.0163185 0)
(29.0322 0.0225969 0)
(28.7496 0.0321192 0)
(28.4377 0.0456792 0)
(27.9732 0.0657322 0)
(27.415 0.0937981 0)
(26.633 0.160413 0)
(25.6096 0.242122 0)
(23.9567 0.44468 0)
(21.6698 0.688564 0)
(18.0044 1.30703 0)
(12.2893 1.77814 0)
(5.94833 2.94271 0)
(29.9989 0.000288449 0)
(29.9853 0.000876745 0)
(29.9562 0.00150384 0)
(29.9119 0.00231611 0)
(29.854 0.00338564 0)
(29.7799 0.00482162 0)
(29.6881 0.00672064 0)
(29.5734 0.00945573 0)
(29.4313 0.0132427 0)
(29.2526 0.0184944 0)
(29.0325 0.0256107 0)
(28.7502 0.0364084 0)
(28.4394 0.0517796 0)
(27.9667 0.0745325 0)
(27.4142 0.106288 0)
(26.6316 0.181359 0)
(25.6168 0.273368 0)
(23.9681 0.503596 0)
(21.7256 0.779979 0)
(18.0728 1.47911 0)
(12.3644 2.016 0)
(5.99136 3.3414 0)
(29.9989 0.000322472 0)
(29.9853 0.000979825 0)
(29.9563 0.00168059 0)
(29.912 0.00258849 0)
(29.8541 0.00378361 0)
(29.78 0.00538864 0)
(29.6883 0.00751121 0)
(29.5735 0.010568 0)
(29.4315 0.0148001 0)
(29.2529 0.0206706 0)
(29.0324 0.0286245 0)
(28.7499 0.0406918 0)
(28.4365 0.0578751 0)
(27.9721 0.0831691 0)
(27.4178 0.119452 0)
(26.6329 0.202634 0)
(25.63 0.305151 0)
(23.9947 0.560596 0)
(21.8086 0.871118 0)
(18.1687 1.65068 0)
(12.4605 2.25487 0)
(6.04225 3.74307 0)
(29.9989 0.00035649 0)
(29.9853 0.00108286 0)
(29.9563 0.00185734 0)
(29.912 0.00286087 0)
(29.854 0.00418155 0)
(29.78 0.00595564 0)
(29.6882 0.00830175 0)
(29.5735 0.0116804 0)
(29.4314 0.0163573 0)
(29.2529 0.022847 0)
(29.0327 0.0316388 0)
(28.7511 0.0449787 0)
(28.4401 0.064022 0)
(27.971 0.0917897 0)
(27.4192 0.131911 0)
(26.634 0.222828 0)
(25.6477 0.337874 0)
(24.0371 0.616795 0)
(21.9036 0.962061 0)
(18.2854 1.82171 0)
(12.5782 2.4951 0)
(6.10165 4.14838 0)
(29.9989 0.000390503 0)
(29.9853 0.00118586 0)
(29.9563 0.00203408 0)
(29.912 0.00313322 0)
(29.8541 0.00457941 0)
(29.7801 0.00652254 0)
(29.6884 0.00909224 0)
(29.5736 0.0127926 0)
(29.4316 0.0179143 0)
(29.2532 0.0250224 0)
(29.0325 0.0346538 0)
(28.7506 0.0492574 0)
(28.4349 0.0700694 0)
(27.9756 0.100732 0)
(27.4198 0.145399 0)
(26.6368 0.243278 0)
(25.6648 0.370283 0)
(24.0829 0.671214 0)
(21.9918 1.05201 0)
(18.4111 1.99167 0)
(12.7157 2.73683 0)
(6.17006 4.55796 0)
(29.9989 0.000424509 0)
(29.9853 0.00128882 0)
(29.9563 0.00221083 0)
(29.912 0.00340558 0)
(29.854 0.00497724 0)
(29.78 0.00708943 0)
(29.6882 0.00988272 0)
(29.5736 0.0139049 0)
(29.4315 0.0194703 0)
(29.2533 0.0272008 0)
(29.0326 0.0376684 0)
(28.7512 0.0536161 0)
(28.4345 0.0760538 0)
(27.9736 0.109868 0)
(27.4185 0.159104 0)
(26.6397 0.263236 0)
(25.6778 0.402082 0)
(24.1212 0.723657 0)
(22.065 1.14056 0)
(18.5352 2.15991 0)
(12.8691 2.97992 0)
(6.24778 4.97242 0)
(29.9989 0.000458507 0)
(29.9853 0.00139173 0)
(29.9563 0.00238757 0)
(29.912 0.00367791 0)
(29.8542 0.00537499 0)
(29.7802 0.00765621 0)
(29.6884 0.0106731 0)
(29.5737 0.0150171 0)
(29.4317 0.0210257 0)
(29.2536 0.0293801 0)
(29.0325 0.0407047 0)
(28.7509 0.0580015 0)
(28.4255 0.0823745 0)
(27.9709 0.119075 0)
(27.4175 0.172373 0)
(26.6422 0.28255 0)
(25.6866 0.43331 0)
(24.1496 0.774556 0)
(22.1232 1.22773 0)
(18.6512 2.32602 0)
(13.0344 3.22405 0)
(6.33478 5.39228 0)
(29.9989 0.000492497 0)
(29.9854 0.0014946 0)
(29.9563 0.00256434 0)
(29.912 0.00395025 0)
(29.8541 0.00577271 0)
(29.7801 0.00822296 0)
(29.6883 0.0114636 0)
(29.5736 0.0161292 0)
(29.4317 0.0225803 0)
(29.2538 0.031559 0)
(29.0327 0.0437662 0)
(28.7523 0.0622946 0)
(28.4201 0.0886181 0)
(27.9685 0.127973 0)
(27.4168 0.185454 0)
(26.6442 0.301646 0)
(25.6921 0.464246 0)
(24.1697 0.824419 0)
(22.1698 1.31362 0)
(18.7565 2.48971 0)
(13.2073 3.46882 0)
(6.43083 5.81795 0)
(29.9989 0.000526478 0)
(29.9854 0.00159743 0)
(29.9563 0.00274111 0)
(29.912 0.00422256 0)
(29.8542 0.00617036 0)
(29.7802 0.00878961 0)
(29.6885 0.0122539 0)
(29.5738 0.0172414 0)
(29.4318 0.024133 0)
(29.2542 0.0337389 0)
(29.0335 0.0468386 0)
(28.7542 0.0667234 0)
(28.4148 0.0948306 0)
(27.9673 0.136702 0)
(27.4165 0.198449 0)
(26.6457 0.320685 0)
(25.6954 0.495033 0)
(24.184 0.873593 0)
(22.2079 1.39834 0)
(18.8511 2.65083 0)
(13.3847 3.71379 0)
(6.53548 6.24978 0)
(29.9989 0.000560448 0)
(29.9854 0.00170022 0)
(29.9563 0.00291791 0)
(29.912 0.00449488 0)
(29.8541 0.006568 0)
(29.7801 0.00935624 0)
(29.6884 0.0130443 0)
(29.5737 0.0183535 0)
(29.4318 0.0256853 0)
(29.2543 0.0359103 0)
(29.0345 0.0499793 0)
(28.7556 0.0711985 0)
(28.4117 0.100976 0)
(27.9666 0.145375 0)
(27.4163 0.211436 0)
(26.6469 0.339716 0)
(25.6972 0.525724 0)
(24.1942 0.92227 0)
(22.2404 1.48197 0)
(18.9359 2.80925 0)
(13.5642 3.95857 0)
(6.64822 6.68805 0)
(29.9989 0.000594407 0)
(29.9854 0.00180296 0)
(29.9563 0.00309472 0)
(29.9121 0.00476717 0)
(29.8542 0.00696557 0)
(29.7803 0.00992274 0)
(29.6886 0.0138346 0)
(29.5739 0.0194653 0)
(29.432 0.0272371 0)
(29.2546 0.038071 0)
(29.0358 0.0531488 0)
(28.7553 0.0757126 0)
(28.4097 0.107063 0)
(27.9663 0.154041 0)
(27.4162 0.22444 0)
(26.6479 0.358746 0)
(25.698 0.556344 0)
(24.2018 0.970556 0)
(22.2691 1.56458 0)
(19.0125 2.96491 0)
(13.7443 4.20279 0)
(6.7685 7.13295 0)
(29.9989 0.000628355 0)
(29.9854 0.00190566 0)
(29.9563 0.00327157 0)
(29.912 0.00503947 0)
(29.8541 0.00736311 0)
(29.7802 0.0104892 0)
(29.6884 0.0146249 0)
(29.5738 0.020577 0)
(29.432 0.0287883 0)
(29.2546 0.040238 0)
(29.0366 0.0563121 0)
(28.7541 0.0800793 0)
(28.4086 0.113158 0)
(27.9661 0.162705 0)
(27.4161 0.237449 0)
(26.6488 0.377781 0)
(25.6982 0.586911 0)
(24.2078 1.01851 0)
(22.2957 1.64624 0)
(19.0826 3.11777 0)
(13.9245 4.44614 0)
(6.89581 7.58469 0)
(29.9989 0.000662293 0)
(29.9854 0.00200833 0)
(29.9563 0.00344843 0)
(29.9121 0.00531174 0)
(29.8543 0.00776059 0)
(29.7803 0.0110556 0)
(29.6887 0.0154152 0)
(29.5741 0.0216884 0)
(29.4322 0.0303405 0)
(29.2549 0.0424128 0)
(29.0369 0.0595352 0)
(28.7528 0.084342 0)
(28.408 0.119249 0)
(27.9662 0.171385 0)
(27.4162 0.250463 0)
(26.6496 0.39682 0)
(25.6982 0.617435 0)
(24.213 1.06616 0)
(22.3214 1.72697 0)
(19.1478 3.2678 0)
(14.1044 4.68834 0)
(7.02971 8.04341 0)
(29.9989 0.000696216 0)
(29.9854 0.00211095 0)
(29.9563 0.00362533 0)
(29.912 0.00558401 0)
(29.8541 0.00815804 0)
(29.7802 0.0116219 0)
(29.6885 0.0162053 0)
(29.574 0.0227996 0)
(29.4321 0.0318925 0)
(29.2551 0.0446042 0)
(29.0357 0.0627725 0)
(28.7518 0.0885861 0)
(28.4077 0.125354 0)
(27.9663 0.18007 0)
(27.4163 0.263473 0)
(26.6505 0.415868 0)
(25.6982 0.647928 0)
(24.218 1.11351 0)
(22.347 1.8068 0)
(19.2095 3.415 0)
(14.2844 4.92916 0)
(7.16985 8.50927 0)
(29.9989 0.000730129 0)
(29.9854 0.00221352 0)
(29.9563 0.00380225 0)
(29.9121 0.00585626 0)
(29.8543 0.00855544 0)
(29.7804 0.0121881 0)
(29.6888 0.0169953 0)
(29.5743 0.0239115 0)
(29.4322 0.0334401 0)
(29.2558 0.0468571 0)
(29.0338 0.0659821 0)
(28.7511 0.0928356 0)
(28.4076 0.131462 0)
(27.9664 0.188762 0)
(27.4165 0.276481 0)
(26.6515 0.434923 0)
(25.6986 0.678398 0)
(24.2232 1.16054 0)
(22.3729 1.88577 0)
(19.269 3.55938 0)
(14.4652 5.1684 0)
(7.31596 8.98243 0)
(29.9988 0.000764027 0)
(29.9854 0.00231606 0)
(29.9563 0.0039792 0)
(29.912 0.00612852 0)
(29.8541 0.00895279 0)
(29.7803 0.0127544 0)
(29.6885 0.0177849 0)
(29.5742 0.0250238 0)
(29.432 0.0349855 0)
(29.2563 0.0491554 0)
(29.0319 0.0691668 0)
(28.7507 0.0971077 0)
(28.4077 0.137577 0)
(27.9667 0.197453 0)
(27.4169 0.289483 0)
(26.6528 0.453984 0)
(25.6996 0.708846 0)
(24.2291 1.20721 0)
(22.3997 1.96388 0)
(19.3273 3.70093 0)
(14.6476 5.4059 0)
(7.46789 9.46305 0)
(29.9988 0.000797915 0)
(29.9854 0.00241856 0)
(29.9564 0.00415618 0)
(29.9121 0.00640074 0)
(29.8543 0.00935009 0)
(29.7805 0.0133205 0)
(29.6888 0.0185744 0)
(29.5745 0.0261365 0)
(29.4322 0.0365268 0)
(29.2568 0.0514849 0)
(29.0306 0.0722511 0)
(28.7504 0.101395 0)
(28.4078 0.143692 0)
(27.967 0.206145 0)
(27.4174 0.302479 0)
(26.6543 0.473047 0)
(25.7014 0.739261 0)
(24.2358 1.25348 0)
(22.4275 2.04117 0)
(19.3853 3.83963 0)
(14.8326 5.64152 0)
(7.62559 9.95132 0)
(29.9988 0.000831787 0)
(29.9854 0.00252102 0)
(29.9563 0.00433319 0)
(29.912 0.00667297 0)
(29.8542 0.00974734 0)
(29.7803 0.0138867 0)
(29.6886 0.0193636 0)
(29.5743 0.0272495 0)
(29.4322 0.0380646 0)
(29.2567 0.0537962 0)
(29.0297 0.0752638 0)
(28.7504 0.105691 0)
(28.4079 0.149808 0)
(27.9674 0.214833 0)
(27.418 0.315467 0)
(26.6562 0.492103 0)
(25.7041 0.769619 0)
(24.2435 1.29936 0)
(22.4563 2.11764 0)
(19.4437 3.97545 0)
(15.0215 5.87513 0)
(7.78909 10.4474 0)
(29.9988 0.000865647 0)
(29.9854 0.00262343 0)
(29.9564 0.00451023 0)
(29.9121 0.00694516 0)
(29.8544 0.0101446 0)
(29.7805 0.0144526 0)
(29.6889 0.020153 0)
(29.5746 0.0283609 0)
(29.4326 0.0396177 0)
(29.2566 0.0560879 0)
(29.0292 0.0782461 0)
(28.7504 0.109991 0)
(28.4081 0.155922 0)
(27.9679 0.22352 0)
(27.4189 0.328443 0)
(26.6585 0.511139 0)
(25.708 0.799892 0)
(24.2521 1.34484 0)
(22.4861 2.19331 0)
(19.5031 4.10834 0)
(15.2154 6.10664 0)
(7.95851 10.9517 0)
(29.9988 0.000899493 0)
(29.9854 0.0027258 0)
(29.9563 0.0046873 0)
(29.9121 0.00721735 0)
(29.8542 0.0105417 0)
(29.7804 0.0150185 0)
(29.6887 0.0209424 0)
(29.5744 0.0294733 0)
(29.4327 0.0411796 0)
(29.2556 0.0584797 0)
(29.0289 0.0812349 0)
(28.7505 0.114292 0)
(28.4084 0.162034 0)
(27.9684 0.2322 0)
(27.42 0.341402 0)
(26.6613 0.53014 0)
(25.7129 0.830065 0)
(24.2619 1.38994 0)
(22.5168 2.26817 0)
(19.5639 4.23821 0)
(15.4157 6.33595 0)
(8.13406 11.4642 0)
(29.9988 0.000933327 0)
(29.9854 0.00282813 0)
(29.9564 0.00486439 0)
(29.9122 0.00748951 0)
(29.8544 0.0109389 0)
(29.7806 0.0155842 0)
(29.6891 0.0217316 0)
(29.5746 0.0305846 0)
(29.4333 0.042752 0)
(29.2545 0.0608377 0)
(29.0288 0.0842472 0)
(28.7507 0.118594 0)
(28.4087 0.168144 0)
(27.9691 0.240875 0)
(27.4214 0.354338 0)
(26.6646 0.549091 0)
(25.7189 0.860133 0)
(24.2728 1.43467 0)
(22.5483 2.34222 0)
(19.6263 4.36494 0)
(15.6235 6.56298 0)
(8.31602 11.9854 0)
(29.9988 0.000967145 0)
(29.9855 0.00293042 0)
(29.9563 0.00504152 0)
(29.9121 0.00776165 0)
(29.8542 0.011336 0)
(29.7805 0.0161498 0)
(29.6888 0.0225214 0)
(29.5744 0.0316912 0)
(29.4336 0.04438 0)
(29.2533 0.0630539 0)
(29.0288 0.0872847 0)
(28.751 0.122895 0)
(28.409 0.17425 0)
(27.9698 0.24954 0)
(27.4229 0.367245 0)
(26.6684 0.567983 0)
(25.7258 0.890094 0)
(24.2849 1.47903 0)
(22.5807 2.41545 0)
(19.6903 4.48839 0)
(15.8398 6.78763 0)
(8.50468 12.5156 0)
(29.9988 0.00100095 0)
(29.9855 0.00303267 0)
(29.9564 0.00521867 0)
(29.9122 0.00803375 0)
(29.8544 0.0117331 0)
(29.7807 0.0167151 0)
(29.6892 0.0233113 0)
(29.5747 0.0327968 0)
(29.4341 0.0460322 0)
(29.2524 0.0652459 0)
(29.0289 0.0903407 0)
(28.7512 0.127195 0)
(28.4094 0.180353 0)
(27.9706 0.258194 0)
(27.4247 0.380118 0)
(26.6726 0.586806 0)
(25.7337 0.919943 0)
(24.2983 1.52302 0)
(22.614 2.48786 0)
(19.756 4.60841 0)
(16.0654 7.00982 0)
(8.70041 13.0551 0)
(29.9988 0.00103475 0)
(29.9855 0.00313488 0)
(29.9564 0.00539585 0)
(29.9121 0.00830585 0)
(29.8542 0.0121301 0)
(29.7805 0.0172804 0)
(29.689 0.0241011 0)
(29.5745 0.0339021 0)
(29.4342 0.0476943 0)
(29.2519 0.0674293 0)
(29.0291 0.0934067 0)
(28.7515 0.131493 0)
(28.4098 0.186451 0)
(27.9715 0.266834 0)
(27.4268 0.392954 0)
(26.6772 0.605557 0)
(25.7424 0.949673 0)
(24.313 1.56666 0)
(22.648 2.55943 0)
(19.8231 4.72484 0)
(16.3007 7.22945 0)
(8.90355 13.6043 0)
(29.9988 0.00106853 0)
(29.9855 0.00323705 0)
(29.9564 0.00557304 0)
(29.9122 0.0085779 0)
(29.8545 0.0125271 0)
(29.7807 0.0178455 0)
(29.6893 0.0248909 0)
(29.5748 0.0350065 0)
(29.4345 0.0493664 0)
(29.2517 0.0695922 0)
(29.0293 0.0964782 0)
(28.7519 0.13579 0)
(28.4103 0.192545 0)
(27.9725 0.275459 0)
(27.429 0.40575 0)
(26.6822 0.624228 0)
(25.7518 0.979271 0)
(24.3291 1.60993 0)
(22.683 2.63018 0)
(19.8915 4.83748 0)
(16.546 7.4464 0)
(9.11445 14.1636 0)
(29.9988 0.00110229 0)
(29.9855 0.00333919 0)
(29.9564 0.00575027 0)
(29.9121 0.00884995 0)
(29.8543 0.012924 0)
(29.7806 0.0184105 0)
(29.6891 0.0256804 0)
(29.5747 0.0361109 0)
(29.4344 0.051044 0)
(29.2518 0.0717407 0)
(29.0295 0.099553 0)
(28.7522 0.140086 0)
(28.4108 0.198633 0)
(27.9735 0.284067 0)
(27.4314 0.418503 0)
(26.6875 0.642814 0)
(25.7621 1.00872 0)
(24.3466 1.65283 0)
(22.7189 2.7001 0)
(19.9611 4.94619 0)
(16.801 7.66055 0)
(9.33343 14.7334 0)
(29.9988 0.00113605 0)
(29.9855 0.00344128 0)
(29.9564 0.00592751 0)
(29.9122 0.00912195 0)
(29.8545 0.0133209 0)
(29.7808 0.0189755 0)
(29.6894 0.0264693 0)
(29.5751 0.0372157 0)
(29.4345 0.052725 0)
(29.252 0.073877 0)
(29.0298 0.10263 0)
(28.7526 0.14438 0)
(28.4113 0.204715 0)
(27.9747 0.292657 0)
(27.434 0.431212 0)
(26.6931 0.66131 0)
(25.7731 1.03802 0)
(24.3655 1.69537 0)
(22.7559 2.7692 0)
(20.0319 5.05079 0)
(17.0656 7.87177 0)
(9.56079 15.3141 0)
(29.9988 0.00116979 0)
(29.9855 0.00354334 0)
(29.9564 0.00610477 0)
(29.9121 0.00939394 0)
(29.8543 0.0137176 0)
(29.7807 0.0195406 0)
(29.6891 0.0272578 0)
(29.575 0.0383165 0)
(29.4341 0.0544063 0)
(29.2524 0.0760042 0)
(29.0302 0.105709 0)
(28.753 0.148673 0)
(28.4118 0.210791 0)
(27.9759 0.301226 0)
(27.4368 0.443875 0)
(26.699 0.679708 0)
(25.7849 1.06714 0)
(24.3858 1.73754 0)
(22.7941 2.83748 0)
(20.1038 5.15114 0)
(17.3395 8.07992 0)
(9.79679 15.906 0)
(29.9988 0.00120353 0)
(29.9855 0.00364536 0)
(29.9564 0.00628204 0)
(29.9123 0.00966586 0)
(29.8546 0.0141144 0)
(29.7809 0.0201047 0)
(29.6895 0.0280493 0)
(29.5755 0.0394135 0)
(29.4339 0.0560105 0)
(29.2528 0.0781236 0)
(29.0305 0.10879 0)
(28.7534 0.152965 0)
(28.4124 0.21686 0)
(27.9772 0.309776 0)
(27.4397 0.456489 0)
(26.7052 0.698002 0)
(25.7973 1.09607 0)
(24.4077 1.77933 0)
(22.8336 2.90495 0)
(20.1771 5.24709 0)
(17.6224 8.28486 0)
(10.0417 16.5096 0)
(29.9988 0.00123725 0)
(29.9855 0.00374735 0)
(29.9564 0.00645931 0)
(29.9122 0.00993782 0)
(29.8543 0.0145108 0)
(29.7808 0.0206706 0)
(29.6892 0.0288313 0)
(29.5756 0.040567 0)
(29.4331 0.0573836 0)
(29.2533 0.0802455 0)
(29.0309 0.111871 0)
(28.7539 0.157255 0)
(28.413 0.222922 0)
(27.9785 0.318304 0)
(27.4427 0.469054 0)
(26.7117 0.716186 0)
(25.8105 1.1248 0)
(24.4309 1.82073 0)
(22.8748 2.9716 0)
(20.252 5.3385 0)
(17.9146 8.48643 0)
(10.2956 17.1253 0)
(29.9988 0.00127096 0)
(29.9855 0.0038493 0)
(29.9564 0.00663658 0)
(29.9123 0.0102097 0)
(29.8546 0.0149073 0)
(29.7811 0.0212347 0)
(29.6895 0.0296222 0)
(29.5763 0.0416804 0)
(29.4321 0.0592726 0)
(29.2537 0.082398 0)
(29.0313 0.114954 0)
(28.7544 0.161543 0)
(28.4137 0.228977 0)
(27.9799 0.32681 0)
(27.4459 0.481566 0)
(26.7184 0.734254 0)
(25.8242 1.15332 0)
(24.4555 1.86172 0)
(22.9177 3.03743 0)
(20.3287 5.42525 0)
(18.216 8.68449 0)
(10.5589 17.7536 0)
(29.9988 0.00130467 0)
(29.9855 0.00395121 0)
(29.9564 0.00681389 0)
(29.9122 0.0104815 0)
(29.8544 0.015304 0)
(29.7809 0.0217989 0)
(29.6892 0.0304065 0)
(29.5762 0.0428464 0)
(29.4314 0.0610724 0)
(29.2542 0.0845781 0)
(29.0317 0.118036 0)
(28.7548 0.16583 0)
(28.4143 0.235024 0)
(27.9813 0.335293 0)
(27.4491 0.494024 0)
(26.7253 0.7522 0)
(25.8386 1.1816 0)
(24.4816 1.9023 0)
(22.9627 3.10243 0)
(20.4071 5.50719 0)
(18.5272 8.87887 0)
(10.8317 18.3948 0)
(29.9988 0.00133836 0)
(29.9855 0.00405308 0)
(29.9565 0.00699114 0)
(29.9123 0.0107535 0)
(29.8547 0.0156994 0)
(29.7812 0.0223684 0)
(29.6897 0.0311694 0)
(29.5766 0.0440343 0)
(29.431 0.0625799 0)
(29.2545 0.086767 0)
(29.0321 0.121119 0)
(28.7553 0.170114 0)
(28.415 0.241063 0)
(27.9828 0.343753 0)
(27.4525 0.506426 0)
(26.7325 0.770018 0)
(25.8536 1.20963 0)
(24.5089 1.94243 0)
(23.01 3.16661 0)
(20.4871 5.58418 0)
(18.8482 9.06941 0)
(11.1143 19.0494 0)
(29.9988 0.00137205 0)
(29.9855 0.00415492 0)
(29.9564 0.00716841 0)
(29.9122 0.0110251 0)
(29.8544 0.0160962 0)
(29.7809 0.0229279 0)
(29.6895 0.0319968 0)
(29.5757 0.0449084 0)
(29.4308 0.0640251 0)
(29.2548 0.0889544 0)
(29.0325 0.124201 0)
(28.7558 0.174397 0)
(28.4157 0.247095 0)
(27.9843 0.352187 0)
(27.456 0.518769 0)
(26.7399 0.787703 0)
(25.8691 1.2374 0)
(24.5373 1.98209 0)
(23.0601 3.22996 0)
(20.5682 5.65609 0)
(19.1782 9.256 0)
(11.407 19.7177 0)
(29.9988 0.00140572 0)
(29.9855 0.0042568 0)
(29.9565 0.00734576 0)
(29.9123 0.0112969 0)
(29.8548 0.0164924 0)
(29.781 0.0234933 0)
(29.6907 0.0327967 0)
(29.5727 0.0462576 0)
(29.4306 0.0655019 0)
(29.2551 0.0911389 0)
(29.0329 0.127281 0)
(28.7563 0.178678 0)
(28.4164 0.253118 0)
(27.9859 0.360598 0)
(27.4595 0.531053 0)
(26.7475 0.805251 0)
(25.885 1.26491 0)
(24.5669 2.02125 0)
(23.1133 3.29248 0)
(20.6497 5.72284 0)
(19.5142 9.43864 0)
(11.7097 20.401 0)
(29.9988 0.00143921 0)
(29.9855 0.00435855 0)
(29.9564 0.00752336 0)
(29.9122 0.0115689 0)
(29.8546 0.0168897 0)
(29.7807 0.0240556 0)
(29.691 0.033615 0)
(29.5704 0.04767 0)
(29.4305 0.0670145 0)
(29.2552 0.0933235 0)
(29.0332 0.130359 0)
(28.7568 0.182956 0)
(28.4171 0.259134 0)
(27.9874 0.368981 0)
(27.4632 0.543273 0)
(26.7553 0.822657 0)
(25.9014 1.29212 0)
(24.5975 2.05986 0)
(23.1701 3.3542 0)
(20.7309 5.7844 0)
(19.8491 9.617 0)
(12.0223 21.1069 0)
(29.9988 0.0014723 0)
(29.9855 0.00445946 0)
(29.9565 0.00769966 0)
(29.9124 0.0118393 0)
(29.855 0.0172861 0)
(29.781 0.0246075 0)
(29.6917 0.0344943 0)
(29.5696 0.0487981 0)
(29.4304 0.0685357 0)
(29.2554 0.0955043 0)
(29.0335 0.133435 0)
(28.7572 0.18723 0)
(28.4178 0.265145 0)
(27.989 0.377341 0)
(27.4668 0.555429 0)
(26.7632 0.839914 0)
(25.9181 1.31904 0)
(24.6289 2.09785 0)
(23.2309 3.41515 0)
(20.8118 5.84087 0)
(20.1717 9.78907 0)
(12.431 21.8565 0)
(0.181901 0.011106 0)
(-1.17775 0.0239852 0)
(-2.02355 0.00893853 0)
(-2.04847 -0.00335817 0)
(-1.63995 -0.00738009 0)
(-1.17982 -0.00572 0)
(-0.911578 -0.00271904 0)
(-0.808421 -0.000743977 0)
(-0.795128 -0.00022462 0)
(-0.761855 0.000415906 0)
(-0.870901 0.000889273 0)
(-0.941151 -3.89722e-05 0)
(-0.88906 -0.00155894 0)
(-0.615301 -0.00337939 0)
(-0.0627424 -0.00492176 0)
(0.696837 -0.00575862 0)
(1.57532 -0.00639493 0)
(2.63478 -0.00730569 0)
(3.9521 -0.00799769 0)
(5.44685 -0.00805652 0)
(7.05319 -0.00768567 0)
(8.68004 -0.00698296 0)
(10.2473 -0.00611976 0)
(11.7131 -0.00528303 0)
(13.0808 -0.00458053 0)
(14.3749 -0.00400093 0)
(15.5994 -0.00360833 0)
(16.8356 -0.00342303 0)
(18.1307 -0.00273432 0)
(19.0239 -0.00191092 0)
(19.7482 -0.00754297 0)
(26.2533 -0.00978752 0)
(29.6444 -0.00324962 0)
(29.782 -9.48396e-05 0)
(29.7573 1.89215e-05 0)
(0.204602 0.0324407 0)
(-1.15642 0.0717641 0)
(-1.99683 0.0267336 0)
(-2.02212 -0.00979304 0)
(-1.61863 -0.0220321 0)
(-1.16557 -0.0170519 0)
(-0.902321 -0.00819858 0)
(-0.800835 -0.00235898 0)
(-0.782579 -0.000883887 0)
(-0.73428 0.00114231 0)
(-0.836488 0.00278508 0)
(-0.905796 0.000260287 0)
(-0.87745 -0.00414166 0)
(-0.641489 -0.00985237 0)
(-0.105655 -0.0147888 0)
(0.675139 -0.0173367 0)
(1.58556 -0.0189936 0)
(2.65595 -0.0214295 0)
(3.95973 -0.0234156 0)
(5.43186 -0.0237683 0)
(7.0196 -0.0228906 0)
(8.64064 -0.0209122 0)
(10.2147 -0.0183537 0)
(11.6883 -0.0158407 0)
(13.0619 -0.0137374 0)
(14.36 -0.012002 0)
(15.5861 -0.0108072 0)
(16.8166 -0.0102554 0)
(18.111 -0.00827425 0)
(19.032 -0.0055806 0)
(19.6843 -0.0222719 0)
(25.9977 -0.0295079 0)
(29.6163 -0.0101168 0)
(29.7871 -0.000314013 0)
(29.7587 6.18476e-05 0)
(0.233054 0.0526256 0)
(-1.13279 0.119435 0)
(-1.9667 0.0443339 0)
(-1.98802 -0.0161982 0)
(-1.585 -0.0365985 0)
(-1.14029 -0.02816 0)
(-0.881227 -0.0135634 0)
(-0.780224 -0.0039665 0)
(-0.753924 -0.00177627 0)
(-0.692811 0.00156651 0)
(-0.795069 0.00450163 0)
(-0.870676 0.000581731 0)
(-0.873021 -0.00626558 0)
(-0.671199 -0.0157343 0)
(-0.140329 -0.0244668 0)
(0.668254 -0.0290892 0)
(1.60962 -0.0316614 0)
(2.68729 -0.0352829 0)
(3.97531 -0.0384218 0)
(5.42613 -0.039132 0)
(6.99934 -0.0379365 0)
(8.61688 -0.0348345 0)
(10.1981 -0.0306481 0)
(11.6796 -0.0264604 0)
(13.0584 -0.0229252 0)
(14.3596 -0.0200085 0)
(15.5867 -0.0179825 0)
(16.8113 -0.0170513 0)
(18.1032 -0.0138498 0)
(19.0496 -0.00921204 0)
(19.6401 -0.0363276 0)
(25.7623 -0.0492773 0)
(29.5887 -0.0174489 0)
(29.7918 -0.000595225 0)
(29.7601 0.000110687 0)
(0.267364 0.0714919 0)
(-1.10688 0.167151 0)
(-1.93204 0.0616837 0)
(-1.9438 -0.0227593 0)
(-1.53771 -0.051035 0)
(-1.10293 -0.0390645 0)
(-0.84912 -0.0188637 0)
(-0.749467 -0.00568953 0)
(-0.715455 -0.00291483 0)
(-0.644612 0.00189569 0)
(-0.74719 0.00635238 0)
(-0.830643 0.00135455 0)
(-0.865035 -0.00780338 0)
(-0.695187 -0.0214162 0)
(-0.166172 -0.0345688 0)
(0.672063 -0.0415788 0)
(1.64647 -0.0449118 0)
(2.73168 -0.0493963 0)
(4.00294 -0.053465 0)
(5.43348 -0.0544536 0)
(6.99473 -0.0529502 0)
(8.61001 -0.0487926 0)
(10.1984 -0.0430085 0)
(11.6876 -0.0371298 0)
(13.0713 -0.032144 0)
(14.375 -0.0280318 0)
(15.6022 -0.025147 0)
(16.8201 -0.0238273 0)
(18.1078 -0.0194855 0)
(19.0768 -0.0127568 0)
(19.6155 -0.0499125 0)
(25.5465 -0.0689915 0)
(29.5616 -0.0252294 0)
(29.7962 -0.000924649 0)
(29.7614 0.000164814 0)
(0.307919 0.0888601 0)
(-1.07878 0.214878 0)
(-1.89213 0.0785965 0)
(-1.88851 -0.0296218 0)
(-1.47706 -0.0653352 0)
(-1.0537 -0.0496778 0)
(-0.80706 -0.0240353 0)
(-0.709443 -0.00748338 0)
(-0.668152 -0.00424341 0)
(-0.590164 0.00213045 0)
(-0.691555 0.00828426 0)
(-0.783802 0.00251066 0)
(-0.851623 -0.0087703 0)
(-0.711677 -0.0268234 0)
(-0.180812 -0.0448962 0)
(0.69012 -0.0545772 0)
(1.70176 -0.0585448 0)
(2.796 -0.0635546 0)
(4.04838 -0.0683778 0)
(5.45809 -0.0696466 0)
(7.00875 -0.0679124 0)
(8.6225 -0.0627778 0)
(10.2182 -0.0554332 0)
(11.715 -0.0478506 0)
(13.1033 -0.0413905 0)
(14.4085 -0.0360639 0)
(15.6348 -0.0322923 0)
(16.845 -0.0305704 0)
(18.1261 -0.0251592 0)
(19.1149 -0.0162472 0)
(19.6107 -0.0630089 0)
(25.3489 -0.0886455 0)
(29.5349 -0.0334096 0)
(29.8002 -0.00130397 0)
(29.7628 0.000223528 0)
(0.355057 0.104523 0)
(-1.04853 0.262644 0)
(-1.84612 0.0948818 0)
(-1.82088 -0.0369296 0)
(-1.40291 -0.0795421 0)
(-0.992512 -0.0599617 0)
(-0.755564 -0.0290483 0)
(-0.660452 -0.0093363 0)
(-0.612376 -0.00573158 0)
(-0.529279 0.00227728 0)
(-0.627314 0.0102724 0)
(-0.728695 0.00406594 0)
(-0.830839 -0.00916383 0)
(-0.718557 -0.0319712 0)
(-0.181755 -0.055432 0)
(0.726239 -0.0680302 0)
(1.78199 -0.0724914 0)
(2.88931 -0.0776521 0)
(4.12024 -0.0830582 0)
(5.50664 -0.0846625 0)
(7.0464 -0.0828148 0)
(8.65868 -0.0767865 0)
(10.2617 -0.0679171 0)
(11.7661 -0.058617 0)
(13.1584 -0.0506561 0)
(14.464 -0.0440947 0)
(15.6879 -0.0394088 0)
(16.8885 -0.0372686 0)
(18.1602 -0.0308553 0)
(19.1654 -0.0196986 0)
(19.6267 -0.0756243 0)
(25.1681 -0.108202 0)
(29.5089 -0.0419501 0)
(29.8038 -0.00173205 0)
(29.7641 0.000286211 0)
(0.409015 0.118266 0)
(-1.01606 0.310465 0)
(-1.79298 0.110327 0)
(-1.73913 -0.0448263 0)
(-1.31456 -0.0936609 0)
(-0.918805 -0.0698616 0)
(-0.694483 -0.033861 0)
(-0.602196 -0.0112352 0)
(-0.547788 -0.00735276 0)
(-0.461007 0.00233105 0)
(-0.55338 0.0122878 0)
(-0.663679 0.00602379 0)
(-0.800513 -0.00901192 0)
(-0.713978 -0.0369277 0)
(-0.167306 -0.0662604 0)
(0.783525 -0.0820228 0)
(1.89377 -0.0868229 0)
(3.02294 -0.0916935 0)
(4.23065 -0.0974622 0)
(5.58893 -0.099468 0)
(7.11539 -0.0976471 0)
(8.72541 -0.0908155 0)
(10.3356 -0.080458 0)
(11.8476 -0.0694266 0)
(13.2435 -0.0599343 0)
(14.5478 -0.0521133 0)
(15.7668 -0.0464842 0)
(16.955 -0.0439067 0)
(18.2134 -0.036556 0)
(19.2306 -0.0231186 0)
(19.6655 -0.0877647 0)
(25.0031 -0.12763 0)
(29.4834 -0.0508182 0)
(29.8069 -0.00220765 0)
(29.7653 0.000352238 0)
(0.469856 0.12987 0)
(-0.981229 0.358336 0)
(-1.73145 0.124679 0)
(-1.641 -0.0534457 0)
(-1.2111 -0.107655 0)
(-0.831722 -0.0793029 0)
(-0.623155 -0.0384244 0)
(-0.533899 -0.0131704 0)
(-0.473461 -0.00908873 0)
(-0.383775 0.00227728 0)
(-0.468007 0.0143033 0)
(-0.5865 0.00837612 0)
(-0.758036 -0.00833824 0)
(-0.69595 -0.0417549 0)
(-0.135702 -0.0774921 0)
(0.865154 -0.0967175 0)
(2.04392 -0.101713 0)
(3.21056 -0.10576 0)
(4.39643 -0.111562 0)
(5.71912 -0.114011 0)
(7.22713 -0.112384 0)
(8.83303 -0.104856 0)
(10.45 -0.0930529 0)
(11.9697 -0.0802764 0)
(13.3686 -0.0692157 0)
(14.6693 -0.0601042 0)
(15.8796 -0.0534994 0)
(17.0508 -0.0504629 0)
(18.2902 -0.0422373 0)
(19.3137 -0.0265127 0)
(19.7307 -0.0994322 0)
(24.854 -0.146883 0)
(29.4588 -0.0599841 0)
(29.8096 -0.00272944 0)
(29.7666 0.00042096 0)
(0.5374 0.139113 0)
(-0.943799 0.406221 0)
(-1.66006 0.13764 0)
(-1.52408 -0.0629117 0)
(-1.09178 -0.121457 0)
(-0.730412 -0.0882061 0)
(-0.540626 -0.0426885 0)
(-0.454447 -0.0151366 0)
(-0.388033 -0.0109313 0)
(-0.295524 0.00209235 0)
(-0.368698 0.0162804 0)
(-0.494131 0.0111143 0)
(-0.70012 -0.00715297 0)
(-0.661633 -0.0464908 0)
(-0.0838802 -0.0892281 0)
(0.975799 -0.112306 0)
(2.24055 -0.117419 0)
(3.4684 -0.120024 0)
(4.64052 -0.125361 0)
(5.91759 -0.128214 0)
(7.39847 -0.126979 0)
(8.99689 -0.118892 0)
(10.6199 -0.105696 0)
(12.1474 -0.0911618 0)
(13.5485 -0.0784872 0)
(14.8423 -0.0680438 0)
(16.0384 -0.0604251 0)
(17.1855 -0.0569035 0)
(18.3975 -0.0478647 0)
(19.4189 -0.0298842 0)
(19.8274 -0.110623 0)
(24.7219 -0.165905 0)
(29.435 -0.069417 0)
(29.8118 -0.00329582 0)
(29.7678 0.000491682 0)
(0.611144 0.14577 0)
(-0.9034 0.454044 0)
(-1.57709 0.148867 0)
(-1.38636 -0.0733319 0)
(-0.956395 -0.134972 0)
(-0.614348 -0.0965009 0)
(-0.445874 -0.0466106 0)
(-0.362538 -0.0171347 0)
(-0.289861 -0.0128844 0)
(-0.193827 0.00173673 0)
(-0.252274 0.0181674 0)
(-0.382775 0.0142157 0)
(-0.622596 -0.00546512 0)
(-0.606789 -0.0511643 0)
(-0.00667384 -0.101563 0)
(1.12252 -0.128992 0)
(2.49337 -0.13426 0)
(3.81348 -0.134766 0)
(4.99173 -0.138913 0)
(6.2128 -0.141986 0)
(7.65369 -0.141367 0)
(9.23914 -0.132898 0)
(10.8666 -0.118381 0)
(12.4019 -0.102079 0)
(13.8043 -0.0877326 0)
(15.087 -0.0758994 0)
(16.261 -0.0672166 0)
(17.373 -0.0631779 0)
(18.5448 -0.0533879 0)
(19.5519 -0.0332317 0)
(19.9629 -0.121328 0)
(24.6094 -0.184629 0)
(29.4126 -0.0790824 0)
(29.8135 -0.0039048 0)
(29.769 0.000563672 0)
(0.690176 0.149624 0)
(-0.859514 0.501677 0)
(-1.48063 0.157994 0)
(-1.22682 -0.0847814 0)
(-0.805578 -0.148081 0)