/*--------------------------------*- C++ -*----------------------------------*\
| =========                 |                                                 |
| \\      /  F ield         | OpenFOAM: The Open Source CFD Toolbox           |
|  \\    /   O peration     | Version:  v1912                                 |
|   \\  /    A nd           | Website:  www.openfoam.com                      |
|    \\/     M anipulation  |                                                 |
\*---------------------------------------------------------------------------*/
FoamFile
{
    version     2.0;
    format      ascii;
    class       volScalarField;
    location    "430";
    object      yPlus;
}
// * * * * * * * * * * * * * * * * * * * * * * * * * * * * * * * * * * * * * //

dimensions      [0 0 0 0 0 0 0];


internalField   uniform 0;

boundaryField
{
    inlet
    {
        type            calculated;
        value           uniform 0;
    }
    outlet
    {
        type            calculated;
        value           uniform 0;
    }
    lowerSymmetry
    {
        type            symmetryPlane;
    }
    obstical
    {
        type            calculated;
        value           nonuniform List<scalar> 
88
(
479.694
481.911
486.314
492.888
501.569
512.27
524.901
539.375
555.605
573.51
593.013
614.039
636.506
660.323
685.397
711.633
738.941
767.24
796.459
826.537
857.426
889.088
921.495
954.628
988.477
1023.04
1058.32
1094.33
1131.07
1168.58
1206.87
1245.96
1285.87
1326.63
1368.25
1410.76
1454.17
1498.52
1543.82
1590.1
1637.37
1685.71
1735.52
1790.74
24.1384
26.6773
29.8651
33.6009
37.8472
42.5888
47.8195
53.5299
59.6969
66.2745
73.1853
80.3136
87.5063
94.6359
101.549
108.068
114.004
119.158
123.341
126.38
128.129
128.476
127.348
124.708
120.568
114.984
108.064
99.9766
90.9746
81.442
72.001
63.7004
58.2025
57.4313
62.2013
71.5396
83.9261
98.3504
114.409
132.088
151.532
172.963
196.7
223.558
)
;
    }
    obsticalTop
    {
        type            calculated;
        value           nonuniform List<scalar> 
20
(
53.387
38.7876
47.1446
53.2337
56.0779
57.7123
58.3151
58.0073
57.0573
55.5963
53.5993
50.9552
47.5683
43.2494
37.9688
31.0851
24.6845
15.1536
13.634
11.3297
)
;
    }
    top
    {
        type            calculated;
        value           uniform 0;
    }
    defaultFaces
    {
        type            empty;
    }
}


// ************************************************************************* //
