/*--------------------------------*- C++ -*----------------------------------*\
| =========                 |                                                 |
| \\      /  F ield         | OpenFOAM: The Open Source CFD Toolbox           |
|  \\    /   O peration     | Version:  v1912                                 |
|   \\  /    A nd           | Website:  www.openfoam.com                      |
|    \\/     M anipulation  |                                                 |
\*---------------------------------------------------------------------------*/
FoamFile
{
    version     2.0;
    format      ascii;
    class       volScalarField;
    location    "210";
    object      epsilon;
}
// * * * * * * * * * * * * * * * * * * * * * * * * * * * * * * * * * * * * * //

dimensions      [0 2 -3 0 0 0 0];


internalField   nonuniform List<scalar> 
12441
(
0.0102961
0.00908479
0.00832695
0.00770252
0.00718364
0.0067491
0.00638247
0.00607123
0.00580531
0.00557689
0.00537959
0.00520834
0.00504448
0.00491395
0.00479376
0.00469186
0.00478914
0.019145
0.260955
2.96433
20.9601
39.25
0.0101184
0.00891978
0.0081837
0.00757662
0.00707174
0.00664865
0.00629144
0.00598808
0.0057288
0.00550607
0.00531371
0.00514682
0.0049857
0.00485889
0.004742
0.00464458
0.00474202
0.0188817
0.245905
2.95713
21.2523
40.2318
0.00989642
0.00871701
0.00799999
0.00740879
0.00691724
0.00650544
0.00615792
0.00586294
0.00561101
0.00539484
0.00520841
0.00504708
0.00489044
0.00476884
0.00465683
0.0045648
0.00461574
0.0171548
0.208892
2.92799
21.6339
41.3784
0.00967282
0.00851334
0.00781459
0.0072385
0.00675961
0.0063585
0.00602009
0.005733
0.00548798
0.00527796
0.00509708
0.00494093
0.00479063
0.00467367
0.00456704
0.00447998
0.00448888
0.0150681
0.172303
2.90699
22.1026
42.5504
0.00942863
0.00828874
0.0076087
0.00704823
0.0065825
0.0061926
0.00586387
0.00558522
0.00534769
0.00514442
0.00496974
0.00481948
0.00467395
0.00456289
0.00446184
0.00438206
0.00434641
0.0131981
0.153818
2.91493
22.6183
43.6698
0.00922263
0.0080991
0.00743427
0.00688642
0.00643125
0.00605026
0.00572912
0.00545701
0.00522515
0.0050269
0.00485669
0.00471055
0.00457085
0.00446353
0.00436721
0.0042911
0.00427253
0.0134289
0.173746
3.02026
23.2409
44.7472
0.00900201
0.00789551
0.00724712
0.00671299
0.00626937
0.00589822
0.00558557
0.00532085
0.00509554
0.00490316
0.00473832
0.00459723
0.0044612
0.00435989
0.00426614
0.00419783
0.00602983
0.02261
0.278284
3.31339
24.0652
45.7945
0.00882353
0.00773084
0.00709528
0.00657175
0.00613697
0.00577324
0.00546684
0.00520746
0.00498672
0.00479831
0.00463694
0.00449897
0.00436828
0.00427127
0.00418618
0.00516972
0.0346723
0.0796464
0.586419
3.92589
25.2067
46.8732
0.00862943
0.00755166
0.0069306
0.00641918
0.00599459
0.00563954
0.00534063
0.00508776
0.00487277
0.0046895
0.00453278
0.00439918
0.00427135
0.00414262
0.00540019
0.0272703
0.179896
0.303294
1.26043
4.99801
26.7869
48.0153
0.00847471
0.00740874
0.00679869
0.00629632
0.00587925
0.00553048
0.00523684
0.00498843
0.00477723
0.00459722
0.00444333
0.00431241
0.00418939
0.00427498
0.0255323
0.153971
0.552068
0.821869
2.33727
6.58553
28.8933
49.2846
0.00830532
0.00725231
0.00665497
0.00616322
0.00575509
0.00541393
0.00512685
0.00488414
0.00467796
0.00450241
0.00435253
0.00422636
0.00407292
0.00957835
0.117871
0.461831
1.13444
1.6092
3.63503
8.59877
31.5516
50.6975
0.00817025
0.00712758
0.00653981
0.00605592
0.00565429
0.00531854
0.00503597
0.00479706
0.00459409
0.00442128
0.00427375
0.00415143
0.00415628
0.049699
0.343938
0.904718
1.74917
2.45453
4.90357
10.8436
34.7144
52.295
0.00802117
0.00698995
0.00641352
0.00593908
0.00554541
0.00521643
0.0049397
0.00470584
0.0045073
0.0043384
0.00419438
0.00403902
0.00841557
0.174855
0.667456
1.3418
2.25811
3.17656
6.00157
13.1211
38.2837
54.0597
0.00790024
0.00687828
0.00631042
0.00584301
0.00545516
0.00513103
0.00485833
0.00462787
0.00443221
0.00426579
0.00412389
0.00388415
0.0379657
0.378823
0.980229
1.689
2.6338
3.72674
6.90462
15.2899
42.1357
56.0037
0.00776891
0.00675696
0.00619911
0.00574005
0.00535922
0.00504105
0.00477348
0.00454746
0.00435567
0.00419263
0.00405375
0.00427063
0.119559
0.599293
1.23281
1.9461
2.9042
4.13292
7.64159
17.2759
46.1494
58.0812
0.00765978
0.00665625
0.00610614
0.00565342
0.00527785
0.00496404
0.00470012
0.00447717
0.004288
0.00412721
0.00399033
0.00958458
0.245303
0.791407
1.4242
2.1358
3.10192
4.43705
8.25162
19.0535
50.2184
60.2902
0.00754391
0.00654923
0.00600802
0.00556271
0.00519335
0.00488479
0.00462536
0.00440627
0.00422044
0.00406254
0.00392867
0.0334635
0.382843
0.945589
1.56941
2.27898
3.25115
4.67294
8.76842
20.6255
54.2618
62.571
0.00744233
0.0064556
0.00592169
0.00548239
0.00511802
0.00481364
0.00455773
0.00434163
0.00415836
0.0040027
0.00387349
0.0871674
0.508157
1.06708
1.68224
2.39046
3.36807
4.8639
9.2173
22.0071
58.221
64.9213
0.00733978
0.00636075
0.00583467
0.00540186
0.00504291
0.00474309
0.00449107
0.00427829
0.00409788
0.00394468
0.00381023
0.161447
0.613589
1.16435
1.77265
2.48017
3.46329
5.02532
9.61615
23.2182
62.0621
67.2818
0.00724509
0.00627356
0.00575433
0.00532718
0.00497295
0.00467712
0.00442845
0.00421856
0.00404063
0.00388963
0.00429302
0.239946
0.700442
1.24435
1.84739
2.5548
3.5439
5.16725
9.97717
24.2786
65.7687
69.6617
0.00715494
0.00619011
0.00567775
0.00525625
0.00490671
0.00461477
0.0043694
0.00416227
0.0039867
0.00383776
0.0101442
0.313336
0.772794
1.31211
1.91109
2.61891
3.61479
5.29612
10.3084
25.2069
69.3433
72.0102
0.00706409
0.00610663
0.005601
0.00518511
0.00484028
0.00455236
0.00431042
0.00410625
0.00393326
0.00378712
0.0299332
0.378545
0.834544
1.37109
1.96696
2.67576
3.67941
5.41582
10.6149
26.0196
72.801
74.3523
0.00698488
0.00603309
0.00553335
0.00512227
0.00478138
0.00449672
0.00425749
0.00405559
0.00388451
0.0037421
0.0653125
0.43583
0.888667
1.42373
2.01733
2.72771
3.74021
5.5285
10.8998
26.7317
76.172
76.6493
0.00689831
0.00595363
0.00546039
0.00505476
0.0047185
0.00443779
0.00420197
0.00400303
0.00383456
0.00370245
0.108488
0.486438
0.937314
1.4718
2.06396
2.77652
3.79884
5.63516
11.165
27.3561
79.4968
78.9445
0.00683013
0.00589021
0.00540195
0.00500031
0.00466726
0.00438912
0.0041554
0.00395815
0.00379108
0.00368427
0.152111
0.531841
0.982
1.51662
2.10814
2.82349
3.8563
5.73625
11.4118
27.9048
82.8292
81.212
0.00674435
0.00581176
0.00533022
0.00493427
0.0046061
0.00433219
0.00410213
0.00390811
0.00374389
0.0036465
0.193086
0.573364
1.02383
1.55919
2.15087
2.86953
3.91302
5.83201
11.641
28.3881
86.2307
83.5114
0.0066853
0.00575652
0.00527903
0.00488628
0.0045606
0.00428865
0.00406015
0.00386735
0.00370416
0.00385595
0.231061
0.61207
1.0636
1.6003
2.19289
2.91524
3.96909
5.92268
11.8532
28.8148
89.7726
85.8273
0.00660149
0.00568
0.00520923
0.00482221
0.0045015
0.00423387
0.00400914
0.00381966
0.00365949
0.00590704
0.266667
0.64877
1.10195
1.64056
2.23472
2.96095
4.02444
6.00855
12.0491
29.1928
93.5287
88.2307
0.00655191
0.00563338
0.00516578
0.00478115
0.00446219
0.00419585
0.00397208
0.00378328
0.00362404
0.0117509
0.300669
0.684066
1.13934
1.68041
2.27668
3.0068
4.07896
6.08994
12.2295
29.5281
97.5746
90.7106
0.00646773
0.00555684
0.00509631
0.00471777
0.00440414
0.00414246
0.00392276
0.00373756
0.0035825
0.0229824
0.333697
0.718415
1.17616
1.7202
2.31898
3.05282
4.13262
6.1672
12.395
29.8259
101.979
93.3406
0.0064256
0.0055168
0.00505861
0.00468172
0.0043692
0.00410826
0.00388905
0.00370414
0.00355157
0.0405281
0.366193
0.752161
1.2127
1.76015
2.3617
3.099
4.18543
6.24068
12.5464
30.0904
106.803
96.1058
0.00634305
0.00544187
0.00499074
0.00462
0.00431287
0.00405668
0.00384163
0.0036604
0.00351562
0.0642762
0.398451
0.78557
1.24919
1.80043
2.40488
3.14532
4.23748
6.31073
12.6845
30.3254
112.092
99.0732
0.00630946
0.00540963
0.00496003
0.00459017
0.00428346
0.00402735
0.0038122
0.00363073
0.00349492
0.0934371
0.43065
0.818845
1.28579
1.84112
2.44852
3.19179
4.28887
6.37768
12.8101
30.5344
117.882
102.217
0.00622489
0.00533322
0.00489123
0.00452806
0.00422725
0.00397636
0.0037658
0.00358838
0.00347399
0.126896
0.462891
0.852142
1.32263
1.88226
2.4926
3.23842
4.33976
6.44187
12.9243
30.7208
124.192
105.592
0.00619816
0.00530707
0.0048658
0.00450277
0.00420173
0.00395035
0.0037392
0.00356115
0.00347959
0.16356
0.495209
0.885568
1.35976
1.92388
2.5371
3.28524
4.39033
6.50359
13.0278
30.8881
131.036
109.157
0.00611107
0.00522881
0.00479574
0.00443995
0.00414531
0.0038996
0.00369342
0.00351972
0.0035545
0.202386
0.527579
0.919196
1.39723
1.96597
2.582
3.33233
4.44075
6.56316
13.1217
31.0393
138.421
112.957
0.00608762
0.00520561
0.00477284
0.00441681
0.00412156
0.00387505
0.00366803
0.00349353
0.00651332
0.242324
0.559916
0.953056
1.43503
2.00851
2.62731
3.37973
4.49122
6.62087
13.2069
31.1766
146.347
116.938
0.00599553
0.00512343
0.00469977
0.00435175
0.00406358
0.0038233
0.00362173
0.00345198
0.033155
0.282127
0.592076
0.987144
1.47315
2.05146
2.67299
3.42753
4.54192
6.67701
13.2846
31.3011
154.798
121.137
0.00596733
0.00509613
0.00467331
0.00432546
0.00403704
0.00379629
0.0035942
0.0034246
0.0802946
0.319847
0.623873
1.02143
1.51151
2.09476
2.71905
3.4758
4.59304
6.73186
13.3559
31.4127
163.719
125.495
0.00586254
0.00500302
0.0045909
0.00425244
0.0039723
0.00373884
0.00354311
0.00338449
0.117567
0.353808
0.655098
1.05583
1.55006
2.13836
2.76547
3.5246
4.64473
6.78572
13.422
31.5098
172.976
130.045
0.00582105
0.00496373
0.00455358
0.00421627
0.00393675
0.00370363
0.00350819
0.00337929
0.142775
0.383551
0.685556
1.09027
1.5887
2.18216
2.81222
3.57398
4.69715
6.8389
13.484
31.5902
182.293
134.727
0.00569933
0.00485601
0.00445826
0.00413158
0.00386129
0.00363626
0.00344791
0.00417485
0.160088
0.409314
0.715081
1.12461
1.62733
2.22605
2.85925
3.62397
4.75042
6.89171
13.5428
31.6521
191.186
139.588
0.00561713
0.00478963
0.00440396
0.00408566
0.00382101
0.00359963
0.00341349
0.00594788
0.172408
0.431554
0.743548
1.15871
1.66583
2.26988
2.9065
3.67458
4.80461
6.94455
13.599
31.6955
198.949
144.654
0.00525455
0.00446007
0.00411175
0.00382622
0.00358899
0.00339044
0.00322365
0.0069768
0.181401
0.450697
0.770856
1.19239
1.70409
2.31347
2.95387
3.72577
4.85979
6.99786
13.6525
31.7216
204.766
150.447
95.0235
81.1091
53.503
41.6464
35.4431
29.0884
27.6528
25.0506
23.5298
22.9745
24.1756
24.9967
27.5119
31.7283
33.2248
33.9258
35.9346
37.8606
38.6359
37.9849
36.8913
36.1979
36.1458
36.6518
36.8111
29.9308
9.51044
5.04784
4.55104
4.64963
4.92332
5.08557
5.06765
4.61111
3.99331
94.6475
81.5219
54.1768
42.9619
36.8387
30.0533
28.5919
25.8171
24.2006
23.458
24.3928
25.3242
28.1617
32.8351
34.4314
34.5556
36.0733
38.0323
38.9704
38.4842
37.519
36.8248
36.6644
37.0247
37.1746
30.6735
9.62245
5.04846
4.54665
4.64496
4.91789
5.07893
5.06048
4.604
3.98742
93.9266
82.178
55.4347
45.5428
39.5687
31.939
30.3537
27.1943
25.3618
24.3337
24.8307
25.8574
29.2234
35.0312
37.0728
36.0586
36.4602
38.2374
39.3962
39.2526
38.6225
38.0018
37.648
37.6362
37.5049
31.1263
9.75887
5.04807
4.53788
4.6356
4.90705
5.06569
5.04615
4.58978
3.97567
92.8104
83.0214
57.3126
49.4625
43.5894
34.7315
32.8601
29.1336
27.0289
25.6496
25.5517
26.6762
30.8599
38.4933
41.6402
39.0341
37.449
38.6091
39.9995
40.3981
40.3382
39.9004
39.2983
38.7029
38.053
31.5199
9.93702
5.04726
4.52478
4.62157
4.8908
5.04585
5.02471
4.56851
3.95808
91.3035
84.0007
59.8496
54.6891
48.8112
38.4115
36.0738
31.6506
29.2393
27.4264
26.6522
27.9218
33.2261
43.2757
48.5674
44.3078
39.6668
39.4532
40.9372
42.0749
42.8422
42.736
41.867
40.4739
39.0631
32.0565
10.1763
5.0468
4.50735
4.60288
4.86918
5.01943
4.99619
4.54022
3.9347
89.3553
85.0687
63.0811
61.0579
55.1203
42.9652
39.9974
34.7997
32.062
29.7179
28.2412
29.7636
36.4749
49.1904
57.7488
52.6697
44.0134
41.3523
42.5302
44.5412
46.3911
46.8026
45.6915
43.2651
40.8025
32.9217
10.4994
5.04763
4.48565
4.57953
4.84218
4.98647
4.96064
4.50497
3.90558
87.0012
86.1815
67.0264
68.222
62.3568
48.3747
44.6662
38.6674
35.6051
32.6286
30.4603
32.4097
40.7789
55.8458
68.2107
64.3308
51.5187
45.2198
45.3737
48.2369
51.3806
52.5204
51.2423
47.5092
43.6054
34.3127
10.9342
5.05089
4.45972
4.55155
4.80984
4.94698
4.91812
4.4628
3.8708
84.2135
87.2961
71.6746
75.627
70.2695
54.5765
50.1162
43.3551
40.0136
36.3212
33.5092
36.1358
46.3607
62.7889
78.2367
78.1162
62.9192
52.2308
50.4274
53.8872
58.4347
60.5096
59.1891
53.8224
47.928
36.4756
11.5159
5.0579
4.4296
4.51895
4.77218
4.901
4.86872
4.41382
3.83044
81.0699
88.3701
76.9819
82.6235
78.5064
61.4134
56.339
48.947
45.4419
41.0229
37.6739
41.3122
53.4348
69.6525
86.1026
91.0736
77.6648
63.4777
59.0076
62.6051
68.5153
71.6812
70.4733
63.0805
54.4156
39.7544
12.2902
5.07014
4.39537
4.48177
4.72925
4.84861
4.81252
4.35813
3.78461
77.574
89.3594
82.8937
88.7411
86.678
68.6199
63.2356
55.4632
52.0129
47.0114
43.3367
48.3628
61.9916
76.1889
91.0806
99.9446
92.8028
78.9265
72.4279
75.8495
82.9563
87.2631
86.3061
76.4433
63.9473
44.6521
13.316
5.08919
4.35709
4.44004
4.68112
4.78986
4.74967
4.29587
3.73345
73.8369
90.2163
89.3911
93.9237
94.4727
75.8683
70.5848
62.7975
59.7199
54.5524
50.9254
57.6009
71.4878
82.2776
93.8057
103.808
104.092
95.8602
90.6842
94.748
103.057
108.445
107.793
95.0935
77.5358
51.8856
14.6667
5.11651
4.31485
4.39385
4.62785
4.72488
4.68033
4.22721
3.67712
69.8857
90.8835
96.4987
98.5019
101.752
82.8778
78.0616
70.6747
68.3266
63.7669
60.7628
68.7866
80.7058
87.8427
95.6591
104.517
109.73
109.555
110.486
118.093
128.494
134.969
134.529
119.106
95.7262
62.3523
16.4255
5.15314
4.26872
4.34328
4.56956
4.6538
4.6047
4.15238
3.61583
65.8489
91.2869
104.245
102.949
108.562
89.5276
85.321
78.6617
77.3017
74.3941
72.6995
80.7587
88.3408
92.7765
97.8625
104.666
111.6
117.509
126.309
140.588
154.887
162.695
162.143
145.062
117.02
76.743
18.6652
5.1991
4.21878
4.28843
4.50637
4.57679
4.52302
4.07163
3.5498
61.7626
91.3242
112.511
107.646
115.066
95.9036
92.1323
86.2925
85.949
85.6115
85.7522
91.5086
93.8701
96.9226
100.989
105.99
112.67
121.323
135.541
156.138
174.819
183.773
182.295
165.021
136.184
94.3652
21.3979
5.25259
4.1651
4.22944
4.43845
4.49407
4.43558
3.98526
3.47931
57.7502
90.8587
120.745
112.777
121.455
102.253
98.4965
93.2315
93.6773
96.1735
98.053
99.7406
97.7502
100.272
104.918
109.045
114.785
123.881
140.063
163.495
184.113
192.576
188.798
171.766
146.309
111.509
24.4949
5.30922
4.10772
4.16647
4.36598
4.40589
4.34271
3.89363
3.40465
53.8399
89.7325
127.882
118.351
127.903
108.87
104.622
99.4795
100.261
105.004
107.88
105.554
100.926
103.112
109.137
113.493
118.38
126.855
142.721
165.52
184.495
189.992
182.668
165.426
144.887
122.19
27.6312
5.36152
4.04666
4.09969
4.28916
4.31254
4.24477
3.79712
3.32616
50.1273
87.8148
132.78
124.259
134.559
115.968
110.845
105.356
105.923
111.736
114.795
110.142
104.471
106.061
113.19
118.496
122.937
130.452
144.888
164.961
179.68
180.369
169.153
151.615
135.407
122.944
30.3479
5.3997
3.98194
4.02931
4.20825
4.21436
4.14218
3.69618
3.24419
46.6135
85.0774
135.004
130.32
141.492
123.707
117.515
111.361
111.247
116.92
119.84
114.76
109.228
109.845
117.057
123.252
127.582
134.091
146.564
162.872
172.085
167.388
152.924
135.677
122.831
115.652
32.219
5.41337
3.91359
3.95555
4.12349
4.1117
4.03536
3.59126
3.15912
43.349
81.6656
135.168
136.327
148.716
132.153
124.903
117.986
116.913
121.614
124.567
120.635
115.965
115.167
121.147
127.408
131.594
137.079
147.248
159.263
162.683
153.093
136.631
120.499
110.289
104.532
32.9865
5.39377
3.8417
3.87865
4.03518
4.00497
3.92479
3.48286
3.07137
40.3033
77.9334
134.46
142.126
156.181
141.268
133.16
125.604
123.525
126.943
130.43
128.632
125.327
122.611
126.06
131.162
134.732
139.013
146.536
153.958
151.888
138.546
121.479
107.114
98.9971
92.7214
32.6015
5.33557
3.76638
3.79885
3.94362
3.89458
3.81096
3.37151
2.98135
37.4893
74.438
133.782
147.676
163.797
150.92
142.294
134.406
131.486
133.764
138.431
139.638
138.107
132.785
132.344
134.974
137.169
139.865
144.336
147.01
140.127
124.423
107.935
95.6638
89.1523
81.6577
31.2032
5.23783
3.68786
3.71643
3.84912
3.781
3.69437
3.25775
2.88949
34.8769
71.8802
133.494
153.007
171.453
160.909
152.202
144.416
141.015
142.628
149.242
154.285
155.077
146.358
140.474
139.321
139.277
139.85
140.812
138.737
127.953
111.223
96.1191
85.9546
80.5789
71.7546
29.0553
5.10374
3.60641
3.63165
3.75202
3.66467
3.57556
3.14212
2.79621
32.4767
70.4631
133.759
158.145
179.029
171.003
162.696
155.508
152.141
153.792
163.198
173.276
177.127
164.164
150.92
144.568
141.41
139.269
136.282
129.622
115.957
99.2865
85.9733
77.7077
73.0252
63.009
26.4631
4.9395
3.52237
3.5448
3.65264
3.54609
3.45504
3.02518
2.70194
30.2708
70.3142
134.44
163.082
186.402
180.969
173.544
167.472
164.779
167.319
180.454
196.961
204.808
186.965
164.214
151.062
143.889
138.428
131.116
120.189
104.637
88.781
77.3433
70.649
66.2703
55.3009
23.7024
4.75286
3.43614
3.45616
3.55135
3.42574
3.33333
2.90746
2.60709
28.2673
71.3944
135.357
167.77
193.454
190.593
184.503
180.053
178.752
183.06
200.987
225.628
238.303
215.166
180.832
159.113
146.97
137.59
125.68
110.918
94.3367
79.7218
70.0298
64.5407
60.151
48.5022
20.9807
4.55171
3.34813
3.36602
3.44847
3.3041
3.21094
2.78949
2.51207
26.4614
73.4145
136.381
172.139
200.076
199.7
195.35
193.009
193.863
200.882
224.731
259.076
276.873
248.156
200.914
168.967
150.86
136.935
120.271
102.178
85.2298
72.0159
63.8234
59.1882
54.5572
42.5053
18.4301
4.34309
3.25876
3.27466
3.34436
3.18166
3.08837
2.67179
2.41726
24.8623
75.764
137.436
176.117
206.184
208.167
205.903
206.129
209.91
220.619
251.555
296.976
319.134
284.112
223.795
180.547
155.577
136.499
115.08
94.2103
77.3494
65.5087
58.5262
54.4387
49.4206
37.2217
16.1198
4.13273
3.16842
3.18236
3.23936
3.05889
2.96609
2.55483
2.32302
23.4808
77.6234
138.484
179.645
211.727
215.936
216.047
219.271
226.74
242.125
281.296
338.434
362.803
320.098
247.762
193.313
160.893
136.151
110.172
87.12
70.6278
60.0224
53.9642
50.1764
44.7
32.5768
14.0742
3.92494
3.07752
3.0894
3.1338
2.93624
2.84455
2.43906
2.22967
22.3333
78.3698
139.503
182.691
216.691
223.013
225.736
232.358
244.236
265.252
313.692
382.368
405.308
352.923
270.293
206.091
166.231
135.596
105.505
80.9099
64.9416
55.3806
49.9913
46.3161
40.3703
28.5035
12.2895
3.72272
2.98639
2.99604
3.028
2.81416
2.72418
2.32489
2.13753
21.4546
78.0293
140.482
185.253
221.099
229.451
234.991
245.387
262.343
289.878
348.406
427.156
443.714
379.638
288.884
217.391
170.812
134.469
100.978
75.5075
60.1405
51.423
46.4903
42.7974
36.4136
24.9399
10.7469
3.52802
2.89538
2.90255
2.92228
2.69306
2.60535
2.2127
2.04687
20.8892
77.2678
141.407
187.349
224.998
235.338
243.884
258.409
281.049
315.888
385.036
471.154
475.503
398.162
301.67
225.751
173.792
132.442
96.4939
70.802
56.0723
48.0109
43.3694
39.578
32.8136
21.8282
9.42045
3.34193
2.80476
2.80917
2.81695
2.57333
2.48842
2.10283
1.95794
20.7351
76.911
142.257
189.017
228.456
240.781
252.53
271.535
300.417
343.262
423.24
512.449
498.478
407.3
307.717
230.224
174.573
129.333
91.9888
66.6661
52.5926
45.0291
40.5592
36.6282
29.5524
19.1146
8.28272
3.16499
2.7148
2.71612
2.71227
2.45532
2.37371
1.99557
1.87094
21.1259
77.5088
143.006
190.304
231.556
245.906
261.083
284.944
320.611
372.138
462.837
549.336
511.285
406.872
306.881
230.386
172.86
125.124
87.4442
62.9761
49.5731
42.3847
38.0082
33.9267
26.6095
16.7498
7.30722
2.99729
2.62574
2.62364
2.60852
2.33936
2.2615
1.89118
1.78606
22.2957
79.232
143.627
191.262
234.39
250.854
269.756
298.935
342.013
403.015
503.911
579.773
512.966
397.351
299.635
226.345
168.703
119.935
82.8663
59.6182
46.9026
40.0047
35.6787
31.4562
23.9616
14.6891
6.46987
2.83866
2.53777
2.53192
2.50595
2.22575
2.15205
1.78987
1.70345
24.5223
81.9757
144.102
191.944
237.061
255.802
278.862
314.015
365.368
436.961
546.66
601.52
503.224
379.76
286.795
218.479
162.338
113.942
78.2697
56.496
44.489
37.8329
33.5428
29.2013
21.5836
12.8929
5.74951
2.68877
2.45107
2.44115
2.4048
2.11475
2.04556
1.69182
1.62325
28.1637
85.4939
144.417
192.397
239.688
260.987
288.89
331.076
392.106
475.922
590.766
611.39
482.059
355.374
269.389
207.377
154.121
107.331
73.662
53.5293
42.2582
35.827
31.5792
27.1464
19.4496
11.326
5.12788
2.54716
2.3658
2.35152
2.30528
2.0066
1.94223
1.59719
1.54557
33.4954
89.4976
144.568
192.668
242.419
266.756
300.654
351.705
424.764
522.794
633.796
605.827
450.302
325.767
248.522
193.672
144.414
100.26
69.045
50.6565
40.1541
33.956
29.7705
25.2751
17.5337
9.95792
4.58946
2.41337
2.28209
2.26318
2.2076
1.90152
1.84222
1.5061
1.47049
40.701
93.7178
144.552
192.8
245.453
273.658
315.553
378.716
467.592
580.647
668.772
581.439
409.556
292.681
225.358
178.052
133.583
92.8636
64.4176
47.8331
38.1358
32.1965
28.1012
23.5697
15.8114
8.76219
4.12116
2.28689
2.20006
2.17629
2.11196
1.79971
1.74567
1.41866
1.39808
49.6321
97.9445
144.371
192.847
249.083
282.605
336.028
416.944
526.632
648.754
682.979
537.317
362.626
258.053
201.062
161.187
121.966
85.2536
59.7841
45.0318
36.1763
30.5315
26.5567
22.0118
14.2598
7.7159
3.71199
2.16723
2.11983
2.09099
2.01855
1.70134
1.65271
1.33493
1.32841
59.8743
102.048
144.024
192.879
253.772
295.158
366.335
473.931
606.65
713.183
662.278
476.196
312.921
223.745
176.764
143.759
109.891
77.535
55.1585
42.2408
34.2588
28.9479
25.1231
20.5827
12.8581
6.79937
3.35278
2.05394
2.04149
2.00745
1.92755
1.60657
1.56344
1.255
1.26153
70.5911
105.977
143.514
193.006
260.289
314.057
413.546
557.546
697.405
739.56
600.942
404.852
264.049
191.39
153.462
126.396
97.6676
69.81
50.5683
39.4634
32.3758
27.4362
23.7875
19.2644
11.5881
5.99566
3.03591
1.9466
1.96513
1.92579
1.83914
1.51555
1.47794
1.1789
1.19747
80.9187
109.748
142.842
193.407
269.984
344.147
487.075
660.007
751.495
693.836
508.096
331.52
218.852
162.143
131.958
109.685
85.5927
62.1848
46.053
36.715
30.5264
25.9894
22.5385
18.0403
10.4339
5.29027
2.75504
1.84482
1.89085
1.84617
1.75349
1.42842
1.39629
1.10667
1.13626
89.3733
113.432
142.005
194.4
285.347
393.412
586.768
724.27
708.372
581.15
403.266
263.438
179.177
136.667
112.804
94.1088
73.9339
54.763
41.6609
34.0203
28.7151
24.6039
21.3673
16.8964
9.38237
4.67074
2.50493
1.74826
1.81872
1.76874
1.67077
1.34528
1.31855
1.03833
1.07792
95.1437
117.17
140.998
196.581
311.098
469.109
661.534
673.635
575.659
443.922
305.418
204.893
145.673
115.089
96.2557
80.0311
62.9365
47.6469
37.4417
31.4079
26.9503
23.2782
20.2681
15.8219
8.42267
4.12634
2.28127
1.65661
1.74884
1.69364
1.59114
1.26625
1.24476
0.973863
1.02247
0.00337757
0.00250083
0.00227028
0.00215648
0.00211397
0.00211636
0.00215017
0.00730134
0.186406
0.462993
0.790334
1.21696
1.73207
2.34517
2.98856
3.76366
4.9012
7.03834
13.6905
31.7319
207.115
160.066
0.00334405
0.00224098
0.00183901
0.00160084
0.00147705
0.00143648
0.00146855
0.00744399
0.188899
0.469646
0.801535
1.23093
1.74751
2.36219
3.00709
3.78426
4.92499
7.06329
13.7162
31.7425
208.115
170.145
0.00354021
0.00237564
0.00188154
0.00154293
0.00131949
0.00118647
0.00115551
0.00753153
0.190549
0.474471
0.810242
1.2415
1.75858
2.37384
3.01961
3.79862
4.94306
7.08423
13.739
31.7577
208.264
179.775
0.00367047
0.00251735
0.0020039
0.00162961
0.00135733
0.00116493
0.00103147
0.00758239
0.191465
0.477562
0.816405
1.24857
1.76518
2.38
3.02599
3.8066
4.95524
7.10098
13.7576
31.7786
207.625
188.815
0.00392235
0.0027642
0.00222703
0.00182295
0.00151513
0.00128067
0.00100175
0.00760545
0.191714
0.478984
0.819985
1.25208
1.76722
2.38062
3.02616
3.8081
4.96135
7.11331
13.7707
31.8061
206.242
197.728
0.0040599
0.00292977
0.00239885
0.00199273
0.00167621
0.0014265
0.00099237
0.00760538
0.19134
0.478787
0.820963
1.25199
1.76467
2.37568
3.02009
3.80305
4.96121
7.12097
13.777
31.8409
204.147
206.688
0.00434029
0.00320835
0.00266033
0.00223466
0.00189773
0.00162681
0.00106277
0.00758431
0.190372
0.477018
0.819352
1.24831
1.75753
2.36523
3.00781
3.79139
4.95466
7.12369
13.7749
31.8833
201.38
215.696
0.00447828
0.00337934
0.00284432
0.00242426
0.00208783
0.00181338
0.00119019
0.00754252
0.188836
0.473728
0.815201
1.24108
1.74588
2.34934
2.98937
3.77312
4.94152
7.12115
13.7632
31.933
197.988
224.69
0.00478389
0.00368508
0.00313556
0.00269833
0.00234404
0.00205173
0.00131536
0.00747912
0.186755
0.468977
0.808596
1.23041
1.72985
2.32816
2.9649
3.74825
4.92163
7.113
13.7405
31.989
194.028
233.601
0.00490842
0.00384894
0.00331995
0.0028955
0.00254837
0.00225871
0.00140523
0.00739256
0.184148
0.462835
0.799657
1.21643
1.70961
2.30186
2.93456
3.71683
4.8948
7.09885
13.7057
32.0497
189.562
242.348
0.00522927
0.00417173
0.00363107
0.00319202
0.00282933
0.00252402
0.00151903
0.00728105
0.181038
0.455386
0.788532
1.19934
1.68538
2.27068
2.89856
3.67896
4.86089
7.07829
13.6576
32.1122
184.653
250.82
0.00533904
0.00432478
0.00381029
0.00338991
0.00304012
0.00274297
0.00163777
0.00714199
0.177444
0.44672
0.775392
1.17934
1.65742
2.23488
2.85715
3.63476
4.81974
7.05085
13.5952
32.173
179.371
258.887
0.005672
0.00466145
0.00413783
0.00370502
0.00334151
0.00303038
0.0018421
0.00697223
0.173382
0.436933
0.760424
1.15668
1.62602
2.19479
2.81065
3.58444
4.77124
7.01606
13.5175
32.2272
173.784
266.4
0.00575603
0.00479297
0.00430152
0.00389371
0.00354936
0.00325248
0.00211936
0.00676699
0.16886
0.42612
0.743821
1.13165
1.59153
2.15073
2.75937
3.52823
4.7153
6.97338
13.4235
32.2688
167.96
273.207
0.00609201
0.00513385
0.00463543
0.00421725
0.00386112
0.00355218
0.0025245
0.00652065
0.163877
0.414372
0.725773
1.10452
1.55427
2.10309
2.7037
3.46641
4.65191
6.92228
13.3126
32.2909
161.966
279.16
0.00615197
0.005243
0.00478047
0.00439171
0.00405949
0.0037697
0.00299036
0.00622486
0.158414
0.401766
0.706466
1.0756
1.51461
2.05226
2.64402
3.39932
4.5811
6.86217
13.1838
32.2854
155.861
284.127
0.0064867
0.00558363
0.00511592
0.00471842
0.00437586
0.00407539
0.00350331
0.00587091
0.152433
0.388361
0.686064
1.04518
1.47291
1.99862
2.58076
3.32734
4.50299
6.7925
13.0366
32.2435
149.702
287.998
0.00651819
0.00566547
0.00523673
0.0048725
0.00455808
0.00428121
0.00389813
0.00544727
0.145863
0.374185
0.664711
1.01354
1.42955
1.94259
2.51434
3.25089
4.41777
6.71272
12.8704
32.1558
143.538
290.686
0.00683898
0.00599298
0.00556088
0.00518976
0.00486683
0.00458109
0.00427507
0.00495735
0.138601
0.359225
0.642514
0.980963
1.38488
1.88458
2.44521
3.17041
4.32571
6.6223
12.6848
32.0124
137.412
292.132
0.00685335
0.00605574
0.00566248
0.00532544
0.00503217
0.00477206
0.00452856
0.00443056
0.130494
0.343418
0.619537
0.947681
1.33927
1.82499
2.3738
3.08638
4.22717
6.52079
12.4793
31.8033
131.359
292.303
0.00716009
0.00636992
0.0059748
0.0056323
0.00533176
0.00506383
0.00482458
0.00398829
0.121341
0.326632
0.595789
0.913893
1.29303
1.76421
2.30055
2.9993
4.1226
6.40784
12.254
31.5189
125.407
291.182
0.00715651
0.00641249
0.00605566
0.0057476
0.00547777
0.00523702
0.00502353
0.00386421
0.110898
0.308653
0.571201
0.879741
1.2465
1.70263
2.22588
2.90964
4.01248
6.28316
12.0087
31.1503
119.579
288.772
0.00744658
0.00671016
0.00635239
0.00603985
0.00576368
0.00551596
0.00529386
0.00416645
0.0988976
0.289172
0.545612
0.845293
1.19992
1.64062
2.15022
2.81792
3.89741
6.14667
11.7437
30.6896
113.888
285.084
0.00743045
0.00673699
0.00641579
0.00613683
0.00589116
0.00567094
0.00547144
0.0046837
0.0851285
0.26778
0.518738
0.810517
1.15352
1.57853
2.07397
2.72464
3.778
5.99841
11.4593
30.1305
108.346
280.142
0.00770421
0.00701825
0.00669675
0.00641398
0.00616258
0.00593588
0.00572881
0.00525078
0.0696077
0.243978
0.490151
0.775251
1.10743
1.51668
1.9975
2.63027
3.65492
5.83859
11.1559
29.4688
102.958
273.975
0.00767664
0.00703037
0.00674344
0.00649301
0.00627149
0.00607215
0.00588915
0.00562233
0.0528878
0.217246
0.459253
0.739164
1.06168
1.45535
1.92118
2.53529
3.52888
5.66766
10.8343
28.7025
97.7221
266.623
0.00793335
0.00729421
0.00700725
0.0067534
0.00652655
0.00632106
0.0061318
0.00592853
0.0363816
0.187203
0.425261
0.701709
1.01613
1.39475
1.84535
2.44017
3.40063
5.48625
10.4952
27.8324
92.6357
258.131
0.00789944
0.00729633
0.00704137
0.0068179
0.00661952
0.00644046
0.00627523
0.00611323
0.0222706
0.153938
0.387239
0.662078
0.970449
1.33498
1.77031
2.34533
3.27093
5.29521
10.1395
26.8622
87.69
248.562
0.00814125
0.00754475
0.00728981
0.00706312
0.00685959
0.00667448
0.00650328
0.00634046
0.0126499
0.118502
0.344199
0.619152
0.923999
1.27598
1.69629
2.2512
3.14057
5.09563
9.76828
25.7983
82.8739
237.991
0.00810328
0.00753934
0.00731382
0.00711545
0.00693881
0.00677894
0.00663104
0.0064902
0.00797223
0.0833958
0.2954
0.571488
0.875806
1.21746
1.62342
2.15813
3.01034
4.88884
9.38275
24.6502
78.1722
226.51
0.00833032
0.00777239
0.00754686
0.00734541
0.00716379
0.00699802
0.00684424
0.00669877
0.00667567
0.0523965
0.240947
0.517361
0.824453
1.15876
1.55165
2.06642
2.88107
4.67642
8.98428
23.4297
73.5681
214.233
0.00829259
0.00776374
0.00756485
0.00738936
0.00723266
0.0070905
0.00695871
0.00683337
0.00662178
0.0291425
0.182719
0.455011
0.768022
1.0988
1.48067
1.97624
2.75351
4.46021
8.57452
22.1508
69.0423
201.293
0.0085061
0.00798272
0.00778379
0.00760537
0.00744388
0.00729598
0.00715838
0.00702812
0.00685265
0.0152769
0.125254
0.383305
0.704053
1.0359
1.40978
1.88755
2.62836
4.24227
8.15549
20.8294
64.5769
187.842
0.00847096
0.00797343
0.00779846
0.00764363
0.00750502
0.00737899
0.00726192
0.00715045
0.00702485
0.00912407
0.0754035
0.303055
0.629701
0.967744
1.33772
1.80003
2.50616
4.02487
7.72974
19.4822
60.1557
174.046
0.00867176
0.00817915
0.00800411
0.00784651
0.00770336
0.00757181
0.00744907
0.00733262
0.00721438
0.00725498
0.0394883
0.218838
0.542339
0.891247
1.26257
1.71289
2.38718
3.81033
7.3004
18.1268
55.7694
160.082
0.00864155
0.00817176
0.00801808
0.00788172
0.00775934
0.00764781
0.00754399
0.00744494
0.00734569
0.00699603
0.0192291
0.139859
0.441148
0.80264
1.1816
1.62474
2.27123
3.60086
6.87129
16.7808
51.4173
146.134
0.00883171
0.00836635
0.00821251
0.00807349
0.00794675
0.0078299
0.00772053
0.00761646
0.00751437
0.00721769
0.0107265
0.0773147
0.329935
0.698084
1.09113
1.53348
2.15757
3.39829
6.44679
15.4615
47.1113
132.379
0.00880912
0.00836382
0.00822888
0.00810883
0.00800079
0.00790206
0.0078099
0.00772174
0.00763439
0.0074592
0.00811536
0.0377021
0.219699
0.575428
0.986515
1.43612
2.04472
3.20376
6.03157
14.1853
42.8761