/*--------------------------------*- C++ -*----------------------------------*\
| =========                 |                                                 |
| \\      /  F ield         | OpenFOAM: The Open Source CFD Toolbox           |
|  \\    /   O peration     | Version:  v1912                                 |
|   \\  /    A nd           | Website:  www.openfoam.com                      |
|    \\/     M anipulation  |                                                 |
\*---------------------------------------------------------------------------*/
FoamFile
{
    version     2.0;
    format      ascii;
    class       volScalarField;
    location    "210";
    object      nut;
}
// * * * * * * * * * * * * * * * * * * * * * * * * * * * * * * * * * * * * * //

dimensions      [0 2 -1 0 0 0 0];


internalField   nonuniform List<scalar> 
12441
(
5.82203e-24
1.79051e-20
8.10484e-20
3.32537e-19
1.06828e-18
3.88819e-18
1.01052e-17
2.50036e-17
6.138e-17
1.27521e-16
3.0563e-16
7.71409e-16
2.1813e-15
7.40701e-15
1.03747e-13
1.89512e-11
0.000197652
0.000995317
0.0031883
0.00268579
0.00364566
0.00775321
6.34212e-24
3.03348e-20
1.11731e-19
4.23945e-19
1.30208e-18
4.80717e-18
1.21981e-17
3.00086e-17
7.36058e-17
1.54444e-16
3.79774e-16
1.02914e-15
2.82865e-15
9.38151e-15
1.13194e-13
3.90131e-11
5.8487e-05
0.00120795
0.00364901
0.00292387
0.00400774
0.00781733
6.36488e-24
3.58954e-20
1.20778e-19
4.48129e-19
1.37772e-18
4.90662e-18
1.29286e-17
3.20397e-17
8.05106e-17
1.71764e-16
4.17863e-16
1.1174e-15
2.78539e-15
7.67062e-15
5.35854e-14
6.57525e-12
1.11749e-05
0.000884595
0.00145104
0.00275767
0.00416042
0.0078909
6.31935e-24
3.76916e-20
1.18533e-19
4.29309e-19
1.32534e-18
4.71347e-18
1.25131e-17
3.13258e-17
7.84914e-17
1.73667e-16
4.23737e-16
1.15394e-15
2.61078e-15
8.48036e-15
3.85477e-14
1.54356e-12
1.63032e-06
0.000615563
0.00108057
0.00267835
0.00432285
0.0079647
6.2853e-24
4.3883e-20
1.29778e-19
4.58314e-19
1.40269e-18
4.77926e-18
1.30906e-17
3.27938e-17
8.42955e-17
1.8752e-16
4.54151e-16
1.28462e-15
3.01961e-15
4.07517e-14
2.47523e-13
2.29842e-12
1.39869e-07
0.000433349
0.00105832
0.00266435
0.00446352
0.00803394
6.23513e-24
4.12881e-20
1.20539e-19
4.29189e-19
1.34272e-18
4.62201e-18
1.27502e-17
3.23923e-17
8.28923e-17
1.92683e-16
4.76936e-16
1.4455e-15
4.53313e-15
1.32992e-12
1.19108e-11
5.10513e-11
4.59267e-07
0.000396002
0.00112127
0.00272148
0.00459129
0.00809948
6.20022e-24
5.02639e-20
1.37796e-19
4.7577e-19
1.46015e-18
4.79242e-18
1.3593e-17
3.44531e-17
9.07016e-17
2.11124e-16
5.20841e-16
2.00004e-15
2.50282e-14
4.14865e-11
6.5872e-10
9.37909e-09
1.87623e-05
0.000409562
0.00130459
0.00291007
0.00473979
0.00816218
6.15046e-24
4.34523e-20
1.23172e-19
4.4016e-19
1.40816e-18
4.72275e-18
1.35121e-17
3.48444e-17
9.13187e-17
2.23848e-16
5.7251e-16
5.43588e-15
6.09797e-13
2.25407e-09
8.42274e-08
4.97553e-06
0.000194378
0.000464223
0.00176153
0.00329889
0.00493625
0.00822577
6.11766e-24
5.57043e-20
1.46131e-19
4.9968e-19
1.55413e-18
4.95863e-18
1.46117e-17
3.75703e-17
1.02074e-16
2.50949e-16
6.45357e-16
6.13496e-14
2.5911e-11
7.4238e-08
1.04267e-05
0.000153285
0.000787481
0.000819135
0.0027136
0.00396678
0.00521452
0.00829204
6.07082e-24
4.43498e-20
1.25436e-19
4.56634e-19
1.50755e-18
4.95361e-18
1.47474e-17
3.87251e-17
1.04878e-16
2.75124e-16
7.48631e-16
1.68196e-12
1.08336e-09
4.43357e-06
0.000189968
0.000603318
0.00163684
0.00152955
0.00444918
0.00499285
0.00558898
0.00836448
6.04163e-24
6.02604e-20
1.53435e-19
5.25912e-19
1.67273e-18
5.20595e-18
1.60251e-17
4.20346e-17
1.19296e-16
3.17378e-16
8.92101e-16
5.23082e-11
5.50837e-08
8.16644e-05
0.000705065
0.00162955
0.00348047
0.00299292
0.00737755
0.00647356
0.00607283
0.00844366
5.99624e-24
4.46293e-20
1.27737e-19
4.76948e-19
1.63371e-18
5.28096e-18
1.64023e-17
4.4065e-17
1.25501e-16
3.64638e-16
1.15863e-15
1.4566e-09
3.24584e-06
0.000341353
0.00150708
0.00353343
0.00706213
0.0058785
0.011911
0.00844663
0.00665375
0.00853143
5.97061e-24
6.41498e-20
1.60451e-19
5.53815e-19
1.81498e-18
5.54195e-18
1.79086e-17
4.82222e-17
1.46707e-16
4.44741e-16
1.69461e-15
3.52074e-08
7.23208e-05
0.00104271
0.00358834
0.00757675
0.0137556
0.0111011
0.0181791
0.0108867
0.00732076
0.00862633
5.92666e-24
4.43258e-20
1.29671e-19
4.9932e-19
1.78322e-18
5.69194e-18
1.85326e-17
5.13841e-17
1.59855e-16
5.59171e-16
3.60147e-15
7.96187e-07
0.000341255
0.00261308
0.00771892
0.0147968
0.0247322
0.0194219
0.0258669
0.0136602
0.00803956
0.00872852
5.90426e-24
6.75163e-20
1.66656e-19
5.82629e-19
1.97802e-18
5.94018e-18
2.02693e-17
5.67832e-17
1.96061e-16
7.78739e-16
1.65177e-14
1.51766e-05
0.00108792
0.00597523
0.0149909
0.0260585
0.0404598
0.0308933
0.0342126
0.0166043
0.00878845
0.00883515
5.8606e-24
4.39595e-20
1.31999e-19
5.24815e-19
1.95783e-18
6.18561e-18
2.12024e-17
6.16799e-17
2.28174e-16
1.21632e-15
3.0217e-13
0.000136693
0.0026305
0.0119855
0.0261877
0.0415752
0.0602786
0.0444868
0.0422993
0.0195161
0.00952928
0.00894576
5.84149e-24
7.05411e-20
1.73506e-19
6.15132e-19
2.17064e-18
6.43963e-18
2.33111e-17
6.93794e-17
3.08242e-16
2.30505e-15
1.26029e-11
0.000513726
0.00583674
0.0213482
0.0412218
0.0607627
0.0822142
0.0582938
0.0493322
0.0222573
0.0102466
0.00905718
5.79756e-24
4.35029e-20
1.34495e-19
5.53151e-19
2.16072e-18
6.77173e-18
2.46189e-17
7.72316e-17
4.08482e-16
5.44587e-15
5.48e-10
0.00128738
0.0114203
0.0343257
0.0596244
0.0820826
0.103304
0.070207
0.0549211
0.0247072
0.0109124
0.00916919
5.78117e-24
7.3265e-20
1.80291e-19
6.49149e-19
2.38807e-18
7.01182e-18
2.71833e-17
8.90734e-17
6.61756e-16
1.6924e-14
4.40818e-08
0.00304723
0.0200539
0.0502565
0.0798624
0.103334
0.120426
0.0788141
0.0590435
0.0268375
0.0115265
0.00927899
5.73667e-24
4.30542e-20
1.36874e-19
5.82424e-19
2.38697e-18
7.43839e-18
2.90084e-17
1.0232e-16
1.08048e-15
7.52756e-14
8.53506e-06
0.00630354
0.0317607
0.0682796
0.100354
0.122012
0.131273
0.0838356
0.0619887
0.0286223
0.0120748
0.00938714
5.72357e-24
7.5731e-20
1.86807e-19
6.83201e-19
2.62936e-18
7.67329e-18
3.23053e-17
1.2225e-16
2.19387e-15
7.80237e-13
0.000165413
0.0117992
0.0459683
0.0869039
0.118906
0.136067
0.13512
0.0860419
0.0641119
0.0301022
0.0125711
0.00949146
5.67825e-24
4.24354e-20
1.38576e-19
6.10952e-19
2.63524e-18
8.19364e-18
3.49414e-17
1.4647e-16
4.34041e-15
1.34066e-11
0.000634844
0.019898
0.0616832
0.104954
0.134021
0.144328
0.132946
0.0866362
0.0657604
0.0312933
0.0130131
0.00959327
5.66784e-24
7.80246e-20
1.92476e-19
7.15509e-19
2.88999e-18
8.41864e-18
3.94349e-17
1.8359e-16
1.02763e-14
1.6611e-10
0.00162926
0.030449
0.077781
0.120993
0.144375
0.146869
0.126898
0.086687
0.0671523
0.0322598
0.0134263
0.00969106
5.62197e-24
4.19657e-20
1.39797e-19
6.38034e-19
2.90276e-18
9.03807e-18
4.35035e-17
2.31504e-16
2.24217e-14
1.55806e-09
0.00363973
0.042912
0.0932378
0.134209
0.149888
0.144745
0.119348
0.0867901
0.0684304
0.0330342
0.0138181
0.00978684
5.61509e-24
8.02775e-20
1.97585e-19
7.45846e-19
3.17134e-18
9.26777e-18
5.02668e-17
3.06441e-16
5.64436e-14
1.37794e-08
0.00712356
0.0563598
0.107249
0.143886
0.150937
0.139628
0.112116
0.0871309
0.0696417
0.0336939
0.0142227
0.00987966
5.56744e-24
4.17936e-20
1.4077e-19
6.63906e-19
3.19223e-18
9.99308e-18
5.71559e-17
4.08485e-16
1.3049e-13
3.18845e-07
0.0124224
0.0699597
0.119249
0.150079
0.148743
0.133165
0.106135
0.0876459
0.0708099
0.0342849
0.0146539
0.00997203
5.56306e-24
8.24864e-20
2.02104e-19
7.7405e-19
3.47306e-18
1.02328e-17
6.84639e-17
5.73387e-16
3.92564e-13
1.86719e-05
0.0194416
0.0828972
0.12892
0.152997
0.144422
0.12665
0.101608
0.0882093
0.0719181
0.0348898
0.015149
0.0100634
5.51427e-24
4.18613e-20
1.41229e-19
6.87566e-19
3.50177e-18
1.10697e-17
8.13346e-17
8.10448e-16
1.83009e-12
0.000209294
0.0278692
0.094672
0.136163
0.15336
0.13919
0.120817
0.0983359
0.0887047
0.0729556
0.0355505
0.0157208
0.0101564
5.51326e-24
8.46783e-20
2.05805e-19
7.99253e-19
3.79645e-18
1.13448e-17
1.02519e-16
1.20446e-15
1.28022e-11
0.00068998
0.0371164
0.1049
0.14108
0.151784
0.133769
0.115963
0.0959955
0.0890665
0.0738932
0.0363298
0.0163996
0.0102507
5.46221e-24
4.20365e-20
1.40974e-19
7.08463e-19
3.83391e-18
1.23056e-17
1.28838e-16
1.79589e-15
7.40975e-11
0.00136693
0.0467029
0.113429
0.143915
0.14903
0.128722
0.112078
0.0942915
0.0892638
0.0747147
0.0372395
0.017185
0.0103488
5.46323e-24
8.68095e-20
2.08986e-19
8.21841e-19
4.14343e-18
1.26539e-17
1.72488e-16
2.80975e-15
3.56419e-10
0.00233203
0.0561242
0.120177
0.145008
0.145576
0.124214
0.109025
0.0930029
0.0892982
0.075392
0.0383017
0.0180903
0.01045
5.41113e-24
4.22487e-20
1.39908e-19
7.26662e-19
4.1912e-18
1.37427e-17
2.30154e-16
4.39e-15
1.38694e-09
0.00367222
0.0650648
0.12522
0.144723
0.141889
0.120348
0.106625
0.0919818
0.0891825
0.0759106
0.0394881
0.019094
0.0105565
5.41524e-24
8.89213e-20
2.11422e-19
8.42423e-19
4.5229e-18
1.41941e-17
3.26419e-16
7.08401e-15
4.74628e-09
0.00550382
0.073227
0.128666
0.143416
0.138174
0.11704
0.104715
0.0911369
0.0889403
0.0762463
0.0407864
0.020188
0.010667
5.35967e-24
4.22813e-20
1.37818e-19
7.42937e-19
4.58536e-18
1.54552e-17
4.58302e-16
1.12969e-14
1.44508e-08
0.00791434
0.0804927
0.13072
0.141397
0.134635
0.114245
0.103162
0.0904151
0.0885935
0.0763877
0.042147
0.0213312
0.0107831
5.36572e-24
8.84607e-20
2.10347e-19
8.57277e-19
4.93687e-18
1.60489e-17
6.78025e-16
1.85084e-14
4.27936e-08
0.010978
0.0867813
0.131582
0.138925
0.131304
0.111842
0.101867
0.0897883
0.0881676
0.0763153
0.0435514
0.0225026
0.0109032
5.30612e-24
4.14887e-20
1.32585e-19
7.51687e-19
5.01063e-18
1.74646e-17
9.80586e-16
2.99219e-14
2.19443e-07
0.0148115
0.0921658
0.131494
0.136197
0.128255
0.109778
0.100757
0.0892438
0.0876837
0.0760224
0.0449619
0.0236544
0.0110282
5.31255e-24
8.52666e-20
2.03834e-19
8.62111e-19
5.3814e-18
1.81878e-17
1.47481e-15
5.74632e-14
1.11239e-05
0.0195854
0.0967368
0.130663
0.133364
0.125453
0.107962
0.0997869
0.0887785
0.0871653
0.0754963
0.0463871
0.0247679
0.0111563
5.24619e-24
4.16179e-20
1.27335e-19
7.5777e-19
5.48327e-18
1.98595e-17
2.14263e-15
4.65091e-13
0.000187673
0.025608
0.100672
0.129305
0.130531
0.12293
0.106366
0.0989231
0.0883957
0.0866323
0.0747391
0.0478261
0.0258062
0.0112883
5.24951e-24
5.37923e-20
1.5473e-19
7.99533e-19
5.76925e-18
2.06407e-17
3.20181e-15
2.31305e-11
0.00123001
0.0332698
0.104108
0.127588
0.127771
0.120643
0.10493
0.0981507
0.0881029
0.0861066
0.0737508
0.0493264
0.0267732
0.011422
5.17279e-24
4.32839e-20
1.14483e-19
7.24354e-19
5.94112e-18
2.35482e-17
4.66336e-15
1.03288e-09
0.00461709
0.0428207
0.107184
0.125676
0.125127
0.118623
0.103655
0.0974612
0.0879099
0.0856054
0.0725501
0.0509142
0.0276614
0.0115584
5.16609e-24
1.93961e-21
1.12099e-20
4.0068e-19
5.44958e-18
2.44405e-17
7.208e-15
1.82771e-07
0.012113
0.054199
0.109944
0.123683
0.12262
0.11684
0.102506
0.0968587
0.0878278
0.0851459
0.0711581
0.0526299
0.02851
0.0116955
5.078e-24
1.7118e-20
4.4778e-20
4.17436e-19
5.4631e-18
3.62137e-17
1.80093e-14
4.55221e-05
0.0251377
0.0671481
0.112406
0.121725
0.120251
0.115338
0.101507
0.0963494
0.0878662
0.0847357
0.06962
0.0544218
0.0293339
0.0118345
5.03915e-24
6.7206e-22
8.45987e-23
2.35267e-19
5.0669e-18
8.28287e-17
3.70835e-13
0.000914085
0.0446098
0.0812738
0.114494
0.119876
0.118002
0.11409
0.100635
0.0959528
0.0880336
0.0843776
0.0679865
0.0561262
0.0301344
0.011976
4.83851e-24
2.10349e-19
4.58198e-19
1.02967e-18
7.26152e-18
9.13695e-16
7.18234e-12
0.00539017
0.0708527
0.0963727
0.116308
0.11827
0.115859
0.11314
0.0999145
0.0956764
0.0883243
0.0840181
0.0663217
0.0573204
0.0306077
0.0121338
0.00987657
0.0182415
0.0196823
0.00756218
0.00663187
0.00680012
0.00697822
0.00718035
0.00716973
0.00751174
0.009971
0.00883086
0.00792681
0.00783526
0.00936483
0.0117262
0.013683
0.015008
0.0150994
0.0132974
0.0120872
0.0122297
0.0126046
0.0128217
0.0132534
0.0168256
0.0541943
0.103917
0.11628
0.113536
0.107339
0.10387
0.10445
0.114664
0.132641
0.00986353
0.0184831
0.0189407
0.00721404
0.00644328
0.00661956
0.00693344
0.00715807
0.00709941
0.0074732
0.00974532
0.00854779
0.00760232
0.00742251
0.00886868
0.0113401
0.01358
0.0151058
0.0152685
0.0133026
0.0119111
0.0120039
0.0124026
0.0126628
0.0130919
0.0163775
0.053437
0.103679
0.116191
0.11343
0.107265
0.103809
0.104422
0.114637
0.132628
0.00983842
0.0186427
0.0176663
0.00662698
0.00620131
0.00636835
0.00691716
0.00717328
0.00704939
0.00744904
0.00899595
0.00774949
0.00687118
0.00649665
0.00749533
0.00961178
0.0118002
0.0134191
0.0139807
0.0125142
0.0113704
0.0115168
0.0119928
0.0123776
0.0128985
0.0160435
0.0523986
0.103168
0.115952
0.113161
0.107067
0.103638
0.10432
0.114537
0.132559
0.00979929
0.0187239
0.016052
0.00601267
0.00597684
0.0061381
0.00692875
0.0071595
0.0070061
0.00743768
0.00817742
0.00687678
0.00603528
0.00551487
0.00607359
0.00769682
0.00960871
0.0111244
0.0120029
0.0112547
0.010544
0.0107808
0.0113516
0.0119114
0.0125908
0.0156949
0.0510133
0.102377
0.115566
0.112731
0.106744
0.103356
0.104146
0.114365
0.132432
0.00974597
0.018663
0.0142407
0.00541231
0.00573776
0.00589832
0.00689395
0.00705329
0.00690157
0.00736667
0.00745732
0.00611399
0.00530007
0.00471732
0.00492656
0.00606317
0.0076262
0.00892643
0.00991578
0.00979714
0.00951975
0.00983361
0.0104806
0.0112293
0.0121069
0.0152387
0.0492362
0.101315
0.11505
0.112156
0.10631
0.102976
0.103909
0.114132
0.132259
0.00967615
0.0184089
0.0123578
0.00483738
0.0054686
0.00562273
0.00676087
0.00682604
0.00668625
0.00716348
0.00681464
0.00545965
0.00467434
0.00409891
0.00407111
0.00478178
0.00600479
0.00709036
0.0080377
0.00833237
0.00838329
0.00873237
0.0094102
0.0103215
0.0114071
0.0146103
0.0470433
0.0999994
0.11443
0.111462
0.105785
0.102517
0.103626
0.113856
0.132059
0.00959042
0.0179344
0.0105209
0.004316
0.00518928
0.00532086
0.00652402
0.00648637
0.00635083
0.00680119
0.00618457
0.00485037
0.00409667
0.00358796
0.00343961
0.00380239
0.00469825
0.00560841
0.0064597
0.00695986
0.00720565
0.00754486
0.00819723
0.00920924
0.0104785
0.0137697
0.0444319
0.0984522
0.113741
0.110678
0.105195
0.102004
0.103319
0.11356
0.131855
0.00948687
0.0172242
0.00882839
0.00388284
0.00493698
0.00502444
0.00621368
0.00606841
0.005919
0.00629789
0.00552846
0.00424474
0.00353227
0.0031415
0.00297958
0.00308644
0.0036551
0.00438904
0.00514058
0.00570777
0.00604021
0.00633939
0.00691783
0.0079469
0.00934077
0.0126999
0.0414219
0.0966965
0.113017
0.10984
0.104569
0.101464
0.103013
0.113272
0.131674
0.00936733
0.016289
0.00734505
0.00356108
0.00474654
0.00476997
0.005876
0.00561726
0.00543231
0.00569811
0.00484793
0.0036407
0.0029918
0.0027497
0.0026563
0.00261086
0.002874
0.00338727
0.00401913
0.00457593
0.00492882
0.00517894
0.00565623
0.00661834
0.00804977
0.0114092
0.0380579
0.0947546
0.112296
0.108984
0.103935
0.100926
0.102734
0.11302
0.131543
0.0092307
0.0151485
0.00609913
0.00335536
0.00464161
0.00458842
0.00555884
0.00517932
0.00493841
0.00505706
0.0041698
0.00306378
0.00250953
0.00241472
0.00243316
0.00233374
0.00235622
0.00262024
0.00308425
0.0035763
0.00391342
0.00412028
0.00449381
0.00532588
0.00669677
0.00993747
0.0344142
0.0926476
0.111613
0.108146
0.103324
0.100421
0.102508
0.112832
0.131492
0.00908003
0.0138439
0.00508804
0.00325625
0.00463391
0.00450156
0.00530368
0.00479584
0.00448366
0.00443122
0.00353325
0.00255003
0.00211784
0.00213782
0.0022706
0.00219149
0.0020639
0.00210622
0.00237085
0.00274986
0.00304391
0.00321617
0.00350136
0.0041738
0.00539804
0.00836367
0.0305984
0.0903969
0.111001
0.107357
0.102764
0.0999768
0.102361
0.112738
0.13155
0.00891508
0.0124209
0.00429343
0.00324927
0.00472717
0.0045219
0.00514267
0.00450007
0.00410776
0.00387149
0.00297775
0.00213458
0.00183219
0.00191638
0.00213362
0.00211489
0.00192405
0.00181366
0.00189988
0.0021428
0.0023707
0.00251191
0.00273204
0.00324934
0.00427391
0.00680686
0.026755
0.0880289
0.110489
0.106649
0.102282
0.0996216
0.102319
0.112766
0.131744
0.00874002
0.0109412
0.00369201
0.0033227
0.00492211
0.00465464
0.00509797
0.00431597
0.00384032
0.00341932
0.0025365
0.00183706
0.00164546
0.00174555
0.00200144
0.00204962
0.00185895
0.0016709
0.00163708
0.00176249
0.00191832
0.00203032
0.00220987
0.00260312
0.00341934
0.00541119
0.023062
0.0855825
0.1101
0.106048
0.101903
0.0993809
0.102405
0.112944
0.132101
0.00855535
0.00946629
0.00326501
0.00347158
0.00522122
0.00490075
0.00518288
0.0042583
0.00369836
0.00310197
0.00222846
0.00165975
0.0015359
0.00161951
0.00186945
0.00196638
0.00180981
0.0016026
0.00151069
0.00156277
0.00166406
0.00175545
0.00191891
0.00223484
0.00287584
0.00430868
0.0197142
0.0831185
0.109856
0.105576
0.101647
0.0992779
0.102642
0.113296
0.132646
0.00836592
0.0080638
0.00300323
0.0036986
0.00563224
0.00526096
0.00540306
0.00433516
0.00368798
0.00293101
0.00205918
0.00158341
0.00147922
0.0015305
0.00174495
0.00186193
0.00174792
0.00155622
0.001452
0.00147536
0.00155185
0.00163982
0.00181161
0.00209941
0.00262267
0.00357308
0.0168884
0.0807269
0.109774
0.105251
0.101532
0.0993333
0.103049
0.113847
0.133402
0.00817267
0.00679138
0.00290695
0.00401389
0.00616981
0.00574162
0.00576221
0.00454808
0.00380865
0.00290468
0.00202033
0.00158413
0.00145631
0.00146882
0.00163757
0.00174925
0.00167036
0.00150829
0.00141758
0.00144424
0.0015248
0.00163046
0.00183365
0.00213422
0.0025977
0.00319843
0.0146934
0.0785249
0.109868
0.105088
0.101575
0.0995655
0.103645
0.114618
0.134389
0.00798033
0.00569794
0.00298355
0.00443502
0.00685617
0.00636163
0.00626648
0.00489687
0.00405705
0.00301549
0.00209676
0.00164062
0.00145358
0.00142381
0.00155213
0.00164554
0.00158886
0.00145706
0.0013903
0.00143842
0.00154458
0.00168791
0.00194219
0.00228296
0.00272948
0.00312126
0.0131408
0.0766435
0.110149
0.105097
0.101786
0.0999905
0.104444
0.11563
0.135627
0.00778933
0.00481716
0.00324743
0.00498856
0.00772457
0.00715255
0.00692945
0.00538466
0.00442921
0.00325316
0.00227157
0.00174087
0.00146492
0.00138721
0.00148625
0.0015616
0.00151666
0.00140971
0.00136882
0.00144738
0.00159341
0.00179045
0.0021102
0.00250442
0.00295812
0.00326138
0.0121689
0.0752048
0.110629
0.105287
0.102178
0.100623
0.105463
0.116901
0.137132
0.00760307
0.0041638
0.00372213
0.00571124
0.00881883
0.00816086
0.00777594
0.0060235
0.00492527
0.00360953
0.00253368
0.00187751
0.00148867
0.00135488
0.00143398
0.0014998
0.00146192
0.00137347
0.001357
0.00147117
0.00166714
0.00192979
0.00232307
0.00277178
0.00324247
0.00355029
0.0116955
0.0743041
0.111314
0.105664
0.102757
0.101474
0.106712
0.118449
0.13892
0.00742066
0.00372972
0.00444778
0.00664926
0.0101934
0.00944638
0.00884216
0.00683648
0.00555209
0.00408054
0.00287869
0.00205171
0.00152858
0.00132801
0.00139019
0.00145655
0.00142623
0.0013519
0.00135816
0.00151262
0.0017676
0.00210453
0.00257312
0.00306864
0.003559
0.00394194
0.0116539
0.0740001
0.112209
0.106231
0.103531
0.102556
0.108206
0.12029
0.141005
0.00724378
0.00348522
0.00549488
0.00785674
0.011911
0.0110776
0.010173
0.00785733
0.00632527
0.0046695
0.00331222
0.0022684
0.0015911
0.00131145
0.00135382
0.00142797
0.00140831
0.00134602
0.00137394
0.00157417
0.00189766
0.00231504
0.00285516
0.00338518
0.00389745
0.00441228
0.0120009
0.0743147
0.113319
0.106992
0.104505
0.103879
0.109953
0.12244
0.143399
0.00707145
0.00338678
0.00697095
0.00939972
0.0140433
0.013127
0.0118173
0.00912495
0.00726568
0.00538508
0.00384553
0.00254064
0.00168789
0.00131357
0.00132787
0.00141261
0.00140672
0.00135598
0.00140511
0.001657
0.00205913
0.00256054
0.00316408
0.00371575
0.00425642
0.00495388
0.0127121
0.0752382
0.114644
0.107949
0.105684
0.105453
0.111965
0.124913
0.146113
0.00690537
0.00341009
0.0090015
0.0113675
0.0166759
0.0156727
0.0138269
0.0106784
0.00839638
0.00623778
0.00449089
0.00288114
0.00183302
0.00134587
0.00131881
0.0014128
0.00142248
0.00138315
0.0014528
0.00176145
0.00225188
0.00283806
0.00349432
0.0040575
0.00463987
0.00557016
0.0137762
0.0767385
0.116185
0.109102
0.107072
0.107287
0.114251
0.127724
0.149159
0.00674534
0.00353603
0.0117249
0.013889
0.0199197
0.0188054
0.0162582
0.0125519
0.00973519
0.00723123
0.00524908
0.00330099
0.00204261
0.00142494
0.00133619
0.00143339
0.00145853
0.00143037
0.00151923
0.00188715
0.00247377
0.00314243
0.0038402
0.00440985
0.00505488
0.0062709
0.0151911
0.0787698
0.11794
0.110453
0.108672
0.109389
0.116821
0.130888
0.152544
0.00659312
0.00375605
0.0152664
0.0171457
0.0239162
0.0226305
0.019171
0.0147708
0.0112892
0.00835847
0.00610135
0.00379488
0.00232549
0.00157107
0.00139426
0.00148212
0.00152006
0.00150241
0.00160848
0.00203377
0.00272082
0.00346722
0.00419687
0.00477415
0.00551011
0.00706953
0.0169604
0.0812811
0.119908
0.112002
0.110488
0.111769
0.119683
0.134417
0.156279
0.00644962
0.00408096
0.019713
0.0213724
0.0288277
0.0272488
0.0226123
0.0173382
0.013043
0.00958753
0.00700314
0.00434148
0.00267885
0.00180342
0.00151296
0.00156964
0.0016136
0.00160553
0.00172686
0.00220152
0.00298785
0.00380568
0.00456096
0.00515343
0.00601506
0.00798155
0.0190919
0.0842224
0.122086
0.11375
0.112522
0.114435
0.122846
0.138326
0.160369
0.00631698
0.00454695
0.0250955
0.0268342
0.0348026
0.0327094
0.0265807
0.0202133
0.0149465
0.0108601
0.00788931
0.00489951
0.00308297
0.00212863
0.00171606
0.00171138
0.00174833
0.00174807
0.00188335
0.00239264
0.00326957
0.00415212
0.00493118
0.00555197
0.00657949
0.00902388
0.0215961
0.0875482
0.124471
0.115696
0.114777
0.117394
0.126318
0.142628
0.164822
0.00619775
0.00522302
0.0314092
0.0337875
0.0419227
0.0389465
0.0309806
0.0232848
0.0169015
0.0120896
0.00868274
0.00542305
0.00351043
0.00253519
0.0020215
0.00192547
0.00193554
0.0019401
0.00208948
0.0026124
0.00356208
0.00450277
0.00530833
0.00597499
0.00721329
0.0102146
0.0244849
0.0912196
0.127061
0.117841
0.117255
0.120656
0.130106
0.147335
0.16964
0.00609509
0.00620162
0.0386617
0.0424378
0.0501488
0.0457289
0.0355893
0.0263583
0.0187623
0.0131704
0.00930871
0.00586591
0.00393071
0.00299685
0.00242959
0.00222811
0.00218852
0.00219359
0.00235888
0.0028704
0.00386431
0.00485669
0.00569521
0.00642819
0.0079263
0.0115734
0.0277709
0.0952047
0.129852
0.120184
0.119956
0.124226
0.134218
0.152459
0.174829
0.00601408
0.00758201
0.0469273
0.0528892
0.0592684
0.0526417
0.040054
0.0291655
0.0203473
0.0139904
0.00970477
0.00619439
0.00431901
0.00348295
0.00291808
0.00262251
0.00251714
0.00251969
0.00270529
0.00318025
0.00417941
0.00521593
0.00609619
0.0069174
0.00872839
0.0131213
0.0314669
0.0994785
0.132842
0.122721
0.122882
0.128113
0.13866
0.158013
0.180389
0.00596079
0.00944171
0.0563402
0.065045
0.068838
0.0591007
0.0439239
0.0313961
0.021467
0.0144493
0.00982879
0.00638362
0.00465361
0.00396349
0.00345059
0.00309338
0.00292264
0.0029252
0.00313925
0.00355865
0.00451546
0.0055858
0.00651682
0.00744814
0.00962948
0.0148818
0.0355852
0.104022
0.136027
0.125451
0.126034
0.132322
0.14344
0.164008
0.186324
0.00594609
0.0118322
0.0670263
0.0784464
0.0781367
0.0644048
0.0467129
0.032747
0.0219552
0.0144729
0.00966083
0.00642301
0.00491916
0.00441146
0.00398565
0.0036067
0.00339067
0.00340588
0.00366235
0.00402149
0.00488558
0.00597429
0.00696317
0.00802528
0.0106397
0.0168807
0.040137
0.10882
0.139403
0.12837
0.129412
0.136861
0.148566
0.170458
0.192634
0.00598322
0.0147841
0.0789403
0.0921184
0.0861837
0.0678374
0.0479861
0.0329792
0.0217006
0.0140265
0.00920566
0.00631122
0.00510344
0.00480303
0.00448542
0.00412093
0.00389315
0.00394354
0.0042621
0.00457914
0.0053069
0.00639182
0.00744134
0.00865253
0.0117694
0.0191462
0.045132
0.113861
0.142965
0.131474
0.133018
0.141738
0.154044
0.177378
0.199322
0.00609167
0.018338
0.0916973
0.10459
0.0918866
0.0688186
0.0474583
0.0319716
0.0206707
0.013121
0.0084937
0.00606332
0.00520309
0.00512006
0.00491835
0.00459488
0.00439227
0.00450566
0.00490911
0.00522862
0.00579817
0.00684992
0.00795662
0.00933202
0.0130293
0.0217094
0.0505776
0.119137
0.146709
0.134757
0.136853
0.146961
0.159888
0.184786
0.206394
0.00628805
0.0225394
0.10447
0.114192
0.0943088
0.067063
0.0450709
0.0297549
0.0189216
0.0118152
0.00758322
0.0057076
0.00522232
0.00535276
0.00526444
0.00499831
0.00485192
0.00505346
0.00556171
0.00594968
0.0063753
0.00736011
0.00851271
0.0100637
0.0144303
0.0246036
0.0564788
0.124641
0.15063
0.138217
0.140923
0.152545
0.16611
0.192705
0.213857
0.00658505
0.0274476
0.116134
0.11956
0.0929531
0.0626764
0.0410185
0.0265125
0.0165913
0.0102105
0.00655849
0.0052887
0.00517692
0.00550167
0.00551486
0.00531277
0.00524306
0.00554923
0.00617434
0.00670341
0.00704503
0.00793109
0.00911066
0.010845
0.0159836
0.0278637
0.0628381
0.130367
0.154724
0.14185
0.145236
0.158508
0.172732
0.201167
0.221725
0.00697682
0.0330639
0.125538
0.120038
0.0879075
0.0561308
0.0357034
0.0225424
0.0138775
0.00844351
0.00552263
0.00485639
0.00508814
0.00557666
0.0056738
0.00553525
0.00555095
0.00596657
0.00670978
0.00744195
0.00779839
0.008566
0.0097478
0.0116703
0.0177005
0.0315265
0.0696561
0.136313
0.158989
0.145657
0.149806
0.164875
0.17978
0.210212
0.23002
0.00744499
0.039275
0.131762
0.115769
0.0797819
0.0481332
0.0296407
0.0181994
0.0110122
0.00667538
0.00457987
0.00445887
0.00498048
0.00559284
0.00575248
0.00567225
0.00577253
0.00629217
0.00714521
0.00811791
0.00860691
0.00925822
0.0104167
0.012531
0.019593
0.0356295
0.0769332
0.142481
0.163427
0.149646
0.154652
0.171682
0.18729
0.219892
0.238773
0.00795396
0.0456279
0.134146
0.107461
0.0694851
0.0394468
0.0233534
0.0138457
0.008244
0.00507961
0.00381009
0.0041288
0.00487202
0.00556526
0.00576699
0.00573914
0.00591746
0.00652869
0.00747691
0.00869847
0.00942545
0.00998932
0.011105
0.0134166
0.0216738
0.0402118
0.0846729
0.148881
0.168042
0.153828
0.159804
0.178977
0.195305
0.230272
0.248024
0.00846726
0.0512538
0.132235
0.0960665
0.057977
0.0307507
0.0173087
0.00983186
0.00582771
0.00380807
0.00324739
0.00388137
0.00477261
0.0055032
0.00573003
0.0057517
0.00600079
0.00668886
0.00771572
0.00916724
0.0102006
0.0107283
0.0117957
0.0143154
0.0239581
0.0453145
0.0928854
0.155532
0.172849
0.158226
0.165297
0.186819
0.203882
0.241431
0.257825
0.00894498
0.0548134
0.125701
0.0825369
0.0460999
0.0225768
0.0119066
0.00648977
0.00398304
0.00293295
0.00287991
0.00371063
0.00467826
0.00540724
0.00564977
0.00572571
0.00604258
0.00679436
0.0078848
0.00952838
0.0108833
0.0114363
0.0124693
0.0152171
0.0264649
0.0509835
0.101593
0.162465
0.177868
0.162871
0.171177
0.195279
0.213086
0.253462
0.268238
0.0093615
0.0549521
0.11442
0.0677654
0.0345425
0.0153354
0.0074998
0.00407587
0.00279256
0.0024137
0.00266625
0.00359577
0.00457452
0.00526759
0.00552467
0.00567009
0.00606098
0.0068688
0.00801172
0.00979828
0.0114385
0.0120733
0.0131067
0.0161151
0.0292198
0.0572716
0.110834
0.169727
0.183129
0.167806
0.1775
0.20444
0.22299
0.266469
0.279336
0.0096768
0.0505368
0.098507
0.0526157
0.0239125
0.00939078
0.0043619
0.00262008
0.00213734
0.00213937
0.00255041
0.00350367
0.00443693
0.0050681
0.00534807
0.00558903
0.00607404
0.00693881
0.00812805
0.0100057
0.0118528
0.0126081
0.0136925
0.0170078
0.0322578
0.0642427
0.120668
0.177378
0.188671
0.17308
0.184324
0.214392
0.233675
0.280563
0.291195
0.00988074
0.0415307
0.0786173
0.0379139
0.0147851
0.00505525
0.00249961
0.00185102
0.00178426
0.00197471
0.00245854
0.00338585
0.00422786
0.00478334
0.00510276
0.00547108
0.0060877
0.00702312
0.00826196
0.0101829
0.0121344
0.0130226
0.0142174
0.0178997
0.0356252
0.0719744
0.131179
0.185494
0.194539
0.178748
0.191713
0.225227
0.245224
0.29586
0.303898
4.88275e-24
3.15709e-19
1.14483e-18
4.32818e-18
2.51169e-17
3.17083e-14
9.07727e-11
0.0196238
0.0954291
0.108011
0.117398
0.117266
0.114334
0.112669
0.0995098
0.0956165
0.0886904
0.0836369
0.0650787
0.0575998
0.0302196
0.0121475
4.99657e-24
7.39861e-20
8.36565e-20
6.26381e-18
6.27328e-17
2.47512e-13
9.30053e-10
0.0368535
0.112115
0.115032
0.117743
0.116651
0.113451
0.112552
0.0994394
0.095732
0.0891189
0.0834
0.0644685
0.05744
0.0297838
0.0121993
5.10256e-24
2.76632e-19
8.78025e-19
8.90621e-18
1.22458e-16
9.31699e-13
9.36018e-09
0.0573561
0.12705
0.120818
0.11787
0.116146
0.112772
0.112607
0.0995569
0.0959889
0.0896956
0.0832222
0.0641756
0.0569088
0.0292474
0.0123599
5.06239e-24
5.72587e-20
2.14752e-20
6.84913e-18
1.92279e-16
2.28009e-12
1.69635e-07
0.078991
0.139999
0.125566
0.118019
0.115817
0.112338
0.112866
0.0998869
0.0963732
0.0903928
0.083109
0.0641881
0.056036
0.0286446
0.0126191
5.16612e-24
2.21281e-19
6.31987e-19
7.22571e-18
2.87897e-16
3.60562e-12
6.5324e-06
0.098476
0.15097
0.129472
0.118358
0.11571
0.112185
0.113315
0.100413
0.0968767
0.09118
0.083061
0.0644743
0.0548901
0.028021
0.0129681
5.1144e-24
4.59216e-20
1.20644e-20
4.61285e-18
4.09325e-16
4.8637e-12
1.85548e-05
0.112217
0.160056
0.132749
0.119026
0.11588
0.112346
0.11399
0.101163
0.0974906
0.0920257
0.0830746
0.0649996
0.053527
0.0273866
0.0134241
5.22957e-24
1.78666e-19
4.73184e-19
4.63336e-18
5.79614e-16
5.05135e-12
3.4279e-05
0.118473
0.167417
0.135567
0.120101
0.116361
0.112847
0.114883
0.102122
0.0982173
0.0929012
0.0831468
0.0657125
0.0520274
0.0267672
0.0140006
5.17053e-24
3.80388e-20
7.87882e-21
2.7785e-18
7.71396e-16
4.3686e-12
2.56406e-05
0.11773
0.173174
0.138083
0.121646
0.117196
0.113709
0.116033
0.103321
0.0990596
0.0937833
0.0832693
0.0665671
0.0504461
0.0261603
0.0147154
5.29821e-24
1.46639e-19
3.69416e-19
2.85935e-18
9.84693e-16
2.87492e-12
2.72525e-05
0.111792
0.177422
0.140398
0.123677
0.118408
0.114948
0.117431
0.10475
0.100033
0.0946584
0.0834361
0.067507
0.0488555
0.0255852
0.0155722
5.22381e-24
3.24401e-20
5.88638e-21
1.68606e-18
1.14678e-15
1.68629e-12
3.51059e-05
0.102345
0.180154
0.142584
0.126207
0.120027
0.116575
0.119116
0.106442
0.101152
0.0955242
0.0836374
0.0684907
0.0472962
0.0250329
0.0165743
5.35795e-24
1.21915e-19
2.97286e-19
1.841e-18
1.25082e-15
8.50985e-13
3.99408e-05
0.0904556
0.181292
0.144647
0.129213
0.122066
0.118598
0.121076
0.108388
0.102443
0.0963919
0.0838687
0.0694704
0.045825
0.0245187
0.0177073
5.27141e-24
2.84266e-20
4.69107e-21
1.0801e-18
1.23776e-15
4.159e-13
4.09295e-05
0.0771026
0.180642
0.14656
0.132671
0.124546
0.121022
0.123346
0.110622
0.103928
0.097284
0.0841242
0.0704196
0.0444653
0.0240293
0.0189555
5.41236e-24
1.02852e-19
2.48064e-19
1.26205e-18
1.14699e-15
1.89043e-13
3.47885e-05
0.0630997
0.17795
0.148221
0.136515
0.127474