/*--------------------------------*- C++ -*----------------------------------*\
| =========                 |                                                 |
| \\      /  F ield         | OpenFOAM: The Open Source CFD Toolbox           |
|  \\    /   O peration     | Version:  v1912                                 |
|   \\  /    A nd           | Website:  www.openfoam.com                      |
|    \\/     M anipulation  |                                                 |
\*---------------------------------------------------------------------------*/
FoamFile
{
    version     2.0;
    format      ascii;
    class       volScalarField;
    location    "210";
    object      p;
}
// * * * * * * * * * * * * * * * * * * * * * * * * * * * * * * * * * * * * * //

dimensions      [0 2 -2 0 0 0 0];


internalField   nonuniform List<scalar> 
12441
(
8.40405
8.69351
9.52257
10.8127
12.478
14.5823
17.226
20.5096
24.6047
29.6744
35.9763
43.8327
53.6408
65.0332
81.0101
100.708
128.523
162.94
218.689
280.712
372.326
437.283
8.40404
8.6935
9.52256
10.8127
12.4779
14.5822
17.2259
20.5095
24.6046
29.6741
35.9759
43.8321
53.6398
65.0315
81.0071
100.701
128.508
162.916
218.606
280.636
372.275
437.081
8.40403
8.69348
9.52253
10.8126
12.4779
14.5821
17.2258
20.5093
24.6043
29.6737
35.9752
43.8309
53.6379
65.028
81.0011
100.688
128.484
162.86
218.435
280.453
372.138
436.716
8.40401
8.69346
9.5225
10.8126
12.4778
14.582
17.2256
20.509
24.6038
29.6729
35.9741
43.8291
53.635
65.0228
80.9922
100.668
128.452
162.775
218.255
280.173
371.89
436.15
8.40398
8.69342
9.52245
10.8125
12.4777
14.5819
17.2254
20.5086
24.6032
29.672
35.9726
43.8266
53.6311
65.0159
80.9804
100.641
128.41
162.67
218.089
279.822
371.542
435.377
8.40394
8.69338
9.5224
10.8124
12.4776
14.5817
17.2251
20.5081
24.6025
29.6708
35.9707
43.8236
53.6263
65.0072
80.9656
100.609
128.359
162.546
217.902
279.397
371.099
434.399
8.4039
8.69333
9.52233
10.8123
12.4774
14.5814
17.2247
20.5075
24.6016
29.6694
35.9685
43.8199
53.6204
64.9967
80.9479
100.57
128.298
162.4
217.682
278.902
370.565
433.216
8.40384
8.69327
9.52225
10.8122
12.4772
14.5812
17.2243
20.5068
24.6005
29.6677
35.9659
43.8157
53.6136
64.9846
80.9273
100.525
128.231
162.234
217.444
278.35
369.945
431.824
8.40378
8.6932
9.52216
10.812
12.477
14.5809
17.2238
20.506
24.5993
29.6658
35.963
43.8108
53.6059
64.9708
80.9043
100.477
128.163
162.056
217.206
277.753
369.245
430.22
8.40372
8.69313
9.52205
10.8119
12.4768
14.5805
17.2233
20.5051
24.598
29.6637
35.9597
43.8053
53.5972
64.9554
80.8801
100.428
128.097
161.873
216.991
277.123
368.464
428.398
8.40364
8.69304
9.52194
10.8117
12.4766
14.5801
17.2227
20.5041
24.5965
29.6613
35.956
43.7992
53.5875
64.9386
80.8557
100.382
128.045
161.703
216.827
276.47
367.602
426.351
8.40356
8.69295
9.52181
10.8115
12.4763
14.5797
17.222
20.503
24.5948
29.6587
35.9519
43.7925
53.5769
64.9216
80.8342
100.348
128.033
161.575
216.741
275.797
366.652
424.071
8.40347
8.69284
9.52168
10.8113
12.476
14.5792
17.2213
20.5019
24.593
29.6558
35.9474
43.7852
53.5657
64.906
80.8227
100.342
128.093
161.528
216.738
275.096
365.606
421.546
8.40337
8.69273
9.52153
10.8111
12.4757
14.5787
17.2205
20.5006
24.5911
29.6528
35.9426
43.7773
53.5543
64.896
80.8328
100.385
128.259
161.592
216.791
274.348
364.454
418.765
8.40327
8.69261
9.52137
10.8108
12.4753
14.5782
17.2197
20.4992
24.589
29.6494
35.9374
43.7689
53.5443
64.8977
80.8766
100.492
128.544
161.768
216.842
273.526
363.188
415.715
8.40315
8.69249
9.5212
10.8106
12.4749
14.5776
17.2188
20.4977
24.5867
29.6459
35.9319
43.7601
53.5378
64.9193
80.9632
100.667
128.931
162.012
216.822
272.605
361.797
412.384
8.40303
8.69235
9.52101
10.8103
12.4745
14.577
17.2178
20.4961
24.5843
29.6421
35.9259
43.7515
53.5389
64.9659
81.0932
100.9
129.365
162.242
216.678
271.565
360.276
408.756
8.40291
8.69221
9.52082
10.81
12.4741
14.5764
17.2168
20.4945
24.5818
29.638
35.9195
43.744
53.5518
65.04
81.2595
101.165
129.766
162.369
216.384
270.396
358.617
404.819
8.40277
8.69205
9.52061
10.8097
12.4736
14.5757
17.2157
20.4927
24.5791
29.6337
35.9126
43.7392
53.5806
65.1366
81.4457
101.424
130.05
162.336
215.943
269.096
356.818
400.557
8.40263
8.69189
9.5204
10.8093
12.4732
14.5749
17.2145
20.4908
24.5762
29.6291
35.9054
43.7395
53.6244
65.2493
81.6315
101.635
130.153
162.132
215.377
267.668
354.876
395.956
8.40248
8.69172
9.52017
10.809
12.4727
14.5742
17.2133
20.4888
24.5732
29.6243
35.8982
43.7476
53.6816
65.3656
81.7928
101.762
130.056
161.791
214.717
266.121
352.791
391
8.40232
8.69154
9.51993
10.8086
12.4721
14.5733
17.2121
20.4868
24.5701
29.6192
35.8913
43.7653
53.7447
65.4773
81.9105
101.787
129.787
161.364
213.986
264.461
350.564
385.674
8.40216
8.69135
9.51967
10.8082
12.4716
14.5725
17.2107
20.4846
24.5668
29.6139
35.8855
43.792
53.8097
65.5714
81.9701
101.708
129.402
160.897
213.202
262.699
348.196
379.959
8.40199
8.69116
9.51941
10.8078
12.471
14.5716
17.2094
20.4823
24.5633
29.6082
35.8819
43.8252
53.8683
65.6436
81.9699
101.543
128.965
160.415
212.376
260.843
345.69
373.839
8.40181
8.69095
9.51914
10.8074
12.4704
14.5707
17.2079
20.48
24.5597
29.6023
35.882
43.8616
53.9192
65.6855
81.9144
101.322
128.525
159.927
211.51
258.903
343.049
367.295
8.40162
8.69074
9.51885
10.8069
12.4698
14.5697
17.2064
20.4775
24.5559
29.5961
35.8865
43.8976
53.9559
65.7002
81.8175
101.072
128.109
159.433
210.606
256.889
340.275
360.305
8.40142
8.69052
9.51855
10.8065
12.4691
14.5687
17.2048
20.4749
24.5519
29.5898
35.8956
43.9303
53.9804
65.686
81.6922
100.815
127.723
158.927
209.665
254.809
337.371
352.848
8.40122
8.69029
9.51824
10.806
12.4684
14.5677
17.2032
20.4723
24.5478
29.5835
35.9086
43.9576
53.9883
65.6517
81.5529
100.564
127.362
158.404
208.684
252.672
334.338
344.899
8.40101
8.69005
9.51792
10.8055
12.4677
14.5666
17.2015
20.4695
24.5435
29.5774
35.9238
43.9782
53.9844
65.5986
81.4078
100.325
127.018
157.862
207.665
250.485
331.177
336.434
8.4008
8.68981
9.51759
10.805
12.467
14.5655
17.1998
20.4667
24.5391
29.5715
35.9396
43.9915
53.9658
65.536
81.2641
100.097
126.681
157.3
206.605
248.252
327.886
327.425
8.40057
8.68955
9.51724
10.8045
12.4662
14.5643
17.198
20.4637
24.5344
29.5659
35.9545
43.9973
53.9387
65.4642
81.1233
99.8793
126.347
156.717
205.506
245.974
324.461
317.84
8.40034
8.68929
9.51689
10.8039
12.4654
14.5631
17.1961
20.4606
24.5296
29.5609
35.9677
43.9958
53.9008
65.3904
80.9874
99.6676
126.011
156.116
204.368
243.654
320.893
307.648
8.4001
8.68902
9.51652
10.8034
12.4646
14.5619
17.1942
20.4575
24.5247
29.5566
35.9784
43.9877
53.8585
65.3128
80.8546
99.4594
125.67
155.497
203.19
241.289
317.175
296.815
8.39985
8.68873
9.51614
10.8028
12.4638
14.5606
17.1922
20.4542
24.5195
29.5532
35.9862
43.9735
53.8093
65.2364
80.7254
99.2525
125.323
154.861
201.974
238.881
313.296
285.302
8.3996
8.68845
9.51575
10.8022
12.4629
14.5593
17.1902
20.4508
24.5142
29.5509
35.991
43.9542
53.7587
65.1581
80.5973
99.0451
124.97
154.21
200.719
236.427
309.244
273.073
8.39934
8.68815
9.51535
10.8016
12.4621
14.5579
17.1881
20.4473
24.5087
29.5498
35.9928
43.9306
53.7038
65.082
80.4709
98.8363
124.61
153.543
199.426
233.931
305.006
260.084
8.39907
8.68784
9.51493
10.8009
12.4612
14.5565
17.1859
20.4437
24.5031
29.5505
35.9921
43.9037
53.6494
65.0044
80.3439
98.6251
124.242
152.863
198.096
231.394
300.572
246.293
8.39879
8.68753
9.51451
10.8003
12.4602
14.5551
17.1837
20.44
24.4977
29.5537
35.9892
43.8741
53.5923
64.9289
80.2172
98.4111
123.868
152.169
196.73
228.821
295.931
231.654
8.39851
8.6872
9.51407
10.7996
12.4593
14.5536
17.1814
20.4362
24.4932
29.56
35.9845
43.8426
53.5365
64.8519
80.0891
98.194
123.488
151.463
195.33
226.218
291.077
216.117
8.39821
8.68687
9.51362
10.7989
12.4583
14.5521
17.179
20.4323
24.4914
29.5695
35.9783
43.8098
53.4788
64.7769
79.9605
97.9739
123.101
150.744
193.898
223.589
286.003
199.632
8.39792
8.68653
9.51316
10.7982
12.4573
14.5506
17.1766
20.4283
24.4948
29.5821
35.9709
43.7762
53.4228
64.7002
79.8301
97.7508
122.708
150.014
192.438
220.939
280.708
182.144
8.39761
8.68618
9.51269
10.7975
12.4562
14.549
17.1742
20.4243
24.5058
29.5975
35.9622
43.7421
53.3647
64.6259
79.6993
97.5249
122.31
149.273
190.953
218.27
275.189
163.606
8.39729
8.68583
9.5122
10.7968
12.4552
14.5474
17.1716
20.4211
24.5258
29.6148
35.9522
43.708
53.3083
64.5499
79.5664
97.2964
121.907
148.52
189.449
215.579
269.423
143.931
8.39697
8.68546
9.51171
10.796
12.4541
14.5457
17.169
20.4209
24.5542
29.6333
35.9408
43.674
53.2494
64.477
79.4338
97.066
121.499
147.752
187.931
212.853
263.329
122.383
-16.7854
-31.9629
-36.1586
-24.7733
-17.2937
-12.8314
-10.1795
-8.42969
-8.38704
-10.0234
-11.4915
-7.48414
2.58334
13.7088
20.0244
19.3351
16.8273
15.5801
15.3996
14.6988
13.1018
10.8594
8.94253
6.9167
5.35716
1.76381
-0.228378
4.53526
9.56169
6.94769
4.96899
3.5431
2.48355
1.36437
0.65117
-16.8188
-31.9774
-36.186
-24.7693
-17.2865
-12.8274
-10.1793
-8.43004
-8.38623
-10.0206
-11.4849
-7.47802
2.58928
13.717
20.0381
19.3527
16.8431
15.5906
15.4045
14.7016
13.1044
10.8621
8.94536
6.91973
5.36041
1.76367
-0.243778
4.51613
9.55819
6.94775
4.96921
3.54316
2.48355
1.36438
0.651173
-16.8735
-32.0216
-36.2377
-24.7637
-17.2766
-12.8212
-10.178
-8.42916
-8.38414
-10.0175
-11.4785
-7.47142
2.59929
13.7329
20.0624
19.3841
16.8764
15.6201
15.4237
14.7114
13.1103
10.867
8.94968
6.92361
5.36432
1.76448
-0.254961
4.49752
9.55482
6.94789
4.96948
3.54324
2.48356
1.36441
0.651181
-16.9501
-32.1029
-36.3136
-24.7606
-17.2654
-12.8134
-10.1756
-8.4275
-8.38162
-10.0146
-11.473
-7.46541
2.61144
13.7517
20.0907
19.4214
16.9196
15.6637
15.4564
14.7285
13.1196
10.8744
8.95601
6.92893
5.36989
1.76767
-0.254419
4.48146
9.55177
6.94813
4.96977
3.54335
2.4836
1.36446
0.651194
-17.048
-32.2245
-36.4111
-24.7626
-17.2525
-12.804
-10.1714
-8.42485
-8.37856
-10.0122
-11.4703
-7.46228
2.62218
13.7683
20.1151
19.4534
16.9579
15.7056
15.4915
14.7485
13.1315
10.8843
8.96461
6.93615
5.37764
1.77428
-0.241435
4.46876
9.5491
6.94846
4.9701
3.54349
2.48364
1.36451
0.651213
-17.165
-32.3895
-36.5261
-24.7701
-17.2373
-12.7929
-10.1652
-8.42124
-8.37502
-10.0106
-11.4706
-7.46228
2.63023
13.781
20.1338
19.4776
16.9867
15.7385
15.5222
14.7684
13.1448
10.8961
8.97535
6.9455
5.38799
1.78526
-0.216322
4.4594
9.54678
6.9489
4.97044
3.54364
2.48369
1.36458
0.651235
-17.2991
-32.5991
-36.654
-24.783
-17.2206
-12.7805
-10.1572
-8.41686
-8.37112
-10.0104
-11.4738
-7.46476
2.63574
13.7899
20.1474
19.4955
17.0078
15.7627
15.5467
14.7865
13.1586
10.909
8.98775
6.95692
5.40109
1.8013
-0.17947
4.45323
9.54476
6.94943
4.9708
3.5438
2.48375
1.36466
0.651259
-17.448
-32.8517
-36.79
-24.8019
-17.2037
-12.7678
-10.148
-8.412
-8.36714
-10.0117
-11.4797
-7.46879
2.63913
13.7951
20.156
19.508
17.0232
15.7807
15.5659
14.8024
13.1721
10.9222
9.00102
6.96997
5.41672
1.82257
-0.131497
4.45016
9.54296
6.95003
4.97116
3.54396
2.4838
1.36473
0.651283
-17.6094
-33.1428
-36.9295
-24.827
-17.1882
-12.7559
-10.1384
-8.40703
-8.36329
-10.0146
-11.4877
-7.47389
2.64037
13.7969
20.1598
19.5154
17.034
15.7939
15.5807
14.816
13.1845
10.9347
9.01412
6.98385
5.43429
1.84879
-0.0734903
4.45014
9.54133
6.95068
4.97151
3.54412
2.48385
1.3648
0.651304
-17.7808
-33.4648
-37.0688
-24.8576
-17.1756
-12.7457
-10.1293
-8.40232
-8.35986
-10.0193
-11.4975
-7.47961
2.63951
13.7957
20.1589
19.5176
17.0401
15.8029
15.5914
14.8268
13.1949
10.9453
9.02591
6.99749
5.45287
1.87909
-0.00708673
4.45324
9.5398
6.95138
4.97186
3.54426
2.48389
1.36487
0.65132
-17.9596
-33.8075
-37.2051
-24.8926
-17.1669
-12.7381
-10.1216
-8.39824
-8.35702
-10.0253
-11.5081
-7.48593
2.63665
13.7922
20.1544
19.5152
17.0416
15.8076
15.5978
14.8338
13.2022
10.9532
9.03536
7.00975
5.4713
1.91208
0.0654275
4.45964
9.53834
6.95212
4.97218
3.54437
2.4839
1.36492
0.65133
-18.1429
-34.159
-37.3364
-24.9304
-17.1625
-12.7336
-10.1159
-8.39509
-8.35503
-10.0325
-11.5189
-7.49265
2.63234
13.7869
20.1476
19.5094
17.0394
15.8083
15.5998
14.8365
13.2058
10.9577
9.04174
7.01968
5.48846
1.94581
0.141117
4.46973
9.53689
6.95287
4.97248
3.54446
2.48389
1.36495
0.651332
-18.328
-34.5061
-37.4608
-24.9693
-17.1627
-12.7325
-10.1126
-8.3931
-8.35405
-10.0405
-11.5292
-7.49972
2.62709
13.7804
20.1393
19.5013
17.0346
15.806
15.5979
14.835
13.2054
10.9587
9.04484
7.02675
5.50348
1.9781
0.216417
4.48403
9.53545
6.95363
4.97274
3.5445
2.48385
1.36496
0.651324
-18.5116
-34.8356
-37.5763
-25.0075
-17.1674
-12.7351
-10.1121
-8.39242
-8.35422
-10.0489
-11.5386
-7.50666
2.62154
13.7727
20.1299
19.492
17.0283
15.8018
15.5933
14.83
13.2015
10.9566
9.04499
7.03098
5.51601
2.0071
0.287356
4.50322
9.53401
6.95439
4.97296
3.5445
2.48378
1.36494
0.651304
-18.6906
-35.1348
-37.6808
-25.0433
-17.1764
-12.7415
-10.1142
-8.39306
-8.35555
-10.0578
-11.5472
-7.51325
2.61599
13.7637
20.1191
19.4815
17.0212
15.7967
15.5869
14.8224
13.1948
10.952
9.04285
7.0329
5.52625
2.03192
0.349914
4.52786
9.53261
6.95514
4.97314
3.54444
2.48367
1.3649
0.651272
-18.8616
-35.3926
-37.7726
-25.0748
-17.1895
-12.752
-10.1189
-8.39504
-8.35805
-10.067
-11.5549
-7.51906
2.61084
13.7532
20.1062
19.4696
17.0135
15.7913
15.5795
14.8131
13.1861
10.9457
9.03918
7.03327
5.53474
2.05287
0.400754
4.55827
9.53129
6.95588
4.97326
3.54434
2.48352
1.36482
0.651227
-19.0208
-35.6016
-37.8504
-25.1002
-17.2073
-12.7668
-10.1261
-8.3983
-8.36172
-10.0769
-11.5623
-7.52421
2.60615
13.741
20.0907
19.4559
17.0051
15.7855
15.5714
14.8024
13.1759
10.9382
9.03456
7.03279
5.54218
2.07124
0.438118
4.59398
9.53013
6.95659
4.97334
3.54417
2.48333
1.36471
0.651167
-19.1647
-35.759
-37.9143
-25.1177
-17.2312
-12.7859
-10.1358
-8.40283
-8.36661
-10.0876
-11.5696
-7.52863
2.60209
13.7272
20.072
19.4399
16.9957
15.7795
15.5626
14.7906
13.1644
10.9297
9.02934
7.03195
5.54916
2.08848
0.462489
4.63381
9.5292
6.95728
4.97336
3.54394
2.48309
1.36456
0.651093
-19.2897
-35.8665
-37.9655
-25.127
-17.2616
-12.8096
-10.1482
-8.40865
-8.37269
-10.0997
-11.5776
-7.53286
2.59839
13.7117
20.05
19.4212
16.9851
15.7729
15.5531
14.7775
13.1517
10.9205
9.02371
7.03097
5.55612
2.1057
0.476261
4.67587
9.52856
6.95793
4.97332
3.54364
2.48281
1.36437
0.651004
-19.3926
-35.9288
-38.0067
-25.1297
-17.2979
-12.8382
-10.1636
-8.41595
-8.38013
-10.1137
-11.5871
-7.53725
2.59481
13.6943
20.0242
19.3995
16.9732
15.7656
15.5427
14.7633
13.1378
10.9105
9.01776
7.02996
5.56331
2.1234
0.482652
4.71818
9.52827
6.95855
4.97322
3.54328
2.48248
1.36415
0.6509
-19.4707
-35.9516
-38.0405
-25.1277
-17.3392
-12.8723
-10.1825
-8.42495
-8.38904
-10.1303
-11.5993
-7.54294
2.59054
13.6745
19.9946
19.3749
16.9598
15.7575
15.5314
14.7479
13.1229
10.9
9.01153
7.02896
5.57082
2.14165
0.484565
4.75902
9.52835
6.95913
4.97306
3.54285
2.4821
1.36388
0.650782
-19.523
-35.9421
-38.0664
-25.1227
-17.3847
-12.9121
-10.2054
-8.43604
-8.39977
-10.1501
-11.6153
-7.55087
2.58478
13.6517
19.9607
19.3469
16.9448
15.7486
15.5191
14.7313
13.1069
10.8889
9.00507
7.02799
5.57869
2.16032
0.484089
4.79735
9.5288
6.95966
4.97284
3.54235
2.48167
1.36358
0.650648
-19.5542
-35.9021
-38.0807
-25.1156
-17.4334
-12.9581
-10.233
-8.44953
-8.41256
-10.174
-11.6371
-7.56284
2.57611
13.6252
19.9223
19.3156
16.928
15.7387
15.5057
14.7136
13.0899
10.8773
8.99843
7.02707
5.58689
2.17929
0.482502
4.83267
9.52963
6.96014
4.97254
3.54177
2.4812
1.36323
0.6505
-19.5703
-35.8279
-38.0788
-25.1067
-17.4847
-13.0108
-10.2661
-8.46579
-8.42781
-10.2027
-11.6658
-7.57998
2.56348
13.5938
19.8789
19.2809
16.9095
15.7276
15.4912
14.6948
13.0722
10.8653
8.99165
7.02623
5.59537
2.19842
0.480566
4.86513
9.5308
6.96058
4.97218
3.54112
2.48068
1.36285
0.650339
-19.5713
-35.7197
-38.0524
-25.0953
-17.5378
-13.0711
-10.3052
-8.48495
-8.44569
-10.237
-11.7029
-7.60377
2.54572
13.5567
19.8302
19.2427
16.8891
15.7153
15.4754
14.6749
13.0537
10.8531
8.98478
7.0255
5.60409
2.21766
0.478741
4.89508
9.5323
6.96097
4.97174
3.5404
2.48011
1.36242
0.650164
-19.5559
-35.5808
-37.9868
-25.0794
-17.5926
-13.1398
-10.3512
-8.507
-8.46631
-10.2771
-11.7484
-7.63392
2.5229
13.5129
19.7756
19.2009
16.8669
15.7015
15.4581
14.654
13.0346
10.8406
8.97786
7.0249
5.61302
2.23692
0.477367
4.92316
9.53413
6.96132
4.97123
3.5396
2.4795
1.36195
0.649977
-19.5234
-35.416
-37.8631
-25.0553
-17.6487
-13.2175
-10.4042
-8.53117
-8.48913
-10.3232
-11.8019
-7.67003
2.49551
13.4625
19.7145
19.1554
16.8426
15.686
15.4391
14.6318
13.0149
10.8279
8.97096
7.02449
5.6221
2.25614
0.476685
4.94993
9.53629
6.96162
4.97064
3.53872
2.47884
1.36145
0.649777
-19.4741
-35.2316
-37.6647
-25.0176
-17.7061
-13.3041
-10.4631
-8.55591
-8.51313
-10.3741
-11.8609
-7.70949
2.46537
13.4063
19.6466
19.1056
16.816
15.6686
15.4181
14.6083
12.9947
10.8152
8.9641
7.02429
5.6313
2.27524
0.476895
4.97606
9.53879
6.96189
4.96997
3.53776
2.47813
1.3609
0.649566
-19.4085
-35.0363
-37.3844
-24.9605
-17.7651
-13.3981
-10.5251
-8.57817
-8.53615
-10.4286
-11.9231
-7.75023
2.43396
13.3461
19.5726
19.0514
16.7868
15.649
15.3948
14.5833
12.9739
10.8023
8.95735
7.02432
5.64057
2.29414
0.478127
5.00203
9.54165
6.96212
4.96922
3.53672
2.47738
1.36031
0.649344
-19.3284
-34.8407
-37.0289
-24.879
-17.8265
-13.4966
-10.5854
-8.59394
-8.55551
-10.4836
-11.9839
-7.78866
2.40325
13.2837
19.4936
18.9926
16.7546
15.6267
15.369
14.5564
12.9524
10.7894
8.95074
7.02462
5.64987
2.31273
0.480487
5.0284
9.54491
6.96232
4.96838
3.53561
2.47658
1.35969
0.649114
-19.2376
-34.6561
-36.6156
-24.771
-17.8915
-13.5948
-10.6373
-8.59814
-8.56779
-10.5367
-12.0395
-7.82289
2.37407
13.2208
19.4115
18.93
16.7192
15.6017
15.3405
14.5277
12.9302
10.7764
8.94433
7.02522
5.65915
2.33093
0.484028
5.05551
9.5486
6.96252
4.96746
3.53441
2.47575
1.35902
0.648873
-19.1423
-34.493
-36.1653
-24.6402
-17.962
-13.6868
-10.6734
-8.58597
-8.57005
-10.5842
-12.0849
-7.8501
2.34778
13.1582
19.3277
18.8645
16.6809
15.5737
15.3093
14.497
12.9073
10.7634
8.93815
7.02612
5.66836
2.3486
0.488807
5.08382
9.55277
6.96269
4.96644
3.53313
2.47487
1.35832
0.648626
-19.0497
-34.3611
-35.6983
-24.4987
-18.0398
-13.7654
-10.6866
-8.55326
-8.55989
-10.6233
-12.1172
-7.86959
2.3247
13.0968
19.2436
18.7974
16.6402
15.543
15.2757
14.4645
12.8835
10.7504
8.93225
7.02736
5.67746
2.36563
0.494841
5.11358
9.55748
6.96288
4.96534
3.53177
2.47395
1.35758
0.64837
-18.9675
-34.2708
-35.2354
-24.3682
-18.1271
-13.8244
-10.6717
-8.49824
-8.53679
-10.6508
-12.1334
-7.87964
2.30592
13.0365
19.1596
18.7295
16.5977
15.5099
15.2399
14.4303
12.859
10.7375
8.92667
7.02896
5.6864
2.38184
0.502167
5.14516
9.56277
6.96307
4.96414
3.53033
2.47299
1.35681
0.648109
-18.902
-34.2358
-34.7995
-24.2752
-18.2243
-13.859
-10.6266
-8.42169
-8.50162
-10.6644
-12.1336
-7.88057
2.29138
12.9776
19.076
18.6617
16.5541
15.4751
15.2024
14.3947
12.8339
10.7246
8.92145
7.03092
5.69512
2.39711
0.510793
5.17874
9.56869
6.96329
4.96285
3.5288
2.47199
1.35599
0.64784
-18.857
-34.2751
-34.4148
-24.2446
-18.3314
-13.8681
-10.5535
-8.32792
-8.45691
-10.663
-12.1191
-7.87162
2.28165
12.9192
18.9921
18.5939
16.5099
15.4388
15.1638
14.3583
12.8084
10.7118
8.91662
7.03327
5.70359
2.4112
0.520761
5.21465
9.5753
6.96353
4.96145
3.52718
2.47095
1.35514
0.647566
-18.8327
-34.4128
-34.1004
-24.2915
-18.4461
-13.8535
-10.458
-8.22358
-8.40544
-10.6481
-12.094
-7.85408
2.27584
12.861
18.9074
18.526
16.4653
15.4017
15.1243
14.3213
12.7827
10.6993
8.91224
7.03602
5.71173
2.42395
0.532087
5.25301
9.58265
6.96382
4.95996
3.52547
2.46986
1.35424
0.647285
-18.8259
-34.6746
-33.8665
-24.4185
-18.5655
-13.8202
-10.3484
-8.11666
-8.35049
-10.6237
-12.0613
-7.82796
2.27368
12.8016
18.8205
18.4571
16.4204
15.364
15.0846
14.2843
12.7571
10.6872
8.90831
7.03917
5.7195
2.43505
0.544844
5.29415
9.59077
6.96414
4.95834
3.52366
2.46873
1.3533
0.646998
-18.8299
-35.0759
-33.7125
-24.6172
-18.6856
-13.7739
-10.2339
-8.0141
-8.29629
-10.5964
-12.0241
-7.79499
2.27328
12.7398
18.7306
18.3871
16.3751
15.3261
15.0446
14.2475
12.7319
10.6755
8.90486
7.04269
5.72682
2.44434
0.559112
5.33819
9.59977
6.96453
4.9566
3.52173
2.46754
1.3523
0.646703
-18.8365
-35.6036
-33.6307
-24.8727
-18.8027
-13.7204
-10.1228
-7.92171
-8.24935
-10.5717
-11.9827
-7.75578
2.27313
12.6737
18.6363
18.3153
16.3299
15.2884
15.0048
14.2111
12.7074
10.6643
8.90182
7.04657
5.73369
2.45153
0.57506
5.38551
9.60967
6.96496
4.95472
3.51969
2.4663
1.35125
0.646401
-18.838
-36.1928
-33.6084
-25.1672
-18.9126
-13.6646
-10.0215
-7.84549
-8.21635
-10.552
-11.9378
-7.71334
2.26968
12.6017
18.5378
18.2429
16.2856
15.2511
14.9647
14.1747
12.6834
10.6536
8.89918
7.05085
5.74021
2.45659
0.592599
5.43579
9.62041
6.96543
4.95269
3.5175
2.465
1.35013
0.646088
-18.8283
-36.7076
-33.6298
-25.4813
-19.0105
-13.6095
-9.93505
-7.79207
-8.19976
-10.536
-11.8899
-7.67095
2.26004
12.5235
18.4371
18.1719
16.2429
15.2136
14.9236
14.1376
12.6596
10.6433
8.89704
7.05581
5.74673
2.45916
0.610695
5.48768
9.63144
6.96587
4.95052
3.51517
2.46362
1.34894
0.645762
-18.7966
-36.9497
-33.6755
-25.7955
-19.0908
-13.5566
-9.86942
-7.76371
-8.1956
-10.5221
-11.8435
-7.63537
2.24153
12.4427
18.3399
18.1054
16.201
15.1737
14.8793
14.099
12.6358
10.6337
8.896
7.06195
5.7535
2.45835
0.627673
5.53964
9.64253
6.96632
4.94823
3.51268
2.46216
1.34766
0.645415
-18.7351
-36.7521
-33.7302
-26.0986
-19.1517
-13.5096
-9.82906
-7.75564
-8.19993
-10.5124
-11.8042
-7.60924
2.2186
12.3668
18.2512
18.0423
16.155
15.1261
14.8298
14.0589
12.6137
10.6269
8.89742
7.06933
5.75806
2.45007
0.649862
5.60563
9.65869
6.96721
4.94552
3.50992
2.46062
1.34631
0.645075
8.39672
8.68517
9.51131
10.7954
12.4532
14.5444
17.1669
20.4292
24.5815
29.6475
35.931
43.6472
53.2044
64.4224
79.3312
96.8863
121.18
147.141
186.747
210.695
258.295
100.73
8.39653
8.68496
9.51102
10.795
12.4526
14.5434
17.1654
20.4432
24.6018
29.656
35.9228
43.6272
53.1686
64.3895
79.2597
96.7567
120.947
146.691
185.887
209.124
254.449
97.8315
8.39633
8.68473
9.51072
10.7945
12.4519
14.5423
17.1637
20.4609
24.6189
29.6616
35.9135
43.6068
53.1352
64.3536
79.1857
96.6229
120.705
146.222
185.003
207.492
250.446
99.5325
8.39612
8.68449
9.51039
10.7941
12.4512
14.5412
17.162
20.4788
24.6327
29.6646
35.9036
43.5862
53.0992
64.3192
79.1109
96.4843
120.453
145.733
184.095
205.794
246.33
99.4425
8.3959
8.68424
9.51005
10.7935
12.4505
14.5401
17.1602
20.4942
24.6435
29.6657
35.8936
43.5657
53.0659
64.2805
79.0327
96.3399
120.19
145.224
183.156
204.027
242.09
97.6689
8.39567
8.68397
9.50969
10.793
12.4497
14.5389
17.1583
20.5045
24.6516
29.6651
35.8839
43.5453
53.0305
64.2431
78.9532
96.1894
119.913
144.692
182.183
202.194
237.723
95.6391
8.39542
8.6837
9.50931
10.7924
12.4489
14.5376
17.1563
20.5077
24.6572
29.6633
35.8746
43.5252
52.9978
64.2018
78.8699
96.0321
119.62
144.137
181.167
200.296
233.233
93.7486
8.39517
8.6834
9.50891
10.7918
12.448
14.5362
17.1542
20.5041
24.6603
29.6605
35.8659
43.5053
52.963
64.1617
78.7848
95.8679
119.312
143.557
180.105
198.335
228.625
91.8355
8.39489
8.68309
9.50849
10.7912
12.4471
14.5348
17.1519
20.4953
24.6611
29.6568
35.8577
43.4858
52.9308
64.1176
78.6956
95.6961
118.986
142.951
178.99
196.31
223.904
89.8018
8.3946
8.68276
9.50804
10.7905
12.4461
14.5332
17.1496
20.4829
24.6596
29.6523
35.8501
43.4666
52.8965
64.0745
78.6043
95.5167
118.641
142.318
177.817
194.221
219.074
87.6718
8.3943
8.68242
9.50757
10.7898
12.4451
14.5316
17.1471
20.4679
24.6556
29.6471
35.8429
43.4478
52.8643
64.0275
78.5083
95.3291
118.278
141.656
176.58
192.068
214.139
85.4805
8.39398
8.68205
9.50707
10.7891
12.444
14.5299
17.1444
20.4512
24.6488
29.641
35.836
43.4292
52.83
63.9811
78.4097
95.1333
117.894
140.964
175.275
189.85
209.106
83.2388
8.39364
8.68166
9.50654
10.7883
12.4428
14.5281
17.1416
20.4335
24.6389
29.6339
35.8293
43.4109
52.7976
63.9306
78.3059
94.9288
117.49
140.239
173.898
187.565
203.977
80.9509
8.39328
8.68125
9.50599
10.7874
12.4416
14.5262
17.1387
20.4157
24.6253
29.6254
35.8223
43.3927
52.7628
63.8803
78.1988
94.7152
117.065
139.481
172.446
185.212
198.76
78.6257
8.3929
8.68082
9.5054
10.7865
12.4403
14.5242
17.1355
20.3986
24.6077
29.6151
35.8149
43.3746
52.7296
63.8254
78.0859
94.492
116.618
138.688
170.916
182.79
193.459
76.2755
8.3925
8.68036
9.50477
10.7856
12.439
14.522
17.1321
20.383
24.5856
29.6023
35.8064
43.3565
52.6937
63.7703
77.9689
94.2589
116.15
137.858
169.307
180.298
188.078
73.9136
8.39207
8.67988
9.50411
10.7846
12.4375
14.5197
17.1286
20.3691
24.559
29.5864
35.7963
43.3382
52.6592
63.7103
77.8454
94.0149
115.659
136.99
167.616
177.733
182.623
71.554
8.39162
8.67936
9.50341
10.7835
12.436
14.5173
17.1248
20.3572
24.528
29.5665
35.7836
43.3193
52.6218
63.6494
77.7168
93.7598
115.144
136.083
165.844
175.095
177.096
69.2109
8.39114
8.67882
9.50266
10.7824
12.4344
14.5147
17.1209
20.347
24.4937
29.5418
35.7674
43.2995
52.5856
63.5829
77.5806
93.4924
114.605
135.134
163.988
172.381
171.503
66.8969
8.39064
8.67824
9.50188
10.7812
12.4327
14.512
17.1166
20.3381
24.4572
29.5114
35.7462
43.278
52.5461
63.515
77.4384
93.2122
114.04
134.144
162.049
169.591
165.847
64.6226
8.3901
8.67763
9.50104
10.78
12.4309
14.5091
17.1121
20.3301
24.4202
29.4748
35.7183
43.2538
52.5073
63.4411
77.2873
92.9181
113.447
133.108
160.026
166.723
160.134
62.3951
8.38953
8.67698
9.50016
10.7786
12.4289
14.5061
17.1073
20.3223
24.3846
29.4323
35.6817
43.2253
52.4646
63.365
77.129
92.6096
112.825
132.027
157.919
163.776
154.368
60.2171
8.38893
8.67629
9.49922
10.7772
12.4269
14.5028
17.1022
20.3145
24.3519
29.3845
35.6347
43.1902
52.4212
63.2823
76.9607
92.2852
112.173
130.898
155.727
160.748
148.556
58.0867
8.38828
8.67556
9.49822
10.7757
12.4247
14.4994
17.0968
20.3064
24.3229
29.3332
35.5757
43.1452
52.3716
63.1967
76.7837
91.9445
111.488
129.72
153.449
157.637
142.704
55.9966
8.3876
8.67478
9.49716
10.7741
12.4224
14.4957
17.091
20.2978
24.2976
29.2806
35.5045
43.0863
52.3171
63.1033
76.5953
91.5861
110.77
128.489
151.084
154.443
136.822
53.9346
8.38688
8.67396
9.49603
10.7725
12.42
14.4919
17.0849
20.2886
24.2752
29.2288
35.4226
43.0089
52.25
63.0053
76.3969
91.2093
110.017
127.205
148.633
151.163
130.918
51.884
8.38611
8.67308
9.49484
10.7707
12.4173
14.4877
17.0784
20.2789
24.2548
29.1795
35.3329
42.9095
52.1677
62.8963
76.1852
90.8128
109.227
125.864
146.094
147.795
125.004
49.8245
8.38529
8.67215
9.49357
10.7688
12.4146
14.4834
17.0715
20.2685
24.2353
29.1336
35.2397
42.7865
52.0583
62.7764
75.9611
90.3959
108.399
124.466
143.466
144.339
119.092
47.7333
8.38442
8.67116
9.49221
10.7667
12.4116
14.4787
17.0642
20.2573
24.216
29.0911
35.1472
42.6427
51.9157
62.6351
75.7198
89.957
107.532
123.008
140.75
140.792
113.194
45.5864
8.38349
8.6701
9.49078
10.7646
12.4085
14.4738
17.0563
20.2455
24.1962
29.0513
35.0587
42.4845
51.7297
62.4656
75.459
89.4947
106.625
121.489
137.946
137.154
107.324
43.36
8.38251
8.66898
9.48925
10.7623
12.4052
14.4685
17.048
20.2328
24.1756
29.0132
34.9758
42.3207
51.5013
62.251
75.1685
89.0059
105.676
119.906
135.054
133.423
101.497
41.032
8.38145
8.66778
9.48762
10.7599
12.4016
14.463
17.0392
20.2193
24.1539
28.9754
34.8985
42.1596
51.2362
61.9804
74.8378
88.486
104.684
118.259
132.074
129.598
95.7266
38.5834
8.38033
8.66651
9.48588
10.7573
12.3978
14.457
17.0298
20.205
24.1309
28.9369
34.8254
42.007
50.9506
61.6434
74.4475
87.9267
103.646
116.545
129.008
125.681
90.0279
35.9989
8.37914
8.66515
9.48403
10.7545
12.3938
14.4507
17.0198
20.1897
24.1064
28.897
34.7544
41.8646
50.6612
61.2459
73.9803
87.3154
102.559
114.764
125.856
121.673
84.4146
33.2683
8.37787
8.6637
9.48206
10.7516
12.3895
14.444
17.0092
20.1734
24.0803
28.8551
34.6834
41.731
50.3829
60.8036
73.4221
86.6344
101.415
112.914
122.62
117.574
78.9004
30.3871
8.37651
8.66216
9.47996
10.7485
12.3849
14.4368
16.9979
20.1561
24.0526
28.8109
34.6104
41.6025
50.1222
60.3432
72.7755
85.8651
100.205
110.993
119.304
113.39
73.4982
27.3569
8.37507
8.66051
9.47772
10.7451
12.38
14.4292
16.9859
20.1376
24.023
28.7639
34.5342
41.475
49.8786
59.8878
72.06
84.9933
98.9139
108.999
115.911
109.125
68.2199
24.1859
8.37352
8.65876
9.47533
10.7416
12.3748
14.4211
16.9731
20.1179
23.9916
28.714
34.4541
41.3449
49.6461
59.4524
71.3103
84.0184
97.5287
106.931
112.448
104.785
63.077
20.888
8.37187
8.65688
9.47279
10.7378
12.3692
14.4124
16.9595
20.0969
23.9582
28.661
34.3693
41.2094
49.4168
59.0387
70.56
82.9578
96.0398
104.788
108.926
100.38
58.0809
17.483
8.37011
8.65488
9.47006
10.7338
12.3632
14.4032
16.9449
20.0745
23.9226
28.6046
34.2794
41.0668
49.1835
58.6393
69.8315
81.843
94.4489
102.572
105.361
95.9238
53.2432
13.9957
8.36823
8.65274
9.46716
10.7294
12.3569
14.3933
16.9295
20.0506
23.8847
28.5446
34.1839
40.9162
48.9409
58.2419
69.1283
80.7078
92.7702
100.289
101.774
91.4344
48.5772
10.4552
8.36622
8.65046
9.46406
10.7249
12.3501
14.3828
16.913
20.0252
23.8443
28.4808
34.0825
40.7567
48.6859
57.8353
68.4393
79.5754
91.0281
97.9496
98.1942
86.9373
44.0981
6.89408
8.36407
8.64802
9.46074
10.7199
12.3429
14.3716
16.8954
19.9981
23.8013
28.413
33.9748
40.5875
48.4167
57.4113
67.7464
78.4509
89.2474
95.5633
94.6542
82.4654
39.8241
3.34844
8.36178
8.64541
9.4572
10.7147
12.3351
14.3596
16.8766
19.9691
23.7555
28.3407
33.8603
40.4081
48.1322
56.9652
67.0327
77.3238
87.4456
93.1363
91.1816
78.0581
35.7758
-0.143083
8.35932
8.64262
9.45342
10.7091
12.3268
14.3468
16.8566
19.9382
23.7067
28.2639
33.7388
40.2177
47.8314
56.4949
66.2865
76.1753
85.6275
90.6661
87.7897
73.7574
31.9752
-3.53965
8.35669
8.63964
9.44937
10.7031
12.318
14.3331
16.8353
19.9053
23.6547
28.1821
33.6096
40.0157
47.5131
55.999
65.5021
74.9869
83.7855
88.1442
84.4671
69.599
28.4426
-6.79943
8.35388
8.63645
9.44504
10.6967
12.3085
14.3186
16.8125
19.8701
23.5993
28.095
33.4724
39.8014
47.1765
55.4762
64.6779
73.7461
81.9035
85.5633
81.1765
65.6016
25.1921
-9.88125
8.35087
8.63303
9.44042
10.6899
12.2984
14.303
16.7882
19.8326
23.5403
28.0023
33.3266
39.5741
46.8204
54.9251
63.8135
72.4478
79.9641
82.9205
77.8692
61.7542
22.2253
-12.7474
8.34764
8.62938
9.43546
10.6826
12.2876
14.2863
16.7623
19.7925
23.4774
27.9037
33.1718
39.3332
46.4439
54.3443
62.9083
71.0921
77.9559
80.2134
74.5079
58.0157
19.5232
-15.3673
8.34419
8.62546
9.43016
10.6748
12.276
14.2685
16.7346
19.7497
23.4103
27.7988
33.0074
39.0778
46.0461
53.7328
61.9614
69.6806
75.8768
77.4387
71.081
54.3289
17.0419
-17.7222