/*--------------------------------*- C++ -*----------------------------------*\
| =========                 |                                                 |
| \\      /  F ield         | OpenFOAM: The Open Source CFD Toolbox           |
|  \\    /   O peration     | Version:  v1912                                 |
|   \\  /    A nd           | Website:  www.openfoam.com                      |
|    \\/     M anipulation  |                                                 |
\*---------------------------------------------------------------------------*/
FoamFile
{
    version     2.0;
    format      ascii;
    class       surfaceScalarField;
    location    "210";
    object      phi;
}
// * * * * * * * * * * * * * * * * * * * * * * * * * * * * * * * * * * * * * //

dimensions      [0 3 -1 0 0 0 0];
oriented        oriented;


internalField   nonuniform List<scalar> 
24588
(
6.8169e-05
1.89017e-08
6.81172e-05
5.19866e-08
6.80354e-05
8.13155e-08
6.79242e-05
1.11362e-07
6.77788e-05
1.44941e-07
6.75946e-05
1.83778e-07
6.73651e-05
2.29571e-07
6.7076e-05
2.88459e-07
6.67173e-05
3.59045e-07
6.6265e-05
4.52568e-07
6.57109e-05
5.53298e-07
6.49598e-05
7.20603e-07
6.41783e-05
8.77316e-07
6.29455e-05
1.13648e-06
6.15255e-05
1.44963e-06
5.92268e-05
2.29124e-06
5.63758e-05
2.85345e-06
5.17234e-05
4.65174e-06
4.51637e-05
6.55966e-06
3.40483e-05
1.11158e-05
2.02955e-05
1.37528e-05
2.02955e-05
6.81693e-05
3.82473e-08
6.81171e-05
1.04378e-07
6.80355e-05
1.62276e-07
6.79243e-05
2.22792e-07
6.77789e-05
2.89743e-07
6.75948e-05
3.67233e-07
6.73656e-05
4.58908e-07
6.70765e-05
5.76774e-07
6.6718e-05
7.18109e-07
6.62663e-05
9.04403e-07
6.57103e-05
1.10838e-06
6.4955e-05
1.44128e-06
6.41866e-05
1.75067e-06
6.29321e-05
2.29523e-06
6.15185e-05
2.89422e-06
5.9281e-05
4.5219e-06
5.63878e-05
5.75105e-06
5.16906e-05
9.34819e-06
4.52062e-05
1.30441e-05
3.3951e-05
2.23716e-05
2.02507e-05
2.74531e-05
4.05462e-05
6.81693e-05
5.75966e-08
6.81171e-05
1.56794e-07
6.80355e-05
2.43281e-07
6.79242e-05
3.34214e-07
6.77788e-05
4.3459e-07
6.75948e-05
5.50739e-07
6.73655e-05
6.88246e-07
6.70765e-05
8.65095e-07
6.67179e-05
1.07711e-06
6.62658e-05
1.35677e-06
6.57114e-05
1.66188e-06
6.49527e-05
2.16419e-06
6.4185e-05
2.63031e-06
6.294e-05
3.42765e-06
6.15228e-05
4.34546e-06
5.93184e-05
6.71724e-06
5.6388e-05
8.6869e-06
5.17112e-05
1.40236e-05
4.51795e-05
1.95757e-05
3.39683e-05
3.35837e-05
2.02691e-05
4.11523e-05
6.08153e-05
6.81693e-05
7.69453e-08
6.81171e-05
2.09158e-07
6.80355e-05
3.24223e-07
6.79243e-05
4.45636e-07
6.77789e-05
5.79373e-07
6.75949e-05
7.34203e-07
6.73656e-05
9.1761e-07
6.70765e-05
1.15346e-06
6.67179e-05
1.43621e-06
6.62662e-05
1.80872e-06
6.57102e-05
2.21686e-06
6.49563e-05
2.88341e-06
6.41832e-05
3.50681e-06
6.29318e-05
4.58692e-06
6.1511e-05
5.79598e-06
5.9331e-05
8.89048e-06
5.64084e-05
1.16143e-05
5.17255e-05
1.87056e-05
4.51662e-05
2.61352e-05
3.39943e-05
4.47563e-05
2.03014e-05
5.48452e-05
8.11166e-05
6.81693e-05
9.62949e-08
6.81171e-05
2.61552e-07
6.80355e-05
4.05222e-07
6.79243e-05
5.57047e-07
6.77789e-05
7.24216e-07
6.75948e-05
9.17732e-07
6.73655e-05
1.14697e-06
6.70764e-05
1.44183e-06
6.67178e-05
1.79528e-06
6.62657e-05
2.26117e-06
6.57113e-05
2.77035e-06
6.49525e-05
3.60694e-06
6.41806e-05
4.39189e-06
6.29395e-05
5.71524e-06
6.15147e-05
7.25532e-06
5.93433e-05
1.10529e-05
5.64353e-05
1.45277e-05
5.17268e-05
2.34126e-05
4.51832e-05
3.26786e-05
3.40377e-05
5.59026e-05
2.03485e-05
6.85344e-05
0.000101465
6.81693e-05
1.15645e-07
6.81172e-05
3.13883e-07
6.80355e-05
4.86133e-07
6.79243e-05
6.6846e-07
6.77789e-05
8.68966e-07
6.75949e-05
1.10119e-06
6.73656e-05
1.37636e-06
6.70765e-05
1.73025e-06
6.67179e-05
2.15445e-06
6.62661e-05
2.71308e-06
6.57098e-05
3.32565e-06
6.4958e-05
4.32447e-06
6.41809e-05
5.2689e-06
6.29318e-05
6.87755e-06
6.15049e-05
8.7103e-06
5.93381e-05
1.32135e-05
5.64491e-05
1.74215e-05
5.17347e-05
2.81262e-05
4.52129e-05
3.92007e-05
3.41006e-05
6.70156e-05
2.04121e-05
8.22229e-05
0.000121877
6.81692e-05
1.34997e-07
6.81171e-05
3.66255e-07
6.80355e-05
5.67114e-07
6.79243e-05
7.79855e-07
6.77789e-05
1.01379e-06
6.75948e-05
1.28474e-06
6.73656e-05
1.60573e-06
6.70765e-05
2.01865e-06
6.67178e-05
2.51359e-06
6.62657e-05
3.16548e-06
6.5711e-05
3.87944e-06
6.49525e-05
5.04886e-06
6.41784e-05
6.15548e-06
6.29422e-05
7.99905e-06
6.15102e-05
1.01776e-05
5.93375e-05
1.53774e-05
5.64674e-05
2.02961e-05
5.17522e-05
3.28398e-05
4.52562e-05
4.56965e-05
3.41883e-05
7.80841e-05
2.04946e-05
9.59166e-05
0.000142372
6.81692e-05
1.54349e-07
6.81172e-05
4.18553e-07
6.80356e-05
6.47992e-07
6.79243e-05
8.91256e-07
6.7779e-05
1.15849e-06
6.7595e-05
1.46819e-06
6.73657e-05
1.83512e-06
6.70766e-05
2.30708e-06
6.67179e-05
2.87281e-06
6.62663e-05
3.61727e-06
6.57095e-05
4.43518e-06
6.49605e-05
5.76404e-06
6.41803e-05
7.03002e-06
6.29327e-05
9.16613e-06
6.14922e-05
1.16457e-05
5.93197e-05
1.75451e-05
5.64824e-05
2.31371e-05
5.17883e-05
3.75335e-05
4.5323e-05
5.21621e-05
3.4309e-05
8.90987e-05
2.05991e-05
0.000109627
0.000162971
6.81692e-05
1.73701e-07
6.81171e-05
4.70902e-07
6.80355e-05
7.28959e-07
6.79243e-05
1.00264e-06
6.77789e-05
1.30329e-06
6.75949e-05
1.65174e-06
6.73656e-05
2.06448e-06
6.70765e-05
2.59549e-06
6.67178e-05
3.232e-06
6.62658e-05
4.06956e-06
6.5711e-05
4.98915e-06
6.49522e-05
6.49008e-06
6.4172e-05
7.92438e-06
6.29404e-05
1.02848e-05
6.1479e-05
1.31373e-05
5.93204e-05
1.96973e-05
5.64796e-05
2.598e-05
5.18609e-05
4.21509e-05
4.54237e-05
5.8599e-05
3.44699e-05
0.000100053
2.07289e-05
0.000123367
0.0001837
6.81692e-05
1.93053e-07
6.81172e-05
5.23165e-07
6.80356e-05
8.0981e-07
6.79244e-05
1.11403e-06
6.7779e-05
1.44796e-06
6.7595e-05
1.83518e-06
6.73658e-05
2.29387e-06
6.70767e-05
2.88392e-06
6.67179e-05
3.59126e-06
6.62666e-05
4.52108e-06
6.57091e-05
5.54562e-06
6.49644e-05
7.20159e-06
6.41733e-05
8.80024e-06
6.29282e-05
1.14585e-05
6.14481e-05
1.46376e-05
5.93278e-05
2.1816e-05
5.64591e-05
2.88507e-05
5.19636e-05
4.66465e-05
4.55597e-05
6.50033e-05
3.46735e-05
0.00011094
2.08868e-05
0.000137154
0.000204587
6.81692e-05
2.12406e-07
6.81171e-05
5.75493e-07
6.80355e-05
8.90767e-07
6.79243e-05
1.22539e-06
6.7779e-05
1.59273e-06
6.75949e-05
2.01874e-06
6.73657e-05
2.52323e-06
6.70766e-05
3.1723e-06
6.67179e-05
3.9505e-06
6.62662e-05
4.97304e-06
6.571e-05
6.10099e-06
6.49534e-05
7.92753e-06
6.41453e-05
9.71775e-06
6.29189e-05
1.25916e-05
6.14202e-05
1.61521e-05
5.9332e-05
2.39006e-05
5.64426e-05
3.17407e-05
5.20814e-05
5.10066e-05
4.57192e-05
7.13652e-05
3.49141e-05
0.000121745
2.10738e-05
0.000150994
0.00022566
6.81692e-05
2.31756e-07
6.81172e-05
6.27722e-07
6.80356e-05
9.71599e-07
6.79244e-05
1.33677e-06
6.77791e-05
1.73736e-06
6.75951e-05
2.20216e-06
6.73659e-05
2.75261e-06
6.70768e-05
3.4607e-06
6.6718e-05
4.30984e-06
6.62673e-05
5.42394e-06
6.57071e-05
6.66016e-06
6.49664e-05
8.6377e-06
6.41334e-05
1.06181e-05
6.29138e-05
1.37686e-05
6.1393e-05
1.76819e-05
5.93322e-05
2.59618e-05
5.64396e-05
3.46341e-05
5.21942e-05
5.52523e-05
4.58844e-05
7.76753e-05
3.51801e-05
0.000132449
2.12887e-05
0.000164886
0.000246949
6.81692e-05
2.51107e-07
6.81171e-05
6.80027e-07
6.80356e-05
1.05256e-06
6.79244e-05
1.44813e-06
6.7779e-05
1.88211e-06
6.7595e-05
2.3857e-06
6.73657e-05
2.98195e-06
6.70768e-05
3.74902e-06
6.67179e-05
4.66922e-06
6.62675e-05
5.87473e-06
6.57057e-05
7.22111e-06
6.49597e-05
9.35696e-06
6.41019e-05
1.15637e-05
6.29152e-05
1.49105e-05
6.13737e-05
1.92283e-05
5.93324e-05
2.80013e-05
5.64464e-05
3.75201e-05
5.22883e-05
5.94098e-05
4.60417e-05
8.39216e-05
3.54591e-05
0.000143032
2.15287e-05
0.000178816
0.000268478
6.81692e-05
2.70454e-07
6.81172e-05
7.32223e-07
6.80356e-05
1.13338e-06
6.79244e-05
1.55949e-06
6.77791e-05
2.02671e-06
6.75952e-05
2.56911e-06
6.73659e-05
3.21132e-06
6.7077e-05
4.03735e-06
6.67181e-05
5.02868e-06
6.62688e-05
6.32417e-06
6.57002e-05
7.78877e-06
6.49693e-05
1.00639e-05
6.40991e-05
1.24647e-05
6.29142e-05
1.60853e-05
6.136e-05
2.07855e-05
5.93322e-05
3.00301e-05
5.6456e-05
4.03968e-05
5.23615e-05
6.35047e-05
4.6185e-05
9.00982e-05
3.5742e-05
0.000153475
2.17903e-05
0.000192768
0.000290268
6.81692e-05
2.89802e-07
6.81171e-05
7.84507e-07
6.80356e-05
1.21434e-06
6.79244e-05
1.67083e-06
6.7779e-05
2.17144e-06
6.75951e-05
2.75264e-06
6.73658e-05
3.44064e-06
6.70769e-05
4.32559e-06
6.6718e-05
5.38818e-06
6.62692e-05
6.77326e-06
6.56943e-05
8.36298e-06
6.49637e-05
1.07755e-05
6.40879e-05
1.33825e-05
6.29093e-05
1.72448e-05
6.1351e-05
2.23451e-05
5.93315e-05
3.20481e-05
5.64646e-05
4.32636e-05
5.24178e-05
6.75509e-05
4.63132e-05
9.62026e-05
3.60226e-05
0.000163766
2.20698e-05
0.000206721
0.000312338
6.81692e-05
3.09144e-07
6.81172e-05
8.36669e-07
6.80357e-05
1.29516e-06
6.79245e-05
1.78219e-06
6.77792e-05
2.316e-06
6.75953e-05
2.93602e-06
6.73661e-05
3.66999e-06
6.70771e-05
4.61389e-06
6.67182e-05
5.74766e-06
6.627e-05
7.22163e-06
6.5686e-05
8.94613e-06
6.49638e-05
1.14833e-05
6.40799e-05
1.42693e-05
6.29026e-05
1.84231e-05
6.13449e-05
2.3904e-05
5.93304e-05
3.40635e-05
5.6471e-05
4.61233e-05
5.24621e-05
7.15602e-05
4.64277e-05
0.000102237
3.6298e-05
0.000173896
2.23638e-05
0.000220655
0.000334701
6.81692e-05
3.28487e-07
6.81172e-05
8.88932e-07
6.80356e-05
1.37614e-06
6.79244e-05
1.89352e-06
6.77791e-05
2.46073e-06
6.75951e-05
3.11954e-06
6.73659e-05
3.89927e-06
6.70771e-05
4.9021e-06
6.67181e-05
6.10713e-06
6.62702e-05
7.66991e-06
6.56747e-05
9.54104e-06
6.49648e-05
1.2185e-05
6.4071e-05
1.51844e-05
6.2897e-05
1.9587e-05
6.13406e-05
2.54608e-05
5.9329e-05
3.6074e-05
5.64755e-05
4.89766e-05
5.24983e-05
7.5537e-05
4.6531e-05
0.000108204
3.65669e-05
0.00018386
2.26698e-05
0.000234552
0.000357371
6.81692e-05
3.47823e-07
6.81172e-05
9.4106e-07
6.80357e-05
1.45695e-06
6.79245e-05
2.00486e-06
6.77793e-05
2.60526e-06
6.75954e-05
3.30289e-06
6.73662e-05
4.12857e-06
6.70773e-05
5.19035e-06
6.67184e-05
6.46655e-06
6.62709e-05
8.11758e-06
6.56651e-05
1.0146e-05
6.49679e-05
1.28772e-05
6.40643e-05
1.60831e-05
6.28923e-05
2.07626e-05
6.13376e-05
2.70161e-05
5.93273e-05
3.80851e-05
5.64783e-05
5.18259e-05
5.25294e-05
7.94862e-05
4.66256e-05
0.000114108
3.68298e-05
0.000193656
2.2986e-05
0.000248396
0.000380357
6.81692e-05
3.67161e-07
6.81172e-05
9.93302e-07
6.80356e-05
1.53795e-06
6.79244e-05
2.11617e-06
6.77791e-05
2.74997e-06
6.75952e-05
3.4864e-06
6.7366e-05
4.35781e-06
6.70773e-05
5.47849e-06
6.67184e-05
6.82593e-06
6.62703e-05
8.56612e-06
6.56593e-05
1.07564e-05
6.49684e-05
1.35662e-05
6.40589e-05
1.70051e-05
6.28887e-05
2.19257e-05
6.13354e-05
2.85695e-05
5.93257e-05
4.00939e-05
5.64804e-05
5.4671e-05
5.2558e-05
8.34083e-05
4.67142e-05
0.000119952
3.70874e-05
0.000203283
2.33112e-05
0.000262172
0.000403668
6.81692e-05
3.86491e-07
6.81172e-05
1.0454e-06
6.80357e-05
1.61876e-06
6.79245e-05
2.2275e-06
6.77793e-05
2.89446e-06
6.75955e-05
3.66972e-06
6.73663e-05
4.58707e-06
6.70776e-05
5.76665e-06
6.67188e-05
7.18525e-06
6.62665e-05
9.01852e-06
6.56598e-05
1.13625e-05
6.49678e-05
1.42567e-05
6.40549e-05
1.79115e-05
6.28858e-05
2.30987e-05
6.13339e-05
3.01218e-05
5.93243e-05
4.21043e-05
5.64823e-05
5.75132e-05
5.25857e-05
8.73052e-05
4.67993e-05
0.000125738
3.73415e-05
0.000212741
2.3645e-05
0.000275868
0.000427313
6.81692e-05
4.05822e-07
6.81172e-05
1.09762e-06
6.80356e-05
1.69978e-06
6.79244e-05
2.3388e-06
6.77792e-05
3.03916e-06
6.75953e-05
3.85321e-06
6.73662e-05
4.81624e-06
6.70776e-05
6.05468e-06
6.67188e-05
7.54451e-06
6.62574e-05
9.48033e-06
6.56654e-05
1.19544e-05
6.49663e-05
1.49553e-05
6.40517e-05
1.88357e-05
6.28836e-05
2.42611e-05
6.1333e-05
3.16725e-05
5.93234e-05
4.41131e-05
5.64848e-05
6.03516e-05
5.26141e-05
9.11755e-05
4.68828e-05
0.000131469
3.75939e-05
0.00022203
2.39874e-05
0.000289475
0.000451301
6.81692e-05
4.25144e-07
6.81172e-05
1.14968e-06
6.80357e-05
1.78059e-06
6.79246e-05
2.45011e-06
6.77794e-05
3.18362e-06
6.75956e-05
4.03649e-06
6.73665e-05
5.04543e-06
6.70778e-05
6.34276e-06
6.67193e-05
7.90353e-06
6.62479e-05
9.95187e-06
6.56719e-05
1.253e-05
6.49649e-05
1.56616e-05
6.40492e-05
1.97451e-05
6.28819e-05
2.54323e-05
6.13326e-05
3.32221e-05
5.93232e-05
4.61232e-05
5.64883e-05
6.31867e-05
5.26442e-05
9.50199e-05
4.69665e-05
0.000137147
3.78465e-05
0.00023115
2.43389e-05
0.000302983
0.00047564
6.81692e-05
4.44469e-07
6.81172e-05
1.20187e-06
6.80356e-05
1.86162e-06
6.79245e-05
2.56139e-06
6.77792e-05
3.3283e-06
6.75954e-05
4.21995e-06
6.73664e-05
5.27451e-06
6.70778e-05
6.63072e-06
6.67195e-05
8.26236e-06
6.62406e-05
1.04312e-05
6.56762e-05
1.30944e-05
6.49636e-05
1.63742e-05
6.40473e-05
2.06692e-05
6.28808e-05
2.65938e-05
6.13328e-05
3.477e-05
5.93241e-05
4.81311e-05
5.64935e-05
6.60171e-05
5.26768e-05
9.88363e-05
4.70515e-05
0.000142772
3.81016e-05
0.0002401
2.47001e-05
0.000316384
0.00050034
6.81692e-05
4.63783e-07
6.81173e-05
1.2539e-06
6.80357e-05
1.94244e-06
6.79246e-05
2.67269e-06
6.77794e-05
3.47273e-06
6.75957e-05
4.4032e-06
6.73667e-05
5.50361e-06
6.70781e-05
6.91873e-06
6.67201e-05
8.62089e-06
6.62366e-05
1.09146e-05
6.56783e-05
1.36526e-05
6.49625e-05
1.70895e-05
6.40458e-05
2.15797e-05
6.288e-05
2.77635e-05
6.13337e-05
3.63166e-05
5.93264e-05
5.01391e-05
5.65008e-05
6.88429e-05
5.27122e-05
0.000102625
4.7139e-05
0.000148346
3.83613e-05
0.000248877
2.50722e-05
0.000329673
0.000525412
6.81692e-05
4.831e-07
6.81172e-05
1.30608e-06
6.80356e-05
2.0235e-06
6.79245e-05
2.78396e-06
6.77793e-05
3.6174e-06
6.75955e-05
4.58663e-06
6.73665e-05
5.73261e-06
6.70781e-05
7.20656e-06
6.672e-05
8.9795e-06
6.62342e-05
1.14009e-05
6.5679e-05
1.42079e-05
6.49615e-05
1.7807e-05
6.40447e-05
2.25035e-05
6.28797e-05
2.89239e-05
6.13353e-05
3.7861e-05
5.93302e-05
5.21433e-05
5.65104e-05
7.16626e-05
5.27505e-05
0.000106385
4.72296e-05
0.000153866
3.86277e-05
0.000257479
2.54564e-05
0.000342844
0.000550868
6.81692e-05
5.02405e-07
6.81173e-05
1.35807e-06
6.80358e-05
2.10432e-06
6.79246e-05
2.89524e-06
6.77795e-05
3.76179e-06
6.75958e-05
4.76983e-06
6.73669e-05
5.96165e-06
6.70785e-05
7.49434e-06
6.67191e-05
9.3394e-06
6.62341e-05
1.18859e-05
6.56791e-05
1.47628e-05
6.49608e-05
1.85249e-05
6.4044e-05
2.34146e-05
6.28798e-05
3.00917e-05
6.13376e-05
3.94035e-05
5.93358e-05
5.41459e-05
5.65224e-05
7.44761e-05
5.27916e-05
0.000110116
4.73236e-05
0.000159334
3.8903e-05
0.0002659
2.58543e-05
0.000355893
0.000576722
6.81692e-05
5.21715e-07
6.81172e-05
1.41022e-06
6.80356e-05
2.18539e-06
6.79245e-05
3.00648e-06
6.77793e-05
3.90644e-06
6.75956e-05
4.95322e-06
6.73667e-05
6.19061e-06
6.70787e-05
7.7818e-06
6.67139e-05
9.70463e-06
6.62372e-05
1.23631e-05
6.56791e-05
1.5321e-05
6.49602e-05
1.92438e-05
6.40435e-05
2.43378e-05
6.28804e-05
3.12503e-05
6.13408e-05
4.0943e-05
5.9343e-05
5.61428e-05
5.65371e-05
7.72819e-05
5.28355e-05
0.000113817
4.74215e-05
0.000164748
3.91891e-05
0.000274132
2.62674e-05
0.000368815
0.00060299
6.81692e-05
5.41012e-07
6.81173e-05
1.46217e-06
6.80358e-05
2.26621e-06
6.79247e-05
3.11773e-06
6.77796e-05
4.0508e-06
6.7596e-05
5.13634e-06
6.7367e-05
6.41964e-06
6.70792e-05
8.06909e-06
6.67071e-05
1.00772e-05
6.62423e-05
1.28278e-05
6.5679e-05
1.58843e-05
6.49598e-05
1.99627e-05
6.40432e-05
2.52488e-05
6.28814e-05
3.24158e-05
6.13447e-05
4.248e-05
5.9352e-05
5.81363e-05
5.65542e-05
8.00799e-05
5.28821e-05
0.00011749
4.75231e-05
0.000170107
3.94877e-05
0.000282168
2.66973e-05
0.000381605
0.000629687
6.81692e-05
5.60314e-07
6.81172e-05
1.51431e-06
6.80357e-05
2.34731e-06
6.79246e-05
3.22895e-06
6.77794e-05
4.19544e-06
6.75958e-05
5.31966e-06
6.73669e-05
6.64857e-06
6.70794e-05
8.356e-06
6.67015e-05
1.04556e-05
6.62461e-05
1.32834e-05
6.56789e-05
1.64516e-05
6.49595e-05
2.06822e-05
6.40433e-05
2.61711e-05
6.28828e-05
3.35719e-05
6.13495e-05
4.40131e-05
5.93625e-05
6.01225e-05
5.65739e-05
8.28683e-05
5.29313e-05
0.000121132
4.76286e-05
0.00017541
3.98001e-05
0.000289996
2.71452e-05
0.00039426
0.000656832
6.81692e-05
5.79601e-07
6.81173e-05
1.56623e-06
6.80358e-05
2.42813e-06
6.79247e-05
3.34019e-06
6.77797e-05
4.33977e-06
6.75962e-05
5.50271e-06
6.73672e-05
6.87757e-06
6.70799e-05
8.64279e-06
6.66981e-05
1.08379e-05
6.62486e-05
1.37328e-05
6.56789e-05
1.70213e-05
6.49593e-05
2.14015e-05
6.40435e-05
2.70815e-05
6.28846e-05
3.47344e-05
6.13551e-05
4.5543e-05
5.93745e-05
6.21038e-05
5.65961e-05
8.56469e-05
5.2983e-05
0.000124745
4.77375e-05
0.000180655
4.0127e-05
0.000297607
2.76126e-05
0.000406774
0.000684445
6.81692e-05
5.98896e-07
6.81172e-05
1.61834e-06
6.80357e-05
2.50923e-06
6.79246e-05
3.45138e-06
6.77795e-05
4.48438e-06
6.75959e-05
5.68597e-06
6.73671e-05
7.10643e-06
6.708e-05
8.92928e-06
6.66959e-05
1.12225e-05
6.62503e-05
1.41787e-05
6.56789e-05
1.75927e-05
6.49592e-05
2.21212e-05
6.4044e-05
2.80026e-05
6.28869e-05
3.58871e-05
6.13613e-05
4.70684e-05
5.93879e-05
6.40763e-05
5.66207e-05
8.84139e-05
5.30374e-05
0.000128328
4.78498e-05
0.000185843
4.04687e-05
0.000304988
2.81002e-05
0.000419143
0.000712545
6.81692e-05
6.18174e-07
6.81173e-05
1.67022e-06
6.80359e-05
2.59005e-06
6.79248e-05
3.56259e-06
6.77798e-05
4.62866e-06
6.75963e-05
5.86896e-06
6.73675e-05
7.33533e-06
6.70805e-05
9.21577e-06
6.66947e-05
1.16087e-05
6.62515e-05
1.46219e-05
6.5679e-05
1.81652e-05
6.49593e-05
2.28406e-05
6.40447e-05
2.8912e-05
6.28895e-05
3.70459e-05
6.13682e-05
4.85901e-05
5.94026e-05
6.60428e-05
5.66477e-05
9.1169e-05
5.30944e-05
0.000131882
4.79652e-05
0.000190972
4.08252e-05
0.000312128
2.86086e-05
0.00043136
0.000741154
6.81692e-05
6.37462e-07
6.81172e-05
1.72231e-06
6.80357e-05
2.67117e-06
6.79246e-05
3.67376e-06
6.77796e-05
4.77325e-06
6.75961e-05
6.05217e-06
6.73674e-05
7.56405e-06
6.70805e-05
9.50209e-06
6.6694e-05
1.19956e-05
6.62525e-05
1.50636e-05
6.56792e-05
1.87386e-05
6.49595e-05
2.35604e-05
6.40456e-05
2.98316e-05
6.28926e-05
3.81945e-05
6.13758e-05
5.01066e-05
5.94185e-05
6.79992e-05
5.66772e-05
9.39101e-05
5.31541e-05
0.000135404
4.80836e-05
0.000196042
4.1196e-05
0.000319016
2.91382e-05
0.000443417
0.000770292
6.81692e-05
6.56731e-07
6.81173e-05
1.77415e-06
6.80359e-05
2.75199e-06
6.79248e-05
3.78494e-06
6.77799e-05
4.91748e-06
6.75965e-05
6.23509e-06
6.73678e-05
7.79278e-06
6.70809e-05
9.78853e-06
6.66938e-05
1.23831e-05
6.62534e-05
1.55039e-05
6.56794e-05
1.93125e-05
6.49598e-05
2.42798e-05
6.40467e-05
3.07396e-05
6.28959e-05
3.93491e-05
6.13839e-05
5.1619e-05
5.94356e-05
6.99483e-05
5.6709e-05
9.6637e-05
5.32166e-05
0.000138897
4.8205e-05
0.000201054
4.15807e-05
0.00032564
2.96891e-05
0.000455309
0.000799981
6.81692e-05
6.76011e-07
6.81172e-05
1.82622e-06
6.80357e-05
2.83311e-06
6.79247e-05
3.89608e-06
6.77797e-05
5.06203e-06
6.75962e-05
6.41826e-06
6.73677e-05
8.02127e-06
6.70808e-05
1.00749e-05
6.66936e-05
1.27707e-05
6.62542e-05
1.59435e-05
6.56797e-05
1.9887e-05
6.49602e-05
2.49995e-05
6.4048e-05
3.16572e-05
6.28996e-05
4.04928e-05
6.13926e-05
5.31257e-05
5.94538e-05
7.18862e-05
5.67432e-05
9.93474e-05
5.3282e-05
0.000142358
4.83295e-05
0.000206006
4.19789e-05
0.000331991
3.02614e-05
0.000467026
0.000830242
6.81692e-05
6.95272e-07
6.81174e-05
1.87803e-06
6.80359e-05
2.91392e-06
6.79249e-05
4.00723e-06
6.778e-05
5.20619e-06
6.75967e-05
6.60114e-06
6.73682e-05
8.24974e-06
6.70809e-05
1.03618e-05
6.6694e-05
1.3158e-05
6.6255e-05
1.63825e-05
6.56801e-05
2.04618e-05
6.49607e-05
2.57186e-05
6.40495e-05
3.25634e-05
6.29036e-05
4.16425e-05
6.14018e-05
5.4628e-05
5.94731e-05
7.38157e-05
5.67797e-05
0.000102041
5.33503e-05
0.000145788
4.84574e-05
0.0002109
4.23903e-05
0.000338058
3.08553e-05
0.000478561
0.000861098
6.81692e-05
7.14547e-07
6.81172e-05
1.93007e-06
6.80358e-05
2.99504e-06
6.79248e-05
4.11835e-06
6.77798e-05
5.35069e-06
6.75964e-05
6.78427e-06
6.73682e-05
8.47795e-06
6.70784e-05
1.0651e-05
6.66962e-05
1.35404e-05
6.62557e-05
1.68231e-05
6.56806e-05
2.1037e-05
6.49613e-05
2.6438e-05
6.40511e-05
3.3479e-05
6.29079e-05
4.2781e-05
6.14115e-05
5.6124e-05
5.94934e-05
7.57328e-05
5.68184e-05
0.000104716
5.34218e-05
0.000149184
4.8589e-05
0.000215732
4.2815e-05
0.000343832
3.1471e-05
0.000489905
0.000892569
6.81692e-05
7.338e-07
6.81174e-05
1.98184e-06
6.8036e-05
3.07582e-06
6.7925e-05
4.22946e-06
6.77801e-05
5.49478e-06
6.75969e-05
6.9671e-06
6.73687e-05
8.70614e-06
6.70703e-05
1.0949e-05
6.67038e-05
1.3907e-05
6.62564e-05
1.72704e-05
6.56811e-05
2.16123e-05
6.4962e-05
2.71568e-05
6.4053e-05
3.4383e-05
6.29125e-05
4.39254e-05
6.14218e-05
5.76153e-05
5.95148e-05
7.76406e-05
5.68594e-05
0.000107372
5.34967e-05
0.000152547
4.87247e-05
0.000220504
4.32534e-05
0.000349303
3.21091e-05
0.00050105
0.000924678
6.81692e-05
7.53069e-07
6.81172e-05
2.03387e-06
6.80358e-05
3.15694e-06
6.79248e-05
4.34054e-06
6.77799e-05
5.63922e-06
6.75966e-05
7.15018e-06
6.73686e-05
8.93412e-06
6.70633e-05
1.12538e-05
6.67102e-05
1.42601e-05
6.62571e-05
1.77237e-05
6.56816e-05
2.21879e-05
6.49628e-05
2.78757e-05
6.40549e-05
3.52964e-05
6.29174e-05
4.50582e-05
6.14325e-05
5.90997e-05
5.95373e-05
7.95349e-05
5.69025e-05
0.000110006
5.3575e-05
0.000155874
4.88646e-05
0.000225215
4.37058e-05
0.000354462
3.27702e-05
0.000511985
0.000957448
6.81692e-05
7.72315e-07
6.81174e-05
2.0856e-06
6.8036e-05
3.2377e-06
6.79251e-05
4.45162e-06
6.77803e-05
5.78326e-06
6.75971e-05
7.33291e-06
6.73691e-05
9.1622e-06
6.70609e-05
1.15616e-05
6.67127e-05
1.46083e-05
6.62578e-05
1.81785e-05
6.56822e-05
2.27634e-05
6.49637e-05
2.85939e-05
6.40571e-05
3.61978e-05
6.29226e-05
4.61969e-05
6.14438e-05
6.05791e-05
5.95607e-05
8.1419e-05
5.69476e-05
0.000112619
5.36571e-05
0.000159165
4.90088e-05
0.000229863
4.4172e-05
0.000359299
3.34548e-05
0.000522703
0.000990903
6.81692e-05
7.91578e-07
6.81173e-05
2.13759e-06
6.80358e-05
3.31879e-06
6.79249e-05
4.56265e-06
6.778e-05
5.92765e-06
6.75969e-05
7.51579e-06
6.73677e-05
9.3914e-06
6.70605e-05
1.18684e-05
6.67135e-05
1.49553e-05
6.62583e-05
1.86338e-05
6.56828e-05
2.33389e-05
6.49647e-05
2.93122e-05
6.40594e-05
3.71098e-05
6.29281e-05
4.73228e-05
6.14557e-05
6.20508e-05
5.95851e-05
8.32884e-05
5.69946e-05
0.00011521
5.37433e-05
0.000162416
4.91568e-05
0.000234449
4.46506e-05
0.000363805
3.41622e-05
0.000533191
0.00102506
6.81692e-05
8.10819e-07
6.81174e-05
2.18932e-06
6.8036e-05
3.39957e-06
6.79251e-05
4.67367e-06
6.77803e-05
6.07173e-06
6.75976e-05
7.69811e-06
6.736e-05
9.62899e-06
6.70656e-05
1.21627e-05
6.67139e-05
1.5307e-05
6.62588e-05
1.90887e-05
6.56835e-05
2.39142e-05
6.49657e-05
3.00296e-05
6.40618e-05
3.80079e-05
6.29338e-05
4.84555e-05
6.14681e-05
6.35173e-05
5.96105e-05
8.5147e-05
5.70433e-05
0.000117777
5.38338e-05
0.000165626
4.9308e-05
0.000238975
4.51368e-05
0.000367976
3.48893e-05
0.000543438
0.00105995
6.81692e-05
8.30077e-07
6.81173e-05
2.24129e-06
6.80359e-05
3.48068e-06
6.7925e-05
4.78464e-06
6.77801e-05
6.21622e-06
6.75976e-05
7.8804e-06
6.73521e-05
9.8744e-06
6.70708e-05
1.24439e-05
6.6714e-05
1.56639e-05
6.62593e-05
1.95436e-05
6.56842e-05
2.44894e-05
6.49669e-05
3.07471e-05
6.40643e-05
3.89173e-05
6.29399e-05
4.95744e-05
6.1481e-05
6.49755e-05
5.96368e-05
8.69901e-05
5.70937e-05
0.00012032
5.3929e-05
0.00016879
4.94621e-05
0.000243442
4.56211e-05
0.000371817
3.56282e-05
0.000553431
0.00109558
6.81691e-05
8.49247e-07
6.81175e-05
2.29288e-06
6.80361e-05
3.56135e-06
6.79253e-05
4.89561e-06
6.77805e-05
6.36019e-06
6.75982e-05
8.06222e-06
6.73497e-05
1.01229e-05
6.70724e-05
1.27213e-05
6.6714e-05
1.60223e-05
6.62596e-05
1.99978e-05
6.56849e-05
2.50641e-05
6.49681e-05
3.14636e-05
6.40669e-05
3.98125e-05
6.29462e-05
5.06998e-05
6.14944e-05
6.64281e-05
5.9664e-05
8.88214e-05
5.71452e-05
0.000122839
5.40301e-05
0.000171905
4.96178e-05
0.000247855
4.60999e-05
0.000375335
3.6458e-05
0.000563073
0.00113204
-7.2316e-06
7.23161e-06
-1.24703e-05
5.23871e-06
-1.28142e-05
3.43836e-07
-9.80101e-06
-3.0134e-06
-7.17114e-06
-2.6294e-06
-5.79327e-06
-1.37885e-06
-5.15038e-06
-6.43771e-07
-4.91261e-06
-2.39502e-07
-4.70984e-06
-2.12524e-07
-4.46463e-06
-2.58108e-07
-3.93462e-06
-6.15997e-07
-2.54894e-06
-1.28276e-06
-7.28059e-08
-2.45472e-06
3.06114e-06
-3.13426e-06
6.57777e-06
-3.5224e-06
1.04781e-05
-3.90438e-06
1.47685e-05
-4.29233e-06
1.92205e-05
-4.45231e-06
2.34751e-05
-4.25501e-06
2.73609e-05
-3.88484e-06
3.09981e-05
-3.63584e-06
3.45491e-05
-3.55196e-06
3.82121e-05
-3.66319e-06
4.22354e-05
-4.02306e-06
4.77266e-05
-5.48972e-06
5.58417e-05
-8.11647e-06
6.29512e-05
-7.10977e-06
6.58144e-05
-2.86291e-06
6.65094e-05
-6.95063e-07
6.67334e-05
-2.24084e-07
6.69411e-05
-2.07729e-07
6.71471e-05
-2.05945e-07
6.73146e-05
-1.67478e-07
6.74516e-05
-1.36994e-07
-6.51189e-08
-7.09803e-06
1.43297e-05
-1.23003e-05
1.0441e-05
-1.26597e-05
7.03199e-07
-9.65975e-06
-6.0138e-06
-7.04832e-06
-5.23999e-06
-5.6694e-06
-2.75964e-06
-5.00255e-06
-1.31234e-06
-4.73005e-06
-5.15423e-07
-4.51592e-06
-4.45044e-07
-4.35673e-06
-4.42234e-07
-4.00231e-06
-1.10639e-06
-2.75429e-06
-2.3609e-06
-2.89944e-07
-4.87696e-06
3.00945e-06
-6.43377e-06
6.65454e-06
-7.17887e-06
1.05114e-05
-7.7695e-06
1.46628e-05
-8.44776e-06
1.90102e-05
-8.80039e-06
2.3232e-05
-8.47741e-06
2.7131e-05
-7.78194e-06
3.07899e-05
-7.29218e-06
3.43508e-05
-7.11454e-06
3.79907e-05
-7.30355e-06
4.19368e-05
-7.96875e-06
4.72575e-05
-1.08076e-05
5.53885e-05
-1.62502e-05
6.27644e-05
-1.44862e-05
6.57839e-05
-5.88181e-06
6.65133e-05
-1.42453e-06
6.67379e-05
-4.48789e-07
6.69429e-05
-4.12834e-07
6.71482e-05
-4.11178e-07
6.73157e-05
-3.34974e-07
6.74526e-05
-2.73902e-07
-1.30233e-07
-6.96023e-06
2.12899e-05
-1.21059e-05
1.55866e-05
-1.24535e-05
1.05071e-06
-9.45217e-06
-9.01552e-06
-6.8591e-06
-7.83222e-06
-5.47914e-06
-4.14144e-06
-4.79107e-06
-2.00195e-06
-4.50192e-06
-8.07645e-07
-4.32457e-06
-6.39667e-07
-4.2958e-06
-4.93941e-07
-4.09947e-06
-1.44242e-06
-2.92715e-06
-3.355e-06
-3.91354e-07
-7.36918e-06
3.07243e-06
-9.89833e-06
6.80571e-06
-1.09249e-05
1.0584e-05
-1.15568e-05
1.45813e-05
-1.24492e-05
1.88245e-05
-1.30443e-05
2.30202e-05
-1.2674e-05
2.69372e-05
-1.1697e-05
3.06233e-05
-1.09757e-05
3.41973e-05
-1.06903e-05
3.78177e-05
-1.09243e-05
4.16943e-05
-1.1845e-05
4.68497e-05
-1.59602e-05
5.4973e-05
-2.43762e-05
6.25859e-05
-2.20996e-05
6.57552e-05
-9.05047e-06
6.65175e-05
-2.18696e-06
6.67427e-05
-6.74096e-07
6.69451e-05
-6.1533e-07
6.71497e-05
-6.15683e-07
6.73171e-05
-5.02374e-07
6.74538e-05
-4.10633e-07
-1.95257e-07
-6.80409e-06
2.8094e-05
-1.18808e-05
2.06632e-05
-1.21891e-05
1.35889e-06
-9.168e-06
-1.20371e-05
-6.60535e-06
-1.0394e-05
-5.23871e-06
-5.51006e-06
-4.54381e-06
-2.69858e-06
-4.2513e-06
-1.10368e-06
-4.11995e-06
-7.89243e-07
-4.21886e-06
-4.20363e-07
-4.16615e-06
-1.61133e-06
-3.04901e-06
-4.3093e-06
-4.21368e-07
-9.94562e-06
3.21752e-06
-1.35372e-05
7.0384e-06
-1.47613e-05
1.07236e-05
-1.52536e-05
1.45428e-05
-1.62738e-05
1.86635e-05
-1.7166e-05
2.28309e-05
-1.68421e-05
2.67744e-05
-1.56383e-05
3.04953e-05
-1.46936e-05
3.40869e-05
-1.42839e-05
3.76927e-05
-1.45305e-05
4.15073e-05
-1.56592e-05
4.65022e-05
-2.09521e-05
5.45944e-05
-3.24712e-05
6.24144e-05
-2.99203e-05
6.57275e-05
-1.23629e-05
6.6522e-05
-2.98162e-06
6.67479e-05
-8.99988e-07
6.69477e-05
-8.15291e-07
6.71515e-05
-8.19417e-07
6.73187e-05
-6.69586e-07
6.74552e-05
-5.47077e-07
-2.60117e-07
-6.6293e-06
3.47233e-05
-1.16206e-05
2.56545e-05
-1.18566e-05
1.59478e-06
-8.80043e-06
-1.50937e-05
-6.28574e-06
-1.29079e-05
-4.94865e-06
-6.84909e-06
-4.26107e-06
-3.38766e-06
-3.97472e-06
-1.39311e-06
-3.8947e-06
-8.86142e-07
-4.11635e-06
-2.22089e-07
-4.19176e-06
-1.6433e-06
-3.10625e-06
-5.23604e-06
-3.59416e-07
-1.26395e-05
3.47342e-06
-1.73714e-05
7.38513e-06
-1.86906e-05
1.09608e-05
-1.88423e-05
1.45696e-05
-1.98886e-05
1.8538e-05
-2.11355e-05
2.26683e-05
-2.09735e-05
2.66457e-05
-1.96133e-05
3.0409e-05
-1.84539e-05
3.40224e-05
-1.78994e-05
3.76175e-05
-1.8126e-05
4.13765e-05
-1.94179e-05
4.62145e-05
-2.57873e-05
5.42516e-05
-4.05111e-05
6.22491e-05
-3.79183e-05
6.57009e-05
-1.58142e-05
6.6527e-05
-3.80782e-06
6.67534e-05
-1.12643e-06
6.69508e-05
-1.01276e-06
6.71537e-05
-1.02233e-06
6.73206e-05
-8.36507e-07
6.74567e-05
-6.83127e-07
-3.24741e-07
-6.43516e-06
4.11585e-05
-1.13201e-05
3.05394e-05
-1.14457e-05
1.72031e-06
-8.34208e-06
-1.81979e-05
-5.89718e-06
-1.5352e-05
-4.60661e-06
-8.14183e-06
-3.93974e-06
-4.05633e-06
-3.6659e-06
-1.67083e-06
-3.63985e-06
-9.31148e-07
-3.97738e-06
8.81611e-08
-4.16253e-06
-1.5477e-06
-3.07997e-06
-6.16713e-06
-1.81145e-07
-1.54748e-05
3.86947e-06
-2.14218e-05
7.87998e-06
-2.27225e-05
1.13327e-05
-2.23125e-05
1.46962e-05
-2.32601e-05
1.84743e-05
-2.4915e-05
2.25488e-05
-2.50491e-05
2.65622e-05
-2.36237e-05
3.03735e-05
-2.22615e-05
3.40115e-05
-2.15398e-05
3.7598e-05
-2.17131e-05
4.1305e-05
-2.31244e-05
4.59874e-05
-3.04665e-05
5.39438e-05
-4.84707e-05
6.20892e-05
-4.60643e-05
6.56752e-05
-1.93995e-05
6.65322e-05
-4.66494e-06
6.67592e-05
-1.35346e-06
6.69542e-05
-1.20783e-06
6.71562e-05
-1.22438e-06
6.73228e-05
-1.00304e-06
6.74583e-05
-8.18671e-07
-3.89052e-07
-6.22069e-06
4.73792e-05
-1.09731e-05
3.52917e-05
-1.09467e-05
1.69392e-06
-7.78656e-06
-2.13587e-05
-5.43526e-06
-1.77024e-05
-4.20751e-06
-9.37172e-06
-3.57367e-06
-4.6917e-06
-3.31611e-06
-1.93183e-06
-3.34458e-06
-9.20495e-07
-3.78975e-06
5.07252e-07
-4.06307e-06
-1.35136e-06
-2.9498e-06
-7.13714e-06
1.35415e-07
-1.84954e-05
4.42923e-06
-2.57173e-05
8.55435e-06
-2.68702e-05
1.18807e-05
-2.5658e-05
1.49673e-05
-2.63552e-05
1.85121e-05
-2.84614e-05
2.25017e-05
-2.90405e-05
2.65446e-05
-2.76631e-05
3.04054e-05
-2.61184e-05
3.40689e-05
-2.52062e-05
3.76461e-05
-2.52907e-05
4.13006e-05
-2.67784e-05
4.58245e-05
-3.49871e-05
5.36717e-05
-5.63213e-05
6.19347e-05
-5.43278e-05
6.56505e-05
-2.31148e-05
6.65378e-05
-5.55228e-06
6.67654e-05
-1.58108e-06
6.6958e-05
-1.40053e-06
6.71592e-05
-1.42552e-06
6.73252e-05
-1.16909e-06
6.74601e-05
-9.536e-07
-4.52978e-07
-5.98466e-06
5.33639e-05
-1.0573e-05
3.98799e-05
-1.03535e-05
1.47433e-06
-7.13297e-06
-2.45799e-05
-4.89677e-06
-1.99378e-05
-3.74519e-06
-1.05257e-05
-3.15483e-06
-5.28405e-06
-2.91487e-06
-2.17632e-06
-2.99641e-06
-8.60056e-07
-3.53926e-06
1.01839e-06
-3.87524e-06
-1.08148e-06
-2.69249e-06
-8.17324e-06
6.10531e-07
-2.17189e-05
5.16569e-06
-3.02718e-05
9.42885e-06
-3.11599e-05
1.26455e-05
-2.88994e-05
1.54354e-05
-2.91569e-05
1.87035e-05
-3.17317e-05
2.257e-05
-3.29086e-05
2.66251e-05
-3.17139e-05
3.05319e-05
-3.00202e-05
3.42195e-05
-2.88972e-05
3.77823e-05