/*--------------------------------*- C++ -*----------------------------------*\
| =========                 |                                                 |
| \\      /  F ield         | OpenFOAM: The Open Source CFD Toolbox           |
|  \\    /   O peration     | Version:  v1912                                 |
|   \\  /    A nd           | Website:  www.openfoam.com                      |
|    \\/     M anipulation  |                                                 |
\*---------------------------------------------------------------------------*/
FoamFile
{
    version     2.0;
    format      ascii;
    class       volVectorField;
    location    "210";
    object      U;
}
// * * * * * * * * * * * * * * * * * * * * * * * * * * * * * * * * * * * * * //

dimensions      [0 1 -1 0 0 0 0];


internalField   nonuniform List<vector> 
12441
(
(29.9989 1.62289e-05 0)
(29.986 4.93211e-05 0)
(29.958 8.64854e-05 0)
(29.9151 0.00013352 0)
(29.8589 0.000194551 0)
(29.7872 0.000277379 0)
(29.6973 0.0003893 0)
(29.585 0.000550612 0)
(29.4438 0.000769805 0)
(29.2693 0.0010896 0)
(29.0442 0.00150036 0)
(28.7832 0.00218196 0)
(28.411 0.00300525 0)
(28.0062 0.00438159 0)
(27.4332 0.00621781 0)
(26.649 0.0111068 0)
(25.6207 0.0146497 0)
(24.0078 0.0304469 0)
(21.7355 0.0516439 0)
(18.1214 0.0905544 0)
(12.3454 0.123348 0)
(5.94664 0.2006 0)
(29.9989 4.81939e-05 0)
(29.986 0.000147272 0)
(29.958 0.000257778 0)
(29.9151 0.000397525 0)
(29.8589 0.000581058 0)
(29.7873 0.000827735 0)
(29.6974 0.00116392 0)
(29.5852 0.00164419 0)
(29.444 0.00230054 0)
(29.2697 0.00325971 0)
(29.0439 0.00448672 0)
(28.7831 0.00657084 0)
(28.4113 0.00897039 0)
(28.0053 0.0131652 0)
(27.4296 0.018714 0)
(26.6471 0.0331759 0)
(25.6197 0.0466811 0)
(24.0063 0.087236 0)
(21.734 0.134749 0)
(18.1181 0.262017 0)
(12.3452 0.3624 0)
(5.94922 0.598916 0)
(29.9989 8.00397e-05 0)
(29.986 0.000244998 0)
(29.958 0.000427911 0)
(29.9151 0.000660844 0)
(29.8589 0.000966406 0)
(29.7872 0.00137754 0)
(29.6974 0.00193597 0)
(29.5852 0.00273601 0)
(29.444 0.00383075 0)
(29.2698 0.00542611 0)
(29.0436 0.00747554 0)
(28.7846 0.0109416 0)
(28.408 0.0149472 0)
(28.0085 0.0219536 0)
(27.4336 0.0312287 0)
(26.6512 0.0543918 0)
(25.6231 0.0793833 0)
(24.0114 0.14222 0)
(21.7365 0.215374 0)
(18.1166 0.431151 0)
(12.3495 0.598001 0)
(5.95606 0.995182 0)
(29.9989 0.000112281 0)
(29.986 0.000343441 0)
(29.958 0.000598989 0)
(29.9151 0.000925603 0)
(29.859 0.00135344 0)
(29.7873 0.00192882 0)
(29.6974 0.00271059 0)
(29.5852 0.00383134 0)
(29.444 0.00536469 0)
(29.2698 0.0075982 0)
(29.044 0.0104696 0)
(28.7834 0.0153214 0)
(28.412 0.0209454 0)
(28.0049 0.0307543 0)
(27.43 0.0437558 0)
(26.6482 0.0756834 0)
(25.6227 0.111357 0)
(24.0153 0.200239 0)
(21.7443 0.32075 0)
(18.1203 0.608288 0)
(12.3604 0.837585 0)
(5.96779 1.39309 0)
(29.9989 0.000144583 0)
(29.986 0.000441794 0)
(29.958 0.000769918 0)
(29.9151 0.00119011 0)
(29.8589 0.00173999 0)
(29.7873 0.00247954 0)
(29.6974 0.00348477 0)
(29.5852 0.00492612 0)
(29.444 0.00689765 0)
(29.2698 0.00976913 0)
(29.0437 0.013461 0)
(28.7848 0.0197008 0)
(28.4076 0.0269582 0)
(28.0081 0.0395432 0)
(27.4338 0.0563181 0)
(26.6513 0.0967408 0)
(25.6263 0.142812 0)
(24.02 0.258997 0)
(21.7551 0.408885 0)
(18.13 0.781615 0)
(12.3793 1.07692 0)
(5.98467 1.79226 0)
(29.9989 0.000176886 0)
(29.986 0.000540086 0)
(29.958 0.000940804 0)
(29.9152 0.00145458 0)
(29.859 0.0021265 0)
(29.7873 0.00303039 0)
(29.6975 0.00425918 0)
(29.5853 0.00602106 0)
(29.4441 0.00843087 0)
(29.2698 0.01194 0)
(29.0442 0.0164551 0)
(28.7833 0.0240747 0)
(28.4135 0.0329764 0)
(28.0045 0.0483281 0)
(27.4307 0.068886 0)
(26.649 0.117695 0)
(25.6269 0.174006 0)
(24.0235 0.317174 0)
(21.7674 0.495452 0)
(18.146 0.953653 0)
(12.4073 1.31593 0)
(6.00706 2.19249 0)
(29.9989 0.000209187 0)
(29.986 0.000638356 0)
(29.958 0.00111168 0)
(29.9152 0.00171905 0)
(29.859 0.00251302 0)
(29.7873 0.0035813 0)
(29.6975 0.00503359 0)
(29.5853 0.007116 0)
(29.4441 0.00996418 0)
(29.2699 0.014111 0)
(29.0439 0.0194482 0)
(28.7847 0.0284533 0)
(28.4076 0.0389937 0)
(28.0091 0.0570858 0)
(27.4355 0.0814625 0)
(26.6528 0.138503 0)
(25.6316 0.204533 0)
(24.0283 0.372949 0)
(21.7832 0.584211 0)
(18.1702 1.12581 0)
(12.4465 1.55501 0)
(6.03537 2.5941 0)
(29.9989 0.00024149 0)
(29.986 0.000736599 0)
(29.958 0.00128252 0)
(29.9152 0.00198348 0)
(29.859 0.00289948 0)
(29.7874 0.00413218 0)
(29.6975 0.00580797 0)
(29.5854 0.00821093 0)
(29.4442 0.0114977 0)
(29.2699 0.0162813 0)
(29.0445 0.0224448 0)
(28.7831 0.0328215 0)
(28.4157 0.0450097 0)
(28.0051 0.0658131 0)
(27.4321 0.093888 0)
(26.65 0.158982 0)
(25.6347 0.236589 0)
(24.0331 0.430822 0)
(21.8069 0.674169 0)
(18.207 1.29749 0)
(12.4993 1.79432 0)
(6.07014 2.99752 0)
(29.9989 0.000273794 0)
(29.986 0.000834817 0)
(29.958 0.00145334 0)
(29.9152 0.00224792 0)
(29.859 0.00328591 0)
(29.7873 0.00468307 0)
(29.6975 0.00658236 0)
(29.5853 0.00930594 0)
(29.4442 0.0130312 0)
(29.27 0.018452 0)
(29.0443 0.025439 0)
(28.7847 0.0372002 0)
(28.4074 0.0510256 0)
(28.0092 0.0746456 0)
(27.438 0.106456 0)
(26.6532 0.179915 0)
(25.6397 0.26718 0)
(24.0382 0.488292 0)
(21.844 0.76386 0)
(18.261 1.46824 0)
(12.5683 2.03406 0)
(6.11195 3.40323 0)
(29.9989 0.000306098 0)
(29.986 0.000933005 0)
(29.9581 0.00162414 0)
(29.9152 0.00251233 0)
(29.859 0.00367228 0)
(29.7874 0.00523393 0)
(29.6976 0.00735673 0)
(29.5854 0.0104009 0)
(29.4443 0.0145649 0)
(29.27 0.0206215 0)
(29.045 0.0284373 0)
(28.7827 0.0415623 0)
(28.4194 0.0570654 0)
(28.0066 0.0832176 0)
(27.4376 0.119668 0)
(26.6501 0.201177 0)
(25.6421 0.29823 0)
(24.0448 0.543992 0)
(21.895 0.853127 0)
(18.334 1.63812 0)
(12.6553 2.27447 0)
(6.16136 3.81176 0)
(29.9989 0.000338402 0)
(29.986 0.00103117 0)
(29.958 0.00179492 0)
(29.9152 0.00277674 0)
(29.859 0.00405863 0)
(29.7874 0.00578481 0)
(29.6976 0.00813109 0)
(29.5854 0.0114959 0)
(29.4443 0.0160986 0)
(29.27 0.0227908 0)
(29.0448 0.0314379 0)
(28.7838 0.0459248 0)
(28.4098 0.063153 0)
(28.0038 0.0918264 0)
(27.4368 0.132201 0)
(26.6431 0.221375 0)
(25.6432 0.330383 0)
(24.0575 0.599144 0)
(21.9535 0.94206 0)
(18.4219 1.80697 0)
(12.7606 2.51574 0)
(6.2189 4.22366 0)
(29.9989 0.000370705 0)
(29.986 0.00112931 0)
(29.9581 0.00196569 0)
(29.9152 0.00304111 0)
(29.8591 0.00444491 0)
(29.7875 0.00633564 0)
(29.6977 0.00890543 0)
(29.5855 0.0125908 0)
(29.4444 0.0176326 0)
(29.2701 0.0249581 0)
(29.0458 0.0344469 0)
(28.7808 0.0502632 0)
(28.4248 0.0692597 0)
(27.9998 0.100739 0)
(27.4305 0.145607 0)
(26.6342 0.241993 0)
(25.6449 0.362615 0)
(24.0753 0.652893 0)
(22.0101 1.03005 0)
(18.517 1.97433 0)
(12.8827 2.75795 0)
(6.28494 4.63951 0)
(29.9989 0.000403005 0)
(29.986 0.00122742 0)
(29.958 0.00213645 0)
(29.9152 0.00330549 0)
(29.8591 0.00483118 0)
(29.7874 0.00688648 0)
(29.6976 0.00967977 0)
(29.5855 0.0136855 0)
(29.4445 0.0191668 0)
(29.2701 0.027123 0)
(29.0461 0.0374668 0)
(28.7803 0.0546145 0)
(28.4221 0.0753558 0)
(27.9958 0.109834 0)
(27.4236 0.159436 0)
(26.6275 0.262363 0)
(25.647 0.394537 0)
(24.0932 0.704983 0)
(22.059 1.1168 0)
(18.6118 2.13976 0)
(13.0186 3.00094 0)
(6.35967 5.05984 0)
(29.9989 0.000435303 0)
(29.986 0.00132551 0)
(29.9581 0.00230721 0)
(29.9152 0.00356984 0)
(29.8591 0.00521739 0)
(29.7875 0.00743728 0)
(29.6977 0.0104541 0)
(29.5856 0.0147802 0)
(29.4446 0.0207011 0)
(29.2701 0.029286 0)
(29.0473 0.0405149 0)
(28.7771 0.0589365 0)
(28.4364 0.0818155 0)
(27.9915 0.119085 0)
(27.4173 0.173005 0)
(26.6233 0.282165 0)
(25.6486 0.426021 0)
(24.108 0.755716 0)
(22.0994 1.20238 0)
(18.7014 2.30301 0)
(13.1648 3.24446 0)
(6.44302 5.4851 0)
(29.9989 0.000467599 0)
(29.986 0.00142357 0)
(29.958 0.00247797 0)
(29.9152 0.00383419 0)
(29.8591 0.0056036 0)
(29.7874 0.00798807 0)
(29.6977 0.0112284 0)
(29.5856 0.0158745 0)
(29.4446 0.0222363 0)
(29.2701 0.0314415 0)
(29.0478 0.0436066 0)
(28.7756 0.0630957 0)
(28.4354 0.0881326 0)
(27.9863 0.128169 0)
(27.4127 0.186494 0)
(26.6207 0.301733 0)
(25.6495 0.457271 0)
(24.1191 0.805516 0)
(22.1324 1.28691 0)
(18.7836 2.46393 0)
(13.3182 3.48818 0)
(6.53476 5.91569 0)
(29.9989 0.000499891 0)
(29.986 0.0015216 0)
(29.9581 0.00264873 0)
(29.9152 0.00409851 0)
(29.8591 0.00598974 0)
(29.7875 0.00853881 0)
(29.6978 0.0120026 0)
(29.5857 0.016969 0)
(29.4447 0.0237706 0)
(29.2702 0.033599 0)
(29.0484 0.0467151 0)
(28.7743 0.0673846 0)
(28.4346 0.0944147 0)
(27.9811 0.137149 0)
(27.4094 0.199895 0)
(26.619 0.321232 0)
(25.6495 0.488411 0)
(24.127 0.85471 0)
(22.1601 1.37047 0)
(18.858 2.6224 0)
(13.4759 3.73174 0)
(6.63449 6.35192 0)
(29.9989 0.000532178 0)
(29.986 0.00161961 0)
(29.958 0.0028195 0)
(29.9152 0.00436283 0)
(29.8591 0.00637588 0)
(29.7875 0.00908955 0)
(29.6977 0.0127767 0)
(29.5856 0.0180634 0)
(29.4448 0.0253055 0)
(29.2702 0.0357501 0)
(29.0488 0.0499014 0)
(28.7731 0.0716854 0)
(28.4309 0.100676 0)
(27.9772 0.146089 0)
(27.407 0.213284 0)
(26.6179 0.340705 0)
(25.649 0.519483 0)
(24.1326 0.90348 0)
(22.184 1.45317 0)
(18.9254 2.77836 0)
(13.6361 3.9748 0)
(6.74175 6.79406 0)
(29.9989 0.000564461 0)
(29.986 0.00171759 0)
(29.9581 0.00299027 0)
(29.9153 0.00462712 0)
(29.8592 0.00676197 0)
(29.7876 0.00964024 0)
(29.6979 0.0135508 0)
(29.5858 0.0191576 0)
(29.4449 0.0268406 0)
(29.2704 0.0378952 0)
(29.0493 0.0531127 0)
(28.7722 0.0760456 0)
(28.4282 0.10686 0)
(27.9742 0.155027 0)
(27.4052 0.22667 0)
(26.6172 0.360175 0)
(25.6482 0.55051 0)
(24.1366 0.95193 0)
(22.2057 1.53504 0)
(18.9869 2.93176 0)
(13.7977 4.21708 0)
(6.85607 7.24231 0)
(29.9989 0.000596739 0)
(29.986 0.00181555 0)
(29.958 0.00316105 0)
(29.9152 0.00489142 0)
(29.8591 0.00714804 0)
(29.7875 0.0101909 0)
(29.6978 0.0143248 0)
(29.5857 0.0202518 0)
(29.4449 0.0283747 0)
(29.2704 0.0400514 0)
(29.0496 0.0563126 0)
(28.7711 0.0803184 0)
(28.4258 0.11307 0)
(27.972 0.163958 0)
(27.4039 0.240056 0)
(26.6167 0.379642 0)
(25.6471 0.581503 0)
(24.1397 1.00011 0)
(22.2264 1.61612 0)
(19.0438 3.08256 0)
(13.96 4.4583 0)
(6.97704 7.69687 0)
(29.9989 0.000629012 0)
(29.986 0.00191348 0)
(29.9581 0.00333184 0)
(29.9153 0.00515567 0)
(29.8592 0.00753406 0)
(29.7876 0.0107415 0)
(29.6979 0.0150988 0)
(29.5859 0.0213458 0)
(29.4451 0.0299101 0)
(29.2706 0.0422156 0)
(29.0501 0.0595757 0)
(28.7702 0.0845327 0)
(28.424 0.119269 0)
(27.9703 0.172903 0)
(27.4028 0.253437 0)
(26.6165 0.399113 0)
(25.6461 0.612473 0)
(24.1425 1.04805 0)
(22.2469 1.69643 0)
(19.0974 3.23075 0)
(14.123 4.69822 0)
(7.10427 8.1579 0)
(29.9989 0.000661279 0)
(29.9861 0.00201139 0)
(29.9581 0.00350264 0)
(29.9152 0.00541993 0)
(29.8591 0.00792008 0)
(29.7876 0.0112921 0)
(29.6979 0.0158726 0)
(29.5858 0.0224393 0)
(29.4452 0.031446 0)
(29.2707 0.0443962 0)
(29.05 0.0628374 0)
(28.7694 0.0887557 0)
(28.4226 0.1255 0)
(27.969 0.181847 0)
(27.402 0.266812 0)
(26.6164 0.41859 0)
(25.6452 0.643428 0)
(24.1454 1.09575 0)
(22.268 1.77599 0)
(19.1489 3.37632 0)
(14.2871 4.93666 0)
(7.23749 8.62557 0)
(29.9989 0.00069354 0)
(29.9861 0.00210926 0)
(29.9581 0.00367346 0)
(29.9153 0.00568415 0)
(29.8592 0.00830604 0)
(29.7877 0.0118426 0)
(29.698 0.0166463 0)
(29.586 0.023533 0)
(29.4453 0.0329785 0)
(29.271 0.0466386 0)
(29.0496 0.0660348 0)
(28.7687 0.0930036 0)
(28.4215 0.131733 0)
(27.968 0.190798 0)
(27.4015 0.280178 0)
(26.6167 0.438075 0)
(25.6448 0.674375 0)
(24.1488 1.14317 0)
(22.2902 1.85479 0)
(19.1993 3.51927 0)
(14.4528 5.17344 0)
(7.37651 9.10005 0)
(29.9989 0.000725795 0)
(29.9861 0.00220712 0)
(29.9581 0.00384428 0)
(29.9153 0.00594837 0)
(29.8592 0.008692 0)
(29.7876 0.0123932 0)
(29.6979 0.0174199 0)
(29.586 0.0246264 0)
(29.4453 0.0345105 0)
(29.2712 0.0489219 0)
(29.0489 0.0691979 0)
(28.7682 0.0972929 0)
(28.4205 0.137985 0)
(27.9673 0.199743 0)
(27.4011 0.293536 0)
(26.6172 0.457565 0)
(25.6451 0.705314 0)
(24.153 1.19027 0)
(22.3137 1.93286 0)
(19.2495 3.65959 0)
(14.6212 5.40843 0)
(7.52122 9.58153 0)
(29.9989 0.000758045 0)
(29.9861 0.00230494 0)
(29.9581 0.00401512 0)
(29.9153 0.00621254 0)
(29.8592 0.00907789 0)
(29.7877 0.0129436 0)
(29.6981 0.0181934 0)
(29.5861 0.0257199 0)
(29.4455 0.0360399 0)
(29.2715 0.0512328 0)
(29.0484 0.0722714 0)
(28.7678 0.101612 0)
(28.4198 0.144238 0)
(27.9667 0.208687 0)
(27.4009 0.306886 0)
(26.618 0.477057 0)
(25.6461 0.736233 0)
(24.1582 1.23701 0)
(22.3386 2.01019 0)
(19.3003 3.79725 0)
(14.7931 5.64151 0)
(7.67162 10.0702 0)
(29.9989 0.000790287 0)
(29.9861 0.00240274 0)
(29.9581 0.00418597 0)
(29.9153 0.00647672 0)
(29.8592 0.00946377 0)
(29.7877 0.013494 0)
(29.698 0.0189665 0)
(29.5861 0.0268134 0)
(29.4456 0.0375665 0)
(29.2714 0.0535241 0)
(29.0479 0.0752785 0)
(28.7675 0.105951 0)
(28.4192 0.150499 0)
(27.9664 0.217626 0)
(27.401 0.320226 0)
(26.6192 0.496544 0)
(25.6482 0.767104 0)
(24.1645 1.28338 0)
(22.3649 2.0868 0)
(19.3523 3.93222 0)
(14.9698 5.87258 0)
(7.82778 10.5663 0)
(29.9989 0.000822523 0)
(29.9861 0.00250051 0)
(29.9581 0.00435683 0)
(29.9153 0.00674086 0)
(29.8593 0.0098496 0)
(29.7878 0.0140443 0)
(29.6982 0.0197398 0)
(29.5863 0.0279054 0)
(29.4458 0.0391079 0)
(29.2715 0.0557977 0)
(29.0476 0.0782567 0)
(28.7673 0.110302 0)
(28.4188 0.156759 0)
(27.9661 0.226562 0)
(27.4013 0.333555 0)
(26.6209 0.516012 0)
(25.6513 0.797899 0)
(24.1719 1.32937 0)
(22.3926 2.16268 0)
(19.406 4.06442 0)
(15.1525 6.10155 0)
(7.98988 11.0701 0)
(29.9989 0.000854751 0)
(29.9861 0.00259826 0)
(29.9581 0.0045277 0)
(29.9153 0.00700499 0)
(29.8592 0.0102354 0)
(29.7877 0.0145946 0)
(29.6981 0.0205129 0)
(29.5862 0.0289987 0)
(29.446 0.0406563 0)
(29.271 0.0581685 0)
(29.0474 0.0812434 0)
(28.7671 0.11466 0)
(28.4184 0.163021 0)
(27.966 0.235492 0)
(27.4018 0.346866 0)
(26.623 0.535448 0)
(25.6554 0.8286 0)
(24.1805 1.375 0)
(22.4216 2.23782 0)
(19.4617 4.19376 0)
(15.3423 6.32834 0)
(8.15814 11.5818 0)
(29.9989 0.000886974 0)
(29.9861 0.00269597 0)
(29.9582 0.00469858 0)
(29.9153 0.00726907 0)
(29.8593 0.0106212 0)
(29.7879 0.0151448 0)
(29.6983 0.0212857 0)
(29.5863 0.0300912 0)
(29.4464 0.042214 0)
(29.2705 0.0604978 0)
(29.0473 0.0842566 0)
(28.767 0.119023 0)
(28.4182 0.169281 0)
(27.9661 0.244415 0)
(27.4026 0.360155 0)
(26.6256 0.554836 0)
(25.6606 0.859202 0)
(24.1902 1.42027 0)
(22.4517 2.3122 0)
(19.5196 4.32012 0)
(15.5405 6.55289 0)
(8.33285 12.1018 0)
(29.9989 0.000919189 0)
(29.9861 0.00279367 0)
(29.9581 0.00486948 0)
(29.9153 0.00753316 0)
(29.8593 0.0110069 0)
(29.7878 0.0156948 0)
(29.6982 0.0220589 0)
(29.5863 0.0311799 0)
(29.4466 0.0438229 0)
(29.27 0.0626861 0)
(29.0472 0.0872991 0)
(28.7669 0.123388 0)
(28.418 0.17554 0)
(27.9663 0.25333 0)
(27.4036 0.373416 0)
(26.6287 0.574168 0)
(25.6667 0.889701 0)
(24.2013 1.46517 0)
(22.4828 2.38582 0)
(19.5798 4.44336 0)
(15.748 6.77511 0)
(8.51436 12.6304 0)
(29.9989 0.000951397 0)
(29.9861 0.00289132 0)
(29.9582 0.00504038 0)
(29.9154 0.00779719 0)
(29.8594 0.0113926 0)
(29.7879 0.0162447 0)
(29.6984 0.022832 0)
(29.5865 0.0322681 0)
(29.447 0.0454523 0)
(29.2696 0.06485 0)
(29.0472 0.0903642 0)
(28.7668 0.127756 0)
(28.4179 0.181796 0)
(27.9666 0.262233 0)
(27.4049 0.386646 0)
(26.6321 0.593435 0)
(25.6736 0.920093 0)
(24.2136 1.50972 0)
(22.515 2.45865 0)
(19.6421 4.56329 0)
(15.9656 6.99492 0)
(8.70302 13.168 0)
(29.9989 0.000983598 0)
(29.9861 0.00298896 0)
(29.9581 0.00521129 0)
(29.9153 0.00806121 0)
(29.8593 0.0117783 0)
(29.7878 0.0167946 0)
(29.6984 0.0236048 0)
(29.5864 0.0333564 0)
(29.4471 0.0470892 0)
(29.2694 0.0670073 0)
(29.0472 0.093443 0)
(28.7668 0.132124 0)
(28.4178 0.188049 0)
(27.967 0.271124 0)
(27.4064 0.39984 0)
(26.636 0.612634 0)
(25.6813 0.950369 0)
(24.2272 1.5539 0)
(22.5482 2.53069 0)
(19.7064 4.67975 0)
(16.1936 7.21222 0)
(8.89921 13.7149 0)
(29.9989 0.00101579 0)
(29.9861 0.00308657 0)
(29.9582 0.0053822 0)
(29.9154 0.00832517 0)
(29.8594 0.0121639 0)
(29.788 0.0173443 0)
(29.6986 0.0243775 0)
(29.5866 0.0344438 0)
(29.4473 0.0487348 0)
(29.2694 0.0691452 0)
(29.0472 0.0965302 0)
(28.7668 0.136493 0)
(28.4179 0.194299 0)
(27.9675 0.279999 0)
(27.4081 0.412997 0)
(26.6402 0.631758 0)
(25.6898 0.980518 0)
(24.2422 1.59772 0)
(22.5824 2.60192 0)
(19.7724 4.79254 0)
(16.4322 7.42693 0)
(9.10328 14.2717 0)
(29.9989 0.00104798 0)
(29.9861 0.00318415 0)
(29.9581 0.00555312 0)
(29.9153 0.00858914 0)
(29.8593 0.0125495 0)
(29.7879 0.017894 0)
(29.6985 0.02515 0)
(29.5866 0.0355311 0)
(29.4474 0.0503853 0)
(29.2694 0.0712709 0)
(29.0473 0.0996228 0)
(28.7668 0.140862 0)
(28.418 0.200544 0)
(27.9682 0.28886 0)
(27.41 0.426115 0)
(26.6448 0.650804 0)
(25.699 1.01053 0)
(24.2585 1.64117 0)
(22.6176 2.67234 0)
(19.84 4.9015 0)
(16.6812 7.63892 0)
(9.31556 14.8386 0)
(29.9989 0.00108016 0)
(29.9861 0.0032817 0)
(29.9582 0.00572405 0)
(29.9154 0.00885304 0)
(29.8594 0.012935 0)
(29.7881 0.0184436 0)
(29.6987 0.025922 0)
(29.5869 0.0366183 0)
(29.4475 0.052039 0)
(29.2696 0.0733861 0)
(29.0475 0.102719 0)
(28.7669 0.145231 0)
(28.4182 0.206784 0)
(27.9689 0.297703 0)
(27.4121 0.439193 0)
(26.6496 0.669766 0)
(25.7089 1.04038 0)
(24.2762 1.68424 0)
(22.6539 2.74196 0)
(19.9091 5.00645 0)
(16.9404 7.84807 0)
(9.53636 15.4161 0)
(29.9989 0.00111234 0)
(29.9861 0.00337923 0)
(29.9581 0.00589496 0)
(29.9154 0.00911695 0)
(29.8594 0.0133204 0)
(29.788 0.0189932 0)
(29.6986 0.0266938 0)
(29.5869 0.0377023 0)
(29.4474 0.0536916 0)
(29.2698 0.0754947 0)
(29.0476 0.105819 0)
(28.767 0.1496 0)
(28.4184 0.213017 0)
(27.9698 0.306527 0)
(27.4144 0.452227 0)
(26.6548 0.688637 0)
(25.7194 1.07007 0)
(24.2953 1.72694 0)
(22.6914 2.81075 0)
(19.9798 5.10723 0)
(17.2095 8.05425 0)
(9.76594 16.0047 0)
(29.9989 0.0011445 0)
(29.9861 0.00347673 0)
(29.9582 0.00606589 0)
(29.9154 0.00938077 0)
(29.8595 0.0137059 0)
(29.7881 0.0195423 0)
(29.6988 0.0274671 0)
(29.5872 0.0387848 0)
(29.4474 0.0552858 0)
(29.2701 0.0775975 0)
(29.0478 0.108922 0)
(28.7672 0.153968 0)
(28.4187 0.219244 0)
(27.9708 0.315332 0)
(27.4169 0.465218 0)
(26.6603 0.707414 0)
(25.7306 1.09958 0)
(24.3157 1.76925 0)
(22.7302 2.87873 0)
(20.0522 5.20368 0)
(17.4883 8.25731 0)
(10.0045 16.6047 0)
(29.9989 0.00117667 0)
(29.9861 0.0035742 0)
(29.9581 0.00623679 0)
(29.9154 0.00964463 0)
(29.8594 0.0140911 0)
(29.7881 0.0200922 0)
(29.6987 0.0282354 0)
(29.5872 0.0399006 0)
(29.4473 0.0567336 0)
(29.2704 0.079704 0)
(29.048 0.112026 0)
(28.7673 0.158336 0)
(28.419 0.225464 0)
(27.9718 0.324117 0)
(27.4195 0.478163 0)
(26.666 0.72609 0)
(25.7425 1.12889 0)
(24.3374 1.81116 0)
(22.7704 2.94589 0)
(20.1265 5.29565 0)
(17.7768 8.4571 0)
(10.2524 17.2166 0)
(29.9989 0.00120882 0)
(29.9861 0.00367164 0)
(29.9582 0.00640768 0)
(29.9155 0.00990838 0)
(29.8595 0.0144763 0)
(29.7882 0.0206412 0)
(29.6989 0.0290084 0)
(29.5875 0.0410002 0)
(29.4473 0.0584739 0)
(29.2707 0.0818399 0)
(29.0482 0.115133 0)
(28.7675 0.162702 0)
(28.4194 0.231676 0)
(27.973 0.332882 0)
(27.4223 0.49106 0)
(26.672 0.744661 0)
(25.7549 1.158 0)
(24.3604 1.85266 0)
(22.8123 3.0122 0)
(20.2027 5.383 0)
(18.0751 8.65349 0)
(10.5097 17.8408 0)
(29.9989 0.00124097 0)
(29.9861 0.00376906 0)
(29.9581 0.00657857 0)
(29.9154 0.0101721 0)
(29.8595 0.0148617 0)
(29.7881 0.0211897 0)
(29.6988 0.0297787 0)
(29.5875 0.0421316 0)
(29.4472 0.0602187 0)
(29.271 0.0840077 0)
(29.0485 0.11824 0)
(28.7678 0.167066 0)
(28.4199 0.237881 0)
(27.9742 0.341625 0)
(27.4253 0.503907 0)
(26.6784 0.763121 0)
(25.768 1.18688 0)
(24.3846 1.89374 0)
(22.856 3.07767 0)
(20.2808 5.46558 0)
(18.3836 8.8463 0)
(10.7768 18.4777 0)
(29.9989 0.00127312 0)
(29.9861 0.00386645 0)
(29.9582 0.00674944 0)
(29.9155 0.0104359 0)
(29.8596 0.0152462 0)
(29.7883 0.0217416 0)
(29.699 0.030534 0)
(29.5877 0.0432843 0)
(29.4472 0.0617325 0)
(29.2713 0.0861904 0)
(29.0487 0.121348 0)
(28.768 0.171429 0)
(28.4204 0.244077 0)
(27.9755 0.350346 0)
(27.4284 0.516703 0)
(26.685 0.781466 0)
(25.7816 1.21554 0)
(24.41 1.93438 0)
(22.9017 3.14229 0)
(20.3606 5.54323 0)
(18.7024 9.03539 0)
(11.0538 19.1279 0)
(29.9989 0.00130527 0)
(29.9861 0.00396379 0)
(29.9581 0.00692024 0)
(29.9154 0.0106995 0)
(29.8595 0.0156316 0)
(29.7882 0.0222876 0)
(29.699 0.0313289 0)
(29.5874 0.0442297 0)
(29.4471 0.0631746 0)
(29.2715 0.0883759 0)
(29.049 0.124456 0)
(28.7683 0.17579 0)
(28.4209 0.250267 0)
(27.977 0.359041 0)
(27.4317 0.529444 0)
(26.6919 0.799691 0)
(25.7958 1.24395 0)
(24.4365 1.97456 0)
(22.9499 3.20605 0)
(20.4416 5.61582 0)
(19.0307 9.22062 0)
(11.341 19.7916 0)
(29.9989 0.00133741 0)
(29.9862 0.00406119 0)
(29.9582 0.00709096 0)
(29.9155 0.0109631 0)
(29.8597 0.0160173 0)
(29.7883 0.0228364 0)
(29.6995 0.032116 0)
(29.5866 0.0454263 0)
(29.447 0.064641 0)
(29.2716 0.09056 0)
(29.0492 0.127563 0)
(28.7687 0.180149 0)
(28.4216 0.256448 0)
(27.9784 0.367711 0)
(27.4352 0.542129 0)
(26.6991 0.817791 0)
(25.8105 1.27211 0)
(24.464 2.01424 0)
(23.0008 3.26895 0)
(20.5228 5.68323 0)
(19.3653 9.402 0)
(11.6385 20.4702 0)
(29.9989 0.00136938 0)
(29.9861 0.00415871 0)
(29.9581 0.00726176 0)
(29.9155 0.0112257 0)
(29.8596 0.0164032 0)
(29.7882 0.0233875 0)
(29.6996 0.0329058 0)
(29.5858 0.0467738 0)
(29.4469 0.0661437 0)
(29.2717 0.0927442 0)
(29.0495 0.130668 0)
(28.769 0.184506 0)
(28.4222 0.262621 0)
(27.98 0.376351 0)
(27.4389 0.554754 0)
(26.7066 0.835762 0)
(25.8257 1.30001 0)
(24.4924 2.05339 0)
(23.0549 3.33102 0)
(20.6035 5.74544 0)
(19.6991 9.57921 0)
(11.946 21.171 0)
(29.9989 0.00140075 0)
(29.9862 0.00425554 0)
(29.9583 0.00743354 0)
(29.9156 0.0114859 0)
(29.8598 0.0167853 0)
(29.7884 0.0239289 0)
(29.6999 0.0337434 0)
(29.5854 0.0479107 0)
(29.4468 0.0676588 0)
(29.2718 0.0949242 0)
(29.0497 0.13377 0)
(28.7694 0.188864 0)
(28.4228 0.268788 0)
(27.9816 0.38496 0)
(27.4427 0.56732 0)
(26.7144 0.8536 0)
(25.8414 1.32764 0)
(24.5215 2.09194 0)
(23.1124 3.3923 0)
(20.6836 5.80252 0)
(20.0208 9.75023 0)
(12.3494 21.9156 0)
(-1.66217 0.0745328 0)
(-4.85614 0.0498451 0)
(-6.17041 0.00306238 0)
(-5.04625 -0.02434 0)
(-3.51962 -0.0195455 0)
(-2.7635 -0.00942469 0)
(-2.31846 -0.00404408 0)
(-2.209 -0.00142278 0)
(-2.11047 -0.00130978 0)
(-2.0329 -0.00156738 0)
(-1.89347 -0.00313715 0)
(-1.5557 -0.00546789 0)
(-0.647896 -0.00957579 0)
(0.638597 -0.0113672 0)
(2.11381 -0.0119108 0)
(3.73633 -0.0123669 0)
(5.55581 -0.0126598 0)
(7.51869 -0.0120855 0)
(9.47348 -0.0105811 0)
(11.2556 -0.00883694 0)
(12.8868 -0.00758143 0)
(14.4537 -0.00683558 0)
(16.0117 -0.00652358 0)
(17.6814 -0.0066331 0)
(19.5609 -0.00834809 0)
(22.5573 -0.0112899 0)
(26.7502 -0.00901985 0)
(28.7256 -0.00335936 0)
(29.2104 -0.000752747 0)
(29.3222 -0.000227345 0)
(29.4066 -0.000195439 0)
(29.5055 -0.000178285 0)
(29.5872 -0.000133735 0)
(29.6522 -0.000101039 0)
(29.7073 -4.43408e-05 0)
(-1.62981 0.220915 0)
(-4.78537 0.148299 0)
(-6.09385 0.00916642 0)
(-4.97773 -0.0725457 0)
(-3.4644 -0.0584239 0)
(-2.71371 -0.0283482 0)
(-2.25964 -0.0122896 0)
(-2.13488 -0.0042935 0)
(-2.01677 -0.00350704 0)
(-1.95477 -0.00370016 0)
(-1.89188 -0.008145 0)
(-1.62976 -0.015801 0)
(-0.758636 -0.0287292 0)
(0.577407 -0.0343086 0)
(2.13899 -0.0356373 0)
(3.77688 -0.0362852 0)
(5.53735 -0.0367462 0)
(7.43893 -0.0352753 0)
(9.36736 -0.0312137 0)
(11.1493 -0.026297 0)
(12.7909 -0.0226857 0)
(14.3668 -0.0204524 0)
(15.9241 -0.0194493 0)
(17.573 -0.019676 0)
(19.4044 -0.0247638 0)
(22.2973 -0.0339638 0)
(26.6162 -0.0277282 0)
(28.6996 -0.010317 0)
(29.211 -0.00230975 0)
(29.325 -0.000682009 0)
(29.4077 -0.000582332 0)
(29.506 -0.000534037 0)
(29.5877 -0.000401295 0)
(29.6527 -0.000303073 0)
(29.7078 -0.000133054 0)
(-1.58771 0.364593 0)
(-4.70401 0.245846 0)
(-6.00511 0.0153941 0)
(-4.88279 -0.120669 0)
(-3.37755 -0.0971698 0)
(-2.63452 -0.0473396 0)
(-2.17113 -0.0209747 0)
(-2.03691 -0.00774691 0)
(-1.91371 -0.00599891 0)
(-1.89103 -0.00498528 0)
(-1.90539 -0.0120425 0)
(-1.70519 -0.0243516 0)
(-0.835428 -0.0478088 0)
(0.569858 -0.0586589 0)
(2.20595 -0.0600747 0)
(3.84204 -0.0594795 0)
(5.53248 -0.0595451 0)
(7.36917 -0.0574536 0)
(9.27281 -0.0513626 0)
(11.0577 -0.0437092 0)
(12.7125 -0.0378893 0)
(14.2991 -0.0341291 0)
(15.8569 -0.0323028 0)
(17.4873 -0.0324699 0)
(19.275 -0.0405565 0)
(22.0637 -0.056699 0)
(26.4884 -0.0469789 0)
(28.6744 -0.0176772 0)
(29.2119 -0.00394884 0)
(29.3279 -0.00113853 0)
(29.409 -0.000964046 0)
(29.5067 -0.000888332 0)
(29.5883 -0.000668741 0)
(29.6533 -0.00050489 0)
(29.7083 -0.000221694 0)
(-1.53909 0.505245 0)
(-4.61309 0.342341 0)
(-5.89909 0.0212076 0)
(-4.75238 -0.169197 0)
(-3.25917 -0.13557 0)
(-2.53035 -0.0662888 0)
(-2.06371 -0.0297991 0)
(-1.9266 -0.0112053 0)
(-1.8034 -0.00786615 0)
(-1.823 -0.00485948 0)
(-1.90906 -0.0143962 0)
(-1.76386 -0.0326663 0)
(-0.883699 -0.067755 0)
(0.597965 -0.0844874 0)
(2.31026 -0.0855601 0)
(3.941 -0.0827505 0)
(5.55172 -0.0820283 0)
(7.31248 -0.0795959 0)
(9.18678 -0.0717326 0)
(10.9776 -0.0613601 0)
(12.6501 -0.0532452 0)
(14.2494 -0.0478628 0)
(15.8095 -0.0450858 0)
(17.4239 -0.0450342 0)
(19.1722 -0.0558752 0)
(21.8565 -0.0793457 0)
(26.3658 -0.0668669 0)
(28.65 -0.0253828 0)
(29.2129 -0.0056586 0)
(29.3309 -0.00159603 0)
(29.4104 -0.00134092 0)
(29.5075 -0.00124138 0)
(29.5891 -0.000935986 0)
(29.6539 -0.000706373 0)
(29.7088 -0.000310167 0)
(-1.48402 0.642554 0)
(-4.51231 0.437387 0)
(-5.77213 0.0260832 0)
(-4.58134 -0.218062 0)
(-3.10856 -0.173311 0)
(-2.40077 -0.0849046 0)
(-1.93832 -0.0386042 0)
(-1.8032 -0.0146373 0)
(-1.68342 -0.00919516 0)
(-1.74652 -0.00348318 0)
(-1.89857 -0.0153108 0)
(-1.80049 -0.0406666 0)
(-0.896686 -0.0885438 0)
(0.672797 -0.111771 0)
(2.46611 -0.111766 0)
(4.08847 -0.105478 0)
(5.60731 -0.1035 0)
(7.27592 -0.10115 0)
(9.11165 -0.0920579 0)
(10.9103 -0.0791976 0)
(12.6049 -0.0687802 0)
(14.2192 -0.0616839 0)
(15.7831 -0.0578298 0)
(17.3836 -0.0574073 0)
(19.096 -0.0707104 0)
(21.6754 -0.101863 0)
(26.2477 -0.0872589 0)
(28.6263 -0.0334284 0)
(29.2142 -0.00743887 0)
(29.3341 -0.00205472 0)
(29.412 -0.00171307 0)
(29.5085 -0.00159306 0)
(29.59 -0.00120286 0)
(29.6547 -0.000907358 0)
(29.7094 -0.000398368 0)
(-1.42243 0.776107 0)
(-4.40113 0.530634 0)
(-5.62005 0.0293843 0)
(-4.3646 -0.267533 0)
(-2.92437 -0.210174 0)
(-2.24444 -0.102986 0)
(-1.7943 -0.0472259 0)
(-1.66456 -0.0179554 0)
(-1.55029 -0.00995159 0)
(-1.65715 -0.000924613 0)
(-1.86889 -0.0149627 0)
(-1.80785 -0.0485254 0)
(-0.864838 -0.110256 0)
(0.806041 -0.140432 0)
(2.68754 -0.138532 0)
(4.30073 -0.127386 0)
(5.71573 -0.123557 0)
(7.27348 -0.121747 0)
(9.05616 -0.112165 0)
(10.8614 -0.0972001 0)
(12.5813 -0.0845079 0)
(14.2122 -0.0756013 0)
(15.7807 -0.0705448 0)
(17.3683 -0.069606 0)
(19.0471 -0.0850731 0)
(21.5202 -0.124186 0)
(26.1337 -0.108068 0)
(28.6033 -0.0417993 0)
(29.2156 -0.00928782 0)
(29.3373 -0.00251458 0)
(29.4138 -0.00208064 0)
(29.5097 -0.00194329 0)
(29.591 -0.00146919 0)
(29.6555 -0.00110768 0)
(29.7099 -0.000486195 0)
(-1.35425 0.90549 0)
(-4.27881 0.621644 0)
(-5.43814 0.0304065 0)
(-4.09822 -0.317881 0)
(-2.70499 -0.245848 0)
(-2.05904 -0.120324 0)
(-1.62948 -0.0555069 0)
(-1.50739 -0.0211034 0)
(-1.39953 -0.0101257 0)
(-1.54981 0.00273349 0)
(-1.81447 -0.0135471 0)
(-1.77797 -0.0565446 0)
(-0.77805 -0.133131 0)
(1.00698 -0.170636 0)
(2.98582 -0.165959 0)
(4.59472 -0.148484 0)
(5.8965 -0.142037 0)
(7.32474 -0.141133 0)
(9.03561 -0.131904 0)
(10.8411 -0.115346 0)
(12.5869 -0.100437 0)
(14.2353 -0.0896195 0)
(15.8084 -0.0832328 0)
(17.3823 -0.0816367 0)
(19.0279 -0.0989627 0)
(21.3917 -0.146246 0)
(26.0235 -0.129218 0)
(28.581 -0.0504844 0)
(29.2172 -0.011204 0)
(29.3408 -0.00297563 0)
(29.4157 -0.00244374 0)
(29.5111 -0.00229198 0)
(29.5922 -0.00173482 0)
(29.6565 -0.00130718 0)
(29.7106 -0.000573547 0)
(-1.27936 1.03028 0)
(-4.14438 0.709875 0)
(-5.22155 0.028412 0)
(-3.78182 -0.369244 0)
(-2.44988 -0.279979 0)
(-1.84216 -0.136709 0)
(-1.4408 -0.0633019 0)
(-1.32763 -0.0240516 0)
(-1.2259 -0.00972562 0)
(-1.41869 0.00739968 0)
(-1.72869 -0.0113301 0)
(-1.70158 -0.0650055 0)
(-0.624934 -0.157473 0)
(1.28208 -0.202625 0)
(3.36544 -0.194234 0)
(4.98472 -0.168883 0)
(6.17184 -0.158884 0)
(7.45386 -0.15911 0)
(9.07165 -0.151086 0)
(10.8655 -0.133565 0)
(12.6343 -0.116555 0)
(14.3 -0.103731 0)
(15.8764 -0.0958821 0)
(17.4334 -0.093489 0)
(19.0433 -0.112363 0)
(21.2921 -0.167957 0)
(25.9174 -0.150629 0)
(28.5594 -0.0594732 0)
(29.2188 -0.0131858 0)
(29.3443 -0.00343795 0)
(29.4179 -0.00280251 0)
(29.5127 -0.00263906 0)
(29.5935 -0.00199959 0)
(29.6575 -0.00150569 0)
(29.7112 -0.000660323 0)
(-1.19766 1.15001 0)
(-3.99671 0.794682 0)
(-4.96571 0.0227202 0)
(-3.42103 -0.421604 0)
(-2.16106 -0.312272 0)
(-1.59258 -0.151983 0)
(-1.22514 -0.0704946 0)
(-1.12084 -0.0267993 0)
(-1.02361 -0.00878152 0)
(-1.25693 0.0129583 0)
(-1.60324 -0.00856605 0)
(-1.56688 -0.0742555 0)
(-0.392198 -0.183582 0)
(1.63427 -0.236536 0)
(3.81911 -0.2235 0)
(5.47202 -0.188754 0)
(6.56237 -0.174095 0)
(7.68927 -0.175531 0)
(9.19264 -0.169509 0)
(10.9576 -0.151739 0)
(12.7427 -0.132819 0)
(14.4243 -0.117917 0)
(16.0017 -0.108462 0)
(17.5346 -0.105129 0)
(19.1021 -0.125233 0)
(21.2259 -0.189211 0)
(25.816 -0.172211 0)
(28.5387 -0.0687544 0)
(29.2206 -0.0152316 0)
(29.348 -0.00390169 0)
(29.4202 -0.0031571 0)
(29.5144 -0.00298442 0)
(29.595 -0.00226332 0)
(29.6587 -0.00170305 0)
(29.7119 -0.000746422 0)
(-1.10906 1.26422 0)
(-3.83456 0.875335 0)
(-4.66688 0.0128295 0)
(-3.02743 -0.47478 0)
(-1.8438 -0.342601 0)
(-1.31161 -0.166094 0)
(-0.980254 -0.0770316 0)
(-0.88282 -0.0293884 0)
(-0.786754 -0.00736018 0)
(-1.05654 0.0192532 0)
(-1.42751 -0.00560712 0)
(-1.35861 -0.0846194 0)
(-0.0667098 -0.211648 0)
(2.0617 -0.27225 0)
(4.32859 -0.2538 0)
(6.03485 -0.208415 0)
(7.07322 -0.187832 0)
(8.05941 -0.19032 0)
(9.43414 -0.187008 0)
(11.1503 -0.169734 0)
(12.941 -0.149173 0)
(14.6353 -0.132149 0)
(16.2099 -0.120923 0)
(17.707 -0.116491 0)
(19.2187 -0.137503 0)
(21.2012 -0.209873 0)
(25.7209 -0.193858 0)
(28.519 -0.0783136 0)
(29.2225 -0.0173391 0)
(29.3517 -0.00436701 0)
(29.4227 -0.00350769 0)
(29.5164 -0.00332799 0)
(29.5965 -0.00252584 0)
(29.6599 -0.00189909 0)
(29.7126 -0.000831743 0)
(-1.01351 1.37237 0)
(-3.65661 0.951039 0)
(-4.32208 -0.00149171 0)
(-2.61521 -0.528396 0)
(-1.50608 -0.371028 0)
(-1.00383 -0.179119 0)
(-0.705875 -0.0829558 0)
(-0.610555 -0.031918 0)
(-0.510121 -0.00558276 0)
(-0.808589 0.0260525 0)
(-1.18853 -0.00285977 0)
(-1.05933 -0.0964542 0)