/*--------------------------------*- C++ -*----------------------------------*\
| =========                 |                                                 |
| \\      /  F ield         | OpenFOAM: The Open Source CFD Toolbox           |
|  \\    /   O peration     | Version:  v1912                                 |
|   \\  /    A nd           | Website:  www.openfoam.com                      |
|    \\/     M anipulation  |                                                 |
\*---------------------------------------------------------------------------*/
FoamFile
{
    version     2.0;
    format      ascii;
    class       volScalarField;
    location    "210";
    object      yPlus;
}
// * * * * * * * * * * * * * * * * * * * * * * * * * * * * * * * * * * * * * //

dimensions      [0 0 0 0 0 0 0];


internalField   uniform 0;

boundaryField
{
    inlet
    {
        type            calculated;
        value           uniform 0;
    }
    outlet
    {
        type            calculated;
        value           uniform 0;
    }
    lowerSymmetry
    {
        type            symmetryPlane;
    }
    obstical
    {
        type            calculated;
        value           nonuniform List<scalar> 
88
(
489.247
491.396
495.747
502.311
511.019
521.777
534.491
549.066
565.407
583.423
603.027
624.129
646.639
670.462
695.502
721.665
748.863
777.02
806.065
835.944
866.609
898.026
930.169
963.02
996.572
1030.82
1065.78
1101.45
1137.85
1175
1212.92
1251.63
1291.16
1331.53
1372.75
1414.86
1457.87
1501.8
1546.69
1592.54
1639.4
1687.32
1736.7
1791.46
153.247
151.709
150.447
149.711
149.49
149.751
150.451
151.541
152.971
154.686
156.635
158.771
161.049
163.429
165.878
168.37
170.893
173.451
176.064
178.769
181.607
184.593
187.605
190.615
193.554
196.349
198.95
201.336
203.536
205.631
207.715
209.817
211.782
213.15
213.109
210.565
204.349
193.44
177.061
154.625
125.569
89.1987
44.7412
33.4889
)
;
    }
    obsticalTop
    {
        type            calculated;
        value           nonuniform List<scalar> 
20
(
53.2294
38.4346
46.9109
53.0835
55.9818
57.6641
58.3112
58.0606
57.168
55.7687
53.8439
51.2907
48.0223
43.8651
38.7875
32.1627
25.8922
16.5837
14.8257
10.2672
)
;
    }
    top
    {
        type            calculated;
        value           uniform 0;
    }
    defaultFaces
    {
        type            empty;
    }
}


// ************************************************************************* //
