/*--------------------------------*- C++ -*----------------------------------*\
| =========                 |                                                 |
| \\      /  F ield         | OpenFOAM: The Open Source CFD Toolbox           |
|  \\    /   O peration     | Version:  v1912                                 |
|   \\  /    A nd           | Website:  www.openfoam.com                      |
|    \\/     M anipulation  |                                                 |
\*---------------------------------------------------------------------------*/
FoamFile
{
    version     2.0;
    format      ascii;
    class       volScalarField;
    location    "1000";
    object      mag(U);
}
// * * * * * * * * * * * * * * * * * * * * * * * * * * * * * * * * * * * * * //

dimensions      [0 1 -1 0 0 0 0];


internalField   nonuniform List<scalar> 
2000
(
0.866662
0.529868
0.233695
0.0622989
0.0236659
0.0748554
0.0860769
0.0735075
0.0602106
0.049253
0.0430089
0.0273742
0.0165341
0.0202445
0.0220236
0.0168938
0.0111355
0.0114667
0.0122696
0.0124001
0.011596
0.0100974
0.00791663
0.00543272
0.00320278
0.00151368
0.000751803
0.000927127
0.00122902
0.00148575
0.00171103
0.00194448
0.00218301
0.00241069
0.00260615
0.0027399
0.00280439
0.00275321
0.00259616
0.00233952
0.00198
0.00153985
0.00119814
0.00150644
0.00264672
0.0043635
0.0066078
0.00947764
0.013248
0.0185413
0.0265178
0.0387141
0.0564551
0.0804377
0.110562
0.14582
0.184426
0.223993
0.261253
0.291532
0.309687
0.313578
0.308246
0.293992
0.272078
0.243503
0.208808
0.16835
0.122894
0.0751171
0.0397021
0.0645959
0.12182
0.186985
0.256151
0.329906
0.404481
0.492864
0.55958
0.71639
1.03687
0.964391
0.824363
0.671913
0.521217
0.366476
0.21847
0.0823037
0.0335507
0.059301
0.0712574
0.0736375
0.0640824
0.0549407
0.0554177
0.0483937
0.0378493
0.0329493
0.0367128
0.0388986
0.0395821
0.0385065
0.035849
0.0326599
0.0294935
0.0266245
0.0243504
0.0228758
0.0222455
0.0223025
0.022868
0.0237189
0.0246839
0.0257032
0.0267957
0.0280313
0.0294532
0.0310901
0.0330034
0.0352101
0.0377248
0.0405534
0.0437024
0.047176
0.0509647
0.0550463
0.0594176
0.0641323
0.0692974
0.0750995
0.0819199
0.0903454
0.100751
0.112702
0.124541
0.133428
0.136293
0.131459
0.118909
0.0969712
0.0637247
0.0550353
0.055353
0.0666368
0.0857165
0.111324
0.143095
0.180506
0.222772
0.269132
0.318879
0.371433
0.426363
0.48346
0.542506
0.604333
0.667295
0.739039
0.79612
0.911911
0.999029
0.997701
0.990621
0.961958
0.899342
0.803518
0.683443
0.551302
0.415064
0.289609
0.17481
0.0724613
0.0257194
0.0470692
0.0521573
0.0614385
0.0603551
0.0489596
0.0493179
0.0524386
0.0536171
0.0550523
0.0558664
0.0551568
0.0536277
0.0523556
0.0520137
0.0526841
0.0539963
0.0554845
0.0571115
0.0588364
0.0605808
0.0623066
0.06403
0.0658294
0.0677641
0.0698472
0.0720601
0.0743707
0.0767405
0.0791298
0.0815061
0.0838254
0.0859756
0.087707
0.0886378
0.0883631
0.0864784
0.0826195
0.0767212
0.0696401
0.0631527
0.0600121
0.0623525
0.0703663
0.0839787
0.103281
0.127731
0.156181
0.18785
0.218921
0.250676
0.285452
0.323944
0.365495
0.409114
0.453902
0.499106
0.544177
0.588818
0.633004
0.676922
0.720967
0.765528
0.811556
0.858373
0.910861
0.953479
1.03576
0.992882
0.983397
0.986608
0.998714
1.004
0.989604
0.950695
0.88874
0.806476
0.707704
0.59883
0.486786
0.373791
0.269286
0.180604
0.100427
0.0316542
0.032441
0.0328365
0.0347898
0.0346692
0.035922
0.0393087
0.0438037
0.0474046
0.0495298
0.051213
0.0538582
0.0560935
0.0583876
0.0603327
0.0619277
0.0631439
0.0639828
0.0645907
0.0650615
0.0654094
0.0655322
0.0653405
0.0647588
0.0637014
0.062079
0.0598265
0.0568828
0.0531118
0.0481653
0.0414998
0.0331901
0.0227058
0.009907
0.00673694
0.028137
0.0544093
0.0861333
0.123247
0.164874
0.209883
0.25651
0.304502
0.352155
0.398885
0.444437
0.489353
0.534157
0.578569
0.621764
0.662907
0.701439
0.737129
0.770066
0.800637
0.829464
0.857316
0.885051
0.913416
0.943407
0.974736
1.01071
1.04053
1.09756
0.996693
0.986689
0.978946
0.981172
0.992524
1.00546
1.01231
1.00775
0.988462
0.952331
0.899576
0.832462
0.75405
0.666587
0.575511
0.483896
0.39669
0.316195
0.248263
0.19296
0.147988
0.110766
0.0798849
0.0539936
0.0325141
0.0158318
0.00313698
0.00273009
0.00554249
0.00602498
0.00529373
0.00420095
0.00408816
0.00585536
0.00864514
0.0123025
0.0166008
0.0216667
0.0278307
0.0352168
0.0439891
0.0543616
0.0665292
0.0806771
0.0970087
0.11551
0.136385
0.159131
0.183902
0.210752
0.239662
0.270843
0.304615
0.341356
0.381337
0.424513
0.47038
0.517968
0.565972
0.612991
0.65809
0.700665
0.740342
0.77683
0.809789
0.83888
0.863951
0.885158
0.902966
0.918093
0.931435
0.943976
0.956703
0.970553
0.986248
1.0046
1.0253
1.05081
1.07236
1.11577
0.9984
0.992623
0.985255
0.980545
0.981155
0.986831
0.996039
1.0065
1.01505
1.01795
1.0119
0.994804
0.966256
0.92634
0.875918
0.816796
0.753072
0.689281
0.627261
0.569146
0.515758
0.467432
0.424318
0.386349
0.353363
0.32513
0.301224
0.281399
0.26551
0.25321
0.244138
0.238007
0.2345
0.233654
0.235247
0.239368
0.245996
0.254983
0.266273
0.279795
0.295461
0.313193
0.332912
0.354532
0.377952
0.403029
0.429573
0.457349
0.486189
0.515939
0.546489
0.577829
0.610045
0.64325
0.677486
0.712612
0.748215
0.783595
0.817847
0.850012
0.879264
0.904992
0.926832
0.944667
0.958562
0.968751
0.975656
0.979911
0.98233
0.983835
0.985376
0.987869
0.992125
0.998849
1.00851
1.02164
1.03775
1.0589
1.07701
1.11519
0.998808
0.995732
0.992168
0.988821
0.986112
0.984538
0.985103
0.988753
0.995521
1.00427
1.01306
1.01961
1.02189
1.0182
1.00714
0.988023
0.961955
0.931431
0.898227
0.863622
0.82867
0.794384
0.761654
0.73115
0.703304
0.678335
0.656349
0.637366
0.621404
0.608393
0.598245
0.590887
0.586237
0.58417
0.584461
0.587219
0.592354
0.599669
0.609015
0.620256
0.633244
0.647816
0.6638
0.68102
0.699284
0.718388
0.738107
0.758216
0.778518
0.79886
0.819142
0.839336
0.859472
0.87959
0.899675
0.919583
0.93899
0.957392
0.974159
0.988643
1.00031
1.00886
1.01424
1.01664
1.01644
1.01416
1.01041
1.00591
1.00142
0.997693
0.995429
0.995247
0.99766
1.00308
1.01175
1.024
1.03925
1.05938
1.07664
1.11328
0.999019
0.99743
0.996549
0.995693
0.99408
0.991725
0.989242
0.987453
0.987198
0.98912
0.993437
0.999817
1.00742
1.01505
1.02121
1.0245
1.02408
1.02004
1.01282
1.00293
0.990867
0.977297
0.962918
0.948365
0.934156
0.920692
0.908285
0.897172
0.887511
0.879396
0.872888
0.868023
0.864802
0.86317
0.863034
0.864343
0.867007
0.8709
0.875899
0.881892
0.888755
0.896354
0.904547
0.913194
0.922148
0.931258
0.940378
0.949371
0.95813
0.966593
0.974744
0.982615
0.990265
0.997751
1.00508
1.01215
1.01873
1.0245
1.02906
1.03203
1.03314
1.03233
1.02971
1.02558
1.02036
1.01455
1.00866
1.00323
0.998771
0.995768
0.994643
0.995761
0.999419
1.00588
1.01528
1.02791
1.04321
1.06305
1.07997
1.11558
0.999218
0.998911
0.999993
1.00067
0.99998
0.998437
0.996531
0.994291
0.991888
0.989834
0.988742
0.989119
0.991271
0.99521
1.00058
1.00673
1.01284
1.01823
1.02253
1.02549
1.02697
1.02703
1.02591
1.02387
1.02121
1.01815
1.01497
1.01181
1.00884
1.00618
1.00391
1.0021
1.00078
0.999975
0.999641
0.999747
1.00028
1.00118
1.00242
1.0039
1.00559
1.00742
1.00931
1.01121
1.01307
1.0148
1.01637
1.01773
1.01889
1.01986
1.02068
1.02146
1.02226
1.02316
1.02417
1.02526
1.02626
1.02696
1.0271
1.02646
1.02488
1.02237
1.01904
1.01512
1.01092
1.00678
1.00304
1.00003
0.998062
0.997428
0.998391
1.0012
1.00608
1.01328
1.02295
1.03543
1.05026
1.06929
1.08553
1.11956
0.99943
1.0006
1.0036
1.00527
1.00473
1.00341
1.00213
1.00065
0.998743
0.996536
0.994259
0.992176
0.990614
0.989913
0.990303
0.99186
0.994475
0.997902
1.00184
1.00594
1.00984
1.01336
1.01639
1.01891
1.02096
1.02257
1.02379
1.02468
1.02531
1.0257
1.02588
1.02591
1.02579
1.02556
1.02528
1.02494
1.02457
1.02417
1.02374
1.02326
1.02271
1.0221
1.02142
1.02065
1.01981
1.01887
1.01787
1.0168
1.01571
1.01465
1.01368
1.01291
1.01238
1.01217
1.01228
1.01268
1.01324
1.01381
1.01418
1.01422
1.01378
1.01284
1.01147
1.00981
1.00803
1.00635
1.00497
1.00409
1.00392
1.00466
1.00652
1.00973
1.01454
1.02124
1.03006
1.04144
1.05502
1.0727
1.08786
1.12003
0.999705
1.00271
1.00774
1.01012
1.00938
1.00792
1.00675
1.00553
1.00406
1.00242
1.00067
0.998797
0.996839
0.994928
0.993217
0.991866
0.991062
0.990933
0.991475
0.992561
0.994003
0.995637
0.997354
0.999079
1.00076
1.00233
1.00378
1.00506
1.00617
1.00707
1.00776
1.00824
1.0085
1.0086
1.00855
1.00839
1.00814
1.00782
1.00742
1.00695
1.00644
1.00588
1.00529
1.00467
1.00405
1.00343
1.00284
1.0023
1.00185
1.00153
1.0014
1.00152
1.00193
1.00268
1.00376
1.00512
1.00668
1.00831
1.00984
1.01114
1.0121
1.01266
1.01283
1.01268
1.01229
1.01177
1.01124
1.01084
1.01071
1.01106
1.0121
1.01413
1.01746
1.02247
1.02949
1.03908
1.05096
1.06713
1.08113
1.11195
1.0001
1.00544
1.01256
1.01534
1.01427
1.01264
1.01142
1.01014
1.00866
1.00717
1.00575
1.00433
1.00287
1.00133
0.999731
0.998084
0.996505
0.99515
0.994102
0.993361
0.992877
0.9926
0.9925
0.992556
0.992745
0.993035
0.993395
0.993792
0.994197
0.994583
0.994927
0.995217
0.995444
0.99563
0.99578
0.995897
0.995993
0.996081
0.996165
0.996246
0.996332
0.996428
0.996542
0.996685
0.996863
0.99709
0.997377
0.997744
0.998216
0.998825
0.999607
1.0006
1.00185
1.00336
1.00513
1.00711
1.00922
1.01134
1.01332
1.01505
1.01639
1.01724
1.01758
1.01736
1.01663
1.01542
1.01381
1.01192
1.00994
1.0081
1.00674
1.00625
1.00706
1.00967
1.0145
1.02217
1.03249
1.04757
1.06081
1.0916
1.00068
1.00895
1.01812
1.02098
1.01951
1.01777
1.01651
1.01511
1.0135
1.01194
1.01051
1.00918
1.0079
1.00667
1.00545
1.00419
1.00293
1.00175
1.00068
0.999724
0.998865
0.998088
0.9974
0.996813
0.99634
0.995978
0.995722
0.99556
0.99548
0.995467
0.995508
0.995591
0.995713
0.995867
0.996053
0.996266
0.99651
0.996791
0.99711
0.997465
0.997858
0.998292
0.998769
0.999293
0.999869
1.0005
1.0012
1.00198
1.00284
1.00382
1.00493
1.00619
1.00762
1.00921
1.01094
1.01275
1.01455
1.01621
1.01758
1.0185
1.01884
1.01842
1.01719
1.01505
1.01201
1.00811
1.00346
0.99826
0.992799
0.987461
0.982712
0.979081
0.977123
0.977413
0.980425
0.986823
0.996367
1.01138
1.02473
1.05744
1.00151
1.01333
1.02443
1.02707
1.02519
1.02342
1.02212
1.02062
1.01892
1.01729
1.01578
1.01438
1.01306
1.01185
1.0107
1.00961
1.00859
1.00766
1.00684
1.00611
1.00542
1.00479
1.00419
1.00365
1.00317
1.00276
1.00244
1.0022
1.00203
1.00192
1.00188
1.0019
1.00196
1.00208
1.00224
1.00246
1.00272
1.00303
1.00338
1.00379
1.00424
1.00474
1.00528
1.00584
1.00645
1.0071
1.00777
1.00847
1.00919
1.00993
1.01069
1.01148
1.01227
1.01304
1.01374
1.01429
1.01459
1.01448
1.01379
1.01235
1.00998
1.00651
1.00186
0.995965
0.988867
0.980692
0.971668
0.962136
0.952546
0.943432
0.9354
0.929083
0.925096
0.924042
0.926371
0.932733
0.942771
0.959078
0.973608
1.01041
1.00264
1.01863
1.03142
1.03361
1.0314
1.02965
1.02833
1.02677
1.02503
1.02337
1.02182
1.02037
1.019
1.01773
1.01655
1.01544
1.01442
1.01355
1.0128
1.01216
1.0116
1.01108
1.0106
1.01018
1.0098
1.00949
1.00924
1.00903
1.00889
1.0088
1.00874
1.00873
1.00877
1.00885
1.00896
1.00911
1.00929
1.0095
1.00973
1.00996
1.01021
1.01042
1.01062
1.01077
1.01085
1.01084
1.01073
1.01049
1.01011
1.00957
1.00885
1.00793
1.0068
1.00541
1.00369
1.00156
0.998888
0.99553
0.991306
0.986035
0.97955
0.971727
0.962507
0.95192
0.940106
0.927318
0.913931
0.900434
0.88741
0.87551
0.865412
0.857786
0.853246
0.852354
0.855491
0.863259
0.875129
0.894033
0.910706
0.953459
1.00413
1.02483
1.03898
1.0406
1.03818
1.0365
1.0352
1.03359
1.03185
1.03017
1.02861
1.02712
1.02571
1.02438
1.02312
1.02193
1.02085
1.0199
1.01908
1.01837
1.01774
1.01716
1.01664
1.01615
1.0157
1.0153
1.01494
1.0146
1.01429
1.014
1.01372
1.01346
1.01319
1.01291
1.01259
1.01224
1.01183
1.01135
1.01076
1.01007
1.00923
1.00821
1.00702
1.00558
1.0039
1.00194
0.999686
0.997108
0.994197
0.990937
0.987323
0.983341
0.978975
0.974191
0.968934
0.963115
0.956617
0.94929
0.94097
0.931495
0.920736
0.90862
0.895163
0.88049
0.864847
0.848603
0.832245
0.81636
0.801606
0.788681
0.778274
0.77104
0.767547
0.768294
0.773573
0.783933
0.798651
0.821119
0.840558
0.890448
1.006
1.03182
1.04703
1.04804
1.04548
1.04381
1.04236
1.04055
1.03856
1.03661
1.03474
1.03293
1.03118
1.02951
1.0279
1.02635
1.02489
1.02355
1.02234
1.02122
1.02016
1.01913
1.01812
1.01711
1.0161
1.01508
1.01404
1.01298
1.01186
1.01069
1.00945
1.0081
1.00663
1.00502
1.00322
1.00124
0.999037
0.996595
0.99389
0.990896
0.987591
0.983949
0.979951
0.975579
0.970818
0.965659
0.960097
0.954133
0.947773
0.941031
0.933919
0.926447
0.918615
0.910401
0.901759
0.892602
0.882817
0.872258
0.860771
0.848215
0.834493
0.819581
0.803554
0.786606
0.769056
0.751345
0.734016
0.717704
0.703092
0.69088
0.681746
0.676308
0.675079
0.6785
0.686772
0.700433
0.718561
0.745058
0.767411
0.824843
1.00826
1.03964
1.05561
1.0557
1.05237
1.04963
1.04672
1.04327
1.0396
1.03598
1.03247
1.02912
1.02592
1.02287
1.01994
1.01712
1.01443
1.01191
1.00953
1.00725
1.00499
1.00273
1.00042
0.998052
0.995606
0.993068
0.990422
0.987644
0.984721
0.981622
0.978307
0.974749
0.970929
0.966828
0.962431
0.95772
0.952681
0.9473
0.941568
0.935474
0.929009
0.922168
0.914952
0.907362
0.899409
0.891103
0.882466
0.873521
0.864297
0.854827
0.845141
0.835262
0.825196
0.814924
0.804395
0.793514
0.782161
0.770181
0.757421
0.743747
0.729076
0.71341
0.696858
0.67965
0.662145
0.644814
0.628237
0.613066
0.599993
0.589717
0.582891
0.580095
0.581796
0.588374
0.599977
0.61714
0.638701
0.669176
0.694131
0.758736
1.01113
1.04847
1.06365
1.06003
1.05177
1.04325
1.03437
1.02524
1.01639
1.00815
1.00062
0.993739
0.987448
0.981663
0.976279
0.971182
0.966385
0.961913
0.957683
0.953589
0.949532
0.945436
0.941252
0.936951
0.932514
0.927924
0.92316
0.918204
0.913023
0.907593
0.901891
0.895906
0.889626
0.883044
0.876155
0.868954
0.861439
0.853615
0.845484
0.837051
0.828325
0.819316
0.810039
0.800515
0.790766
0.78082
0.770709
0.760469
0.750137
0.739753
0.729351
0.718951
0.708555
0.698134
0.687621
0.676911
0.665863
0.654312
0.642093
0.629069
0.615159
0.600377
0.584847
0.568822
0.552688
0.536947
0.522201
0.509119
0.498395
0.490709
0.486683
0.486851
0.491625
0.501349
0.516099
0.536429
0.560914
0.59478
0.621518
0.692059
1.01534
1.0554
1.06085
1.04198
1.01799
0.995315
0.974479
0.95565
0.939108
0.924835
0.912542
0.901873
0.89251
0.884176
0.876615
0.869596
0.863078
0.857055
0.851391
0.845922
0.840513
0.835061
0.82951
0.823829
0.818003
0.812019
0.805864
0.799525
0.792984
0.786227
0.77924
0.772018
0.764555
0.756852
0.74891
0.740734
0.732332
0.723712
0.714889
0.705875
0.696686
0.687338
0.677858
0.668266
0.658593
0.648869
0.639128
0.629408
0.619744
0.610174
0.600725
0.591413
0.582226
0.573124
0.564026
0.55481
0.545319
0.535377
0.524806
0.513466
0.501279
0.48827
0.474583
0.460501
0.446437
0.432923
0.420577
0.410063
0.402048
0.397166
0.395978
0.398958
0.406459
0.418785
0.435942
0.458537
0.484842
0.520879
0.547976
0.622198
1.01954
1.04408
1.01626
0.963348
0.913513
0.87378
0.842185
0.816586
0.79577
0.778778
0.764734
0.752919
0.742793
0.733944
0.726026
0.718751
0.712041
0.705876
0.700102
0.694539
0.689034
0.683486
0.677842
0.672081
0.6662
0.660192
0.654054
0.647791
0.641381
0.634815
0.628082
0.621179
0.614104
0.60686
0.599453
0.591891
0.584183
0.576344
0.568388
0.560331
0.552189
0.543982
0.535733
0.527465
0.519207
0.510987
0.502835
0.494785
0.48687
0.479121
0.471557
0.464184
0.456984
0.449903
0.442849
0.435688
0.428256
0.420367
0.411845
0.402556
0.392439
0.381542
0.370044
0.358255
0.346615
0.335658
0.325979
0.318193
0.312892
0.310628
0.311876
0.317038
0.326406
0.340246
0.358505
0.381865
0.40827
0.444563
0.469982
0.54449
1.01158
0.976447
0.887437
0.795394
0.728858
0.684748
0.653381
0.629381
0.610484
0.595428
0.583219
0.573093
0.564508
0.557072
0.550459
0.544405
0.538837
0.533738
0.528975
0.524385
0.519831
0.515222
0.51052
0.505721
0.500835
0.495862
0.490803
0.485668
0.480436
0.475093
0.469635
0.464057
0.45836
0.452549
0.44663
0.440614
0.434508
0.428327
0.422086
0.415798
0.409479
0.403144
0.396814
0.390511
0.384257
0.378078
0.371999
0.36605
0.360255
0.354638
0.349215
0.34398
0.338909
0.333941
0.328977
0.323883
0.318496
0.31264
0.306158
0.29894
0.29096
0.282301
0.273166
0.26388
0.254864
0.246607
0.239625
0.234433
0.231511
0.2313
0.234176
0.240465
0.250397
0.264212
0.281802
0.303908
0.328216
0.362179
0.383581
0.453778
0.957128
0.806352
0.660221
0.55871
0.502722
0.470708
0.448267
0.43077
0.41703
0.406246
0.397607
0.390487
0.384477
0.37929
0.374689
0.370479
0.366608
0.363074
0.359782
0.356603
0.353425
0.350183
0.34686
0.343466
0.340018
0.336521
0.332974
0.329385
0.325734
0.322008
0.318201
0.314314
0.310348
0.306308
0.302202
0.298036
0.293818
0.289562
0.285277
0.280976
0.276668
0.272366
0.268087
0.263846
0.259663
0.255555
0.251545
0.247652
0.243896
0.240296
0.236857
0.233569
0.230404
0.227302
0.22417
0.220887
0.217312
0.213301
0.208735
0.203545
0.197739
0.191423
0.184795
0.178147
0.171831
0.166234
0.161748
0.158753
0.157597
0.158595
0.162024
0.168127
0.177076
0.189071
0.203973
0.222512
0.24236
0.270869
0.286336
0.346299
0.792989
0.518713
0.379891
0.312701
0.283162
0.266702
0.254093
0.243917
0.236026
0.22994
0.225096
0.221104
0.217738
0.21484
0.21227
0.209916
0.207751
0.205783
0.203955
0.202179
0.200385
0.198533
0.196627
0.194682
0.192711
0.190721
0.188706
0.186672
0.184603
0.182486
0.180321
0.17811
0.175854
0.173556
0.171224
0.16886
0.166471
0.164066
0.161651
0.159233
0.156817
0.154411
0.152027
0.149675
0.147366
0.145114
0.142931
0.140833
0.138829
0.136931
0.135142
0.133448
0.131824
0.130223
0.128575
0.126793
0.12478
0.122441
0.119705
0.116544
0.112984
0.109119
0.105102
0.101136
0.0974593
0.0943177
0.0919543
0.0905973
0.0904564
0.0917224
0.0945652
0.0991398
0.105554
0.113949
0.124198
0.136881
0.150117
0.169792
0.178563
0.221039
0.415971
0.167491
0.117718
0.0967475
0.0892127
0.0846553
0.0806557
0.0773801
0.0749067
0.0730337
0.0715445
0.0703124
0.0692741
0.0683824
0.0675912
0.0668641
0.066196
0.0655932
0.0650343
0.0644863
0.0639225
0.0633335
0.0627246
0.0621053
0.0614813
0.0608532
0.0602188
0.0595803
0.0589287
0.0582592
0.0575736
0.0568728
0.0561572
0.0554288
0.0546901
0.0539429
0.0531892
0.0524318
0.0516734
0.0509156
0.0501603
0.0494104
0.0486698
0.0479424
0.0472327
0.0465456
0.0458862
0.0452599
0.044671
0.0441223
0.0436134
0.0431383
0.0426845
0.0422313
0.0417494
0.0412038
0.0405571
0.0397756
0.038837
0.037737
0.0364941
0.0351513
0.0337727
0.032438
0.0312347
0.0302505
0.0295696
0.0292696
0.0294218
0.0300918
0.0313396
0.0332216
0.0357769
0.0390612
0.043014
0.0478914
0.0528512
0.0605224
0.0631368
0.0802726
)
;

boundaryField
{
    inlet
    {
        type            calculated;
        value           uniform 1;
    }
    outlet
    {
        type            calculated;
        value           nonuniform List<scalar> 
25
(
0.71639
0.911911
1.03576
1.09756
1.11577
1.11519
1.11328
1.11558
1.11956
1.12003
1.11195
1.0916
1.05744
1.01041
0.953459
0.890448
0.824843
0.758736
0.692059
0.622198
0.54449
0.453778
0.346299
0.221039
0.0802726
)
;
    }
    fixedWalls
    {
        type            calculated;
        value           uniform 0;
    }
    frontAndBack
    {
        type            empty;
    }
}


// ************************************************************************* //
