/*--------------------------------*- C++ -*----------------------------------*\
| =========                 |                                                 |
| \\      /  F ield         | OpenFOAM: The Open Source CFD Toolbox           |
|  \\    /   O peration     | Version:  v1912                                 |
|   \\  /    A nd           | Website:  www.openfoam.com                      |
|    \\/     M anipulation  |                                                 |
\*---------------------------------------------------------------------------*/
FoamFile
{
    version     2.0;
    format      ascii;
    class       volScalarField;
    location    "1000";
    object      p;
}
// * * * * * * * * * * * * * * * * * * * * * * * * * * * * * * * * * * * * * //

dimensions      [0 2 -2 0 0 0 0];


internalField   nonuniform List<scalar> 
2000
(
-0.0459453
0.071466
0.126046
0.119158
0.10333
0.0970244
0.0964193
0.097768
0.0979853
0.0977641
0.0979042
0.097581
0.0973234
0.0972677
0.0973254
0.097347
0.0973039
0.0972824
0.0972768
0.0972804
0.0972841
0.0972775
0.0972559
0.0972211
0.0971796
0.0971377
0.0971007
0.0970702
0.0970438
0.0970189
0.0969936
0.0969671
0.0969392
0.0969101
0.0968798
0.0968489
0.096818
0.0967873
0.0967575
0.096729
0.0967024
0.0966786
0.0966584
0.0966426
0.0966317
0.0966258
0.0966247
0.0966289
0.0966391
0.0966541
0.0966629
0.0966218
0.0964116
0.0957893
0.0943933
0.0918347
0.0878276
0.0823277
0.0758102
0.0697096
0.0661346
0.0661913
0.0708632
0.0797327
0.0918251
0.106124
0.121776
0.137981
0.153827
0.168235
0.18017
0.188765
0.193195
0.192651
0.186346
0.173616
0.153332
0.125295
0.0837968
0.0415153
0.00730186
0.0924783
0.131296
0.118101
0.100359
0.0961617
0.0997032
0.102143
0.0993889
0.0961451
0.0957076
0.0970077
0.0974558
0.0973237
0.097548
0.0974497
0.0973258
0.0972232
0.0971885
0.0971772
0.097195
0.0972352
0.0972421
0.0972183
0.0971828
0.0971452
0.0971098
0.0970785
0.097052
0.0970273
0.097
0.0969715
0.0969427
0.0969137
0.0968839
0.0968534
0.0968227
0.096793
0.0967642
0.0967363
0.09671
0.0966865
0.0966668
0.0966514
0.0966404
0.0966336
0.0966309
0.0966353
0.0966587
0.0967234
0.0968307
0.0968908
0.0966216
0.0954645
0.0926482
0.0875142
0.0799175
0.0704728
0.0608288
0.0540954
0.0538253
0.0591688
0.0676637
0.0785958
0.0914847
0.105961
0.121449
0.137176
0.152233
0.165617
0.176327
0.183393
0.185925
0.183195
0.174541
0.159426
0.136942
0.107254
0.0663676
0.0294228
0.0583697
0.0921677
0.114859
0.113302
0.104104
0.0999287
0.0999669
0.0993296
0.0974237
0.096739
0.0983291
0.0999276
0.0989473
0.0964878
0.0955936
0.0964674
0.0973519
0.0975276
0.0973682
0.0972632
0.0972049
0.0971682
0.0971492
0.097161
0.0971684
0.0971569
0.0971261
0.0970812
0.0970455
0.0970115
0.096986
0.0969634
0.0969412
0.0969201
0.0968993
0.0968761
0.0968489
0.0968188
0.0967877
0.0967574
0.0967304
0.0967084
0.0966914
0.0966779
0.0966704
0.0966854
0.0967541
0.096907
0.0971711
0.097554
0.0979928
0.0982624
0.0979467
0.0964286
0.0930399
0.087375
0.0796769
0.0711675
0.0638981
0.0594421
0.0584764
0.0619925
0.0693387
0.0793823
0.0913415
0.10474
0.118997
0.133291
0.146667
0.158144
0.16678
0.171729
0.172283
0.16789
0.158075
0.142498
0.120571
0.0928223
0.0565369
0.0249909
0.0833569
0.0933707
0.105921
0.11
0.107307
0.104288
0.102627
0.100895
0.0992731
0.0984559
0.098269
0.0981714
0.0978268
0.0971319
0.0966076
0.0975517
0.0988054
0.0980672
0.0969088
0.0965068
0.0964562
0.0966294
0.0969175
0.0971413
0.0972703
0.0973475
0.0973899
0.0973649
0.0972793
0.0971805
0.0970866
0.0970081
0.0969522
0.0969245
0.0969104
0.0968948
0.096869
0.0968393
0.0968093
0.0967806
0.0967562
0.0967391
0.0967282
0.0967198
0.0967176
0.0967526
0.096883
0.0971353
0.0975469
0.0981089
0.0987774
0.0991913
0.0989688
0.0975756
0.0945147
0.0895719
0.0830406
0.0757414
0.0688573
0.0642608
0.063055
0.0659241
0.0724523
0.0816091
0.0925503
0.10466
0.117269
0.129556
0.140645
0.149696
0.155954
0.158775
0.157629
0.152098
0.141829
0.126598
0.106014
0.080685
0.0487231
0.020805
0.0956976
0.099298
0.106818
0.110788
0.109659
0.10733
0.10595
0.104911
0.103608
0.102157
0.100807
0.0997183
0.0989916
0.098154
0.0971914
0.0972207
0.0977748
0.0979891
0.0978404
0.097389
0.097049
0.0969351
0.0969927
0.097172
0.0973629
0.0974749
0.0974306
0.0972459
0.0971144
0.0970144
0.0969395
0.0968883
0.0968599
0.09687
0.0969018
0.0969259
0.0969298
0.0969093
0.0968715
0.0968273
0.0967846
0.0967472
0.0967138
0.0966744
0.0966212
0.0965674
0.0965845
0.0968062
0.097216
0.097784
0.0984047
0.0988029
0.0985754
0.0972439
0.0944071
0.0899441
0.0841799
0.0779444
0.0724912
0.0692347
0.0690049
0.0720156
0.0779044
0.0859446
0.0954024
0.105638
0.11601
0.125826
0.134384
0.141029
0.145179
0.146334
0.144071
0.13804
0.127934
0.113565
0.0946154
0.0716706
0.043238
0.0181889
0.104139
0.105972
0.109926
0.112097
0.111282
0.109674
0.108715
0.10804
0.10708
0.105889
0.104761
0.103771
0.102758
0.101436
0.100062
0.0993536
0.0992234
0.0990936
0.0985283
0.0976442
0.097028
0.0968242
0.0969125
0.0971188
0.0972876
0.097379
0.0974157
0.0974056
0.0973233
0.0972136
0.0971074
0.0970194
0.0969561
0.0969312
0.0968961
0.0968547
0.0968177
0.0967875
0.0967511
0.0967143
0.0966867
0.096673
0.0966738
0.0966868
0.0967161
0.0967868
0.0969565
0.0972878
0.0977645
0.0983246
0.0988409
0.0990734
0.0986935
0.0973722
0.0948955
0.0912939
0.0869325
0.0825075
0.078911
0.0770068
0.0773449
0.0800646
0.0849424
0.0914841
0.0991003
0.107225
0.115313
0.122815
0.129179
0.133887
0.136465
0.13649
0.133584
0.127413
0.117675
0.104174
0.0866052
0.0655008
0.0395114
0.0165526
0.110949
0.111773
0.11301
0.113348
0.112561
0.111576
0.110917
0.110378
0.109711
0.108955
0.10823
0.10751
0.106651
0.105543
0.104376
0.103522
0.103008
0.10241
0.101441
0.100342
0.0995265
0.0990865
0.0988958
0.0988039
0.098716
0.0986113
0.0984887
0.0983224
0.0981033
0.0978884
0.097711
0.0975727
0.0974646
0.0974125
0.097571
0.0976487
0.0976494
0.0976556
0.0976818
0.0977234
0.097784
0.0978699
0.097984
0.0981274
0.0983056
0.0985359
0.0988472
0.0992637
0.0997675
0.10029
0.100708
0.100838
0.100454
0.0993542
0.0974397
0.0947861
0.0916889
0.088644
0.086257
0.0851075
0.085593
0.0878297
0.0916642
0.0967443
0.102627
0.108864
0.11502
0.120653
0.125321
0.128588
0.130043
0.129301
0.125999
0.11981
0.110421
0.0976191
0.0810907
0.0613125
0.0369744
0.0155152
0.116826
0.116772
0.115856
0.114648
0.113824
0.113307
0.112831
0.11236
0.111917
0.11148
0.111029
0.110531
0.109933
0.109191
0.108385
0.107693
0.107152
0.106524
0.105657
0.104703
0.103904
0.103335
0.102936
0.102622
0.102343
0.102078
0.101815
0.101541
0.101263
0.101016
0.10082
0.100679
0.100596
0.100599
0.100698
0.10076
0.100784
0.100823
0.100896
0.100997
0.101124
0.10128
0.101467
0.101685
0.101937
0.102231
0.102577
0.102978
0.103411
0.103812
0.10408
0.104083
0.103674
0.102734
0.101221
0.0992159
0.0969433
0.0947572
0.0930798
0.0923115
0.0927318
0.0944325
0.0973184
0.101152
0.105614
0.110357
0.115026
0.119254
0.122662
0.124871
0.125507
0.124212
0.120638
0.114459
0.105355
0.0930946
0.0773409
0.0585123
0.0353094
0.0148401
0.12223
0.121241
0.118277
0.115734
0.114978
0.114889
0.114555
0.114147
0.113882
0.113664
0.113395
0.113069
0.112681
0.112202
0.111665
0.111174
0.110761
0.110288
0.109654
0.108934
0.108284
0.107777
0.107393
0.107077
0.106792
0.106519
0.106248
0.105978
0.105716
0.10548
0.105287
0.105145
0.105061
0.105038
0.105045
0.10509
0.10514
0.1052
0.105284
0.105393
0.105524
0.105677
0.105855
0.106055
0.106279
0.106527
0.106802
0.107097
0.107386
0.107618
0.107716
0.107588
0.107137
0.106292
0.105036
0.10344
0.101675
0.0999954
0.0987038
0.0980879
0.0983562
0.099591
0.10174
0.104638
0.108044
0.111679
0.115241
0.118414
0.12087
0.12227
0.122279
0.120562
0.116787
0.110632
0.101769
0.0899452
0.0747895
0.0566575
0.0342473
0.0143848
0.12746
0.125273
0.120079
0.116435
0.115971
0.116298
0.11607
0.115746
0.115661
0.115629
0.115507
0.115315
0.115073
0.114762
0.114401
0.114062
0.113771
0.113437
0.112985
0.11246
0.111974
0.111592
0.111302
0.111064
0.110845
0.11063
0.110415
0.1102
0.109991
0.109801
0.109643
0.109526
0.109458
0.109433
0.109392
0.109423
0.109472
0.109522
0.109584
0.109663
0.109759
0.109872
0.11
0.110143
0.110299
0.110469
0.110647
0.110825
0.110979
0.111068
0.111034
0.11081
0.11033
0.109547
0.108457
0.107122
0.105671
0.104297
0.103227
0.102677
0.102811
0.1037
0.10531
0.107517
0.110131
0.112919
0.115623
0.117971
0.119674
0.120434
0.119945
0.117899
0.113979
0.107869
0.0992287
0.0877797
0.0731075
0.0555019
0.0336315
0.0141161
0.132699
0.128849
0.121157
0.116766
0.116858
0.117549
0.117378
0.117164
0.117267
0.117403
0.117414
0.117343
0.117222
0.117037
0.116802
0.116572
0.116366
0.116124
0.115792
0.115402
0.11504
0.114756
0.114544
0.114371
0.114212
0.114055
0.113896
0.113737
0.113581
0.113438
0.113319
0.113229
0.113171
0.113133
0.113101
0.113117
0.113151
0.113184
0.113224
0.113276
0.113342
0.113417
0.113502
0.113595
0.113695
0.113798
0.1139
0.11399
0.114047
0.114037
0.113917
0.113635
0.113144
0.112413
0.111445
0.110292
0.109057
0.10789
0.106967
0.106456
0.106485
0.107111
0.108311
0.109986
0.11198
0.114096
0.116115
0.117796
0.11889
0.119131
0.118245
0.115945
0.111931
0.105887
0.0974633
0.0863515
0.0720843
0.0548881
0.0333502
0.0140338
0.138066
0.131897
0.121482
0.116823
0.11769
0.118653
0.118503
0.118427
0.118713
0.118995
0.119124
0.119165
0.119155
0.119081
0.118953
0.118814
0.11868
0.118509
0.118263
0.11797
0.117694
0.117477
0.117317
0.117188
0.117071
0.116955
0.116837
0.116718
0.116602
0.116494
0.116402
0.116333
0.116286
0.116252
0.116233
0.116241
0.116264
0.116289
0.116317
0.116353
0.116397
0.116446
0.1165
0.116557
0.116614
0.116668
0.116714
0.11674
0.116728
0.116651
0.116474
0.116157
0.115665
0.114979
0.114105
0.113087
0.112009
0.11099
0.11017
0.10968
0.10962
0.110037
0.110911
0.11216
0.113652
0.115221
0.116675
0.117809
0.118403
0.118222
0.11702
0.114532
0.110467
0.104511
0.0963004
0.0854981
0.0715782
0.0547102
0.0333294
0.0141522
0.143638
0.13431
0.12109
0.116727
0.11849
0.119607
0.119474
0.119561
0.120017
0.120418
0.120651
0.120795
0.120885
0.12091
0.120878
0.120821
0.120756
0.12065
0.120479
0.120263
0.120056
0.119893
0.119773
0.119679
0.119594
0.119509
0.119422
0.119333
0.119245
0.119163
0.119093
0.119038
0.118998
0.11898
0.118968
0.118971
0.118987
0.119006
0.119025
0.119048
0.119075
0.119104
0.119133
0.119161
0.119185
0.119201
0.119203
0.11918
0.119117
0.11899
0.118772
0.118432
0.117944
0.117295
0.116494
0.115578
0.114617
0.113707
0.112959
0.112476
0.112339
0.112582
0.113186
0.114082
0.115159
0.116272
0.11726
0.117943
0.11813
0.117613
0.116169
0.113549
0.109471
0.103619
0.095614
0.0850948
0.0714751
0.0548798
0.0335122
0.0144757
0.149457
0.135972
0.120077
0.116595
0.119256
0.120415
0.12032
0.120589
0.121192
0.121692
0.122017
0.122254
0.122432
0.122543
0.122593
0.122612
0.122611
0.122567
0.122462
0.122314
0.122167
0.122052
0.12197
0.121907
0.12185
0.121793
0.121731
0.121667
0.121604
0.121544
0.121491
0.121449
0.121421
0.121409
0.1214
0.121402
0.121413
0.121426
0.121437
0.12145
0.121462
0.121474
0.121483
0.121487
0.121483
0.121467
0.121433
0.12137
0.121266
0.1211
0.120849
0.120491
0.120006
0.119386
0.11864
0.1178
0.116925
0.116092
0.11539
0.114902
0.11469
0.114779
0.115153
0.115751
0.11648
0.117217
0.117823
0.118143
0.118009
0.117236
0.115617
0.112914
0.108852
0.10311
0.095297
0.0850311
0.0716698
0.0553119
0.0338499
0.0149859
0.155531
0.136775
0.118591
0.116517
0.11997
0.121089
0.121071
0.121524
0.12225
0.122833
0.123241
0.12356
0.123815
0.124001
0.124124
0.124209
0.124266
0.124278
0.124232
0.124143
0.12405
0.123977
0.12393
0.123897
0.123867
0.123834
0.123797
0.123755
0.123713
0.123672
0.123634
0.123605
0.123586
0.123577
0.123573
0.123574
0.123581
0.123589
0.123594
0.123597
0.123598
0.123595
0.123585
0.123568
0.12354
0.123496
0.123429
0.123332
0.123192
0.122991
0.122712
0.122336
0.121849
0.121246
0.120536
0.119749
0.118931
0.118146
0.117466
0.116956
0.116667
0.116617
0.116791
0.11714
0.117583
0.118017
0.118322
0.118363
0.117989
0.117032
0.115296
0.112551
0.108523
0.10289
0.095248
0.0852029
0.0720619
0.0559214
0.0342981
0.0156388
0.161838
0.136642
0.116806
0.116541
0.120608
0.121649
0.12175
0.122377
0.123201
0.123856
0.12434
0.124731
0.125054
0.125305
0.125493
0.125637
0.125746
0.125808
0.125813
0.125776
0.125729
0.125695
0.125679
0.125673
0.125667
0.125657
0.125641
0.12562
0.125597
0.125572
0.125548
0.12553
0.125518
0.125514
0.125512
0.125513
0.125517
0.12552
0.125518
0.125512
0.1255
0.125482
0.125455
0.125417
0.125363
0.125291
0.125193
0.125062
0.124885
0.124649
0.124339
0.12394
0.123442
0.122842
0.122149
0.121389
0.120601
0.119837
0.119156
0.118611
0.118244
0.11807
0.118078
0.118225
0.118445
0.118649
0.11873
0.11857
0.118029
0.11695
0.115143
0.112385
0.108402
0.102868
0.0953749
0.0855183
0.0725626
0.0566285
0.0348189
0.0163801
0.168328
0.135564
0.114902
0.116679
0.12115
0.122118
0.122371
0.123152
0.124056
0.124775
0.125326
0.125782
0.126165
0.126474
0.126717
0.126913
0.127069
0.127175
0.127225
0.127234
0.127227
0.127227
0.127238
0.127255
0.127271
0.127281
0.127282
0.127278
0.127272
0.127261
0.127247
0.127237
0.127231
0.127228
0.127226
0.127225
0.127223
0.127217
0.127204
0.127185
0.127157
0.127119
0.12707
0.127006
0.126924
0.126819
0.126686
0.126516
0.1263
0.126026
0.125681
0.125253
0.124735
0.124126
0.123434
0.122681
0.121901
0.121138
0.120441
0.119856
0.119418
0.119142
0.119019
0.119016
0.119072
0.119112
0.11904
0.118745
0.118097
0.116943
0.115102
0.11235
0.108415
0.10297
0.0956016
0.0859041
0.0731036
0.0573677
0.0353788
0.0171592
0.174916
0.133561
0.113041
0.116911
0.12159
0.122521
0.122945
0.123854
0.124821
0.125597
0.126208
0.12672
0.127153
0.127511
0.127802
0.128043
0.12824
0.128383
0.128472
0.128517
0.128544
0.128571
0.128604
0.12864
0.128672
0.128696
0.128711
0.128718
0.128724
0.128718
0.128709
0.128702
0.128695
0.128688
0.128679
0.128668
0.128653
0.128632
0.128602
0.128563
0.128512
0.12845
0.128372
0.128277
0.128162
0.128023
0.127852
0.127644
0.12739
0.127078
0.126698
0.126241
0.1257
0.125076
0.124375
0.123619
0.122835
0.122063
0.121346
0.120724
0.12023
0.119878
0.119662
0.119553
0.1195
0.119432
0.119261
0.118882
0.118171
0.116979
0.115126
0.112392
0.108504
0.103137
0.0958728
0.086309
0.0736383
0.0580904
0.0359489
0.0179362
0.18151
0.130731
0.111332
0.117196
0.121929
0.122872
0.123467
0.124476
0.12549
0.126311
0.12697
0.127526
0.127999
0.128395
0.128723
0.128998
0.129225
0.129398
0.129514
0.129587
0.129638
0.129684
0.129731
0.129778
0.129819
0.129851
0.129871
0.129885
0.129889
0.12988
0.129869
0.129857
0.129841
0.129824
0.129802
0.129775
0.129742
0.129702
0.129651
0.129589
0.129513
0.129424
0.129319
0.129195
0.129049
0.128878
0.128675
0.128435
0.128148
0.127806
0.127398
0.126917
0.126357
0.125718
0.125009
0.124245
0.123455
0.122673
0.121938
0.121289
0.120754
0.12035
0.120072
0.119896
0.119773
0.119639
0.11941
0.118985
0.118241
0.117033
0.115183
0.112472
0.108629
0.103329
0.0961522
0.0867006
0.0741388
0.0587657
0.0365078
0.0186838
0.188019
0.127206
0.109847
0.117484
0.122175
0.123168
0.123911
0.124987
0.126031
0.126882
0.127573
0.128156
0.128655
0.129075
0.129426
0.129723
0.12997
0.13016
0.130294
0.130383
0.130447
0.130503
0.130557
0.130608
0.130651
0.130684
0.130704
0.130715
0.130709
0.130697
0.130681
0.130659
0.130632
0.130602
0.130566
0.130524
0.130474
0.130416
0.130346
0.130264
0.130169
0.130058
0.129931
0.129785
0.129617
0.129423
0.129197
0.128934
0.128626
0.128263
0.127837
0.12734
0.126767
0.126119
0.125403
0.124634
0.123838
0.123048
0.122301
0.121632
0.121072
0.120635
0.120319
0.120101
0.119938
0.119767
0.119507
0.119058
0.118301
0.117092
0.115253
0.112568
0.108766
0.103523
0.0964187
0.0870614
0.0745914
0.0593773
0.0370414
0.0193871
0.194365
0.123142
0.108625
0.117738
0.122336
0.123391
0.124239
0.125348
0.126405
0.127271
0.127978
0.128576
0.129088
0.129522
0.129885
0.130193
0.13045
0.130649
0.130791
0.130889
0.130959
0.131019
0.131075
0.131125
0.131168
0.131199
0.131218
0.13122
0.131211
0.131195
0.131172
0.131142
0.131107
0.131066
0.13102
0.130967
0.130906
0.130835
0.130753
0.130658
0.130549
0.130425
0.130284
0.130125
0.129943
0.129735
0.129496
0.12922
0.128899
0.128524
0.128088
0.127582
0.127003
0.12635
0.12563
0.124859
0.12406
0.123264
0.122509
0.121829
0.121252
0.120795
0.120457
0.120217
0.120032
0.119841
0.119566
0.119109
0.11835
0.117147
0.115324
0.112664
0.108898
0.103705
0.0966618
0.0873842
0.0749926
0.0599196
0.0375413
0.0200414
0.200548
0.118809
0.107693
0.11793
0.122419
0.123523
0.124432
0.125554
0.126614
0.127488
0.128202
0.128807
0.129325
0.129764
0.130134
0.130447
0.130708
0.130911
0.131058
0.131159
0.131232
0.131293
0.131349
0.1314
0.131441
0.13147
0.131485
0.131487
0.131475
0.131455
0.131427
0.131393
0.131352
0.131306
0.131254
0.131195
0.131127
0.13105
0.130961
0.130859
0.130743
0.130612
0.130464
0.130298
0.130109
0.129894
0.129649
0.129366
0.129039
0.128659
0.128219
0.127709
0.127127
0.126473
0.125752
0.124979
0.124178
0.12338
0.12262
0.121933
0.121347
0.120879
0.120528
0.120276
0.12008
0.119882
0.119602
0.119144
0.11839
0.117197
0.11539
0.112754
0.10902
0.10387
0.096879
0.0876691
0.0753453
0.0603947
0.0380044
0.0206506
0.206711
0.114721
0.107058
0.118047
0.122437
0.123572
0.124511
0.12564
0.126702
0.127579
0.128297
0.128905
0.129426
0.129868
0.13024
0.130556
0.13082
0.131024
0.131173
0.131275
0.13135
0.131412
0.131468
0.131518
0.131558
0.131586
0.131601
0.131603
0.13159
0.131567
0.131538
0.131501
0.131458
0.13141
0.131355
0.131293
0.131222
0.131142
0.13105
0.130946
0.130827
0.130693
0.130542
0.130373
0.130181
0.129964
0.129716
0.129431
0.129102
0.128721
0.128279
0.127769
0.127187
0.126532
0.125811
0.125039
0.124237
0.123438
0.122675
0.121983
0.121392
0.120918
0.120561
0.120303
0.120103
0.119902
0.119622
0.119168
0.118421
0.11724
0.11545
0.112836
0.109132
0.104019
0.0970747
0.0879238
0.0756607
0.0608155
0.0384367
0.021234
0.212808
0.111514
0.106662
0.118096
0.122417
0.123565
0.124519
0.125654
0.126719
0.127599
0.12832
0.128929
0.129452
0.129895
0.130269
0.130586
0.130851
0.131056
0.131206
0.131309
0.131384
0.131446
0.131502
0.131552
0.131592
0.13162
0.131635
0.131637
0.131623
0.131601
0.131571
0.131534
0.131491
0.131442
0.131386
0.131323
0.131252
0.131171
0.131078
0.130973
0.130853
0.130719
0.130568
0.130397
0.130205
0.129988
0.129739
0.129455
0.129126
0.128745
0.128303
0.127794
0.127212
0.126559
0.125839
0.125067
0.124265
0.123465
0.1227
0.122006
0.121411
0.120934
0.120574
0.120313
0.120111
0.119911
0.119635
0.119186
0.118447
0.117279
0.115505
0.112914
0.109238
0.10416
0.0972583
0.0881613
0.075955
0.0612046
0.03885
0.0218247
0.217535
0.109572
0.106437
0.118123
0.122395
0.123541
0.124503
0.125644
0.126712
0.127594
0.128315
0.128926
0.129449
0.129893
0.130268
0.130585
0.13085
0.131056
0.131205
0.131309
0.131385
0.131447
0.131503
0.131554
0.131594
0.131623
0.131638
0.131639
0.131626
0.131603
0.131573
0.131536
0.131493
0.131444
0.131389
0.131326
0.131255
0.131174
0.131081
0.130976
0.130857
0.130722
0.130571
0.130401
0.130209
0.129992
0.129745
0.12946
0.129132
0.128752
0.128311
0.127803
0.127223
0.12657
0.125851
0.12508
0.124279
0.123478
0.122712
0.122016
0.121419
0.12094
0.120578
0.120316
0.120114
0.119916
0.119642
0.119199
0.11847
0.117313
0.115555
0.112983
0.109332
0.104285
0.0974208
0.0883711
0.0762137
0.061548
0.0392095
0.0223872
)
;

boundaryField
{
    inlet
    {
        type            zeroGradient;
    }
    outlet
    {
        type            fixedValue;
        value           uniform 0;
    }
    fixedWalls
    {
        type            zeroGradient;
    }
    frontAndBack
    {
        type            empty;
    }
}


// ************************************************************************* //
