/*--------------------------------*- C++ -*----------------------------------*\
| =========                 |                                                 |
| \\      /  F ield         | OpenFOAM: The Open Source CFD Toolbox           |
|  \\    /   O peration     | Version:  v1912                                 |
|   \\  /    A nd           | Website:  www.openfoam.com                      |
|    \\/     M anipulation  |                                                 |
\*---------------------------------------------------------------------------*/
FoamFile
{
    version     2.0;
    format      ascii;
    class       surfaceScalarField;
    location    "1000";
    object      phi;
}
// * * * * * * * * * * * * * * * * * * * * * * * * * * * * * * * * * * * * * //

dimensions      [0 3 -1 0 0 0 0];
oriented        oriented;


internalField   nonuniform List<scalar> 
3895
(
0.000814746
0.00038143
0.000499361
0.000315385
0.000251565
0.000247796
6.4863e-05
0.000186702
-6.21962e-05
0.000127059
-0.000127327
6.51304e-05
-0.000137639
1.0312e-05
-0.000113632
-2.40064e-05
-9.03513e-05
-2.32809e-05
-8.49473e-05
-5.40394e-06
-6.61297e-05
-1.88176e-05
-4.47459e-05
-2.13839e-05
-4.04649e-05
-4.28099e-06
-4.86704e-05
8.20548e-06
-4.57114e-05
-2.95896e-06
-3.20517e-05
-1.36597e-05
-2.51397e-05
-6.91197e-06
-2.59218e-05
7.82044e-07
-2.89428e-05
3.02099e-06
-3.04862e-05
1.5434e-06
-2.91847e-05
-1.30142e-06
-2.48995e-05
-4.28519e-06
-1.85805e-05
-6.31903e-06
-1.19784e-05
-6.60208e-06
-6.20656e-06
-5.77187e-06
-1.90644e-06
-4.30012e-06
8.35069e-07
-2.74151e-06
2.44429e-06
-1.60922e-06
3.50196e-06
-1.05767e-06
4.41618e-06
-9.14226e-07
5.3142e-06
-8.98016e-07
6.16959e-06
-8.55387e-07
6.96138e-06
-7.91798e-07
7.65186e-06
-6.90479e-07
8.16657e-06
-5.14712e-07
8.43815e-06
-2.71579e-07
8.40723e-06
3.09254e-08
7.99651e-06
4.10715e-07
7.21346e-06
7.83048e-07
6.01865e-06
1.19482e-06
4.33614e-06
1.68251e-06
2.06173e-06
2.27441e-06
-9.24858e-07
2.98659e-06
-4.74596e-06
3.8211e-06
-9.5174e-06
4.77144e-06
-1.53886e-05
5.87121e-06
-2.26896e-05
7.30104e-06
-3.21258e-05
9.43615e-06
-4.50262e-05
1.29005e-05
-6.35484e-05
1.85222e-05
-9.06008e-05
2.70524e-05
-0.000129224
3.86229e-05
-0.000181756
5.25327e-05
-0.000249143
6.73862e-05
-0.000330032
8.08894e-05
-0.000419944
8.9912e-05
-0.000511498
9.1554e-05
-0.000595771
8.42734e-05
-0.000663884
6.81121e-05
-0.000707072
4.31879e-05
-0.00071442
7.34896e-06
-0.000696487
-1.79331e-05
-0.00065755
-3.89379e-05
-0.0006012
-5.63492e-05
-0.000531359
-6.98411e-05
-0.000451089
-8.02701e-05
-0.000362395
-8.86945e-05
-0.000266839
-9.55558e-05
-0.000166041
-0.000100798
-6.16992e-05
-0.000104342
4.42194e-05
-0.000105919
0.000149762
-0.000105542
0.000253363
-0.000103601
0.000353682
-0.000100319
0.000449845
-9.61628e-05
0.000541782
-9.19368e-05
0.000629746
-8.79644e-05
0.00071687
-8.71241e-05
0.000803493
-8.66223e-05
-0.000107414
0.00108795
0.000349294
0.00104738
0.000355946
0.000933278
0.000361903
0.000775747
0.000344233
0.000598431
0.000304375
0.000410383
0.000253178
0.000221248
0.000199447
5.3877e-05
0.000143365
-6.04246e-05
9.10208e-05
-0.000110188
4.43597e-05
-0.000131882
2.87631e-06
-0.000123968
-2.92983e-05
-0.000105671
-2.2578e-05
-0.000107783
1.03177e-05
-0.000103375
-7.36742e-06
-9.07479e-05
-2.62864e-05
-7.67537e-05
-2.09062e-05
-7.88639e-05
2.89225e-06
-8.71295e-05
1.12866e-05
-9.2629e-05
7.04294e-06
-9.45835e-05
6.53038e-07
-9.09573e-05
-7.91133e-06
-8.48043e-05
-1.24721e-05
-7.80675e-05
-1.33389e-05
-7.15061e-05
-1.23332e-05
-6.58504e-05
-9.95586e-06
-6.17181e-05
-6.87378e-06
-5.95674e-05
-3.75992e-06
-5.92741e-05
-1.35096e-06
-6.03286e-05
1.40263e-07
-6.25478e-05
1.32125e-06
-6.52437e-05
1.84046e-06
-6.81103e-05
2.07481e-06
-7.10705e-05
2.26969e-06
-7.42573e-05
2.67212e-06
-7.78232e-05
3.29433e-06
-8.18801e-05
4.08778e-06
-8.64771e-05
5.00775e-06
-9.17181e-05
6.02404e-06
-9.76426e-05
7.11931e-06
-0.000104252
8.29146e-06
-0.00011153
9.55252e-06
-0.000119454
1.09113e-05
-0.000127984
1.23505e-05
-0.000137036
1.38238e-05
-0.000146489
1.53237e-05
-0.000156248
1.70599e-05
-0.000166331
1.952e-05
-0.00017688
2.34488e-05
-0.00018805
2.9693e-05
-0.000200078
3.90796e-05
-0.0002133
5.18457e-05
-0.00022775
6.69821e-05
-0.00024256
8.21964e-05
-0.000255529
9.38581e-05
-0.000262776
9.71594e-05
-0.000259474
8.82523e-05
-0.000241483
6.62822e-05
-0.000207568
3.4197e-05
-0.000166675
2.2952e-06
-0.000120107
-3.92197e-05
-6.8128e-05
-6.99118e-05
-1.35313e-05
-9.35346e-05
4.27644e-05
-0.000112645
0.000102354
-0.000129431
0.000166422
-0.000144338
0.000234836
-0.000157109
0.000306545
-0.000167265
0.000380011
-0.000174265
0.000453463
-0.000177793
0.000525378
-0.000177834
0.000594528
-0.000174692
0.000659853
-0.000168927
0.000720789
-0.000161255
0.00077718
-0.000152553
0.000829134
-0.000143891
0.000877517
-0.000136348
0.000922358
-0.000131965
0.000966372
-0.000130637
-0.000141992
0.000975282
0.000305926
0.00102604
0.000305187
0.00106097
0.000326974
0.00105862
0.000346584
0.00101217
0.00035082
0.000925048
0.000340304
0.000805752
0.000318743
0.000661765
0.000287352
0.000504928
0.000247857
0.000345843
0.000203445
0.000190168
0.000158552
4.7057e-05
0.000113812
-4.98375e-05
7.43166e-05
-8.59849e-05
4.64651e-05
-0.00010587
1.25177e-05
-0.000113875
-1.82817e-05
-0.000101871
-3.29098e-05
-9.15498e-05
-7.42914e-06
-9.90004e-05
1.87372e-05
-0.000108456
1.64989e-05
-0.000114962
7.15852e-06
-0.000119599
-3.27435e-06
-0.000121679
-1.03917e-05
-0.000120589
-1.44295e-05
-0.000118972
-1.39501e-05
-0.000118714
-1.0213e-05
-0.000120414
-5.17416e-06
-0.000124241
6.65883e-08
-0.000128323
2.73096e-06
-0.000132835
4.65288e-06
-0.000137354
5.83961e-06
-0.000141926
6.41262e-06
-0.000146434
6.58268e-06
-0.00015079
6.62567e-06
-0.000155062
6.94411e-06
-0.000159416
7.64848e-06
-0.000163954
8.62597e-06
-0.000168656
9.70991e-06
-0.000173443
1.08111e-05
-0.000178226
1.19023e-05
-0.000182905
1.29702e-05
-0.000187368
1.40161e-05
-0.000191487
1.50301e-05
-0.000195057
1.592e-05
-0.000197713
1.64806e-05
-0.000198809
1.64192e-05
-0.000197332
1.5583e-05
-0.000192318
1.45064e-05
-0.00018278
1.39108e-05
-0.000167663
1.45751e-05
-0.000145595
1.70124e-05
-0.000115883
2.21329e-05
-7.76799e-05
2.87793e-05
-3.03692e-05
3.48857e-05
2.57649e-05
3.7724e-05
8.81618e-05
3.47625e-05
0.000152301
2.41132e-05
0.000211976
6.60747e-06
0.000266515
-2.03421e-05
0.00031843
-4.96201e-05
0.000360848
-8.16379e-05
0.000402084
-0.000111147
0.000445561
-0.000137012
0.000492807
-0.000159891
0.000543295
-0.000179918
0.000595642
-0.000196685
0.000648138
-0.000209605
0.000699081
-0.000218207
0.000747071
-0.000222255
0.000791093
-0.000221815
0.00083053
-0.000217271
0.000865119
-0.000209281
0.000894898
-0.000198706
0.000920166
-0.000186523
0.000941398
-0.000173785
0.000959098
-0.000161591
0.000973865
-0.000151114
0.000985571
-0.000143671
0.000995283
-0.000140349
-0.000144838
0.000857109
0.000271374
0.000897355
0.000264941
0.000950164
0.000274165
0.00100471
0.000292042
0.00104637
0.000309153
0.00106531
0.000321372
0.00105664
0.000327411
0.00101794
0.000326054
0.000949552
0.000316241
0.00085508
0.000297917
0.000740895
0.000272737
0.000611932
0.000242776
0.000476494
0.000209754
0.000348327
0.000174632
0.000223535
0.00013731
0.000102247
0.000103006
-1.42846e-07
6.948e-05
-5.16331e-05
4.40611e-05
-6.2883e-05
2.99871e-05
-6.47467e-05
1.83625e-05
-6.7096e-05
9.50776e-06
-7.30006e-05
2.63031e-06
-8.04624e-05
-2.92989e-06
-8.89864e-05
-5.90553e-06
-9.6338e-05
-6.5985e-06
-0.000101843
-4.70853e-06
-0.000106806
-2.1067e-07
-0.000112177
5.43739e-06
-0.000117766
8.31969e-06
-0.000122909
9.79585e-06
-0.000127272
1.02031e-05
-0.000130786
9.92678e-06
-0.000133521
9.31778e-06
-0.000135316
8.42012e-06
-0.000136498
8.12627e-06
-0.000137178
8.32907e-06
-0.00013743
8.87723e-06
-0.000136941
9.22104e-06
-0.000135546
9.4167e-06
-0.000133126
9.48218e-06
-0.000129533
9.37716e-06
-0.00012459
9.07318e-06
-0.00011814
8.57928e-06
-0.000109993
7.77298e-06
-9.98987e-05
6.38673e-06
-8.76288e-05
4.1493e-06
-7.22034e-05
1.576e-07
-5.39693e-05
-3.72767e-06
-3.16509e-05
-8.4076e-06
-3.78242e-06
-1.32934e-05
3.08909e-05
-1.76609e-05
7.43826e-05
-2.13588e-05
0.000127476
-2.43139e-05
0.000189533
-2.71713e-05
0.000258468
-3.12114e-05
0.000331287
-3.80558e-05
0.000404618
-4.92185e-05
0.000476838
-6.56121e-05
0.000543745
-8.72489e-05
0.000606013
-0.000111889
0.000662141
-0.000137765
0.000713808
-0.000162814
0.000762288
-0.000185493
0.000807469
-0.000205072
0.000848588
-0.000221037
0.000884783
-0.000232881
0.000915379
-0.000240201
0.000940009
-0.000242836
0.000958668
-0.000240914
0.000971691
-0.000234838
0.000979669
-0.000225249
0.00098335
-0.000212963
0.000983544
-0.0001989
0.000981035
-0.000184014
0.000976507
-0.000169257
0.000970467
-0.000155552
0.000963208
-0.000143855
0.000954561
-0.000135024
0.000944384
-0.000130171
-0.000130297
0.000759397
0.000238011
0.000790536
0.000233802
0.000828351
0.000236349
0.000874985
0.000245408
0.000927002
0.000257137
0.000978871
0.000269503
0.00102441
0.000281869
0.00105755
0.000292918
0.00107319
0.000300602
0.00106786
0.000303245
0.00104042
0.000300179
0.000991565
0.00029163
0.000923239
0.00027808
0.00083886
0.000259011
0.000741525
0.000234645
0.000636636
0.000207896
0.000532151
0.000173965
0.000433901
0.000142312
0.000348943
0.000114944
0.000276027
9.12786e-05
0.000213743
7.1792e-05
0.000160423
5.59502e-05
0.000114126
4.33677e-05
7.45227e-05
3.36974e-05
4.17037e-05
2.62205e-05
1.65769e-05
2.04183e-05
3.17555e-07
1.60486e-05
-7.31175e-06
1.30667e-05
-9.55716e-06
1.05651e-05
-8.34176e-06
8.58045e-06
-5.02869e-06
6.89001e-06
-4.63234e-07
5.36133e-06
4.9385e-06
3.91604e-06
1.08513e-05
2.50732e-06
1.72711e-05
1.70646e-06
2.48096e-05
7.90626e-07
3.40274e-05
-3.40632e-07
4.48735e-05
-1.62508e-06
5.76154e-05
-3.32521e-06
7.25438e-05
-5.44616e-06
8.99408e-05
-8.01991e-06
0.000110101
-1.10872e-05
0.00013335
-1.46696e-05
0.000159929
-1.88063e-05
0.000189889
-2.35728e-05
0.000223101
-2.90625e-05
0.000258546
-3.5288e-05
0.000296742
-4.19238e-05
0.000337206
-4.88716e-05
0.00037979
-5.58773e-05
0.000424737
-6.26081e-05
0.000472267
-6.88878e-05
0.00052277
-7.48177e-05
0.000576418
-8.08191e-05
0.000632865
-8.7658e-05
0.000691089
-9.62798e-05
0.000749403
-0.000107533
0.000805617
-0.000121826
0.000857306
-0.000138938
0.000903278
-0.000157861
0.000942744
-0.000177231
0.000975546
-0.000195616
0.00100177
-0.000211717
0.00102136
-0.000224657
0.00103424
-0.000233917
0.00104054
-0.000239188
0.00104069
-0.00024035
0.00103536
-0.000237507
0.00102544
-0.000230993
0.00101194
-0.000221332
0.000995875
-0.000209188
0.000978221
-0.000195309
0.000959795
-0.000180474
0.000941232
-0.000165451
0.000922953
-0.000150978
0.000905144
-0.000137743
0.000887737
-0.000126448
0.000870356
-0.000117643
0.000852361
-0.000112177
-0.000110198
0.000672433
0.000206414
0.000702275
0.000203961
0.000733372
0.000205252
0.000767839
0.00021094
0.000806614
0.000218362
0.000850036
0.000226081
0.000897301
0.000234604
0.000946031
0.000244188
0.000992641
0.000253992
0.00103305
0.000262834
0.00106349
0.000269743
0.00108117
0.000273948
0.00108444
0.000274805
0.00107207
0.000271382
0.0010437
0.000263017
0.00100103
0.000250564
0.000949033
0.000225964
0.000891657
0.000199688
0.0008319
0.000174701
0.000772155
0.000151024
0.00071462
0.000129327
0.000660581
0.000109989
0.000610844
9.31054e-05
0.000565997
7.85439e-05
0.000526247
6.59707e-05
0.000491575
5.50901e-05
0.000461954
4.56695e-05
0.000437597
3.74237e-05
0.000418156
3.00063e-05
0.000403397
2.33396e-05
0.000392994
1.72929e-05
0.000386603
1.17521e-05
0.000383955
6.56413e-06
0.000385256
1.20621e-06
0.000390179
-3.21666e-06
0.000398824
-7.85444e-06
0.000411033
-1.25496e-05
0.000426687
-1.72791e-05
0.000445537
-2.21746e-05
0.000467378
-2.72878e-05
0.000492001
-3.26421e-05
0.000519171
-3.82579e-05
0.000548649
-4.41472e-05
0.000580161
-5.03188e-05
0.000613372
-5.67832e-05
0.000647845
-6.35361e-05
0.000683084
-7.05271e-05
0.000718766
-7.76056e-05
0.000754502
-8.46079e-05
0.000789992
-9.13666e-05
0.000825104
-9.77201e-05
0.000859825
-0.000103609
0.000894172
-0.000109164
0.000928075
-0.000114722
0.000961226
-0.000120809
0.000992973
-0.000128027
0.00102232
-0.000136881
0.00104807
-0.000147577
0.00106904
-0.000159903
0.00108435
-0.000173175
0.0010935
-0.000186386
0.00109635
-0.000198462
0.00109309
-0.000208455
0.00108413
-0.000215697
0.00107003
-0.000219819
0.00105153
-0.000220682
0.00102949
-0.000218315
0.0010049
-0.000212914
0.00097873
-0.000204827
0.000951913
-0.000194514
0.000925242
-0.000182517
0.000899345
-0.000169412
0.00087466
-0.000155789
0.000851431
-0.000142222
0.000829718
-0.000129264
0.000809398
-0.000117423
0.000790173
-0.000107224
0.000771529
-9.89981e-05
0.000752827
-9.34753e-05
-9.02178e-05
0.000594386
0.000177665
0.00062317
0.000175177
0.000652323
0.000176099
0.000682115
0.000181149
0.000712924
0.000187552
0.000745613
0.000193392
0.000781181
0.000199036
0.000820193
0.000205175
0.000862411
0.000211774
0.000906707
0.000218538
0.000951215
0.000225234
0.00099366
0.000231504
0.00103171
0.000236754
0.00106298
0.000240113
0.0010853
0.000240697
0.00109753
0.000238336
0.00109977
0.000223725
0.00109369
0.000205768
0.00108083
0.000187562
0.00106267
0.000169174
0.00104092
0.000151083
0.00101711
0.000133799
0.000992583
0.000117632
0.000968432
0.000102694
0.000945445
8.8958e-05
0.0009242
7.63351e-05
0.000905148
6.47213e-05
0.000888609
5.39625e-05
0.000874717
4.38982e-05
0.000863608
3.44492e-05
0.000855352
2.55483e-05
0.000849991
1.71138e-05
0.000847511
9.04379e-06
0.00084733
1.38751e-06
0.000850204
-6.09057e-06
0.000855602
-1.32527e-05
0.000863361
-2.03086e-05
0.000873337
-2.72551e-05
0.000885285
-3.41225e-05
0.000898941
-4.0944e-05
0.000914033
-4.77341e-05
0.00093027
-5.44953e-05
0.000947347
-6.12243e-05
0.000964942
-6.79139e-05
0.000982712
-7.45528e-05
0.00100029
-8.11171e-05
0.00101732
-8.75553e-05
0.00103349
-9.3772e-05
0.00104853
-9.96546e-05
0.00106228
-0.000105108
0.00107463
-0.000110072
0.00108559
-0.000114567
0.00109516
-0.00011874
0.00110331
-0.000122873
0.00110986
-0.000127357
0.00111444
-0.000132604
0.0011165
-0.000138938
0.00111538
-0.000146464
0.00111047
-0.000154993
0.00110133
-0.00016403
0.0010878
-0.000172859
0.00107005
-0.000180716
0.00104853
-0.000186929
0.00102384
-0.000191013
0.00099672
-0.000192696
0.000967927
-0.000191888
0.000938244
-0.000188632
0.000908415
-0.000183085
0.000879093
-0.000175505
0.000850809
-0.000166231
0.00082395
-0.000155658
0.000798753
-0.000144216
0.00077532
-0.000132356
0.000753626
-0.000120528
0.000733539
-0.000109178
0.000714824
-9.87074e-05
0.000697146
-8.95467e-05
0.000680005
-8.18562e-05
0.00066293
-7.64006e-05
-7.20196e-05
0.000525111
0.000151816
0.000551936
0.000148352
0.000579146
0.000148889
0.000606467
0.000153827
0.000634006
0.000160013
0.000661953
0.000165445
0.000690628
0.000170362
0.000720605
0.000175198
0.000752535
0.000179845
0.000786873
0.000184199
0.000823722
0.000188386
0.00086273
0.000192496
0.00090308
0.000196403
0.000943487
0.000199707
0.000982309
0.000201875
0.00101803
0.000202617
0.00104832
0.000193431
0.00107278
0.000181313
0.00109162
0.000168723
0.00110524
0.000155556
0.00111427
0.000142046
0.00111951
0.000128562
0.00112176
0.000115382
0.00112179
0.00010266
0.00112029
9.04592e-05
0.00111784
7.87855e-05
0.00111494
6.76215e-05
0.00111198
5.69239e-05
0.00110924
4.66375e-05
0.00110696
3.67321e-05
0.00110531
2.71948e-05
0.00110442
1.80054e-05
0.00110431
9.15432e-06
0.00110491
7.84784e-07
0.00110634
-7.51877e-06
0.00110841
-1.53256e-05
0.00111101
-2.29091e-05
0.00111404
-3.02805e-05
0.00111735
-3.74385e-05
0.0011208
-4.43944e-05
0.00112422
-5.11535e-05
0.00112744
-5.7711e-05
0.00113027
-6.40582e-05
0.00113254
-7.01844e-05
0.00113407
-7.60767e-05
0.00113467
-8.17147e-05
0.00113417
-8.70629e-05
0.00113247
-9.20669e-05
0.00112948
-9.66664e-05
0.00112519
-0.00010082
0.00111964
-0.000104525
0.00111292
-0.000107838
0.00110508
-0.000110906
0.00109617
-0.000113961
0.00108611
-0.000117295
0.00107471
-0.000121203
0.00106167
-0.000125902
0.00104666
-0.000131453
0.00102938
-0.000137709
0.00100966
-0.000144314
0.00098756
-0.000150757
0.000963326
-0.000156482
0.000937379
-0.000160982
0.000910235
-0.000163869
0.00088244
-0.000164901
0.000854521
-0.00016397
0.00082696
-0.000161071
0.000800165
-0.000156289
0.000774453
-0.000149792
0.000750041
-0.000141819
0.000727053
-0.000132669
0.000705527
-0.00012269
0.000685431
-0.00011226
0.000666676
-0.000101773
0.000649122
-9.16239e-05
0.000632572
-8.21572e-05
0.00061677
-7.37448e-05
0.000601322
-6.64083e-05
0.000585901
-6.09797e-05
-5.5549e-05
0.00046394
0.000128551
0.000488639
0.000123652
0.00051348
0.000124049
0.000538159
0.000129148
0.000563122
0.00013505
0.000588445
0.000140122
0.00061397
0.000144837
0.000639764
0.000149404
0.000666083
0.000153526
0.000693245
0.000157037
0.00072161
0.00016002
0.00075152
0.000162587
0.00078317
0.000164753
0.000816474
0.000166403
0.000850999
0.000167349
0.000886112
0.000167504
0.000919682
0.000159861
0.000950825
0.000150169
0.00097917
0.000140378
0.00100445
0.000130274
0.00102659
0.000119904
0.0010457
0.000109455
0.00106199
9.90904e-05
0.00107575
8.89034e-05
0.00108727
7.89355e-05
0.00109686
6.91993e-05
0.00110478
5.96957e-05
0.00111129
5.0416e-05
0.00111658
4.13453e-05
0.00112083
3.24831e-05
0.00112418
2.3845e-05
0.00112674
1.54481e-05
0.00112858
7.31171e-06
0.00112978
-4.08153e-07
0.00113028
-8.02336e-06
0.00113015
-1.51964e-05
0.00112936
-2.21188e-05
0.00112789
-2.88058e-05
0.0011257
-3.52524e-05
0.00112276
-4.14581e-05
0.00111903
-4.74227e-05
0.00111446
-5.31415e-05
0.00110901
-5.86071e-05
0.00110264
-6.38118e-05
0.00109531
-6.87468e-05
0.00108699
-7.33997e-05
0.00107768
-7.77504e-05
0.00106739
-8.17707e-05
0.00105615
-8.54328e-05
0.00104406
-8.87253e-05
0.0010312
-9.16695e-05
0.0010177
-9.43332e-05
0.00100364
-9.68441e-05
0.000989062
-9.93874e-05
0.000973951
-0.000102184
0.000958197
-0.000105449
0.000941632
-0.000109337
0.000924063
-0.000113884
0.000905332
-0.000118979
0.000885372
-0.000124354
0.00086424
-0.000129625
0.000842115
-0.000134357
0.000819271
-0.000138138
0.000796031
-0.000140629
0.000772721
-0.000141591
0.000749639
-0.000140887
0.000727035
-0.000138468
0.00070511
-0.000134364
0.000684004
-0.000128686
0.000663802
-0.000121618
0.000644545
-0.000113413
0.000626237
-0.000104381
0.000608851
-9.48747e-05
0.000592344
-8.52647e-05
0.000576642
-7.5922e-05
0.00056164
-6.71557e-05
0.000547179
-5.92836e-05
0.000532992
-5.22217e-05
0.000518798
-4.67849e-05
-4.04978e-05
0.000410014
0.000107501
0.000432754
0.000100912
0.000455183
0.00010162
0.000477152
0.000107179
0.000499455
0.000112747
0.000522203
0.000117374
0.000545203
0.000121836
0.00056844
0.000126167
0.00059194
0.000130026
0.000615686
0.00013329
0.000639722
0.000135985
0.00066419
0.000138119
0.000689281
0.000139662
0.000715152
0.000140532
0.000741864
0.000140638
0.000769388
0.00013998
0.000796434
0.000132814
0.000822522
0.000124082
0.000847429
0.000115472
0.000870887
0.000106816
0.000892682
9.81093e-05
0.000912688
8.94495e-05
0.000930854
8.09239e-05
0.000947185
7.25729e-05
0.000961718
6.44027e-05
0.000974512
5.6405e-05
0.000985639
4.85686e-05
0.000995174
4.08814e-05
0.00100319
3.33326e-05
0.00100975
2.59242e-05
0.00101492
1.86731e-05
0.00101876
1.16028e-05
0.00102133
4.7425e-06
0.00102277
-1.84191e-06
0.00102301
-8.2635e-06
0.00102221
-1.43977e-05
0.00102038
-2.02941e-05
0.00101756
-2.59796e-05
0.00101376
-3.14539e-05
0.00100901
-3.67126e-05
0.00100334
-4.17536e-05
0.000996775
-4.65739e-05
0.000989337
-5.11688e-05
0.000981058
-5.55327e-05
0.000971971
-5.96599e-05
0.000962113
-6.3542e-05
0.000951529
-6.71668e-05
0.000940278
-7.05189e-05
0.00092843
-7.35854e-05
0.000916072
-7.63675e-05
0.000903296
-7.88928e-05
0.000890187
-8.12247e-05
0.000876813
-8.34703e-05
0.000863202
-8.57764e-05
0.000849332
-8.83134e-05
0.000835126
-9.12434e-05
0.000820469
-9.46794e-05
0.00080523
-9.86459e-05
0.000789303
-0.000103051
0.000772633
-0.000107684
0.000755243
-0.000112235
0.000737231
-0.000116346
0.000718754
-0.000119661
0.000699996
-0.000121871
0.000681143
-0.000122739
0.000662364
-0.000122108
0.000643798
-0.000119902
0.000625556
-0.000116123
0.000607722
-0.000110852
0.000590357
-0.000104252
0.000573503
-9.65595e-05
0.000557197
-8.80745e-05
0.000541464
-7.91419e-05
0.000526324
-7.01245e-05
0.000511778
-6.13766e-05
0.000497804
-5.31815e-05
0.000484315
-4.57939e-05
0.000471155
-3.90625e-05
0.00045801
-3.36396e-05
-2.6813e-05
0.000362528
8.82933e-05
0.000383496
7.99438e-05
0.000403597
8.15192e-05
0.000423064
8.77118e-05
0.00044288
9.29311e-05
0.000463078
9.71768e-05
0.000483524
0.00010139
0.000504297
0.000105394
0.00052542
0.000108903
0.000546805
0.000111905
0.000568367
0.000114423
0.000590058
0.000116428
0.000611865
0.000117854
0.000633785
0.000118612
0.000655814
0.000118608
0.000677971
0.000117824
0.000699347
0.000111438
0.00071975
0.000103679
0.00073919
9.60325e-05
0.000757602
8.84032e-05
0.00077491
8.08014e-05
0.000791052
7.33082e-05
0.000805983
6.59922e-05
0.000819676
5.88799e-05
0.000832112
5.1967e-05
0.00084328
4.52369e-05
0.000853178
3.86706e-05
0.000861809
3.22502e-05
0.000869181
2.59612e-05
0.000875305
1.97998e-05
0.000880203
1.37755e-05
0.000883902
7.90411e-06
0.000886447
2.19754e-06
0.00088791
-3.30578e-06
0.000888312
-8.66469e-06
0.000887739
-1.38252e-05
0.000886231
-1.87857e-05
0.000883819
-2.3568e-05
0.000880541
-2.81761e-05
0.000876435
-3.26064e-05
0.000871538
-3.68562e-05
0.000865887
-4.09229e-05
0.000859521
-4.48028e-05
0.000852479
-4.84911e-05
0.000844802
-5.19824e-05
0.000836529
-5.52696e-05
0.000827706
-5.83437e-05
0.000818382
-6.11948e-05
0.000808613
-6.38165e-05
0.000798461
-6.62151e-05
0.000787986
-6.84183e-05
0.000777245
-7.04832e-05
0.000766274
-7.24999e-05
0.000755086
-7.45886e-05
0.000743659
-7.68856e-05
0.000731934
-7.95183e-05
0.000719828
-8.25739e-05
0.00070725
-8.60677e-05
0.000694119
-8.99207e-05
0.00068039
-9.39551e-05
0.000666065
-9.79094e-05
0.000651192
-0.000101473
0.000635857
-0.000104326
0.000620166
-0.00010618
0.000604229
-0.000106801
0.000588148
-0.000106027
0.000572015
-0.000103769
0.000555915
-0.000100022
0.000539924
-9.48615e-05
0.000524122
-8.84497e-05
0.000508588
-8.10257e-05
0.000493406
-7.28924e-05
0.000478658
-6.4394e-05
0.00046442
-5.58861e-05
0.000450746
-4.7703e-05
0.000437667
-4.01027e-05
0.000425139
-3.32651e-05
0.000413091
-2.70148e-05
0.000401132
-2.16808e-05
-1.46919e-05
0.000320758
7.05686e-05
0.000340087
6.06147e-05
0.000357962
6.3644e-05
0.000375206
7.04679e-05
0.000392819
7.53176e-05
0.00041069
7.93065e-05
0.000428757
8.33231e-05
0.000447162
8.69892e-05
0.000465939
9.01264e-05
0.000485023
9.28205e-05
0.000504347
9.50998e-05
0.000523846
9.69281e-05
0.000543446
9.82545e-05
0.000563056
9.90021e-05
0.000582581
9.90828e-05
0.000601945
9.84601e-05
0.000620301
9.30823e-05
0.000637492
8.64873e-05
0.000653584
7.99407e-05
0.000668602
7.33852e-05
0.00068256
6.68438e-05
0.000695474
6.03939e-05
0.000707364
5.41025e-05
0.000718245
4.79984e-05
0.000728131
4.20814e-05
0.00073703
3.6338e-05
0.000744949
3.07515e-05
0.000751894
2.53053e-05
0.00075787
1.99845e-05
0.000762887
1.47834e-05
0.000766955
9.7074e-06
0.000770091
4.76782e-06
0.000772332
-4.38171e-08
0.000773711
-4.68447e-06
0.00077425
-9.20386e-06
0.000773991
-1.3566e-05
0.000772968
-1.7763e-05
0.000771208
-2.18078e-05
0.000768738
-2.57064e-05
0.000765588
-2.94564e-05
0.000761787
-3.30548e-05
0.000757363
-3.64988e-05
0.000752345
-3.9785e-05
0.000746763
-4.29087e-05
0.000740645
-4.58649e-05
0.000734023
-4.86473e-05
0.000726928
-5.12487e-05
0.000719395
-5.36622e-05
0.000711464
-5.58853e-05
0.000703176
-5.79265e-05
0.00069457
-5.98129e-05
0.000685683
-6.15955e-05
0.000676535
-6.33525e-05
0.000667132
-6.51851e-05
0.000657452
-6.72063e-05
0.000647454
-6.95197e-05
0.000637074
-7.2194e-05
0.000626243
-7.52367e-05
0.000614897
-7.8575e-05
0.000602993
-8.20506e-05
0.000590514
-8.54309e-05
0.000577477
-8.84356e-05
0.000563923
-9.07713e-05
0.000549909
-9.21667e-05
0.000535507
-9.2399e-05
0.000520792
-9.13117e-05
0.000505849
-8.88257e-05
0.000490772
-8.49447e-05
0.000475669
-7.97588e-05
0.000460661
-7.34418e-05
0.000445878
-6.62423e-05
0.000431451
-5.84657e-05
0.000417506
-5.04488e-05
0.00040415
-4.253e-05
0.000391459
-3.50128e-05
0.000379483
-2.81267e-05
0.000368186
-2.19681e-05
0.000357556
-1.63841e-05
0.000347118
-1.12431e-05
-4.45908e-06
0.000284047
5.3995e-05
0.000301804
4.28575e-05
0.000317587
4.78611e-05
0.000332893
5.51619e-05
0.000348559
5.96515e-05
0.000364356
6.35097e-05
0.00038032
6.73584e-05
0.000396611
7.06988e-05
0.000413236
7.35008e-05
0.000430146
7.59107e-05
0.000447302
7.79438e-05
0.000464664
7.95663e-05
0.000482171
8.07472e-05
0.000499741
8.14325e-05
0.000517271
8.1552e-05
0.000534662
8.10698e-05
0.000551105
7.66393e-05
0.000566422
7.11705e-05
0.000580652
6.57101e-05
0.000593821
6.02162e-05
0.000605953
5.47117e-05
0.000617081
4.92661e-05
0.000627242
4.39414e-05
0.000636473
3.87675e-05
0.000644807
3.37479e-05
0.000652271
2.88738e-05
0.00065889
2.41329e-05
0.000664682
1.95124e-05
0.000669667
1.49995e-05
0.000673861
1.05897e-05
0.00067728
6.28845e-06
0.000679946
2.10214e-06
0.000681872
-1.97036e-06
0.000683093
-5.90528e-06
0.000683617
-9.7272e-06
0.000683471
-1.34204e-05
0.000682684
-1.69757e-05
0.000681276
-2.03998e-05
0.000679268
-2.36985e-05
0.000676682
-2.68706e-05
0.00067354
-2.99128e-05
0.000669863
-3.28222e-05
0.000665674
-3.55952e-05
0.000660993
-3.82276e-05
0.000655842
-4.07143e-05
0.000650244
-4.30493e-05
0.000644222
-4.52266e-05
0.0006378
-4.72407e-05
0.000631006
-4.9091e-05
0.000623866
-5.07864e-05
0.000616405
-5.2352e-05
0.000608643
-5.38339e-05
0.000600591
-5.53001e-05
0.000592244
-5.68378e-05
0.00058358
-5.85425e-05
0.00057456
-6.04999e-05
0.00056513
-6.27643e-05
0.000555229
-6.53357e-05
0.000544798
-6.81433e-05
0.000533788
-7.10407e-05
0.000522172
-7.3815e-05
0.000509946
-7.621e-05
0.000497132
-7.79573e-05
0.000483774
-7.88089e-05
0.00046994
-7.85646e-05
0.000455719
-7.70906e-05
0.000441224
-7.43309e-05
0.000426592
-7.03124e-05
0.000411977
-6.51445e-05
0.000397549
-5.90138e-05
0.000383478
-5.21706e-05
0.000369922
-4.491e-05
0.00035702
-3.75463e-05
0.000344876
-3.03861e-05
0.000333553
-2.36904e-05
0.000323085
-1.76589e-05
0.00031342
-1.23025e-05
0.000304579
-7.54363e-06
0.000296034
-2.69758e-06
3.60175e-06
0.000251798
3.82832e-05
0.000267991
2.66645e-05
0.000281861
3.39914e-05
0.000295501
4.15218e-05
0.000309433
4.57198e-05
0.00032339
4.95522e-05
0.000337519
5.32298e-05
0.00035196
5.62579e-05
0.000366692
5.87689e-05
0.00038167
6.09327e-05
0.000396868
6.27456e-05
0.000412256
6.41785e-05
0.000427787
6.52162e-05
0.000443398
6.5821e-05
0.000459011
6.59389e-05
0.00047454
6.55413e-05
0.000489254
6.19246e-05
0.00050298
5.74452e-05
0.000515738
5.29518e-05
0.000527543
4.84117e-05
0.000538408
4.38461e-05
0.000548359
3.93153e-05
0.000557425
3.4875e-05
0.00056564
3.0553e-05
0.000573034
2.63537e-05
0.000579637
2.22708e-05
0.000585475
1.82952e-05
0.00059057
1.44171e-05
0.000594945
1.06244e-05
0.00059862
6.91519e-06
0.000601612
3.29614e-06
0.000603942
-2.27637e-07
0.000605626
-3.65452e-06
0.000606691
-6.97022e-06
0.000607149
-1.01854e-05
0.000607023
-1.3294e-05
0.000606334
-1.62874e-05
0.000605103
-1.91684e-05
0.000603346
-2.19413e-05
0.00060108
-2.46051e-05
0.000598323
-2.71561e-05
0.000595092
-2.95905e-05
0.0005914
-3.19041e-05
0.000587265
-3.4092e-05
0.000582699
-3.61486e-05
0.000577717
-3.80675e-05
0.000572333
-3.98424e-05
0.000566561
-4.14684e-05
0.000560415
-4.29449e-05
0.000553909
-4.42808e-05
0.000547056
-4.54989e-05
0.000539863
-4.66408e-05
0.00053233
-4.77671e-05
0.000524446
-4.89542e-05
0.000516188
-5.02842e-05
0.000507518
-5.18294e-05
0.000498386
-5.36325e-05
0.000488738
-5.56874e-05
0.000478519
-5.79249e-05
0.000467688
-6.0209e-05
0.000456218
-6.23457e-05
0.000444113
-6.41044e-05
0.000431402
-6.52467e-05
0.00041815
-6.55567e-05
0.000404452
-6.48668e-05
0.000390436
-6.3075e-05
0.000376259
-6.0154e-05
0.0003621
-5.61533e-05
0.000348152
-5.11957e-05
0.000334606
-4.54681e-05
0.000321643
-3.92075e-05
0.000309415
-3.26823e-05
0.000298038
-2.61695e-05
0.000287585
-1.99331e-05
0.000278081
-1.4186e-05
0.000269524
-9.10219e-06
0.000261832
-4.61003e-06
0.000255052
-7.64491e-07
0.00024865
3.70539e-06
9.38363e-06
0.000223468
2.31975e-05
0.000238065
1.2068e-05
0.000250245
2.18105e-05
0.00026246
2.93075e-05
0.000274839
3.33406e-05
0.000287177
3.72144e-05
0.000299706
4.07001e-05
0.00031253
4.34339e-05
0.000325606
4.56933e-05
0.000338896
4.76424e-05
0.00035238
4.92613e-05
0.000366029
5.05295e-05
0.000379802
5.14436e-05
0.000393646
5.19771e-05
0.000407498
5.20872e-05
0.000421286
5.17526e-05
0.000434366
4.88447e-05
0.00044658
4.52314e-05
0.000457947
4.15851e-05
0.000468477
3.78812e-05
0.000478183
3.41405e-05
0.000487081
3.04174e-05
0.000495194
2.6762e-05
0.000502547
2.32e-05
0.000509164
1.97359e-05
0.000515071
1.63644e-05
0.000520287
1.30786e-05
0.000524834
9.87052e-06
0.000528731
6.7275e-06
0.000531995
3.65077e-06
0.000534645
6.46219e-07
0.0005367
-2.28287e-06
0.000538178
-5.13218e-06
0.000539099
-7.89092e-06
0.000539476
-1.05626e-05
0.000539326
-1.3144e-05
0.000538666
-1.56273e-05
0.00053751
-1.80121e-05
0.000535869
-2.03007e-05
0.000533755
-2.24912e-05
0.000531178
-2.45789e-05
0.000528146
-2.65589e-05
0.000524668
-2.84258e-05
0.00052075
-3.0174e-05
0.000516399
-3.17973e-05
0.00051162
-3.32891e-05
0.000506421
-3.46435e-05
0.000500809
-3.58562e-05
0.000494792
-3.69276e-05
0.000488378
-3.78671e-05
0.000481576
-3.86968e-05
0.000474391
-3.94555e-05
0.000466822
-4.01984e-05
0.000458861
-4.09936e-05
0.00045049
-4.19129e-05
0.000441678
-4.30177e-05
0.000432388
-4.43419e-05
0.000422576
-4.58752e-05
0.000412202
-4.75515e-05
0.00040124
-4.92472e-05
0.000389685
-5.07898e-05
0.000377558
-5.19779e-05
0.000364919
-5.26074e-05
0.000351861
-5.24989e-05
0.000338514
-5.15199e-05
0.000325038
-4.95994e-05
0.000311618
-4.67336e-05
0.00029845
-4.29853e-05
0.000285732
-3.84776e-05
0.000273648
-3.33839e-05
0.000262355
-2.79143e-05
0.000251972
-2.22996e-05
0.000242574
-1.67718e-05
0.000234191
-1.15498e-05
0.000226803
-6.79848e-06
0.000220377
-2.67627e-06
0.000214799
9.68755e-07
0.00021013
3.90427e-06
0.000205909
7.92639e-06
1.29692e-05
0.00019856
8.56662e-06
0.000211521
-8.92926e-07
0.000222268