/*--------------------------------*- C++ -*----------------------------------*\
| =========                 |                                                 |
| \\      /  F ield         | OpenFOAM: The Open Source CFD Toolbox           |
|  \\    /   O peration     | Version:  v1912                                 |
|   \\  /    A nd           | Website:  www.openfoam.com                      |
|    \\/     M anipulation  |                                                 |
\*---------------------------------------------------------------------------*/
FoamFile
{
    version     2.0;
    format      ascii;
    class       volVectorField;
    location    "1000";
    object      U;
}
// * * * * * * * * * * * * * * * * * * * * * * * * * * * * * * * * * * * * * //

dimensions      [0 1 -1 0 0 0 0];


internalField   nonuniform List<vector> 
2000
(
(0.84616 0.187394 0)
(0.515133 0.124089 0)
(0.223448 0.0684415 0)
(0.0598068 0.0174443 6.19505e-20)
(-0.00455616 -0.0232232 1.2074e-17)
(-0.0642033 -0.0384872 1.04288e-17)
(-0.0776008 -0.0372471 0)
(-0.0715949 -0.016659 0)
(-0.0590606 0.0117118 0)
(-0.0421581 0.0254666 2.36815e-17)
(-0.0415843 0.0109778 -1.45087e-17)
(-0.0273671 -0.000621429 -1.36264e-17)
(-0.0163175 -0.00266723 0)
(-0.0200716 -0.00264041 0)
(-0.0219063 -0.00226993 -1.08251e-17)
(-0.0168725 0.000848314 0)
(-0.0105731 0.00349406 9.74459e-18)
(-0.00962168 0.00623762 3.09668e-21)
(-0.0106297 0.00612808 9.42007e-18)
(-0.0113958 0.00488869 -4.64942e-18)
(-0.0112572 0.00278243 9.19212e-18)
(-0.0100653 0.000804876 0)
(-0.00791413 -0.000198742 0)
(-0.00539618 -0.00062901 -6.99887e-23)
(-0.00310282 -0.000793902 0)
(-0.001277 -0.000812711 -4.51934e-18)
(-5.52005e-05 -0.000749774 0)
(0.000641289 -0.000669562 4.52861e-18)
(0.00103947 -0.00065574 0)
(0.00132991 -0.00066242 0)
(0.00160674 -0.000588237 0)
(0.001885 -0.000477279 1.1501e-18)
(0.00214836 -0.000387386 0)
(0.0023855 -0.000347593 -5.83734e-19)
(0.0025831 -0.00034585 1.94816e-14)
(0.00271601 -0.000361037 1.9468e-14)
(0.00277627 -0.000396141 6.01997e-19)
(0.00270958 -0.000488207 -6.09495e-19)
(0.00251886 -0.000628808 0)
(0.00220334 -0.000786548 2.5072e-18)
(0.00174361 -0.000938205 0)
(0.00110643 -0.00107096 -2.58987e-18)
(0.00025099 -0.00117156 0)
(-0.000879219 -0.00122325 -5.3613e-18)
(-0.00233537 -0.00124546 2.72417e-18)
(-0.00415709 -0.00132617 0)
(-0.0064326 -0.00151153 0)
(-0.00932178 -0.00171177 -2.85916e-18)
(-0.0131488 -0.00161797 0)
(-0.0185303 -0.000638801 2.93675e-18)
(-0.0264479 0.00192369 0)
(-0.0381881 0.00636012 5.91819e-18)
(-0.0551385 0.0121211 -5.86606e-18)
(-0.0784399 0.0178158 5.74294e-18)
(-0.108442 0.0215463 -2.74153e-18)
(-0.144235 0.0214432 0)
(-0.183705 0.016296 2.32827e-18)
(-0.223913 0.00596748 -2.07111e-18)
(-0.261115 -0.00849129 -4.07526e-18)
(-0.290471 -0.0248465 3.29823e-18)
(-0.307112 -0.0398551 -3.2549e-18)
(-0.309514 -0.05032 3.48311e-18)
(-0.303056 -0.056326 -3.97682e-18)
(-0.287966 -0.0592206 4.78608e-18)
(-0.265372 -0.060035 -1.14664e-20)
(-0.236121 -0.0595015 7.18573e-18)
(-0.200642 -0.0578218 0)
(-0.159117 -0.054986 0)
(-0.111818 -0.0509858 7.53979e-20)
(-0.0594903 -0.0458638 0)
(-0.00340082 -0.0395562 1.99213e-17)
(0.0562666 -0.0317286 0)
(0.119773 -0.0222374 1.98857e-17)
(0.186647 -0.0112399 -4.87504e-19)
(0.256149 0.00102316 1.71638e-17)
(0.329598 0.0142519 2.98588e-17)
(0.403506 0.0280733 7.33781e-19)
(0.491068 0.0420336 -1.01452e-17)
(0.556921 0.0544863 -6.52824e-18)
(0.713418 0.0651841 0)
(1.0153 0.210384 0)
(0.944633 0.194211 0)
(0.804475 0.179983 -3.53027e-18)
(0.654422 0.152313 7.29112e-18)
(0.509224 0.111169 0)
(0.360042 0.0683704 -7.29268e-18)
(0.216493 0.0293252 0)
(0.0821323 -0.00530895 0)
(-0.0282879 -0.01804 0)
(-0.0562033 -0.0189155 -1.73185e-17)
(-0.0667324 -0.0249882 1.57552e-17)
(-0.0718834 -0.0159767 1.44516e-17)
(-0.0637616 0.00640364 0)
(-0.0508838 0.0207201 6.32636e-18)
(-0.05451 0.00998912 0)
(-0.0483043 -0.00293949 0)
(-0.0376344 -0.00402722 0)
(-0.032931 -0.00109717 5.27286e-18)
(-0.0367018 0.000899185 -1.03419e-17)
(-0.0388882 0.000900978 -5.09418e-18)
(-0.039582 7.10669e-05 0)
(-0.03849 -0.00112615 0)
(-0.0357718 -0.00235084 0)
(-0.0325273 -0.00294009 -7.41729e-18)
(-0.029366 -0.00273971 0)
(-0.0265537 -0.00194067 4.95363e-18)
(-0.0243345 -0.000878803 2.48428e-18)
(-0.0228758 6.65871e-07 0)
(-0.0222424 0.000371386 0)
(-0.0222989 0.000401908 0)
(-0.0228669 0.000224411 0)
(-0.0237189 3.36435e-05 -6.33077e-19)
(-0.0246836 -0.000122272 0)
(-0.0257023 -0.000211524 3.20437e-19)
(-0.026795 -0.000196791 1.61437e-19)
(-0.0280312 -6.15303e-05 0)
(-0.0294527 0.000175706 0)
(-0.0310864 0.000482549 6.63118e-19)
(-0.0329927 0.000838757 0)
(-0.0351882 0.00124097 -1.35321e-18)
(-0.0376867 0.00169523 0)
(-0.0404929 0.00221346 -1.38299e-18)
(-0.0436123 0.00280468 0)
(-0.0470487 0.00346375 1.41442e-18)
(-0.0507929 0.00418115 1.43182e-18)
(-0.0548188 0.0049989 0)
(-0.0591033 0.00610317 0)
(-0.0636479 0.00786776 -2.97487e-18)
(-0.0684492 0.0108092 0)
(-0.0734769 0.0155269 1.48861e-20)
(-0.0787561 0.0225466 0)
(-0.0844917 0.0319913 0)
(-0.0910421 0.0431521 0)
(-0.0987159 0.0543783 0)
(-0.107239 0.0633275 6.02859e-18)
(-0.115076 0.0675314 0)
(-0.119788 0.0650119 -5.47798e-18)
(-0.119448 0.0548976 2.64988e-18)
(-0.112611 0.0381851 -2.30511e-18)
(-0.0953465 0.0176766 -4.87221e-18)
(-0.0635372 -0.00488427 5.01955e-18)
(-0.0455541 -0.0308821 -5.53946e-18)
(-0.020251 -0.0515156 6.48912e-18)
(0.00766801 -0.0661941 0)
(0.0386478 -0.0765092 -1.2953e-17)
(0.0731547 -0.0839128 -9.66999e-18)
(0.111955 -0.0891186 0)
(0.155225 -0.0921273 5.7461e-18)
(0.202591 -0.0926507 1.25741e-17)
(0.253464 -0.0904871 0)
(0.307189 -0.0855505 0)
(0.363188 -0.0778272 0)
(0.420992 -0.0674593 0)
(0.480346 -0.0547838 -1.36204e-17)
(0.541004 -0.0403362 5.93689e-18)
(0.603825 -0.0247769 -1.17676e-17)
(0.667234 -0.00903846 1.01584e-17)
(0.739016 0.00584656 -3.46718e-18)
(0.795929 0.0174487 0)
(0.911623 0.0229131 0)
(0.978489 0.201538 0)
(0.978854 0.193006 -2.78711e-18)
(0.969154 0.205111 3.48273e-18)
(0.939083 0.208532 -3.0617e-18)
(0.878034 0.194606 2.88629e-18)
(0.785605 0.168719 2.84436e-18)
(0.669349 0.138081 0)
(0.541012 0.106021 0)
(0.40822 0.0750633 0)
(0.285943 0.0459344 6.86972e-18)
(0.173879 0.0180211 0)
(0.0721776 -0.00640545 0)
(-0.0214749 -0.0141534 0)
(-0.046911 -0.00385616 -7.18771e-18)
(-0.0508324 -0.0116812 0)
(-0.058695 -0.0181544 -6.05384e-18)
(-0.0592963 -0.0112553 0)
(-0.0481137 0.00906173 5.8788e-18)
(-0.0464822 0.0164822 2.87409e-18)
(-0.0509055 0.0125871 0)
(-0.0532633 0.00614894 -2.79104e-18)
(-0.0550515 -0.000291974 0)
(-0.0556686 -0.00469681 0)
(-0.0547688 -0.00653041 5.43836e-18)
(-0.0532192 -0.0066067 0)
(-0.0520416 -0.00572583 1.35875e-18)
(-0.0518422 -0.00421983 -4.07893e-18)
(-0.0526368 -0.00223151 0)
(-0.0539958 -0.000221139 0)
(-0.0554706 0.0012402 -6.8186e-19)
(-0.0570697 0.00218581 0)
(-0.0587741 0.00270595 1.40922e-22)
(-0.0605091 0.00294591 0)
(-0.0622309 0.00307031 6.91156e-19)
(-0.0639479 0.00324183 8.69424e-20)
(-0.0657355 0.00351511 0)
(-0.0676532 0.00387542 1.76438e-19)
(-0.0697158 0.00428227 -3.55775e-19)
(-0.0719048 0.00472814 -3.58934e-19)
(-0.0741877 0.00521387 -7.24748e-19)
(-0.0765253 0.00574277 7.32242e-19)
(-0.0788769 0.00632181 7.40001e-19)
(-0.0812089 0.00695403 0)
(-0.0834781 0.00762254 1.51741e-18)
(-0.085574 0.0083005 -3.07815e-18)
(-0.0872429 0.00901117 0)
(-0.0880791 0.00993621 -1.59337e-18)
(-0.0876153 0.0114713 3.24953e-18)
(-0.0853222 0.0140936 0)
(-0.0805482 0.0183841 -1.69949e-18)
(-0.0725935 0.0248259 1.78433e-18)
(-0.0609566 0.0336755 -1.85053e-18)
(-0.0452781 0.0440245 -1.91818e-18)
(-0.025516 0.0543174 0)
(-0.0018768 0.0623242 -3.94221e-18)
(0.0256897 0.0655092 -1.88417e-18)
(0.0570964 0.0615827 1.63495e-18)
(0.0905286 0.0497154 1.52857e-18)
(0.12441 0.0289371 2.56333e-18)
(0.156167 0.00206914 0)
(0.186265 -0.0243544 0)
(0.213951 -0.0463847 0)
(0.242177 -0.0647218 -1.31263e-18)
(0.273875 -0.0804678 0)
(0.30996 -0.0941502 3.22459e-18)
(0.349871 -0.105722 0)
(0.392667 -0.114833 -1.99128e-18)
(0.437469 -0.121028 -4.47211e-18)
(0.483483 -0.1239 0)
(0.530042 -0.123222 -2.47887e-18)
(0.576666 -0.119006 2.58262e-18)
(0.623102 -0.111525 0)
(0.6693 -0.101298 0)
(0.71545 -0.0890182 0)
(0.761794 -0.0755164 -5.41137e-18)
(0.809207 -0.0617062 0)
(0.856987 -0.048766 -1.88546e-18)
(0.910076 -0.0377963 3.36872e-18)
(0.952969 -0.0311665 0)
(1.03532 -0.0302697 3.9327e-19)
(0.970611 0.209117 0)
(0.963917 0.194765 1.52587e-18)
(0.96643 0.198514 0)
(0.977152 0.206407 1.69504e-18)
(0.982034 0.208884 -3.00523e-18)
(0.968293 0.204266 -1.34152e-18)
(0.930748 0.193726 0)
(0.870757 0.177878 0)
(0.79113 0.156581 0)
(0.695411 0.131331 1.3515e-18)
(0.58948 0.10541 1.38329e-18)
(0.48005 0.0807 0)
(0.369264 0.0579965 0)
(0.266647 0.0376065 0)
(0.17965 0.0185394 0)
(0.100391 0.00267234 6.40305e-18)
(0.0300553 -0.00993308 -3.38848e-18)
(-0.0310552 -0.00938052 0)
(-0.032821 0.00100992 -3.28395e-18)
(-0.0347027 0.00246011 1.61902e-18)
(-0.0346424 0.00136389 3.21217e-18)
(-0.0358986 -0.00129578 0)
(-0.0391071 -0.00397581 0)
(-0.04349 -0.00523283 -3.12118e-18)
(-0.0472043 -0.00435337 0)
(-0.049502 -0.0016579 -1.54439e-18)
(-0.0511837 0.00173147 1.54393e-18)
(-0.0536906 0.00424536 0)
(-0.0558315 0.00541537 0)
(-0.0580828 0.00595786 7.67214e-19)
(-0.0600313 0.0060227 0)
(-0.06166 0.00575236 -7.703e-19)
(-0.06292 0.00531336 0)
(-0.0637965 0.00487921 -1.94853e-19)
(-0.0644203 0.00468852 -9.8166e-20)
(-0.0648825 0.00482239 -2.47648e-20)
(-0.0652005 0.00522327 -3.00035e-19)
(-0.0652735 0.00581686 4.04367e-19)
(-0.0650166 0.00649766 4.09352e-19)
(-0.0643574 0.00719948 1.24518e-18)
(-0.0632097 0.00789933 -4.21308e-19)
(-0.0614826 0.00858417 4.28619e-19)
(-0.0591106 0.00922734 0)
(-0.0560394 0.00975899 8.92518e-19)
(-0.0521593 0.0100137 9.1425e-19)
(-0.0471773 0.00970583 0)
(-0.0406253 0.00847449 1.93868e-18)
(-0.0325943 0.00626041 1.00187e-18)
(-0.0223882 0.00378468 0)
(-0.00976724 0.00165822 -3.2701e-18)
(0.00672147 0.000456311 -2.23695e-18)
(0.0281267 0.000759768 1.10872e-18)
(0.0543572 0.00237947 2.17137e-18)
(0.0860198 0.00441965 0)
(0.123131 0.00533609 9.817e-19)
(0.16484 0.00332352 2.68195e-18)
(0.209859 -0.00317419 1.58464e-18)
(0.256091 -0.0146523 -1.38795e-18)
(0.303025 -0.0299573 -6.41177e-19)
(0.348941 -0.0474667 0)
(0.393321 -0.06639 0)
(0.43615 -0.0854228 0)
(0.478286 -0.103485 1.71362e-18)
(0.520519 -0.119932 6.46498e-19)
(0.562772 -0.134275 0)
(0.604387 -0.14597 -1.5681e-18)
(0.644661 -0.154461 1.74476e-18)
(0.683105 -0.159324 -1.87864e-18)
(0.719475 -0.160357 -2.0265e-18)
(0.753763 -0.157616 1.27351e-19)
(0.786189 -0.151413 -2.42451e-18)
(0.81717 -0.142278 0)
(0.847264 -0.130901 0)
(0.87714 -0.118071 0)
(0.907403 -0.104639 0)
(0.938961 -0.0914807 0)
(0.971477 -0.0796399 3.67832e-18)
(1.00829 -0.0699565 -1.34604e-18)
(1.03854 -0.0643501 0)
(1.09577 -0.0626587 -4.23993e-19)
(0.972988 0.216082 0)
(0.965831 0.201808 1.87173e-18)
(0.959206 0.1956 2.49346e-19)
(0.961489 0.195546 1.90808e-18)
(0.972668 0.197536 0)
(0.985519 0.199235 -1.60821e-18)
(0.992497 0.199295 0)
(0.988452 0.196253 -3.62703e-19)
(0.970218 0.189033 0)
(0.935631 0.177562 -1.60656e-18)
(0.884731 0.162749 -1.24358e-18)
(0.819618 0.145667 -3.15589e-19)
(0.743324 0.126729 3.13276e-19)
(0.658087 0.106111 0)
(0.569157 0.0852834 3.13335e-19)
(0.47934 0.0662429 0)
(0.393492 0.0502677 2.65564e-18)
(0.3141 0.0363409 -3.51494e-19)
(0.247073 0.0242752 0)
(0.192397 0.0147263 -1.90042e-18)
(0.147776 0.00792546 0)
(0.110713 0.00341224 0)
(0.0798806 0.0008258 0)
(0.0539901 -0.000612995 0)
(0.0324757 -0.00158009 -2.2179e-19)
(0.0157018 -0.00202457 0)
(0.00281347 -0.00138745 0)
(-0.00264389 0.000680598 1.15645e-19)
(-0.00513114 0.00209538 0)
(-0.00517938 0.00307806 0)
(-0.00384854 0.00363488 0)
(-0.0015881 0.00388921 -5.87811e-20)
(0.00100695 0.00396221 0)
(0.00447652 0.00377439 -2.68076e-19)
(0.00751512 0.00427333 0)
(0.0111717 0.0051522 3.01287e-20)
(0.0155801 0.00573131 1.5142e-19)
(0.0208997 0.0057137 3.03986e-20)
(0.0273091 0.00536273 -6.09954e-20)
(0.0348854 0.00481988 -4.89267e-19)
(0.0438006 0.00406768 -4.89814e-19)
(0.0542748 0.00307043 4.8966e-19)
(0.0665046 0.00180913 -1.22129e-19)
(0.0806767 0.00026201 -9.73341e-19)
(0.0969952 -0.00161643 9.67341e-19)
(0.115445 -0.00387831 -1.19993e-19)
(0.136225 -0.00660866 0)
(0.158824 -0.00987288 -9.41338e-19)
(0.183397 -0.013624 0)
(0.210006 -0.0177168 9.21247e-19)
(0.238667 -0.0218203 0)
(0.269609 -0.0258227 8.98836e-19)
(0.303163 -0.0297058 0)
(0.339689 -0.0336915 -2.12305e-19)
(0.379408 -0.0383028 -8.05843e-19)
(0.422197 -0.0442813 -7.46993e-19)
(0.467454 -0.0523806 1.73427e-19)
(0.514106 -0.0631314 0)
(0.560735 -0.0768172 5.4231e-19)
(0.605912 -0.0928932 -1.36978e-19)
(0.648771 -0.110354 0)
(0.688906 -0.12783 1.36904e-19)
(0.726191 -0.144058 -5.34007e-19)
(0.760555 -0.158181 -5.90193e-19)
(0.791824 -0.169628 0)
(0.819788 -0.177954 1.48078e-18)
(0.844382 -0.18284 0)
(0.865791 -0.18415 1.83706e-18)
(0.88444 -0.181972 2.01522e-18)
(0.900948 -0.176602 2.17984e-18)
(0.916065 -0.168509 2.71261e-19)
(0.930609 -0.158293 0)
(0.945399 -0.146634 0)
(0.961223 -0.134248 0)
(0.978689 -0.121869 -2.69908e-19)
(0.99854 -0.110219 0)
(1.0204 -0.100098 -1.6756e-18)
(1.04676 -0.0921527 1.64999e-18)
(1.06878 -0.087599 1.04018e-19)
(1.11242 -0.0863795 4.51033e-20)
(0.974194 0.218514 -1.23294e-18)
(0.970935 0.206364 1.19333e-18)
(0.965119 0.198172 -2.82157e-19)
(0.961139 0.194112 0)
(0.962197 0.191942 0)
(0.96826 0.190544 0)
(0.977772 0.189885 0)
(0.988502 0.189481 1.25298e-18)
(0.997432 0.188308 0)
(1.00093 0.185358 -1.12021e-18)
(0.995773 0.179955 -1.39644e-18)
(0.979839 0.171905 3.20181e-19)
(0.952675 0.161434 9.67297e-19)
(0.914336 0.148646 0)
(0.865647 0.133742 -1.47629e-18)
(0.80825 0.117845 0)
(0.746068 0.102471 -1.1802e-18)
(0.683644 0.0879747 2.95188e-19)
(0.622835 0.0743863 -1.23477e-18)
(0.565747 0.0621131 -9.50847e-19)
(0.513195 0.0513543 0)
(0.465533 0.0420963 0)
(0.422936 0.0342205 -6.83485e-19)
(0.38536 0.0276196 0)
(0.352668 0.0221587 -5.42673e-19)
(0.32465 0.0176597 0)
(0.300905 0.0138548 0)
(0.281204 0.0104774 -9.56377e-20)
(0.265402 0.00756162 0)
(0.253158 0.00511134 0)
(0.244119 0.00305916 0)
(0.238003 0.00132809 5.05597e-20)
(0.2345 -0.000154062 2.0496e-19)
(0.23365 -0.00137803 1.29146e-19)
(0.23523 -0.00279556 0)
(0.239328 -0.00437721 0)
(0.245923 -0.00600442 -2.59783e-20)
(0.254866 -0.00771445 -1.30106e-19)
(0.2661 -0.00960678 5.16868e-20)
(0.279548 -0.0117515 0)
(0.29512 -0.014191 0)
(0.312734 -0.0169562 -2.03941e-19)
(0.332306 -0.0200716 1.00414e-19)
(0.353748 -0.0235654 -4.00711e-19)
(0.376952 -0.0274741 3.96702e-19)
(0.40177 -0.0318374 9.71169e-20)
(0.428005 -0.0366653 0)
(0.455431 -0.041841 3.85336e-19)
(0.483888 -0.0472408 0)
(0.513238 -0.0527217 0)
(0.543389 -0.0581267 0)
(0.574344 -0.063366 0)
(0.606189 -0.0684822 0)
(0.639013 -0.0737112 1.78352e-19)
(0.672806 -0.0794923 0)
(0.707356 -0.0863904 6.69714e-19)
(0.742166 -0.0949451 -1.52438e-19)
(0.776463 -0.105479 0)
(0.809301 -0.11792 5.79279e-19)
(0.839753 -0.131664 1.27492e-19)
(0.867092 -0.145794 5.66205e-19)
(0.890859 -0.159311 -1.32183e-19)
(0.910858 -0.171333 0)
(0.927123 -0.181212 -6.6241e-19)
(0.93984 -0.188525 0)
(0.94933 -0.193005 0)
(0.956065 -0.194535 -8.54702e-19)
(0.960685 -0.193158 0)
(0.963961 -0.189083 0)
(0.96673 -0.182657 -1.06542e-18)
(0.969832 -0.174334 -2.96104e-19)
(0.974053 -0.164636 0)
(0.980081 -0.154122 0)
(0.988507 -0.143361 0)
(0.99971 -0.132918 3.01575e-19)
(1.01417 -0.12334 -1.03098e-18)
(1.03134 -0.115206 -2.40216e-19)
(1.05328 -0.108985 -1.88588e-19)
(1.07184 -0.105393 -1.17808e-19)
(1.11028 -0.104548 -2.40748e-19)
(0.974501 0.21901 4.35666e-18)
(0.973757 0.208036 -4.18329e-18)
(0.971714 0.200425 0)
(0.969159 0.196211 -2.53804e-18)
(0.967053 0.192937 0)
(0.966166 0.189312 -2.23793e-18)
(0.967419 0.185818 0)
(0.971669 0.183008 2.98022e-18)
(0.978978 0.18073 -3.70037e-18)
(0.988283 0.178484 1.68962e-18)
(0.99769 0.175773 1.57963e-18)
(1.00497 0.172151 0)
(1.00811 0.167266 -4.27289e-18)
(1.00544 0.1607 -2.72155e-18)
(0.995587 0.15211 3.82535e-18)
(0.977795 0.141797 0)
(0.953045 0.130626 1.17173e-18)
(0.923753 0.119347 0)
(0.891693 0.108147 1.16823e-18)
(0.858157 0.0970056 1.16794e-18)
(0.824182 0.0861325 0)
(0.790759 0.0758056 0)
(0.758769 0.0662297 -6.3961e-19)
(0.728885 0.0575101 0)
(0.701551 0.0496299 6.21176e-19)
(0.677002 0.0425032 0)
(0.655359 0.0360347 0)
(0.636653 0.0301366 0)
(0.620912 0.0247193 0)
(0.608074 0.0196999 0)
(0.598057 0.0150017 0)
(0.590793 0.0105571 0)
(0.586203 0.00629679 1.77114e-19)
(0.584166 0.00215811 -8.59523e-20)
(0.584458 -0.00200351 4.4011e-20)
(0.587186 -0.00622286 0)
(0.592261 -0.0104878 0)
(0.599486 -0.0148125 8.62303e-20)
(0.608711 -0.0192413 -3.51945e-19)
(0.619799 -0.0238134 3.51412e-19)
(0.6326 -0.0285533 0)
(0.64695 -0.0334774 8.71053e-19)
(0.662677 -0.0385964 -6.98815e-19)
(0.679602 -0.0439179 -3.5773e-19)
(0.697534 -0.0494462 -3.38988e-19)
(0.716266 -0.0551746 0)
(0.735576 -0.0610677 0)
(0.755246 -0.0670457 -1.03574e-18)
(0.775086 -0.0730176 0)
(0.794955 -0.0788922 0)
(0.814763 -0.0845913 0)
(0.834487 -0.0900937 7.05239e-19)
(0.854152 -0.0954831 1.40793e-18)
(0.873776 -0.100969 0)
(0.893305 -0.106869 0)
(0.912546 -0.113545 -6.48441e-19)
(0.931122 -0.121299 0)
(0.948491 -0.130247 1.29164e-18)
(0.964012 -0.140241 6.85663e-19)
(0.977067 -0.150848 0)
(0.9872 -0.161447 6.99113e-19)
(0.994206 -0.171352 1.33371e-18)
(0.998154 -0.179933 1.40562e-18)
(0.999351 -0.186702 7.14208e-19)
(0.998269 -0.191347 -1.61685e-18)
(0.995485 -0.193714 1.74805e-18)
(0.991655 -0.19378 2.83594e-18)
(0.987489 -0.191645 0)
(0.98371 -0.187515 0)
(0.98101 -0.181688 1.19721e-18)
(0.98001 -0.174525 0)
(0.981233 -0.16643 2.50256e-18)
(0.985096 -0.157831 2.53506e-18)
(0.991928 -0.149167 0)
(1.00189 -0.140878 2.40442e-18)
(1.01527 -0.133392 -1.04192e-18)
(1.03144 -0.127143 0)
(1.05228 -0.122475 0)
(1.06995 -0.119827 0)
(1.10686 -0.119399 -1.93156e-19)
(0.974733 0.218938 -3.35605e-18)
(0.975458 0.208201 3.21272e-18)
(0.976056 0.201058 -6.23949e-18)
(0.975936 0.197366 2.87053e-18)
(0.974875 0.19446 0)
(0.9732 0.190786 2.53103e-18)
(0.971487 0.186584 -4.84508e-18)
(0.970472 0.182339 -4.49211e-18)
(0.970994 0.17813 -7.9248e-20)
(0.973704 0.17395 0)
(0.978806 0.169868 0)
(0.985964 0.165856 3.5981e-18)
(0.994363 0.161685 3.29322e-18)
(1.00284 0.15694 -3.27896e-18)
(1.00995 0.151228 -8.9019e-18)
(1.01427 0.144451 0)
(1.01489 0.136908 0)
(1.01186 0.128902 0)
(1.00564 0.120422 0)
(0.996716 0.111451 0)
(0.985583 0.102194 0)
(0.972869 0.0929302 0)
(0.959259 0.0838694 1.24068e-18)
(0.945385 0.0751263 -2.5877e-18)
(0.931769 0.066735 0)
(0.918819 0.0586953 0)
(0.906852 0.0509991 0)
(0.896111 0.0436173 0)
(0.88676 0.0364911 0)
(0.878898 0.0295786 -6.62555e-19)
(0.872589 0.0228535 0)
(0.86787 0.0162881 0)
(0.864746 0.0098474 1.25954e-20)
(0.863163 0.00346873 0)
(0.86303 -0.00272065 -4.10557e-20)
(0.864298 -0.00878222 0)
(0.866881 -0.0148044 1.70777e-19)
(0.870651 -0.0208197 0)
(0.875488 -0.0268428 6.72406e-19)
(0.881279 -0.0328878 -3.30484e-19)
(0.887901 -0.0389631 -6.88602e-19)
(0.89522 -0.0450701 -6.6472e-19)
(0.903097 -0.0512047 6.67313e-19)
(0.911391 -0.0573598 6.70465e-19)
(0.919957 -0.0635244 1.40245e-18)
(0.928648 -0.0696794 1.41194e-18)
(0.937319 -0.0757906 0)
(0.94584 -0.0818041 -7.44895e-19)
(0.954112 -0.0876574 0)
(0.96208 -0.0932951 0)
(0.969736 -0.0986857 -1.48207e-18)
(0.977112 -0.103847 -7.24037e-19)
(0.984262 -0.108873 4.78045e-20)
(0.991224 -0.113937 0)
(0.997973 -0.119275 0)
(1.00438 -0.125138 0)
(1.01018 -0.131723 1.49153e-18)
(1.01501 -0.139093 -1.39715e-18)
(1.01849 -0.147135 -1.38677e-18)
(1.02024 -0.155544 0)
(1.02006 -0.163869 -1.42637e-18)
(1.01797 -0.171605 9.49903e-20)
(1.01416 -0.178286 -1.57564e-18)
(1.00902 -0.183551 1.75741e-18)
(1.00305 -0.187173 -4.71911e-20)
(0.996781 -0.189046 -1.98072e-18)
(0.990764 -0.189161 -2.14513e-18)
(0.985534 -0.187587 0)
(0.981588 -0.18447 0)
(0.97936 -0.180021 0)
(0.979216 -0.174504 0)
(0.981448 -0.168226 -2.84001e-18)
(0.986279 -0.16153 -2.87506e-18)
(0.993899 -0.154781 0)
(1.00438 -0.148352 -2.72472e-18)
(1.01797 -0.142605 4.9111e-18)
(1.03406 -0.137896 0)
(1.05451 -0.134464 0)
(1.0718 -0.132624 0)
(1.10769 -0.132407 9.13778e-19)
(0.975035 0.218502 8.34358e-18)
(0.977127 0.207476 0)
(0.979623 0.200809 1.42812e-17)
(0.980942 0.19772 0)
(0.980747 0.195178 6.21632e-18)
(0.979838 0.19182 0)
(0.978655 0.187904 5.47522e-18)
(0.977181 0.183662 0)
(0.975604 0.178993 -5.03866e-18)
(0.974439 0.173897 0)
(0.97427 0.168549 8.88458e-18)
(0.975577 0.163112 -4.11284e-18)
(0.978659 0.157621 0)
(0.983537 0.151978 7.31067e-18)
(0.989866 0.146033 -1.87029e-19)
(0.996991 0.139703 -6.68468e-18)
(1.00405 0.133126 6.47876e-18)
(1.01036 0.12639 0)
(1.01554 0.119355 0)
(1.01936 0.111923 6.08893e-18)
(1.02167 0.104163 0)
(1.02251 0.0962158 -2.96218e-18)
(1.02211 0.0881977 0)
(1.02073 0.080184 2.80567e-18)
(1.01865 0.0722187 0)
(1.01612 0.0643299 2.89757e-18)
(1.01339 0.0565336 0)
(1.01063 0.0488294 0)
(1.008 0.0412072 1.44785e-18)
(1.00562 0.0336684 6.95918e-19)
(1.00357 0.0262214 0)
(1.00192 0.0188697 0)
(1.00071 0.0116147 -1.08789e-18)
(0.999965 0.00445555 0)
(0.999638 -0.00251669 0)
(0.999703 -0.00936013 0)
(1.00015 -0.0161395 -1.78057e-19)
(1.00092 -0.0228677 0)
(1.00198 -0.0295376 -1.10535e-18)
(1.00325 -0.0361454 -7.50394e-19)
(1.00468 -0.0426881 7.24391e-19)
(1.00622 -0.0491593 0)
(1.00778 -0.0555497 0)
(1.00932 -0.0618487 1.54373e-18)
(1.01078 -0.0680441 -1.49862e-18)
(1.01209 -0.0741194 -1.51566e-18)
(1.01321 -0.0800506 0)
(1.01411 -0.0858044 -5.78772e-20)
(1.01479 -0.091346 1.63619e-18)
(1.01527 -0.0966517 0)
(1.0156 -0.101723 1.62878e-18)
(1.01588 -0.1066 1.70349e-18)
(1.01617 -0.111377 -1.6694e-18)
(1.01654 -0.116199 0)
(1.01697 -0.121249 0)
(1.0174 -0.12671 0)
(1.01764 -0.132718 -1.67887e-18)
(1.01747 -0.139312 0)
(1.01661 -0.146398 0)
(1.01488 -0.153748 0)
(1.01215 -0.161031 3.65798e-18)
(1.00849 -0.167871 -1.80243e-18)
(1.00409 -0.173916 0)
(0.999231 -0.17888 -2.0044e-18)
(0.994296 -0.182564 -2.22692e-18)
(0.989662 -0.18485 4.62278e-18)
(0.985699 -0.185693 -4.89908e-18)
(0.982747 -0.185111 -5.18136e-18)
(0.981106 -0.183189 0)
(0.981038 -0.180073 -5.70483e-18)
(0.98276 -0.175973 0)
(0.986464 -0.171147 0)
(0.992311 -0.165902 0)
(1.00048 -0.160574 5.99489e-18)
(1.01106 -0.155513 -5.74054e-18)
(1.02435 -0.15105 -8.00337e-18)
(1.03985 -0.147486 0)
(1.05942 -0.144985 3.609e-18)
(1.07597 -0.143755 0)
(1.11031 -0.14361 -1.50446e-18)
(0.975434 0.21769 -9.46417e-18)
(0.979143 0.20609 -9.21252e-18)
(0.983423 0.200245 -1.6448e-17)
(0.98558 0.197996 0)
(0.985486 0.195678 -1.41344e-17)
(0.984786 0.192413 -6.73344e-18)
(0.9842 0.188726 0)
(0.983452 0.184719 1.20007e-17)
(0.982353 0.180193 1.12027e-17)
(0.981033 0.175095 0)
(0.979702 0.169516 -1.00479e-17)
(0.978603 0.163553 0)
(0.97805 0.15727 0)
(0.978376 0.150691 8.71235e-18)
(0.979804 0.14382 8.07502e-18)
(0.982396 0.13669 -1.82318e-19)
(0.986006 0.129512 1.84343e-19)
(0.990362 0.12244 0)
(0.995174 0.115376 0)
(1.0001 0.108199 -6.97703e-18)
(1.00479 0.100888 -7.06781e-18)
(1.00904 0.0934791 1.03587e-17)
(1.01274 0.0860185 3.45258e-18)
(1.01588 0.0785364 3.42432e-18)
(1.01848 0.07105 0)
(1.02059 0.0635689 -3.27314e-18)
(1.02225 0.056098 0)
(1.02353 0.0486382 0)
(1.02448 0.0411904 -3.30699e-18)
(1.02514 0.0337625 0)
(1.02554 0.026368 0)
(1.02573 0.0190214 0)
(1.02572 0.0117384 8.2061e-19)
(1.02555 0.00454925 -4.27869e-19)
(1.02528 -0.00252816 2.13788e-19)
(1.0249 -0.00949813 0)
(1.02444 -0.0163778 0)
(1.02391 -0.023171 0)
(1.0233 -0.0298718 8.33981e-19)
(1.02261 -0.0364748 8.38801e-19)
(1.02181 -0.0429761 -1.75016e-18)
(1.02091 -0.0493706 0)
(1.0199 -0.0556512 0)
(1.01878 -0.0618105 -3.53206e-18)
(1.01755 -0.0678402 -1.81531e-18)
(1.0162 -0.0737301 0)
(1.01476 -0.079466 0)
(1.01324 -0.0850304 1.82705e-18)
(1.01168 -0.0904073 5.62341e-20)
(1.01014 -0.0955918 0)
(1.00868 -0.100599 0)
(1.0074 -0.105476 -1.9376e-18)
(1.00635 -0.110303 0)
(1.00559 -0.115199 0)
(1.00511 -0.120304 0)
(1.00484 -0.125754 0)
(1.00465 -0.131647 0)
(1.00437 -0.138008 -4.16084e-18)
(1.0038 -0.144764 0)
(1.0028 -0.151742 0)
(1.00128 -0.158685 1.6724e-19)
(0.99926 -0.165298 0)
(0.996862 -0.171284 0)
(0.994282 -0.176386 0)
(0.991757 -0.180403 9.99096e-18)
(0.989535 -0.1832 -5.23695e-18)
(0.987852 -0.1847 5.54221e-18)
(0.986925 -0.184889 1.48838e-20)
(0.986951 -0.183817 0)
(0.988111 -0.181601 6.43568e-18)
(0.990579 -0.178425 -6.55442e-18)
(0.994533 -0.174534 0)
(1.00016 -0.170225 0)
(1.00769 -0.165833 -1.45625e-19)
(1.01729 -0.1617 6.4901e-18)
(1.02936 -0.158148 5.98049e-18)
(1.04351 -0.155428 0)
(1.06164 -0.153663 -4.09657e-18)
(1.07706 -0.152879 0)
(1.10956 -0.152813 1.13394e-18)
(0.975986 0.216474 0)
(0.981692 0.204215 2.12219e-17)
(0.987769 0.199647 1.88285e-17)
(0.990441 0.198411 0)
(0.990122 0.196236 8.03253e-18)
(0.989271 0.192974 -7.77299e-18)
(0.988772 0.189389 0)
(0.988281 0.185463 -1.35697e-17)
(0.987611 0.180999 0)
(0.986852 0.175995 0)
(0.98604 0.170512 0)
(0.985145 0.164577 0)
(0.984206 0.1582 0)
(0.983343 0.151386 1.82805e-19)
(0.982702 0.144142 -9.53203e-18)
(0.982426 0.13652 -1.82177e-19)
(0.98266 0.128777 1.83589e-19)
(0.9835 0.121146 0)
(0.984945 0.113609 0)
(0.986875 0.106092 0)
(0.989103 0.0985725 -2.02548e-19)
(0.991463 0.0910738 2.06468e-19)
(0.993842 0.0836208 -3.95367e-18)
(0.996167 0.0762236 -3.92249e-18)
(0.998382 0.0688792 0)
(1.00044 0.0615783 -3.98693e-18)
(1.00231 0.0543117 3.97441e-18)
(1.00396 0.0470714 0)
(1.00538 0.0398522 1.9259e-18)
(1.00654 0.0326554 1.98407e-18)
(1.00744 0.0254899 0)
(1.00807 0.0183697 0)
(1.00844 0.0113082 1.00261e-18)
(1.00859 0.00434287 -1.48512e-20)
(1.00855 -0.00256113 -4.94981e-19)
(1.00835 -0.00937641 0)
(1.00801 -0.0160973 0)
(1.00756 -0.0227308 -1.01149e-18)
(1.00699 -0.0292779 0)
(1.00632 -0.0357353 -1.02143e-18)
(1.00556 -0.0420993 -5.90606e-20)
(1.00472 -0.0483658 0)
(1.00381 -0.0545298 2.08887e-18)
(1.00284 -0.0605857 4.15834e-18)
(1.00184 -0.0665274 2.07187e-18)
(1.00082 -0.0723477 0)
(0.999801 -0.0780374 -4.35804e-18)
(0.998813 -0.0835862 0)
(0.997894 -0.0889868 -2.1795e-18)
(0.997091 -0.0942408 0)
(0.996461 -0.0993669 0)
(0.996061 -0.104407 0)
(0.995937 -0.109432 0)
(0.996114 -0.114535 0)
(0.996577 -0.119829 -4.77696e-18)
(0.997267 -0.125418 4.80838e-18)
(0.998074 -0.131378 0)
(0.998858 -0.137725 4.72173e-18)
(0.999464 -0.144399 -4.91375e-18)
(0.999764 -0.151257 0)
(0.999675 -0.158088 -4.91026e-18)
(0.999187 -0.164634 0)
(0.998357 -0.170632 0)
(0.997295 -0.175841 0)
(0.996144 -0.180057 -5.68625e-18)
(0.995055 -0.183133 6.0286e-18)
(0.994178 -0.184974 -6.29894e-18)
(0.993662 -0.185548 1.31581e-17)
(0.993659 -0.184891 -6.8499e-18)
(0.99434 -0.183109 0)
(0.995899 -0.180386 7.40139e-18)
(0.998568 -0.176975 -7.45364e-18)
(1.00261 -0.173183 0)
(1.00835 -0.169354 -1.16777e-19)
(1.01605 -0.165836 -7.11208e-18)
(1.02622 -0.16295 0)
(1.03857 -0.160896 0)
(1.0551 -0.159799 -4.57217e-18)
(1.06932 -0.15937 0)
(1.10044 -0.159569 -1.28629e-18)
(0.976761 0.214804 0)
(0.984936 0.20201 -1.22265e-17)
(0.992771 0.199204 -1.07075e-17)
(0.995649 0.198991 0)
(0.994983 0.196871 1.84331e-17)
(0.993957 0.193635 1.74067e-17)
(0.993389 0.19014 0)
(0.992829 0.186205 1.56708e-17)
(0.992161 0.181685 -1.48811e-17)
(0.99156 0.176662 0)
(0.991075 0.171202 0)
(0.990636 0.165313 0)
(0.990183 0.158988 0)
(0.989696 0.15221 -1.13262e-17)
(0.989165 0.144966 -1.11303e-17)
(0.988598 0.137281 1.02309e-17)
(0.988069 0.12939 -3.02854e-17)
(0.9877 0.121541 0)
(0.987572 0.113754 0)
(0.98769 0.10599 9.70519e-18)
(0.988004 0.0982521 1.89814e-17)
(0.988459 0.0905696 -9.29382e-18)
(0.989026 0.0829722 0)
(0.989683 0.0754706 0)
(0.990409 0.0680609 -4.6605e-18)
(0.991176 0.0607324 9.18151e-18)
(0.991955 0.0534736 -9.15878e-18)
(0.992714 0.0462738 0)
(0.993427 0.0391241 0)
(0.994067 0.0320211 -2.26108e-18)
(0.994614 0.0249685 0)
(0.995055 0.0179739 2.33146e-18)
(0.995383 0.0110505 -1.14254e-18)
(0.995621 0.00419526 -1.44905e-20)
(0.995777 -0.00260351 -7.26754e-21)
(0.995853 -0.00932225 0)
(0.995865 -0.0159543 0)
(0.995827 -0.0225074 -2.9022e-20)
(0.995743 -0.0289842 1.18361e-18)
(0.995618 -0.0353818 3.54007e-18)
(0.995459 -0.0416962 4.72978e-18)
(0.995275 -0.0479241 2.41066e-18)
(0.995075 -0.0540615 -2.37186e-18)
(0.994871 -0.0601039 -2.39323e-18)
(0.994673 -0.0660464 2.47417e-18)
(0.994495 -0.0718833 0)
(0.994353 -0.0776077 4.94091e-18)
(0.994268 -0.083213 -5.11237e-18)
(0.994268 -0.0886955 0)
(0.994386 -0.0940599 0)
(0.99466 -0.099325 0)
(0.99513 -0.104529 0)
(0.995824 -0.109731 0)
(0.99675 -0.115011 0)
(0.997887 -0.12046 5.39417e-18)
(0.999178 -0.126162 -1.09825e-17)
(1.00053 -0.132175 -5.59455e-18)
(1.00181 -0.138509 5.63799e-18)
(1.00288 -0.145108 5.5406e-18)
(1.00363 -0.151845 -5.76654e-18)
(1.00395 -0.158531 5.8668e-18)
(1.00378 -0.164935 0)
(1.00314 -0.170808 6.16599e-18)
(1.00204 -0.175917 -6.3679e-18)
(1.00056 -0.180056 0)
(0.998782 -0.183071 -1.36635e-17)
(0.996815 -0.184861 7.11112e-18)
(0.994796 -0.185393 -1.4874e-17)
(0.992904 -0.184709 7.75571e-18)
(0.991367 -0.182932 0)
(0.990472 -0.180267 8.23952e-18)
(0.990561 -0.176988 8.49303e-18)
(0.992015 -0.173427 -8.46697e-18)
(0.995264 -0.169941 -8.46739e-18)
(1.00068 -0.16688 8.15541e-18)
(1.00884 -0.164567 0)
(1.01952 -0.163141 0)
(1.03485 -0.162779 5.2625e-18)
(1.04826 -0.162717 0)
(1.07928 -0.163544 1.48417e-18)
(0.977833 0.212617 1.62118e-17)
(0.988995 0.19965 0)
(0.998472 0.199058 -2.41048e-17)
(1.00125 0.199733 2.18385e-17)
(1.00018 0.19759 -2.08254e-17)
(0.99903 0.194434 1.99742e-17)
(0.998399 0.191033 0)
(0.997724 0.187058 1.60212e-19)
(0.996946 0.182455 1.68008e-17)
(0.996278 0.177367 0)
(0.995792 0.171857 0)
(0.995442 0.165931 0)
(0.995188 0.159586 2.77189e-17)
(0.995003 0.152813 0)
(0.994848 0.145595 2.47009e-17)
(0.994672 0.13794 0)
(0.994464 0.130056 4.62002e-17)
(0.994268 0.122182 0)
(0.994123 0.114345 0)
(0.994033 0.10652 -2.20907e-17)
(0.993975 0.0987126 -1.08192e-17)
(0.993935 0.0909553 0)
(0.993917 0.0832784 0)
(0.993935 0.0756964 0)
(0.994002 0.0682101 5.26237e-18)
(0.99412 0.0608134 -5.24524e-18)
(0.994284 0.0534983 -1.07981e-19)
(0.994485 0.0462558 0)
(0.994713 0.0390776 5.34117e-18)
(0.994954 0.0319598 0)
(0.995196 0.0249041 0)
(0.99543 0.0179142 -2.63528e-18)
(0.995652 0.010997 1.35055e-18)