/*--------------------------------*- C++ -*----------------------------------*\
| =========                 |                                                 |
| \\      /  F ield         | OpenFOAM: The Open Source CFD Toolbox           |
|  \\    /   O peration     | Version:  v1912                                 |
|   \\  /    A nd           | Website:  www.openfoam.com                      |
|    \\/     M anipulation  |                                                 |
\*---------------------------------------------------------------------------*/
FoamFile
{
    version     2.0;
    format      ascii;
    class       volScalarField;
    location    "100";
    object      alphat;
}
// * * * * * * * * * * * * * * * * * * * * * * * * * * * * * * * * * * * * * //

dimensions      [0 2 -1 0 0 0 0];


internalField   nonuniform List<scalar> 
4000
(
0.000484639
0.000399375
0.00039373
0.000388623
0.000386436
0.000387285
0.000393392
0.000399247
0.000400344
0.000399062
0.000400909
0.000401682
0.000395463
0.00038638
0.000383801
0.000382376
0.000365891
0.000241583
0.000247196
0.000360667
0.000237826
0.000285766
0.000340503
0.000364873
0.000347022
0.000348882
0.00035336
0.000351923
0.00034827
0.00036629
0.00036999
0.000360043
0.000379555
0.000365867
0.000339332
0.000340301
0.000293294
0.000268347
0.000304939
0.000446939
0.000344767
0.000293623
0.000302059
0.00032206
0.000316442
0.000373674
0.000396843
0.000419142
0.00037959
0.000299288
0.000325212
0.000439422
0.000449314
0.000399885
0.00031541
0.000313917
0.000315785
0.000359873
0.000432927
0.000508915
0.000490301
0.000408444
0.000372734
0.000356412
0.000344719
0.000356515
0.000463782
0.000522912
0.000520958
0.000457566
0.000474256
0.0005434
0.000535682
0.000452856
0.00033492
0.000342802
0.000365002
0.000393654
0.00051442
0.000551038
0.000551603
0.000543454
0.000489843
0.000443586
0.000425343
0.000554014
0.000616516
0.000647073
0.000639692
0.00058479
0.000587976
0.000643806
0.000642631
0.000576839
0.000407291
0.000402136
0.000429618
0.000518169
0.00057904
0.000584596
0.000594805
0.000616077
0.000638993
0.000669468
0.000722753
0.000747731
0.000768982
0.000769301
0.000741514
0.000679615
0.000683087
0.000742894
0.000767156
0.000761537
0.000754026
0.000650996
0.000635965
0.000649447
0.000637895
0.00061562
0.000632661
0.000679075
0.000730813
0.000775946
0.000821099
0.000854652
0.000871963
0.000863595
0.000828022
0.000764952
0.000768461
0.000829737
0.000864128
0.00086871
0.000849496
0.000812631
0.00077624
0.000741054
0.000695892
0.000648129
0.00067216
0.000740097
0.000809716
0.00086733
0.000914822
0.000947937
0.000961124
0.000949212
0.000910568
0.00084342
0.000845343
0.00091171
0.000951619
0.000962776
0.00094854
0.000916374
0.000872409
0.000819115
0.000752653
0.000684748
0.000715969
0.000801532
0.00088456
0.000951173
0.00100418
0.00103966
0.00105387
0.00104137
0.00100007
0.000926887
0.00092608
0.0010025
0.00104445
0.00105792
0.00104449
0.00101011
0.00095891
0.000894338
0.000812457
0.000725806
0.000766262
0.000872968
0.000962939
0.00102957
0.00107876
0.00111095
0.00112666
0.00112492
0.0011015
0.00103914
0.00103891
0.00110478
0.00112991
0.0011329
0.00111824
0.00108702
0.00103895
0.000973332
0.000883567
0.000774941
0.000399375
0.000430948
0.000441059
0.000446523
0.000448419
0.000450755
0.000457148
0.000458107
0.000456427
0.000455681
0.000458813
0.000466922
0.00046967
0.00046092
0.000455333
0.000448653
0.000429325
0.000354198
0.000240492
0.000261841
0.000285766
0.000438119
0.000555994
0.000739734
0.000898637
0.000982587
0.000989482
0.00094917
0.000877823
0.000828658
0.000839688
0.000929566
0.000997023
0.000986131
0.000868234
0.000722993
0.000589672
0.000528822
0.000506438
0.000297165
0.000293623
0.000457408
0.000553089
0.000689171
0.000878735
0.00109309
0.00103243
0.000851019
0.000709296
0.000644005
0.000652452
0.00074881
0.00091396
0.00107127
0.00090854
0.000776666
0.000738879
0.000771204
0.000767899
0.000430518
0.000408444
0.00068277
0.000697305
0.000711127
0.000786221
0.000921194
0.000994448
0.00089544
0.000733682
0.000663582
0.000675229
0.000742664
0.000911536
0.000966182
0.000863154
0.000821198
0.000856023
0.00089365
0.000842769
0.000514996
0.000543454
0.000823392
0.000863564
0.000802692
0.000771212
0.000805886
0.000817709
0.000788404
0.000768593
0.000760063
0.000766911
0.000763565
0.000789417
0.000834924
0.000812873
0.000834348
0.000901081
0.000970799
0.000897114
0.000580528
0.000616077
0.000897881
0.000989619
0.000997164
0.000951707
0.000921631
0.000924411
0.000938016
0.000925294
0.000872981
0.000875605
0.00091422
0.000918259
0.00090705
0.000933683
0.000974435
0.00106117
0.00107242
0.000960052
0.000639286
0.000679075
0.000965377
0.00110189
0.00120667
0.00129496
0.00135692
0.00138518
0.00137062
0.00128261
0.00110124
0.0010832
0.00125534
0.00134596
0.00137176
0.00136282
0.00133618
0.00127204
0.00117281
0.00102111
0.000695855
0.000740097
0.00102793
0.0012047
0.00139056
0.0015761
0.00172403
0.00179977
0.00178997
0.00165862
0.00142117
0.00141055
0.00163474
0.00177788
0.00180937
0.00175491
0.00162521
0.00145002
0.00126664
0.00107885
0.00075164
0.000801532
0.00108696
0.00129253
0.0015073
0.00171924
0.00187861
0.0019446
0.00188717
0.00168051
0.00137697
0.0013642
0.00166073
0.00188044
0.00195745
0.00190686
0.00175812
0.00155333
0.00134045
0.00112865
0.000811313
0.000872968
0.000983799
0.00108129
0.00115602
0.00121269
0.00125079
0.00127036
0.0012701
0.00124637
0.00118808
0.00118809
0.00124931
0.00127534
0.00127747
0.0012595
0.00122265
0.00116728
0.0010935
0.000995943
0.000882786
0.00039373
0.000441059
0.000459028
0.00047027
0.000480171
0.000488349
0.000497877
0.00050794
0.000512979
0.000516987
0.000521812
0.000521609
0.000516279
0.000503305
0.000493151
0.000480389
0.000462634
0.000437251
0.000346769
0.000234868
0.000340503
0.000555994
0.00065069
0.000812073
0.00103193
0.00123761
0.00137873
0.00135214
0.00127862
0.00119344
0.00120085
0.00130967
0.00135528
0.00126614
0.00106458
0.000864027
0.000709665
0.000626128
0.000531556
0.000264261
0.000302059
0.000553089
0.00067709
0.000814212
0.001011
0.00126129
0.00146876
0.0013362
0.00113513
0.00100656
0.00101465
0.00117627
0.00136708
0.00130552
0.00110655
0.000970223
0.000906398
0.000869812
0.00076861
0.000352037
0.000372734
0.000697305
0.000809429
0.00087361
0.000964591
0.00110703
0.00124942
0.0012824
0.00109621
0.000982506
0.000995428
0.00110941
0.0012608
0.00119446
0.00110288
0.00106677
0.00106883
0.00104161
0.000888952
0.000403787
0.000489843
0.000863564
0.000987817
0.00098414
0.000972948
0.00100291
0.00104228
0.00102739
0.000997747
0.00102812
0.00104181
0.0010087
0.00105249
0.00107784
0.00107004
0.00109937
0.00114416
0.00113786
0.000955218
0.000517015
0.000638993
0.000989619
0.00114688
0.00117222
0.001108
0.0010491
0.00101108
0.000992785
0.000993642
0.00102609
0.00104484
0.00100319
0.0010099
0.00105365
0.00112558
0.00121501
0.00130641
0.00126515
0.00105965
0.00065373
0.000730813
0.00110189
0.00130387
0.00143529
0.00147662
0.00144643
0.00141946
0.0013996
0.00134497
0.00121459
0.00119862
0.00133181
0.00140207
0.00144896
0.00151424
0.00158257
0.00155236
0.00140479
0.00116348
0.000742413
0.000809716
0.0012047
0.00148645
0.00177145
0.0020206
0.00217413
0.00219548
0.0021275
0.00194536
0.00163406
0.00160312
0.00191734
0.00213039
0.00223248
0.00224491
0.00211478
0.00186752
0.00156967
0.00126012
0.000818726
0.00088456
0.00129253
0.00167891
0.00211817
0.00254229
0.00284722
0.00297778
0.00292847
0.0026736
0.0021983
0.0021718
0.00264296
0.00293124
0.00301157
0.0029029
0.0026071
0.00218482
0.00173903
0.00133691
0.000893459
0.000962939
0.00108129
0.00118249
0.00126201
0.00132388
0.00136718
0.00139147
0.00139526
0.00137489
0.00131531
0.00131572
0.00137757
0.00140061
0.00139909
0.00137665
0.00133454
0.00127377
0.0011949
0.00109339
0.000972653
0.000388623
0.000446523
0.00047027
0.000482712
0.000495422
0.000508325
0.000521685
0.000539135
0.000554659
0.000570761
0.00057464
0.000562016
0.000547551
0.000530335
0.000514926
0.00049799
0.000480057
0.000460803
0.000425044
0.00036023
0.000364873
0.000739734
0.000812073
0.000900171
0.00107937
0.00131379
0.00153962
0.00160915
0.00159128
0.00154831
0.00155181
0.00160718
0.00159943
0.00145609
0.00121255
0.000983747
0.000822372
0.000713505
0.000587077
0.000283818
0.00032206
0.000689171
0.000814212
0.000925792
0.00109152
0.00132226
0.00157352
0.00168093
0.00154283
0.00142166
0.00142994
0.00157485
0.00163556
0.00145319
0.00125544
0.0011028
0.0010031
0.000904247
0.000732417
0.000312363
0.000356412
0.000711127
0.00087361
0.00097406
0.00107624
0.00121232
0.00136578
0.00147914
0.00144656
0.00137287
0.00138627
0.00146512
0.00147484
0.00136869
0.00127461
0.00121254
0.00115904
0.00105882
0.000841877
0.00036079
0.000443586
0.000802692
0.00098414
0.00105924
0.00109643
0.00114225
0.00120093
0.00124004
0.00128416
0.00136747
0.00139381
0.00132921
0.00130382
0.0012841
0.00126701
0.00126379
0.00123906
0.00113337
0.000886518
0.000429787
0.000669468
0.000997164
0.00117222
0.00124249
0.00123572
0.00120489
0.00117573
0.00115461
0.00116246
0.00125745
0.00130208
0.00122201
0.00123548
0.00128978
0.00135357
0.00140755
0.00141031
0.00129155
0.00104348
0.00064439
0.000775946
0.00120667
0.00143529
0.00157437
0.00162655
0.00161824
0.00158849
0.00156035
0.00151637
0.00143688
0.00144039
0.00155263
0.00163759
0.00171142
0.00178084
0.00180454
0.00173176
0.00154251
0.00125852
0.000779338
0.00086733
0.00139056
0.00177145
0.00212561
0.00238914
0.00252759
0.0025289
0.00242814
0.00222136
0.00192276
0.00190007
0.00223182
0.00249564
0.00264803
0.00268316
0.00255211
0.00225175
0.00186136
0.00144011
0.000872658
0.000951173
0.0015073
0.00211817
0.00281257
0.00340883
0.00373364
0.00371192
0.00351959
0.00316178
0.0026964
0.00267937
0.0031571
0.00355587
0.00378238
0.00382201
0.00349821
0.00289228
0.00218127
0.00154806
0.000958266
0.00102957
0.00115602
0.00126201
0.00134726
0.00141604
0.00146796
0.00150094
0.00151466
0.00150583
0.00146644
0.00146849
0.00150961
0.00152075
0.00150926
0.00147786
0.00142702
0.00135865
0.00127349
0.00116694
0.00103828
0.000386436
0.000448419
0.000480171
0.000495422
0.000508942
0.000524165
0.000542189
0.000565099
0.000589405
0.00061644
0.000620953
0.000599096
0.000575703
0.000551126
0.000530322
0.000511786
0.000495618
0.00047679
0.000442957
0.000377247
0.000347022
0.000898637
0.00103193
0.00107937
0.00118155
0.00138206
0.00164011
0.00177217
0.00183274
0.00185869
0.00186735
0.00185898
0.00178876
0.00164344
0.00137664
0.00114892
0.000994362
0.000875603
0.000718561
0.000334634
0.000316442
0.000878735
0.001011
0.00109152
0.00120989
0.00139542
0.00162574
0.00181944
0.00186871
0.00183905
0.00185587
0.00190151
0.00180893
0.00160492
0.00139881
0.00123297
0.00110351
0.00096687
0.000765933
0.000310889
0.000344719
0.000786221
0.000964591
0.00107624
0.00118013
0.00130473
0.00145004
0.00161009
0.00173021
0.0017792
0.00180549
0.00179123
0.00167704
0.00152729
0.0014098
0.00131057
0.00120371
0.00104854
0.000802089
0.000339238
0.000425343
0.000771212
0.000972948
0.00109643
0.0011796
0.0012537
0.00133453
0.00143488
0.0015794
0.00174263
0.0017927
0.00168354
0.00156742
0.00148087
0.00142015
0.00135459
0.00125161
0.00107678
0.000812316
0.000398706
0.000722753
0.000951707
0.001108
0.00123572
0.00131424
0.00135707
0.00138309
0.00140948
0.00146891
0.00162393
0.00170069
0.00160522
0.00157794
0.00158039
0.00156924
0.0015142
0.00138916
0.00118927
0.000957367
0.000664735
0.000821099
0.00129496
0.00147662
0.00162655
0.00176521
0.00185133
0.00188368
0.00188239
0.00185556
0.00181884
0.00185469
0.00196899
0.00206428
0.00211734
0.00210294
0.00198931
0.0017864
0.00156238
0.00132149
0.000815906
0.000914822
0.0015761
0.0020206
0.00238914
0.00268708
0.00285282
0.00287682
0.00277237
0.00255257
0.00228161
0.00228265
0.00261895
0.00291767
0.00308059
0.00307875
0.00289308
0.00253996
0.00210228
0.00161337
0.000916582
0.00100418
0.00171924
0.00254229
0.00340883
0.00394104
0.00413637
0.00414872
0.00398773
0.00365273
0.0032058
0.00320718
0.00368381
0.00406405
0.00425974
0.00425956
0.00405268
0.00349143
0.00259864
0.00175164
0.00100938
0.00107876
0.00121269
0.00132388
0.00141604
0.00149604
0.00155782
0.00160342
0.00163545
0.00165143
0.00164336
0.00164773
0.00165682
0.00164248
0.00161233
0.00156803
0.00150648
0.00142628
0.00133362
0.00122189
0.00108617
0.000387285
0.000450755
0.000488349
0.000508325
0.000524165
0.000541016
0.000562728
0.000595537
0.000632147
0.00067068
0.000675864
0.000642622
0.000604982
0.000568617
0.000545198
0.000527464
0.0005103
0.000487302
0.00044846
0.000379333
0.000348882
0.000982587
0.00123761
0.00131379
0.00138206
0.00153478
0.00179144
0.00192076
0.00206053
0.00213515
0.00215698
0.00211598
0.00196909
0.00181046
0.00158485
0.00138641
0.00122965
0.00107949
0.000858468
0.000337153
0.000373674
0.00109309
0.00126129
0.00132226
0.00139542
0.00153026
0.00173897
0.00195744
0.00213858
0.00220495
0.00223563
0.00220337
0.00201559
0.00178111
0.00156867
0.00140118
0.00125825
0.0011036
0.000892604
0.000309326
0.000356515
0.000921194
0.00110703
0.00121232
0.00130473
0.00141451
0.00156304
0.00178457
0.00202779
0.00218206
0.00223101
0.00214383
0.0019292
0.00171005
0.00154113
0.00140432
0.00126127
0.00108248
0.000841888
0.000331885
0.000554014
0.000805886
0.00100291
0.00114225
0.0012537
0.00136102
0.00148875
0.00168368
0.00194185
0.00218077
0.00225904
0.00211504
0.00190052
0.00170821
0.00155283
0.00140926
0.00124497
0.00104129
0.000790731
0.000428175
0.000747731
0.000921631
0.0010491
0.00120489
0.00135707
0.00149547
0.0016226
0.00175446
0.00192885
0.00215375
0.00226063
0.00214982
0.00202174
0.00189813
0.00174573
0.00154818
0.00131936
0.00109021
0.000909175
0.000752502
0.000854652
0.00135692
0.00144643
0.00161824
0.00185133
0.00206745
0.00222128
0.00230718
0.00234014
0.00236827
0.00244143
0.00253084
0.00258487
0.00254159
0.00236683
0.00207528
0.00174434
0.00148729
0.00135184
0.000851335
0.000947937
0.00172403
0.00217413
0.00252759
0.00285282
0.00308578
0.0031793
0.00311463
0.00292233
0.00272122
0.00275526
0.00304777
0.00332483
0.00343721
0.00333931
0.0030549
0.00265348
0.00222525
0.00174186
0.000948543
0.00103966
0.00187861
0.00284722
0.00373364
0.00413637
0.00437536
0.00442548
0.00427942
0.0039652
0.00360011
0.00362259
0.0040268
0.00437862
0.00455092
0.00450489
0.00424433
0.00380135
0.00288685
0.00189856
0.00104349
0.00111095
0.00125079
0.00136718
0.00146796
0.00155782
0.00163244
0.00169597
0.00175161
0.00179892
0.00183125
0.00183765
0.00180528
0.00175869
0.00170426
0.00164163
0.00156698
0.00147618
0.00137493
0.00125821
0.00111718
0.000393392
0.000457148
0.000497877
0.000521685
0.000542189
0.000562728
0.000593301
0.000635605
0.000703053
0.000789796
0.000789198
0.000707605
0.000643279
0.000597555
0.00056553
0.000546173
0.000524567
0.000495884
0.000454206
0.000381167
0.00035336
0.000989482
0.00137873
0.00153962
0.00164011
0.00179144
0.0019119
0.0020767
0.00220937
0.00222693
0.0022584
0.00228265
0.00216114
0.00196974
0.00180707
0.00165367
0.00146508
0.00126263
0.000946275
0.000359988
0.000396843
0.00103243
0.00146876
0.00157352
0.00162574
0.00173897
0.00191256
0.00212684
0.00228169
0.00231464
0.00236478
0.00239522
0.00224334
0.00200189
0.00178194
0.00160677
0.00145286
0.00129321
0.00103314
0.000404265
0.000463782
0.000994448
0.00124942
0.00136578
0.00145004
0.00156304
0.00175665
0.00202469
0.00225299
0.00237095
0.00244657
0.00242548
0.00222685
0.00195049
0.0017095
0.00152113
0.00135504
0.00117348
0.00093181
0.000443891
0.000616516
0.000817709
0.00104228
0.00120093
0.00133453
0.00148875
0.00171385
0.00201162
0.00229089
0.00247816
0.00258458
0.00252248
0.00229123
0.00198539
0.00169955
0.00146297
0.00125636
0.00104457
0.000804346
0.00057858
0.000768982
0.000924411
0.00101108
0.00117573
0.00138309
0.0016226
0.00188421
0.00217026
0.00242933
0.00261613
0.00274882
0.00270993
0.0025082
0.00221021
0.00187459
0.00154133
0.00124568
0.00101598
0.000886341
0.00076314
0.000871963
0.00138518
0.00141946
0.00158849
0.00188368
0.00222128
0.00252483
0.00274586
0.00288945
0.00294678
0.00305449
0.00314377
0.00307224
0.00285766
0.00250633
0.00206427
0.00166362
0.00142014
0.00135787
0.000869713
0.000961124
0.00179977
0.00219548
0.0025289
0.00287682
0.0031793
0.00335783
0.00337527
0.00330252
0.00326241
0.00333409
0.00348251
0.00361777
0.0036158
0.00340443
0.00303027
0.0026017
0.00220475
0.0017947
0.000962211
0.00105387
0.0019446
0.00297778
0.00371192
0.00414872
0.00442548
0.00448111
0.00432203
0.0040428
0.00384499
0.00388775
0.0041294
0.00442988
0.00459754
0.0045339
0.00422865
0.00374823
0.00299028
0.00194792
0.00105673
0.00112666
0.00127036
0.00139147
0.00150094
0.00160342
0.00169597
0.00178211
0.00186637
0.00195216
0.00203547
0.00204369
0.00195932
0.00187318
0.00178928
0.0017035
0.00161054
0.00150675
0.00139677
0.00127579
0.00113179
0.000399247
0.000458107
0.00050794
0.000539135
0.000565099
0.000595537
0.000635605
0.000690998
0.000797903
0.000918671
0.000910243
0.000800902
0.000685401
0.000639759
0.000599377
0.000570623
0.000541987
0.000508049
0.000459805
0.000389805
0.000351923
0.00094917
0.00135214
0.00160915
0.00177217
0.00192076
0.0020767
0.00218976
0.00219462
0.00223459
0.00223208
0.00225076
0.00227003
0.00215997
0.00196305
0.00177441
0.00157216
0.00131115
0.000953861
0.000365949
0.000419142
0.000851019
0.0013362
0.00168093
0.00181944
0.00195744
0.00212684
0.0022147
0.0022236
0.00252669
0.00252926
0.00233974
0.00237372
0.00224516
0.00201589
0.00180221
0.00161043
0.0013084
0.000868525
0.00044068
0.000522912
0.00089544
0.0012824
0.00147914
0.00161009
0.00178457
0.00202469
0.00219616
0.00230474
0.00284738
0.00287808
0.00248184
0.00243334
0.00222935
0.00193109
0.00167337
0.00146058
0.00122285
0.000868055
0.000526502
0.000647073
0.000788404
0.00102739
0.00124004
0.00143488
0.00168368
0.00201162
0.0022876
0.0024887
0.00317299
0.0032455
0.002727
0.00259056
0.00228489
0.0018876
0.00154755
0.00127101
0.00101322
0.000759941
0.000638953
0.000769301
0.000938016
0.000992785
0.00115461
0.00140948
0.00175446
0.00217026
0.00253536
0.00277727
0.00348986
0.00360948
0.00306988
0.00288589
0.00248353
0.00197694
0.00152658
0.00118739
0.000974243
0.00089573
0.000766388
0.000863595
0.00137062
0.0013996
0.00156035
0.00188239
0.00230718
0.00274586
0.00312949
0.00334557
0.00380326
0.00393102
0.00362773
0.00345394
0.0030359
0.00252211
0.00199417
0.00158308
0.00136904
0.00132439
0.000863333
0.000949212
0.00178997
0.0021275
0.00242814
0.00277237
0.00311463
0.00337527
0.00355857
0.00374248
0.0041008
0.00420078
0.00395352
0.00379908
0.00358556
0.00326561
0.00284859
0.00243724
0.00209472
0.00176148
0.000950777
0.00104137
0.00188717
0.00292847
0.00351959
0.00398773
0.00427942
0.00432203
0.00419226
0.0041447
0.00442324
0.00447879
0.00425012
0.00430234
0.0044175
0.00435111
0.00402419
0.00351443
0.00290658
0.00186999
0.00104344
0.00112492
0.0012701
0.00139526
0.00151466
0.00163545
0.00175161
0.00186637
0.0019882
0.00212835
0.00228465
0.00229444
0.00213681
0.00199546
0.001873
0.00175781
0.00164064
0.0015181
0.00139824
0.00127371
0.0011291
0.000400344
0.000456427
0.000512979
0.000554659
0.000589405
0.000632147
0.000703053
0.000797903
0.00085916
0.000896892
0.000894877
0.000870467
0.000797207
0.000701753
0.000638001
0.000595868
0.000557396
0.000513945
0.0004589
0.000398804
0.00034827
0.000877823
0.00127862
0.00159128
0.00183274
0.00206053
0.00220937
0.00219462
0.00223028
0.0028299
0.00283871
0.00222182
0.00224031
0.00227537
0.00211139
0.00184473
0.00157798
0.0012643
0.000894382
0.00034739
0.00037959
0.000709296
0.00113513
0.00154283
0.00186871
0.00213858
0.00228169
0.0022236
0.00259527
0.0038866
0.00386538
0.00260962
0.00233578
0.00239334
0.00219702
0.00188194
0.00153349
0.00112193
0.00072192
0.000427358
0.000520958
0.000733682
0.00109621
0.00144656
0.00173021
0.00202779
0.00225299
0.00230474
0.00305883
0.00478683
0.00477609
0.00311484
0.00248053
0.00242578
0.00214188
0.00177997
0.00143673
0.00106883
0.000721351
0.000534062
0.000639692
0.000768593
0.000997747
0.00128416
0.0015794
0.00194185
0.00229089
0.0024887
0.00355509
0.00549527
0.00551745
0.00367547
0.00272196
0.00251166
0.00210243
0.00166916
0.00130855
0.000983141
0.000741784
0.000638005
0.000741514
0.000925294
0.000993642
0.00116246
0.00146891
0.00192885
0.00242933
0.00277727
0.00396365
0.00595954
0.00601926
0.00415084
0.00305086
0.00267046
0.00209906
0.0015554
0.00118063
0.000971055
0.000883111
0.000739993
0.000828022
0.00128261
0.00134497
0.00151637
0.00185556
0.00234014
0.00288945
0.00334557
0.00436072
0.00619921
0.0062805
0.00456886
0.00359475
0.00308284
0.0024537
0.00189088
0.00149039
0.00128607
0.00122139
0.000828587
0.000910568
0.00165862
0.00194536
0.00222136
0.00255257
0.00292233
0.00330252
0.00374248
0.00468381
0.00624318
0.00631661
0.00485532
0.00392749
0.00343287
0.00297971
0.00254447
0.00216636
0.00187305
0.0016175
0.000911923
0.00100007
0.00168051
0.0026736
0.00316178
0.00365273
0.0039652
0.0040428
0.0041447
0.00479728
0.00583762
0.00588696
0.0048929
0.00424141
0.00411214
0.00400049
0.00364863
0.00311958
0.00261458
0.00165331
0.00100284
0.0011015
0.00124637
0.00137489
0.00150583
0.00165143
0.00179892
0.00195216
0.00212835
0.00234898
0.00259324
0.00260458
0.00235951
0.00213741
0.00195965
0.00180505
0.00165572
0.00150767
0.00137571
0.00124826
0.00110484
0.000399062
0.000455681
0.000516987
0.000570761
0.00061644
0.00067068
0.000789796
0.000918671
0.000896892
0.000896056
0.000892024
0.000890282
0.000901752
0.000783957
0.000671526
0.000618528
0.000571329
0.000516987
0.000456322
0.000398708
0.00036629
0.000828658
0.00119344
0.00154831
0.00185869
0.00213515
0.00222693
0.00223459
0.0028299
0.00199758
0.00201007
0.0028133
0.00219674
0.00223554
0.00214367
0.00185128
0.0015279
0.00117334
0.000821812
0.000360684
0.000299288
0.000644005
0.00100656
0.00142166
0.00183905
0.00220495
0.00231464
0.00252669
0.0038866
0.00287208
0.00292801
0.00384483
0.00250506
0.00234464
0.00221954
0.00183528
0.00140449
0.000992275
0.000641346
0.000318244
0.000457566
0.000663582
0.000982506
0.00137287
0.0017792
0.00218206
0.00237095
0.00284738
0.00478683
0.00371192
0.00379808
0.00475958
0.00286056
0.00242734
0.00221527
0.00178761
0.00136524
0.000976314
0.000664781
0.000466594
0.00058479
0.000760063
0.00102812
0.00136747
0.00174263
0.00218077
0.00247816
0.00317299
0.00549527
0.00454766
0.00464177
0.00549893
0.00322676
0.00255669
0.00223497
0.00177255
0.00137716
0.00102606
0.000750199
0.000583401
0.000679615
0.000872981
0.00102609
0.00125745
0.00162393
0.00215375
0.00261613
0.00348986
0.00595954
0.00531691
0.00540053
0.00599742
0.00357886
0.00270226
0.00221188
0.00165542
0.0012636
0.00101059
0.000843679
0.000681337
0.000764952
0.00110124
0.00121459
0.00143688
0.00181884
0.00236827
0.00294678
0.00380326
0.00619921
0.00592517
0.00598866
0.00625787
0.00388891
0.00299633
0.00237951
0.00179332
0.00138674
0.00115208
0.00104153
0.000768711
0.00084342
0.00142117
0.00163406
0.00192276
0.00228161
0.00272122
0.00326241
0.0041008
0.00624318
0.00627556
0.00631619
0.00630064
0.0041671
0.00329549
0.00271454
0.00223784
0.00185634
0.00156829
0.00138982
0.000846657
0.000926887
0.00137697
0.0021983
0.0026964
0.0032058
0.00360011
0.00384499
0.00442324
0.00583762
0.00639074
0.00641447
0.00587925
0.00446465
0.00387339
0.00361271
0.00319682
0.00266655
0.00216057
0.00136457
0.000927298
0.00103914
0.00118808
0.00131531
0.00146644
0.00164336
0.00183125
0.00203547
0.00228465
0.00259324
0.00280513
0.00282214
0.00260666
0.00229655
0.00204504
0.00183863
0.00164806
0.0014681
0.00131543
0.00118818
0.00103924
0.000400909
0.000458813
0.000521812
0.00057464
0.000620953
0.000675864
0.000789198
0.000910243
0.000894877
0.000892024
0.000885772
0.000885992
0.000906036
0.000776779
0.000661328
0.00061098
0.000567802
0.000516651
0.000456874
0.000399297
0.00036999
0.000839688
0.00120085
0.00155181
0.00186735
0.00215698
0.0022584
0.00223208
0.00283871
0.00201007
0.00186793
0.00271816
0.00215327
0.00217701
0.00212154
0.00186349
0.00156067
0.00120583
0.000835955
0.00036936
0.000325212
0.000652452
0.00101465
0.00142994
0.00185587
0.00223563
0.00236478
0.00252926
0.00386538
0.00292801
0.00268583
0.0038057
0.00243748
0.00224994
0.00218568
0.0018413
0.00143076
0.00101446
0.00064968
0.000307589
0.000474256
0.000675229
0.000995428
0.00138627
0.00180549
0.00223101
0.00244657
0.00287808
0.00477609
0.00379808
0.00348683
0.00471774
0.00274828
0.00229915
0.00215212
0.00176686
0.00136955
0.000984163
0.000669987
0.000470828
0.000587976
0.000766911
0.00104181
0.00139381
0.0017927
0.00225904
0.00258458
0.0032455
0.00551745
0.00464177
0.00430484
0.00542296
0.00307228
0.00240886
0.00214318
0.00171184
0.00133983
0.00100907
0.000752563
0.000593433
0.000683087
0.000875605
0.00104484
0.00130208
0.00170069
0.00226063
0.00274882
0.00360948
0.00601926
0.00540053
0.00508095
0.00588544
0.00340815
0.00256442
0.00212433
0.00159552
0.00122911
0.00100228
0.000857172
0.000686767
0.000768461
0.0010832
0.00119862
0.00144039
0.00185469
0.00244143
0.00305449
0.00393102
0.0062805
0.00598866
0.00571625
0.00613238
0.00375025
0.00293193
0.00237045
0.00182332
0.00143766
0.00121305
0.00109831
0.000770816
0.000845343
0.00141055
0.00160312
0.00190007
0.00228265
0.00275526
0.00333409
0.00420078
0.00631661
0.00631619
0.00611112
0.006187
0.00407181
0.00327489
0.00275445
0.00231802
0.00195294
0.00165228
0.00141343
0.000849034
0.00092608
0.0013642
0.0021718
0.00267937
0.00320718
0.00362259
0.00388775
0.00447879
0.00588696
0.00641447
0.00628119
0.00579258
0.00440145
0.00384961
0.00363453
0.00325704
0.00274739
0.00223388
0.0013952
0.000932607
0.00103891
0.00118809
0.00131572
0.00146849
0.00164773
0.00183765
0.00204369
0.00229444
0.00260458
0.00282214
0.00278007
0.0025876
0.00228363
0.00203629
0.00183442
0.00164877
0.00147338
0.00132314
0.00119451
0.00104413
0.000401682
0.000466922
0.000521609
0.000562016
0.000599096
0.000642622
0.000707605
0.000800902
0.000870467
0.000890282
0.000885992
0.000826051
0.000775756
0.000693128
0.000627117
0.000587311
0.00055496
0.000516306
0.000460446
0.000401824
0.000360043
0.000929566
0.00130967
0.00160718
0.00185898
0.00211598
0.00228265
0.00225076
0.00222182
0.0028133
0.00271816
0.00212456
0.00210085
0.0021529
0.00204152
0.00183978
0.00161401
0.00131279
0.000907381
0.000344417
0.000439422
0.00074881
0.00117627
0.00157485
0.00190151
0.00220337
0.00239522
0.00233974
0.00260962
0.00384483
0.0038057
0.00247843
0.00210248
0.00221768
0.00211641
0.00187277
0.00157136
0.00117725
0.000742618
0.000394801
0.0005434
0.000742664
0.00110941
0.00146512
0.00179123
0.00214383
0.00242548
0.00248184
0.00311484
0.00475958
0.00471774
0.00293404
0.00217784
0.00218565
0.0019969
0.00172038
0.00145802
0.00112974
0.000761175
0.000526605
0.000643806
0.000763565
0.0010087
0.00132921
0.00168354
0.00211504
0.00252248
0.002727
0.00367547
0.00549893
0.00542296
0.00342825
0.00237452
0.00223452
0.00191559
0.00156905
0.0012862
0.00100803
0.00077519
0.00064366
0.000742894
0.00091422
0.00100319
0.00122201
0.00160522
0.00214982
0.00270993
0.00306988
0.00415084
0.00599742
0.00588544
0.00385502
0.0027005
0.00240135
0.00192278
0.00146984
0.00116252
0.000989501
0.000920026
0.000746365
0.000829737
0.00125534
0.00133181
0.00155263
0.00196899
0.00253084
0.00314377
0.00362773
0.00456886
0.00625787
0.00613238
0.00428553
0.00331644
0.00290465
0.00236852
0.0018827
0.00153271
0.00135023
0.00128078
0.000833626
0.00091171
0.00163474
0.00191734
0.00223182
0.00261895
0.00304777
0.00348251
0.00395352
0.00485532
0.00630064
0.006187
0.00463868
0.00374687
0.00334706
0.00298413
0.00261605
0.00227362
0.00198111
0.00167028
0.000916376
0.0010025
0.00166073
0.00264296
0.0031571
0.00368381
0.0040268
0.0041294
0.00425012
0.0048929
0.00587925
0.00579258
0.00476778
0.00414085
0.00406794
0.00401571
0.00372167
0.0032338
0.00273046
0.00171168
0.00100622
0.00110478
0.00124931
0.00137757
0.00150961
0.00165682
0.00180528
0.00195932
0.00213681
0.00235951
0.00260666
0.0025876
0.00234695
0.00212787
0.00195305
0.00180165
0.0016562
0.00151212
0.00138116
0.00125148
0.00110514
0.000395463
0.00046967
0.000516279
0.000547551
0.000575703
0.000604982
0.000643279
0.000685401
0.000797207
0.000901752
0.000906036
0.000775756
0.000674976
0.000629713
0.000593807
0.000565469
0.000541229
0.000513093
0.000464554
0.000397171
0.000379555
0.000997023
0.00135528
0.00159943
0.00178876
0.00196909
0.00216114
0.00227003
0.00224031
0.00219674
0.00215327
0.00210085
0.00211882
0.00203287
0.00190701
0.00177578
0.00162676
0.00138877
0.000991933
0.000357862
0.000449314
0.00091396
0.00136708
0.00163556
0.00180893
0.00201559
0.00224334
0.00237372
0.00233578
0.00250506
0.00243748
0.00210248
0.00212706
0.00208023
0.00193051
0.00180483
0.001697
0.00138503
0.000902955
0.000426358
0.000535682
0.000911536
0.0012608
0.00147484
0.00167704
0.0019292
0.00222685
0.00243334
0.00248053
0.00286056
0.00274828
0.00217784
0.00210651
0.00197177
0.00175134
0.00158753
0.00146698
0.00130474
0.000938558
0.000521714
0.000642631
0.000789417
0.00105249
0.00130382
0.00156742
0.00190052
0.00229123
0.00259056
0.00272196
0.00322676
0.00307228
0.00237452
0.00221448
0.00197284
0.0016661
0.0014315
0.00124981
0.00104607
0.000803949
0.000646702
0.000767156
0.000918259
0.0010099
0.00123548
0.00157794
0.00202174
0.0025082
0.00288589
0.00305086
0.00357886
0.00340815
0.0027005
0.00249683
0.00216049
0.00176075
0.00142291
0.00116625
0.000995775
0.000931352
0.000771068
0.000864128
0.00134596
0.00140207
0.00163759
0.00206428
0.00258487
0.00307224
0.00345394
0.00359475
0.00388891
0.00375025
0.00331644
0.00313999
0.00277576
0.00234338
0.00191528
0.00157873
0.00140244
0.0013673
0.000867895
0.000951619
0.00177788
0.00213039
0.00249564
0.00291767
0.00332483
0.00361777
0.00379908
0.00392749
0.0041671
0.00407181
0.00374687
0.00359884
0.003435
0.00318445
0.0028403
0.00248182
0.00216186
0.00180667
0.000954637
0.00104445
0.00188044
0.00293124
0.00355587
0.00406405
0.00437862
0.00442988
0.00430234
0.00424141
0.00446465
0.00440145
0.00414085
0.00421391
0.00436549
0.00434099
0.00406122
0.00359111
0.00297546
0.00191749
0.00104689
0.00112991
0.00127534
0.00140061
0.00152075
0.00164248
0.00175869
0.00187318
0.00199546
0.00213741
0.00229655
0.00228363
0.00212787
0.00198857
0.00186797
0.00175469
0.00163993
0.00151992
0.00140005