/*--------------------------------*- C++ -*----------------------------------*\
| =========                 |                                                 |
| \\      /  F ield         | OpenFOAM: The Open Source CFD Toolbox           |
|  \\    /   O peration     | Version:  v1912                                 |
|   \\  /    A nd           | Website:  www.openfoam.com                      |
|    \\/     M anipulation  |                                                 |
\*---------------------------------------------------------------------------*/
FoamFile
{
    version     2.0;
    format      ascii;
    class       volScalarField;
    location    "100";
    object      epsilon;
}
// * * * * * * * * * * * * * * * * * * * * * * * * * * * * * * * * * * * * * //

dimensions      [0 2 -3 0 0 0 0];


internalField   nonuniform List<scalar> 
4000
(
3.83035e-07
2.41205e-07
2.62848e-07
2.76809e-07
2.85598e-07
2.9367e-07
3.06143e-07
3.23175e-07
3.39617e-07
3.51661e-07
3.45828e-07
3.25993e-07
3.02632e-07
2.82372e-07
2.69222e-07
2.54167e-07
2.32448e-07
2.14968e-07
3.24853e-07
5.75258e-07
2.63251e-07
2.13856e-07
2.19544e-07
2.33016e-07
2.29065e-07
2.27911e-07
2.40204e-07
2.5129e-07
2.4797e-07
2.54519e-07
2.56177e-07
2.78053e-07
2.69533e-07
2.31993e-07
2.16276e-07
2.21517e-07
2.29095e-07
3.18374e-07
5.21367e-07
8.81196e-07
6.14391e-07
3.52622e-07
2.76641e-07
2.42529e-07
2.0987e-07
2.29638e-07
2.86379e-07
3.58019e-07
3.41057e-07
2.19601e-07
2.65772e-07
4.19022e-07
3.61995e-07
2.50398e-07
1.98829e-07
2.42791e-07
3.22819e-07
4.9847e-07
8.78583e-07
1.14107e-06
1.00672e-06
7.82941e-07
4.83583e-07
3.5589e-07
2.84292e-07
2.58138e-07
3.58888e-07
5.75585e-07
6.91944e-07
5.49375e-07
5.86027e-07
7.03809e-07
5.25301e-07
2.92808e-07
2.56368e-07
3.31145e-07
4.52907e-07
6.53932e-07
1.20887e-06
1.34786e-06
1.26198e-06
1.24308e-06
9.54962e-07
5.99143e-07
4.64519e-07
5.59728e-07
8.6798e-07
1.19705e-06
1.33379e-06
1.11085e-06
1.09668e-06
1.29862e-06
1.10138e-06
7.18981e-07
4.06867e-07
4.75475e-07
6.52907e-07
1.25568e-06
1.55483e-06
1.53358e-06
1.48715e-06
1.65841e-06
1.77786e-06
1.81455e-06
1.8522e-06
2.14687e-06
2.44214e-06
2.58333e-06
2.43885e-06
1.93631e-06
1.91547e-06
2.39764e-06
2.50845e-06
2.31484e-06
1.97336e-06
1.66225e-06
1.91759e-06
2.03283e-06
1.94281e-06
1.72444e-06
1.72309e-06
2.11922e-06
2.55954e-06
2.94891e-06
3.35487e-06
3.74048e-06
3.99221e-06
3.97382e-06
3.61306e-06
2.91416e-06
2.91425e-06
3.59757e-06
3.95836e-06
3.98069e-06
3.7644e-06
3.4439e-06
3.14918e-06
2.8263e-06
2.39205e-06
1.94753e-06
2.00706e-06
2.6457e-06
3.3998e-06
4.10481e-06
4.75465e-06
5.27247e-06
5.54161e-06
5.44464e-06
4.92484e-06
4.01087e-06
4.01937e-06
4.9323e-06
5.48488e-06
5.61655e-06
5.39194e-06
4.93778e-06
4.34867e-06
3.677e-06
2.91062e-06
2.21889e-06
2.35907e-06
3.28568e-06
4.37359e-06
5.39842e-06
6.32964e-06
7.03976e-06
7.39412e-06
7.26176e-06
6.57778e-06
5.35749e-06
5.35473e-06
6.61346e-06
7.34594e-06
7.54326e-06
7.24771e-06
6.58975e-06
5.69507e-06
4.67889e-06
3.55958e-06
2.56302e-06
2.83116e-06
4.16294e-06
5.57322e-06
6.81216e-06
7.85484e-06
8.62264e-06
9.06305e-06
9.11493e-06
8.68732e-06
7.48687e-06
7.49758e-06
8.78471e-06
9.28153e-06
9.28896e-06
8.89605e-06
8.16351e-06
7.13983e-06
5.89648e-06
4.44714e-06
3.03739e-06
2.41205e-07
3.16046e-07
3.72674e-07
4.17298e-07
4.49779e-07
4.75289e-07
5.0498e-07
5.29921e-07
5.43638e-07
5.52993e-07
5.54484e-07
5.46537e-07
5.13831e-07
4.66044e-07
4.27511e-07
3.86102e-07
3.36351e-07
2.84077e-07
2.66933e-07
3.43439e-07
2.13856e-07
3.16429e-07
4.46625e-07
5.51364e-07
4.92166e-07
3.76205e-07
3.51829e-07
3.66062e-07
3.54914e-07
3.18573e-07
3.46893e-07
4.00631e-07
3.78076e-07
3.43647e-07
3.95046e-07
4.8487e-07
4.59953e-07
4.02415e-07
4.42732e-07
5.05792e-07
3.52622e-07
4.20345e-07
4.42192e-07
5.04393e-07
5.5703e-07
5.25282e-07
3.80914e-07
3.87775e-07
3.87484e-07
3.2821e-07
3.58477e-07
4.12742e-07
3.65272e-07
3.77989e-07
4.8963e-07
5.18918e-07
5.65683e-07
7.15807e-07
9.24939e-07
8.59718e-07
7.82941e-07
8.9924e-07
7.36407e-07
5.95564e-07
5.38327e-07
5.19047e-07
5.16282e-07
5.48054e-07
5.87236e-07
5.21144e-07
5.51661e-07
5.85756e-07
5.05579e-07
4.77257e-07
5.05412e-07
5.91309e-07
7.81429e-07
1.06138e-06
1.26683e-06
1.18974e-06
1.24308e-06
1.27212e-06
1.15874e-06
8.68952e-07
6.77658e-07
6.0664e-07
6.4059e-07
8.06567e-07
9.40845e-07
9.01313e-07
9.23073e-07
9.34924e-07
7.62903e-07
6.04613e-07
6.07365e-07
7.47537e-07
1.02743e-06
1.40548e-06
1.46177e-06
1.53728e-06
1.65841e-06
1.55295e-06
1.63632e-06
1.65626e-06
1.53549e-06
1.55406e-06
1.7164e-06
1.8233e-06
1.76094e-06
1.48693e-06
1.47654e-06
1.71267e-06
1.72151e-06
1.56418e-06
1.41842e-06
1.49068e-06
1.79368e-06
1.82739e-06
1.74789e-06
1.92583e-06
2.11922e-06
1.93867e-06
2.20796e-06
2.55045e-06
2.91262e-06
3.18259e-06
3.2715e-06
3.11621e-06
2.71119e-06
2.12451e-06
2.09466e-06
2.64666e-06
3.03446e-06
3.19631e-06
3.15262e-06
2.96889e-06
2.67992e-06
2.38199e-06
2.12841e-06
2.37201e-06
2.6457e-06
2.54252e-06
3.1135e-06
3.77814e-06
4.40438e-06
4.8278e-06
4.89073e-06
4.49938e-06
3.78035e-06
2.95548e-06
2.95093e-06
3.74734e-06
4.48175e-06
4.9059e-06
4.87634e-06
4.49438e-06
3.92018e-06
3.29716e-06
2.74043e-06
2.88683e-06
3.28568e-06
3.78654e-06
4.9777e-06
6.16207e-06
7.22781e-06
7.89878e-06
7.97844e-06
7.2868e-06
6.00117e-06
4.41448e-06
4.39489e-06
5.99363e-06
7.33423e-06
8.09208e-06
8.05844e-06
7.41392e-06
6.38591e-06
5.23197e-06
4.03562e-06
3.53712e-06
4.16294e-06
5.94893e-06
7.89808e-06
9.66116e-06
1.11769e-05
1.23127e-05
1.29823e-05
1.30913e-05
1.25439e-05
1.11271e-05
1.11395e-05
1.26592e-05
1.32995e-05
1.32747e-05
1.26726e-05
1.15833e-05
1.00903e-05
8.31817e-06
6.31571e-06
4.4312e-06
2.62848e-07
3.72674e-07
4.46413e-07
5.07456e-07
5.64826e-07
6.1611e-07
6.66362e-07
7.27989e-07
7.74704e-07
8.12971e-07
8.10608e-07
7.60947e-07
6.92709e-07
6.21154e-07
5.60801e-07
4.9904e-07
4.32374e-07
3.59172e-07
2.83111e-07
2.10617e-07
2.19544e-07
4.46625e-07
5.41602e-07
6.50351e-07
6.75114e-07
5.80704e-07
4.79427e-07
4.56053e-07
4.66721e-07
4.71964e-07
4.87521e-07
4.74511e-07
4.41013e-07
4.68855e-07
5.66441e-07
6.16762e-07
5.46713e-07
4.52265e-07
4.07593e-07
3.14563e-07
2.76641e-07
4.42192e-07
5.07371e-07
5.7863e-07
6.36981e-07
6.27721e-07
5.1253e-07
4.28185e-07
4.31698e-07
4.43071e-07
4.60262e-07
4.29816e-07
3.9378e-07
4.84775e-07
5.82521e-07
6.12119e-07
6.24008e-07
6.72983e-07
7.04987e-07
4.92182e-07
4.83583e-07
7.36407e-07
7.25958e-07
6.61098e-07
6.18739e-07
5.91907e-07
5.67257e-07
5.61721e-07
5.65128e-07
6.01583e-07
6.23697e-07
5.51268e-07
5.07106e-07
5.24176e-07
5.98736e-07
7.02497e-07
8.51883e-07
1.00787e-06
1.04066e-06
6.48397e-07
9.54962e-07
1.15874e-06
1.0942e-06
8.97275e-07
7.30669e-07
6.34665e-07
6.01603e-07
6.47138e-07
7.6162e-07
9.07084e-07
9.40801e-07
7.59454e-07
6.29165e-07
6.04174e-07
6.83631e-07
8.49961e-07
1.08947e-06
1.3451e-06
1.40032e-06
1.22744e-06
1.77786e-06
1.63632e-06
1.55924e-06
1.41927e-06
1.22083e-06
1.11191e-06
1.11716e-06
1.18985e-06
1.25231e-06
1.29029e-06
1.32082e-06
1.23127e-06
1.13798e-06
1.0729e-06
1.11978e-06
1.3122e-06
1.61064e-06
1.75916e-06
1.83114e-06
2.01895e-06
2.55954e-06
2.20796e-06
2.21979e-06
2.26989e-06
2.21897e-06
2.13975e-06
2.09473e-06
2.03624e-06
1.87853e-06
1.58871e-06
1.57174e-06
1.84363e-06
1.99105e-06
2.06548e-06
2.16021e-06
2.30557e-06
2.41984e-06
2.39677e-06
2.38513e-06
2.80323e-06
3.3998e-06
3.1135e-06
3.5863e-06
4.09182e-06
4.40392e-06
4.30947e-06
3.84157e-06
3.39423e-06
2.79527e-06
2.11825e-06
2.08258e-06
2.74084e-06
3.36553e-06
3.83974e-06
4.32576e-06
4.4993e-06
4.2481e-06
3.77453e-06
3.29617e-06
3.64579e-06
4.37359e-06
4.9777e-06
6.6949e-06
8.51066e-06
1.0092e-05
1.09715e-05
1.09937e-05
9.6253e-06
7.2366e-06
4.57573e-06
4.51074e-06
7.09891e-06
9.61927e-06
1.11227e-05
1.11871e-05
1.03219e-05
8.76539e-06
6.96824e-06
5.2292e-06
4.64839e-06
5.57322e-06
7.89808e-06
1.03451e-05
1.25881e-05
1.45444e-05
1.60415e-05
1.6979e-05
1.72187e-05
1.66582e-05
1.496e-05
1.4976e-05
1.67781e-05
1.745e-05
1.7313e-05
1.64553e-05
1.50092e-05
1.30767e-05
1.08217e-05
8.31296e-06
5.87772e-06
2.76809e-07
4.17298e-07
5.07456e-07
5.72756e-07
6.40269e-07
7.13902e-07
7.91192e-07
8.87564e-07
9.81825e-07
1.07725e-06
1.07049e-06
9.6375e-07
8.58184e-07
7.60236e-07
6.77473e-07
5.97503e-07
5.17055e-07
4.29494e-07
3.29464e-07
2.22493e-07
2.33016e-07
5.51364e-07
6.50351e-07
7.23218e-07
7.58609e-07
6.98315e-07
5.76768e-07
5.08256e-07
5.362e-07
6.04439e-07
6.11361e-07
5.31106e-07
5.01227e-07
5.801e-07
6.93849e-07
7.19059e-07
6.46844e-07
5.52206e-07
4.62663e-07
2.19725e-07
2.42529e-07
5.04393e-07
5.7863e-07
6.28671e-07
6.64814e-07
6.49066e-07
5.52067e-07
4.49728e-07
4.71314e-07
5.62692e-07
5.74458e-07
4.64052e-07
4.30297e-07
5.33425e-07
6.24692e-07
6.47962e-07
6.39523e-07
6.24333e-07
5.59176e-07
3.15457e-07
3.5589e-07
5.95564e-07
6.61098e-07
6.54066e-07
6.30786e-07
5.99064e-07
5.51464e-07
5.30669e-07
5.66553e-07
7.17462e-07
7.36271e-07
5.6178e-07
5.05243e-07
5.45837e-07
6.27235e-07
7.09617e-07
7.92329e-07
8.36374e-07
7.48017e-07
4.37283e-07
5.99143e-07
8.68952e-07
8.97275e-07
8.14699e-07
7.10926e-07
6.27578e-07
5.75712e-07
5.85221e-07
6.99062e-07
9.90929e-07
1.03496e-06
7.18692e-07
5.98553e-07
6.13607e-07
7.08429e-07
8.4297e-07
9.84998e-07
1.07559e-06
1.00125e-06
6.35819e-07
1.81455e-06
1.65626e-06
1.41927e-06
1.22435e-06
1.04773e-06
9.20134e-07
8.65171e-07
8.92364e-07
9.96774e-07
1.23672e-06
1.30978e-06
1.02089e-06
9.05829e-07
9.06874e-07
1.01404e-06
1.19945e-06
1.41769e-06
1.61213e-06
1.80608e-06
1.92813e-06
2.94891e-06
2.55045e-06
2.26989e-06
1.97846e-06
1.79999e-06
1.67952e-06
1.6092e-06
1.57864e-06
1.5324e-06
1.44792e-06
1.46422e-06
1.55439e-06
1.61179e-06
1.67836e-06
1.79754e-06
1.95683e-06
2.15992e-06
2.42457e-06
2.69033e-06
3.13876e-06
4.10481e-06
3.77814e-06
4.09182e-06
4.22566e-06
4.02555e-06
4.00386e-06
3.85316e-06
3.53533e-06
2.95534e-06
2.23832e-06
2.20367e-06
2.94977e-06
3.60833e-06
3.99566e-06
4.18024e-06
4.20322e-06
4.39215e-06
4.24769e-06
3.9192e-06
4.32186e-06
5.39842e-06
6.16207e-06
8.51066e-06
1.1045e-05
1.30693e-05
1.40307e-05
1.41722e-05
1.31435e-05
1.06964e-05
7.64561e-06
7.58515e-06
1.06378e-05
1.32621e-05
1.44484e-05
1.43598e-05
1.3374e-05
1.13075e-05
8.76245e-06
6.38241e-06
5.66489e-06
6.81216e-06
9.66116e-06
1.25881e-05
1.53118e-05
1.77472e-05
1.9695e-05
2.10793e-05
2.16814e-05
2.1402e-05
2.00328e-05
2.00994e-05
2.15518e-05
2.19409e-05
2.14438e-05
2.01364e-05
1.82331e-05
1.58114e-05
1.30718e-05
1.00818e-05
7.12045e-06
2.85598e-07
4.49779e-07
5.64826e-07
6.40269e-07
7.10865e-07
7.94949e-07
8.99245e-07
1.03957e-06
1.19309e-06
1.3568e-06
1.35365e-06
1.18634e-06
1.03099e-06
8.91176e-07
7.8213e-07
6.87155e-07
5.94241e-07
4.9315e-07
3.75051e-07
2.42226e-07
2.29065e-07
4.92166e-07
6.75114e-07
7.58609e-07
7.70182e-07
7.14057e-07
6.07978e-07
5.47297e-07
6.00975e-07
7.25498e-07
7.33153e-07
6.09247e-07
5.60734e-07
6.23575e-07
7.29318e-07
7.6888e-07
7.21459e-07
6.1879e-07
4.75733e-07
2.08196e-07
2.0987e-07
5.5703e-07
6.36981e-07
6.64814e-07
6.62897e-07
6.155e-07
5.13336e-07
4.43981e-07
5.1913e-07
6.90121e-07
7.0529e-07
5.37772e-07
4.63178e-07
5.18367e-07
6.07568e-07
6.49819e-07
6.49145e-07
6.13038e-07
5.13198e-07
2.34283e-07
2.84292e-07
5.38327e-07
6.18739e-07
6.30786e-07
6.11796e-07
5.71014e-07
5.14421e-07
4.93328e-07
5.86435e-07
8.40436e-07
8.70866e-07
6.21354e-07
5.19195e-07
5.38873e-07
6.06486e-07
6.67063e-07
7.02599e-07
6.84502e-07
5.65307e-07
3.15955e-07
4.64519e-07
6.77658e-07
7.30669e-07
7.10926e-07
6.58394e-07
5.99106e-07
5.51145e-07
5.58176e-07
7.03879e-07
1.08382e-06
1.14883e-06
7.6654e-07
6.14295e-07
6.2336e-07
6.94549e-07
7.7509e-07
8.30802e-07
8.23902e-07
7.14631e-07
4.54879e-07
1.8522e-06
1.53549e-06
1.22083e-06
1.04773e-06
9.23927e-07
8.30665e-07
7.7764e-07
7.95096e-07
9.1834e-07
1.2793e-06
1.38917e-06
1.00505e-06
8.8216e-07
8.8965e-07
9.72966e-07
1.08305e-06
1.19278e-06
1.30969e-06
1.51123e-06
1.71092e-06
3.35487e-06
2.91262e-06
2.21897e-06
1.79999e-06
1.62897e-06
1.56232e-06
1.53363e-06
1.52881e-06
1.52894e-06
1.56163e-06
1.62312e-06
1.63886e-06
1.67637e-06
1.72241e-06
1.77231e-06
1.82588e-06
1.95185e-06
2.31053e-06
2.9874e-06
3.45297e-06
4.75465e-06
4.40438e-06
4.40392e-06
4.02555e-06
4.17878e-06
4.47723e-06
4.58966e-06
4.36489e-06
3.72771e-06
2.88075e-06
2.87247e-06
3.82188e-06
4.60284e-06
4.92736e-06
4.82783e-06
4.46168e-06
4.19191e-06
4.49501e-06
4.49309e-06
4.91975e-06
6.32964e-06
7.22781e-06
1.0092e-05
1.30693e-05
1.54188e-05
1.75174e-05
1.86046e-05
1.81111e-05
1.57244e-05
1.19605e-05
1.19908e-05
1.58236e-05
1.84182e-05
1.90835e-05
1.8035e-05
1.58629e-05
1.3351e-05
1.03009e-05
7.40411e-06
6.56398e-06
7.85484e-06
1.11769e-05
1.45444e-05
1.77472e-05
2.07801e-05
2.33487e-05
2.52332e-05
2.65264e-05
2.71589e-05
2.68593e-05
2.70251e-05
2.73892e-05
2.68406e-05
2.56308e-05
2.38037e-05
2.12565e-05
1.8221e-05
1.49947e-05
1.15698e-05
8.14444e-06
2.9367e-07
4.75289e-07
6.1611e-07
7.13902e-07
7.94949e-07
8.84937e-07
1.01053e-06
1.20873e-06
1.46174e-06
1.73793e-06
1.73853e-06
1.46391e-06
1.21695e-06
1.02689e-06
8.86095e-07
7.76419e-07
6.69255e-07
5.50152e-07
4.12195e-07
2.56519e-07
2.27911e-07
3.76205e-07
5.80704e-07
6.98315e-07
7.14057e-07
6.62081e-07
5.97485e-07
6.11474e-07
7.4474e-07
9.7e-07
9.77959e-07
7.66187e-07
6.33092e-07
6.09036e-07
6.68831e-07
7.21259e-07
6.85977e-07
5.54684e-07
3.73882e-07
2.05737e-07
2.29638e-07
5.25282e-07
6.27721e-07
6.49066e-07
6.155e-07
5.419e-07
4.50758e-07
4.65762e-07
6.39121e-07
9.47298e-07
9.63661e-07
6.84566e-07
5.17156e-07
4.8371e-07
5.4208e-07
6.04896e-07
6.22493e-07
5.78325e-07
4.73922e-07
1.87962e-07
2.58138e-07
5.19047e-07
5.91907e-07
5.99064e-07
5.71014e-07
5.21794e-07
4.73823e-07
4.9976e-07
6.91626e-07
1.0952e-06
1.14198e-06
7.72471e-07
5.79277e-07
5.33025e-07
5.60923e-07
6.02949e-07
6.18381e-07
5.82966e-07
4.83574e-07
2.44955e-07
5.59728e-07
6.0664e-07
6.34665e-07
6.27578e-07
5.99106e-07
5.62333e-07
5.38323e-07
5.88037e-07
8.16025e-07
1.32968e-06
1.42333e-06
9.42099e-07
7.0946e-07
6.46653e-07
6.61351e-07
6.87171e-07
6.91442e-07
6.58181e-07
5.82194e-07
4.08119e-07
2.14687e-06
1.55406e-06
1.11191e-06
9.20134e-07
8.30665e-07
7.85749e-07
7.77031e-07
8.30342e-07
1.03155e-06
1.55563e-06
1.70514e-06
1.2156e-06
9.98282e-07
9.48125e-07
9.47934e-07
9.63654e-07
1.00119e-06
1.1169e-06
1.45085e-06
2.04118e-06
3.74048e-06
3.18259e-06
2.13975e-06
1.67952e-06
1.56232e-06
1.60078e-06
1.6824e-06
1.75942e-06
1.82435e-06
2.00759e-06
2.12808e-06
2.03735e-06
2.04556e-06
1.99262e-06
1.87326e-06
1.75615e-06
1.78226e-06
2.15925e-06
3.17829e-06
3.78162e-06
5.27247e-06
4.8278e-06
4.30947e-06
4.00386e-06
4.47723e-06
5.10649e-06
5.46367e-06
5.31972e-06
4.64168e-06
3.83952e-06
3.89754e-06
4.86978e-06
5.72473e-06
5.95953e-06
5.56005e-06
4.79098e-06
4.14379e-06
4.31209e-06
4.86938e-06
5.38413e-06
7.03976e-06
7.89878e-06
1.09715e-05
1.40307e-05
1.75174e-05
2.06137e-05
2.20761e-05
2.15829e-05
1.90462e-05
1.56997e-05
1.5836e-05
1.92642e-05
2.19185e-05
2.25624e-05
2.11441e-05
1.79647e-05
1.42734e-05
1.11267e-05
8.03092e-06
7.22803e-06
8.62264e-06
1.23127e-05
1.60415e-05
1.9695e-05
2.33487e-05
2.64448e-05
2.90995e-05
3.15014e-05
3.36655e-05
3.52968e-05
3.55977e-05
3.39845e-05
3.18598e-05
2.95056e-05
2.6881e-05
2.37854e-05
2.01092e-05
1.64283e-05
1.2654e-05
8.87889e-06
3.06143e-07
5.0498e-07
6.66362e-07
7.91192e-07
8.99245e-07
1.01053e-06
1.16671e-06
1.40751e-06
1.85736e-06
2.54791e-06
2.51461e-06
1.83361e-06
1.42322e-06
1.18531e-06
1.01959e-06
8.7862e-07
7.4652e-07
6.04486e-07
4.46898e-07
2.68004e-07
2.40204e-07
3.51829e-07
4.79427e-07
5.76768e-07
6.07978e-07
5.97485e-07
6.15821e-07
7.48567e-07
1.12008e-06
1.76689e-06
1.70923e-06
1.10557e-06
7.72005e-07
6.28789e-07
6.00761e-07
6.07601e-07
5.62458e-07
4.49398e-07
3.24225e-07
2.20387e-07
2.86379e-07
3.80914e-07
5.1253e-07
5.52067e-07
5.13336e-07
4.50758e-07
4.46324e-07
5.70293e-07
9.86292e-07
1.92939e-06
1.89521e-06
1.03215e-06
6.4342e-07
5.07976e-07
4.81781e-07
5.10825e-07
5.23943e-07
4.70269e-07
3.52468e-07
2.43141e-07
3.58888e-07
5.16282e-07
5.67257e-07
5.51464e-07
5.14421e-07
4.73823e-07
4.76035e-07
6.02031e-07
1.06975e-06
2.29118e-06
2.31463e-06
1.18552e-06
7.29763e-07
5.78145e-07
5.33058e-07
5.35505e-07
5.38053e-07
5.1094e-07
4.51526e-07
2.88333e-07
8.6798e-07
6.4059e-07
6.01603e-07
5.75712e-07
5.51145e-07
5.38323e-07
5.71305e-07
7.3102e-07
1.26142e-06
2.71904e-06
2.83235e-06
1.45997e-06
9.2407e-07
7.28299e-07
6.42876e-07
6.145e-07
5.98431e-07
5.85328e-07
5.90768e-07
7.35111e-07
2.44214e-06
1.7164e-06
1.11716e-06
8.65171e-07
7.7764e-07
7.77031e-07
8.36786e-07
1.02975e-06
1.58012e-06
3.13801e-06
3.36147e-06
1.88322e-06
1.31788e-06
1.07304e-06
9.3901e-07
8.74988e-07
8.95246e-07
1.07678e-06
1.60281e-06
2.36732e-06
3.99221e-06
3.2715e-06
2.09473e-06
1.6092e-06
1.53363e-06
1.6824e-06
1.91878e-06
2.14179e-06
2.53603e-06
3.7695e-06
4.02012e-06
2.89231e-06
2.51936e-06
2.28016e-06
1.96314e-06
1.68764e-06
1.65506e-06
2.05791e-06
3.20687e-06
4.00027e-06
5.54161e-06
4.89073e-06
3.84157e-06
3.85316e-06
4.58966e-06
5.46367e-06
5.99315e-06
5.89609e-06
5.4097e-06
5.65818e-06
5.857e-06
5.77831e-06
6.38783e-06
6.51875e-06
5.8893e-06
4.83901e-06
3.93072e-06
3.80334e-06
4.88656e-06
5.61526e-06
7.39412e-06
7.97844e-06
1.09937e-05
1.41722e-05
1.86046e-05
2.20761e-05
2.33462e-05
2.21471e-05
1.94208e-05
1.84539e-05
1.86819e-05
1.97045e-05
2.2382e-05
2.36792e-05
2.24787e-05
1.89301e-05
1.42914e-05
1.10159e-05
8.04573e-06
7.53192e-06
9.06305e-06
1.29823e-05
1.6979e-05
2.10793e-05
2.52332e-05
2.90995e-05
3.2893e-05
3.69597e-05
4.15731e-05
4.6519e-05
4.69925e-05
4.19946e-05
3.73575e-05
3.32906e-05
2.94928e-05
2.56001e-05
2.14013e-05
1.72772e-05
1.32544e-05
9.27737e-06
3.23175e-07
5.29921e-07
7.27989e-07
8.87564e-07
1.03957e-06
1.20873e-06
1.40751e-06
1.68119e-06
2.43934e-06
3.55026e-06
3.42465e-06
2.40626e-06
1.71163e-06
1.4085e-06
1.1977e-06
1.01412e-06
8.41879e-07
6.70225e-07
4.86121e-07
2.84898e-07
2.5129e-07
3.66062e-07
4.56053e-07
5.08256e-07
5.47297e-07
6.11474e-07
7.48567e-07
1.13609e-06
2.07877e-06
4.26971e-06
4.00415e-06
1.94569e-06
1.09622e-06
7.69837e-07
6.25813e-07
5.50309e-07
4.88179e-07
4.22363e-07
3.54988e-07
2.47037e-07
3.58019e-07
3.87775e-07
4.28185e-07
4.49728e-07
4.43981e-07
4.65762e-07
5.70293e-07
9.45702e-07
2.38894e-06
7.08958e-06
6.70539e-06
2.33066e-06
1.01087e-06
6.47535e-07
5.20201e-07
4.61503e-07
4.22392e-07
3.78336e-07
3.47151e-07
3.42634e-07
5.75585e-07
5.48054e-07
5.61721e-07
5.30669e-07
4.93328e-07
4.9976e-07
6.02031e-07
1.03216e-06
3.03614e-06
1.0307e-05
9.93642e-06
3.09189e-06
1.1876e-06
7.35432e-07
5.85227e-07
5.22273e-07
5.01833e-07
4.93925e-07
4.8413e-07
5.08762e-07
1.19705e-06
8.06567e-07
6.47138e-07
5.85221e-07
5.58176e-07
5.88037e-07
7.3102e-07
1.25668e-06
3.8109e-06
1.32054e-05
1.30466e-05
4.04448e-06
1.51243e-06
9.2427e-07
7.08332e-07
6.11643e-07
5.9053e-07
6.17489e-07
7.55328e-07
1.10985e-06
2.58333e-06
1.8233e-06
1.18985e-06
8.92364e-07
7.95096e-07
8.30342e-07
1.02975e-06
1.66566e-06
4.5759e-06
1.52042e-05
1.54567e-05
5.05519e-06
2.04931e-06
1.30291e-06
9.79034e-07
8.67568e-07
8.97385e-07
1.13903e-06
1.73281e-06
2.53162e-06
3.97382e-06
3.11621e-06
2.03624e-06
1.57864e-06
1.52881e-06
1.75942e-06
2.14179e-06
2.87166e-06
5.79488e-06
1.55946e-05
1.60968e-05
6.43301e-06
3.34082e-06
2.48005e-06
1.98834e-06
1.62512e-06
1.57914e-06
1.96924e-06
3.02211e-06
3.96685e-06
5.44464e-06
4.49938e-06
3.39423e-06
3.53533e-06
4.36489e-06
5.31972e-06
5.89609e-06
6.07853e-06
7.84811e-06
1.58718e-05
1.63432e-05
8.42512e-06
6.57595e-06
6.30844e-06
5.59389e-06
4.47675e-06
3.52068e-06
3.3091e-06
4.45465e-06
5.48857e-06
7.26176e-06
7.2868e-06
9.6253e-06
1.31435e-05
1.81111e-05
2.15829e-05
2.21471e-05
2.04164e-05
2.04041e-05
2.73486e-05
2.7688e-05
2.08496e-05
2.06864e-05
2.23391e-05
2.17938e-05
1.82294e-05
1.30788e-05
9.48165e-06
7.27981e-06
7.34814e-06
9.11493e-06
1.30913e-05
1.72187e-05
2.16814e-05
2.65264e-05
3.15014e-05
3.69597e-05
4.36457e-05
5.25747e-05
6.39266e-05
6.46304e-05
5.31497e-05
4.41106e-05
3.73563e-05
3.18487e-05
2.68145e-05
2.1901e-05
1.74196e-05
1.32866e-05
9.28247e-06
3.39617e-07
5.43638e-07
7.74704e-07
9.81825e-07
1.19309e-06
1.46174e-06
1.85736e-06
2.43934e-06
2.90922e-06
3.26917e-06
3.22389e-06
2.96424e-06
2.38503e-06
1.79833e-06
1.43827e-06
1.16851e-06
9.44221e-07
7.30966e-07
5.13855e-07
3.0785e-07
2.4797e-07
3.54914e-07
4.66721e-07
5.362e-07
6.00975e-07
7.4474e-07
1.12008e-06
2.07877e-06
4.37836e-06
1.17406e-05
1.13299e-05
4.17835e-06
1.93594e-06
1.09659e-06
7.66885e-07
6.09747e-07
5.25307e-07
4.52062e-07
3.69137e-07
2.49049e-07
3.41057e-07
3.87484e-07
4.31698e-07
4.71314e-07
5.1913e-07
6.39121e-07
9.86292e-07
2.38894e-06
8.64183e-06
3.21811e-05
3.12591e-05
8.26535e-06
2.34205e-06
1.04304e-06
6.97852e-07
5.48966e-07
4.6555e-07
4.14514e-07
3.87434e-07
3.85882e-07
6.91944e-07
5.87236e-07
5.65128e-07
5.66553e-07
5.86435e-07
6.91626e-07
1.06975e-06
3.03614e-06
1.39731e-05
5.23252e-05
5.09907e-05
1.35543e-05
3.11878e-06
1.20479e-06
7.92887e-07
6.39887e-07
5.69076e-07
5.41119e-07
5.60291e-07
6.65395e-07
1.33379e-06
9.40845e-07
7.6162e-07
6.99062e-07
7.03879e-07
8.16025e-07
1.26142e-06
3.8109e-06
1.93956e-05
6.83925e-05
6.72532e-05
1.92507e-05
4.07341e-06
1.47389e-06
9.5966e-07
7.88788e-07
7.33022e-07
7.55729e-07
9.13778e-07
1.2729e-06
2.43885e-06
1.76094e-06
1.25231e-06
9.96774e-07
9.1834e-07
1.03155e-06
1.58012e-06
4.5759e-06
2.2615e-05
7.60846e-05
7.5599e-05
2.31433e-05
5.06043e-06
1.86647e-06
1.20338e-06
1.00709e-06
1.02379e-06
1.22562e-06
1.68819e-06
2.38138e-06
3.61306e-06
2.71119e-06
1.87853e-06
1.5324e-06
1.52894e-06
1.82435e-06
2.53603e-06
5.79488e-06
2.35763e-05
7.50667e-05
7.52225e-05
2.44833e-05
6.39223e-06
2.82296e-06
1.96599e-06
1.57756e-06
1.50822e-06
1.79862e-06
2.61425e-06
3.59409e-06
4.92484e-06
3.78035e-06
2.79527e-06
2.95534e-06
3.72771e-06
4.64168e-06
5.4097e-06
7.84811e-06
2.34727e-05
6.68644e-05
6.72657e-05
2.43381e-05
8.37678e-06
5.66331e-06
4.72873e-06
3.69888e-06
2.86391e-06
2.68563e-06
3.7369e-06
4.94855e-06
6.57778e-06
6.00117e-06
7.2366e-06
1.06964e-05
1.57244e-05
1.90462e-05
1.94208e-05
2.04041e-05
3.06403e-05
5.52825e-05
5.57719e-05
3.12845e-05
2.08473e-05
1.96626e-05
1.91794e-05
1.57048e-05
1.05222e-05
7.0139e-06
5.97211e-06
6.6421e-06
8.68732e-06
1.25439e-05
1.66582e-05
2.1402e-05
2.71589e-05
3.36655e-05
4.15731e-05
5.25747e-05
6.92817e-05
9.12359e-05
9.22239e-05
7.01109e-05
5.31826e-05
4.20166e-05
3.40002e-05
2.73963e-05
2.15425e-05
1.67721e-05
1.26668e-05
8.80814e-06
3.51661e-07
5.52993e-07
8.12971e-07
1.07725e-06
1.3568e-06
1.73793e-06
2.54791e-06
3.55026e-06
3.26917e-06
3.20593e-06
3.15162e-06
3.19099e-06
3.35058e-06
2.46582e-06
1.70847e-06
1.33714e-06
1.05011e-06
7.814e-07
5.28796e-07
3.28403e-07
2.54519e-07
3.18573e-07
4.71964e-07
6.04439e-07
7.25498e-07
9.7e-07
1.76689e-06
4.26971e-06
1.17406e-05
1.23673e-05
1.27975e-05
1.13672e-05
3.97232e-06
1.67605e-06
9.72212e-07
7.32082e-07
6.03332e-07
4.65931e-07
3.22057e-07
2.36185e-07
2.19601e-07
3.2821e-07
4.43071e-07
5.62692e-07
6.90121e-07
9.47298e-07
1.92939e-06
7.08958e-06
3.21811e-05
2.22562e-05
2.38911e-05
3.15384e-05
6.75076e-06
1.89364e-06
9.69541e-07
7.13419e-07
5.73425e-07
4.44959e-07
3.34715e-07
2.47359e-07
5.49375e-07
5.21144e-07
6.01583e-07
7.17462e-07
8.40436e-07
1.0952e-06
2.29118e-06
1.0307e-05
5.23252e-05
3.35355e-05
3.63562e-05
5.14813e-05
1.0066e-05
2.33317e-06
1.15556e-06
8.85877e-07
7.40924e-07
6.09338e-07
5.24208e-07
5.50141e-07
1.11085e-06
9.01313e-07
9.07084e-07
9.90929e-07
1.08382e-06
1.32968e-06
2.71904e-06
1.32054e-05
6.83925e-05
4.57699e-05
4.9277e-05
6.77588e-05
1.32126e-05
2.84982e-06
1.43352e-06
1.16659e-06
1.04575e-06
9.29121e-07
8.93651e-07
1.06348e-06
1.93631e-06
1.48693e-06
1.29029e-06
1.23672e-06
1.2793e-06
1.55563e-06
3.13801e-06
1.52042e-05
7.60846e-05
5.70067e-05
6.0493e-05
7.59475e-05
1.55621e-05
3.34598e-06
1.68875e-06
1.38157e-06
1.2975e-06
1.29655e-06
1.44555e-06
1.89838e-06
2.91416e-06
2.12451e-06
1.58871e-06
1.44792e-06
1.56163e-06
2.00759e-06
3.7695e-06
1.55946e-05
7.50667e-05
6.45473e-05
6.75029e-05
7.53847e-05
1.61047e-05
3.95115e-06
2.06719e-06
1.57355e-06
1.42278e-06
1.52995e-06
2.06264e-06
2.9204e-06
4.01087e-06
2.95548e-06
2.11825e-06
2.23832e-06
2.88075e-06
3.83952e-06
5.65818e-06
1.58718e-05
6.68644e-05
6.58272e-05
6.80025e-05
6.73844e-05
1.63494e-05
5.77793e-06
3.82516e-06
2.81914e-06
2.16528e-06
2.05498e-06
2.95923e-06
4.0443e-06
5.35749e-06
4.41448e-06
4.57573e-06
7.64561e-06
1.19605e-05
1.56997e-05
1.84539e-05
2.73486e-05
5.52825e-05
6.76585e-05
6.91231e-05
5.58947e-05
2.77388e-05
1.86586e-05
1.58205e-05
1.19903e-05
7.5816e-06
4.52922e-06
4.41697e-06
5.38905e-06
7.48687e-06
1.11271e-05
1.496e-05
2.00328e-05
2.68593e-05
3.52968e-05
4.6519e-05
6.39266e-05
9.12359e-05
0.000112149
0.000113476
9.23873e-05
6.47745e-05
4.70754e-05
3.56698e-05
2.70977e-05
2.015e-05
1.50144e-05
1.11717e-05
7.52245e-06
3.45828e-07
5.54484e-07
8.10608e-07
1.07049e-06
1.35365e-06
1.73853e-06
2.51461e-06
3.42465e-06
3.22389e-06
3.15162e-06
3.13818e-06
3.20079e-06
3.45055e-06
2.43855e-06
1.67483e-06
1.32261e-06
1.05422e-06
8.00304e-07
5.47669e-07
3.42166e-07
2.56177e-07
3.46893e-07
4.87521e-07
6.11361e-07
7.33153e-07
9.77959e-07
1.70923e-06
4.00415e-06
1.13299e-05
1.27975e-05
1.21022e-05
1.19255e-05
4.28138e-06
1.69957e-06
9.31676e-07
7.03001e-07
5.91583e-07
4.70989e-07
3.25708e-07
2.50588e-07
2.65772e-07
3.58477e-07
4.60262e-07
5.74458e-07
7.0529e-07
9.63661e-07
1.89521e-06
6.70539e-06
3.12591e-05
2.38911e-05
2.13563e-05
3.33773e-05
7.18052e-06
1.86017e-06
9.02167e-07
6.60102e-07
5.46403e-07
4.44732e-07
3.42069e-07
2.37079e-07
5.86027e-07
5.51661e-07
6.23697e-07
7.36271e-07
8.70866e-07
1.14198e-06
2.31463e-06
9.93642e-06
5.09907e-05
3.63562e-05
3.1817e-05
5.46729e-05
1.04293e-05
2.20089e-06
1.03216e-06
7.92008e-07
6.88531e-07
6.00517e-07
5.44812e-07
5.8977e-07
1.09668e-06
9.23073e-07
9.40801e-07
1.03496e-06
1.14883e-06
1.42333e-06
2.83235e-06
1.30466e-05
6.72532e-05
4.9277e-05
4.33123e-05
7.11537e-05
1.32873e-05
2.61228e-06
1.24997e-06
1.0116e-06
9.35249e-07
8.87616e-07
9.21386e-07
1.15665e-06
1.91547e-06
1.47654e-06
1.32082e-06
1.30978e-06
1.38917e-06
1.70514e-06
3.36147e-06
1.54567e-05
7.5599e-05
6.0493e-05
5.41399e-05
7.85073e-05
1.52466e-05
3.03912e-06
1.48348e-06
1.21275e-06
1.18581e-06
1.2684e-06
1.50575e-06
1.99012e-06
2.91425e-06
2.09466e-06
1.57174e-06
1.46422e-06
1.62312e-06
2.12808e-06
4.02012e-06
1.60968e-05
7.52225e-05
6.75029e-05
6.16585e-05
7.68817e-05
1.569e-05
3.73959e-06
1.99973e-06
1.56759e-06
1.46099e-06
1.61608e-06
2.17654e-06
2.97533e-06
4.01937e-06
2.95093e-06
2.08258e-06
2.20367e-06
2.87247e-06
3.89754e-06
5.857e-06
1.63432e-05
6.72657e-05
6.80025e-05
6.34594e-05
6.80774e-05
1.60424e-05
5.69599e-06
3.90654e-06
2.96046e-06
2.30453e-06
2.16146e-06
2.99406e-06
4.08204e-06
5.35473e-06
4.39489e-06
4.51074e-06
7.58515e-06
1.19908e-05
1.5836e-05
1.86819e-05
2.7688e-05
5.57719e-05
6.91231e-05
6.60623e-05
5.5778e-05
2.7538e-05
1.85159e-05
1.58802e-05
1.22375e-05
7.87394e-06
4.72788e-06
4.52673e-06
5.44506e-06
7.49758e-06
1.11395e-05
1.4976e-05
2.00994e-05
2.70251e-05
3.55977e-05
4.69925e-05
6.46304e-05
9.22239e-05
0.000113476
0.000109618
9.05555e-05
6.37395e-05
4.64916e-05
3.53989e-05
2.70635e-05
2.0268e-05
1.51729e-05
1.12697e-05
7.57293e-06
3.25993e-07
5.46537e-07
7.60947e-07
9.6375e-07
1.18634e-06
1.46391e-06
1.83361e-06
2.40626e-06
2.96424e-06
3.19099e-06
3.20079e-06
2.65114e-06
2.25151e-06
1.79022e-06
1.43095e-06
1.18113e-06
9.74781e-07
7.75798e-07
5.49801e-07
3.30608e-07
2.78053e-07
4.00631e-07
4.74511e-07
5.31106e-07
6.09247e-07
7.66187e-07
1.10557e-06
1.94569e-06
4.17835e-06
1.13672e-05
1.19255e-05
4.34343e-06
2.03876e-06
1.07748e-06
7.22232e-07
5.89467e-07
5.32061e-07
4.75106e-07
3.74208e-07
2.55857e-07
4.19022e-07
4.12742e-07
4.29816e-07
4.64052e-07
5.37772e-07
6.84566e-07
1.03215e-06
2.33066e-06
8.26535e-06
3.15384e-05
3.33773e-05
8.77042e-06
2.30744e-06
9.27426e-07
6.07675e-07
5.0269e-07
4.69375e-07
4.46216e-07
4.1092e-07
3.75178e-07
7.03809e-07
5.85756e-07
5.51268e-07
5.6178e-07
6.21354e-07
7.72471e-07
1.18552e-06
3.09189e-06
1.35543e-05
5.14813e-05
5.46729e-05
1.42298e-05
2.91801e-06
9.98979e-07
6.54653e-07
5.66364e-07
5.61871e-07
5.79636e-07
6.11667e-07
7.23203e-07
1.29862e-06
9.34924e-07
7.59454e-07
7.18692e-07
7.6654e-07
9.42099e-07
1.45997e-06
4.04448e-06
1.92507e-05
6.77588e-05
7.11537e-05
1.96427e-05
3.66696e-06
1.18731e-06
7.77776e-07
6.80355e-07
6.86324e-07
7.64376e-07
9.59702e-07
1.36117e-06
2.39764e-06
1.71267e-06
1.23127e-06
1.02089e-06
1.00505e-06
1.2156e-06
1.88322e-06
5.05519e-06
2.31433e-05
7.59475e-05
7.85073e-05
2.27144e-05
4.43405e-06
1.51713e-06
1.00278e-06
8.99186e-07
9.82973e-07
1.24715e-06
1.78243e-06
2.4757e-06
3.59757e-06
2.64666e-06
1.84363e-06
1.55439e-06
1.63886e-06
2.03735e-06
2.89231e-06
6.43301e-06
2.44833e-05
7.53847e-05
7.68817e-05
2.37202e-05
5.73258e-06
2.52101e-06
1.83222e-06
1.54495e-06
1.54741e-06
1.89847e-06
2.75896e-06
3.67689e-06
4.9323e-06
3.74734e-06
2.74084e-06
2.94977e-06
3.82188e-06
4.86978e-06
5.77831e-06
8.42512e-06
2.43381e-05
6.73844e-05
6.80774e-05
2.37344e-05
7.88073e-06
5.4668e-06
4.74197e-06
3.84401e-06
3.05385e-06
2.86414e-06
3.86063e-06
5.01243e-06
6.61346e-06
5.99363e-06
7.09891e-06
1.06378e-05
1.58236e-05
1.92642e-05
1.97045e-05
2.08496e-05
3.12845e-05
5.58947e-05
5.5778e-05
3.08819e-05
2.04614e-05
1.94743e-05
1.9227e-05
1.60532e-05
1.1062e-05
7.52758e-06
6.15739e-06
6.68793e-06
8.78471e-06
1.26592e-05
1.67781e-05
2.15518e-05
2.73892e-05
3.39845e-05
4.19946e-05
5.31497e-05
7.01109e-05
9.23873e-05
9.05555e-05
6.90142e-05
5.24569e-05
4.15596e-05
3.37554e-05
2.73338e-05
2.16118e-05
1.68329e-05
1.26616e-05
8.75561e-06
3.02632e-07
5.13831e-07
6.92709e-07
8.58184e-07
1.03099e-06
1.21695e-06
1.42322e-06
1.71163e-06
2.38503e-06
3.35058e-06
3.45055e-06
2.25151e-06
1.58446e-06
1.35843e-06
1.19349e-06
1.03734e-06
8.86432e-07
7.31179e-07
5.38954e-07
3.12708e-07
2.69533e-07
3.78076e-07
4.41013e-07
5.01227e-07
5.60734e-07
6.33092e-07
7.72005e-07
1.09622e-06
1.93594e-06
3.97232e-06
4.28138e-06
2.03876e-06
1.08488e-06
7.35779e-07
6.09925e-07
5.49537e-07
5.10739e-07
4.64165e-07
3.82975e-07
2.66953e-07
3.61995e-07
3.65272e-07
3.9378e-07
4.30297e-07
4.63178e-07
5.17156e-07
6.4342e-07
1.01087e-06
2.34205e-06