/*--------------------------------*- C++ -*----------------------------------*\
| =========                 |                                                 |
| \\      /  F ield         | OpenFOAM: The Open Source CFD Toolbox           |
|  \\    /   O peration     | Version:  v1912                                 |
|   \\  /    A nd           | Website:  www.openfoam.com                      |
|    \\/     M anipulation  |                                                 |
\*---------------------------------------------------------------------------*/
FoamFile
{
    version     2.0;
    format      ascii;
    class       volScalarField;
    location    "100";
    object      k;
}
// * * * * * * * * * * * * * * * * * * * * * * * * * * * * * * * * * * * * * //

dimensions      [0 2 -2 0 0 0 0];


internalField   nonuniform List<scalar> 
4000
(
2.95845e-05
2.94093e-05
3.07955e-05
3.15427e-05
3.20464e-05
3.25989e-05
3.3495e-05
3.44799e-05
3.52545e-05
3.57745e-05
3.56537e-05
3.49098e-05
3.35187e-05
3.21243e-05
3.11945e-05
3.03216e-05
2.89931e-05
2.67255e-05
2.64805e-05
3.69596e-05
2.81745e-05
2.66045e-05
2.73486e-05
2.78083e-05
2.67649e-05
2.68875e-05
2.76617e-05
2.8374e-05
2.83879e-05
2.91247e-05
2.9529e-05
2.96878e-05
3.04707e-05
2.83366e-05
2.64523e-05
2.6864e-05
2.67337e-05
2.9009e-05
3.55811e-05
5.63018e-05
3.48092e-05
3.06558e-05
2.8673e-05
2.73197e-05
2.48656e-05
2.77805e-05
3.21798e-05
3.70127e-05
3.43165e-05
2.49005e-05
2.84771e-05
4.10829e-05
3.92322e-05
3.13027e-05
2.51441e-05
2.68524e-05
3.11932e-05
3.91214e-05
5.25251e-05
7.08694e-05
6.53857e-05
5.11052e-05
3.99848e-05
3.41821e-05
3.03574e-05
2.92528e-05
3.93406e-05
5.28074e-05
5.7918e-05
4.9004e-05
5.11646e-05
5.99758e-05
5.18761e-05
3.62151e-05
2.91288e-05
3.27605e-05
3.96102e-05
5.0342e-05
7.39507e-05
8.15982e-05
7.97526e-05
7.84779e-05
6.58839e-05
5.07128e-05
4.49412e-05
5.51878e-05
7.15252e-05
8.54823e-05
8.94247e-05
7.8094e-05
7.78419e-05
8.87098e-05
8.20259e-05
6.40338e-05
4.48082e-05
4.27119e-05
5.16255e-05
7.52984e-05
9.02262e-05
9.03567e-05
9.04966e-05
9.72795e-05
0.000102998
0.000107193
0.000112985
0.00012307
0.00013287
0.00013641
0.000129878
0.000110829
0.000110627
0.000129119
0.000134501
0.000128908
0.000116882
0.000102961
0.000106835
0.000110434
0.00010662
9.87758e-05
0.000100874
0.000115778
0.000132294
0.000146727
0.000161041
0.000173309
0.000180552
0.000178941
0.000166808
0.000143954
0.000144367
0.000166766
0.000178837
0.000180266
0.000173385
0.000162365
0.000151117
0.000139528
0.000124128
0.000107985
0.000112345
0.000135427
0.000160628
0.000182779
0.00020196
0.000216301
0.000223079
0.000219421
0.000204163
0.000177275
0.000177706
0.000204579
0.000220612
0.000224892
0.000218893
0.000205775
0.000188262
0.000167592
0.00014276
0.00011882
0.000125854
0.000157175
0.000190456
0.000219337
0.000243883
0.000261516
0.000269636
0.00026532
0.000247253
0.000214776
0.000214698
0.000248365
0.000267456
0.000273
0.000266027
0.000249441
0.000225877
0.000197659
0.000164267
0.000131756
0.000142753
0.000184632
0.000224185
0.000256105
0.000281332
0.000298976
0.000308525
0.000309057
0.000298449
0.000268979
0.000269144
0.000300498
0.000312576
0.000313288
0.000304723
0.000287845
0.000263206
0.000231576
0.000191669
0.000148395
2.94093e-05
3.52518e-05
3.88724e-05
4.13732e-05
4.30571e-05
4.44096e-05
4.61155e-05
4.72773e-05
4.77902e-05
4.82027e-05
4.85082e-05
4.85672e-05
4.73403e-05
4.49843e-05
4.27349e-05
4.04692e-05
3.74542e-05
3.34963e-05
2.88086e-05
2.72931e-05
2.66045e-05
3.6885e-05
4.98433e-05
6.35219e-05
6.53868e-05
5.92046e-05
5.67566e-05
5.6413e-05
5.34076e-05
4.94425e-05
5.18657e-05
5.81453e-05
5.88244e-05
5.66012e-05
5.83346e-05
5.98818e-05
5.20194e-05
4.35858e-05
4.16052e-05
3.63096e-05
3.06558e-05
4.16177e-05
4.79028e-05
5.81178e-05
6.94094e-05
7.36674e-05
5.87499e-05
5.41599e-05
4.97584e-05
4.40246e-05
4.6317e-05
5.25817e-05
5.42248e-05
6.10653e-05
6.72765e-05
6.24508e-05
6.0776e-05
6.68349e-05
7.35227e-05
5.1339e-05
5.11052e-05
6.99488e-05
6.59215e-05
6.16682e-05
6.30908e-05
6.69839e-05
6.86425e-05
6.60751e-05
6.26182e-05
5.6327e-05
5.85254e-05
6.3072e-05
6.44017e-05
6.61004e-05
6.49926e-05
6.67249e-05
7.64928e-05
9.09995e-05
9.7607e-05
7.32945e-05
7.84779e-05
9.70261e-05
9.40773e-05
7.91336e-05
6.94377e-05
6.73943e-05
6.93756e-05
7.6787e-05
8.22089e-05
7.96758e-05
8.12224e-05
8.20805e-05
7.48926e-05
6.83833e-05
6.84461e-05
7.5313e-05
9.11429e-05
0.000110069
0.000108683
8.99087e-05
9.72795e-05
0.000112698
0.000121329
0.000122815
0.000116449
0.00011599
0.000122778
0.000127523
0.000124251
0.000110457
0.00011035
0.000122074
0.000122714
0.000115893
0.000110636
0.000115568
0.000131018
0.000132912
0.000123262
0.000106344
0.000115778
0.000130955
0.000149316
0.000168362
0.000187059
0.00020085
0.000206291
0.000200462
0.00018075
0.000148211
0.000146372
0.000177045
0.000196211
0.000202919
0.000200144
0.000191163
0.000176371
0.000159362
0.000140649
0.000123629
0.000135427
0.000155194
0.000185972
0.00022048
0.000253886
0.000278382
0.000286643
0.000274253
0.000241829
0.000197772
0.0001972
0.000239364
0.000272864
0.000287686
0.000281888
0.00025981
0.000228631
0.000195534
0.000164495
0.000142104
0.000157175
0.000195409
0.000244343
0.000293827
0.000340032
0.000371523
0.000379801
0.000356898
0.000304969
0.000236902
0.000235326
0.00030331
0.000357711
0.000383838
0.000377981
0.000347879
0.000303049
0.000254445
0.000204987
0.000163655
0.000184632
0.000234085
0.000282575
0.000322965
0.000355623
0.000378983
0.000392082
0.000393605
0.000381514
0.000350665
0.0003509
0.000383706
0.000397583
0.000397639
0.000385828
0.000363464
0.000331542
0.000291436
0.000242439
0.000191175
3.07955e-05
3.88724e-05
4.35041e-05
4.6942e-05
5.00435e-05
5.2708e-05
5.54281e-05
5.83637e-05
6.03831e-05
6.20548e-05
6.22956e-05
6.06156e-05
5.76843e-05
5.39594e-05
5.08549e-05
4.75432e-05
4.36559e-05
3.90514e-05
3.31873e-05
2.60903e-05
2.73486e-05
4.98433e-05
5.89969e-05
7.20481e-05
8.2245e-05
8.29691e-05
7.8547e-05
7.52643e-05
7.36291e-05
7.15673e-05
7.30298e-05
7.53557e-05
7.45673e-05
7.60504e-05
7.74709e-05
7.30281e-05
6.13022e-05
5.07353e-05
4.3859e-05
2.86783e-05
2.8673e-05
4.79028e-05
5.67618e-05
6.71483e-05
7.9234e-05
8.81494e-05
8.35833e-05
7.14784e-05
6.60263e-05
6.34862e-05
6.50268e-05
6.71198e-05
6.95518e-05
7.87062e-05
7.92364e-05
7.43921e-05
7.02942e-05
6.97526e-05
6.6263e-05
3.83715e-05
3.99848e-05
6.59215e-05
7.12159e-05
7.18471e-05
7.44096e-05
7.88344e-05
8.14515e-05
8.06782e-05
7.42333e-05
7.30773e-05
7.50712e-05
7.41103e-05
7.66528e-05
7.69158e-05
7.82957e-05
8.17451e-05
8.87027e-05
9.48167e-05
8.96281e-05
4.95224e-05
6.58839e-05
9.40773e-05
9.70133e-05
8.81498e-05
7.99695e-05
7.64152e-05
7.58145e-05
7.78805e-05
8.33876e-05
9.24596e-05
9.50691e-05
8.40224e-05
7.79334e-05
7.74044e-05
8.16951e-05
9.11635e-05
0.000104639
0.00011606
0.000109195
7.4832e-05
0.000102998
0.000121329
0.000126674
0.000121623
0.000110232
0.000103006
0.000101966
0.000104889
0.000108089
0.000111536
0.00011405
0.000107864
0.000103429
0.000101843
0.000106672
0.000119226
0.000136332
0.000140914
0.000132398
0.000110455
0.000132294
0.000149316
0.000162118
0.000171631
0.000171888
0.000167878
0.000165465
0.000162748
0.000153681
0.000134673
0.000133466
0.000151839
0.00016112
0.00016573
0.000171969
0.0001805
0.000183541
0.000174242
0.00015896
0.000139106
0.000160628
0.000185972
0.00022114
0.000257686
0.000285413
0.000292576
0.000278086
0.000258016
0.000224186
0.000179134
0.000176333
0.000220796
0.000257218
0.000280143
0.000297329
0.000294486
0.000268882
0.000232434
0.00019509
0.00016681
0.000190456
0.000244343
0.000322768
0.000408857
0.000487453
0.000537214
0.000549775
0.000509473
0.000419717
0.000301667
0.000297969
0.000413725
0.000509943
0.000556276
0.000547865
0.000499094
0.0004209
0.000334458
0.000254102
0.000196886
0.000224185
0.000282575
0.000337986
0.000384947
0.000423651
0.000452146
0.000469255
0.000473258
0.000461982
0.000428005
0.000428417
0.000464168
0.000477448
0.000475257
0.000459607
0.000432173
0.000394142
0.000347347
0.000291304
0.000231043
3.15427e-05
4.13732e-05
4.6942e-05
5.05874e-05
5.41856e-05
5.79216e-05
6.17214e-05
6.64358e-05
7.07511e-05
7.51587e-05
7.53291e-05
7.09119e-05
6.61388e-05
6.13095e-05
5.7145e-05
5.29373e-05
4.85066e-05
4.34536e-05
3.68754e-05
2.81321e-05
2.78083e-05
6.35219e-05
7.20481e-05
7.95137e-05
8.86265e-05
9.33165e-05
9.13922e-05
8.6783e-05
8.82337e-05
9.2302e-05
9.30634e-05
8.85133e-05
8.6337e-05
8.97925e-05
9.03354e-05
8.3209e-05
7.18669e-05
6.18113e-05
5.1997e-05
2.58486e-05
2.73197e-05
5.81178e-05
6.71483e-05
7.45254e-05
8.34732e-05
9.10396e-05
9.12935e-05
8.28427e-05
8.07935e-05
8.50236e-05
8.62488e-05
8.11413e-05
8.08448e-05
8.59955e-05
8.60286e-05
8.09996e-05
7.54796e-05
7.02411e-05
6.01968e-05
3.06189e-05
3.41821e-05
6.16682e-05
7.18471e-05
7.58786e-05
7.90987e-05
8.25285e-05
8.41062e-05
8.51193e-05
8.58e-05
9.4385e-05
9.62927e-05
8.62256e-05
8.27964e-05
8.3003e-05
8.51406e-05
8.72386e-05
8.93064e-05
8.74434e-05
7.40861e-05
3.85316e-05
5.07128e-05
7.91336e-05
8.81498e-05
8.71432e-05
8.33382e-05
8.05942e-05
7.94429e-05
8.11894e-05
9.02588e-05
0.000111384
0.000115171
9.32828e-05
8.41959e-05
8.4485e-05
8.95886e-05
9.68356e-05
0.000103266
0.000103467
8.92073e-05
5.1008e-05
0.000107193
0.000122815
0.000121623
0.000115647
0.000106802
9.92783e-05
9.55853e-05
9.67478e-05
0.000103353
0.000120588
0.000126592
0.000107466
0.000100866
0.00010239
0.000110169
0.000121586
0.000132172
0.000135756
0.000130686
0.00010814
0.000146727
0.000168362
0.000171631
0.000166146
0.000160801
0.000155338
0.000151508
0.000149784
0.000146514
0.000139667
0.000141114
0.000149764
0.000155175
0.000160441
0.0001682
0.000176137
0.000181688
0.000183278
0.000175988
0.000151176
0.000182779
0.00022048
0.000257686
0.000285615
0.000293814
0.000301323
0.000296551
0.000279486
0.000245329
0.000199418
0.000197217
0.000246353
0.00028673
0.000309191
0.000317123
0.00030991
0.000299184
0.000268491
0.000227928
0.00018766
0.000219337
0.000293827
0.000408857
0.000536085
0.00063983
0.000690965
0.000692537
0.000649683
0.000554812
0.000432833
0.000430046
0.000553834
0.000657154
0.000707082
0.000708167
0.000656065
0.000549888
0.000420518
0.000302524
0.000225148
0.000256105
0.000322965
0.000384947
0.000438427
0.000483771
0.000519056
0.000543109
0.000553628
0.000548678
0.000523874
0.000525263
0.000551513
0.000558353
0.000549635
0.000526877
0.000492423
0.00044746
0.000393991
0.000331293
0.000262707
3.20464e-05
4.30571e-05
5.00435e-05
5.41856e-05
5.78919e-05
6.2129e-05
6.71486e-05
7.36387e-05
8.05176e-05
8.7848e-05
8.81759e-05
8.12094e-05
7.43008e-05
6.76902e-05
6.23291e-05
5.75348e-05
5.2691e-05
4.70603e-05
3.95833e-05
2.93972e-05
2.67649e-05
6.53868e-05
8.2245e-05
8.86265e-05
9.27472e-05
9.60003e-05
9.61209e-05
9.42656e-05
0.000100154
0.000110813
0.000111835
0.000101907
9.62066e-05
9.77305e-05
9.73624e-05
9.22024e-05
8.38474e-05
7.3748e-05
5.91973e-05
2.59081e-05
2.48656e-05
6.94094e-05
7.9234e-05
8.34732e-05
8.73682e-05
9.02439e-05
8.88072e-05
8.63111e-05
9.34684e-05
0.00010702
0.000108822
9.62826e-05
8.78416e-05
8.786e-05
8.86958e-05
8.588e-05
8.11579e-05
7.44071e-05
6.17584e-05
2.62412e-05
3.03574e-05
6.30908e-05
7.44096e-05
7.90987e-05
8.16412e-05
8.3148e-05
8.31619e-05
8.52766e-05
9.56193e-05
0.000116339
0.00011951
0.000100243
8.88013e-05
8.62453e-05
8.75745e-05
8.81319e-05
8.65183e-05
8.00616e-05
6.45318e-05
3.18558e-05
4.49412e-05
6.94377e-05
7.99695e-05
8.33382e-05
8.32319e-05
8.2129e-05
8.14466e-05
8.49172e-05
0.000100138
0.00013136
0.000137465
0.000108083
9.29715e-05
9.07143e-05
9.34043e-05
9.6089e-05
9.56496e-05
8.88148e-05
7.26851e-05
4.18116e-05
0.000112985
0.000116449
0.000110232
0.000106802
0.00010305
9.93658e-05
9.73624e-05
9.98663e-05
0.000110465
0.000138644
0.00014834
0.000121266
0.0001115
0.000111257
0.000115387
0.000119448
0.00012051
0.000117974
0.000115553
0.000105555
0.000161041
0.000187059
0.000171888
0.000160801
0.000158496
0.000158929
0.000159514
0.000160418
0.000160786
0.000162548
0.000167983
0.000172237
0.000176407
0.000179432
0.000180378
0.00017795
0.000175122
0.000179755
0.000190925
0.000162829
0.00020196
0.000253886
0.000285413
0.000293814
0.000315965
0.000337041
0.000343766
0.000330691
0.000294648
0.000246002
0.000246356
0.000303251
0.000349403
0.00036943
0.000364123
0.00033889
0.000308783
0.000293573
0.000258946
0.000205443
0.000243883
0.000340032
0.000487453
0.00063983
0.000743076
0.000811889
0.000839459
0.000813206
0.000725127
0.000591713
0.000593145
0.000731816
0.000829765
0.000863588
0.000837812
0.000765497
0.000654849
0.000497784
0.000347075
0.000248804
0.000281332
0.000355623
0.000423651
0.000483771
0.000538075
0.000582328
0.000614762
0.000637246
0.000648469
0.000643472
0.00064656
0.000652595
0.000642775
0.000621759
0.000590308
0.000546444
0.000492141
0.000431776
0.000363113
0.000287368
3.25989e-05
4.44096e-05
5.2708e-05
5.79216e-05
6.2129e-05
6.67118e-05
7.27629e-05
8.15952e-05
9.23636e-05
0.000103797
0.000104308
9.35159e-05
8.28912e-05
7.40109e-05
6.73295e-05
6.19781e-05
5.65774e-05
5.00643e-05
4.15922e-05
3.02452e-05
2.68875e-05
5.92046e-05
8.29691e-05
9.33165e-05
9.60003e-05
9.69109e-05
9.90526e-05
0.000103431
0.000118023
0.000137216
0.000138708
0.000121761
0.000107011
0.000101121
9.89808e-05
9.71262e-05
9.0414e-05
7.71141e-05
5.62056e-05
2.57392e-05
2.77805e-05
7.36674e-05
8.81494e-05
9.10396e-05
9.02439e-05
8.82225e-05
8.55576e-05
9.12995e-05
0.000110941
0.000137148
0.000139528
0.000116875
9.74745e-05
8.87839e-05
8.82887e-05
8.8598e-05
8.60178e-05
7.88598e-05
6.54443e-05
2.44689e-05
2.92528e-05
6.69839e-05
7.88344e-05
8.25285e-05
8.3148e-05
8.24754e-05
8.21771e-05
8.97097e-05
0.00011216
0.000146858
0.000151923
0.000122135
0.000100127
9.01795e-05
8.78668e-05
8.71652e-05
8.41567e-05
7.66316e-05
6.2791e-05
2.84563e-05
5.51878e-05
6.73943e-05
7.64152e-05
8.05942e-05
8.2129e-05
8.26815e-05
8.44091e-05
9.38055e-05
0.000119096
0.000162263
0.000171293
0.000133995
0.000109499
9.85707e-05
9.50512e-05
9.25482e-05
8.77439e-05
7.91059e-05
6.61269e-05
4.55251e-05
0.00012307
0.00011599
0.000103006
9.92783e-05
9.93658e-05
0.000101078
0.000104733
0.000113136
0.000133402
0.000175043
0.000188401
0.000153708
0.000133676
0.000125341
0.000119833
0.000114091
0.000108136
0.000104943
0.000110626
0.000119074
0.000173309
0.00020085
0.000167878
0.000155338
0.000158929
0.000169532
0.00018064
0.00018966
0.000196393
0.000209153
0.000219353
0.000216907
0.000217588
0.000211071
0.000196593
0.00017844
0.000165921
0.000170634
0.000200231
0.000173861
0.000216301
0.000278382
0.000292576
0.000301323
0.000337041
0.00037429
0.000394267
0.000387007
0.000351801
0.000309725
0.000314655
0.000369271
0.000416339
0.000429614
0.000407371
0.000361296
0.000314006
0.000295652
0.000280699
0.000218653
0.000261516
0.000371523
0.000537214
0.000690965
0.000811889
0.000907573
0.000947239
0.000923213
0.000835414
0.000721654
0.000727628
0.000848096
0.000943197
0.000973568
0.000934988
0.00083451
0.000703936
0.000544813
0.000376508
0.000265461
0.000298976
0.000378983
0.000452146
0.000519056
0.000582328
0.000635144
0.000680104
0.000720128
0.00075522
0.00078053
0.000785485
0.000760476
0.000726097
0.000686977
0.00064261
0.000589886
0.000526169
0.000458899
0.000385325
0.000304239
3.3495e-05
4.61155e-05
5.54281e-05
6.17214e-05
6.71486e-05
7.27629e-05
8.02778e-05
9.11823e-05
0.000110331
0.000137394
0.000136618
0.000110519
9.26207e-05
8.15517e-05
7.35749e-05
6.69757e-05
6.04626e-05
5.28526e-05
4.35748e-05
3.10533e-05
2.76617e-05
5.67566e-05
7.8547e-05
9.13922e-05
9.61209e-05
9.90526e-05
0.000103656
0.000118731
0.000149781
0.000189237
0.000187716
0.000152023
0.000123752
0.000106688
0.0001003
9.66724e-05
8.85451e-05
7.41184e-05
5.37751e-05
2.729e-05
3.21798e-05
5.87499e-05
8.35833e-05
9.12935e-05
8.88072e-05
8.55576e-05
8.8569e-05
0.000104645
0.000141838
0.000200494
0.000201166
0.000149253
0.000114331
9.61561e-05
8.86023e-05
8.72359e-05
8.51122e-05
7.68357e-05
5.76806e-05
3.05639e-05
3.93406e-05
6.86425e-05
8.14515e-05
8.41062e-05
8.31619e-05
8.21771e-05
8.67227e-05
0.000104264
0.000146372
0.00022099
0.000226062
0.000160514
0.000120534
0.000100225
9.01633e-05
8.5796e-05
8.20151e-05
7.52377e-05
6.30603e-05
3.56423e-05
7.15252e-05
6.93756e-05
7.58145e-05
7.94429e-05
8.14466e-05
8.44091e-05
9.28711e-05
0.000113909
0.000160202
0.000246328
0.000257389
0.000181698
0.000137144
0.000112802
9.80449e-05
8.95287e-05
8.25556e-05
7.50384e-05
6.64746e-05
6.49309e-05
0.00013287
0.000122778
0.000101966
9.55853e-05
9.73624e-05
0.000104733
0.000117046
0.00014
0.000184778
0.000272409
0.000289875
0.000214251
0.000171258
0.000144137
0.000123993
0.000109022
0.000100069
0.000100341
0.000116205
0.000130433
0.000180552
0.000206291
0.000165465
0.000151508
0.000159514
0.00018064
0.000206061
0.000228451
0.000256699
0.000317711
0.000334943
0.000287265
0.00026349
0.000240342
0.00020807
0.000175464
0.000157245
0.000163942
0.000202202
0.000180582
0.000223079
0.000286643
0.000278086
0.000296551
0.000343766
0.000394267
0.000425739
0.000425294
0.000404307
0.000411477
0.000423847
0.000430315
0.000459936
0.000462501
0.000424941
0.000363023
0.000303971
0.000277131
0.000285958
0.000224678
0.000269636
0.000379801
0.000549775
0.000692537
0.000839459
0.000947239
0.000983765
0.000943459
0.000855048
0.000812481
0.000822531
0.000871505
0.000961846
0.0010057
0.000969679
0.00085654
0.000699673
0.000551469
0.000381706
0.000272565
0.000308525
0.000392082
0.000469255
0.000543109
0.000614762
0.000680104
0.000742596
0.000806843
0.000876173
0.000947061
0.000954109
0.000882608
0.000813052
0.000748987
0.000686639
0.000620987
0.000548556
0.000474327
0.000397048
0.000312881
3.44799e-05
4.72773e-05
5.83637e-05
6.64358e-05
7.36387e-05
8.15952e-05
9.11823e-05
0.000104072
0.000135514
0.000175327
0.000171832
0.000135301
0.000105352
9.19656e-05
8.19664e-05
7.3411e-05
6.51638e-05
5.62593e-05
4.55567e-05
3.22791e-05
2.8374e-05
5.6413e-05
7.52643e-05
8.6783e-05
9.42656e-05
0.000103431
0.000118731
0.000150339
0.000204354
0.00029835
0.000288736
0.000200651
0.000151207
0.000123557
0.000106217
9.48673e-05
8.43445e-05
7.16491e-05
5.58128e-05
2.87495e-05
3.70127e-05
5.41599e-05
7.14784e-05
8.28427e-05
8.63111e-05
9.12995e-05
0.000104645
0.000136601
0.000218912
0.000409548
0.000397992
0.000222076
0.00014683
0.000114719
9.77027e-05
8.73751e-05
7.91509e-05
6.6609e-05
5.17672e-05
3.76782e-05
5.28074e-05
6.60751e-05
8.06782e-05
8.51193e-05
8.52766e-05
8.97097e-05
0.000104264
0.000141407
0.000250568
0.000524143
0.000516638
0.000262828
0.000160379
0.000121059
0.000100666
8.89126e-05
8.19494e-05
7.4359e-05
6.16815e-05
5.05335e-05
8.54823e-05
7.6787e-05
7.78805e-05
8.11894e-05
8.49172e-05
9.38055e-05
0.000113909
0.000158977
0.00029118
0.00062426
0.000627016
0.000314894
0.00018659
0.000136966
0.000109044
9.21823e-05
8.26023e-05
7.57836e-05
7.32283e-05
8.21728e-05
0.00013641
0.000127523
0.000104889
9.67478e-05
9.98663e-05
0.000113136
0.00014
0.000192757
0.000336589
0.000699782
0.000717718
0.00037366
0.000229529
0.000169447
0.000130948
0.000108827
9.8545e-05
0.000101793
0.000121704
0.000135027
0.000178941
0.000200462
0.000162748
0.000149784
0.000160418
0.00018966
0.000228451
0.000283203
0.000418155
0.000739404
0.00076448
0.000460294
0.000322424
0.000259846
0.000211882
0.000170768
0.000151133
0.000158431
0.00019421
0.00017888
0.000219421
0.000274253
0.000258016
0.000279486
0.000330691
0.000387007
0.000425294
0.00044469
0.000519487
0.000776755
0.000798404
0.000554326
0.000479195
0.000454875
0.000407657
0.000340314
0.000279814
0.000252879
0.000270741
0.000220573
0.00026532
0.000356898
0.000509473
0.000649683
0.000813206
0.000923213
0.000943459
0.000893769
0.000888887
0.00106517
0.00107874
0.000910563
0.00091239
0.000959358
0.000937074
0.000820833
0.000648289
0.000503926
0.000355219
0.000267336
0.000309057
0.000393605
0.000473258
0.000553628
0.000637246
0.000720128
0.000806843
0.000906422
0.0010305
0.0011783
0.00118764
0.00103862
0.000913362
0.000813015
0.000725785
0.000642069
0.000557307
0.000476626
0.00039715
0.000312476
3.52545e-05
4.77902e-05
6.03831e-05
7.07511e-05
8.05176e-05
9.23636e-05
0.000110331
0.000135514
0.000153385
0.000166573
0.000165504
0.0001564
0.000134356
0.000109033
9.23921e-05
8.03417e-05
6.98564e-05
5.8978e-05
4.67224e-05
3.36952e-05
2.83879e-05
5.34076e-05
7.36291e-05
8.82337e-05
0.000100154
0.000118023
0.000149781
0.000204354
0.000302741
0.000558995
0.000550622
0.000295232
0.000199663
0.000151159
0.000121672
0.000101503
8.71335e-05
7.22116e-05
5.48518e-05
2.80798e-05
3.43165e-05
4.97584e-05
6.60263e-05
8.07935e-05
9.34684e-05
0.000110941
0.000141838
0.000218912
0.000460308
0.00108989
0.00107157
0.0004506
0.000222403
0.000149944
0.000117762
9.66501e-05
8.00699e-05
6.44176e-05
5.01718e-05
3.89266e-05
5.7918e-05
6.26182e-05
7.42333e-05
8.58e-05
9.56193e-05
0.00011216
0.000146372
0.000250568
0.000636163
0.001547
0.00152467
0.0006307
0.000263884
0.000161793
0.000123629
0.000101322
8.58301e-05
7.21023e-05
6.08804e-05
5.77575e-05
8.94247e-05
8.22089e-05
8.33876e-05
9.02588e-05
0.000100138
0.000119096
0.000160202
0.00029118
0.000805639
0.0018957
0.00188207
0.000814047
0.000315684
0.00018215
0.000134824
0.000109167
9.3464e-05
8.27297e-05
7.99541e-05
8.74705e-05
0.000129878
0.000124251
0.000108089
0.000103353
0.000110465
0.000133402
0.000184778
0.000336589
0.000915476
0.00207901
0.00208153
0.000947133
0.000372635
0.000211725
0.00015115
0.000119589
0.000105911
0.000105972
0.000119177
0.000128447
0.000166808
0.00018075
0.000153681
0.000146514
0.000160786
0.000196393
0.000256699
0.000418155
0.000977973
0.0021012
0.00211679
0.00102058
0.000456645
0.000280941
0.000209766
0.000165626
0.000144619
0.000147452
0.000173598
0.000166619
0.000204163
0.000241829
0.000224186
0.000245329
0.000294648
0.000351801
0.000404307
0.000519487
0.00101266
0.00198795
0.00200572
0.00105052
0.000550717
0.000422667
0.000359492
0.000293826
0.000239018
0.000215935
0.000237734
0.00020494
0.000247253
0.000304969
0.000419717
0.000554812
0.000725127
0.000835414
0.000855048
0.000888887
0.00117506
0.00174772
0.00176284
0.00119934
0.000909407
0.0008684
0.000842898
0.000724886
0.000546973
0.000408629
0.000301929
0.000248926
0.000298449
0.000381514
0.000461982
0.000548678
0.000648469
0.00075522
0.000876173
0.0010305
0.00124422
0.00150152
0.00151343
0.00125497
0.00103913
0.000882935
0.000760599
0.0006524
0.000550973
0.000463747
0.000383679
0.000300933
3.57745e-05
4.82027e-05
6.20548e-05
7.51587e-05
8.7848e-05
0.000103797
0.000137394
0.000175327
0.000166573
0.000165103
0.000163523
0.000164166
0.000169109
0.00013474
0.000103103
8.74677e-05
7.44513e-05
6.09846e-05
4.71949e-05
3.46643e-05
2.91247e-05
4.94425e-05
7.15673e-05
9.2302e-05
0.000110813
0.000137216
0.000189237
0.00029835
0.000558995
0.000484541
0.00049516
0.000548904
0.000285247
0.000184816
0.000137808
0.000111207
9.17026e-05
7.05634e-05
4.94471e-05
2.80806e-05
2.49005e-05
4.40246e-05
6.34862e-05
8.50236e-05
0.00010702
0.000137148
0.000200494
0.000409548
0.00108989
0.000779537
0.000816991
0.00107326
0.000397387
0.000200089
0.000139331
0.000108732
8.53323e-05
6.3192e-05
4.429e-05
2.70576e-05
4.9004e-05
5.6327e-05
7.30773e-05
9.4385e-05
0.000116339
0.000146858
0.00022099
0.000524143
0.001547
0.00108856
0.0011489
0.00152942
0.000518499
0.000225939
0.00015216
0.000119832
9.57733e-05
7.34158e-05
5.65133e-05
4.92026e-05
7.8094e-05
7.96758e-05
9.24596e-05
0.000111384
0.00013136
0.000162263
0.000246328
0.00062426
0.0018957
0.00140904
0.00147993
0.00188629
0.000629207
0.000256632
0.000170889
0.000137685
0.000114991
9.36092e-05
7.89198e-05
7.63621e-05
0.000110829
0.000110457
0.000111536
0.000120588
0.000138644
0.000175043
0.000272409
0.000699782
0.00207901
0.00170202
0.00176962
0.00208268
0.000717119
0.000286597
0.000185417
0.000145985
0.000124169
0.00011115
0.000107207
0.000110003
0.000143954
0.000148211
0.000134673
0.000139667
0.000162548
0.000209153
0.000317711
0.000739404
0.0021012
0.00191338
0.00196907
0.00211519
0.000760332
0.000328662
0.000213348
0.000162629
0.000136524
0.000129148
0.000142543
0.000144632
0.000177275
0.000197772
0.000179134
0.000199418
0.000246002
0.000309725
0.000411477
0.000776755
0.00198795
0.00198941
0.00202952
0.00200471
0.000794947
0.000418174
0.000309124
0.000241451
0.000193104
0.000173177
0.000196044
0.000178425
0.000214776
0.000236902
0.000301667
0.000432833
0.000591713
0.000721654
0.000812481
0.00106517
0.00174772
0.00203275
0.0020586
0.00176339
0.00107768
0.000820047
0.000725755
0.00059162
0.000428493
0.000297619
0.000235847
0.000215465
0.000268979
0.000350665
0.000428005
0.000523874
0.000643472
0.00078053
0.000947061
0.0011783
0.00150152
0.00173277
0.00174942
0.00151542
0.00118962
0.000955305
0.000786466
0.000647406
0.000525775
0.000428874
0.000351385
0.000269554
3.56537e-05
4.85082e-05
6.22956e-05
7.53291e-05
8.81759e-05
0.000104308
0.000136618
0.000171832
0.000165504
0.000163523
0.000162212
0.00016358
0.000171636
0.000133277
0.000101196
8.63543e-05
7.43054e-05
6.16517e-05
4.79837e-05
3.53342e-05
2.9529e-05
5.18657e-05
7.30298e-05
9.30634e-05
0.000111835
0.000138708
0.000187716
0.000288736
0.000550622
0.00049516
0.000464297
0.000552057
0.000293311
0.000183226
0.000133921
0.000109113
9.15706e-05
7.17465e-05
5.01033e-05
2.8863e-05
2.84771e-05
4.6317e-05
6.50268e-05
8.62488e-05
0.000108822
0.000139528
0.000201166
0.000397992
0.00107157
0.000816991
0.00073903
0.00109853
0.00040512
0.000193761
0.000133045
0.000104535
8.38468e-05
6.36897e-05
4.50258e-05
2.63277e-05
5.11646e-05
5.85254e-05
7.50712e-05
9.62927e-05
0.00011951
0.000151923
0.000226062
0.000516638
0.00152467
0.0011489
0.00102751
0.00157086
0.000518298
0.000212866
0.000141326
0.000112311
9.21453e-05
7.29312e-05
5.78155e-05
5.14235e-05
7.78419e-05
8.12224e-05
9.50691e-05
0.000115171
0.000137465
0.000171293
0.000257389
0.000627016
0.00188207
0.00147993
0.00133249
0.0019222
0.000616076
0.000237575
0.000155712
0.000125583
0.000106997
9.06126e-05
8.02319e-05
8.022e-05
0.000110627
0.00011035
0.00011405
0.000126592
0.00014834
0.000188401
0.000289875
0.000717718
0.00208153
0.00176962
0.00161955
0.0020994
0.000691881
0.000264972
0.000169569
0.000133661
0.000116687
0.00010935
0.000110275
0.000112851
0.000144367
0.000146372
0.000133466
0.000141114
0.000167983
0.000219353
0.000334943
0.00076448
0.00211679
0.00196907
0.00183456
0.00211491
0.000735788
0.000315369
0.000208764
0.000163038
0.000140351
0.000135797
0.000149813
0.000146023
0.000177706
0.0001972
0.000176333
0.000197217
0.000246356
0.000314655
0.000423847
0.000798404
0.00200572
0.00202952
0.00192545
0.00199627
0.000777538
0.000413445
0.000314301
0.000251382
0.000203951
0.000182004
0.000198481
0.000179408
0.000214698
0.000235326
0.000297969
0.000430046
0.000593145
0.000727628
0.000822531
0.00107874
0.00176284
0.0020586
0.0019898
0.0017479
0.00106558
0.000814021
0.000729363
0.000603453
0.000443441
0.000309152
0.000241444
0.000217239
0.000269144
0.0003509
0.000428417
0.000525263
0.00064656
0.000785485
0.000954109
0.00118764
0.00151343
0.00174942
0.00170534
0.00149479
0.00117682
0.000947377
0.000782649
0.000647223
0.000528343
0.000432475
0.000353925
0.000271165
3.49098e-05
4.85672e-05
6.06156e-05
7.09119e-05
8.12094e-05
9.35159e-05
0.000110519
0.000135301
0.0001564
0.000164166
0.00016358
0.000143347
0.000128417
0.000107561
9.10766e-05
8.00316e-05
7.06728e-05
6.06572e-05
4.8204e-05
3.49773e-05
2.96878e-05
5.81453e-05
7.53557e-05
8.85133e-05
0.000101907
0.000121761
0.000152023
0.000200651
0.000295232
0.000548904
0.000552057
0.000294729
0.000197975
0.000144884
0.00011563
9.93534e-05
8.84878e-05
7.51746e-05
5.557e-05
2.85546e-05
4.10829e-05
5.25817e-05
6.71198e-05
8.11413e-05
9.62826e-05
0.000116875
0.000149253
0.000222076
0.0004506
0.00107326
0.00109853
0.000454266
0.000209235
0.000135483
0.00010757
9.20714e-05
8.12764e-05
6.81619e-05
5.21845e-05
3.67079e-05
5.99758e-05
6.3072e-05
7.41103e-05
8.62256e-05
0.000100243
0.000122135
0.000160514
0.000262828
0.0006307
0.00152942
0.00157086
0.000630062
0.00023871
0.000139209
0.000108224
9.36601e-05
8.57702e-05
7.61707e-05
6.48545e-05
5.96406e-05
8.87098e-05
8.20805e-05
8.40224e-05
9.32828e-05
0.000108083
0.000133995
0.000181698
0.000314894
0.000814047
0.00188629
0.0019222
0.000797162
0.000278672
0.000153381
0.000115413
9.80519e-05
8.94303e-05
8.3881e-05
8.33196e-05
9.06913e-05
0.000129119
0.000122074
0.000107864
0.000107466
0.000121266
0.000153708
0.000214251
0.00037366
0.000947133
0.00208268
0.0020994
0.000904516
0.000325905
0.000179874
0.000131267
0.000109281
0.000102579
0.000107635
0.00012472
0.000131353
0.000166766
0.000177045
0.000151839
0.000149764
0.000172237
0.000216907
0.000287265
0.000460294
0.00102058
0.00211519
0.00211491
0.000971765
0.000413792
0.000256568
0.000198025
0.000162825
0.000148042
0.00015489
0.000182308
0.000168948
0.000204579
0.000239364
0.000220796
0.000246353
0.000303251
0.000369271
0.000430315
0.000554326
0.00105052
0.00200471
0.00199627
0.00101267
0.000520572
0.000409197
0.000359478
0.000303047
0.0002524
0.000229131
0.000245279
0.000206718
0.000248365
0.00030331
0.000413725
0.000553834
0.000731816
0.000848096
0.000871505
0.000910563
0.00119934
0.00176339
0.0017479
0.00117535
0.000889291
0.00085883
0.000845032
0.000740008
0.000571036
0.000432952
0.000311788
0.000250218
0.000300498
0.000383706
0.000464168
0.000551513
0.000652595
0.000760476
0.000882608
0.00103862
0.00125497
0.00151542
0.00149479
0.0012419
0.00102973
0.000876574
0.000757049
0.000651663
0.00055262
0.000465577
0.000384153
0.000300127
3.35187e-05
4.73403e-05
5.76843e-05
6.61388e-05
7.43008e-05
8.28912e-05
9.26207e-05
0.000105352
0.000134356
0.000169109
0.000171636
0.000128417
9.97571e-05
8.91768e-05
8.09489e-05
7.36233e-05
6.66041e-05
5.87724e-05
4.79444e-05
3.41049e-05
3.04707e-05
5.88244e-05
7.45673e-05
8.6337e-05
9.62066e-05
0.000107011
0.000123752
0.000151207
0.000199663
0.000285247
0.000293311
0.000197975
0.000144459
0.000116431
0.000102918
9.45826e-05
8.75231e-05
7.69502e-05
5.88301e-05
2.9246e-05
3.92322e-05
5.42248e-05
6.95518e-05
8.08448e-05
8.78416e-05
9.74745e-05
0.000114331
0.00014683
0.000222403
0.000397387
0.00040512
0.000209235
0.000129231
0.00010102
8.97909e-05
8.58275e-05
8.38168e-05
7.38656e-05
5.69161e-05
3.85214e-05
5.18761e-05
6.44017e-05
7.66528e-05