/*--------------------------------*- C++ -*----------------------------------*\
| =========                 |                                                 |
| \\      /  F ield         | OpenFOAM: The Open Source CFD Toolbox           |
|  \\    /   O peration     | Version:  v1912                                 |
|   \\  /    A nd           | Website:  www.openfoam.com                      |
|    \\/     M anipulation  |                                                 |
\*---------------------------------------------------------------------------*/
FoamFile
{
    version     2.0;
    format      ascii;
    class       volScalarField;
    location    "100";
    object      nut;
}
// * * * * * * * * * * * * * * * * * * * * * * * * * * * * * * * * * * * * * //

dimensions      [0 2 -1 0 0 0 0];


internalField   nonuniform List<scalar> 
4000
(
0.000205651
0.00032272
0.000324721
0.00032349
0.000323629
0.000325678
0.000329821
0.000331083
0.000329368
0.000327542
0.00033082
0.000336456
0.00033412
0.000328919
0.000325303
0.000325557
0.000325467
0.000299035
0.000194271
0.000213715
0.000271384
0.000297874
0.000306614
0.00029868
0.000281459
0.000285481
0.000286695
0.000288343
0.00029249
0.000299949
0.000306338
0.000285281
0.000310024
0.000311503
0.000291179
0.00029321
0.000280766
0.000237888
0.000218543
0.000323754
0.000177495
0.000239861
0.000267467
0.000276969
0.000265149
0.000302468
0.000325438
0.000344379
0.000310758
0.000254111
0.000274617
0.000362517
0.000382671
0.000352187
0.000286176
0.000267287
0.000271271
0.000276332
0.000282613
0.00039614
0.000382207
0.000300223
0.000297551
0.000295477
0.000291747
0.000298349
0.000388119
0.000436037
0.000436314
0.000393401
0.000402036
0.00045998
0.000461073
0.000403126
0.000297869
0.000291693
0.000311779
0.000348795
0.000407142
0.000444588
0.000453606
0.000445903
0.000409086
0.00038632
0.000391316
0.000489725
0.000530458
0.000549392
0.000539599
0.00049411
0.000497267
0.000545385
0.000549805
0.000513268
0.000444124
0.000345312
0.000367383
0.000406384
0.00047122
0.000479133
0.000495624
0.000513563
0.000537034
0.000569906
0.000620293
0.000634954
0.000650618
0.000648268
0.000622485
0.000570919
0.000575028
0.000625805
0.000649063
0.000646069
0.000623062
0.00057397
0.000535692
0.000539946
0.000526614
0.000509207
0.000531483
0.000569266
0.000615401
0.000657049
0.000695726
0.000722694
0.000734912
0.000725193
0.00069311
0.000639991
0.000643653
0.000695745
0.000727177
0.000734703
0.00071874
0.000688933
0.000652635
0.000619936
0.000579708
0.000538872
0.000565969
0.000623896
0.000683018
0.000732492
0.000772065
0.000798632
0.000808212
0.000795849
0.000761733
0.000705178
0.000707112
0.000763686
0.00079861
0.00081044
0.000799765
0.000771785
0.000733515
0.000687474
0.000630186
0.00057265
0.000604277
0.000676684
0.000746434
0.000802049
0.000845717
0.00087434
0.000884938
0.000872451
0.000836461
0.00077491
0.000774746
0.000839448
0.000876397
0.000889217
0.000878807
0.000849785
0.00080628
0.000751504
0.00068225
0.000609581
0.000647807
0.000736983
0.000811611
0.000866547
0.00090687
0.000932987
0.000945256
0.00094312
0.000922775
0.00086972
0.000869543
0.000925122
0.0009474
0.000950964
0.00093941
0.000913443
0.000873266
0.000818534
0.000743474
0.000652498
0.00032272
0.000353878
0.000364919
0.000369177
0.000370965
0.000373455
0.00037902
0.000379609
0.000378104
0.000378151
0.000381931
0.000388427
0.00039254
0.000390785
0.000384468
0.000381759
0.000375363
0.000355468
0.000279825
0.000195208
0.000297874
0.00038696
0.000500625
0.000658646
0.000781828
0.000838549
0.00082403
0.000782432
0.000723313
0.000690613
0.000697922
0.000759499
0.000823718
0.000839039
0.00077526
0.000665591
0.000529492
0.000424872
0.000351881
0.000234592
0.000239861
0.000370845
0.000467039
0.000602686
0.000778396
0.000929825
0.000815512
0.0006808
0.000575072
0.000531474
0.000538594
0.000602884
0.000724473
0.000887875
0.000831957
0.000676425
0.00058767
0.000561634
0.000525984
0.000275918
0.000300223
0.000489697
0.000531104
0.000574695
0.000665469
0.000777995
0.000821374
0.00071696
0.00060094
0.000547922
0.000558803
0.000611222
0.000738327
0.000823944
0.000752185
0.000677647
0.000673897
0.00070218
0.000676837
0.00040638
0.000445903
0.000666029
0.000687426
0.000648588
0.000640357
0.000673841
0.000676201
0.000657926
0.00064649
0.000633898
0.000643218
0.000648554
0.000661684
0.000696089
0.000694209
0.000682888
0.000727674
0.000775796
0.000727257
0.000473253
0.000513563
0.000736075
0.000809658
0.000819625
0.00079482
0.000779137
0.000790429
0.000802716
0.000789042
0.000738488
0.000742237
0.000783093
0.000787266
0.000772807
0.000776652
0.000806373
0.000861308
0.000870035
0.000782331
0.000528507
0.000569266
0.00079613
0.000908786
0.00100026
0.00108123
0.00114079
0.00117072
0.00116059
0.00108452
0.000930557
0.000920548
0.00106589
0.00114185
0.00115941
0.00114355
0.00110779
0.00104466
0.000959557
0.000836493
0.000579914
0.000623896
0.000852561
0.000999741
0.00115799
0.00131715
0.00144469
0.001512
0.0015045
0.00139228
0.00119109
0.00118604
0.00137606
0.00149515
0.00151832
0.00146656
0.00135171
0.00120007
0.00104363
0.00088865
0.000629556
0.000676684
0.000907591
0.00107948
0.00126095
0.00143971
0.00157273
0.00162718
0.00157324
0.00139482
0.0011442
0.00113406
0.00138142
0.00157019
0.00163862
0.00159563
0.0014691
0.00129433
0.00111369
0.000937094
0.000681478
0.000736983
0.000828993
0.00090989
0.00097168
0.00101836
0.00104985
0.00106572
0.00106507
0.00104431
0.000994596
0.000994821
0.00104672
0.00106971
0.001072
0.00105721
0.00102644
0.000980432
0.00091897
0.000837576
0.000742306
0.000324721
0.000364919
0.000381563
0.000390812
0.000399047
0.000405824
0.000414947
0.000421117
0.000423583
0.000426303
0.00043087
0.000434567
0.000432322
0.000421869
0.000415049
0.000407646
0.000396706
0.000382132
0.00035013
0.000290875
0.000306614
0.000500625
0.00057839
0.000718357
0.000901746
0.00106689
0.00115819
0.00111791
0.0010454
0.000976705
0.000984576
0.00107703
0.00113472
0.00111021
0.000953598
0.000778225
0.000618636
0.000512237
0.000424751
0.00023531
0.000267467
0.000467039
0.000571517
0.000701313
0.000887032
0.00111408
0.00122677
0.00107389
0.00090886
0.000818706
0.00082684
0.000943325
0.00110562
0.00115006
0.000970019
0.000813692
0.000712675
0.000650668
0.000560536
0.000269238
0.000297551
0.000531104
0.000628761
0.000702741
0.000805367
0.000944975
0.0010526
0.00104288
0.000877593
0.000798935
0.000813234
0.000896678
0.0010428
0.00101577
0.000921475
0.000856094
0.000831259
0.000802803
0.000694741
0.000340412
0.000409086
0.000687426
0.000774117
0.000779399
0.000787719
0.000828052
0.000859877
0.000843535
0.000821688
0.000848202
0.000864616
0.000836625
0.00086881
0.000892507
0.000878643
0.000880006
0.000904514
0.000901273
0.000766345
0.000410599
0.000537034
0.000809658
0.000926199
0.000938017
0.000895782
0.000858805
0.000837605
0.000832165
0.000839647
0.000867739
0.000886314
0.000850433
0.000846035
0.000870049
0.000914564
0.00097496
0.00103858
0.00101588
0.000861552
0.000543858
0.000615401
0.000908786
0.0010656
0.00116796
0.00119835
0.0011854
0.00117632
0.00117069
0.00113154
0.00102744
0.00102001
0.00112548
0.00117343
0.0011968
0.0012321
0.0012718
0.00125292
0.00114005
0.000953464
0.000621267
0.000683018
0.000999741
0.00122725
0.00146052
0.00166476
0.00178771
0.00181172
0.0017652
0.0016182
0.0013634
0.00134372
0.00160082
0.00176926
0.0018395
0.00183931
0.00173471
0.00153169
0.00128818
0.00103921
0.000686899
0.000746434
0.00107948
0.00140049
0.00176775
0.00211901
0.00236739
0.00247439
0.002427
0.00219089
0.00178994
0.00177148
0.00217007
0.00243301
0.00250387
0.00241475
0.00217193
0.00181898
0.00144478
0.00111128
0.000750528
0.000811611
0.00090989
0.000993814
0.00105946
0.00111061
0.00114698
0.00116721
0.00117068
0.0011531
0.00110207
0.00110302
0.00115572
0.00117571
0.00117416
0.00115534
0.00111996
0.00106918
0.0010034
0.000918714
0.000817371
0.00032349
0.000369177
0.000390812
0.000402122
0.000412712
0.000422947
0.000433344
0.000447555
0.000458854
0.000471936
0.000477076
0.000469587
0.000458749
0.00044499
0.000433818
0.000422111
0.00040955
0.000395674
0.000371455
0.000320133
0.00029868
0.000658646
0.000718357
0.000786787
0.000931862
0.0011223
0.00130335
0.00133361
0.00130673
0.00126856
0.00127498
0.00132763
0.00133845
0.00125089
0.00105851
0.0008666
0.000718624
0.000622697
0.000525938
0.000273675
0.000276969
0.000602686
0.000701313
0.000795112
0.000943271
0.00114925
0.00135872
0.00137341
0.00124648
0.00115625
0.00116544
0.00127691
0.00136703
0.00124773
0.00106626
0.000911294
0.000801762
0.000711229
0.000583231
0.000267474
0.000295477
0.000574695
0.000702741
0.000792245
0.000892687
0.00102324
0.00115446
0.00122878
0.00116944
0.00111751
0.00113342
0.0011911
0.00122114
0.00113597
0.00104013
0.000965242
0.000905945
0.000822804
0.000660396
0.000305573
0.00038632
0.000648588
0.000779399
0.000838904
0.000879237
0.000931499
0.000986615
0.00101373
0.00104883
0.00112679
0.00115348
0.00108969
0.00106591
0.00104691
0.00101965
0.00100115
0.000974369
0.000895785
0.000715322
0.000368286
0.000569906
0.000819625
0.000938017
0.00098312
0.00097984
0.00096405
0.000950437
0.000944023
0.00096448
0.00105822
0.00110117
0.00101813
0.00101084
0.00104042
0.00107722
0.00110924
0.00110902
0.00102886
0.000851071
0.00054586
0.000657049
0.00100026
0.00116796
0.00125573
0.00129286
0.00129304
0.00128383
0.00127906
0.00126075
0.00121252
0.00122399
0.00129866
0.00134455
0.00138035
0.0014165
0.00142689
0.00137549
0.00124689
0.0010361
0.000655319
0.000732492
0.00115799
0.00146052
0.00173744
0.00193002
0.00204094
0.00205411
0.00198854
0.00183287
0.00159899
0.00158849
0.0018517
0.00205061
0.00215332
0.0021652
0.00205651
0.00183418
0.00152738
0.001193
0.000733354
0.000802049
0.00126095
0.00176775
0.00234177
0.00281917
0.0030625
0.00304572
0.00289023
0.00258999
0.00220532
0.00219436
0.00259508
0.00293066
0.00311431
0.00314315
0.00289651
0.00240672
0.0018163
0.00129056
0.000805357
0.000866547
0.00097168
0.00105946
0.00112983
0.00118684
0.00123116
0.00125939
0.0012723
0.00126597
0.00123298
0.00123542
0.0012702
0.00127881
0.00126791
0.00124073
0.0011969
0.00113967
0.00106876
0.000979787
0.000872322
0.000323629
0.000370965
0.000399047
0.000412712
0.000424318
0.000437011
0.000451272
0.000469463
0.000489048
0.000511907
0.000516934
0.000500317
0.000481922
0.000462732
0.000447039
0.000433559
0.000420488
0.000404178
0.00037599
0.000321096
0.000281459
0.000781828
0.000901746
0.000931862
0.0010052
0.00116159
0.0013677
0.00146125
0.00150217
0.0015233
0.00153533
0.00153411
0.00148558
0.00137852
0.00116979
0.000995103
0.00087702
0.000791042
0.000662953
0.000290162
0.000265149
0.000778396
0.000887032
0.000943271
0.00103634
0.00119083
0.00138273
0.00151012
0.00151459
0.00149365
0.00151114
0.00155146
0.00149933
0.00134025
0.00116534
0.00102149
0.000913193
0.0008128
0.000668883
0.000264527
0.000291747
0.000665469
0.000805367
0.000892687
0.000980517
0.00108968
0.00120996
0.00132668
0.00140318
0.00144939
0.00147605
0.0014555
0.00136694
0.0012423
0.00113809
0.00104795
0.000958851
0.000842784
0.000662988
0.000289064
0.000391316
0.000640357
0.000787719
0.000879237
0.00094697
0.00101328
0.00108323
0.00116269
0.00128216
0.00143289
0.00148036
0.00137157
0.00126638
0.0011881
0.00113051
0.0010721
0.000991086
0.000861664
0.000665353
0.000345892
0.000620293
0.00079482
0.000895782
0.00097984
0.00103444
0.00106977
0.0010971
0.00112891
0.00119588
0.00135229
0.00142562
0.00131685
0.00126837
0.00125221
0.00123156
0.00118563
0.00109579
0.000956419
0.000795204
0.000586098
0.000695726
0.00108123
0.00119835
0.00129286
0.00138792
0.00145506
0.00149321
0.00151494
0.00152177
0.00152274
0.00156467
0.00162912
0.00167073
0.0016823
0.00165223
0.00156087
0.00141409
0.00125861
0.00109818
0.000691056
0.000772065
0.00131715
0.00166476
0.00193002
0.00215016
0.00228349
0.00231733
0.00225484
0.00209607
0.00189066
0.00190157
0.00216556
0.0023871
0.00249283
0.00247165
0.00231666
0.0020471
0.00172561
0.00134312
0.000772113
0.000845717
0.00143971
0.00211901
0.00281917
0.00322299
0.00338662
0.00340895
0.00328623
0.00300951
0.00263461
0.00264069
0.00304608
0.00336438
0.00351721
0.00350284
0.00332465
0.00289076
0.00216496
0.00146426
0.000848771
0.00090687
0.00101836
0.00111061
0.00118684
0.00125395
0.00130712
0.00134798
0.00137777
0.00139351
0.00138742
0.00139217
0.00139943
0.00138538
0.00135745
0.00131751
0.00126428
0.00119632
0.00111898
0.00102565
0.00091255
0.000325678
0.000373455
0.000405824
0.000422947
0.000437011
0.000452621
0.000471536
0.000495726
0.00052526
0.00055793
0.000563241
0.000537647
0.000508144
0.000480077
0.00046044
0.000445269
0.000430464
0.000410031
0.000377714
0.000320949
0.000285481
0.000838549
0.00106689
0.0011223
0.00116159
0.00127666
0.00147791
0.00157459
0.00168334
0.00174695
0.00177061
0.00174151
0.00162792
0.00151107
0.00131834
0.00117713
0.00107252
0.00096486
0.000760444
0.000289814
0.000302468
0.000929825
0.00111408
0.00114925
0.00119083
0.00129265
0.00146156
0.00161071
0.00173318
0.00178704
0.0018182
0.00179586
0.0016535
0.00146665
0.00129416
0.00116791
0.00106976
0.000967791
0.000813354
0.000286682
0.000298349
0.000777995
0.000944975
0.00102324
0.00108968
0.00117325
0.00128271
0.00144931
0.00163699
0.00177232
0.00181898
0.00173798
0.00155761
0.00137313
0.00123876
0.00113409
0.00103077
0.000906597
0.000733795
0.000297518
0.000489725
0.000673841
0.000828052
0.000931499
0.00101328
0.00109412
0.00119118
0.00134677
0.00156435
0.00178211
0.00185531
0.00171524
0.00152102
0.00135228
0.00122949
0.0011218
0.00100212
0.000855686
0.000675975
0.000457044
0.000634954
0.000779137
0.000858805
0.00096405
0.00106977
0.00117024
0.00127049
0.00138735
0.00155265
0.00177266
0.00187348
0.00174923
0.001611
0.0014913
0.00136337
0.0012157
0.00105116
0.000887436
0.000759168
0.000625164
0.000722694
0.00114079
0.0011854
0.00129304
0.00145506
0.0016159
0.00174559
0.00184003
0.00190276
0.00196109
0.0020349
0.00207837
0.00208305
0.00201222
0.00185686
0.0016318
0.00139019
0.00121359
0.0011353
0.000719398
0.000798632
0.00144469
0.00178771
0.00204094
0.00228349
0.00246909
0.00256058
0.00253391
0.00239973
0.00224863
0.00228624
0.00252014
0.0027251
0.00278733
0.00268623
0.00245213
0.00214152
0.00182439
0.0014563
0.000799166
0.00087434
0.00157273
0.00236739
0.0030625
0.00338662
0.00359625
0.00365796
0.00355415
0.0032979
0.00298544
0.00300895
0.00336032
0.00365289
0.00378086
0.00372105
0.00348888
0.0031245
0.00240089
0.00158864
0.000877452
0.000932987
0.00104985
0.00114698
0.00123116
0.00130712
0.00137293
0.00143056
0.0014816
0.00152477
0.00155341
0.0015599
0.00153155
0.00148932
0.00143953
0.00138259
0.00131664
0.00123908
0.00115368
0.00105602
0.00093824
0.000329821
0.00037902
0.000414947
0.000433344
0.000451272
0.000471536
0.000497129
0.000531633
0.000589851
0.000666795
0.000668021
0.000599528
0.000542483
0.000504984
0.000477832
0.00045949
0.000440733
0.000415901
0.000382389
0.000323829
0.000286695
0.00082403
0.00115819
0.00130335
0.0013677
0.00147791
0.00157027
0.00169489
0.00180263
0.00182408
0.00185543
0.00188138
0.00178536
0.00162917
0.00150709
0.0013843
0.00125453
0.00110018
0.000802711
0.000304134
0.000325438
0.000815512
0.00122677
0.00135872
0.00138273
0.00146156
0.00158181
0.00172815
0.00183579
0.00187511
0.00192174
0.00194244
0.00182843
0.00163815
0.0014665
0.00134079
0.00124435
0.00112986
0.000849535
0.000345782
0.000388119
0.000821374
0.0010526
0.00115446
0.00120996
0.00128271
0.0014219
0.00162516
0.0018025
0.00191836
0.00198708
0.00195595
0.00179177
0.0015637
0.00137255
0.00123713
0.00112513
0.000997111
0.000792633
0.000396533
0.000530458
0.000676201
0.000859877
0.000986615
0.00108323
0.00119118
0.00135874
0.00159746
0.00183113
0.00200841
0.00210512
0.00203515
0.00183185
0.00157242
0.00134575
0.00117394
0.00102499
0.000865784
0.000673189
0.000516171
0.000650618
0.000790429
0.000837605
0.000950437
0.0010971
0.00127049
0.00147348
0.00171302
0.0019447
0.00212829
0.00224975
0.00219374
0.00200294
0.00174252
0.00147356
0.00122256
0.00100671
0.000841531
0.000758241
0.000646781
0.000734912
0.00117072
0.00117632
0.00128383
0.00149321
0.00174559
0.00199163
0.00219306
0.00233849
0.00241004
0.00251157
0.00256782
0.00248016
0.00228001
0.00198478
0.00164187
0.00134457
0.00117543
0.00114745
0.000733676
0.000808212
0.001512
0.00181172
0.00205411
0.00231733
0.00256058
0.00272192
0.00276095
0.00271952
0.00269312
0.00276049
0.00288413
0.00298047
0.00295327
0.00275954
0.00245107
0.00211561
0.00181738
0.00150606
0.000809081
0.000884938
0.00162718
0.00247439
0.00304572
0.00340895
0.00365796
0.00373085
0.0036172
0.0033881
0.00321945
0.00325931
0.00346911
0.00372011
0.00384429
0.00376467
0.00348807
0.00308288
0.00248466
0.0016298
0.000887721
0.000945256
0.00106572
0.00116721
0.00125939
0.00134798
0.00143056
0.00150884
0.00158523
0.00166192
0.00173528
0.00174345
0.00166949
0.00159258
0.0015166
0.00143875
0.00135571
0.00126545
0.00117199
0.00107045
0.000949674
0.000331083
0.000379609
0.000421117
0.000447555
0.000469463
0.000495726
0.000531633
0.000579825
0.000677548
0.000779256
0.000775954
0.000684702
0.00058361
0.000540429
0.000504855
0.00047827
0.000453947
0.000425022
0.00038424
0.000329153
0.000288343
0.000782432
0.00111791
0.00133361
0.00146125
0.00157459
0.00169489
0.0017905
0.00180803
0.00187627
0.00187384
0.00186231
0.00187709
0.00178475
0.00162249
0.00147187
0.00131153
0.0010939
0.000789764
0.000301121
0.000344379
0.0006808
0.00107389
0.00137341
0.00151012
0.00161071
0.00172815
0.0017758
0.00180542
0.00212927
0.00212602
0.00190444
0.00191943
0.00182914
0.00165152
0.00148882
0.00133487
0.00105543
0.000694758
0.0003729
0.000436037
0.00071696
0.00104288
0.00122878
0.00132668
0.00144931
0.00162516
0.00174356
0.0018611
0.0023989
0.0024176
0.00201077
0.00194926
0.00179347
0.0015584
0.0013623
0.00120441
0.00100751
0.000707278
0.000451738
0.000549392
0.000657926
0.000843535
0.00101373
0.00116269
0.00134677
0.00159746
0.00181005
0.00200234
0.00265597
0.00271207
0.00220653
0.00207177
0.0018267
0.00151081
0.00125037
0.00103988
0.000837073
0.000638946
0.000547565
0.000648268
0.000802716
0.000832165
0.000944023
0.00112891
0.00138735
0.00171302
0.0020076
0.00222826
0.0028987
0.00299938
0.00248575
0.00231372
0.00198333
0.00157632
0.0012286
0.000973941
0.000818739
0.000769315
0.000648168
0.000725193
0.00116059
0.00117069
0.00127906
0.00151494
0.00184003
0.00219306
0.00251365
0.00271564
0.00315523
0.00326766
0.00296414
0.00280056
0.00245027
0.00203209
0.00161499
0.00130179
0.00114716
0.00112325
0.000725973
0.000795849
0.0015045
0.0017652
0.00198854
0.00225484
0.00253391
0.00276095
0.00292792
0.00309476
0.00342124
0.00351035
0.00328244
0.00314273
0.00295192
0.00267374
0.0023283
0.0020015
0.00173924
0.00148094
0.000797792
0.000872451
0.00157324
0.002427
0.00289023
0.00328623
0.00355415
0.0036172
0.00352139
0.00348512
0.00373377
0.00378254
0.00357903
0.00362176
0.003708
0.00362624
0.00332644
0.0028921
0.00241042
0.00155997
0.000875348
0.00094312
0.00106507
0.00117068
0.0012723
0.00137777
0.0014816
0.00158523
0.00169419
0.00181787
0.00195467
0.00196414
0.00182666
0.0017021
0.00159248
0.00148857
0.00138368
0.00127634
0.00117371
0.00106841
0.000946698
0.000329368
0.000378104
0.000423583
0.000458854
0.000489048
0.00052526
0.000589851
0.000677548
0.000727829
0.000763865
0.000764682
0.000742684
0.000681181
0.000594962
0.000534161
0.000497154
0.000465137
0.000428278
0.000382342
0.000331924
0.00029249
0.000723313
0.0010454
0.00130673
0.00150217
0.00168334
0.00180263
0.00180803
0.00188396
0.00239534
0.00240836
0.00187743
0.0018533
0.0018753
0.00173738
0.00152072
0.00130077
0.00103814
0.000733563
0.000284935
0.000310758
0.000575072
0.00090886
0.00124648
0.00151459
0.00173318
0.00183579
0.00180542
0.00220665
0.00332207
0.00330605
0.00221088
0.00190076
0.00194
0.0017885
0.00153145
0.00123941
0.000900975
0.000584741
0.000353412
0.000436314
0.00060094
0.000877593
0.00116944
0.00140318
0.00163699
0.0018025
0.0018611
0.00260667
0.00411635
0.00410301
0.00264126
0.00200948
0.00195547
0.0017349
0.00144393
0.00116507
0.000864666
0.000595366
0.000451211
0.000539599
0.00064649
0.000821688
0.00104883
0.00128216
0.00156435
0.00183113
0.00200234
0.00301176
0.00472904
0.00474023
0.00309809
0.00220186
0.00202597
0.00170473
0.00135976
0.00107254
0.000815077
0.000629627
0.00054097
0.000622485
0.000789042
0.000839647
0.00096448
0.00119588
0.00155265
0.0019447
0.00222826
0.00333535
0.00511281
0.00515814
0.0034885
0.00246957
0.00216155
0.00170868
0.00127807
0.00098608
0.000824638
0.000757189
0.000623539
0.00069311
0.00108452
0.00113154
0.00126075
0.00152177
0.00190276
0.00233849
0.00271564
0.00365108
0.00529337
0.00536106
0.00382885
0.00293595
0.00251633
0.00201434
0.001565
0.00124804
0.00108794
0.0010375
0.00069519
0.000761733
0.00139228
0.0016182
0.00183287
0.00209607
0.00239973
0.00271952
0.00309476
0.00393197
0.00531932
0.00538256
0.00408099
0.00325854
0.00283902
0.00245966
0.00210065
0.00179533
0.00156258
0.00136117
0.000763868
0.000836461
0.00139482
0.00219089
0.00258999
0.00300951
0.0032979
0.0033881
0.00348512
0.00405576
0.00497276
0.00501477
0.00413808
0.00357033
0.00345177
0.00333393
0.00301127
0.00255899
0.0021426
0.0013738
0.00083961
0.000922775
0.00104431
0.0011531
0.00126597
0.00139351
0.00152477
0.00166192
0.00181787
0.00201104
0.00222402
0.00223523
0.00202172
0.00182732
0.00166985
0.00153134
0.00139823
0.00126826
0.00115403
0.00104595
0.000925334
0.000327542
0.000378151
0.000426303
0.000471936
0.000511907
0.00055793
0.000666795
0.000779256
0.000763865
0.000765241
0.000763599
0.00076012
0.000768164
0.000662635
0.000559989
0.000514945
0.000475063
0.000428361
0.000379093
0.000329306
0.000299949
0.000690613
0.000976705
0.00126856
0.0015233
0.00174695
0.00182408
0.00187627
0.00239534
0.00170855
0.00172429
0.0023855
0.00184348
0.00183415
0.00175804
0.00152036
0.00125444
0.000961789
0.000683267
0.00030047
0.000254111
0.000531474
0.000818706
0.00115625
0.00149365
0.00178704
0.00187511
0.00212927
0.00332207
0.00245733
0.00251444
0.00328709
0.00210532
0.00190279
0.00180208
0.00149145
0.00114286
0.000807694
0.000527446
0.000266374
0.000393401
0.000547922
0.000798935
0.00111751
0.00144939
0.00177232
0.00191836
0.0023989
0.00411635
0.00318012
0.00326759
0.0040893
0.00240371
0.00196914
0.00180324
0.00145886
0.00111419
0.000796091
0.000548327
0.000396044
0.00049411
0.000633898
0.000848202
0.00112679
0.00143289
0.00178211
0.00200841
0.00265597
0.00472904
0.00390402
0.00400017
0.00472598
0.00269676
0.00207993
0.00183344
0.0014625
0.001138
0.000848805
0.000627258
0.000493481
0.000570919
0.000738488
0.000867739
0.00105822
0.00135229
0.00177266
0.00212829
0.0028987
0.00511281
0.00457345
0.00465907
0.00514012
0.00297412
0.00220934
0.0018322
0.00138832
0.00106945
0.000857579
0.000715583
0.000573676
0.000639991
0.000930557
0.00102744
0.00121252
0.00152274
0.00196109
0.00241004
0.00315523
0.00529337
0.00510468
0.00516944
0.00534142
0.0032307
0.00246047
0.0019817
0.00151271
0.00117903
0.000981167
0.00088657
0.000644662
0.000705178
0.00119109
0.0013634
0.00159899
0.00189066
0.00224863
0.00269312
0.00342124
0.00531932
0.00541112
0.00545137
0.00536766
0.00347871
0.00272386
0.00224832
0.00186116
0.00154992
0.00131346
0.00116888
0.000708455
0.00077491
0.0011442
0.00178994
0.00220532
0.00263461
0.00298544
0.00321945
0.00373377
0.00497276
0.00549651
0.00551775
0.00500687
0.00376821
0.0032437
0.00299642
0.00262722
0.00217957
0.00176011
0.00113339
0.000775324
0.00086972
0.000994596
0.00110207
0.00123298
0.00138742
0.00155341
0.00173528
0.00195467
0.00222402
0.00240949
0.00242732
0.00223717
0.00196632
0.00174475
0.00156063
0.00139208
0.00123471
0.00110254
0.000994691
0.00086931
0.00033082
0.000381931
0.00043087
0.000477076
0.000516934
0.000563241
0.000668021
0.000775954
0.000764682
0.000763599
0.000754627
0.000752398
0.000768371
0.000655568
0.000550301
0.000507432
0.000471357
0.000427443
0.000378366
0.000328394
0.000306338
0.000697922
0.000984576
0.00127498
0.00153533
0.00177061
0.00185543
0.00187384
0.00240836
0.00172429
0.00160313
0.00230003
0.00180849
0.00177778
0.0017325
0.0015242
0.00127567
0.000983634
0.000693661
0.000299203
0.000274617
0.000538594
0.00082684
0.00116544
0.00151114
0.0018182
0.00192174
0.00212602
0.00330605
0.00251444
0.00230166
0.00325397
0.00205709
0.00181644
0.00176584
0.00148989
0.00115798
0.000820884
0.000533399
0.000263133
0.000402036
0.000558803
0.000813234
0.00113342
0.00147605
0.00181898
0.00198708
0.0024176
0.00410301
0.00326759
0.00298644
0.00406207
0.00231818
0.00185292
0.00174156
0.00143338
0.00110985
0.000797158
0.000552186
0.000403537
0.000497267
0.000643218
0.000864616
0.00115348
0.00148036
0.00185531
0.00210512
0.00271207
0.00474023
0.00400017
0.00368945
0.00467348
0.00257083
0.00194458
0.00174578
0.00140312
0.00110168
0.000832519
0.000628775
0.000500731
0.000575028
0.000742237
0.000886314
0.00110117
0.00142562
0.00187348
0.00224975
0.00299938
0.00515814
0.00465907
0.00436027
0.00505271
0.00282573
0.00207919
0.00174443
0.0013258
0.00103342
0.000848447
0.000726844
0.000575939
0.000643653
0.000920548
0.00102001
0.00122399
0.00156467
0.0020349
0.00251157
0.00326766
0.00536106
0.00516944
0.00491263
0.00523605
0.00310545
0.00239363
0.00196147
0.00152611
0.00121346
0.00102698
0.000928056
0.000644981
0.000707112
0.00118604
0.00134372
0.00158849
0.00190157
0.00228624
0.00276049
0.00351035
0.00538256
0.00545137
0.00525788
0.00526841
0.00339169
0.0027009
0.00227584
0.00192111
0.00162447
0.00137929
0.00118419
0.00070966
0.000774746
0.00113406
0.00177148
0.00219436
0.00264069
0.00300895
0.00325931
0.00378254
0.00501477
0.00551775
0.00539397
0.00492959
0.0037109
0.00322084
0.00301491
0.00267816
0.00224762
0.00181937
0.00115902
0.000780039
0.000869543
0.000994821
0.00110302
0.00123542
0.00139217
0.0015599
0.00174345
0.00196414
0.00223523
0.00242732
0.00238773
0.00222068
0.00195547
0.00173745
0.00155735
0.00139305
0.00123955
0.00110942
0.00100035
0.000873867
0.000336456
0.000388427
0.000434567
0.000469587
0.000500317
0.000537647
0.000599528
0.000684702
0.000742684
0.00076012
0.000752398
0.000697568
0.000659199
0.000581624
0.000521714
0.000488053
0.000461148
0.000426834
0.000380367
0.000333043
0.000285281
0.000759499
0.00107703
0.00132763
0.00153411
0.00174151
0.00188138
0.00186231
0.00187743
0.0023855
0.00230003
0.00179993
0.00173019
0.00175337
0.00166613
0.00150712
0.00132449
0.00107052
0.000742696
0.000286811
0.000362517
0.000602884
0.000943325
0.00127691
0.00155146
0.00179586
0.00194244
0.00190444
0.00221088
0.00328709
0.00325397
0.00211759
0.00170758
0.00178127
0.00171377
0.00151772
0.00126664
0.000937088
0.000596443
0.00032324
0.00045998
0.000611222
0.000896678
0.0011911
0.0014555
0.00173798
0.00195595
0.00201077
0.00264126
0.0040893
0.00406207
0.00251079
0.00175751
0.0017459
0.00161018
0.00139398
0.00117836
0.000900871
0.000618882
0.000442657
0.000545385
0.000648554
0.000836625
0.00108969
0.00137157
0.00171524
0.00203515
0.00220653
0.00309809
0.00472598
0.00467348
0.00291162
0.001906
0.00178329
0.00154133
0.0012718
0.00104878
0.000828443
0.00065103
0.000543828
0.000625805
0.000783093
0.000850433
0.00101813
0.00131685
0.00174923
0.00219374
0.00248575
0.0034885
0.00514012
0.00505271
0.00324171
0.00215588
0.00191937
0.00154648
0.00119532
0.000963422
0.000836049
0.000785418
0.000627225
0.000695745
0.00106589
0.00112548
0.00129866
0.00162912
0.00207837
0.00256782
0.00296414
0.00382885
0.00534142
0.00523605
0.003583
0.00268817
0.00235003
0.00192621
0.00154444
0.00127469
0.00113733
0.0010842
0.000698667
0.000763686
0.00137606
0.00160082
0.0018517
0.00216556
0.00252014
0.00288413
0.00328244
0.00408099
0.00536766
0.00526841
0.00388866
0.00309484
0.00275661
0.0024526
0.0021502
0.00187748
0.00164974
0.00140251
0.000767275
0.000839448
0.00138142
0.00217007
0.00259508
0.00304608
0.00336032
0.00346911
0.00357903
0.00413808
0.00500687
0.00492959
0.00402597
0.00347852
0.00340874
0.00334254
0.00307012
0.002653
0.00224113
0.0014209
0.000842536
0.000925122
0.00104672
0.00115572
0.0012702
0.00139943
0.00153155
0.00166949
0.00182666
0.00202172
0.00223717
0.00222068
0.00201129
0.00181921
0.00166398
0.00152809
0.00139826
0.00127176
0.00115895
0.00104897
0.000925905
0.00033412
0.00039254
0.000432322
0.000458749
0.000481922
0.000508144
0.000542483
0.00058361
0.000681181
0.000768164
0.000768371
0.000659199
0.000565261
0.000526877
0.000494134
0.000470275
0.0004504
0.000425173
0.000383855
0.000334763
0.000310024
0.000823718
0.00113472
0.00133845
0.00148558
0.00162792
0.00178536
0.00187709
0.0018533
0.00184348
0.00180849
0.00173019
0.00173121
0.0016582
0.00156298
0.0014651
0.00134986
0.00114813
0.000813339
0.000288364
0.000382671
0.000724473
0.00110562
0.00136703
0.00149933
0.0016535
0.00182843
0.00191943
0.00190076
0.00210532
0.00205709
0.00170758
0.00170502
0.00169347
0.00159305
0.00150589
0.00139207
0.00111028
0.00071668
0.000351381
0.000461073
0.000738327
0.0010428
0.00122114
0.00136694
0.00155761
0.00179177
0.00194926
0.00200948
0.00240371
0.00231818
0.00175751
0.00167228
0.00158559
0.0014247
0.00131032
0.00122329
0.00106452
0.000747891
0.000439382
0.000549805
0.000661684
0.00086881
0.00106591
0.00126638
0.00152102
0.00183185
0.00207177
0.00220186
0.00269676
0.00257083
0.001906
0.00175108
0.00156798
0.00133342
0.0011597
0.00102148
0.000857794
0.000668529
0.000550628
0.000649063
0.000787266
0.000846035
0.00101084
0.00126837
0.001611
0.00200294
0.00231372
0.00246957
0.00297412
0.00282573
0.00215588
0.0019741
0.00170559
0.00139293
0.00113959
0.000952644
0.00083381
0.00079751
0.000650959
0.000727177
0.00114185
0.00117343
0.00134455
0.00167073
0.00208305
0.00248016
0.00280056
0.00293595
0.0032307
0.00310545
0.00268817
0.0025215
0.00221846
0.00187087
0.00154194
0.00129383
0.00117361
0.0011584
0.000729174
0.00079861
0.00149515
0.00176926
0.00205061
0.0023871
0.0027251
0.00298047
0.00314273
0.00325854
0.00347871
0.00339169
0.00309484
0.00296063
0.00281184
0.00259365
0.00231227
0.00203369
0.00179464
0.00151835
0.000800311
0.000876397
0.00157019
0.00243301
0.00293066
0.00336438
0.00365289
0.00372011
0.00362176
0.00357033
0.00376821
0.0037109
0.00347852
0.00353844
0.00365472
0.00360865
0.00335094
0.00295245
0.00246634
0.00159864
0.000877692
0.0009474