/*--------------------------------*- C++ -*----------------------------------*\
| =========                 |                                                 |
| \\      /  F ield         | OpenFOAM: The Open Source CFD Toolbox           |
|  \\    /   O peration     | Version:  v1912                                 |
|   \\  /    A nd           | Website:  www.openfoam.com                      |
|    \\/     M anipulation  |                                                 |
\*---------------------------------------------------------------------------*/
FoamFile
{
    version     2.0;
    format      ascii;
    class       surfaceScalarField;
    location    "100";
    object      phi;
}
// * * * * * * * * * * * * * * * * * * * * * * * * * * * * * * * * * * * * * //

dimensions      [0 3 -1 0 0 0 0];
oriented        oriented;


internalField   nonuniform List<scalar> 
11200
(
-0.00304319
0.00609067
-0.00304319
-0.00572807
0.00454632
-0.00185486
-0.00753407
0.00311171
-0.00129672
-0.0082195
0.00152645
-0.000841308
-0.00783234
0.00033228
-0.0007213
-0.00665273
-0.000267908
-0.000908497
-0.00510924
-0.000253088
-0.00129249
-0.00342695
9.87242e-05
-0.00176849
-0.00172023
0.000561509
-0.00227038
0.000193233
0.00065227
-0.00256822
0.00199354
0.000672985
-0.00247486
0.00375968
0.000251914
-0.00202136
0.0057133
-0.000548724
-0.00141177
0.00739251
-0.000705063
-0.000971492
0.0081898
-9.74562e-05
-0.000697323
0.00755889
0.00129871
-0.000666269
0.00542923
0.00293423
-0.000809432
0.00235146
0.00390188
-0.000819847
-0.000700187
0.00319367
-0.000143426
-0.00145886
0.000756439
0.000704911
0.00472767
0.000704911
-0.00062263
0.00552637
0.000317391
-0.00260452
0.0052176
-0.000122644
-0.00428852
0.00343203
-0.000222311
-0.00485572
0.000917975
-1.03835e-05
-0.00428652
-0.00101221
0.0001723
-0.00332916
-0.00125577
5.84849e-05
-0.00219752
-0.000910458
-0.000122333
-0.00118481
-1.49345e-05
-0.000436328
-0.000233293
0.000461594
-0.000766856
0.000703953
0.000440592
-0.000719587
0.00201218
-0.000791933
-0.00025199
0.00342319
-0.00196159
3.76285e-06
0.00453351
-0.00194985
0.000137689
0.00467763
-0.000344245
0.000106347
0.00307335
0.00308183
-0.000179145
0.000588429
0.00552765
-9.36544e-05
-0.0015384
0.00569095
0.000358874
-0.0011937
0.001745
0.00114478
-0.00396075
0.00133358
0.00272852
-0.000702657
0.00272852
0.00339241
0.00289239
0.00197726
0.00250266
0.00499535
0.00111185
0.00083761
0.00462596
0.000465548
-0.000748631
0.00234214
0.000171412
-0.00150874
-0.0005682
0.000306474
-0.00133016
-0.00196186
0.000520156
-0.000854453
-0.00219914
0.000799704
-0.000460022
-0.00138808
0.000970401
-0.000307836
-0.00038499
0.000691485
8.00733e-05
-0.000734991
0.000758274
0.000822911
-0.0023232
0.000778948
0.00139145
-0.00295981
0.000428346
0.00145039
-0.00215451
0.000143841
0.000455752
0.00066525
-1.3479e-05
-0.0012617
0.00467565
0.00011965
-0.00260725
0.00632442
0.000550664
-0.00277104
0.00474026
0.00110677
-0.00117653
-0.00146531
0.00160127
-0.00636013
0.00123846
0.00217664
-0.00506108
0.00217664
0.00417304
-0.00142857
0.0023125
0.00505221
0.00219652
0.00191715
0.00470429
0.00366002
0.00130738
0.00399548
0.00236633
0.000678032
0.00295786
3.04587e-05
0.000433031
0.00206348
-0.00179055
0.000721334
0.00133861
-0.00273974
0.00126376
0.000734603
-0.00260533
0.00181681
7.7439e-06
-0.00161403
0.00196249
-0.000615242
-0.00196705
0.00185585
-0.0012414
-0.00315461
0.00145754
-0.00188794
-0.00302611
0.000711727
-0.00262612
-0.00160741
0.000194277
-0.00341614
0.0012475
0.000204165
-0.00385753
0.00431333
0.000806672
-0.0037989
0.00487209
0.0013957
-0.00224825
0.00135823
0.00182963
-0.000886983
-0.00436593
0.00152304
-0.00809481
0.000851122
0.00115625
-0.00738452
0.00115625
0.00253383
-0.00472265
0.0019158
0.0043342
-0.00207624
0.00246154
0.00568549
-0.000163058
0.0024687
0.00605809
-0.000223169
0.00221911
0.00570253
-0.00168476
0.00206657
0.00477351
-0.00309487
0.00223229
0.0034323
-0.00388895
0.00249292
0.00196643
-0.00384786
0.00271141
0.000237468
-0.00271573
0.00283753
-0.00163601
-0.00286526
0.0027711
-0.00327457
-0.00407765
0.00255999
-0.00460513
-0.00396183
0.00226614
-0.00538994
-0.00278397
0.00195301
-0.00530062
-0.000761985
0.00192105
-0.00445573
0.00112897
0.00234158
-0.0026515
0.00047775
0.0025945
-0.000831673
-0.00283313
0.00237843
-0.00050424
-0.0061719
0.00147959
-0.00904182
0.000441842
0.000561907
-0.00850578
0.000561907
0.000752404
-0.00661091
0.00169166
0.00149177
-0.00529136
0.00247245
0.00269006
-0.00450712
0.00314731
0.00349364
-0.00444287
0.00341294
0.00354284
-0.00517609
0.00344597
0.00300728
-0.0059318
0.00337667
0.0020897
-0.00622203
0.0032598
0.00106948
-0.00596697
0.00314696
5.91718e-05
-0.00483449
0.00313313
-0.00104565
-0.00484709
0.00308668
-0.00222452
-0.00596497
0.00306661
-0.00324324
-0.00614055
0.00320162
-0.00375006
-0.00560676
0.00333364
-0.00340122
-0.00455227
0.00344091
-0.00201169
-0.00369308
0.00343287
-0.00039652
-0.00426833
0.00313145
0.000118495
-0.00562571
0.00227815
-0.000193238
-0.0073069
0.00144645
-0.00939145
0.000155439
0.000166995
-0.00884274
0.000166995
-0.00022047
-0.00766985
0.00144231
-0.000257586
-0.00722578
0.00196649
8.4105e-06
-0.0071383
0.00235674
0.000436887
-0.00743326
0.00256701
0.000632992
-0.00793685
0.0025688
0.000599694
-0.00836172
0.00246866
0.000462842
-0.00839327
0.00231045
0.000249436
-0.00802115
0.00227266
-9.81461e-05
-0.00705889
0.00257393
-0.00045585
-0.00705367
0.00256144
-0.000719466
-0.00796589
0.00226637
-0.000899166
-0.0082746
0.00231796
-0.000865993
-0.00811731
0.00247436
-0.000409346
-0.00759881
0.002588
0.000425817
-0.00708991
0.00256742
0.000857339
-0.00697025
0.00227766
0.000708762
-0.00731244
0.00183495
6.97543e-05
-0.00796767
0.00129717
-0.00926382
-5.76301e-05
-0.000324159
-0.00819458
-0.000324159
-0.00123023
-0.00762546
0.000852804
-0.00174875
-0.00771509
0.00100601
-0.00186021
-0.00805718
0.00102694
-0.00166871
-0.00852308
0.000900138
-0.00130797
-0.0089943
0.000697093
-0.000863435
-0.00928423
0.000475382
-0.000348054
-0.00921344
0.000305781
2.00406e-05
-0.00879438
0.000409429
-0.00013588
-0.00797973
0.00107529
-0.000295582
-0.00797019
0.00107461
5.93115e-05
-0.00875448
0.000435372
0.000581042
-0.00913757
0.00034517
0.00110918
-0.00914854
0.000503828
0.00162122
-0.00881134
0.000700209
0.00200647
-0.00834565
0.000875975
0.00201736
-0.00794847
0.000969451
0.00148968
-0.00771092
0.000923505
0.000476845
-0.00772001
0.000764771
-0.00836291
-0.000424371
-0.00121777
-0.00575917
-0.00121777
-0.00269101
-0.00567528
-0.00048691
-0.00356604
-0.00604391
-0.000802028
-0.00390018
-0.00655298
-0.00117385
-0.00374112
-0.00705074
-0.00163289
-0.00319404
-0.0074706
-0.00207099
-0.00233604
-0.00771862
-0.0024243
-0.00125627
-0.00772546
-0.00256215
-0.00028208
-0.00746774
-0.00229559
-0.0001352
-0.00694371
-0.00118611
1.75358e-05
-0.00695109
-0.00117616
0.000998736
-0.00747411
-0.00226082
0.00208301
-0.00771371
-0.00250949
0.00299085
-0.00767584
-0.00238287
0.00362997
-0.00740188
-0.00205158
0.00389855
-0.00697593
-0.00164015
0.00365046
-0.00649656
-0.00120381
0.00280681
-0.00602073
-0.000846025
0.00131435
-0.00568932
-0.0005376
-0.00581461
-0.00123666
-0.00288453
-0.00288453
-0.00506437
-0.00350198
-0.0063196
-0.00479155
-0.00689007
-0.00598309
-0.00679489
-0.00714586
-0.0061002
-0.00816352
-0.00484025
-0.00897415
-0.00307592
-0.0094848
-0.00109073
-0.0094531
-9.5925e-05
-0.0079428
0.000891559
-0.0079416
0.00286667
-0.00944789
0.00462573
-0.00947156
0.00591012
-0.00896282
0.00666368
-0.00815876
0.0068383
-0.00714996
0.00633979
-0.00599515
0.00512775
-0.00480938
0.00295427
-0.00351853
-0.00286508
-0.00185486
0.00454632
-0.00572807
-0.00410314
0.00450445
-0.00410314
-0.00601566
0.00373661
-0.00311164
-0.00723672
0.00256002
-0.00217252
-0.00752232
0.00124332
-0.00166963
-0.00686208
8.34244e-05
-0.00164188
-0.00550516
-0.000728895
-0.00192483
-0.00376853
-0.00115261
-0.0023562
-0.00189397
-0.00124852
-0.00290709
7.25018e-05
-0.00117105
-0.00337743
0.00209627
-0.00126294
-0.00324899
0.00414862
-0.00140499
-0.00267171
0.00599222
-0.00111869
-0.00213341
0.00716772
-0.000371887
-0.00177444
0.00726221
0.00085029
-0.00164041
0.00619024
0.0022211
-0.00181583
0.00419185
0.00344897
-0.00225048
0.00199472
0.00391903
-0.00253045
0.000211148
0.00367703
-0.00204131
0.00326844
-0.00233317
0.000317391
0.00552637
-0.00062263
-0.000199118
0.00551882
-0.000199118
-0.00152518
0.00538986
-0.00044023
-0.00319606
0.00445429
-0.000448776
-0.00442716
0.00273498
-0.000274339
-0.00460119
0.000539646
-0.000101062
-0.00383165
-0.0012865
-0.000155973
-0.00258639
-0.00212128
-0.00040812
-0.0012724
-0.00232315
-0.000684479
-0.000235841
-0.00204082
-0.000941218
0.000946793
-0.00229885
-0.000868403
0.00253909
-0.00265239
-0.00059857
0.00385761
-0.00210856
-0.000327413
0.00434157
-0.000573395
-0.000141289
0.00341434
0.0021045
-0.000221071
0.00147596
0.00422988
-0.000250232
-0.00047073
0.00527984
2.09718e-05
-0.00146443
0.00460378
0.000665697
-0.000919523
0.0026759
0.00160744
0.00206807
0.00159989
0.00197726
0.00289239
0.00339241
0.0031191
0.00323102
0.0031191
0.00302467
0.00436359
0.00222986
0.00185947
0.0047035
0.00137703
0.000103863
0.00386668
0.00079393
-0.00136759
0.00178492
0.000530779
-0.001796
-0.000776109
0.000434323
-0.00124565
-0.00237723
0.000503076
-0.00056611
-0.00277645
0.000738181
-0.000253281
-0.00242739
0.000762768
0.000239121
-0.00280206
0.000762324
0.00110058
-0.00323161
0.000494158
0.00151038
-0.00228646
0.000190435
0.00069376
0.000197083
0.000193642
-0.00104083
0.00338756
0.000436163
-0.00267033
0.00500454
0.000981938
-0.00343922
0.00486068
0.00174022
-0.00299848
0.00268445
0.00258768
-0.00150152
-0.000379788
0.00316782
-0.00110913
0.00291848
0.0023125
-0.00142857
0.00417304
0.00417376
-0.000510913
0.00417376
0.00523806
0.00155254
0.00365259
0.00514586
0.00326495
0.00283478
0.00428814
0.00340193
0.00200177
0.00308788
0.00211433
0.00130449
0.00188897
0.000116629
0.00102886
0.00109951
-0.00157086
0.00124649
0.000575735
-0.0022334
0.00179054
-3.94123e-05
-0.00198013
0.00213227
-0.000650718
-0.00233666
0.00199866
-0.00117802
-0.00264943
0.00140341
-0.00193792
-0.00155503
0.000744544
-0.00309225
0.000805101
0.000741638
-0.00408494
0.00326635
0.00132452
-0.00461374
0.00420381
0.00214045
-0.00428006
0.003068
0.00285797
-0.00290809
-0.000194316
0.00333681
-0.00154213
-0.00321528
0.0029966
-0.00415902
0.00236017
0.0019158
-0.00472265
0.00253383
0.00334324
-0.0033659
0.00334324
0.00479909
-0.00140266
0.00395868
0.005812
0.000729644
0.00397983
0.00604796
0.00173223
0.0036458
0.00577213
0.00130726
0.00315423
0.00506
0.000168868
0.00289366
0.00382932
-0.000804045
0.00296767
0.00222655
-0.00111971
0.00320846
0.000235497
-0.000591439
0.00344382
-0.00188392
-0.000795526
0.00335134
-0.00357784
-0.00140938
0.00301349
-0.0047325
-0.000853253
0.00271809
-0.00525289
0.000563791
0.00271641
-0.00527563
0.0020546
0.00315912
-0.00472666
0.00228002
0.00371926
-0.00353283
0.000555717
0.00391054
-0.00234009
-0.0024535
0.00344657
-0.00154584
-0.00483232
0.00230528
-0.00612109
0.00086263
0.00169166
-0.00661091
0.000752404
0.00248121
-0.00496073
0.00248121
0.00318862
-0.00332191
0.00367417
0.00420902
-0.00169207
0.00454576
0.00511712
-0.000654308
0.00489583
0.00546447
-0.000465795
0.00487918
0.00508105
-0.000785229
0.0047189
0.00395026
-0.00098621
0.00458089
0.00225758
-0.000777461
0.00450428
0.000257879
0.000169415
0.00437715
-0.00190775
0.000168761
0.00428982
-0.00379239
-0.000815913
0.00435721
-0.00494608
-0.000942375
0.00444908
-0.00517696
-0.000487862
0.00461544
-0.00454839
4.52498e-05
0.00482242
-0.00339424
-0.000263903
0.00482971
-0.00233923
-0.00171288
0.00434784
-0.00194064
-0.0038291
0.00325807
-0.00149757
-0.00571003
0.00188581
-0.00735361
-0.000107416
0.00144231
-0.00766985
-0.00022047
0.0019201
-0.00592179
0.0019201
0.00219623
-0.00467431
0.00303399
0.00262104
-0.00357885
0.00380985
0.0031605
-0.00291061
0.00428554
0.00340153
-0.00257246
0.00443397
0.00308816
-0.00235058
0.00434787
0.0022009
-0.00195777
0.00417426
0.000989023
-0.00136689
0.00407885
7.30596e-06
-0.000441049
0.00416463
-0.00101217
-0.000386595
0.00413936
-0.0022967
-0.00129064
0.00402597
-0.00321348
-0.00184331
0.00413402
-0.00342766
-0.00211312
0.00430801
-0.00293899
-0.00224429
0.00438881
-0.0021586
-0.0026419
0.00417748
-0.00168577
-0.0035131
0.00361336
-0.00157304
-0.00485854
0.00275213
-0.00129939
-0.00626361
0.00158098
-0.0080542
-0.000655794
0.000852804
-0.00762546
-0.00123023
0.000918701
-0.00606482
0.000918701
0.000870972
-0.00525162
0.00161885
0.0010171
-0.00466106
0.00195761
0.00128471
-0.00425879
0.00197921
0.0014718
-0.00394131
0.00187703
0.00138163
-0.00359013
0.00180355
0.000993224
-0.00301031
0.0017512
0.000421252
-0.00231445
0.00193318
-0.000114154
-0.00138566
0.00255122
-0.000655723
-0.00134314
0.0025695
-0.00122992
-0.00224658
0.0019679
-0.00159857
-0.00292019
0.00179225
-0.00159619
-0.00344317
0.00182861
-0.00123934
-0.00376309
0.00186117
-0.00079837
-0.00410921
0.00190376
-0.000577097
-0.00459537
0.00183009
-0.000678551
-0.00529093
0.00145675
-0.000728512
-0.00619035
0.00074284
-0.00779843
-0.00141129
-0.00048691
-0.00567528
-0.00269101
-0.00124669
-0.00455691
-0.00124669
-0.00182705
-0.00415917
-0.00131554
-0.00206142
-0.00394868
-0.00165167
-0.00197261
-0.00380053
-0.00218028
-0.00167875
-0.00364004
-0.00266296
-0.00127953
-0.00341339
-0.00299678
-0.000896666
-0.00308097
-0.002869
-0.000588975
-0.00268486
-0.00223267
-0.000115769
-0.00203946
-0.0010124
0.000387198
-0.00204302
-0.000985547
0.000717106
-0.00268421
-0.00215387
0.00111642
-0.00306834
-0.00276204
0.00157926
-0.00337549
-0.00291574
0.00197338
-0.00358446
-0.00262577
0.00216405
-0.00374735
-0.00218972
0.0019894
-0.00391902
-0.00170254
0.00140521
-0.00416208
-0.00138948
0.000591
-0.00459028
-0.0013238
-0.00573691
-0.00271204
-0.00350198
-0.00506437
-0.00578192
-0.00578192
-0.00724683
-0.00748803
-0.0079796
-0.00920095
-0.00804442
-0.0108806
-0.00749824
-0.0123478
-0.00639222
-0.0134909
-0.00473768
-0.0142172
-0.00263767
-0.0142387
-3.52061e-05
-0.012591
0.00256485
-0.0125869
0.00465797
-0.0142226
0.00631422
-0.0141963
0.00744438
-0.01347
0.00803738
-0.0123338
0.00802634
-0.010881
0.00733192
-0.00921893
0.00587657
-0.00751776
0.00357176
-0.00580875
-0.00503026
-0.00129672
0.00311171
-0.00753407
-0.00311164
0.00373661
-0.00601566
-0.00484702
0.00346425
-0.00484702
-0.00615809
0.00279791
-0.00365554
-0.00683162
0.00183582
-0.00283174
-0.00671589
0.000766621
-0.00251979
-0.00579873
-0.000272596
-0.00255787
-0.00426591
-0.00113752
-0.00275614
-0.00228449
-0.00181577
-0.00307408
9.16229e-05
-0.00237068
-0.00338463
0.00253113
-0.00238642
-0.00329347
0.00456912
-0.00172336
-0.0029867
0.00606218
-0.000889952
-0.00273947
0.00674734
0.000152034
-0.00260695
0.00653264
0.0012428
-0.00266345
0.00555154
0.00222198
-0.00305594
0.00403621
0.00298343
-0.00371356
0.00233753
0.00344132
-0.00426259
0.000756376
0.00387447
-0.00430741
0.00385727
-0.00540605
-0.000122644
0.0052176
-0.00260452
-0.00044023
0.00538986
-0.00152518
-0.00125482
0.00508818
-0.00125482
-0.00244675
0.00448385
-0.000942843
-0.0035846
0.00335483
-0.000662489
-0.00414533
0.00176397
-0.000539661
-0.00385135
-0.000191964
-0.000536885
-0.00285761
-0.00180941
-0.000727394
-0.00150541
-0.00293384
-0.000916643
-0.000162782
-0.00363376
-0.00102559
0.00129737
-0.00374145
-0.00097588
0.00274729
-0.00287696
-0.000899372
0.00370371
-0.00145143
-0.000719938
0.00364793
0.000671549
-0.000596267
0.00261226
0.00256442
-0.000508785
0.00110738
0.00386964
-0.000387266
-0.000149023
0.00445614
-0.00019643
-0.000614067
0.00437755
0.000188459
-0.000272168
0.00457202
0.000587285
0.00562979
-0.000449662
0.00111185
0.00499535
0.00250266
0.00222986
0.00436359
0.00302467
0.00263684
0.00427063
0.00263684
0.00213122
0.00437157
0.00198521
0.000952164
0.00397284
0.00135284
-0.000396247
0.00280749
0.000831058
-0.00129976
0.000686681
0.000450614
-0.00124921
-0.00157496
0.00021476
-0.000655952
-0.00312469
0.000338923
-0.000219726
-0.00383778
0.000528004
0.000320367
-0.00403466
0.000513006
0.000949882
-0.00319261
0.000176845
0.000772735
-0.00116634
7.8951e-05
-0.000425256
0.00162618
0.000439684
-0.00193007
0.00346798
0.00104141
-0.00301811
0.00412816
0.00181409
-0.00322677
0.00376136
0.00264355
-0.00241942
0.00278396
0.0033763
-0.000997714
0.00273694
0.00358655
0.00479304
0.00275242
0.00191715
0.00219652
0.00505221
0.00365259
0.00155254
0.00523806
0.00483702
0.00191008
0.00483702
0.00510901
0.00288124
0.00404338
0.00459867
0.00333527
0.00314697
0.00360136
0.0028577
0.00225603
0.00235433
0.00142001
0.00153793
0.00132386
-0.000515008
0.00122196
0.000640763
-0.0021078
0.0014596
-0.000108254
-0.00281053
0.00185532
-0.000865537
-0.00304991
0.00177779
-0.00158208
-0.00232053
0.00125
-0.00263962
-0.000360717
0.000999787
-0.00373138
0.00192808
0.00153155
-0.00460806
0.00327196
0.00240231
-0.00491736
0.00327151
0.00331071
-0.00444276
0.00205652
0.00408692
-0.0032332
0.000352652
0.00455921
-0.00178446
-9.83245e-05
0.00438226
0.00146165
0.00391097
0.00246154
-0.00207624
0.0043342
0.00395868
-0.00140266
0.00479909
0.00515527
-0.000496974
0.00515527
0.00593045
0.00100643
0.00508075
0.00611111
0.00214048
0.00465916
0.00577771
0.00233128
0.00401428
0.00508551
0.00160405
0.00340015
0.00393971
0.000499247
0.00310272
0.00232382
-0.000362451
0.00308171
0.000162104
-0.000505202
0.00330211
-0.00207681
-0.000702923
0.00324138
-0.00372031
-0.000628303
0.00296542
-0.00480589
0.00047796
0.00296739
-0.00536101
0.00185103
0.00335136
-0.00552872
0.00257156
0.00403131
-0.00517859
0.0020412
0.00460523
-0.00439945
0.000395244
0.00479125
-0.00350004
-0.00149004
0.00438981
-0.00244218
-0.00239629
0.00355372
-0.00283718
0.00272357
0.00247245
-0.00529136
0.00149177
0.00367417
-0.00332191
0.00318862
0.00442738
-0.00200205
0.00442738
0.00514324
-0.000433376
0.00527014
0.00573411
0.000862693
0.00558435
0.00595038
0.00150266
0.00548996
0.00564359
0.00142827
0.00520228
0.00466055
0.00110592
0.00496307
0.00292095
0.00101318
0.00487337
0.000369121
0.00163129
0.00479472
-0.00236852
0.0016118
0.00471658
-0.00430383
0.000919433
0.00474262
-0.00529163
0.00107481
0.00483897
-0.00548262
0.00156601
0.00509124
-0.00512094
0.00166693
0.00536676
-0.00446538
0.00084833
0.00537261
-0.00384976
-0.000722698
0.00485192
-0.00334481
-0.00250394
0.00377214
-0.00233742
-0.00382725
0.00231356
-0.00571687
0.000437839
0.00196649
-0.00722578
-0.000257586
0.00303399
-0.00467431
0.00219623
0.00360483
-0.00314705
0.00360483
0.00408446
-0.00167008
0.00456032
0.00457832
-0.000459334
0.00511098
0.00480698
0.000425125
0.00528281
0.00445714
0.000940131
0.00518963
0.00343819
0.00127597
0.0050273
0.00192265
0.0016485
0.0049623
0.000200355
0.00243789
0.00507613
-0.00160821
0.00248466
0.00506868
-0.0032396
0.00166369
0.00491162
-0.00428538
0.00129124
0.0049628
-0.00455396
0.00104757
0.00509642
-0.00419127
0.000566922
0.00513262
-0.00362753
-0.00039679
0.00486406
-0.00319511
-0.00175183
0.00420858
-0.00277704
-0.00334448
0.00317394
-0.00184645
-0.00489665
0.00171712
-0.00743064
-0.0007878
0.00100601
-0.00771509
-0.00174875
0.00161885
-0.00525162
0.000870972
0.00196123
-0.00383359
0.00196123
0.00233637
-0.00264328
0.00255379
0.00274621
-0.00163822
0.00274639
0.00304385
-0.000725798
0.00273126
0.00294371
6.23102e-05
0.00278106
0.00232201
0.000776452
0.00287289
0.00132796
0.00142773
0.00314994
7.00618e-05
0.00248951
0.00375655
-0.00122664
0.00254498
0.00380571
-0.00228465
0.0014831
0.00320731
-0.00293232
0.00081555
0.00291747
-0.00297986
0.000138461
0.00278702
-0.00256823
-0.000637533
0.00265708
-0.00206347
-0.00158006
0.00258398
-0.00168603
-0.00264384
0.0023436
-0.00142033
-0.00388732
0.00173418
-0.000904072
-0.00532505
0.0006554
-0.00780488
-0.00193875
-0.000802028
-0.00604391
-0.00356604
-0.00131554
-0.00415917
-0.00182705
-0.00160092
-0.00326537
-0.00160092
-0.00155895
-0.00258771
-0.00175046
-0.00125001
-0.00200758
-0.00211861
-0.00085591
-0.00144809
-0.00233284
-0.000417073
-0.0008909
-0.00248209
-7.35422e-05
-0.00029667
-0.0021376
8.69913e-05
0.000287949
-0.00125059
-1.82136e-05
0.00142312
0.00015467
-0.000126644
0.00144479
0.000216762
1.98472e-05
0.000302706
-0.00111539
0.000370121
-0.000287962
-0.00200357
0.00086128
-0.000869949
-0.00239779
0.00133303
-0.00141499
-0.00231881
0.00170138
-0.00197439
-0.0021615
0.00176029
-0.00257121
-0.00183157
0.00144585
-0.00326957
-0.00169147
0.000877362
-0.00417735
-0.0019027
-0.00607217
-0.00356516
-0.00479155
-0.0063196
-0.00748803
-0.00724683
-0.00912221
-0.00912221
-0.00986936
-0.0110429
-0.00986426
-0.0128927
-0.00918397
-0.0144779
-0.00790853
-0.0156585
-0.00601895
-0.0164043
-0.00352972
-0.0164431
-5.19071e-06
-0.0146939
0.00352849
-0.0146761
0.00601832
-0.0164083
0.00790445
-0.0163696
0.00918943
-0.0156243
0.00989556
-0.0144537
0.00992994
-0.0128895
0.00920189
-0.0110622
0.0075665
-0.00915273
0.00484497
-0.00726767
-0.00625427
-0.000841308
0.00152645
-0.0082195
-0.00217252
0.00256002
-0.00723672
-0.00365554
0.00279791
-0.00615809
-0.00495638
0.0025982
-0.00495638
-0.00584383
0.00202784
-0.00396912
-0.00613682
0.00118672
-0.00341614
-0.00568707
0.000176593
-0.0031844
-0.00448841
-0.000891186
-0.003065
-0.00258328
-0.00194039
-0.0030329
6.77372e-05
-0.00295359
-0.00308125
0.00274985
-0.00293971
-0.00303649
0.00464036
-0.00181423
-0.00306412
0.00575436
-0.000677484
-0.00317363
0.00606691
0.000398487
-0.00331664
0.00566601
0.00130994
-0.00357653
0.00475325
0.00200724
-0.00414997
0.00348213
0.00250513
-0.00495016
0.00205399
0.00289459
-0.00573536
0.00073391
0.00329644
-0.00628399
0.00280519
-0.00747174
-0.000222311
0.00343203
-0.00428852
-0.000448776
0.00445429
-0.00319606
-0.000942843
0.00448385
-0.00244675
-0.00172603
0.00417167
-0.00172603
-0.00260154
0.0034445
-0.00120383
-0.00323662
0.00227929
-0.000992321
-0.00332469
0.000689536
-0.00096245
-0.00270684
-0.00122501
-0.00101339
-0.00156924
-0.00295996
-0.00103359
-0.000160356
-0.0044088
-0.000980756
0.0013082
-0.00444897
-0.000927622
0.00247296
-0.00284956
-0.00101874
0.00299991
-0.000890624
-0.00103396
0.00270327
0.00102521
-0.000928541
0.00185173
0.00243016
-0.000778836
0.000880255
0.00335278
-0.000759273
0.000175026
0.00391658
-0.000899882
-4.10854e-05
0.00438464
-0.00108661
9.9893e-05
0.00515027
-0.00140064
0.00538219
-0.00292102
0.000465548
0.00462596
0.00083761
0.00137703
0.0047035
0.00185947
0.00198521
0.00437157
0.00213122
0.00199546
0.00414609
0.00199546
0.00144024
0.00373992
0.00161412
0.000538862
0.00289965
0.00110878
-0.000370702
0.00142151
0.000623061
-0.000759397
-0.000824879
0.000198859
-0.000550561
-0.00301907
0.000191199
-0.000225979
-0.00461467
0.000408532
0.000113346
-0.0047136
0.000439879
0.000230485
-0.00300328
0.000215806
-0.000330149
-0.000509642
0.000270665
-0.00136595
0.00167468
0.000822537
-0.00229762
0.00287955
0.00152394
-0.00276086
0.00337654
0.00225253
-0.00253547
0.00349374
0.00284414
-0.00164417
0.00374628
0.00312485
-0.000499828
0.00479934
0.00278926
0.00619086
0.00144162
0.00130738
0.00366002
0.00470429
0.00283478
0.00326495
0.00514586
0.00404338
0.00288124
0.00510901
0.00462338
0.00297952
0.00462338
0.00454119
0.00308706
0.00387406
0.00392435
0.00276641
0.00300435
0.00297534
0.0017544
0.00215611
0.00184871
1.46591e-05
0.0015195
0.000853798
-0.00200108
0.00144467
-0.000136228
-0.00346766
0.00170065
-0.00113772
-0.00364317
0.00170603
-0.00216048
-0.00218554
0.00145338
-0.00326435
1.62484e-05
0.00157471
-0.00414479
0.0017997
0.00228911
-0.0046727
0.00261064
0.0032008
-0.00463839
0.0025906
0.00406807
-0.00396379
0.00218037
0.00472569
-0.00276256
0.00211121
0.00498637
-0.00135898
0.00310327
0.00467484
0.00478513
0.00396183
0.0024687
-0.000163058
0.00568549
0.00397983
0.000729644
0.005812
0.00508075
0.00100643
0.00593045
0.00576921
0.00160696
0.00576921
0.0059941
0.00221363
0.00530799
0.00574701
0.0024024
0.00462512
0.00510284
0.00191376
0.00388558
0.00400104
0.000887309
0.00333695
0.0023458
-0.00031246
0.00305214
0.000108456
-0.00106147
0.00313947
-0.00217039
-0.00125946
0.00314079
-0.00384351
-0.000596555
0.0030493
-0.00491044
0.000745608
0.00330514
-0.00548353
0.00184348
0.00388187
-0.00564185
0.00221176
0.00459423
-0.00538432
0.00178661
0.00515489
-0.00479806
0.00100183
0.00538157
-0.00393749
0.000462171
0.00517848
-0.00262054
0.000592797
0.00475344
0.000373207
0.00451594
0.00314731
-0.00450712
0.00269006
0.00454576
-0.00169207
0.00420902
0.00527014
-0.000433376
0.00514324
0.00570772
0.000723386
0.00570772
0.00599387
0.0016377
0.00587131
0.00602833
0.00214924
0.00570676
0.00566925
0.00210982
0.00536917
0.00474458
0.00171474
0.00506551
0.00304458
0.00135785
0.00490595
0.00037839
0.00153724
0.00486196
-0.00245611
0.00146396
0.00482868
-0.00433781
0.00118448
0.00484286
-0.00529323
0.00155758
0.00498089
-0.00560226
0.00199831
0.00524642
-0.00551283
0.00198742
0.00550369
-0.00525954
0.00137357
0.00553344
-0.00496816
0.000393063
0.00516957
-0.00445469
-0.000700632
0.00442171
-0.00319088
-0.0017502
0.00339572
-0.00440299
0.00202311
0.00235674
-0.0071383
8.4105e-06
0.00380985
-0.00357885
0.00262104
0.00456032
-0.00167008
0.00408446
0.00494518
-5.10848e-05
0.00494518
0.00517152
0.00116814
0.00535524
0.00520875
0.00192425
0.00547186
0.00483837
0.00224679
0.00542581
0.00387953
0.00233959
0.0053596
0.00233965
0.00243766
0.00542125
0.000314033
0.00298985
0.00565028
-0.00182422
0.00299069
0.00568166
-0.00350384
0.00235694
0.00541987
-0.00450351
0.00221309
0.00530695
-0.00484354
0.00213696
0.0052969
-0.00476756
0.00180817
0.00523583
-0.00456337
0.00102845
0.00500251
-0.0042703
-0.000198143
0.00450444
-0.00365436
-0.00176788
0.00362143
-0.00229107
-0.00359011
0.00219255
-0.00710215
-0.000378278
0.00102694
-0.00805718
-0.00186021
0.00195761
-0.00466106
0.0010171
0.00255379
-0.00264328
0.00233637
0.00301994
-0.000976974
0.00301994
0.00336378
0.000389495
0.00318591
0.00346383
0.00136085
0.00319699
0.0032449
0.00197149
0.00327524
0.00260868
0.00237249
0.00347612
0.00159191
0.00272246
0.00388371
0.000199161
0.00357731
0.00456277
-0.00123542
0.00359031
0.00464275
-0.00233271
0.00269487
0.00396828
-0.00300584
0.00229173
0.0035126
-0.00320875
0.00189212
0.00323483
-0.00307595
0.0012833
0.00305082
-0.00273406
0.000323086
0.00294649
-0.00232362
-0.00101894
0.00275331
-0.00181147
-0.00266015
0.00211459
-0.000957992
-0.00464824
0.0008653
-0.0080423
-0.00195182
-0.00117385
-0.00655298
-0.00390018
-0.00165167
-0.00394868
-0.00206142
-0.00175046
-0.00258771
-0.00155895
-0.00148518
-0.00150551
-0.00148518
-0.000952178
-0.000577555
-0.00168594
-0.000430219
0.000276867
-0.00177441
-0.000168317
0.000921439
-0.00169563
-3.92881e-05
0.00142145
-0.00131192
0.000100629
0.00184693
-0.00051076
9.45439e-05
0.0029025
0.000833637
9.72597e-05
0.00290673
0.000894905
0.000226588
0.00184129
-0.000387798
0.00034393
0.0013972
-0.00122461
0.000603395
0.000898625
-0.00166458
0.00112038
0.000264517
-0.00181415
0.00164294
-0.000572983
-0.00178338
0.00188096
-0.00149256
-0.00159368
0.00174175
-0.00257744
-0.00163544
0.00122389
-0.00394028
-0.00209096
-0.00654405
-0.0038373
-0.00598309
-0.00689007
-0.00920095
-0.0079796
-0.0110429
-0.00986936
-0.0117967
-0.0117967
-0.0116909
-0.0135781
-0.0108217
-0.0150724
-0.00929348
-0.0162639
-0.0071312
-0.0171435
-0.004276
-0.0174545
2.82802e-05
-0.0160978
0.00434157
-0.0160832
0.00719934
-0.017426
0.00934736
-0.0171209
0.0108632
-0.0162419
0.0117307
-0.0150573
0.0118457
-0.0135763
0.0111012
-0.0118101
0.00925612
-0.00988626
0.00602206
-0.00797189
-0.00677413
-0.0007213
0.00033228
-0.00783234
-0.00166963
0.00124332
-0.00752232
-0.00283174
0.00183582
-0.00683162
-0.00396912
0.00202784
-0.00584383
-0.00487796
0.00181728
-0.00487796
-0.00536081
0.00122117
-0.00415551
-0.00522855
0.00031019
-0.00362425
-0.00434587
-0.000847121
-0.00310047
-0.00263005
-0.0021643
-0.00258303
-1.77564e-05
-0.00343922
-0.00225694
0.00260514
-0.00343122
-0.0022285
0.00429932
-0.00211422
-0.00264148
0.00515053
-0.000800166
-0.00322297
0.00527545
0.000277874
-0.00371573
0.00484031
0.0010723
-0.00421325
0.00399902
0.00161635
-0.00492896
0.00288893
0.00193329
-0.00577027
0.00169539
0.00206139
-0.00659911
0.000634322
0.00200979
-0.00722996
0.00115975
-0.00799345
-1.03835e-05
0.000917975
-0.00485572
-0.000274339
0.00273498
-0.00442716
-0.000662489
0.00335483
-0.0035846
-0.00120383
0.0034445
-0.00260154
-0.00182274
0.00305946
-0.00182274
-0.00234135
0.00215133
-0.00140809
-0.00251437
0.000739637
-0.00122221
-0.00217519
-0.00112309
-0.00107294
-0.00137082
-0.00322185
-0.000777561
-0.000212805
-0.00507039
-0.00050519
0.000955048
-0.00511119
-0.000419289
0.00175199
-0.00327304
-0.000661233
0.0020618
-0.00118078
-0.000963261
0.00182198
0.000593937
-0.00100977
0.00127153
0.00187674
-0.00104223
0.000717835
0.0027202
-0.00131063
0.000339015
0.0032806
-0.00186944
0.000203742
0.00371471
-0.00260375
0.000151909
0.00401109
-0.00335174
0.00290994
-0.00451984
0.000171412
0.00234214
-0.000748631
0.00079393
0.00386668
0.000103863
0.00135284
0.00397284
0.000952164
0.00161412
0.00373992
0.00144024
0.00151265
0.00325366
0.00151265
0.00109686
0.00242111
0.0012518
0.000507671
0.0011027
0.000846498
1.0146e-05
-0.000898214
0.000471106
-0.000217514
-0.00328011
0.000484942
-0.000244477
-0.00529571
0.00066674
-0.000300155
-0.00538427
0.000770885
-0.000611818
-0.0034324
0.000687527
-0.0011996
-0.0010653
0.00073437
-0.00182916
0.000829709
0.00120971
-0.00221044
0.00199565
0.00178676
-0.00220127
0.00273981
0.00222775
-0.00175538
0.00334756
0.00233367
-0.000948038
0.00404972
0.0019816
-0.000127734
0.00484637
0.00112848
0.00450357
-0.000272032
0.000678032
0.00236633
0.00399548
0.00200177
0.00340193
0.00428814
0.00314697
0.00333527
0.00459867
0.00387406
0.00308706
0.00454119
0.00411427
0.00276848
0.00411427
0.00387698
0.00222884
0.00342828
0.00321602
0.00126022
0.00265266
0.00221338
-0.000355817
0.00198301
0.00105584
-0.0024242
0.00174745
-0.000139575
-0.00421348
0.00181324
-0.00133105
-0.00439429
0.00190433
-0.00249384
-0.00272877
0.00191291
-0.00349157
-0.000667808
0.00217152
-0.00411616
0.00089905
0.00284586
-0.00429393
0.00174094
0.00363469
-0.00399117
0.00219179
0.004314
-0.00322012
0.00261559
0.00468661
-0.00208371
0.00328729
0.0046119
-0.000802912
0.00412447
0.00411832
0.00413501
0.00353398