/*--------------------------------*- C++ -*----------------------------------*\
| =========                 |                                                 |
| \\      /  F ield         | OpenFOAM: The Open Source CFD Toolbox           |
|  \\    /   O peration     | Version:  v1912                                 |
|   \\  /    A nd           | Website:  www.openfoam.com                      |
|    \\/     M anipulation  |                                                 |
\*---------------------------------------------------------------------------*/
FoamFile
{
    version     2.0;
    format      ascii;
    class       volVectorField;
    location    "100";
    object      U;
}
// * * * * * * * * * * * * * * * * * * * * * * * * * * * * * * * * * * * * * //

dimensions      [0 1 -1 0 0 0 0];


internalField   nonuniform List<vector> 
4000
(
(-0.0090072 0.0136784 -0.0090072)
(-0.0200055 0.0131229 -0.00405599)
(-0.0286653 0.00842046 -0.00234704)
(-0.0336603 0.0037951 -0.00145539)
(-0.0336761 0.000947002 -0.00157114)
(-0.0299855 -0.000234857 -0.00247826)
(-0.0240488 -0.000228502 -0.00409319)
(-0.0172775 0.000166616 -0.00629277)
(-0.0102515 0.000381877 -0.00871958)
(-0.00396106 -0.000184806 -0.0103698)
(0.00502489 0.000118858 -0.00986704)
(0.0109916 0.000155248 -0.00732222)
(0.0190406 -0.000793368 -0.0044895)
(0.0271557 -0.000956224 -0.00269369)
(0.0327652 0.000416043 -0.00169394)
(0.0335836 0.00366956 -0.00133892)
(0.028044 0.0081361 -0.00154592)
(0.0142922 0.010949 -0.00116001)
(-0.00117403 0.00863362 0.00197368)
(-0.00378347 -0.00404819 0.00406537)
(0.00206944 0.0253714 0.00206944)
(-0.000982534 0.022322 0.000681662)
(-0.00802535 0.0176628 -0.000438664)
(-0.0168051 0.00880262 -0.00018919)
(-0.0205986 0.000756911 0.000701015)
(-0.0195256 -0.0033915 0.00130751)
(-0.0154915 -0.00315344 0.000627323)
(-0.0107538 -0.000659993 -0.000459811)
(-0.00642067 0.0028754 -0.00279705)
(-0.00289386 0.00432527 -0.00526719)
(4.33577e-05 0.00420131 -0.00527468)
(0.00398574 -0.000171125 -0.00078794)
(0.0104289 -0.00528055 0.000603531)
(0.0169812 -0.00621922 0.00126798)
(0.0208948 -0.00177937 0.000885333)
(0.0183034 0.00762196 -0.000325453)
(0.00841584 0.0176397 -0.00104005)
(-0.00439686 0.020771 0.000392287)
(-0.00828988 0.0121282 0.00318093)
(-0.0033553 -0.0110377 0.00356554)
(0.00756116 0.00342221 0.00756116)
(0.0136254 0.0183274 0.00474952)
(0.0120316 0.0222095 0.0020703)
(0.00558895 0.018235 0.000506794)
(-0.00298879 0.00683374 0.000644772)
(-0.00834092 -0.00673929 0.00319628)
(-0.00578526 -0.00888698 0.00254019)
(-0.00383827 -0.00800984 0.00314677)
(-0.00182993 -0.00388011 0.00342948)
(-0.00141947 -7.77166e-05 0.00062145)
(-0.00197913 -0.00151667 0.00169756)
(0.000633502 -0.00772068 0.00321399)
(0.00330571 -0.0120347 0.00223439)
(0.00755239 -0.0114538 0.00218829)
(0.00811461 -0.00172604 0.000563431)
(-0.000175284 0.0168878 -0.000693076)
(-0.0082542 0.025107 -4.08962e-05)
(-0.012908 0.0220478 0.00169445)
(-0.00841735 -0.000434174 0.00375229)
(-0.00289749 -0.0216854 0.00279869)
(0.00440731 -0.0147371 0.00440731)
(0.0130649 0.000803169 0.00557937)
(0.0200268 0.0165963 0.00414887)
(0.0194713 0.0186731 0.00245375)
(0.0157654 0.0115367 0.00111003)
(0.0132283 0.00126871 0.00133458)
(0.00967127 -0.0070512 0.00262934)
(0.00700314 -0.0103111 0.00461866)
(0.00430931 -0.00855566 0.0062427)
(0.00172438 -0.00473123 0.00663853)
(-0.00173504 -0.00615846 0.00635717)
(-0.00435233 -0.0112473 0.0051978)
(-0.00717789 -0.0119973 0.0031378)
(-0.0085424 -0.0067932 0.00109912)
(-0.0104427 0.00581143 -8.23974e-05)
(-0.0138766 0.0197422 0.000872067)
(-0.0159197 0.0245357 0.00232947)
(-0.013786 0.0152082 0.00390563)
(-0.00509149 -0.0127037 0.00389406)
(-0.00245199 -0.0296869 0.0021784)
(0.00265531 -0.0262714 0.00265531)
(0.00654038 -0.0140816 0.00483001)
(0.0132944 -0.000464848 0.00629808)
(0.0208899 0.0110579 0.00618195)
(0.0228663 0.00933657 0.00579229)
(0.0236097 0.00207052 0.00634343)
(0.0217923 -0.00502571 0.00709695)
(0.0171563 -0.00945721 0.00769142)
(0.0108787 -0.0100497 0.00810515)
(0.00541502 -0.00594765 0.00860323)
(-0.00357189 -0.00686751 0.0083987)
(-0.0104861 -0.0114416 0.00767696)
(-0.0171575 -0.00981574 0.00719313)
(-0.0209002 -0.00330589 0.00658466)
(-0.0208924 0.00664635 0.00524401)
(-0.0189268 0.0162765 0.00574418)
(-0.015571 0.0154408 0.00632358)
(-0.00532274 -0.00428852 0.00630594)
(-0.00219785 -0.0215887 0.004009)
(-0.00178412 -0.0348058 0.00148457)
(0.00159505 -0.0326017 0.00159505)
(0.00271181 -0.0234833 0.00421998)
(0.00325812 -0.0165104 0.00587438)
(0.00792091 -0.0124956 0.00789628)
(0.0125838 -0.0106223 0.00898653)
(0.0147204 -0.0137657 0.00884902)
(0.0139594 -0.0175155 0.00783689)
(0.0105951 -0.0194832 0.00690277)
(0.00624365 -0.0187546 0.00637856)
(0.0024797 -0.0137097 0.00708164)
(-0.00207357 -0.0138342 0.0070231)
(-0.00664239 -0.0189618 0.00621551)
(-0.011744 -0.0192098 0.00684896)
(-0.0151997 -0.015952 0.00803147)
(-0.0147901 -0.0107911 0.00914896)
(-0.010898 -0.00619311 0.00878019)
(-0.00421216 -0.0111684 0.00754205)
(0.000963791 -0.0179829 0.00527541)
(-0.000352735 -0.0271568 0.00375001)
(-0.0011336 -0.0372248 0.000935717)
(0.000697442 -0.0357202 0.000697442)
(0.000319539 -0.0295708 0.00304541)
(-0.00188983 -0.0263583 0.00327348)
(-0.000697114 -0.0247907 0.00350809)
(0.000710127 -0.0256439 0.00332944)
(0.00241262 -0.0277623 0.00256307)
(0.00267887 -0.030012 0.00154268)
(0.00204808 -0.0304535 0.000500344)
(0.00156406 -0.0290577 0.000191678)
(0.000447596 -0.0248844 0.00200132)
(-0.00128698 -0.0248484 0.00192007)
(-0.00248683 -0.0287912 0.000165474)
(-0.00332471 -0.0299069 0.000492889)
(-0.00396542 -0.0287295 0.00148285)
(-0.00294283 -0.025962 0.00254018)
(0.000315694 -0.0241538 0.00320466)
(0.00290351 -0.0240332 0.00318498)
(0.00416244 -0.0269532 0.00288506)
(0.00113486 -0.0312895 0.0027092)
(-0.000369053 -0.0380198 0.000344087)
(-0.000696416 -0.0351912 -0.000696416)
(-0.00263548 -0.0320316 0.000694985)
(-0.00690485 -0.0317384 -0.000433843)
(-0.00749763 -0.032634 -0.00154102)
(-0.00744571 -0.0343505 -0.0028983)
(-0.00612516 -0.0364889 -0.00439336)
(-0.00447078 -0.0379946 -0.00588327)
(-0.00268378 -0.0379279 -0.00716689)
(-0.000204872 -0.0363565 -0.0073896)
(0.000199785 -0.0327929 -0.00485253)
(-0.00132371 -0.0327681 -0.00493652)
(-0.000920057 -0.0361484 -0.0074185)
(0.00145135 -0.0375213 -0.00716533)
(0.00340666 -0.0372334 -0.00590166)
(0.00556532 -0.0353944 -0.00445251)
(0.00765943 -0.0333008 -0.00301223)
(0.0083759 -0.0320359 -0.00172362)
(0.00800802 -0.03177 -0.000660915)
(0.00345095 -0.032632 0.000480626)
(0.000974872 -0.0361974 -0.000849126)
(-0.00349276 -0.02804 -0.00349276)
(-0.00758699 -0.0273371 -0.0033953)
(-0.0135399 -0.0289379 -0.00567766)
(-0.0153906 -0.0312856 -0.00776615)
(-0.0158492 -0.0337416 -0.0099436)
(-0.0142629 -0.0358967 -0.0120281)
(-0.0113816 -0.0372414 -0.0138779)
(-0.00757655 -0.037374 -0.0151881)
(-0.00258154 -0.0363126 -0.0152579)
(-0.000389755 -0.0340156 -0.012134)
(-0.000722007 -0.0340022 -0.0121921)
(0.00156244 -0.0362645 -0.0153126)
(0.00650986 -0.0372189 -0.0151615)
(0.0104143 -0.0369214 -0.01384)
(0.013599 -0.0354397 -0.012002)
(0.0156207 -0.0332507 -0.00994652)
(0.0155561 -0.0309216 -0.00779965)
(0.013949 -0.0287929 -0.00573648)
(0.00797064 -0.0274247 -0.00346369)
(0.00372023 -0.0283567 -0.00349148)
(-0.00858643 -0.0189195 -0.00858643)
(-0.0162217 -0.0181983 -0.0111857)
(-0.0238613 -0.0187253 -0.0156207)
(-0.0270456 -0.0195614 -0.0196107)
(-0.0280934 -0.0201838 -0.0235149)
(-0.0263974 -0.0204243 -0.0270102)
(-0.0224517 -0.0200465 -0.0299144)
(-0.0164486 -0.0188702 -0.0318819)
(-0.00814223 -0.0168393 -0.0320343)
(-0.00253479 -0.0143058 -0.0266692)
(0.00173204 -0.0142933 -0.0267027)
(0.00734834 -0.0168068 -0.0320862)
(0.0155723 -0.0188065 -0.0318703)
(0.0216017 -0.0199251 -0.0298919)
(0.025727 -0.0202544 -0.0269961)
(0.0277199 -0.0200042 -0.0235201)
(0.0269752 -0.0194103 -0.0196348)
(0.0240284 -0.0186221 -0.0156563)
(0.0164451 -0.0181514 -0.0112051)
(0.00876413 -0.0189508 -0.00846823)
(-0.00405599 0.0131229 -0.0200055)
(-0.0130255 0.0135566 -0.0130255)
(-0.0215056 0.0106481 -0.00896706)
(-0.0281095 0.00655013 -0.00556145)
(-0.0310716 0.00265653 -0.00418213)
(-0.03003 -0.000226851 -0.00462589)
(-0.0256074 -0.00220134 -0.0061224)
(-0.0190098 -0.00348369 -0.00813902)
(-0.0113634 -0.0042766 -0.0104463)
(-0.00448022 -0.00496046 -0.0123215)
(0.0049697 -0.00503734 -0.0117899)
(0.0124162 -0.00439707 -0.00933262)
(0.0208855 -0.003211 -0.00681057)
(0.0275667 -0.00121246 -0.00504491)
(0.0303848 0.00183352 -0.00410119)
(0.0284471 0.00578493 -0.00437463)
(0.0216468 0.00986233 -0.00577104)
(0.0115627 0.0125667 -0.00640443)
(0.00218371 0.0121706 -0.00205156)
(-0.00154957 0.00841348 0.00123102)
(0.000681662 0.022322 -0.000982534)
(-0.000319878 0.0225274 -0.000319878)
(-0.00386757 0.0203094 -0.00149773)
(-0.0108686 0.0148404 -0.00102767)
(-0.0171148 0.0073277 1.92453e-05)
(-0.0196963 0.000242963 0.000872904)
(-0.0179768 -0.00454739 0.000373708)
(-0.0132332 -0.00690096 -0.000775334)
(-0.007685 -0.00740969 -0.00204832)
(-0.00302506 -0.00669384 -0.00336399)
(0.00110048 -0.00743517 -0.0031103)
(0.00678232 -0.00840718 -0.00145764)
(0.0134439 -0.00682793 -6.64825e-05)
(0.0181098 -0.00250117 0.000869985)
(0.0175901 0.0050519 0.000316128)
(0.0113243 0.0132263 -0.000673242)
(0.00120943 0.0191762 -0.000505389)
(-0.00536286 0.0190946 0.00219741)
(-0.00604474 0.0152814 0.00671593)
(-0.00252485 0.0132441 0.00863736)
(0.00474952 0.0183274 0.0136254)
(0.0105453 0.0194694 0.0105453)
(0.0130029 0.0213878 0.00672933)
(0.00994595 0.0204228 0.00369986)
(0.00325947 0.0151962 0.00223461)
(-0.0047928 0.00476147 0.00277457)
(-0.00882074 -0.00629149 0.00286361)
(-0.00636599 -0.0106809 0.0030723)
(-0.00349307 -0.011329 0.00384942)
(-0.00143151 -0.00965228 0.0029627)
(-0.000492223 -0.0110711 0.00321739)
(0.00216906 -0.0132671 0.00297846)
(0.00615938 -0.0107848 0.00196797)
(0.00744365 -0.0024003 0.00212699)
(0.00049803 0.0121786 0.00104781)
(-0.00763424 0.0200411 0.00183779)
(-0.0134047 0.0213925 0.00415051)
(-0.0141704 0.0156984 0.00732514)
(-0.0091653 0.00410857 0.00973163)
(-0.00359476 0.00132365 0.00899816)
(0.00557937 0.000803169 0.0130649)
(0.0130254 0.00392673 0.0130254)
(0.0199338 0.0124898 0.0111874)
(0.0214765 0.0168973 0.00832443)
(0.018896 0.0156791 0.00551559)
(0.0138547 0.00936684 0.00395629)
(0.00913272 0.000132271 0.00401972)
(0.00531727 -0.00817064 0.00569069)
(0.00319587 -0.0109491 0.00781802)
(0.00155953 -0.00962068 0.00844242)
(-0.00186576 -0.0112064 0.00803336)
(-0.00390228 -0.0126011 0.00623625)
(-0.0058778 -0.00755187 0.00332769)
(-0.00915947 0.00345041 0.00235043)
(-0.0139937 0.0143744 0.00316312)
(-0.0178535 0.019281 0.00577307)
(-0.0189726 0.0166363 0.00839785)
(-0.0147228 0.00483095 0.0101465)
(-0.00846402 -0.00843398 0.00857591)
(-0.00400908 -0.0115628 0.00520847)
(0.00483001 -0.0140816 0.00654038)
(0.0103374 -0.00954999 0.0103374)
(0.0159666 -0.00131197 0.012904)
(0.0221523 0.00886669 0.013197)
(0.023921 0.0118407 0.0122031)
(0.0234251 0.00851139 0.0109873)
(0.0217699 0.00232405 0.0107643)
(0.0184734 -0.00292318 0.0114883)
(0.0123672 -0.00522556 0.0125006)
(0.00614345 -0.00414736 0.0129301)
(-0.00436041 -0.00536131 0.012582)
(-0.0117114 -0.00678009 0.0117415)
(-0.0175889 -0.003122 0.0104769)
(-0.0200192 0.00443422 0.00987379)
(-0.0209929 0.0123781 0.0106486)
(-0.0203406 0.0148211 0.012596)
(-0.0171791 0.00835595 0.0132958)
(-0.0107238 -0.00627683 0.01186)
(-0.00801193 -0.0168057 0.00777627)
(-0.0042223 -0.0211132 0.00207941)
(0.00421998 -0.0234833 0.00271181)
(0.00892263 -0.0173226 0.00892263)
(0.0106267 -0.0102218 0.0129857)
(0.0144589 -0.00321993 0.0161314)
(0.0188045 0.00218102 0.0176193)
(0.0214619 0.00257341 0.0177478)
(0.021797 7.09629e-05 0.0173732)
(0.0190695 -0.00207969 0.0169843)
(0.0128929 -0.00209118 0.016643)
(0.00604931 0.00153079 0.0159552)
(-0.00402582 0.00130612 0.0156694)
(-0.0123824 -0.00264146 0.0161176)
(-0.0187611 -0.00207803 0.0165455)
(-0.02103 0.00141971 0.0170816)
(-0.0196847 0.0051567 0.017721)
(-0.0159937 0.0042071 0.0174781)
(-0.0108744 -0.00340814 0.0157606)
(-0.00769144 -0.0128925 0.0119955)
(-0.0077469 -0.0212846 0.00751418)
(-0.00388757 -0.0272192 0.000287591)
(0.00304541 -0.0295708 0.000319539)
(0.00778844 -0.0225442 0.00778844)
(0.00758585 -0.0166847 0.0112685)
(0.00947794 -0.0111948 0.0136767)
(0.0114385 -0.00823076 0.0151554)
(0.0135224 -0.00689522 0.0156395)
(0.0135801 -0.00653371 0.0155261)
(0.0111678 -0.0058501 0.0151689)
(0.00648096 -0.00410748 0.0151258)
(0.001939 -0.000205156 0.0156863)
(-0.00197805 -3.67731e-05 0.0156196)
(-0.00683598 -0.00387554 0.0150006)
(-0.0118192 -0.00541467 0.0151035)
(-0.0140522 -0.00548969 0.0154973)
(-0.0131708 -0.00540804 0.015656)
(-0.00993755 -0.00705815 0.0149821)
(-0.0073878 -0.0109654 0.0132361)
(-0.00573206 -0.0178064 0.0105992)
(-0.00700699 -0.0244529 0.00699459)
(-0.00271161 -0.031624 -0.00100442)
(0.000694985 -0.0320316 -0.00263548)
(0.0049288 -0.0252229 0.0049288)
(0.00270367 -0.0210763 0.00684599)
(0.00364388 -0.0177737 0.0076315)
(0.00433431 -0.0154876 0.00745488)
(0.00563028 -0.013926 0.00683729)
(0.00596474 -0.0123832 0.00617104)
(0.00500541 -0.00983803 0.00590633)
(0.00299674 -0.00672175 0.00682232)
(0.000609745 -0.00325812 0.00960261)
(-0.00164072 -0.00301533 0.00963822)
(-0.00399134 -0.0063201 0.00693791)
(-0.00603233 -0.00929214 0.00603307)
(-0.00675946 -0.0114492 0.00621149)
(-0.00582969 -0.0127753 0.00675818)
(-0.00373342 -0.0144966 0.00723823)
(-0.00255091 -0.0172881 0.00727487)
(-0.00154189 -0.021251 0.006408)
(-0.00429451 -0.025905 0.00448179)
(-0.000393791 -0.0329989 -0.00317487)
(-0.0033953 -0.0273371 -0.00758699)
(-0.00232868 -0.0222795 -0.00232868)
(-0.00720593 -0.020642 -0.00301264)
(-0.00809268 -0.0199471 -0.00448135)
(-0.0085667 -0.0197137 -0.00660444)
(-0.00752898 -0.0195103 -0.00865639)
(-0.0060581 -0.0190273 -0.0102557)
(-0.00444242 -0.0179545 -0.0106525)
(-0.00279544 -0.0166822 -0.00906642)
(-0.00187636 -0.0141354 -0.00406066)
(0.000913181 -0.0140721 -0.00404807)
(0.00205045 -0.016571 -0.00892416)
(0.00369931 -0.0177728 -0.0104053)
(0.00547842 -0.0186829 -0.0100654)
(0.00731296 -0.0190518 -0.0085817)
(0.0087888 -0.0192803 -0.00667254)
(0.00863934 -0.0196853 -0.00467568)
(0.00785712 -0.0206064 -0.00326939)
(0.00285996 -0.0224577 -0.00258091)
(0.00359601 -0.027675 -0.00760099)
(-0.0111857 -0.0181983 -0.0162217)
(-0.0186264 -0.0136435 -0.0186264)
(-0.027277 -0.0113691 -0.0248085)
(-0.0310915 -0.00963928 -0.0308559)
(-0.0328025 -0.00799406 -0.036815)
(-0.0317012 -0.0062429 -0.0420596)
(-0.028362 -0.00425648 -0.0462355)
(-0.0229303 -0.0018988 -0.0489356)
(-0.014898 0.00084858 -0.0490877)
(-0.00698995 0.00437912 -0.0432058)
(0.00669271 0.00439821 -0.0432164)
(0.0146018 0.00090027 -0.0490634)
(0.0225975 -0.00183028 -0.0488786)
(0.0280732 -0.00416203 -0.0461767)
(0.0315658 -0.00612845 -0.0420221)
(0.032885 -0.00788487 -0.0368181)
(0.0313585 -0.00955592 -0.0309022)
(0.0276475 -0.0113157 -0.0248804)
(0.0189349 -0.0136276 -0.018677)
(0.0113673 -0.0182592 -0.0160487)
(-0.00234704 0.00842046 -0.0286653)
(-0.00896706 0.0106481 -0.0215056)
(-0.0166932 0.00944674 -0.0166932)
(-0.0230335 0.00692596 -0.0120101)
(-0.0271693 0.00387648 -0.00910141)
(-0.0282765 0.000969238 -0.00833035)
(-0.0261053 -0.00160879 -0.00898256)
(-0.0208678 -0.0038715 -0.0102848)
(-0.0134178 -0.00601305 -0.0121439)
(-0.00544999 -0.00827366 -0.0138014)
(0.00620958 -0.00822796 -0.0133629)
(0.0144931 -0.00570236 -0.0115416)
(0.0221296 -0.00325597 -0.00989553)
(0.0267795 -0.000629049 -0.00888473)
(0.0277411 0.00228545 -0.00878316)
(0.0250738 0.00541418 -0.00998196)
(0.0196276 0.00834048 -0.0121949)
(0.0128651 0.0107321 -0.0138715)
(0.00581001 0.0123375 -0.0120756)
(0.00120816 0.0105758 -0.0145772)
(-0.000438664 0.0176628 -0.00802535)
(-0.00149773 0.0203094 -0.00386757)
(-0.00366717 0.0192728 -0.00366717)
(-0.00807573 0.0162074 -0.00284148)
(-0.0131919 0.0110441 -0.00177573)
(-0.0167758 0.00485628 -0.00116506)
(-0.017253 -0.00126705 -0.00114085)
(-0.0142387 -0.00618129 -0.00210416)
(-0.00897008 -0.00995736 -0.00317359)
(-0.00348972 -0.0127252 -0.00390484)
(0.00225549 -0.0129569 -0.00369721)
(0.00830853 -0.00955306 -0.00304777)
(0.0139596 -0.00479867 -0.00199582)
(0.0161124 0.00125796 -0.00149339)
(0.0139999 0.00768254 -0.00156839)
(0.00816323 0.0132641 -0.00138344)
(0.00124163 0.0167974 -5.95966e-05)
(-0.00245552 0.0178061 0.00252489)
(-0.00200483 0.0188641 0.00577939)
(-0.000112944 0.0204711 0.00459659)
(0.0020703 0.0222095 0.0120316)
(0.00672933 0.0213878 0.0130029)
(0.0103647 0.0207208 0.0103647)
(0.00994046 0.0196769 0.00711799)
(0.00607388 0.0165088 0.0045006)
(8.30729e-05 0.0103752 0.00288057)
(-0.00549258 0.000269906 0.00222806)
(-0.00653027 -0.00840044 0.00163541)
(-0.00396718 -0.0136342 0.00213216)
(-0.00150518 -0.016285 0.00266504)
(-0.000163495 -0.0169465 0.00253451)
(0.00257262 -0.0137251 0.00117148)
(0.00560316 -0.00688787 0.000743936)
(0.00214914 0.00487097 0.00131202)
(-0.00447861 0.0133445 0.0029007)
(-0.010432 0.0172558 0.00576406)
(-0.0135411 0.0175054 0.00930873)
(-0.012169 0.015473 0.012801)
(-0.00677505 0.01566 0.0147988)
(-0.00138888 0.0219838 0.0132841)
(0.00414887 0.0165963 0.0200268)
(0.0111874 0.0124898 0.0199338)
(0.0176523 0.0128804 0.0176523)
(0.0206078 0.0151099 0.0142237)
(0.0197794 0.0153306 0.0106214)
(0.0161737 0.0122024 0.00733077)
(0.0113557 0.00545654 0.00528216)
(0.00651379 -0.00372641 0.00493889)
(0.00338343 -0.0111572 0.00652674)
(0.0016226 -0.01426 0.00813512)
(-0.00245034 -0.015124 0.00765158)
(-0.00475747 -0.0116085 0.0051258)
(-0.00785732 -0.00249617 0.00327676)
(-0.0122801 0.00785192 0.00459058)
(-0.0168903 0.0140807 0.00759666)
(-0.0197196 0.015233 0.0111179)
(-0.0196228 0.0118386 0.0141956)
(-0.0155814 0.00593716 0.0160455)
(-0.00991636 0.00533175 0.0151833)
(-0.00377446 0.0158154 0.0142337)
(0.00629808 -0.000464848 0.0132944)
(0.012904 -0.00131197 0.0159666)
(0.0182523 0.00121535 0.0182523)
(0.0228024 0.00721938 0.018377)
(0.02449 0.0110445 0.0169619)
(0.0238814 0.0106869 0.0146639)
(0.0215706 0.00640627 0.0128013)
(0.0185113 0.000349598 0.0123057)
(0.0127642 -0.00469084 0.012792)
(0.00629451 -0.00695576 0.0137924)
(-0.00508687 -0.00804308 0.0134529)
(-0.0122671 -0.00589561 0.0120861)
(-0.0176159 0.000505901 0.0114634)
(-0.0202811 0.00790025 0.0123313)
(-0.02205 0.0121245 0.0147202)
(-0.0219128 0.010861 0.0169499)
(-0.0194407 0.00444794 0.0174697)
(-0.015458 -0.00332506 0.0152963)
(-0.012127 -0.00590001 0.010652)
(-0.00656365 -0.00393867 0.00551875)
(0.00587438 -0.0165104 0.00325812)
(0.0129857 -0.0102218 0.0106267)
(0.015993 -0.00559677 0.015993)
(0.0190621 0.000439982 0.0198046)
(0.0219608 0.00593399 0.0214182)
(0.0236007 0.00812249 0.0213168)
(0.0235331 0.00686091 0.0203939)
(0.0214616 0.00437303 0.0195203)
(0.0159337 0.00302008 0.0191481)
(0.0082685 0.00470724 0.0186821)
(-0.00531724 0.00436331 0.018317)
(-0.014673 0.00227323 0.0185444)
(-0.0201954 0.00419222 0.0189791)
(-0.021937 0.00756828 0.0199607)
(-0.0214771 0.00899227 0.0209487)
(-0.0192779 0.00583144 0.0207887)
(-0.0163587 -0.00100667 0.0184586)
(-0.0141255 -0.00820411 0.0137405)
(-0.0122958 -0.0128016 0.0074881)
(-0.00545922 -0.0183146 -0.000849763)
(0.00327348 -0.0263583 -0.00188983)
(0.0112685 -0.0166847 0.00758585)
(0.0129668 -0.0106342 0.0129668)
(0.0153062 -0.00441767 0.0167197)
(0.0172627 0.000365369 0.0191347)
(0.0191912 0.00342665 0.0200902)
(0.0191397 0.00440894 0.0197246)
(0.0165589 0.00461704 0.0189062)
(0.0110464 0.00535523 0.0184521)
(0.00474855 0.00851311 0.018802)
(-0.00319551 0.00864532 0.0187197)
(-0.01025 0.00531924 0.0181863)
(-0.0159753 0.00460922 0.0186585)
(-0.0183938 0.0048165 0.0194536)
(-0.0179151 0.00394986 0.0196593)
(-0.0154755 0.000510952 0.0183399)
(-0.0134786 -0.00502221 0.0155437)
(-0.0115562 -0.011824 0.0114147)
(-0.0106777 -0.01793 0.0057854)
(-0.00292127 -0.0274335 -0.00391945)
(-0.000433843 -0.0317384 -0.00690485)
(0.00684599 -0.0210763 0.00270367)
(0.00640809 -0.0147008 0.00640809)
(0.00851648 -0.00895077 0.00836108)
(0.00994442 -0.00405511 0.00876423)
(0.0117438 0.000105558 0.00879606)
(0.0125538 0.00347696 0.00926568)
(0.0110818 0.00613481 0.00955676)
(0.00767075 0.0084302 0.0105381)
(0.00316532 0.0116121 0.0130475)
(-0.00265369 0.0118629 0.0131991)
(-0.0075108 0.00864066 0.0107163)
(-0.0110933 0.00634755 0.00973901)
(-0.0125316 0.00399723 0.00938615)
(-0.0113001 0.000756667 0.00864557)
(-0.00895685 -0.00358273 0.00825057)
(-0.00735587 -0.00883858 0.00759665)
(-0.00537917 -0.0149315 0.00552745)
(-0.00630844 -0.0214362 0.00182478)
(0.000699451 -0.0322269 -0.00769723)
(-0.00567766 -0.0289379 -0.0135399)
(-0.00301264 -0.020642 -0.00720593)
(-0.00707545 -0.0167391 -0.00707545)
(-0.00661137 -0.0138288 -0.00826123)
(-0.00611087 -0.0114397 -0.0103133)
(-0.00429221 -0.00912065 -0.0120623)
(-0.00264728 -0.00689684 -0.0128196)
(-0.00085059 -0.00452793 -0.0109027)
(0.000543097 -0.0023253 -0.00668933)
(0.000442223 0.00297501 -0.000838562)
(-0.000643412 0.00317117 -0.000584038)
(-0.000795852 -0.0021124 -0.00616393)
(0.000575141 -0.00436974 -0.0102956)
(0.00251373 -0.00665248 -0.0123886)
(0.00447632 -0.00880844 -0.0118828)
(0.00658445 -0.0111433 -0.0103795)
(0.00723536 -0.0136477 -0.00852106)
(0.00765979 -0.016696 -0.00741371)
(0.0034358 -0.0206949 -0.00752208)
(0.00581578 -0.0290711 -0.0135927)
(-0.0156207 -0.0187253 -0.0238613)
(-0.0248085 -0.0113691 -0.027277)
(-0.0346599 -0.00735702 -0.0346599)
(-0.0387043 -0.00417948 -0.0421932)
(-0.0402815 -0.00136329 -0.0495351)
(-0.0387576 0.00131314 -0.0559198)
(-0.0347906 0.00393153 -0.0608217)
(-0.0285938 0.00665272 -0.0638326)
(-0.0194251 0.00953083 -0.0637375)
(-0.00924663 0.0129854 -0.0561201)
(0.00921109 0.0129916 -0.0560524)
(0.0194282 0.00956426 -0.0636096)
(0.0285869 0.00669832 -0.0637025)
(0.0347782 0.00398672 -0.060694)
(0.0388201 0.00137996 -0.0558323)
(0.040467 -0.00129808 -0.0495305)
(0.0389887 -0.0041267 -0.0422764)
(0.0349877 -0.0073142 -0.0347924)
(0.0250569 -0.0113378 -0.0273843)
(0.0157646 -0.01873 -0.0236678)
(-0.00145539 0.0037951 -0.0336603)
(-0.00556145 0.00655013 -0.0281095)
(-0.0120101 0.00692596 -0.0230335)
(-0.0178276 0.00578074 -0.0178276)
(-0.0224154 0.00376635 -0.0138462)
(-0.0249567 0.00138784 -0.011951)
(-0.0247626 -0.00115021 -0.0115578)
(-0.0212914 -0.0037791 -0.0118382)
(-0.0147028 -0.00678239 -0.0125347)
(-0.00620441 -0.0101888 -0.0133047)
(0.00675932 -0.0101341 -0.0130712)
(0.0153327 -0.00649644 -0.0125264)
(0.0217653 -0.00341957 -0.0121674)
(0.0246799 -0.000799142 -0.0120498)
(0.0243044 0.00166586 -0.0126743)
(0.0214049 0.00405285 -0.0147457)
(0.0168548 0.00626317 -0.0178394)
(0.0111965 0.00799328 -0.0205924)
(0.00515691 0.00922347 -0.0223017)
(0.00149168 0.00756644 -0.0279837)
(-0.00018919 0.00880262 -0.0168051)
(-0.00102767 0.0148404 -0.0108686)
(-0.00284148 0.0162074 -0.00807573)
(-0.00561005 0.015452 -0.00561005)
(-0.00923735 0.0125439 -0.00371804)
(-0.0125997 0.00782137 -0.00297962)
(-0.0141978 0.00191943 -0.00295961)
(-0.0130703 -0.0043168 -0.00359173)
(-0.00902046 -0.0102564 -0.00419787)
(-0.00371127 -0.0155358 -0.00435017)
(0.00246396 -0.0155871 -0.00418502)
(0.00799862 -0.00972535 -0.00425793)
(0.0120254 -0.00321033 -0.00385349)
(0.0125106 0.00316687 -0.00320827)
(0.00997814 0.00853268 -0.00258175)
(0.00577126 0.0123913 -0.00236685)
(0.00194244 0.0147666 -0.00211352)
(-0.000125526 0.0164542 -0.00118028)
(0.000412557 0.018581 -0.000850587)
(0.00108659 0.0170359 -0.00771279)
(0.000506794 0.018235 0.00558895)
(0.00369986 0.0204228 0.00994595)
(0.00711799 0.0196769 0.00994046)
(0.00828068 0.0183796 0.00828068)
(0.00697079 0.0158752 0.00613781)
(0.00356483 0.0115308 0.00397957)
(-0.000705364 0.00464948 0.00227616)
(-0.0040982 -0.00512259 0.000674578)
(-0.0030935 -0.0134376 0.000598678)
(-0.00142274 -0.0195946 0.00144739)
(-0.0004051 -0.0198628 0.00144815)
(0.00121475 -0.0130835 0.000257421)
(0.00144902 -0.00347596 0.000256569)
(-0.00284661 0.00588877 0.00232882)
(-0.00736754 0.0114865 0.0052048)
(-0.0106044 0.0144023 0.00847618)
(-0.0112798 0.0158039 0.0116435)
(-0.00889349 0.0172885 0.0140226)
(-0.00389156 0.0209751 0.0138994)
(0.000127012 0.0245693 0.00888325)
(0.00245375 0.0186731 0.0194713)
(0.00832443 0.0168973 0.0214765)
(0.0142237 0.0151099 0.0206078)
(0.0178777 0.0147643 0.0178777)
(0.0187219 0.0141329 0.0144254)
(0.0170179 0.0118136 0.0107791)
(0.0135042 0.00689649 0.00750142)
(0.00916406 -0.00111574 0.00527924)
(0.00486799 -0.010322 0.00538525)
(0.0018526 -0.0170354 0.00675425)
(-0.00300834 -0.0175442 0.00659176)
(-0.00640614 -0.0106988 0.00497992)
(-0.0106331 -0.000799225 0.00493485)
(-0.0147103 0.00725132 0.00767069)
(-0.0179795 0.011256 0.0114262)
(-0.0192071 0.0121379 0.0151552)
(-0.0178076 0.0114725 0.0182511)
(-0.0137256 0.011918 0.0200182)
(-0.00815301 0.0165605 0.0192841)
(-0.00227682 0.0240454 0.0163101)
(0.00618195 0.0110579 0.0208899)
(0.013197 0.00886669 0.0221523)
(0.018377 0.00721938 0.0228024)
(0.022086 0.00838731 0.022086)
(0.0238908 0.0100692 0.0202315)
(0.0237205 0.0100238 0.017533)
(0.0216712 0.00709955 0.0147155)
(0.0185746 0.00158067 0.0128706)
(0.0129459 -0.00506508 0.0120541)
(0.00614525 -0.00992459 0.012668)
(-0.00534476 -0.010816 0.0125435)
(-0.0126157 -0.00612729 0.0118049)
(-0.0179919 0.00128997 0.0125491)
(-0.0209151 0.00711544 0.0145797)
(-0.0225973 0.00941977 0.0174511)
(-0.0224226 0.00827017 0.0197175)
(-0.0205476 0.00564429 0.0205503)
(-0.017583 0.00485532 0.0194754)
(-0.0134425 0.00877501 0.0173246)
(-0.00645584 0.0152879 0.0158008)
(0.00789628 -0.0124956 0.00792091)
(0.0161314 -0.00321993 0.0144589)
(0.0198046 0.000439982 0.0190621)
(0.02205 0.00405505 0.02205)
(0.0235365 0.00737402 0.0230691)
(0.0242639 0.00915036 0.022605)
(0.0236424 0.00839472 0.0213324)
(0.0214622 0.00590841 0.0201376)
(0.016336 0.00342162 0.0195786)
(0.00869307 0.00287503 0.0193016)
(-0.00565989 0.00229577 0.0190562)
(-0.0148181 0.00242103 0.0191689)
(-0.0200197 0.00528372 0.0196992)
(-0.022122 0.00806221 0.0208275)
(-0.0224835 0.0085429 0.0218878)
(-0.0215749 0.00617523 0.0218731)
(-0.0204283 0.0025412 0.020003)
(-0.0189738 -0.000834606 0.0161078)
(-0.016113 -0.00346272 0.0108204)
(-0.00774936 -0.0117512 0.00430901)
(0.00350809 -0.0247907 -0.000697114)
(0.0136767 -0.0111948 0.00947794)
(0.0167197 -0.00441767 0.0153062)
(0.0191625 0.00117887 0.0191625)
(0.0202886 0.00512687 0.0212316)
(0.0210274 0.00755072 0.0217941)
(0.0205484 0.00818259 0.0214675)
(0.0181246 0.00777198 0.0209136)
(0.0129458 0.00754408 0.0208075)
(0.00618654 0.00948766 0.0214501)
(-0.0037052 0.00944026 0.0214949)
(-0.0114293 0.00713477 0.0206816)
(-0.0168227 0.00719689 0.0206608)
(-0.0192311 0.00769326 0.0209963)
(-0.019484 0.00698565 0.0209739)
(-0.018641 0.00439525 0.0199779)
(-0.0177521 0.000306013 0.0174938)
(-0.0158015 -0.00504791 0.0134253)
(-0.0133478 -0.0112609 0.00753435)
(-0.00323767 -0.0245906 -0.00266629)
(-0.00154102 -0.032634 -0.00749763)
(0.0076315 -0.0177737 0.00364388)
(0.00836108 -0.00895077 0.00851648)
(0.011116 -0.00142368 0.011116)
(0.01286 0.00445963 0.0122968)
(0.0139163 0.00813005 0.012415)
(0.0138032 0.0102178 0.0125032)
(0.0121585 0.0114893 0.0129529)
(0.00882195 0.0125568 0.0142177)
(0.00416574 0.0151356 0.0167155)
(-0.00257477 0.0152235 0.0169843)
(-0.00769506 0.0123763 0.0145028)
(-0.0112229 0.0111292 0.0131145)
(-0.0128926 0.00991904 0.0124151)
(-0.0128402 0.00788169 0.0119476)
(-0.0116451 0.00425319 0.0114518)
(-0.0100683 -0.00155194 0.0101355)
(-0.00754092 -0.0089452 0.0075553)
(-0.00722937 -0.0175978 0.00285138)
(0.00173564 -0.0325044 -0.00810938)
(-0.00776615 -0.0312856 -0.0153906)
(-0.00448135 -0.0199471 -0.00809268)
(-0.00826123 -0.0138288 -0.00661137)
(-0.00679398 -0.00879359 -0.00679398)
(-0.00541368 -0.00437474 -0.00780643)
(-0.00240286 -0.000458648 -0.00741824)
(-0.00102389 0.00222291 -0.00738161)
(-0.00038949 0.00387795 -0.00621929)
(0.000293976 0.00496968 -0.0032591)
(0.000642298 0.00917907 0.00219212)
(9.89024e-05 0.00920066 0.00245719)
(0.000405534 0.00496018 -0.0027096)
(0.00108505 0.00371675 -0.0057725)
(0.00169902 0.00208899 -0.00714436)
(0.00312201 -0.000528864 -0.00746569)
(0.0060595 -0.00432725 -0.00804186)
(0.00735024 -0.00865755 -0.00716467)
(0.0086946 -0.013686 -0.00696952)
(0.00477891 -0.0198117 -0.00832043)
(0.00785236 -0.0311828 -0.0152693)
(-0.0196107 -0.0195614 -0.0270456)
(-0.0308559 -0.00963928 -0.0310915)
(-0.0421932 -0.00417948 -0.0387043)
(-0.0465186 -2.7232e-05 -0.0465186)
(-0.047856 0.00336561 -0.053953)
(-0.0457502 0.00622755 -0.0601639)
(-0.0408221 0.00863085 -0.0645046)
(-0.033637 0.0110917 -0.0672611)
(-0.0232217 0.0138815 -0.0674807)
(-0.01134 0.0178879 -0.0609131)
(0.0115756 0.0178822 -0.0608403)
(0.0234922 0.0138809 -0.067331)
(0.0338961 0.0110874 -0.0671186)
(0.0410106 0.00862351 -0.06436)
(0.0459038 0.00623237 -0.0600521)
(0.0480257 0.00338559 -0.0539219)
(0.0467279 8.08711e-06 -0.0465842)
(0.0424294 -0.00412902 -0.038808)
(0.0310332 -0.00958127 -0.0311272)
(0.0197138 -0.0195072 -0.0266884)
(-0.00157114 0.000947002 -0.0336761)
(-0.00418213 0.00265653 -0.0310716)
(-0.00910141 0.00387648 -0.0271693)
(-0.0138462 0.00376635 -0.0224154)
(-0.0182263 0.00264547 -0.0182263)
(-0.0212542 0.000882927 -0.0155171)
(-0.0222716 -0.00137645 -0.0140694)
(-0.0201338 -0.00420888 -0.012945)
(-0.0146293 -0.00794503 -0.011926)
(-0.00626746 -0.0121011 -0.011303)
(0.00611731 -0.0121367 -0.0111841)
(0.0144758 -0.00792901 -0.0122043)
(0.0197395 -0.00433881 -0.0135937)
(0.0218071 -0.00181082 -0.0148077)
(0.0208676 0.000211018 -0.0161459)
(0.0181617 0.00210569 -0.0187118)
(0.0140108 0.00379607 -0.0220764)
(0.00930386 0.00485568 -0.0256318)
(0.00406027 0.00505797 -0.0285977)
(0.0013736 0.00324065 -0.0329459)
(0.000701015 0.000756911 -0.0205986)
(1.92453e-05 0.0073277 -0.0171148)
(-0.00177573 0.0110441 -0.0131919)
(-0.00371804 0.0125439 -0.00923735)
(-0.00635744 0.0117127 -0.00635744)
(-0.00897674 0.00837614 -0.00503899)
(-0.0107322 0.00296053 -0.00482954)
(-0.0101582 -0.00388208 -0.00478107)
(-0.00761927 -0.0112734 -0.0043026)
(-0.00338063 -0.0179243 -0.00364633)
(0.00165305 -0.0180073 -0.00341206)
(0.00589629 -0.0112122 -0.00416572)
(0.00822964 -0.00381321 -0.00482404)
(0.00878791 0.00268815 -0.00464746)