/*--------------------------------*- C++ -*----------------------------------*\
| =========                 |                                                 |
| \\      /  F ield         | OpenFOAM: The Open Source CFD Toolbox           |
|  \\    /   O peration     | Version:  v1912                                 |
|   \\  /    A nd           | Website:  www.openfoam.com                      |
|    \\/     M anipulation  |                                                 |
\*---------------------------------------------------------------------------*/
FoamFile
{
    version     2.0;
    format      ascii;
    class       volScalarField;
    location    "360";
    object      epsilon;
}
// * * * * * * * * * * * * * * * * * * * * * * * * * * * * * * * * * * * * * //

dimensions      [0 2 -3 0 0 0 0];


internalField   nonuniform List<scalar> 
12441
(
0.0102963
0.00908478
0.00832692
0.00770249
0.00718355
0.00674888
0.00638219
0.00607071
0.00580479
0.00557629
0.00537896
0.00520865
0.00504754
0.00492044
0.00480157
0.00469887
0.00486336
0.0200293
0.27194
3.02179
20.9568
39.25
0.0101187
0.00891984
0.00818372
0.00757665
0.00707172
0.00664848
0.00629121
0.00598759
0.00572832
0.0055055
0.00531312
0.00514726
0.00498902
0.00486551
0.00475008
0.00465194
0.00479477
0.0197689
0.256112
3.01407
21.2474
40.2318
0.00989669
0.00871707
0.00800003
0.00740884
0.00691725
0.00650533
0.00615774
0.00586252
0.00561061
0.00539435
0.00520791
0.00504759
0.00489418
0.00477646
0.00466586
0.00457293
0.0046456
0.0179214
0.216945
2.98332
21.6272
41.3784
0.00967311
0.00851343
0.00781465
0.00723859
0.00675966
0.00635843
0.00601998
0.00573267
0.00548767
0.00527756
0.00509668
0.00494142
0.00479388
0.00468007
0.0045749
0.00448734
0.00450495
0.0157005
0.178652
2.96075
22.0952
42.5504
0.00942889
0.00828882
0.00760877
0.00704833
0.00658257
0.00619258
0.0058638
0.00558497
0.00534746
0.00514411
0.00496944
0.00482004
0.00467772
0.00457038
0.00447065
0.00439006
0.00435722
0.0137044
0.159101
2.96759
22.6127
43.6698
0.00922291
0.0080992
0.00743436
0.00688653
0.00643134
0.00605026
0.00572908
0.0054568
0.00522497
0.00502664
0.00485645
0.00471108
0.00457392
0.00446947
0.0043746
0.0042982
0.00428235
0.0138435
0.178672
3.07394
23.2421
44.7472
0.00900226
0.00789561
0.00724722
0.00671311
0.00626948
0.00589826
0.00558558
0.00532071
0.00509544
0.00490298
0.00473817
0.0045978
0.00446481
0.00436673
0.00427453
0.00420537
0.00603681
0.0229264
0.284113
3.3735
24.0829
45.7945
0.0088238
0.00773095
0.0070954
0.00657189
0.0061371
0.00577329
0.00546686
0.00520733
0.00498663
0.00479815
0.00463682
0.00449953
0.0043711
0.00427465
0.00419167
0.00516896
0.0344136
0.0793828
0.596612
4.00465
25.2579
46.8732
0.00862967
0.00755176
0.00693072
0.00641932
0.00599473
0.00563962
0.00534069
0.00508769
0.00487275
0.00468941
0.00453274
0.00439973
0.00427508
0.004144
0.00539529
0.0269681
0.175281
0.297494
1.28024
5.11666
26.8972
48.0153
0.00847497
0.00740887
0.00679881
0.00629647
0.0058794
0.00553056
0.0052369
0.00498836
0.00477721
0.00459713
0.00444329
0.00431296
0.00419273
0.00427403
0.0252118
0.148552
0.520474
0.788521
2.35975
6.76744
29.095
49.2846
0.00830554
0.00725242
0.00665509
0.00616337
0.00575525
0.00541404
0.00512695
0.00488413
0.004678
0.00450238
0.00435255
0.0042268
0.00407823
0.00950941
0.113222
0.426063
1.02038
1.49773
3.62596
8.85475
31.8773
50.6975
0.00817051
0.00712771
0.00653995
0.00605608
0.00565446
0.00531865
0.00503606
0.00479704
0.00459412
0.00442124
0.00427377
0.00415145
0.0041563
0.0483164
0.315619
0.789492
1.50116
2.21376
4.82237
11.1651
35.1904
52.295
0.00802139
0.00699006
0.00641364
0.00593924
0.00554558
0.00521657
0.00493982
0.00470587
0.00450738
0.00433842
0.00419444
0.00403754
0.00835274
0.163242
0.578432
1.11219
1.86737
2.79212
5.82715
13.486
38.9256
54.0597
0.00790049
0.00687842
0.00631056
0.00584319
0.00545534
0.00513115
0.00485844
0.0046279
0.00443228
0.00426579
0.00412394
0.00388187
0.0368886
0.335577
0.807504
1.34667
2.12161
3.21522
6.63494
15.6722
42.9477
56.0037
0.00776911
0.00675707
0.00619924
0.00574021
0.0053594
0.00504119
0.00477361
0.00454751
0.00435577
0.00419267
0.00405382
0.004265
0.111674
0.504931
0.976882
1.50928
2.29717
3.51935
7.28334
17.6521
47.1259
58.0812
0.00766003
0.00665639
0.00610629
0.00565361
0.00527803
0.00496418
0.00470025
0.00447723
0.0042881
0.00412725
0.00399039
0.00948347
0.218277
0.640284
1.0969
1.62389
2.42212
3.74331
7.81346
19.4044
51.3463
60.2902
0.0075441
0.00654934
0.00600815
0.00556288
0.00519352
0.00488494
0.00462551
0.00440635
0.00422056
0.00406261
0.00392873
0.0322696
0.325446
0.741496
1.18361
1.70772
2.51491
3.91535
8.25832
20.9364
55.5233
62.571
0.00744257
0.00645575
0.00592185
0.00548258
0.00511821
0.0048138
0.00455788
0.00434171
0.00415849
0.00400277
0.00387351
0.0807393
0.415874
0.816981
1.24865
1.77167
2.58704
4.054
8.64189
22.2673
59.5956
64.9213
0.00733997
0.00636086
0.0058348
0.00540203
0.00504309
0.00474326
0.00449123
0.00427838
0.00409802
0.00394477
0.00380988
0.142915
0.487124
0.874922
1.29949
1.82252
2.64572
4.17119
8.98085
23.4197
63.5284
67.2818
0.00724532
0.0062737
0.00575449
0.00532737
0.00497316
0.00467729
0.00442862
0.00421866
0.00404078
0.00388973
0.00428275
0.203851
0.542725
0.921072
1.34081
1.8646
2.69567
4.27459
9.28652
24.416
67.3054
69.6617
0.00715511
0.00619022
0.00567787
0.00525641
0.00490688
0.00461493
0.00436956
0.00416237
0.00398684
0.00383787
0.00996315
0.257135
0.58705
0.959208
1.37564
1.9008
2.74007
4.36911
9.5664
25.2766
70.9299
72.0102
0.00706432
0.00610678
0.00560117
0.00518531
0.0048405
0.00455255
0.0043106
0.00410638
0.00393344
0.00378724
0.0284493
0.301834
0.623542
0.991786
1.40603
1.93309
2.78118
4.45776
9.82531
26.0193
74.4183
74.3523
0.00698505
0.00603319
0.00553347
0.00512242
0.00478156
0.00449688
0.00425765
0.00405569
0.00388466
0.00374219
0.0594009
0.339171
0.654587
1.02045
1.4334
1.9629
2.82058
4.54219
10.0663
26.6602
77.8025
76.6493
0.00689854
0.00595378
0.00546056
0.00505497
0.00471873
0.00443799
0.00420217
0.00400319
0.00383475
0.00370247
0.094365
0.370712
0.681794
1.04634
1.45878
1.9913
2.85938
4.62322
10.2913
27.2133
81.1246
78.9445
0.00683028
0.00589031
0.00540207
0.00500046
0.00466742
0.00438928
0.00415555
0.00395826
0.00379123
0.00368407
0.127197
0.397906
0.70625
1.07028
1.48294
2.01903
2.89822
4.70118
10.5016
27.6914
84.4399
81.212
0.00674457
0.00581191
0.0053304
0.00493449
0.00460633
0.00433241
0.00410235
0.00390828
0.0037441
0.0036455
0.156116
0.421914
0.728709
1.09289
1.50644
2.04664
2.93735
4.77627
10.6981
28.1053
87.8117
83.5114
0.00668544
0.00575661
0.00527914
0.00488642
0.00456075
0.0042888
0.0040603
0.00386746
0.00370432
0.00384499
0.181467
0.443591
0.749705
1.11462
1.5297
2.07447
2.97678
4.84863
10.8816
28.4648
91.3125
85.8273
0.0066017
0.00568016
0.00520941
0.00482243
0.00450174
0.00423409
0.00400937
0.00381986
0.00365972
0.0058189
0.204099
0.463557
0.769633
1.13582
1.55299
2.10266
3.01639
4.91844
11.0528
28.778
95.0173
88.2307
0.00655205
0.00563346
0.00516588
0.00478128
0.00446234
0.00419599
0.00397222
0.00378339
0.00362419
0.0113038
0.224769
0.482248
0.788785
1.15673
1.57648
2.13126
3.05601
4.98589
11.2124
29.0519
99.0027
90.7106
0.00646794
0.005557
0.0050965
0.00471801
0.00440439
0.0041427
0.003923
0.00373777
0.00358273
0.0213866
0.244022
0.499981
0.807384
1.17752
1.60025
2.16022
3.09552
5.05119
11.3612
29.2921
103.338
93.3406
0.00642573
0.00551688
0.0050587
0.00468184
0.00436934
0.00410839
0.00388919
0.00370425
0.00355168
0.0362062
0.262214
0.516987
0.825594
1.19832
1.62431
2.18946
3.13483
5.11452
11.4999
29.5035
108.085
96.1058
0.00634325
0.00544203
0.00499094
0.00462024
0.00431313
0.00405693
0.00384188
0.00366063
0.00351576
0.0548544
0.279572
0.533436
0.843535
1.21917
1.64863
2.21889
3.17388
5.17604
11.6292
29.6905
113.29
99.0732
0.00630959
0.0054097
0.00496011
0.00459028
0.00428359
0.00402748
0.00381233
0.00363083
0.00349483
0.0759903
0.296241
0.549456
0.861291
1.24011
1.67316
2.24843
3.21266
5.23588
11.7499
29.8573
118.986
102.217
0.00622509
0.0053334
0.00489144
0.00452831
0.00422753
0.00397663
0.00376607
0.00358863
0.00347381
0.0983076
0.312311
0.56514
0.878914
1.26114
1.69784
2.27801
3.25114
5.29414
11.8628
30.008
125.196
105.592
0.00619827
0.00530714
0.00486588
0.00450287
0.00420184
0.00395047
0.00373932
0.00356125
0.00347888
0.120813
0.327842
0.580552
0.896431
1.28222
1.7226
2.30757
3.28932
5.35091
11.9686
30.1464
131.931
109.157
0.00611127
0.00522899
0.00479596
0.00444022
0.0041456
0.00389989
0.00369371
0.00351999
0.00355049
0.142786
0.342861
0.595737
0.913849
1.30333
1.74738
2.33706
3.32719
5.40621
12.0681
30.2764
139.199
112.957
0.00608774
0.00520567
0.00477292
0.0044169
0.00412167
0.00387517
0.00366816
0.00349365
0.00632158
0.163692
0.357373
0.610716
0.931157
1.32442
1.77212
2.36643
3.36474
5.46006
12.1621
30.4008
147
116.938
0.00599573
0.00512362
0.00470001
0.00435204
0.0040639
0.00382362
0.00362204
0.00345229
0.0283051
0.183023
0.371362
0.625495
0.948331
1.34544
1.79674
2.39563
3.40195
5.51244
12.2515
30.5216
155.319
121.137
0.00596744
0.0050962
0.0046734
0.00432558
0.00403718
0.00379644
0.00359437
0.0034247
0.0576697
0.200048
0.384798
0.640064
0.965334
1.36633
1.82118
2.42462
3.43878
5.56333
12.3372
30.6394
164.102
125.495
0.00586274
0.00500324
0.00459117
0.00425277
0.00397267
0.00373922
0.00354349
0.00338448
0.0759216
0.214438
0.397644
0.654401
0.982122
1.38702
1.84538
2.45334
3.47519
5.61267
12.4201
30.7535
173.217
130.045
0.00582117
0.00496383
0.0045537
0.00421643
0.00393695
0.00370386
0.00350844
0.00335518
0.0865707
0.22641
0.409871
0.668473
0.998643
1.40743
1.86927
2.48172
3.51109
5.66041
12.5011
30.8625
182.394
134.727
0.00569952
0.00485624
0.00445856
0.00413196
0.00386173
0.00363673
0.0034484
0.00364097
0.0932149
0.236351
0.421458
0.682235
1.01484
1.42749
1.89276
2.5097
3.54642
5.7065
12.5806
30.9656
191.153
139.588
0.00561724
0.00478976
0.00440414
0.00408589
0.00382129
0.00359995
0.0034138
0.00430692
0.0976373
0.244633
0.432395
0.695637
1.03067
1.44709
1.91577
2.53717
3.58104
5.75092
12.659
31.0629
198.799
144.654
0.00525477
0.0044604
0.00411208
0.00382652
0.0035893
0.00339078
0.00322366
0.00462158
0.100712
0.251546
0.442678
0.708615
1.04607
1.46613
1.93819
2.56403
3.61484
5.79374
12.7357
31.1565
204.524
150.447
95.0235
52.8817
35.8428
28.195
26.7113
22.2937
21.2806
19.0634
17.8809
17.1767
16.5838
15.9126
17.1633
20.3013
25.0725
29.7942
32.6893
33.9076
34.5652
34.8897
35.4937
36.6659
37.8023
38.3194
38.2238
37.33
35.7284
34.3236
35.9023
50.9014
9.30931
4.29396
4.04851
3.73657
3.31517
94.6475
52.9251
35.9699
28.6086
27.3436
22.7373
21.7112
19.4004
18.1874
17.4382
16.7167
16.0301
17.2963
20.4523
25.2443
29.9987
32.9749
34.268
34.9391
35.2718
35.9152
37.1205
38.3128
38.8892
38.8444
37.9478
36.2575
34.7201
36.3212
51.2747
9.38131
4.29137
4.04372
3.73167
3.31101
93.9266
52.9851
36.2133
29.4425
28.6036
23.6314
22.5562
20.0587
18.7916
17.9525
16.9943
16.2784
17.5719
20.768
25.6186
30.4134
33.5145
34.9817
35.7423
36.1261
36.8403
38.0759
39.3492
40.0307
40.0936
39.2096
37.3526
35.5438
37.1921
49.9135
9.43315
4.28624
4.03411
3.7219
3.3027
92.8104
53.0486
36.5855
30.7374
30.482
24.9802
23.7846
21.0165
19.682
18.714
17.4542
16.7004
18.0349
21.3073
26.2892
31.1581
34.4272
36.1895
37.1792
37.6904
38.4724
39.6814
41.0166
41.8218
42.0419
41.2006
39.1161
36.8717
38.5732
48.0402
9.49167
4.27884
4.01972
3.70727
3.29027
91.3035
53.1021
37.1047
32.5241
32.9543
26.7779
25.3668
22.2629
20.8521
19.7206
18.1397
17.3505
18.7423
22.1336
27.3577
32.4029
35.9185
38.1396
39.6049
40.3805
41.1659
42.1946
43.4947
44.3936
44.8032
44.048
41.697
38.8192
40.5534
46.4589
9.58566
4.26952
4.00058
3.6878
3.27374
89.3553
53.1335
37.796
34.8367
36.0107
29.0297
27.2939
23.805
22.3106
20.9839
19.0948
18.2856
19.7512
23.3021
28.9041
34.3236
38.276
41.2184
43.5768
44.8762
45.5189
46.0545
47.0882
47.964
48.5561
47.9359
45.3064
41.554
43.2601
45.6272
9.74433
4.25881
3.97672
3.66354
3.25316
87.0012
53.1324
38.6928
37.7202
39.6585
31.759
29.5829
25.6699
24.0857
22.537
20.3703
19.5692
21.1277
24.882
31.0068
37.0826
41.8454
45.9701
49.9095
52.2463
52.5306
52.0072
52.3101
52.8913
53.5795
53.1279
50.239
45.3155
46.8703
45.8337
9.99792
4.24727
3.94819
3.63452
3.22856
84.2135
53.0893
39.8383
41.2178
43.904
35.0002
32.2702
27.9007
26.2236
24.4357
22.0353
21.2839
22.9676
26.9936
33.7963
40.8695
47.0153
53.077
59.6686
64.0565
63.8274
61.3142
60.0201
59.7582
60.3052
60.0024
56.902
50.4413
51.6226
47.3446
10.3799
4.23557
3.91505
3.6008
3.2
81.0699
52.9959
41.2856
45.3407
48.7296
38.7845
35.4032
30.5526
28.7846
26.7564
24.1852
23.5424
25.4133
29.8355
37.4952
45.9607
54.2289
63.2501
73.8964
82.1463
81.7961
76.0162
71.6247
69.4929
69.3902
69.0974
65.8486
57.3991
57.8286
50.51
10.9296
4.2244
3.87736
3.56243
3.16755
77.574
52.8441
43.0969
50.0281
54.0761
43.1261
39.0301
33.687
31.8376
29.5937
26.9443
26.4909
28.6592
33.6944
42.4349
52.7362
63.9312
76.8764
92.6521
107.154
108.783
98.9028
89.2337
83.4866
81.7852
81.1476
77.7954
66.8125
65.8695
55.8497
11.6946
4.21441
3.8352
3.51951
3.13129
73.8369
52.6255
45.3426
55.1187
59.8393
48.0107
43.1898
37.3633
35.4506
33.0533
30.4618
30.3048
32.9422
38.9189
49.0328
61.5997
76.3063
93.2971
113.499
135.274
143.449
131.759
115.181
103.478
98.6856
97.038
93.5552
79.4386
76.1524
64.1175
12.7309
4.2061
3.78866
3.47215
3.09133
69.8857
52.3309
48.0976
60.3633
65.8836
53.394
47.9019
41.6284
39.6786
37.2369
34.8959
35.1647
38.4939
45.8371
57.6488
72.6977
90.7105
110.201
131.776
157.944
175.923
169.942
149.331
130.48
121.032
117.475
113.709
95.9764
88.9632
76.2692
14.0978
4.19964
3.73787
3.42048
3.0478
65.8489
51.9495
51.4317
65.495
72.0695
59.2105
53.1598
46.5045
44.5465
42.2184
40.3748
41.2005
45.4218
54.5242
68.2232
85.3968
105.225
124.447
144.134
169.67
193.812
199.354
184.004
161.835
148.007
142.043
137.738
116.468
104.132
93.0944
15.8407
4.1945
3.68294
3.36466
3.00085
61.7626
51.4685
55.3828
70.3287
78.2832
65.3932
58.9304
51.9818
50.0354
48.0082
46.9332
48.3818
53.5368
64.4059
79.7265
97.8675
117.271
134.183
150.826
172.779
196.01
209.088
205.533
188.76
174.913
167.699
162.678
139.12
120.49
114.084
17.9513
4.18916
3.62402
3.30488
2.95064
57.7502
50.8736
59.9072
74.8241
84.4555
71.8936
65.1661
58.0198
56.0811
54.5202
54.4167
56.4134
62.1701
74.0036
90.0067
107.694
125.345
139.867
154.056
172.204
190.464
203.125
207.891
201.611
193.939
188.475
182.79
159.308
135.477
135.689
20.3086
4.18075
3.56125
3.24136
2.89737
53.8399
50.1513
64.815
79.0722
90.563
78.7021
71.8185
64.5536
62.5869
61.5697
62.4725
64.7164
70.259
81.4622
96.8737
113.511
129.902
143.197
155.769
170.795
183.544
191.413
197.563
199.254
200.048
198.706
192.369
171.049
145.744
151.416
22.6344
4.16504
3.49482
3.17434
2.84124
50.1273
49.2962
69.7451
83.2295
96.6373
85.8065
78.8488
71.5272
69.4599
68.9261
70.6395
72.6209
76.8529
85.7655
99.7211
115.916
132.567
145.718
156.948
169.192
177.243
179.776
183.423
188.169
194.961
197.25
189.835
171.208
149.009
156.223
24.534
4.137
3.42489
3.10408
2.7825
46.6135
48.3211
74.2504
87.4175
102.73
93.1986
86.233
78.911
76.6486
76.408
78.5574
79.7207
81.7226
87.4122
99.7791
116.659
134.869
148.223
157.794
167.088
171.254
169.558
170.072
174.824
183.926
187.351
178.169
161.708
145.518
150.545
25.6323
4.09184
3.35171
3.0309
2.72139
43.349
47.2758
77.9986
91.6949
108.882
100.851
93.9502
86.7028
84.1636
83.9659
86.1526
86.1164
85.4736
87.8377
98.9398
117.435
137.745
150.89
158.103
164.036
164.822
160.289
158.556
162.354
171.167
173.214
161.87
147.125
137.471
138.476
25.7101
4.02625
3.27551
2.95509
2.65817
40.3033
46.2704
80.9045
96.0976
115.098
108.698
101.963
94.9073
92.064
91.7004
93.6725
92.3626
89.1708
88.5521
98.7596
119.346
141.556
153.567
157.573
159.766
157.522
151.325
148.542
151.467
158.636
157.756
144.446
131.424
127.351
123.872
24.762
3.93927
3.1966
2.87698
2.5931
37.4893
45.4744
83.1545
100.621
121.342
116.628
110.2
103.506
100.422
99.8035
101.546
99.2038
93.8866
90.7013
100.228
122.986
146.382
156.068
156.009
154.235
149.346
142.375
139.513
141.881
146.79
142.441
127.863
116.808
116.863
108.911
22.9742
3.83242
3.11529
2.79692
2.52648
34.8769
44.9926
85.0853
105.224
127.546
124.5
118.556
112.437
109.278
108.47
110.196
107.324
100.498
95.131
103.981
128.665
152.174
158.275
153.397
147.613
140.573
133.482
131.131
133.122
135.498
127.889
112.969
104.085
106.809
94.5177
20.6462
3.70926
3.03195
2.71525
2.45858
32.4767
44.8062
86.9592
109.841
133.626
132.163
126.899
121.587
118.614
117.819
119.893
117.181
109.615
102.51
110.539
136.629
158.936
160.204
149.907
140.22
131.587
124.85
123.245
124.804
124.552
114.358
99.9906
93.3076
97.3849
81.0428
18.0943
3.57445
2.94696
2.63232
2.38969
30.2708
44.8324
88.8658
114.384
139.487
139.477
135.084
130.81
128.351
127.868
130.715
128.962
121.575
113.462
120.495
147.166
166.71
161.95
145.827
132.463
122.775
116.691
115.8
116.69
113.863
101.985
88.857
84.2181
88.4892
68.6566
15.5773
3.43282
2.86071
2.54847
2.32007
28.2673
44.9741
90.8043
118.753
145.037
146.324
142.975
139.949
138.363
138.55
142.589
142.611
136.416
128.472
134.568
160.673
175.613
163.665
141.512
124.763
114.45
109.152
108.763
108.658
103.477
90.8474
79.3711
76.4707
79.9439
57.4858
13.2643
3.28866
2.77357
2.46404
2.24999
26.4614
45.1949
92.7377
122.845
150.196
152.616
150.455
148.865
148.51
149.752
155.383
157.953
153.97
147.787
153.548
177.588
185.689
165.457
137.301
117.497
106.838
102.297
102.086
100.68
93.5308
80.9666
71.2942
69.7292
71.612
47.6256
11.2392
3.14534
2.68592
2.37937
2.17972
24.8623
45.5709
94.6287
126.578
154.907
158.31
157.444
157.451
158.674
161.371
168.992
174.824
174.007
171.299
178.039
198.246
196.865
167.349
133.458
110.948
100.06
96.1139
95.7059
92.7891
84.1865
72.3086
64.3865
63.7059
63.4554
39.1165
9.52334
3.00526
2.59812
2.29475
2.1095
23.4808
46.2748
96.4501
129.9
159.143
163.401
163.91
165.657
168.782
173.356
183.401
193.198
196.46
198.803
208.162
222.551
208.741
169.193
130.108
105.287
94.1546
90.5391
89.5547
85.0645
75.5833
64.7919
58.4276
58.1723
55.5365
31.9306
8.10013
2.86993
2.51047
2.21048
2.03955
22.3333
47.5059
98.183
132.793
162.908
167.927
169.868
173.487
178.829
185.731
198.72
213.251
221.537
230.246
243.446
249.69
220.576
170.696
127.228
100.553
89.0802
85.4749
83.5784
77.6106
67.8083
58.3008
53.2246
52.963
47.9894
25.9769
6.93468
2.74017
2.42328
2.12684
1.97009
21.4546
49.4219
99.8112
135.27
166.232
171.951
175.375
181.003
188.882
198.627
215.223
235.433
249.831
265.986
283.021
277.939
231.207
171.424
124.652
96.6767
84.7464
80.808
77.7466
70.5384
60.8924
52.7046
48.6155
47.9732
40.9693
21.1204
5.98643
2.61631
2.33682
2.04408
1.90132
20.8892
52.102
101.319
137.365
169.162
175.554
180.517
188.313
199.089
212.294
233.383
260.529
282.377
306.721
325.703
304.907
239.335
170.934
122.134
93.492
81.0167
76.4261
72.0607
63.9459
54.815
47.8703
44.469
43.154
34.6093
17.2053
5.21618
2.49832
2.25132
1.96242
1.83341
20.7351
55.5373
102.692
139.122
171.759
178.824
185.409
195.578
209.692
227.148
253.953
289.777
320.733
353.331
369.711
327.831
243.719
168.839
119.399
90.7733
77.7347
72.2284
66.5502
57.9057
49.5199
43.673
40.6827
38.5021
28.9906
14.0744
4.58933
2.386
2.16699
1.88207
1.76651
21.1259
59.6356
103.919
140.595
174.088
181.857
190.189
203.018
221.058
243.83
278.085
325.009
366.914
406.183
412.045
344.012
243.566
164.935
116.213
88.2643
74.728
68.1378
61.2658
52.4565
44.9285
40.0013
37.18
34.0473
24.1365
11.5822
4.07684
2.27904
2.08403
1.80321
1.70076
22.2957
64.2342
104.997
141.838
176.223
184.757
195.031
210.934
233.73
263.327
307.524
368.779
422.961
463.803
447.965
351.111
238.553
159.191
112.412
85.7242
71.8332
64.1062
56.2655
47.605
40.9536
36.7599
33.9072
29.8367
20.0195
9.60135
3.6551
2.17706
2.00259
1.72599
1.6363
24.5223
69.1257
105.931
142.901
178.241
187.64
200.157
219.759
248.537
287.163
344.864
424.232
489.337
520.577
471.211
347.694
228.939
151.761
107.916
82.951
68.9042
60.118
51.6033
43.3291
37.5073
33.8694
30.8294
25.9199
16.578
8.02536
3.30522
2.07972
1.92282
1.65057
1.57321
28.1637
74.0891
106.733
143.835
180.226
190.653
205.877
230.134
266.765
317.723
393.795
493.941
561.363
565.193
475.762
333.65
215.386
142.907
102.722
79.8088
65.8357
56.1849
47.3174
39.5867
34.5081
31.266
27.9267
22.3377
13.7315
6.76746
3.0123
1.98666
1.84485
1.57706
1.5116
33.4954
78.9234
107.417
144.683
182.277
193.984
212.635
243.047
290.468
358.699
458.748
576.005
624.566
583.166
458.774
310.488
198.908
132.982
96.8959
76.2255
62.5657
52.3383
43.4259
36.323
31.8829
28.8989
25.1906
19.1158
11.3943
5.75851
2.76462
1.89759
1.7688
1.50557
1.45155
40.701
83.4734
107.998
145.49
184.518
197.901
221.111
260.082
322.976
415.482
542.113
656.394
656.055
565.393
422.712
280.968
180.624
122.364
90.5521
72.1933
59.0821
48.6153
39.9246
33.4778
29.5696
26.7296
22.6199
16.262
9.48341
4.94408
2.55298
1.81224
1.69476
1.4362
1.39314
49.6321
87.6464
108.49
146.307
187.119
202.805
232.381
283.853
369.634
494.158
635.313
705.19
638.77
515.414
374.472
248.35
161.65
111.444
83.8484
67.7544
55.4079
45.0486
36.791
30.9906
27.5157
24.7291
20.2176
13.7686
7.92412
4.28178
2.37017
1.73039
1.62285
1.36904
1.33642
59.8743
91.4138
108.906
147.194
190.328
209.332
248.23
318.781
438.149
594.44
706.669
693.897
576.734
447.078
322.045
215.493
142.902
100.579
76.9679
62.9963
51.5928
41.6574
33.9884
28.8041
25.679
22.8769
17.9885
11.6153
6.65154
3.7387
2.21055
1.65189
1.55314
1.30417
1.28146
70.5911
94.7989
109.261
148.24
194.542
218.555
271.773
372.176
534.674
690.414
712.933
623.084
491.008
375.165
271.47
184.392
125.081
90.0836
70.107
58.0386
47.6974
38.4464
31.4719
26.8664
24.0248
21.1584
15.9372
9.77396
5.61117
3.28938
2.06962
1.5766
1.48573
1.24168
1.22833
80.9187
97.8542
109.57
149.582
200.44
232.415
308.623
453.712
643.679
723.126
642.877
520.875
403.164
309.066
225.897
156.116
108.626
80.2075
63.4562
53.0258
43.7899
35.4081
29.1933
25.131
22.5255
19.5641
14.0663
8.21231
4.75808
2.91411
1.94387
1.50443
1.4207
1.18162
1.17706
89.3733
100.646
109.858
151.455
209.3
254.692
368.418
561.484
698.561
657.347
528.901
417.145
325.407
252.295
186.274
131.073
93.7912
71.137
57.1859
48.111
39.9405
32.5294
27.1057
23.5571
21.1583
18.0874
12.3765
6.89682
4.05576
2.59759
1.83048
1.43531
1.35812
1.12407
1.12772
95.1437
103.247
110.162
154.306
223.776
293.051
459.77
635.686
636.297
528.039
411.517
327.985
261.214
204.959
152.454
109.288
80.6618
62.9773
51.4269
43.4416
36.2231
29.7991
25.1663
22.1087
19.9037
16.7237
10.8651
5.79498
3.47485
2.32795
1.72717
1.36919
1.29807
1.06908
1.08033
0.00337777
0.0025046
0.00227645
0.00216418
0.00212306
0.00212634
0.00215892
0.00471664
0.102364
0.255879
0.449879
0.717881
1.05704
1.47959
1.95408
2.58312
3.63895
5.82439
12.7912
31.228
206.824
160.144
0.00334432
0.00224221
0.00184173
0.00160526
0.00148351
0.00144505
0.00147727
0.00476303
0.103179
0.258222
0.454009
0.723049
1.06289
1.48654
1.96219
2.59295
3.65182
5.84176
12.8261
31.2816
207.787
170.27
0.0035404
0.00237569
0.00188195
0.00154413
0.00132198
0.00119076
0.00116011
0.0047939
0.103715
0.259931
0.457221
0.726857
1.06684
1.49095
1.96717
2.59906
3.66037
5.8545
12.8543
31.3364
207.901
179.939
0.00367073
0.00251729
0.00200373
0.00162958
0.00135772
0.00116619
0.00103183
0.00481376
0.10401
0.261045
0.459505
0.729275
1.06884
1.49275
1.96896
2.60138
3.66447
5.86238
12.8742
31.3932
207.231
189.017
0.00392253
0.00276385
0.00222635
0.00182209
0.00151421
0.00127994
0.000999186
0.00482506
0.104088
0.261589
0.460853
0.730283
1.06888
1.49194
1.96753
2.59985
3.664
5.86517
12.8841
31.4524
205.82
197.965
0.00406015
0.00292961
0.00239837
0.00199196
0.00167514
0.00142519
0.000988546
0.00482921
0.103961
0.26158
0.461257
0.729868
1.06693
1.4885
1.96285
2.59443
3.65887
5.86267
12.8824
31.514
203.701
206.955
0.00434044
0.00320791
0.00265947
0.00223345
0.00189613
0.00162482
0.00105794
0.00482691
0.103639
0.261029
0.460718
0.72803
1.063
1.48244
1.95494
2.58511
3.64899
5.8547
12.8676
31.5778
200.913
215.986
0.00447853
0.00337917
0.00284379
0.00242338
0.00208649
0.0018115
0.00118477
0.00481825
0.103126
0.259947
0.459247
0.724783
1.05711
1.4738
1.94383
2.5719
3.63432
5.84108
12.8385
31.6431
197.504
224.995
0.00478402
0.00368458
0.0031346
0.00269696
0.00234219
0.00204931
0.00130955
0.00480285
0.102427
0.258348
0.456863
0.720153
1.0493
1.46263
1.92959
2.55481
3.6148
5.82166
12.7938
31.7083
193.531
233.914
0.00490865
0.00384878
0.00331941
0.00289459
0.00254695
0.00225663
0.00139976
0.00478002
0.101545
0.256244
0.453596
0.714182
1.03965
1.44901
1.91229
2.53392
3.5904
5.79628
12.7327
31.7712
189.054
242.658
0.00522938
0.0041712
0.00363005
0.00319056
0.00282734
0.00252137
0.00151368
0.00474899
0.10048
0.253652
0.449485
0.706925
1.02821
1.43303
1.89205
2.50929
3.5611
5.7648
12.6544
31.8284
184.137
251.117
0.00533926
0.00432464
0.00380978
0.00338901
0.00303868
0.00274081
0.00163299
0.00470856
0.0992334
0.25059
0.444573
0.698447
1.0151
1.4148
1.869
2.48103
3.52689
5.72709
12.5584
31.8757
178.849
259.159
0.00567208
0.00466089
0.00413676
0.00370349
0.00333941
0.00302758
0.00183734
0.00465735
0.0978032
0.247076
0.438912
0.688828
1.00041
1.39445
1.84328
2.44929
3.48782
5.68299
12.4442
31.9078
173.258
266.634
0.00575624
0.00479285
0.00430107
0.00389287
0.00354797
0.00325033
0.00211491
0.00459323
0.096184
0.243129
0.432554
0.678154
0.984273
1.37213
1.81506
2.41422
3.44391
5.63236
12.3117
31.9183
167.429
273.389
0.00609207
0.00513329
0.00463436
0.0042157
0.00385899
0.00354932
0.00251963
0.00451363
0.0943652
0.238766
0.425551
0.666521
0.966808
1.34799
1.78452
2.37601
3.39528
5.57504
12.1607
31.8998
161.429
279.277
0.00615216
0.00524292
0.00478008
0.00439096
0.00405819
0.00376765
0.00298571
0.00441431
0.0923285
0.233997
0.417953
0.654025
0.948154
1.3222
1.75187
2.33488
3.34204
5.51087
11.9912
31.8442
155.316
284.166
0.00648673
0.00558307
0.00511485
0.00471688
0.00437375
0.00407255
0.00349828
0.00429042
0.0900444
0.228825
0.409804
0.64077
0.92845
1.29492
1.71729
2.29105
3.28435
5.43969
11.8034
31.7426
149.146
287.945
0.00651836
0.00566542
0.00523643
0.00487185
0.00455692
0.00427932
0.00389421
0.00413364
0.0874675
0.223239
0.40114
0.626853
0.907839
1.26632
1.68101
2.24478
3.22244
5.36135
11.5977
31.5856
142.967
290.529
0.00683898
0.00599244
0.00555987
0.00518829
0.00486482
0.00457839
0.00427101
0.00394219
0.0845308
0.217209
0.391982
0.61237
0.886465
1.23659
1.64322
2.19632
3.15656
5.27571
11.3745
31.3639
136.819
291.861
0.00685351
0.00605572
0.00566223
0.00532489
0.00503114
0.00477035
0.00452571
0.00372693
0.081137
0.210681
0.382334
0.597405
0.864472
1.20589
1.60414
2.14595
3.08699
5.18266
11.1345
31.0684
130.736
291.907
0.00716008
0.00636941
0.00597384
0.0056309
0.00532984
0.00506128
0.00482119
0.00356501
0.0771499
0.203562
0.372171
0.582025
0.841996
1.17441
1.56398
2.09392
3.01406
5.08214
10.8785
30.6905
124.747
290.653
0.00715665
0.00641249
0.00605547
0.00574714
0.00547688
0.00523551
0.00502118
0.00364801
0.0723846
0.19571
0.361435
0.566276
0.819169
1.1423
1.52294
2.0405
2.93811
4.97413
10.6072
30.2229
118.871
288.104
0.00744655
0.00670967
0.0063515
0.00603855
0.00576189
0.00551358
0.00529078
0.00407542
0.0666046
0.186918
0.350014
0.550166
0.796104
1.10975
1.48122
1.98596
2.85952
4.8587
10.3219
29.6596
113.124
284.273
0.00743058
0.006737
0.00641565
0.00613646
0.00589041
0.00566962
0.00546939
0.00465121
0.0595359
0.176895
0.337729
0.533657
0.772891
1.07691
1.439
1.93056
2.77869
4.73599
10.0234
28.9967
107.514
279.186
0.00770416
0.0070178
0.00669592
0.00641276
0.00616092
0.00593367
0.00572598
0.0052385
0.0509446
0.165251
0.324307
0.51664
0.749581
1.04394
1.39647
1.87454
2.69601
4.60622
9.71303
28.2326
102.048
272.874
0.00767675
0.00703039
0.00674335
0.00649271
0.00627085
0.00607101
0.00588736
0.00561682
0.0408368
0.151493
0.309356
0.498912
0.726172
1.01096
1.3538
1.81815
2.61192
4.46975
9.39184
27.3683
96.7238
265.38
0.0079333
0.00729379
0.00700649
0.00675228
0.00652502
0.00631904
0.00612922
0.00592418
0.0298252
0.13508
0.292326
0.480139
0.702573
0.978076
1.31116
1.7616
2.52684
4.32703
9.06101
26.4077
91.54
256.753
0.00789953
0.00729636
0.0070413
0.00681766
0.00661899
0.00643947
0.00627368
0.00611047
0.0193978
0.115593
0.272485
0.459815
0.678573
0.945332
1.26869
1.70513
2.44122
4.17865
8.72165
25.3576
86.4893
247.057
0.00814118
0.00754435
0.00728911
0.00706208
0.00685818
0.00667262
0.00650093
0.00633727
0.0116356
0.0931162
0.248915
0.437205
0.653793
0.91268
1.2265
1.64894
2.35549
4.02538
8.37484
24.2274
81.5629
236.369
0.00810336
0.00753937
0.00731377
0.00711525
0.00693836
0.00677809
0.00662969
0.00648806
0.0076608
0.0688469
0.220614
0.411289
0.627621
0.879922
1.18463
1.5932
2.27014
3.8681
8.02167
23.0292
76.7484
224.786
0.00833024
0.00777201
0.00754621
0.00734444
0.00716249
0.00699631
0.0068421
0.00669599
0.0065865
0.0454664
0.186838
0.380708
0.599143
0.846654
1.14306
1.53807
2.18561
3.70791
7.66324
21.7769
72.0331
212.421
0.00829265
0.00776377
0.00756481
0.00738919
0.00723227
0.00708975
0.00695752
0.00683154
0.00659877
0.0264598
0.147847
0.343796
0.567048
0.812169
1.10154
1.48359
2.10235
3.54606
7.3008
20.4862
67.4021
199.411
0.00850602
0.00798237
0.00778319
0.00760447
0.00744268
0.00729441
0.00715642
0.00702562
0.00684566
0.0143996
0.106059
0.298875
0.529516
0.775372
1.05961
1.42973
2.02077
3.384
6.93581
19.1734
62.8427
185.907
0.00847101
0.00797344
0.00779842
0.00764347
0.00750467
0.00737832
0.00726086
0.00714883
0.00702196
0.00885778
0.0667166
0.24513
0.484172
0.73465
1.01645
1.37622
1.94117
3.22329
6.57007
17.8553
58.3444
172.078
0.00867167
0.00817883
0.00800356
0.00784568
0.00770225
0.00757037
0.00744727
0.00733034
0.00721168
0.00717212
0.0362712
0.184335
0.42827
0.687732
0.970732
1.32251
1.86366
3.06556
6.20587
16.5484
53.9039
158.101
0.00864158
0.00817177
0.00801803
0.00788157
0.00775902
0.00764721
0.00754303
0.00744348
0.00734381
0.00696847
0.0181944
0.122708
0.359619
0.631556
0.920527
1.26766
1.78809
2.91235
5.84597
15.2686
49.5256
144.157
0.00883162
0.00836604
0.00821199
0.00807271
0.00794571
0.00782856
0.00771886
0.00761437
0.00751206
0.00720767
0.0104119
0.0702878
0.278863
0.56243
0.863066
1.21016
1.71389
2.76493
5.49357
14.0306
45.2258
130.427
0.00880915
0.00836381
0.00822883
0.00810867
0.00800047
0.00790149
0.00780901