/*--------------------------------*- C++ -*----------------------------------*\
| =========                 |                                                 |
| \\      /  F ield         | OpenFOAM: The Open Source CFD Toolbox           |
|  \\    /   O peration     | Version:  v1912                                 |
|   \\  /    A nd           | Website:  www.openfoam.com                      |
|    \\/     M anipulation  |                                                 |
\*---------------------------------------------------------------------------*/
FoamFile
{
    version     2.0;
    format      ascii;
    class       volScalarField;
    location    "360";
    object      nut;
}
// * * * * * * * * * * * * * * * * * * * * * * * * * * * * * * * * * * * * * //

dimensions      [0 2 -1 0 0 0 0];


internalField   nonuniform List<scalar> 
12441
(
5.82193e-24
1.79051e-20
8.10487e-20
3.32539e-19
1.0683e-18
3.88831e-18
1.01057e-17
2.50057e-17
6.13855e-17
1.27535e-16
3.05666e-16
7.71364e-16
2.17998e-15
7.39724e-15
1.03579e-13
1.89229e-11
0.000194635
0.000951375
0.00305952
0.00263472
0.00364624
0.00775321
6.34194e-24
3.03347e-20
1.11731e-19
4.23943e-19
1.30208e-18
4.80729e-18
1.21985e-17
3.00111e-17
7.3612e-17
1.5446e-16
3.79816e-16
1.02905e-15
2.82677e-15
9.36875e-15
1.13001e-13
3.89515e-11
5.78436e-05
0.00115374
0.00350358
0.00286864
0.00400866
0.00781733
6.3647e-24
3.58951e-20
1.20777e-19
4.48126e-19
1.37772e-18
4.9067e-18
1.2929e-17
3.2042e-17
8.05163e-17
1.71779e-16
4.17903e-16
1.11729e-15
2.78326e-15
7.65837e-15
5.34817e-14
6.56356e-12
1.11031e-05
0.000846756
0.00139718
0.00270652
0.0041617
0.0078909
6.31916e-24
3.76913e-20
1.18532e-19
4.29304e-19
1.32533e-18
4.71352e-18
1.25134e-17
3.13276e-17
7.84959e-17
1.7368e-16
4.23771e-16
1.15382e-15
2.60901e-15
8.46876e-15
3.84815e-14
1.54103e-12
1.62451e-06
0.000590767
0.00104217
0.00262971
0.0043243
0.0079647
6.28513e-24
4.38826e-20
1.29777e-19
4.58308e-19
1.40267e-18
4.77928e-18
1.30908e-17
3.27953e-17
8.42991e-17
1.87531e-16
4.54178e-16
1.28447e-15
3.01718e-15
4.06849e-14
2.47035e-13
2.29423e-12
1.39522e-07
0.000417339
0.00102317
0.00261707
0.00446464
0.00803394
6.23495e-24
4.12875e-20
1.20538e-19
4.29182e-19
1.3427e-18
4.62201e-18
1.27503e-17
3.23935e-17
8.28952e-17
1.92693e-16
4.76959e-16
1.44534e-15
4.53008e-15
1.32816e-12
1.18907e-11
5.09669e-11
4.58213e-07
0.000384142
0.00109035
0.00267396
0.00459106
0.00809948
6.20006e-24
5.02633e-20
1.37794e-19
4.75761e-19
1.46012e-18
4.79238e-18
1.3593e-17
3.4454e-17
9.07034e-17
2.11132e-16
5.20857e-16
1.99979e-15
2.50079e-14
4.14215e-11
6.57427e-10
9.36227e-09
1.87406e-05
0.000403909
0.00127783
0.00285822
0.00473631
0.00816218
6.15027e-24
4.34517e-20
1.2317e-19
4.4015e-19
1.40814e-18
4.72271e-18
1.35121e-17
3.48452e-17
9.13203e-17
2.23855e-16
5.72525e-16
5.43521e-15
6.09404e-13
2.25229e-09
8.41171e-08
4.97625e-06
0.00019584
0.000465765
0.00173143
0.00323401
0.00492625
0.00822577
6.11749e-24
5.57036e-20
1.46129e-19
4.99669e-19
1.55409e-18
4.95856e-18
1.46116e-17
3.75708e-17
1.02075e-16
2.50954e-16
6.45364e-16
6.13419e-14
2.58884e-11
7.42134e-08
1.04362e-05
0.000155003
0.000808218
0.000835105
0.00267162
0.0038748
0.00519313
0.00829204
6.07063e-24
4.43491e-20
1.25434e-19
4.56623e-19
1.50751e-18
4.95354e-18
1.47472e-17
3.87256e-17
1.04879e-16
2.7513e-16
7.48638e-16
1.68175e-12
1.08249e-09
4.43456e-06
0.000192383
0.000625327
0.0017362
0.00159424
0.0044068
0.00485864
0.00555024
0.00836448
6.04147e-24
6.02595e-20
1.53432e-19
5.25898e-19
1.67269e-18
5.20584e-18
1.60248e-17
4.20347e-17
1.19295e-16
3.1738e-16
8.92097e-16
5.23027e-11
5.50119e-08
8.22564e-05
0.000734019
0.00176636
0.00386951
0.00321567
0.00739602
0.00628641
0.00601078
0.00844366
5.99605e-24
4.46285e-20
1.27734e-19
4.76935e-19
1.63366e-18
5.28085e-18
1.6402e-17
4.40652e-17
1.255e-16
3.64641e-16
1.15863e-15
1.45659e-09
3.24582e-06
0.000351121
0.0016423
0.00404914
0.00822884
0.00651784
0.0121116
0.00820346
0.00656377
0.00853143
5.97045e-24
6.41488e-20
1.60448e-19
5.538e-19
1.81493e-18
5.54181e-18
1.79082e-17
4.8222e-17
1.46704e-16
4.4474e-16
1.69459e-15
3.52204e-08
7.28648e-05
0.00111689
0.0041406
0.00914097
0.016634
0.0126296
0.0187232
0.0105921
0.00720005
0.00862633
5.92647e-24
4.43249e-20
1.29668e-19
4.99305e-19
1.78316e-18
5.69181e-18
1.85321e-17
5.13839e-17
1.59852e-16
5.5917e-16
3.60143e-15
7.96655e-07
0.00035122
0.00294983
0.00936999
0.0185583
0.0307029
0.0225118
0.0269182
0.013327
0.00788756
0.00872852
5.90411e-24
6.75151e-20
1.66653e-19
5.82612e-19
1.97796e-18
5.94e-18
2.02687e-17
5.67825e-17
1.96056e-16
7.7873e-16
1.65174e-14
1.51966e-05
0.00116473
0.00709189
0.0189182
0.0336004
0.0511514
0.0362793
0.0358954
0.0162504
0.00860635
0.00883515
5.86041e-24
4.39586e-20
1.31996e-19
5.24798e-19
1.95776e-18
6.18544e-18
2.12018e-17
6.16791e-17
2.28169e-16
1.2163e-15
3.02166e-13
0.00013815
0.0029562
0.0148144
0.0340017
0.0546813
0.0771964
0.0527314
0.0446713
0.0191632
0.00931996
0.00894576
5.84134e-24
7.05399e-20
1.73503e-19
6.15114e-19
2.17057e-18
6.43943e-18
2.33103e-17
6.93783e-17
3.08234e-16
2.305e-15
1.26027e-11
0.000532733
0.00686612
0.0272241
0.0546581
0.0810886
0.106282
0.0695732
0.0523794
0.0219267
0.0100138
0.00905718
5.79737e-24
4.3502e-20
1.34492e-19
5.53132e-19
2.16064e-18
6.77151e-18
2.46181e-17
7.72302e-17
4.0847e-16
5.44577e-15
5.47997e-10
0.00138988
0.0139545
0.0448337
0.0803285
0.110751
0.134492
0.0842327
0.058578
0.0244186
0.0106607
0.00916919
5.78103e-24
7.32637e-20
1.80287e-19
6.49129e-19
2.38799e-18
7.01158e-18
2.71824e-17
8.90715e-17
6.61733e-16
1.69236e-14
4.40858e-08
0.00344237
0.0252602
0.0668814
0.108941
0.140622
0.15764
0.0949529
0.0632202
0.0266066
0.0112604
0.00927899
5.73648e-24
4.30531e-20
1.36871e-19
5.82403e-19
2.38687e-18
7.43812e-18
2.90073e-17
1.02317e-16
1.08044e-15
7.52736e-14
8.55552e-06
0.00741968
0.0409904
0.0922445
0.138271
0.167175
0.172579
0.101343
0.0665988
0.0284611
0.0117991
0.00938714
5.72343e-24
7.57297e-20
1.86803e-19
6.8318e-19
2.62926e-18
7.67303e-18
3.23042e-17
1.22247e-16
2.19379e-15
7.80215e-13
0.000168419
0.0143781
0.0605127
0.118877
0.165188
0.187473
0.178255
0.104298
0.0690844
0.0300192
0.0122899
0.00949146
5.67806e-24
4.24344e-20
1.38572e-19
6.10928e-19
2.63513e-18
8.1933e-18
3.49399e-17
1.46466e-16
4.34021e-15
1.34062e-11
0.000667956
0.024955
0.0825563
0.145094
0.187488
0.199778
0.175884
0.105256
0.0710448
0.0312937
0.0127303
0.00959327
5.6677e-24
7.80232e-20
1.92471e-19
7.15487e-19
2.88989e-18
8.41834e-18
3.94334e-17
1.83585e-16
1.02759e-14
1.66106e-10
0.0017914
0.0391264
0.105595
0.16881
0.20319
0.204094
0.168271
0.105511
0.0727125
0.0323463
0.0131449
0.00969106
5.62179e-24
4.19646e-20
1.39793e-19
6.38007e-19
2.90263e-18
9.03767e-18
4.35015e-17
2.31495e-16
2.24206e-14
1.55805e-09
0.00418445
0.0563079
0.128181
0.188781
0.212069
0.201823
0.15856
0.105787
0.0742402
0.0332075
0.0135409
0.00978684
5.61496e-24
8.02762e-20
1.9758e-19
7.45824e-19
3.17123e-18
9.26745e-18
5.02649e-17
3.06433e-16
5.64413e-14
1.37802e-08
0.00851884
0.0753304
0.149123
0.20389
0.214572
0.195261
0.149178
0.106315
0.075678
0.0339536
0.0139514
0.00987966
5.56726e-24
4.17925e-20
1.40765e-19
6.63877e-19
3.19207e-18
9.99259e-18
5.71529e-17
4.08466e-16
1.30483e-13
3.18932e-07
0.0153641
0.0950726
0.167544
0.214112
0.212373
0.186707
0.141389
0.107019
0.0770508
0.0346298
0.01439
0.00997203
5.56294e-24
8.24851e-20
2.021e-19
7.74028e-19
3.47295e-18
1.02324e-17
6.84614e-17
5.7337e-16
3.92548e-13
1.87251e-05
0.0247548
0.114382
0.182898
0.219663
0.207036
0.17798
0.135479
0.107749
0.0783396
0.0353188
0.0148935
0.0100634
5.51409e-24
4.18602e-20
1.41224e-19
6.87534e-19
3.50158e-18
1.10691e-17
8.13299e-17
8.10406e-16
1.82997e-12
0.000212464
0.0364127
0.132498
0.194956
0.22151
0.200291
0.170133
0.131199
0.108365
0.0795321
0.0360628
0.0154745
0.0101564
5.51314e-24
8.4677e-20
2.05801e-19
7.99232e-19
3.79633e-18
1.13444e-17
1.02515e-16
1.20442e-15
1.28017e-11
0.000717273
0.0496498
0.1488
0.203779
0.220502
0.193184
0.163601
0.128129
0.108789
0.0805959
0.0369253
0.016163
0.0102507
5.46204e-24
4.20353e-20
1.40969e-19
7.08428e-19
3.83369e-18
1.23049e-17
1.2883e-16
1.79578e-15
7.40927e-11
0.00146892
0.0638656
0.162985
0.209649
0.217713
0.186536
0.158388
0.125882
0.108986
0.0815129
0.0379181
0.016959
0.0103488
5.46311e-24
8.68083e-20
2.08982e-19
8.21819e-19
4.1433e-18
1.26535e-17
1.72482e-16
2.80967e-15
3.56408e-10
0.00261041
0.0783798
0.174845
0.213
0.213831
0.180605
0.154317
0.124172
0.108961
0.0822524
0.0390636
0.0178757
0.01045
5.41095e-24
4.22474e-20
1.39903e-19
7.26624e-19
4.19095e-18
1.37419e-17
2.30139e-16
4.38973e-15
1.38688e-09
0.00430296
0.0927314
0.184406
0.21432
0.209536
0.175554
0.151143
0.122806
0.108733
0.0827988
0.0403325
0.0188922
0.0105565
5.41513e-24
8.89201e-20
2.11419e-19
8.42403e-19
4.52277e-18
1.41937e-17
3.26408e-16
7.08381e-15
4.7464e-09
0.00676746
0.106451
0.191749
0.214101
0.205138
0.171277
0.14865
0.121667
0.108336
0.0831262
0.0417113
0.0200006
0.010667
5.3595e-24
4.228e-20
1.37813e-19
7.42896e-19
4.58506e-18
1.54541e-17
4.58269e-16
1.12961e-14
1.44516e-08
0.0102159
0.119302
0.197105
0.212781
0.200944
0.167723
0.146655
0.12069
0.1078
0.083223
0.0431482
0.0211602
0.0107831
5.36562e-24
8.84596e-20
2.10344e-19
8.57258e-19
4.93673e-18
1.60484e-17
6.78003e-16
1.85079e-14
4.28023e-08
0.0148623
0.131084
0.200714
0.210729
0.197013
0.164723
0.145026
0.119843
0.107161
0.0830694
0.0446229
0.02235
0.0109032
5.30595e-24
4.14872e-20
1.32579e-19
7.51642e-19
5.01028e-18
1.74633e-17
9.8051e-16
2.99196e-14
2.19691e-07
0.0209938
0.141821
0.202889
0.208238
0.193462
0.162213
0.143666
0.119112
0.106448
0.0826597
0.0460948
0.0235222
0.0110282
5.31245e-24
8.52656e-20
2.03831e-19
8.62092e-19
5.38126e-18
1.81873e-17
1.47476e-15
5.74613e-14
1.14613e-05
0.0289936
0.151563
0.203907
0.20553
0.190251
0.160062
0.142516
0.118501
0.105697
0.0819822
0.0475708
0.0246578
0.0111563
5.24601e-24
4.16163e-20
1.27329e-19
7.5772e-19
5.48284e-18
1.98578e-17
2.14244e-15
4.6505e-13
0.000219829
0.0394745
0.160506
0.204068
0.202767
0.187436
0.158239
0.141534
0.118017
0.104934
0.0810416
0.0490476
0.0257196
0.0112883
5.24941e-24
5.37915e-20
1.54727e-19
7.99512e-19
5.76905e-18
2.06399e-17
3.20166e-15
2.31298e-11
0.00171257
0.0531933
0.16879
0.203608
0.200063
0.184961
0.156662
0.140703
0.117675
0.104193
0.0798406
0.0505714
0.0267107
0.011422
5.17261e-24
4.3282e-20
1.14476e-19
7.24298e-19
5.94057e-18
2.35458e-17
4.66286e-15
1.03288e-09
0.00714969
0.070651
0.17658
0.20277
0.197485
0.182881
0.155337
0.140018
0.117495
0.103497
0.0784024
0.0521663
0.0276228
0.0115584
5.16599e-24
1.93957e-21
1.12095e-20
4.00664e-19
5.44931e-18
2.44389e-17
7.20747e-15
1.84084e-07
0.0199771
0.0918158
0.183894
0.201724
0.195071
0.181155
0.154215
0.139488
0.117496
0.102873
0.0767529
0.0538707
0.0284942
0.0116955
5.07784e-24
1.71172e-20
4.47749e-20
4.17397e-19
5.46249e-18
3.6209e-17
1.80067e-14
5.21971e-05
0.0431718
0.116287
0.190717
0.200653
0.192825
0.17986
0.15334
0.139127
0.117697
0.102335
0.0749443
0.0556284
0.0293388
0.0118345
5.03905e-24
6.72042e-22
8.45953e-23
2.35253e-19
5.06653e-18
8.28212e-17
3.70801e-13
0.00126236
0.0787722
0.143374
0.196884
0.199675
0.190722
0.17896
0.152678
0.138968
0.118113
0.10189
0.0730346
0.0572692
0.030157
0.011976
4.83831e-24
2.10333e-19
4.58161e-19
1.02959e-18
7.26088e-18
9.13603e-16
7.18231e-12
0.00813708
0.127619
0.172672
0.202532
0.199014
0.18874
0.178528
0.152273
0.139027
0.118743
0.10148
0.0710957
0.0583601
0.0306439
0.0121338
0.00987657
0.0279785
0.02938
0.01117
0.00879979
0.00887269
0.00906775
0.00943548
0.00943478
0.0100473
0.0145355
0.0138722
0.0127063
0.0122455
0.0124098
0.0133523
0.0150414
0.0167577
0.0168776
0.0144771
0.0125631
0.0120736
0.0120523
0.0122637
0.0127635
0.0134906
0.0144258
0.0152826
0.0147398
0.010371
0.0567674
0.123019
0.130744
0.141501
0.159774
0.00986353
0.02847
0.0285279
0.0108334
0.00868072
0.00874947
0.00913076
0.00952564
0.00944666
0.010053
0.0142203
0.0135037
0.0123781
0.0119165
0.0120962
0.0130627
0.014856
0.0167652
0.0170301
0.0145142
0.012443
0.0119083
0.0118689
0.0120557
0.0125291
0.013238
0.0141818
0.0150754
0.0145446
0.0102756
0.0562309
0.12286
0.130678
0.141435
0.159723
0.00983842
0.0289142
0.0270433
0.0102509
0.00857855
0.00860716
0.00930838
0.00972507
0.00951408
0.0100968
0.0131442
0.0123097
0.0114273
0.0109585
0.0108466
0.0113959
0.0128374
0.014668
0.0154099
0.0135973
0.0119204
0.0114944
0.0114743
0.0116372
0.0120657
0.012736
0.0136898
0.0146523
0.0141476
0.0105096
0.0556952
0.122484
0.130491
0.141246
0.159569
0.00979929
0.0293031
0.0251461
0.00967557
0.0085469
0.00853419
0.00957254
0.00992467
0.00962134
0.0101942
0.0119712
0.0109846
0.0103271
0.00996303
0.00962015
0.00964238
0.0104521
0.0118682
0.0129134
0.0120633
0.0110553
0.0108403
0.010876
0.0110231
0.0113962
0.0120072
0.0129594
0.0140141
0.0135563
0.010845
0.0550023
0.121883
0.130184
0.140934
0.159311
0.00974597
0.0295225
0.0229701
0.00910079
0.00849864
0.00846083
0.00980379
0.0100275
0.00967756
0.0102452
0.0109568
0.00983913
0.0093959
0.0092233
0.00874598
0.0082908
0.00842205
0.00923388
0.0102493
0.0102083
0.00990742
0.00995979
0.0100884
0.0102378
0.0105558
0.0110901
0.0120163
0.0131717
0.0127873
0.0111118
0.0540017
0.121063
0.129768
0.140513
0.158962
0.00967615
0.0294734
0.0206251
0.00847842
0.00837059
0.00832187
0.00990761
0.00997874
0.00960865
0.0101451
0.0100789
0.00888673
0.00863219
0.00865273
0.00813386
0.00733767
0.00690489
0.00711339
0.00784466
0.00827016
0.00854392
0.00887423
0.00913108
0.00931032
0.00958556
0.0100342
0.0109019
0.0121471
0.0118653
0.0111872
0.0525671
0.120033
0.129265
0.140006
0.158544
0.00959042
0.0290899
0.018225
0.00780605
0.00815934
0.00810463
0.00985041
0.00977062
0.00938824
0.00984662
0.00924797
0.00803297
0.00790706
0.00805291
0.00756667
0.00659637
0.00578433
0.00551687
0.00587264
0.00642576
0.00704791
0.00761931
0.00802991
0.00827213
0.00852788
0.0088932
0.00967035
0.0109735
0.0108224
0.010991
0.0506078
0.118808
0.128701
0.13944
0.158085
0.00948687
0.0283222
0.0158835
0.00712427
0.00790177
0.00783471
0.00964994
0.00942974
0.00903158
0.0093612
0.00840717
0.00720671
0.00712996
0.00730734
0.00689758
0.00589929
0.00489153
0.00431906
0.00434443
0.00480164
0.00552988
0.0062562
0.00682206
0.00715754
0.00742366
0.00772031
0.00838304
0.00969603
0.00969769
0.010484
0.0480757
0.117404
0.128106
0.138848
0.157615
0.00936733
0.0271617
0.0136957
0.00648929
0.00764697
0.00755301
0.00935078
0.00899916
0.00857591
0.00873635
0.00755175
0.00638871
0.00629065
0.00641932
0.00609984
0.00517356
0.00411605
0.00339946
0.00320935
0.00348739
0.00412855
0.00488359
0.00556529
0.00600763
0.00631261
0.00656415
0.00710328
0.0083698
0.00853527
0.00967022
0.0449727
0.115839
0.127512
0.138264
0.157169
0.0092307
0.0256161
0.0117312
0.00595182
0.00743998
0.00730084
0.00900629
0.00852736
0.00806786
0.00803344
0.00670664
0.00559335
0.00542826
0.0054601
0.00522244
0.00442285
0.0034203
0.00269012
0.00241102
0.0025315
0.00298432
0.00363538
0.00434638
0.00487656
0.00523616
0.00546817
0.00589056
0.00705708
0.00738291
0.00859756
0.0413585
0.114133
0.12695
0.137721
0.156779
0.00908003
0.0237327
0.0100309
0.00554872
0.0073159
0.00711353
0.00866778
0.0080605
0.00755314
0.00731346
0.00590681
0.00484688
0.00459593
0.00451952
0.00434393
0.00369309
0.00281543
0.00216409
0.00189428
0.00192605
0.00218681
0.00264709
0.00327675
0.00383562
0.00424116
0.004472
0.00479691
0.00582232
0.0062894
0.00735699
0.0373562
0.112308
0.126452
0.137254
0.156477
0.00891508
0.0215715
0.00861395
0.00530221
0.00730074
0.00701886
0.00838055
0.00764002
0.00707357
0.00662981
0.00518503
0.0041755
0.00384134
0.00367257
0.00354041
0.00304056
0.00232748
0.00180303
0.00159294
0.00160215
0.00173155
0.00199498
0.00246124
0.00296608
0.0033803
0.00361287
0.00386482
0.00472642
0.00530157
0.00607331
0.033153
0.110395
0.126047
0.136895
0.156297
0.00874002
0.0192262
0.00748317
0.00522283
0.00741442
0.00703792
0.0081822
0.0073004
0.00666412
0.00602528
0.00456726
0.00360088
0.00320026
0.00297017
0.00287096
0.00251211
0.00197158
0.00157776
0.00143462
0.00146039
0.00153304
0.00165697
0.00194732
0.00233332
0.00270345
0.00292357
0.00312519
0.00382036
0.00446058
0.00488514
0.0289895
0.108438
0.125764
0.136675
0.156266
0.00855535
0.0167967
0.00663291
0.00531362
0.0076745
0.00718729
0.00810295
0.007069
0.00635292
0.00553165
0.00407164
0.00313922
0.00269301
0.00243716
0.00236801
0.00212958
0.0017388
0.00144901
0.00135759
0.00141225
0.00148416
0.00154291
0.00170196
0.00195377
0.00223908
0.00242452
0.00259311
0.00313822
0.00379751
0.00391401
0.0251322
0.106504
0.125628
0.13662
0.156412
0.00836592
0.0144017
0.00605311
0.00557464
0.00809968
0.0074826
0.00816656
0.00696614
0.00616037
0.0051703
0.00371041
0.00279951
0.00232579
0.00207377
0.00203404
0.00188529
0.00160065
0.00137835
0.00132012
0.00140075
0.00150011
0.00155466
0.00164523
0.00178862
0.00197856
0.00211397
0.00226313
0.00269036
0.00332838
0.00323183
0.0218276
0.104683
0.125662
0.136757
0.156758
0.00817267
0.0121514
0.0057355
0.00600777
0.00871368
0.00794248
0.00839415
0.00700875
0.00610128
0.00495378
0.00348878
0.00258376
0.00209198
0.00185918
0.00184488
0.00174898
0.0015222
0.00133616
0.00129884
0.00139964
0.0015327
0.00161835
0.00169541
0.00177189
0.0018814
0.00196681
0.0021105
0.00246136
0.00305052
0.00284531
0.0192482
0.103092
0.125886
0.137106
0.157325
0.00798033
0.0101501
0.00568006
0.00662137
0.00954659
0.00859779
0.00880934
0.00721283
0.00618681
0.00488842
0.00340742
0.00248828
0.00197594
0.00176074
0.00176177
0.00168215
0.00147345
0.00130442
0.00128347
0.00140245
0.00156582
0.00169348
0.00179109
0.00183946
0.00189571
0.00194545
0.00210075
0.00241725
0.0029435
0.00271066
0.0174592
0.10186
0.126318
0.137686
0.158131
0.00778933
0.00848142
0.00590455
0.00743684
0.0106392
0.00949393
0.00944316
0.00759897
0.00642848
0.00497802
0.0034653
0.00250603
0.00195796
0.00174321
0.00174361
0.00164985
0.00143472
0.00127531
0.0012714
0.00141086
0.00160114
0.00176753
0.00189743
0.00194363
0.00197552
0.00201325
0.00220055
0.00251758
0.00297528
0.0027664
0.0164374
0.101111
0.126974
0.138514
0.15919
0.00760307
0.00719267
0.00645029
0.00849116
0.0120451
0.0106938
0.0103378
0.0081968
0.00684179
0.00522795
0.00366341
0.00263009
0.00201973
0.00177643
0.00175584
0.00162716
0.00139663
0.00124775
0.00126383
0.00142836
0.0016455
0.00184315
0.00200185
0.00205721
0.00208925
0.00214255
0.00238335
0.00272408
0.00311072
0.00295959
0.0161276
0.100938
0.127865
0.139604
0.160515
0.00742066
0.00628198
0.00739204
0.0098341
0.0138318
0.0122769
0.0115475
0.00904764
0.00744944
0.00564879
0.00400832
0.00285739
0.00214838
0.00183879
0.00177448
0.00160076
0.00135748
0.00122378
0.00126303
0.00145763
0.00170437
0.00192681
0.00210432
0.00217007
0.00222099
0.00231689
0.0026303
0.00300428
0.00331857
0.00325785
0.0164884
0.101393
0.129002
0.140967
0.162117
0.00724378
0.00570502
0.00884035
0.011531
0.0160786
0.0143347
0.0131357
0.010203
0.00828191
0.00625839
0.00451535
0.00319296
0.0023405
0.00191993
0.00178762
0.00156716
0.00131967
0.00120627
0.00127114
0.00150043
0.00178052
0.00202314
0.0022089
0.00228247
0.00236709
0.00252944
0.00292865
0.00333237
0.00357601
0.00365094
0.0175088
0.102486
0.130392
0.142613
0.164002
0.00707145
0.00541071
0.0109371
0.0136682
0.0188776
0.0169659
0.015171
0.0117203
0.00937582
0.00708092
0.00520814
0.00365234
0.00260456
0.00202091
0.0017939
0.0015296
0.00128751
0.00119812
0.00128984
0.00155736
0.00187427
0.00213356
0.00231928
0.0023992
0.00253124
0.00277948
0.00326949
0.00368926
0.00387094
0.0041477
0.0192059
0.104186
0.13204
0.144551
0.166178
0.00690537
0.00536278
0.0138459
0.0163666
0.022342
0.0202785
0.0177273
0.0136575
0.0107696
0.00814233
0.00611301
0.00426036
0.00296199
0.00215534
0.00180059
0.0014949
0.00126563
0.0012024
0.00132076
0.00162831
0.00198439
0.00225696
0.00243757
0.00252634
0.00272037
0.00306905
0.00364595
0.00406236
0.00420236
0.00477209
0.0216143
0.106436
0.133949
0.146786
0.168649
0.00674534
0.00554584
0.0177379
0.019802
0.0266194
0.0243996
0.0208871
0.0160698
0.0124982
0.00946222
0.00724642
0.00504155
0.00344104
0.00234804
0.001821
0.00147134
0.00125887
0.00122263
0.00136597
0.00171229
0.0021083
0.00239084
0.00256489
0.00266991
0.00294203
0.00340035
0.00405219
0.00444538
0.00457976
0.00556016
0.0247752
0.109164
0.136121
0.149325
0.171417
0.00659312
0.00596256
0.0227568
0.0242229
0.0319
0.0294771
0.0247395
0.0190035
0.0145846
0.0110437
0.00860018
0.00600394
0.00406236
0.00263123
0.0018736
0.00146773
0.00127213
0.00126305
0.00142853
0.00180808
0.00224267
0.00253237
0.00270225
0.00283575
0.00320302
0.00377433
0.00448325
0.00483804
0.00502188
0.00655815
0.0287248
0.112294
0.138556
0.152171
0.174483
0.00644962
0.0066291
0.0289901
0.0299485
0.0384015
0.0356553
0.0293599
0.0224798
0.0170262
0.0128611
0.0101287
0.00712095
0.00481718
0.0030282
0.00197966
0.00149344
0.00131095
0.00132876
0.00151267
0.0019145
0.00238355
0.00267917
0.00285148
0.00302962
0.00350863
0.0041901
0.00493542
0.0052458
0.00555562
0.00782126
0.0334823
0.115756
0.141253
0.155327
0.177846
0.00631698
0.00755954
0.0364481
0.0373363
0.0463229
0.0430107
0.0347619
0.0264625
0.0197727
0.0148474
0.0117437
0.00832283
0.00565424
0.00353048
0.00215709
0.00155859
0.00138165
0.00142582
0.00162401
0.00203168
0.00252747
0.00282998
0.00301553
0.0032573
0.00386241
0.00464515
0.00540681
0.00567943
0.00621504
0.0094126
0.0390414
0.119489
0.144208
0.158793
0.181504
0.00619775
0.00876133
0.0450976
0.0467264
0.0557747
0.0514682
0.0408349
0.0308208
0.0227053
0.0168855
0.0133174
0.00949981
0.0064827
0.004082
0.00240606
0.00167251
0.00149187
0.00156122
0.00176931
0.00216164
0.00267201
0.00298509
0.00319872
0.00352442
0.00426595
0.00513583
0.00589798
0.00615467
0.007041
0.0114016
0.0453637
0.123443
0.14742
0.16257
0.185453
0.00609509
0.0102307
0.0549323
0.0583842
0.0667051
0.0607296
0.0472941
0.0353027
0.0256246
0.0188094
0.0146943
0.0105178
0.00719133
0.00459359
0.00269752
0.00183905
0.00164932
0.00174252
0.00195612
0.00230968
0.00281717
0.00314673
0.00340652
0.00383619
0.00471899
0.00565826
0.00641229
0.00669185
0.00808075
0.0138614
0.0523782
0.12758
0.150884
0.166656
0.189687
0.00601408
0.0119708
0.066049
0.0724318
0.0788306
0.0702449
0.0536699
0.0395399
0.0282609
0.0204177
0.0157102
0.0112387
0.0076708
0.00497117
0.00297854
0.0020512
0.00185962
0.00197652
0.0021915
0.00248387
0.00296593
0.00331921
0.00364535
0.00419696
0.00521957
0.00620902
0.00695603
0.00731579
0.00938819
0.0168654
0.0599851
0.131871
0.154594
0.171048
0.194199
0.00596079
0.0140022
0.0786316
0.0887136
0.0915594
0.0792271
0.0593427
0.0430826
0.0303044
0.0215002
0.0162156
0.0115445
0.00783635
0.0051451
0.00319597
0.00229032
0.00212227
0.00226649
0.00248023
0.00269498
0.00312519
0.003509
0.00392211
0.00460987
0.00576445
0.00678592
0.00753848
0.00805566
0.0110237
0.0204828
0.0680633
0.136295
0.158547
0.175743
0.198979
0.00594609
0.0163858
0.09285
0.10658
0.10393
0.0867191
0.0636237
0.0454649
0.0314542
0.0218711
0.0161008
0.0113586
0.00764529
0.00508528
0.00331733
0.00253285
0.0024287
0.00260896
0.00282159
0.00295348
0.00330541
0.00372453
0.00424372
0.00507639
0.00634956
0.00738828
0.00817162
0.00894533
0.0130542
0.0247732
0.0764818
0.140837
0.162738
0.180739
0.204022
0.00598322
0.019215
0.108632
0.124687
0.114634
0.0917291
0.065873
0.0462877
0.0314736
0.0214075
0.0153216
0.0106674
0.00711151
0.00481118
0.00334063
0.0027598
0.00276299
0.00299167
0.00320699
0.00326719
0.00352049
0.00397599
0.00461648
0.0055961
0.00697062
0.00801714
0.00887007
0.0100236
0.0155528
0.0297819
0.0851097
0.145489
0.167163
0.186032
0.209318
0.00609167
0.0226196
0.125435
0.141035
0.122216
0.0934386
0.0656418
0.0453101
0.0302471
0.0200813
0.0139178
0.00953239
0.00631029
0.00438647
0.00328979
0.0029621
0.00310618
0.00339459
0.00361883
0.00363633
0.00378584
0.00427461
0.00504539
0.00616637
0.00762337
0.00867502
0.00965077
0.0113347
0.0185975
0.0355361
0.0938271
0.150248
0.171821
0.191624
0.214865
0.00628805
0.0267293
0.142115
0.153381
0.125431
0.0914242
0.0627934
0.042517
0.0278162
0.0179785
0.0120205
0.00809284
0.00537052
0.00390484
0.00320412
0.00314077
0.00344045
0.00379414
0.00403382
0.00405219
0.00411631
0.00463179
0.00553337
0.00678238
0.00830394
0.00936567
0.010533
0.0129295
0.0222708
0.0420427
0.102532
0.155114
0.176714
0.197522
0.220659
0.00658505
0.0316728
0.157138
0.159927
0.123621
0.0857985
0.0575579
0.0381416
0.0243867
0.0152944
0.00983898
0.00654625
0.00444558
0.00345927
0.00312267
0.0033021
0.00375172
0.00416777
0.00442761
0.00449611
0.00452202
0.00505737
0.00608037
0.00743693
0.00900872
0.0100935
0.0115383
0.0148657
0.0266574
0.0492891
0.111148
0.160098
0.18185
0.203736
0.226707
0.00697682
0.0374938
0.168956
0.159849
0.116912
0.0771881
0.0504825
0.0326202
0.0202937
0.0123062
0.00762994
0.00510784
0.00366847
0.00311522
0.00307354
0.00345269
0.00403018
0.00449841
0.00478118
0.00494564
0.00500494
0.00555744
0.00668258
0.00812068
0.00973423
0.0108633
0.0126906
0.0172095
0.031843
0.0572454
0.119623
0.165217
0.187243
0.210287
0.233021
0.00744499
0.0440951
0.17636
0.153414
0.106129
0.0665589
0.0423009
0.0265008
0.015943
0.00932901
0.00564991
0.0039497
0.00310917
0.00289518
0.00306678
0.00359456
0.00426917
0.0047752
0.00508301
0.00537869
0.00555552
0.00613146
0.00733188
0.00882235
0.0104768
0.0116797
0.0140166
0.0200368
0.0379135
0.065871
0.127937
0.170496
0.192916
0.217206
0.239621
0.00795396
0.050989
0.178512
0.141645
0.0924949
0.0549684
0.0337696
0.0203377
0.0117455
0.00666875
0.00409595
0.00314593
0.00276581
0.00278636
0.00309642
0.00372489
0.00446476
0.00499437
0.00533106
0.00578129
0.00615395
0.00677022
0.00801589
0.00952945
0.0112323
0.0125467
0.0155461
0.0234346
0.044954
0.0751213
0.136096
0.175972
0.198899
0.224535
0.246538
0.00846726
0.0572159
0.174875
0.125883
0.0773028
0.0433583
0.0255439
0.014617
0.0080689
0.00456876
0.0030434
0.00266364
0.0025895
0.00275413
0.0031451
0.00383705
0.0046146
0.00515637
0.00552941
0.0061469
0.00677344
0.00745514
0.00871901
0.0102294
0.0119964
0.0134682
0.0173124
0.027503
0.0530508
0.0849574
0.144135
0.181693
0.205234
0.232328
0.253814
0.00894498
0.0612766
0.165109
0.107462
0.0616797
0.032442
0.0181179
0.00972213
0.00519531
0.00314173
0.00242752
0.002411
0.00251583
0.0027585
0.00319382
0.00392484
0.00471827
0.00526527
0.00568732
0.00647883
0.0073873
0.00816117
0.00942473
0.0109114
0.012765
0.0144472
0.0193527
0.0323568
0.0622926
0.0953543
0.152114
0.187717
0.211968
0.240648
0.261499
0.0093615
0.0616314
0.149165
0.0876197
0.0465272
0.0227078
0.0118363
0.0059291
0.00326032
0.00231594
0.00210726
0.00228859
0.00248321
0.00276348
0.00322725
0.00398374
0.0047758
0.00532537
0.00581447
0.00678432
0.00797389
0.00886178
0.0101189
0.0115683
0.0135347
0.0154867
0.021708
0.0381275
0.0727751
0.10631
0.160116
0.19411
0.219159
0.249567
0.269653
0.0096768
0.0569573
0.127333
0.0675346
0.0326007
0.0145055
0.00694706
0.0033797
0.00216736
0.00189138
0.00194459
0.00221265
0.00244308
0.00274537
0.0032387
0.00401285
0.00478806
0.00534167
0.00592142
0.0070752
0.00852154
0.00953624
0.0107938
0.0121989
0.0143043
0.0165895
0.0244227
0.0449632
0.0846056
0.117853
0.168242
0.200945
0.226867
0.259162
0.278338
0.00988074
0.0471312
0.100624
0.0483012
0.0205546
0.00809231
0.00359653
0.00196152
0.00161422
0.00166014
0.00182467
0.00211515
0.00235778
0.00268596
0.00322176
0.00400644
0.00474993
0.0053135
0.00601518
0.00736217
0.0090281
0.0101729
0.0114502
0.0128098
0.0150755
0.0177587
0.0275426
0.0530272
0.0979083
0.130043
0.176613
0.208294
0.235152
0.269509
0.28762
4.88246e-24
3.15234e-19
1.14173e-18
4.31278e-18
2.50093e-17
3.15595e-14
9.04046e-11
0.0303776
0.173778
0.195438
0.206241
0.198792
0.187349
0.178581
0.15219
0.139315
0.119455
0.101069
0.0696545
0.0585291
0.0302622
0.0121415
4.99616e-24
7.39452e-20
8.35328e-20
6.24656e-18
6.24596e-17
2.46044e-13
9.24567e-10
0.0575971
0.205259
0.209217
0.207871
0.198587
0.186527
0.17885
0.152393
0.139716
0.120189
0.100839
0.0689427
0.0582864
0.0298309
0.0121903
5.10227e-24
2.76626e-19
8.77834e-19
8.89931e-18
1.22227e-16
9.2834e-13
9.32305e-09
0.0901101
0.233419
0.220538
0.208878
0.198381
0.185895
0.17929
0.15282
0.140291
0.121127
0.100703
0.0685926
0.0576739
0.0292984
0.0123486
5.06203e-24
5.726e-20
2.14769e-20
6.84926e-18
1.92224e-16
2.27764e-12
1.69576e-07
0.124423
0.257714
0.229712
0.209684
0.198286
0.185524
0.179949
0.153511
0.141023
0.122233
0.100668
0.0685928
0.0567239
0.0286991
0.0126056
5.16589e-24
2.21309e-19
6.32181e-19
7.22911e-18
2.88073e-16
3.60768e-12
6.54918e-06
0.155222
0.278063
0.237071
0.210592
0.198387
0.18548
0.180811
0.154441
0.141899
0.123465
0.100737
0.0689113
0.0555074
0.0280784
0.0129526
5.11407e-24
4.5924e-20
1.20669e-20
4.61462e-18
4.09587e-16
4.86819e-12
1.86266e-05
0.176727
0.294582
0.24298
0.211848
0.198776
0.185816
0.181931
0.155653
0.142906
0.124781
0.100905
0.0695134
0.0540823
0.0274466
0.0134068
5.22939e-24
1.7869e-19
4.73336e-19
4.63586e-18
5.80103e-16
5.05756e-12
3.44355e-05
0.186151
0.307525
0.247743
0.213591
0.199517
0.186578
0.183295
0.157121
0.144048
0.126143
0.101169
0.0703458
0.0525307
0.0268294
0.0139818
5.17025e-24
3.80407e-20
7.88029e-21
2.77951e-18
7.71892e-16
4.37313e-12
2.57579e-05
0.184295
0.317102
0.251643
0.215932
0.200681
0.187798
0.184965
0.158896
0.145326
0.127515
0.101518
0.0713617
0.0509082
0.0262244
0.0146954
5.29807e-24
1.46658e-19
3.69529e-19
2.8608e-18
9.8547e-16
2.87831e-12
2.73735e-05
0.174085
0.323492
0.254863
0.218893
0.202305
0.1895
0.186922
0.160953
0.146762
0.128879
0.101944
0.0725023
0.049288
0.025651
0.0155513
5.22356e-24
3.24415e-20
5.88732e-21
1.68659e-18
1.14742e-15
1.68784e-12
3.52431e-05
0.158282
0.326703
0.257539
0.222494
0.204437
0.191698
0.189225
0.163344
0.148373
0.130228
0.102433
0.0737245
0.0477107
0.0251002
0.0165531
5.35785e-24
1.21931e-19
2.9737e-19
1.84184e-18
1.2517e-15
8.51877e-13
4.00821e-05
0.138685
0.326641
0.259688
0.226678
0.207091
0.194397
0.191849
0.166046
0.150196
0.131575
0.102978
0.0749776
0.0462337
0.0245873
0.0176864
5.27119e-24
2.84275e-20
4.6917e-21
1.08038e-18
1.23835e-15
4.16228e-13
4.10493e-05
0.11695
0.323015
0.26127
0.231395
0.210298
0.197599
0.194843
0.169109
0.152257
0.132945
0.103569
0.0762331
0.04488
0.0240994
0.0189357
5.41228e-24
1.02864e-19
2.48128e-19