/*--------------------------------*- C++ -*----------------------------------*\
| =========                 |                                                 |
| \\      /  F ield         | OpenFOAM: The Open Source CFD Toolbox           |
|  \\    /   O peration     | Version:  v1912                                 |
|   \\  /    A nd           | Website:  www.openfoam.com                      |
|    \\/     M anipulation  |                                                 |
\*---------------------------------------------------------------------------*/
FoamFile
{
    version     2.0;
    format      ascii;
    class       volScalarField;
    location    "360";
    object      p;
}
// * * * * * * * * * * * * * * * * * * * * * * * * * * * * * * * * * * * * * //

dimensions      [0 2 -2 0 0 0 0];


internalField   nonuniform List<scalar> 
12441
(
8.79608
9.09335
9.94255
11.2656
12.9801
15.1347
17.8185
21.1453
25.2911
30.4255
36.7406
44.5025
54.2374
66.1264
81.8045
101.433
129.498
164.608
221.616
284.138
375.192
438.08
8.79607
9.09334
9.94254
11.2655
12.9801
15.1347
17.8184
21.1452
25.2909
30.4253
36.7403
44.5019
54.2364
66.1247
81.8015
101.426
129.482
164.583
221.534
284.063
375.144
437.885
8.79606
9.09332
9.94252
11.2655
12.98
15.1346
17.8183
21.145
25.2906
30.4248
36.7395
44.5007
54.2345
66.1212
81.7955
101.412
129.457
164.527
221.366
283.882
375.013
437.532
8.79603
9.0933
9.94248
11.2655
12.9799
15.1345
17.8181
21.1447
25.2902
30.4241
36.7384
44.4989
54.2316
66.116
81.7867
101.391
129.424
164.441
221.188
283.605
374.774
436.984
8.796
9.09326
9.94244
11.2654
12.9798
15.1343
17.8179
21.1443
25.2896
30.4232
36.7369
44.4965
54.2277
66.109
81.7749
101.364
129.381
164.333
221.023
283.258
374.438
436.236
8.79596
9.09322
9.94238
11.2653
12.9797
15.1341
17.8176
21.1438
25.2889
30.422
36.7351
44.4934
54.2228
66.1003
81.7602
101.33
129.327
164.206
220.837
282.837
374.01
435.289
8.79592
9.09316
9.94231
11.2652
12.9795
15.1339
17.8172
21.1432
25.288
30.4206
36.7328
44.4898
54.217
66.0898
81.7426
101.29
129.264
164.057
220.619
282.347
373.493
434.143
8.79586
9.0931
9.94223
11.2651
12.9793
15.1336
17.8168
21.1425
25.2869
30.419
36.7302
44.4856
54.2102
66.0776
81.7221
101.244
129.195
163.888
220.382
281.8
372.894
432.794
8.7958
9.09303
9.94214
11.2649
12.9791
15.1333
17.8163
21.1417
25.2858
30.4171
36.7272
44.4808
54.2024
66.0638
81.6992
101.194
129.123
163.706
220.145
281.207
372.215
431.239
8.79573
9.09295
9.94204
11.2648
12.9789
15.133
17.8158
21.1408
25.2844
30.415
36.7239
44.4754
54.1937
66.0484
81.6751
101.143
129.056
163.522
219.934
280.579
371.457
429.472
8.79565
9.09286
9.94192
11.2646
12.9786
15.1326
17.8152
21.1398
25.283
30.4126
36.7201
44.4694
54.184
66.0317
81.6511
101.097
129.01
163.356
219.779
279.927
370.619
427.486
8.79556
9.09276
9.9418
11.2644
12.9784
15.1321
17.8145
21.1388
25.2813
30.41
36.716
44.4627
54.1734
66.0147
81.6308
101.067
129.015
163.243
219.711
279.254
369.693
425.271
8.79547
9.09266
9.94166
11.2642
12.978
15.1316
17.8138
21.1376
25.2796
30.4072
36.7116
44.4555
54.1621
65.9997
81.6236
101.077
129.118
163.231
219.738
278.552
368.671
422.817
8.79537
9.09254
9.94151
11.264
12.9777
15.1311
17.813
21.1363
25.2777
30.4042
36.7067
44.4477
54.1509
65.9916
81.6452
101.153
129.362
163.357
219.83
277.803
367.544
420.11
8.79526
9.09242
9.94135
11.2637
12.9773
15.1306
17.8121
21.1349
25.2756
30.4009
36.7015
44.4393
54.1413
65.9989
81.7134
101.32
129.769
163.626
219.926
276.98
366.302
417.138
8.79514
9.09229
9.94118
11.2635
12.9769
15.13
17.8112
21.1334
25.2734
30.3973
36.6959
44.4307
54.1364
66.0323
81.8419
101.585
130.317
163.984
219.95
276.059
364.936
413.886
8.79501
9.09215
9.941
11.2632
12.9765
15.1293
17.8103
21.1318
25.271
30.3936
36.6899
44.4222
54.1413
66.1003
82.0337
101.934
130.936
164.332
219.844
275.019
363.439
410.341
8.79488
9.092
9.9408
11.2629
12.9761
15.1287
17.8092
21.1301
25.2685
30.3895
36.6834
44.4151
54.1628
66.2064
82.2797
102.334
131.521
164.562
219.58
273.849
361.806
406.487
8.79474
9.09184
9.9406
11.2626
12.9756
15.128
17.8082
21.1283
25.2659
30.3853
36.6765
44.4116
54.2059
66.3461
82.5584
102.733
131.959
164.603
219.159
272.549
360.032
402.31
8.79459
9.09167
9.94038
11.2622
12.9751
15.1272
17.807
21.1264
25.2631
30.3808
36.6694
44.4149
54.2722
66.5092
82.8413
103.073
132.165
164.441
218.606
271.12
358.115
397.794
8.79444
9.09149
9.94015
11.2619
12.9746
15.1264
17.8058
21.1244
25.2602
30.376
36.6621
44.4289
54.3581
66.6815
83.0951
103.303
132.113
164.116
217.952
269.569
356.054
392.923
8.79427
9.09131
9.93991
11.2615
12.974
15.1256
17.8045
21.1224
25.2571
30.371
36.6554
44.4563
54.4568
66.8483
83.2917
103.393
131.834
163.687
217.224
267.906
353.85
387.681
8.7941
9.09111
9.93966
11.2611
12.9735
15.1247
17.8032
21.1202
25.2538
30.3657
36.65
44.4972
54.5599
66.9949
83.4106
103.344
131.404
163.212
216.439
266.138
351.504
382.05
8.79392
9.09091
9.93939
11.2607
12.9729
15.1238
17.8018
21.1179
25.2504
30.3601
36.6476
44.5489
54.6595
67.1108
83.4472
103.178
130.905
162.721
215.61
264.274
349.019
376.011
8.79373
9.0907
9.93912
11.2603
12.9722
15.1228
17.8004
21.1155
25.2468
30.3542
36.6499
44.6072
54.7493
67.188
83.4078
102.933
130.404
162.225
214.739
262.326
346.397
369.546
8.79354
9.09048
9.93883
11.2599
12.9716
15.1218
17.7989
21.113
25.2431
30.3481
36.6585
44.6675
54.8242
67.2259
83.3103
102.648
129.935
161.723
213.829
260.301
343.64
362.632
8.79333
9.09025
9.93853
11.2594
12.9709
15.1208
17.7973
21.1104
25.2392
30.3418
36.6739
44.7256
54.8816
67.2262
83.1735
102.354
129.508
161.208
212.879
258.21
340.752
355.249
8.79312
9.09001
9.93822
11.259
12.9702
15.1197
17.7957
21.1078
25.2352
30.3357
36.6955
44.7786
54.9201
67.1961
83.0166
102.068
129.115
160.674
211.887
256.06
337.733
347.371
8.7929
9.08976
9.9379
11.2585
12.9695
15.1186
17.794
21.105
25.231
30.3297
36.7213
44.8241
54.9401
67.1422
82.8522
101.8
128.747
160.119
210.855
253.859
334.584
338.972
8.79267
9.08951
9.93757
11.258
12.9687
15.1175
17.7922
21.1021
25.2266
30.3241
36.7494
44.8609
54.943
67.0728
82.6899
101.549
128.391
159.542
209.781
251.611
331.302
330.024
8.79244
9.08924
9.93722
11.2574
12.9679
15.1163
17.7904
21.0991
25.2221
30.319
36.7779
44.8884
54.9313
66.9931
82.5327
101.312
128.04
158.943
208.665
249.318
327.884
320.496
8.7922
9.08897
9.93686
11.2569
12.9671
15.1151
17.7885
21.096
25.2173
30.3148
36.8055
44.9065
54.9074
66.9087
82.3827
101.085
127.688
158.323
207.508
246.981
324.322
310.356
8.79195
9.08869
9.93649
11.2564
12.9663
15.1138
17.7866
21.0928
25.2125
30.3118
36.8311
44.9157
54.8744
66.8216
82.2385
100.865
127.334
157.683
206.309
244.598
320.608
299.569
8.79169
9.0884
9.93611
11.2558
12.9654
15.1125
17.7846
21.0895
25.2074
30.3105
36.8539
44.9167
54.8342
66.7346
82.0999
100.648
126.974
157.025
205.069
242.17
316.729
288.097
8.79142
9.0881
9.93572
11.2552
12.9645
15.1111
17.7825
21.0861
25.2022
30.3113
36.8736
44.9106
54.7893
66.6477
81.9646
100.432
126.608
156.351
203.789
239.697
312.676
275.902
8.79115
9.08779
9.93532
11.2546
12.9636
15.1097
17.7804
21.0826
25.1968
30.3146
36.8899
44.8983
54.7408
66.5625
81.8322
100.216
126.235
155.66
202.469
237.179
308.436
262.941
8.79087
9.08747
9.9349
11.254
12.9627
15.1083
17.7783
21.079
25.1914
30.3213
36.9033
44.8811
54.6903
66.478
81.7009
99.999
125.856
154.956
201.11
234.619
303.997
249.17
8.79058
9.08714
9.93448
11.2533
12.9617
15.1068
17.776
21.0753
25.1862
30.3333
36.9139
44.86
54.6385
66.3952
81.5708
99.7795
125.471
154.237
199.714
232.023
299.349
234.544
8.79028
9.08681
9.93404
11.2526
12.9607
15.1053
17.7737
21.0714
25.1824
30.3514
36.9223
44.836
54.5861
66.3132
81.4404
99.558
125.081
153.507
198.282
229.394
294.485
219.013
8.78998
9.08646
9.93359
11.252
12.9597
15.1038
17.7714
21.0674
25.1834
30.3759
36.9288
44.8099
54.5333
66.233
81.3103
99.3341
124.685
152.764
196.816
226.739
289.399
202.525
8.78967
9.08611
9.93313
11.2513
12.9586
15.1022
17.7689
21.0634
25.1938
30.4069
36.9336
44.7823
54.4806
66.1536
81.1796
99.1084
124.285
152.01
195.322
224.062
284.089
185.026
8.78935
9.08575
9.93265
11.2506
12.9576
15.1006
17.7665
21.0594
25.2184
30.4437
36.9365
44.7541
54.4277
66.0762
81.0491
98.8807
123.88
151.245
193.802
221.365
278.554
166.468
8.78902
9.08538
9.93217
11.2498
12.9565
15.0989
17.7639
21.0565
25.2603
30.4852
36.9372
44.7256
54.3747
65.9998
80.9179
98.6519
123.472
150.467
192.262
218.646
272.768
146.764
8.78869
9.085
9.93167
11.2491
12.9554
15.0972
17.7613
21.0585
25.3184
30.5294
36.9358
44.6976
54.3214
65.9259
80.7875
98.4223
123.061
149.675
190.708
215.892
266.651
125.172
-19.3274
-22.4083
-24.4368
-22.6548
-19.0674
-16.8007
-14.4852
-12.5607
-10.559
-8.90795
-7.82858
-6.47118
-5.0357
-4.6603
-4.22864
-0.60068
6.5322
13.4347
16.6537
16.2738
14.7004
12.9945
10.8452
9.17919
7.61857
5.70091
4.4155
2.57728
4.14346
-3.01947
-1.68896
4.00451
4.98273
2.7145
0.928405
-19.3294
-22.3945
-24.4622
-22.6562
-19.0657
-16.7983
-14.4855
-12.561
-10.5592
-8.90737
-7.82781
-6.47134
-5.03494
-4.65732
-4.22227
-0.59094
6.54379
13.445
16.6595
16.2771
14.7031
12.9967
10.847
9.18077
7.62017
5.70278
4.41711
2.57784
4.15045
-3.02203
-1.71276
3.98547
4.98279
2.71498
0.92845
-19.3324
-22.3833
-24.5034
-22.659
-19.0644
-16.7956
-14.4858
-12.5612
-10.5592
-8.90633
-7.82726
-6.47074
-5.03263
-4.65246
-4.21248
-0.572775
6.57158
13.4762
16.682
16.2883
14.709
13.001
10.8505
9.18396
7.62335
5.70614
4.41996
2.57921
4.15834
-3.02798
-1.73511
3.96674
4.98301
2.71549
0.928499
-19.3366
-22.3821
-24.5597
-22.6641
-19.0642
-16.7929
-14.4859
-12.5613
-10.559
-8.90516
-7.82715
-6.46989
-5.02982
-4.64742
-4.20233
-0.551653
6.60851
13.5232
16.7207
16.3084
14.7188
13.0076
10.8558
9.18879
7.6281
5.71109
4.42437
2.58141
4.16609
-3.03685
-1.74265
3.94947
4.98323
2.71602
0.928553
-19.342
-22.3955
-24.6277
-22.6715
-19.0639
-16.7897
-14.4854
-12.5611
-10.5586
-8.90399
-7.8275
-6.46914
-5.02719
-4.64361
-4.19525
-0.535058
6.64147
13.57
16.764
16.3333
14.7316
13.0163
10.8627
9.19499
7.63415
5.71739
4.4302
2.58456
4.17362
-3.04424
-1.73642
3.93474
4.98349
2.71656
0.928607
-19.3484
-22.428
-24.7041
-22.6799
-19.0623
-16.7855
-14.4837
-12.5607
-10.5579
-8.90294
-7.82831
-6.46854
-5.02481
-4.64091
-4.19127
-0.524344
6.66582
13.608
16.8036
16.3593
14.7466
13.0268
10.871
9.20221
7.64111
5.72467
4.43716
2.58864
4.18109
-3.04685
-1.71755
3.92276
4.98382
2.71711
0.928658
-19.3556
-22.4832
-24.7857
-22.6888
-19.059
-16.78
-14.4808
-12.56
-10.5568
-8.90207
-7.8295
-6.46798
-5.02228
-4.63841
-4.18887
-0.517721
6.68262
13.6361
16.8362
16.3842
14.763
13.0387
10.8802
9.21011
7.64858
5.73251
4.44491
2.59349
4.18874
-3.04301
-1.68607
3.91336
4.98423
2.71767
0.928705
-19.3634
-22.5635
-24.8692
-22.6979
-19.0543
-16.7737
-14.4768
-12.5593
-10.5555
-8.9015
-7.83108
-6.46741
-5.0194
-4.63552
-4.18667
-0.513059
6.69427
13.6558
16.8608
16.406
14.7795
13.0514
10.8901
9.21836
7.65621
5.74049
4.45304
2.59892
4.19665
-3.03219
-1.64191
3.90646
4.98472
2.71824
0.928744
-19.3715
-22.6696
-24.9515
-22.7076
-19.0489
-16.7671
-14.4722
-12.5586
-10.5541
-8.90129
-7.83297
-6.4668
-5.0162
-4.63218
-4.1842
-0.509205
6.7025
13.6689
16.8777
16.4233
14.7947
13.0639
10.9002
9.22662
7.66366
5.7482
4.46109
2.60467
4.20483
-3.01474
-1.58554
3.90194
4.98528
2.71882
0.928773
-19.3799
-22.8004
-25.0301
-22.718
-19.0433
-16.7608
-14.4675
-12.558
-10.5529
-8.90156
-7.83517
-6.46623
-5.01291
-4.62866
-4.18145
-0.505713
6.70821
13.6763
16.8872
16.435
14.8069
13.0752
10.9097
9.23446
7.67059
5.75528
4.4686
2.61044
4.21319
-2.99162
-1.51841
3.89986
4.9859
2.7194
0.92879
-19.3883
-22.9532
-25.1026
-22.7295
-19.0379
-16.7555
-14.4632
-12.5579
-10.5518
-8.90237
-7.83764
-6.46579
-5.00977
-4.62528
-4.17872
-0.502698
6.71168
13.6792
16.8903
16.4405
14.8147
13.0839
10.9179
9.2414
7.67667
5.76141
4.47514
2.61587
4.22162
-2.9644
-1.4429
3.90028
4.9866
2.71999
0.928792
-19.3966
-23.1233
-25.1674
-22.7419
-19.0333
-16.7516
-14.4598
-12.5583
-10.5513
-8.90386
-7.84038
-6.4656
-5.00705
-4.62229
-4.1762
-0.50033
6.71307
13.6783
16.8882
16.4402
14.8177
13.0891
10.9238
9.24688
7.68156
5.76629
4.48036
2.6206
4.22997
-2.93507
-1.36247
3.90356
4.98736
2.72058
0.928778
-19.4048
-23.3046
-25.2236
-22.755
-19.0296
-16.7494
-14.4578
-12.5595
-10.5514
-8.90608
-7.84344
-6.46575
-5.00487
-4.61984
-4.17412
-0.498887
6.71249
13.6744
16.8822
16.4354
14.8161
13.0906
10.9271
9.25047
7.68496
5.76975
4.48403
2.6243
4.23812
-2.90568
-1.28132
3.91008
4.98818
2.72117
0.928744
-19.4127
-23.4892
-25.2709
-22.7684
-19.0273
-16.7492
-14.4575
-12.5616
-10.5524
-8.90918
-7.84691
-6.46635
-5.00335
-4.61797
-4.17255
-0.498413
6.71019
13.6683
16.8734
16.4273
14.8109
13.0888
10.9277
9.25195
7.68669
5.77172
4.48609
2.62674
4.24596
-2.87788
-1.20425
3.9206
4.98907
2.72176
0.92869
-19.4206
-23.6685
-25.3097
-22.7813
-19.0267
-16.7512
-14.4592
-12.5649
-10.5543
-8.91324
-7.85091
-6.46744
-5.00248
-4.61663
-4.17155
-0.498894
6.70645
13.6604
16.8626
16.417
14.8034
13.0845
10.926
9.25147
7.68681
5.77227
4.48667
2.62786
4.25345
-2.85252
-1.13592
3.93581
4.99001
2.72235
0.928614
-19.4285
-23.8337
-25.3409
-22.7927
-19.028
-16.7558
-14.4631
-12.5695
-10.5574
-8.91841
-7.85557
-6.46912
-5.00223
-4.61576
-4.17095
-0.500021
6.70168
13.6508
16.85
16.4052
14.7944
13.0787
10.9226
9.2494
7.68552
5.77163
4.48602
2.62779
4.26058
-2.82948
-1.08028
3.95649
4.99103
2.72293
0.928515
-19.4366
-23.9774
-25.3656
-22.8012
-19.0315
-16.7633
-14.4696
-12.5758
-10.5618
-8.92479
-7.86106
-6.47142
-5.00252
-4.61523
-4.17067
-0.501508
6.6962
13.6398
16.8354
16.3918
14.7844
13.0719
10.9183
9.24623
7.68315
5.77005
4.48441
2.62675
4.26748
-2.80795
-1.03956
3.98285
4.99212
2.7235
0.928392
-19.4449
-24.0946
-25.3851
-22.8058
-19.0377
-16.7739
-14.4788
-12.584
-10.5677
-8.93256
-7.86759
-6.47446
-5.00337
-4.615
-4.17048
-0.502899
6.69034
13.6273
16.8187
16.3766
14.7735
13.0646
10.9134
9.24238
7.68003
5.7678
4.48214
2.62504
4.27433
-2.78689
-1.01377
4.01462
4.9933
2.72406
0.928244
-19.4534
-24.1836
-25.4011
-22.806
-19.0467
-16.7882
-14.4912
-12.5945
-10.5755
-8.94191
-7.87545
-6.47839
-5.00482
-4.61506
-4.17028
-0.503939
6.68422
13.6132
16.7997
16.3596
14.7614
13.0566
10.9082
9.23814
7.67643
5.76508
4.47942
2.62286
4.28132
-2.76549
-1.00071
4.05062
4.99458
2.72461
0.92807
-19.4618
-24.2458
-25.4152
-22.8028
-19.0583
-16.8063
-14.5075
-12.6078
-10.5854
-8.95317
-7.88508
-6.48356
-5.00708
-4.61546
-4.16986
-0.504301
6.67791
13.5975
16.7783
16.3405
14.748
13.0481
10.9027
9.23366
7.67252
5.76204
4.47641
2.62036
4.28859
-2.7433
-0.997083
4.08944
4.99596
2.72514
0.927871
-19.47
-24.2864
-25.4277
-22.7976
-19.0721
-16.8288
-14.5283
-12.6248
-10.5979
-8.96674
-7.89706
-6.4904
-5.01042
-4.61637
-4.16923
-0.503943
6.6713
13.5798
16.7544
16.3193
14.7333
13.0388
10.8969
9.22899
7.6684
5.7588
4.4732
2.61762
4.29624
-2.72027
-0.999541
4.12939
4.99745
2.72564
0.927645
-19.4776
-24.3122
-25.4366
-22.7921
-19.0879
-16.8562
-14.5545
-12.6464
-10.6139
-8.98321
-7.91219
-6.49966
-5.01536
-4.61804
-4.16828
-0.502733
6.66427
13.5601
16.7277
16.296
14.7173
13.0287
10.8908
9.22413
7.6641
5.75542
4.46987
2.61469
4.30429
-2.69657
-1.0055
4.16934
4.99905
2.72611
0.927394
-19.4841
-24.3293
-25.4385
-22.7879
-19.1054
-16.8891
-14.5871
-12.6735
-10.6339
-9.00313
-7.93126
-6.51208
-5.02256
-4.62097
-4.16721
-0.500847
6.65658
13.5379
16.6982
16.2705
14.7
13.0179
10.8843
9.21907
7.65963
5.75192
4.46645
2.61162
4.31274
-2.67244
-1.01313
4.20838
5.00075
2.72655
0.927116
-19.4888
-24.3418
-25.4295
-22.7858
-19.1245
-16.9286
-14.6273
-12.7074
-10.6588
-9.02716
-7.95504
-6.52859
-5.03296
-4.62596
-4.16625
-0.498368
6.64801
13.5132
16.6658
16.243
14.6815
13.0063
10.8774
9.21377
7.65495
5.74833
4.46294
2.60847
4.32155
-2.64811
-1.02125
4.24634
5.00256
2.72696
0.926812
-19.4912
-24.3532
-25.4044
-22.7866
-19.1454
-16.9755
-14.6764
-12.749
-10.6893
-9.05567
-7.98382
-6.54965
-5.04726
-4.63414
-4.1662
-0.495785
6.6382
13.4856
16.6303
16.2133
14.6617
12.9941
10.8702
9.20823
7.65008
5.74466
4.45936
2.60527
4.33065
-2.62384
-1.02891
4.28315
5.00448
2.72732
0.926482
-19.4907
-24.3671
-25.3579
-22.7898
-19.1683
-17.0313
-14.736
-12.7995
-10.7261
-9.0889
-8.01743
-6.57533
-5.06581
-4.64671
-4.16805
-0.493594
6.62682
13.4549
16.5917
16.1817
14.6409
12.9811
10.8627
9.20239
7.64497
5.74092
4.45572
2.60211
4.33993
-2.59982
-1.03543
4.31925
5.00651
2.72763
0.926126
-19.4871
-24.3874
-25.2869
-22.7945
-19.1938
-17.0971
-14.8071
-12.8592
-10.7689
-9.12629
-8.05475
-6.60461
-5.08794
-4.66433
-4.17319
-0.49283
6.61331
13.4209
16.55
16.148
14.6189
12.9676
10.8548
9.19626
7.63964
5.73711
4.45202
2.59905
4.34923
-2.57629
-1.0401
4.35492
5.00866
2.72789
0.925743
-19.4806
-24.4182
-25.1929
-22.7988
-19.2225
-17.1735
-14.8897
-12.9273
-10.8169
-9.16677
-8.09404
-6.6359
-5.11225
-4.68656
-4.18238
-0.494327
6.59724
13.3835
16.5051
16.1124
14.5959
12.9535
10.8466
9.18979
7.63405
5.73323
4.44831
2.59616
4.35839
-2.55346
-1.0425
4.39076
5.01093
2.72809
0.925336
-19.4721
-24.4638
-25.0812
-22.8004
-19.2551
-17.2602
-14.9824
-13.0016
-10.8679
-9.20805
-8.1326
-6.66654
-5.13653
-4.71163
-4.19561
-0.498968
6.57806
13.3426
16.4573
16.0749
14.572
12.9389
10.838
9.18295
7.62822
5.72929
4.4446
2.59349
4.3672
-2.53158
-1.04212
4.42704
5.01333
2.72823
0.924903
-19.4627
-24.5287
-24.9594
-22.7969
-19.2926
-17.3554
-15.0814
-13.0778
-10.9183
-9.24732
-8.16746
-6.69389
-5.15857
-4.73693
-4.21129
-0.506597
6.55568
13.2983
16.4065
16.0356
14.5471
12.9238
10.8291
9.17569
7.6221
5.7253
4.44098
2.59111
4.37546
-2.51094
-1.03878
4.46432
5.01587
2.7283
0.924445
-19.4534
-24.6176
-24.8356
-22.7863
-19.3362
-17.4558
-15.1807
-13.1501
-10.9636
-9.28081
-8.19518
-6.71485
-5.17609
-4.75967
-4.22737
-0.516626
6.53025
13.251
16.3533
15.9947
14.5214
12.9083
10.8197
9.16798
7.61571
5.72129
4.43748
2.58903
4.38293
-2.49186
-1.03215
4.50277
5.01857
2.72831
0.923962
-19.4449
-24.7365
-24.717
-22.7682
-19.3869
-17.5563
-15.273
-13.2117
-10.9987
-9.30505
-8.21293
-6.72729
-5.18756
-4.77757
-4.24136
-0.527399
6.50257
13.2012
16.2978
15.9521
14.4949
12.8923
10.81
9.15974
7.609
5.71727
4.4342
2.58733
4.38938
-2.47469
-1.02223
4.54286
5.02143
2.72824
0.923455
-19.4378
-24.8931
-24.6097
-22.7449
-19.4456
-17.6508
-15.3499
-13.2556
-11.0188
-9.31673
-8.21839
-6.72951
-5.19201
-4.78949
-4.2519
-0.537587
6.47354
13.1494
16.2407
15.9082
14.4675
12.8757
10.7996
9.15094
7.60199
5.71328
4.4312
2.58599
4.39452
-2.45983
-1.0088
4.58466
5.02447
2.7281
0.922923
-19.4324
-25.0976
-24.5174
-22.7216
-19.5125
-17.7328
-15.4042
-13.2764
-11.0206
-9.31416
-8.2109
-6.72158
-5.18992
-4.7957
-4.25806
-0.545588
6.44432
13.0965
16.1824
15.8632
14.4393
12.8587
10.7887
9.14151
7.59464
5.70934
4.42858
2.5851
4.39805
-2.4477
-0.991992
4.62856
5.02769
2.72788
0.922368
-19.428
-25.3632
-24.4417
-22.7065
-19.5871
-17.7969
-15.4311
-13.2713
-11.0026
-9.29707
-8.19121
-6.70473
-5.18303
-4.79782
-4.26023
-0.550935
6.41557
13.0431
16.1236
15.8174
14.4102
12.841
10.7771
9.13142
7.58698
5.7055
4.42642
2.58469
4.39962
-2.43872
-0.97164
4.67453
5.03112
2.72758
0.921787
-19.4233
-25.7057
-24.381
-22.7083
-19.6677
-17.84
-15.4296
-13.2408
-10.9663
-9.26747
-8.16208
-6.68224
-5.17462
-4.79807
-4.25872
-0.553091
6.3879
12.9896
16.0644
15.7712
14.3804
12.8225
10.7647
9.12059
7.57897
5.7018
4.42483
2.58486
4.39884
-2.43333
-0.948
4.72294
5.03476
2.72719
0.921183
-19.4157
-26.1414
-24.3313
-22.7337
-19.7521
-17.8621
-15.4023
-13.1886
-10.9153
-9.22875
-8.12759
-6.65853
-5.16822
-4.79844
-4.25462
-0.552612
6.36129
12.9363
16.0054
15.7251
14.35
12.8033
10.7515
9.10903
7.57068
5.6983
4.42391
2.58567
4.3952
-2.43195
-0.920928
4.7737
5.03863
2.72671
0.920551
-19.4021
-26.6812
-24.2863
-22.7855
-19.8374
-17.8656
-15.3546
-13.121
-10.8551
-9.18555
-8.09318
-6.63868
-5.16654
-4.8001
-4.24837
-0.549513
6.3359
12.8831
15.9464
15.6792
14.319
12.7832
10.7373
9.09669
7.56207
5.69507
4.42379
2.58731
4.38819
-2.43499
-0.890737
4.82722
5.04273
2.72613
0.919893
-19.3801
-27.3172
-24.2389
-22.8626
-19.9206
-17.8545
-15.2934
-13.0448
-10.7916
-9.14289
-8.0645
-6.62603
-5.17035
-4.80343
-4.24071
-0.544457
6.31138
12.8299
15.8874
15.6336
14.2878
12.7622
10.7221
9.08366
7.55327
5.69215
4.42457
2.58986
4.37711
-2.44287
-0.857158
4.88346
5.04708
2.72544
0.919205
-19.3481
-28.0038
-24.1807
-22.9604
-19.9992
-17.8331
-15.2253
-12.967
-10.7306
-9.10661
-8.04572
-6.62142
-5.17916
-4.80807
-4.2313
-0.537279
6.28753
12.7763
15.8278
15.5883
14.2564
12.7404
10.706
9.06996
7.54424
5.68958
4.42639
2.59354
4.36115
-2.45593
-0.820223
4.94285
5.05167
2.72463
0.918487
-19.2996
-28.6423
-24.103
-23.0722
-20.0705
-17.8048
-15.1557
-12.893
-10.6781
-9.08192
-8.03731
-6.62334
-5.19155
-4.81307
-4.22011
-0.528846
6.26327
12.7216
15.7677
15.5433
14.2255
12.7183
10.6892
9.05568
7.535
5.68732
4.42929
2.59844
4.33958
-2.47417
-0.779717
5.00485
5.0565
2.7237
0.917735
-19.2125
-29.0773
-23.9961
-23.1893
-20.1309
-17.7715
-15.0884
-12.8281
-10.6402
-9.07041
-8.03663
-6.62961
-5.20571
-4.81701
-4.20682
-0.520206
6.23731
12.6651
15.7069
15.499
14.1957
12.6961
10.6717
9.04061
7.52529
5.68526
4.43343
2.60509
4.31302
-2.49718
-0.738049
5.06835
5.06151
2.72269
0.916956
-19.0935
-29.1223
-23.8502
-23.3025
-20.1766
-17.734
-15.026
-12.7784
-10.6191
-9.06851
-8.04007
-6.63771
-5.21916
-4.81892
-4.19345
-0.51478
6.20788
12.6074
15.6471
15.4566
14.1676
12.674
10.6529
9.02432
7.51491
5.68344
4.43918
2.61428
4.28272
-2.52521
-0.698162
5.13218
5.06686
2.72159
0.916139
-19.1785
-28.6324
-23.6603
-23.4091
-20.2099
-17.6948
-14.9726
-12.7473
-10.611
-9.07205
-8.04584
-6.64659
-5.23144
-4.82022
-4.18291
-0.5144
6.17597
12.5513
15.5906
15.4173
14.1408
12.6504
10.631
9.00568
7.50388
5.68288
4.44831
2.62689
4.23872
-2.56602
-0.648142
5.2106
5.07359
2.71999
0.915217
8.78842
9.0847
9.93127
11.2485
12.9545
15.0958
17.7591
21.0737
25.373
30.5627
36.9321
44.6764
54.2801
65.8701
80.6872
98.2447
122.741
149.045
189.498
213.712
261.597
103.468
8.78822
9.08448
9.93098
11.2481
12.9538
15.0948
17.7576
21.0974
25.4125
30.5824
36.9267
44.6612
54.2501
65.8321
80.617
98.1171
122.51
148.583
188.622
212.128
257.737
100.533
8.78801
9.08424
9.93067
11.2476
12.9531
15.0938
17.7559
21.1269
25.4459
30.5961
36.9189
44.6451
54.22
65.7927
80.545
97.986
122.271
148.103
187.724
210.484
253.718
102.208
8.7878
9.08399
9.93035
11.2471
12.9524
15.0926
17.7542
21.1565
25.473
30.6052
36.9099
44.6285
54.1899
65.753
80.4722
97.8499
122.021
147.602
186.803
208.771
249.586
102.094
8.78757
9.08373
9.93001
11.2466
12.9516
15.0915
17.7524
21.1822
25.4944
30.6104
36.9006
44.6117
54.1601
65.7116
80.397
97.7086
121.76
147.081
185.853
206.991
245.329
100.295
8.78732
9.08346
9.92965
11.2461
12.9508
15.0902
17.7505
21.1994
25.5105
30.6125
36.8916
44.5949
54.1308
65.6702
80.3206
97.5611
121.486
146.537
184.867
205.144
240.945
98.2426
8.78707
9.08317
9.92927
11.2455
12.9499
15.0889
17.7484
21.2051
25.5216
30.6121
36.8834
44.5785
54.1021
65.6272
80.2414
97.4073
121.196
145.971
183.841
203.232
236.436
96.3315
8.7868
9.08286
9.92887
11.2449
12.949
15.0875
17.7463
21.2
25.5279
30.6097
36.8761
44.5625
54.0741
65.584
80.1608
97.2466
120.89
145.379
182.769
201.255
231.809
94.399
8.78651
9.08254
9.92844
11.2443
12.9481
15.086
17.744
21.1866
25.5297
30.6056
36.8697
44.5472
54.0469
65.5394
80.077
97.0788
120.565
144.762
181.643
199.214
227.069
92.3468
8.78621
9.0822
9.928
11.2436
12.9471
15.0844
17.7416
21.1677
25.5271
30.6
36.8643
44.5324
54.0202
65.4945
79.9914
96.9035
120.222
144.117
180.459
197.109
222.218
90.1992
8.78589
9.08184
9.92753
11.2429
12.946
15.0828
17.7391
21.1449
25.5197
30.593
36.8597
44.5184
53.9942
65.4481
79.9023
96.7208
119.858
143.443
179.21
194.938
217.262
87.9911
8.78556
9.08146
9.92703
11.2421
12.9449
15.081
17.7364
21.1197
25.5073
30.5845
36.8556
44.505
53.9685
65.4011
79.8108
96.5301
119.474
142.738
177.891
192.701
212.206
85.7336
8.7852
9.08106
9.9265
11.2414
12.9437
15.0792
17.7336
21.0934
25.4894
30.574
36.8518
44.4922
53.9433
65.3523
79.7153
96.3315
119.069
142.001
176.499
190.397
207.055
83.4305
8.78483
9.08063
9.92594
11.2405
12.9425
15.0772
17.7306
21.0674
25.4653
30.5612
36.8477
44.48
53.9181
65.3026
79.6168
96.1244
118.643
141.23
175.03
188.023
201.814
81.0907
8.78443
9.08018
9.92535
11.2396
12.9411
15.0751
17.7274
21.043
25.4344
30.5453
36.8428
44.4682
53.893
65.2505
79.5135
95.9087
118.195
140.423
173.481
185.579
196.488
78.7262
8.78401
9.07971
9.92472
11.2387
12.9397
15.0729
17.724
21.0213
25.3963
30.5255
36.8362
44.4567
53.8677
65.1969
79.4064
95.6835
117.726
139.58
171.85
183.062
191.081
76.3503
8.78357
9.0792
9.92406
11.2377
12.9382
15.0705
17.7205
21.0029
25.3513
30.5005
36.827
44.4451
53.8423
65.1404
79.2936
95.4486
117.234
138.698
170.134
180.472
185.598
73.9769
8.7831
9.07867
9.92336
11.2367
12.9366
15.068
17.7167
20.9878
25.3002
30.4693
36.8138
44.4331
53.8163
65.0817
79.1759
95.2029
116.719
137.776
168.334
177.807
180.043
71.62
8.7826
9.07811
9.92261
11.2356
12.935
15.0654
17.7127
20.9758
25.2447
30.4306
36.7949
44.4199
53.7899
65.0193
79.0515
94.946
116.18
136.813
166.448
175.066
174.42
69.2922
8.78207
9.07751
9.92182
11.2344
12.9332
15.0626
17.7084
20.9659
25.1874
30.3835
36.7682
44.4044
53.7626
64.9541
78.9208
94.6768
115.615
135.808
164.475
172.246
168.733
67.0039
8.78151
9.07687
9.92099
11.2332
12.9313
15.0596
17.7038
20.9574
25.1313
30.3275
36.7312
44.3851
53.7343
64.8845
78.7821
94.3945
115.022
134.758
162.415
169.347
162.986
64.7622
8.78092
9.0762
9.9201
11.2318
12.9293
15.0565
17.699
20.9495
25.0791
30.2632
36.6812
44.3596
53.704
64.8114
78.6357
94.098
114.402
133.662
160.267
166.366
157.186
62.5699
8.78029
9.07548
9.91915
11.2304
12.9272
15.0531
17.6938
20.9417
25.0332
30.1927
36.6156
44.3243
53.6708
64.7333
78.4798
93.7865
113.751
132.519
158.031
163.303
151.337
60.4252
8.77962
9.07472
9.91815
11.2289
12.925
15.0496
17.6884
20.9336
24.9948
30.1189
36.5329
44.2747
53.6323
64.6507
78.3147
93.4586
113.068
131.325
155.707
160.156
145.446
58.3209
8.77891
9.07392
9.91709
11.2274
12.9226
15.0458
17.6825
20.9251
24.9633
30.0455
36.4334
44.2048
53.585
64.5617
78.1386
93.1137
112.351
130.08
153.294
156.923
139.523
56.2451
8.77815
9.07306
9.91596
11.2257
12.9201
15.0418
17.6764
20.916
24.9375
29.976
36.3201
44.1086
53.5229
64.466
77.9517
92.7504
111.6
128.782
150.791
153.602
133.577
54.1816
8.77735
9.07215
9.91475
11.2239
12.9174
15.0376
17.6698
20.9063
24.9154
29.9128
36.1984
43.9812
53.4374
64.3595
77.7517
92.368
110.812
127.428
148.198
150.193
127.617
52.1102
8.7765
9.07118
9.91347
11.222
12.9145
15.0331
17.6628
20.8959
24.8954
29.8571
36.075
43.8219
53.3167
64.2378
77.538
91.9649
109.987
126.017
145.515
146.692
121.657
50.0087
8.77559
9.07016
9.91211
11.22
12.9115
15.0283
17.6554
20.8848
24.876
29.8083
35.9567
43.6357
53.1482
64.091
77.3062
91.5401
109.123
124.547
142.743
143.099
115.709
47.8536
8.77462
9.06906
9.91067
11.2179
12.9083
15.0232
17.6475
20.873
24.8565
29.765
35.8482
43.4332
52.9227
63.9058
77.0515
91.0913
108.22
123.015
139.881
139.412
109.787
45.6216
8.7736
9.0679
9.90912
11.2156
12.9048
15.0178
17.6391
20.8603
24.8363
29.7252
35.7513
43.228
52.6402
63.6633
76.7622
90.6153
107.275
121.422
136.931
135.63
103.905
43.2909
8.7725
9.06666
9.90748
11.2132
12.9012
15.0121
17.6302
20.8469
24.8149
29.687
35.6654
43.0324
52.313
63.3468
76.4226
90.1057
106.289
119.764
133.893
131.754
98.0773
40.8428
8.77134
9.06534
9.90573
11.2106
12.8973
15.006
17.6208
20.8325
24.7922
29.6486
35.5878
42.8541
51.964
62.9468
76.0092
89.5521
105.257
118.041
130.77
127.783
92.3191
38.262
8.7701
9.06393
9.90387
11.2078
12.8931
14.9995
17.6107
20.8172
24.7681
29.609
35.5152
42.695
51.6188
62.472
75.4986
88.9378
104.176
116.252
127.562
123.719
86.6445
35.5383
8.76877
9.06244
9.90188
11.2049
12.8887
14.9926
17.6
20.801
24.7423
29.5676
35.4439
42.552
51.2972
61.9483
74.8752
88.2409
103.035
114.394
124.272
119.564
81.0678
32.6668
8.76736
9.06084
9.89976
11.2018
12.884
14.9853
17.5886
20.7836
24.7149
29.5237
35.3715
42.4194
51.0077
61.4126
74.1448
87.4373
101.822
112.466
120.904
115.323
75.6026
29.6486
8.76586
9.05914
9.8975
11.1985
12.879
14.9774
17.5765
20.7652
24.6857
29.4772
35.2961
42.2909
50.7479
60.8976
73.3373
86.511
100.521
110.467
117.462
111.001
70.262
26.4907
8.76426
9.05732
9.89508
11.1949
12.8736
14.9691
17.5636
20.7455
24.6547
29.4277
35.2168
42.1612
50.5085
60.4217
72.5004
85.4639
99.1118
108.393
113.954
106.606
65.0586
23.2062
8.76254
9.05538
9.89251
11.1911
12.8679
14.9602
17.5498
20.7245
24.6216
29.375
35.1328
42.0267
50.278
59.9856
71.68
84.3217
97.5853
106.245
110.392
102.149
60.0054
19.8136
8.76071
9.05331
9.88976
11.1871
12.8618
14.9508
17.5352
20.7021
24.5863
29.3191
35.0437
41.8852
50.0462
59.5771
70.9042
83.1285
95.9439
104.022
106.794
97.6435
55.1156
16.3364
8.75876
9.05111
9.88682
11.1827
12.8553
14.9407
17.5195
20.6783
24.5488
29.2596
34.9491
41.7357
49.8061
59.1787
70.1757
81.9298
94.2083
101.733
103.185
93.111
50.4043
12.8027
8.75667
9.04875
9.88368
11.1781
12.8484
14.9299
17.5029
20.6529
24.5088
29.1963
34.8486
41.5773
49.5537
58.7748
69.4777
80.7547
92.4116
99.3857
99.5954
88.5787
45.8883
9.24436
8.75444
9.04623
9.88032
11.1732
12.841
14.9185
17.4852
20.6257
24.4661
29.1288
34.7417
41.4093
49.2871
58.3546
68.7855
79.6084
90.5873
96.9943
96.0607
84.0818
41.5872
5.69695
8.75206
9.04353
9.87673
11.1679
12.8331
14.9062
17.4663
20.5968
24.4207
29.0571
34.6282
41.2311
49.0052
57.9124
68.0765
78.4754
88.757
94.5662
92.6097
79.6622
37.5226
2.19918
8.74951
9.04065
9.87289
11.1623
12.8246
14.8932
17.4461
20.5659
24.3723
28.9807
34.5076
41.0419
48.7071
57.4459
67.3357
77.3305
86.9261
92.0991
89.2549
75.364
33.7172
-1.20769
8.74679
9.03757
9.86879
11.1563
12.8156
14.8792
17.4246
20.533
24.3207
28.8994
34.3794
40.8413
48.3916
56.9538
66.5561
76.1494
85.084
89.5832
85.9804
71.2243
30.1913
-4.48103
8.74387
9.03428
9.8644
11.1499
12.8059
14.8643
17.4016
20.4978
24.2657
28.8129
34.2432
40.6283
48.0577
56.4349
65.7362
74.9159
83.2096
87.01
82.7405
67.2608
26.9586
-7.57866
8.74075
9.03075
9.8597
11.143
12.7956
14.8484
17.3771
20.4603
24.2071
28.7208
34.0984
40.4025
47.7044
55.8878
64.876
73.6238
81.2803
84.3767
79.4771
63.4589
24.0193
-10.4618
8.73741
9.02698
9.85467
11.1356
12.7845
14.8314
17.351
20.4202
24.1445
28.6227
33.9446
40.163
47.3308
55.311
63.9751
72.2733