/*--------------------------------*- C++ -*----------------------------------*\
| =========                 |                                                 |
| \\      /  F ield         | OpenFOAM: The Open Source CFD Toolbox           |
|  \\    /   O peration     | Version:  v1912                                 |
|   \\  /    A nd           | Website:  www.openfoam.com                      |
|    \\/     M anipulation  |                                                 |
\*---------------------------------------------------------------------------*/
FoamFile
{
    version     2.0;
    format      ascii;
    class       surfaceScalarField;
    location    "360";
    object      phi;
}
// * * * * * * * * * * * * * * * * * * * * * * * * * * * * * * * * * * * * * //

dimensions      [0 3 -1 0 0 0 0];
oriented        oriented;


internalField   nonuniform List<scalar> 
24588
(
6.81684e-05
1.97399e-08
6.81151e-05
5.41624e-08
6.80311e-05
8.33785e-08
6.79169e-05
1.14088e-07
6.77679e-05
1.48376e-07
6.75805e-05
1.87532e-07
6.73471e-05
2.33296e-07
6.70531e-05
2.94994e-07
6.66888e-05
3.63424e-07
6.62359e-05
4.52752e-07
6.56729e-05
5.62593e-07
6.49639e-05
6.94938e-07
6.41259e-05
8.89318e-07
6.29216e-05
1.15059e-06
6.14857e-05
1.44807e-06
5.91714e-05
2.31428e-06
5.62696e-05
2.90333e-06
5.14977e-05
4.77167e-06
4.48248e-05
6.67296e-06
3.36444e-05
1.11806e-05
1.99882e-05
1.36563e-05
1.99882e-05
6.81687e-05
4.00191e-08
6.81149e-05
1.09052e-07
6.8031e-05
1.66488e-07
6.7917e-05
2.27886e-07
6.77681e-05
2.9646e-07
6.75807e-05
3.75106e-07
6.73476e-05
4.66202e-07
6.70531e-05
5.90746e-07
6.66889e-05
7.26554e-07
6.62356e-05
9.05848e-07
6.56741e-05
1.12361e-06
6.49555e-05
1.39764e-06
6.41342e-05
1.76738e-06
6.29265e-05
2.30563e-06
6.14925e-05
2.8946e-06
5.92371e-05
4.5699e-06
5.62832e-05
5.85996e-06
5.14645e-05
9.59014e-06
4.48684e-05
1.32691e-05
3.35474e-05
2.25021e-05
1.99497e-05
2.7254e-05
3.9938e-05
6.81687e-05
6.02977e-08
6.81149e-05
1.63935e-07
6.8031e-05
2.49646e-07
6.79169e-05
3.41738e-07
6.7768e-05
4.44585e-07
6.75806e-05
5.62655e-07
6.73475e-05
6.99111e-07
6.7053e-05
8.865e-07
6.66888e-05
1.0897e-06
6.62356e-05
1.35894e-06
6.56736e-05
1.68509e-06
6.49575e-05
2.09708e-06
6.41309e-05
2.65372e-06
6.29184e-05
3.45501e-06
6.14822e-05
4.34498e-06
5.92654e-05
6.78636e-06
5.62785e-05
8.85027e-06
5.14845e-05
1.43837e-05
4.48441e-05
1.99095e-05
3.35684e-05
3.37784e-05
1.99701e-05
4.08524e-05
5.99081e-05
6.81687e-05
8.05749e-08
6.8115e-05
2.1877e-07
6.8031e-05
3.32744e-07
6.7917e-05
4.55534e-07
6.77681e-05
5.92643e-07
6.75807e-05
7.50222e-07
6.73476e-05
9.32025e-07
6.70532e-05
1.18219e-06
6.66889e-05
1.45283e-06
6.62356e-05
1.81209e-06
6.56737e-05
2.2465e-06
6.49556e-05
2.7993e-06
6.41328e-05
3.53254e-06
6.29263e-05
4.61088e-06
6.14844e-05
5.79892e-06
5.92876e-05
8.98312e-06
5.63032e-05
1.18376e-05
5.14995e-05
1.91871e-05
4.48335e-05
2.65757e-05
3.35975e-05
4.50149e-05
2.00042e-05
5.44457e-05
7.99123e-05
6.81687e-05
1.00842e-07
6.8115e-05
2.73582e-07
6.8031e-05
4.15894e-07
6.79169e-05
5.694e-07
6.77681e-05
7.40749e-07
6.75807e-05
9.37747e-07
6.73476e-05
1.16492e-06
6.70531e-05
1.47788e-06
6.66889e-05
1.81597e-06
6.62356e-05
2.26521e-06
6.56735e-05
2.80812e-06
6.49584e-05
3.498e-06
6.413e-05
4.42103e-06
6.2919e-05
5.75852e-06
6.14768e-05
7.25547e-06
5.92935e-05
1.11662e-05
5.63271e-05
1.48074e-05
5.15011e-05
2.40125e-05
4.48519e-05
3.32249e-05
3.36436e-05
5.62237e-05
2.00529e-05
6.80364e-05
9.99652e-05
6.81687e-05
1.21115e-07
6.8115e-05
3.28356e-07
6.80311e-05
4.98964e-07
6.7917e-05
6.83184e-07
6.77682e-05
8.88759e-07
6.75808e-05
1.1253e-06
6.73477e-05
1.39783e-06
6.70533e-05
1.7735e-06
6.6689e-05
2.17908e-06
6.62358e-05
2.71833e-06
6.56738e-05
3.36959e-06
6.49556e-05
4.20037e-06
6.41317e-05
5.29924e-06
6.29276e-05
6.91499e-06
6.148e-05
8.71451e-06
5.92964e-05
1.33498e-05
5.63443e-05
1.77624e-05
5.15125e-05
2.88441e-05
4.48837e-05
3.98539e-05
3.37094e-05
6.73985e-05
2.01184e-05
8.16275e-05
0.000120084
6.81687e-05
1.41376e-07
6.8115e-05
3.83104e-07
6.8031e-05
5.82098e-07
6.7917e-05
7.97058e-07
6.77681e-05
1.03682e-06
6.75807e-05
1.31278e-06
6.73477e-05
1.63072e-06
6.70532e-05
2.06912e-06
6.6689e-05
2.54218e-06
6.62358e-05
3.17143e-06
6.56739e-05
3.93103e-06
6.49596e-05
4.89868e-06
6.41288e-05
6.18985e-06
6.29195e-05
8.05992e-06
6.14729e-05
1.01762e-05
5.92887e-05
1.55337e-05
5.63589e-05
2.0695e-05
5.15329e-05
3.36695e-05
4.49315e-05
4.64552e-05
3.38021e-05
7.85282e-05
2.02035e-05
9.52261e-05
0.000140287
6.81686e-05
1.61645e-07
6.8115e-05
4.37824e-07
6.80311e-05
6.65142e-07
6.79171e-05
9.10825e-07
6.77683e-05
1.18478e-06
6.75809e-05
1.50031e-06
6.73478e-05
1.86361e-06
6.70534e-05
2.36467e-06
6.66892e-05
2.90524e-06
6.6236e-05
3.62448e-06
6.56741e-05
4.49242e-06
6.49556e-05
5.6016e-06
6.413e-05
7.06697e-06
6.29286e-05
9.21709e-06
6.14688e-05
1.16476e-05
5.9278e-05
1.7725e-05
5.63777e-05
2.35973e-05
5.15798e-05
3.84674e-05
4.50115e-05
5.30238e-05
3.39326e-05
8.96075e-05
2.0312e-05
0.000108847
0.000160599
6.81687e-05
1.81899e-07
6.8115e-05
4.92516e-07
6.80311e-05
7.48263e-07
6.7917e-05
1.0247e-06
6.77682e-05
1.3328e-06
6.75808e-05
1.68775e-06
6.73478e-05
2.09646e-06
6.70534e-05
2.66022e-06
6.66892e-05
3.26829e-06
6.6236e-05
4.07753e-06
6.56745e-05
5.05347e-06
6.49612e-05
6.29967e-06
6.41261e-05
7.96212e-06
6.29152e-05
1.03648e-05
6.14392e-05
1.31363e-05
5.92746e-05
1.98893e-05
5.63835e-05
2.64898e-05
5.16796e-05
4.31708e-05
4.51427e-05
5.95605e-05
3.41119e-05
0.000100639
2.0448e-05
0.000122511
0.000181047
6.81686e-05
2.02163e-07
6.8115e-05
5.47183e-07
6.80311e-05
8.3129e-07
6.79171e-05
1.13845e-06
6.77683e-05
1.48069e-06
6.7581e-05
1.87525e-06
6.73479e-05
2.32934e-06
6.70536e-05
2.9557e-06
6.66894e-05
3.63127e-06
6.62364e-05
4.5304e-06
6.5675e-05
5.61441e-06
6.49544e-05
7.00486e-06
6.41188e-05
8.84435e-06
6.29099e-05
1.1534e-05
6.1413e-05
1.46424e-05
5.92965e-05
2.20065e-05
5.63926e-05
2.93947e-05
5.18342e-05
4.77292e-05
4.53286e-05
6.60663e-05
3.4344e-05
0.000111624
2.0615e-05
0.00013624
0.000201662
6.81687e-05
2.2241e-07
6.8115e-05
6.01822e-07
6.80311e-05
9.14411e-07
6.7917e-05
1.25232e-06
6.77682e-05
1.62867e-06
6.75809e-05
2.06265e-06
6.73479e-05
2.56216e-06
6.70536e-05
3.25116e-06
6.66895e-05
3.99424e-06
6.62364e-05
4.98333e-06
6.56755e-05
6.17485e-06
6.49598e-05
7.70628e-06
6.41149e-05
9.74607e-06
6.28997e-05
1.26979e-05
6.13926e-05
1.61557e-05
5.93259e-05
2.40727e-05
5.64205e-05
3.23005e-05
5.20156e-05
5.21337e-05
4.55471e-05
7.25347e-05
3.46212e-05
0.00012255
2.08141e-05
0.000150047
0.000222476
6.81686e-05
2.42666e-07
6.8115e-05
6.56439e-07
6.80312e-05
9.97432e-07
6.79172e-05
1.36605e-06
6.77684e-05
1.77651e-06
6.75811e-05
2.25011e-06
6.73481e-05
2.79501e-06
6.70538e-05
3.54656e-06
6.66897e-05
4.35715e-06
6.62369e-05
5.43596e-06
6.56765e-05
6.73475e-06
6.49492e-05
8.4195e-06
6.40946e-05
1.06382e-05
6.29031e-05
1.38656e-05
6.1385e-05
1.76782e-05
5.93535e-05
2.61049e-05
5.64595e-05
3.51948e-05
5.2184e-05
5.64094e-05
4.57686e-05
7.89502e-05
3.49281e-05
0.00013339
2.10442e-05
0.000163931
0.000243521
6.81687e-05
2.62902e-07
6.8115e-05
7.11026e-07
6.80311e-05
1.08056e-06
6.79171e-05
1.47993e-06
6.77683e-05
1.92446e-06
6.7581e-05
2.43747e-06
6.7348e-05
3.02781e-06
6.70537e-05
3.84195e-06
6.66897e-05
4.72e-06
6.62372e-05
5.88835e-06
6.56761e-05
7.29548e-06
6.49453e-05
9.1378e-06
6.40771e-05
1.15497e-05
6.29071e-05
1.50126e-05
6.13824e-05
1.92041e-05
5.93744e-05
2.81125e-05
5.64972e-05
3.8072e-05
5.23186e-05
6.05878e-05
4.59743e-05
8.52943e-05
3.52492e-05
0.000144115
2.13019e-05
0.000177878
0.000264822
6.81686e-05
2.83149e-07
6.81151e-05
7.65593e-07
6.80312e-05
1.16359e-06
6.79172e-05
1.59364e-06
6.77685e-05
2.07225e-06
6.75812e-05
2.6249e-06
6.73482e-05
3.26064e-06
6.7054e-05
4.13728e-06
6.669e-05
5.08284e-06
6.62379e-05
6.34032e-06
6.56746e-05
7.85823e-06
6.49309e-05
9.87047e-06
6.40603e-05
1.24381e-05
6.29089e-05
1.61585e-05
6.13822e-05
2.07326e-05
5.93884e-05
3.01068e-05
5.65276e-05
4.0933e-05
5.24202e-05
6.46953e-05
4.61577e-05
9.15569e-05
3.55728e-05
0.0001547
2.15829e-05
0.000191868
0.000286405
6.81687e-05
3.03371e-07
6.81151e-05
8.20127e-07
6.80311e-05
1.24674e-06
6.79171e-05
1.70752e-06
6.77683e-05
2.22016e-06
6.75811e-05
2.81221e-06
6.73481e-05
3.4934e-06
6.70539e-05
4.4326e-06
6.669e-05
5.44559e-06
6.62382e-05
6.79202e-06
6.56719e-05
8.42411e-06
6.49247e-05
1.06089e-05
6.40558e-05
1.33254e-05
6.29085e-05
1.72968e-05
6.13827e-05
2.22585e-05
5.93973e-05
3.20917e-05
5.65501e-05
4.37802e-05
5.24969e-05
6.87482e-05
4.63192e-05
9.77346e-05
3.58919e-05
0.000165128
2.18829e-05
0.000205877
0.000308288
6.81686e-05
3.23606e-07
6.81151e-05
8.74644e-07
6.80312e-05
1.32978e-06
6.79173e-05
1.82121e-06
6.77685e-05
2.36791e-06
6.75813e-05
2.99959e-06
6.73483e-05
3.7262e-06
6.70541e-05
4.72789e-06
6.66901e-05
5.80842e-06
6.62384e-05
7.24367e-06
6.56665e-05
8.99551e-06
6.49258e-05
1.13432e-05
6.40527e-05
1.42014e-05
6.29078e-05
1.8442e-05
6.13835e-05
2.37837e-05
5.94028e-05
3.40728e-05
5.65661e-05
4.6617e-05
5.25564e-05
7.27581e-05
4.64614e-05
0.00010383
3.62032e-05
0.000175386
2.21981e-05
0.000219882
0.000330486
6.81687e-05
3.43813e-07
6.81151e-05
9.29127e-07
6.80312e-05
1.41296e-06
6.79171e-05
1.93509e-06
6.77684e-05
2.51579e-06
6.75812e-05
3.18685e-06
6.73483e-05
3.95891e-06
6.70541e-05
5.02317e-06
6.66901e-05
6.17127e-06
6.62387e-05
7.69499e-06
6.56574e-05
9.57636e-06
6.49341e-05
1.20629e-05
6.40506e-05
1.50929e-05
6.29071e-05
1.95811e-05
6.13843e-05
2.53062e-05
5.94061e-05
3.60507e-05
5.65774e-05
4.94456e-05
5.26045e-05
7.67308e-05
4.65881e-05
0.000109846
3.65053e-05
0.000185469
2.25254e-05
0.000233862
0.000353012
6.81686e-05
3.64034e-07
6.81151e-05
9.83594e-07
6.80312e-05
1.49601e-06
6.79173e-05
2.04876e-06
6.77686e-05
2.6635e-06
6.75814e-05
3.37418e-06
6.73485e-05
4.19166e-06
6.70543e-05
5.31838e-06
6.66902e-05
6.53429e-06
6.62391e-05
8.14589e-06
6.56481e-05
1.0167e-05
6.49415e-05
1.27675e-05
6.40488e-05
1.59845e-05
6.29067e-05
2.07248e-05
6.13852e-05
2.68284e-05
5.9408e-05
3.80282e-05
5.65855e-05
5.22682e-05
5.26454e-05
8.06711e-05
4.67028e-05
0.000115789
3.67987e-05
0.000195373
2.28629e-05
0.000247798
0.000375875
6.81687e-05
3.84225e-07
6.81151e-05
1.03803e-06
6.80312e-05
1.57922e-06
6.79171e-05
2.16264e-06
6.77684e-05
2.81135e-06
6.75813e-05
3.56139e-06
6.73484e-05
4.42431e-06
6.70543e-05
5.61356e-06
6.66902e-05
6.8973e-06
6.6239e-05
8.59703e-06
6.56424e-05
1.07632e-05
6.49453e-05
1.34638e-05
6.40476e-05
1.68865e-05
6.29065e-05
2.18629e-05
6.13861e-05
2.83484e-05
5.94092e-05
4.00046e-05
5.65918e-05
5.50856e-05
5.2682e-05
8.45807e-05
4.68088e-05
0.000121662
3.70846e-05
0.000205097
2.32091e-05
0.000261673
0.000399084
6.81686e-05
4.04431e-07
6.81151e-05
1.09244e-06
6.80313e-05
1.6623e-06
6.79173e-05
2.27629e-06
6.77687e-05
2.95901e-06
6.75815e-05
3.74867e-06
6.73487e-05
4.65701e-06
6.70546e-05
5.90866e-06
6.66905e-05
7.26028e-06
6.62353e-05
9.05204e-06
6.56419e-05
1.13564e-05
6.49465e-05
1.41586e-05
6.40469e-05
1.77843e-05
6.29065e-05
2.3005e-05
6.13871e-05
2.98683e-05
5.94102e-05
4.19819e-05
5.65971e-05
5.78987e-05
5.27166e-05
8.84613e-05
4.6909e-05
0.000127469
3.73646e-05
0.000214642
2.35633e-05
0.000275475
0.000422647
6.81687e-05
4.24604e-07
6.81151e-05
1.14682e-06
6.80312e-05
1.74555e-06
6.79172e-05
2.39018e-06
6.77685e-05
3.10685e-06
6.75814e-05
3.93582e-06
6.73486e-05
4.88957e-06
6.70545e-05
6.20375e-06
6.66908e-05
7.62291e-06
6.6227e-05
9.51582e-06
6.56458e-05
1.19374e-05
6.49467e-05
1.48575e-05
6.40465e-05
1.86876e-05
6.29067e-05
2.41424e-05
6.13883e-05
3.13863e-05
5.94112e-05
4.39587e-05
5.66025e-05
6.07073e-05
5.27511e-05
9.23126e-05
4.70058e-05
0.000133214
3.76407e-05
0.000224007
2.39256e-05
0.00028919
0.000446573
6.81687e-05
4.44795e-07
6.81151e-05
1.20119e-06
6.80313e-05
1.82865e-06
6.79174e-05
2.50381e-06
6.77688e-05
3.25446e-06
6.75816e-05
4.12306e-06
6.73489e-05
5.12216e-06
6.70548e-05
6.49884e-06
6.66914e-05
7.98518e-06
6.62176e-05
9.98954e-06
6.56504e-05
1.25045e-05
6.49467e-05
1.55609e-05
6.40464e-05
1.9586e-05
6.29071e-05
2.52834e-05
6.13898e-05
3.2904e-05
5.94129e-05
4.5936e-05
5.66088e-05
6.35115e-05
5.27865e-05
9.61351e-05
4.71011e-05
0.0001389
3.79153e-05
0.000233193
2.42963e-05
0.000302809
0.000470869
6.81687e-05
4.64949e-07
6.81151e-05
1.25552e-06
6.80312e-05
1.91193e-06
6.79172e-05
2.61769e-06
6.77686e-05
3.40227e-06
6.75815e-05
4.31016e-06
6.73489e-05
5.35459e-06
6.70548e-05
6.79394e-06
6.66919e-05
8.347e-06
6.62109e-05
1.04704e-05
6.56536e-05
1.30619e-05
6.49467e-05
1.62678e-05
6.40466e-05
2.04887e-05
6.29078e-05
2.64199e-05
6.13918e-05
3.44197e-05
5.94154e-05
4.7912e-05
5.66164e-05
6.63105e-05
5.28237e-05
9.99277e-05
4.71965e-05
0.000144527
3.81905e-05
0.000242199
2.4676e-05
0.000316323
0.000495545
6.81687e-05
4.85124e-07
6.81151e-05
1.30984e-06
6.80313e-05
1.99506e-06
6.79174e-05
2.7313e-06
6.77688e-05
3.54984e-06
6.75817e-05
4.49735e-06
6.73492e-05
5.58707e-06
6.70551e-05
7.08899e-06
6.66923e-05
8.70867e-06
6.62073e-05
1.09554e-05
6.56552e-05
1.36139e-05
6.49468e-05
1.69759e-05
6.40469e-05
2.13867e-05
6.29088e-05
2.75597e-05
6.13943e-05
3.59347e-05
5.94193e-05
4.98873e-05
5.66259e-05
6.9104e-05
5.28631e-05
0.000103691
4.72929e-05
0.000150097
3.84686e-05
0.000251023
2.50659e-05
0.000329726
0.000520611
6.81687e-05
5.05259e-07
6.81151e-05
1.36412e-06
6.80312e-05
2.07838e-06
6.79172e-05
2.84518e-06
6.77686e-05
3.69762e-06
6.75816e-05
4.68439e-06
6.73491e-05
5.81941e-06
6.70551e-05
7.38391e-06
6.66924e-05
9.07032e-06
6.62054e-05
1.14424e-05
6.5656e-05
1.41634e-05
6.4947e-05
1.76849e-05
6.40475e-05
2.22885e-05
6.29101e-05
2.8695e-05
6.13974e-05
3.7447e-05
5.94248e-05
5.18596e-05
5.66377e-05
7.1891e-05
5.29049e-05
0.000107423
4.73914e-05
0.00015561
3.87519e-05
0.000259663
2.54672e-05
0.000343011
0.000546078
6.81687e-05
5.25416e-07
6.81152e-05
1.41838e-06
6.80313e-05
2.16154e-06
6.79174e-05
2.95876e-06
6.77689e-05
3.84515e-06
6.75819e-05
4.87151e-06
6.73494e-05
6.05185e-06
6.70556e-05
7.67866e-06
6.66912e-05
9.43361e-06
6.62053e-05
1.19282e-05
6.56565e-05
1.47122e-05
6.49473e-05
1.83939e-05
6.40482e-05
2.31859e-05
6.29118e-05
2.9833e-05
6.14013e-05
3.89579e-05
5.9432e-05
5.38291e-05
5.66519e-05
7.46712e-05
5.29491e-05
0.000111126
4.74924e-05
0.000161067
3.90426e-05
0.000268113
2.58814e-05
0.000356172
0.00057196
6.81687e-05
5.45533e-07
6.81152e-05
1.47262e-06
6.80313e-05
2.24489e-06
6.79172e-05
3.07263e-06
6.77687e-05
3.99291e-06
6.75818e-05
5.05845e-06
6.73492e-05
6.28417e-06
6.70557e-05
7.97312e-06
6.66861e-05
9.80228e-06
6.62087e-05
1.24056e-05
6.56569e-05
1.52639e-05
6.49478e-05
1.91031e-05
6.40491e-05
2.40867e-05
6.29138e-05
3.09664e-05
6.1406e-05
4.04653e-05
5.94411e-05
5.57938e-05
5.66687e-05
7.74435e-05
5.29957e-05
0.000114799
4.75963e-05
0.000166467
3.93427e-05
0.000276366
2.631e-05
0.000369204
0.00059827
6.81687e-05
5.65674e-07
6.81152e-05
1.52683e-06
6.80314e-05
2.32807e-06
6.79175e-05
3.18618e-06
6.7769e-05
4.1404e-06
6.75821e-05
5.24547e-06
6.73495e-05
6.51663e-06
6.70563e-05
8.26725e-06
6.66788e-05
1.01788e-05
6.62139e-05
1.28704e-05
6.56574e-05
1.58204e-05
6.49483e-05
1.9812e-05
6.40502e-05
2.49832e-05
6.29162e-05
3.2102e-05
6.14116e-05
4.19702e-05
5.94519e-05
5.77538e-05
5.6688e-05
8.02075e-05
5.30448e-05
0.000118443
4.77032e-05
0.000171808
3.96541e-05
0.000284416
2.67546e-05
0.000382104
0.000625024
6.81687e-05
5.85771e-07
6.81152e-05
1.58102e-06
6.80313e-05
2.41146e-06
6.79173e-05
3.30005e-06
6.77688e-05
4.28815e-06
6.75819e-05
5.43232e-06
6.73494e-05
6.74894e-06
6.70566e-05
8.56103e-06
6.6673e-05
1.05615e-05
6.62181e-05
1.33254e-05
6.56579e-05
1.63806e-05
6.4949e-05
2.0521e-05
6.40514e-05
2.58827e-05
6.2919e-05
3.32326e-05
6.1418e-05
4.34709e-05
5.94643e-05
5.97072e-05
5.67098e-05
8.29619e-05
5.30962e-05
0.000122056
4.78132e-05
0.000177091
3.99779e-05
0.000292251
2.72166e-05
0.000394865
0.000652241
6.81687e-05
6.05895e-07
6.81152e-05
1.63518e-06
6.80314e-05
2.49466e-06
6.79176e-05
3.41356e-06
6.77691e-05
4.4356e-06
6.75822e-05
5.61924e-06
6.73497e-05
6.98139e-06
6.70571e-05
8.85459e-06
6.66695e-05
1.09481e-05
6.6221e-05
1.37739e-05
6.56585e-05
1.6943e-05
6.49497e-05
2.12297e-05
6.40529e-05
2.67779e-05
6.29222e-05
3.43648e-05
6.14252e-05
4.49683e-05
5.94784e-05
6.16543e-05
5.67342e-05
8.57061e-05
5.31501e-05
0.00012564
4.7926e-05
0.000182315
4.03151e-05
0.000299862
2.76972e-05
0.000407483
0.000679938
6.81687e-05
6.25974e-07
6.81152e-05
1.68932e-06
6.80313e-05
2.57808e-06
6.79173e-05
3.52742e-06
6.77689e-05
4.58331e-06
6.75821e-05
5.806e-06
6.73497e-05
7.21361e-06
6.70572e-05
9.14801e-06
6.66674e-05
1.13371e-05
6.62231e-05
1.42182e-05
6.56592e-05
1.75069e-05
6.49506e-05
2.19383e-05
6.40545e-05
2.76758e-05
6.29258e-05
3.54917e-05
6.14331e-05
4.64605e-05
5.94939e-05
6.35933e-05
5.67612e-05
8.84387e-05
5.32064e-05
0.000129195
4.80416e-05
0.00018748
4.0666e-05
0.000307237
2.81973e-05
0.000419952
0.000708135
6.81687e-05
6.46082e-07
6.81152e-05
1.74344e-06
6.80314e-05
2.6613e-06
6.79176e-05
3.6409e-06
6.77692e-05
4.73071e-06
6.75824e-05
5.99285e-06
6.735e-05
7.44592e-06
6.70576e-05
9.44141e-06
6.66664e-05
1.17274e-05
6.62249e-05
1.46596e-05
6.56599e-05
1.80719e-05
6.49515e-05
2.26467e-05
6.40563e-05
2.85694e-05
6.29297e-05
3.66198e-05
6.14418e-05
4.79489e-05
5.95108e-05
6.55246e-05
5.67907e-05
9.11589e-05
5.32654e-05
0.00013272
4.81598e-05
0.000192586
4.10306e-05
0.000314367
2.87176e-05
0.000432265
0.000736853
6.81687e-05
6.66143e-07
6.81152e-05
1.79753e-06
6.80313e-05
2.74474e-06
6.79174e-05
3.75475e-06
6.77689e-05
4.87839e-06
6.75822e-05
6.17954e-06
6.735e-05
7.67792e-06
6.70575e-05
9.73485e-06
6.6666e-05
1.21181e-05
6.62266e-05
1.5099e-05
6.56607e-05
1.86377e-05
6.49525e-05
2.33549e-05
6.40582e-05
2.94655e-05
6.2934e-05
3.77421e-05
6.1451e-05
4.94315e-05
5.9529e-05
6.74463e-05
5.68227e-05
9.38652e-05
5.33271e-05
0.000136216
4.82805e-05
0.000197632
4.14085e-05
0.000321239
2.92583e-05
0.000444415
0.000766111
6.81687e-05
6.86236e-07
6.81152e-05
1.85161e-06
6.80315e-05
2.82798e-06
6.79177e-05
3.8682e-06
6.77693e-05
5.02573e-06
6.75826e-05
6.36635e-06
6.73505e-05
7.90995e-06
6.70577e-05
1.00285e-05
6.66661e-05
1.25089e-05
6.62282e-05
1.55369e-05
6.56616e-05
1.92043e-05
6.49536e-05
2.40628e-05
6.40604e-05
3.03572e-05
6.29387e-05
3.88655e-05
6.14609e-05
5.09097e-05
5.95485e-05
6.9359e-05
5.68573e-05
9.65565e-05
5.33917e-05
0.000139681
4.84039e-05
0.00020262
4.17994e-05
0.000327843
2.98197e-05
0.000456395
0.000795931
6.81687e-05
7.06281e-07
6.81152e-05
1.90567e-06
6.80314e-05
2.91145e-06
6.79174e-05
3.98203e-06
6.7769e-05
5.17336e-06
6.75824e-05
6.553e-06
6.73505e-05
8.14158e-06
6.70576e-05
1.03224e-05
6.66662e-05
1.28995e-05
6.62296e-05
1.59735e-05
6.56625e-05
1.97714e-05
6.49548e-05
2.47705e-05
6.40626e-05
3.12511e-05
6.29436e-05
3.99825e-05
6.14713e-05
5.23816e-05
5.95692e-05
7.12607e-05
5.68945e-05
9.92311e-05
5.34593e-05
0.000143116
4.85302e-05
0.000207549
4.22028e-05
0.000334171
3.04018e-05
0.000468196
0.000826333
6.81687e-05
7.2636e-07
6.81153e-05
1.9597e-06
6.80315e-05
2.99469e-06
6.79177e-05
4.09545e-06
6.77695e-05
5.32062e-06
6.75827e-05
6.73979e-06
6.73511e-05
8.3732e-06
6.70574e-05
1.06169e-05
6.66668e-05
1.32895e-05
6.62311e-05
1.64092e-05
6.56635e-05
2.03391e-05
6.49561e-05
2.54778e-05
6.4065e-05
3.21406e-05
6.29488e-05
4.11004e-05
6.14822e-05
5.38486e-05
5.95911e-05
7.31521e-05
5.69342e-05
0.000101888
5.35302e-05
0.000146521
4.86596e-05
0.00021242
4.26187e-05
0.000340211
3.10049e-05
0.00047981
0.000857338
6.81687e-05
7.46391e-07
6.81153e-05
2.01371e-06
6.80314e-05
3.07817e-06
6.79175e-05
4.20927e-06
6.77692e-05
5.46818e-06
6.75825e-05
6.92643e-06
6.73512e-05
8.60433e-06
6.70542e-05
1.09147e-05
6.66694e-05
1.36738e-05
6.62325e-05
1.68462e-05
6.56644e-05
2.09071e-05
6.49574e-05
2.61849e-05
6.40676e-05
3.30321e-05
6.29542e-05
4.22117e-05
6.14936e-05
5.53087e-05
5.96142e-05
7.50312e-05
5.69763e-05
0.000104526
5.36046e-05
0.000149892
4.87927e-05
0.000217232
4.30472e-05
0.000345957
3.16292e-05
0.000491228
0.000888967
6.81687e-05
7.66458e-07
6.81153e-05
2.0677e-06
6.80315e-05
3.16141e-06
6.79178e-05
4.32265e-06
6.77696e-05
5.61534e-06
6.75829e-05
7.11319e-06
6.73517e-05
8.83553e-06
6.7045e-05
1.12222e-05
6.6679e-05
1.40396e-05
6.62338e-05
1.72914e-05
6.56655e-05
2.14753e-05
6.49588e-05
2.68915e-05
6.40702e-05
3.39191e-05
6.29599e-05
4.33238e-05
6.15055e-05
5.67636e-05
5.96383e-05
7.68988e-05
5.7021e-05
0.000107143
5.36826e-05
0.000153231
4.89299e-05
0.000221984
4.34887e-05
0.000351398
3.22752e-05
0.000502441
0.000921242
6.81687e-05
7.86474e-07
6.81153e-05
2.12167e-06
6.80314e-05
3.24492e-06
6.79175e-05
4.43646e-06
6.77693e-05
5.76285e-06
6.75827e-05
7.29972e-06
6.73515e-05
9.06652e-06
6.70387e-05
1.15358e-05
6.66862e-05
1.43921e-05
6.6235e-05
1.77426e-05
6.56665e-05
2.20438e-05
6.49603e-05
2.75978e-05
6.4073e-05
3.48082e-05
6.29658e-05
4.44289e-05
6.15179e-05
5.8211e-05
5.96635e-05
7.87529e-05
5.70679e-05
0.000109739
5.37646e-05
0.000156534
4.90715e-05
0.000226677
4.39436e-05
0.000356526
3.29438e-05
0.000513441
0.000954186
6.81687e-05
8.06528e-07
6.81153e-05
2.17561e-06
6.80316e-05
3.32816e-06
6.79179e-05
4.54979e-06
6.77697e-05
5.90997e-06
6.75832e-05
7.48629e-06
6.73518e-05
9.29787e-06
6.7037e-05
1.18514e-05
6.66888e-05
1.47403e-05
6.62361e-05
1.81954e-05
6.56676e-05
2.26122e-05
6.49618e-05
2.83036e-05
6.40758e-05
3.56924e-05
6.2972e-05
4.55346e-05
6.15307e-05
5.96528e-05
5.96896e-05
8.05944e-05
5.71171e-05
0.000112311
5.38508e-05
0.0001598
4.92176e-05
0.000231311
4.44119e-05
0.000361332
3.36353e-05
0.000524218
0.000987821
6.81687e-05
8.26539e-07
6.81153e-05
2.22955e-06
6.80315e-05
3.41165e-06
6.79176e-05
4.66354e-06
6.77694e-05
6.05744e-06
6.75831e-05
7.67254e-06
6.73503e-05
9.5305e-06
6.70371e-05
1.21651e-05
6.66899e-05
1.50874e-05
6.6237e-05
1.86484e-05
6.56687e-05
2.31806e-05
6.49633e-05
2.9009e-05
6.40788e-05
3.65791e-05
6.29783e-05
4.66328e-05
6.1544e-05
6.10864e-05
5.97168e-05
8.24212e-05
5.71683e-05
0.00011486
5.39416e-05
0.000163027
4.93679e-05
0.000235884
4.48921e-05
0.000365808
3.4349e-05
0.000534761
0.00102217
6.81687e-05
8.46579e-07
6.81153e-05
2.28346e-06
6.80316e-05
3.49493e-06
6.7918e-05
4.77684e-06
6.77697e-05
6.20468e-06
6.75839e-05
7.85838e-06
6.73403e-05
9.77404e-06
6.70429e-05
1.24627e-05
6.66905e-05
1.54398e-05
6.62378e-05
1.9101e-05
6.56697e-05
2.37487e-05
6.49649e-05
2.97137e-05
6.40818e-05
3.74604e-05
6.29848e-05
4.77318e-05
6.15577e-05
6.25142e-05
5.97448e-05
8.42344e-05
5.72215e-05
0.000117383
5.40374e-05
0.000166211
4.9522e-05
0.0002404
4.53798e-05
0.00036995
3.5082e-05
0.000545058
0.00105725
6.81687e-05
8.66568e-07
6.81153e-05
2.33733e-06
6.80315e-05
3.57846e-06
6.79177e-05
4.89054e-06
6.77693e-05
6.35235e-06
6.7584e-05
8.04366e-06
6.73322e-05
1.00256e-05
6.70475e-05
1.27474e-05
6.66908e-05
1.57965e-05
6.62385e-05
1.95533e-05
6.56708e-05
2.43164e-05
6.49665e-05
3.0418e-05
6.40848e-05
3.83442e-05
6.29915e-05
4.88228e-05
6.15717e-05
6.39333e-05
5.97737e-05
8.60321e-05
5.72764e-05
0.00011988
5.41386e-05
0.000169349
4.96797e-05
0.000244858
4.58655e-05
0.000373764
3.58265e-05
0.000555097
0.00109308
6.81686e-05
8.86576e-07
6.81153e-05
2.39121e-06
6.80316e-05
3.66167e-06
6.79181e-05
5.00369e-06
6.77698e-05
6.49945e-06
6.75846e-05
8.22889e-06
6.73302e-05
1.028e-05
6.70486e-05
1.30291e-05
6.6691e-05
1.61541e-05
6.62391e-05
2.00052e-05
6.56718e-05
2.48837e-05
6.49681e-05
3.11216e-05
6.40879e-05
3.92225e-05
6.29983e-05
4.99145e-05
6.15861e-05
6.53461e-05
5.98033e-05
8.78153e-05
5.73325e-05
0.000122351
5.42463e-05
0.000172435
4.98401e-05
0.000249265
4.63461e-05
0.000377258
3.66617e-05
0.000564782
0.00112974
-2.44028e-06
2.44034e-06
-5.44726e-06
3.00699e-06
-6.50852e-06
1.06126e-06
-5.54753e-06
-9.6087e-07
-4.10489e-06
-1.44272e-06
-3.09768e-06
-1.00699e-06
-2.60718e-06
-4.90348e-07
-2.4646e-06
-1.42499e-07
-2.3661e-06
-9.76469e-08
-2.33836e-06
-2.73065e-08
-2.36892e-06
3.28426e-08
-2.21947e-06
-1.53438e-07
-1.80473e-06
-4.16558e-07
-1.02248e-06
-7.8478e-07
4.15463e-07
-1.43815e-06
2.76498e-06
-2.3476e-06
6.02027e-06
-3.25216e-06
9.85464e-06
-3.83358e-06
1.38126e-05
-3.95534e-06
1.75982e-05
-3.7891e-06
2.11874e-05
-3.59212e-06
2.45951e-05
-3.40588e-06
2.78034e-05
-3.20795e-06
3.08281e-05
-3.0253e-06
3.37147e-05
-2.88833e-06
3.66216e-05
-2.90804e-06
3.95566e-05
-2.93708e-06
4.17571e-05
-2.19716e-06
4.56781e-05
-3.90452e-06
5.65997e-05
-1.09349e-05
6.60603e-05
-9.46257e-06
6.74568e-05
-1.39522e-06
6.74383e-05
1.82952e-08
6.75159e-05
-7.75811e-08
-6.53399e-08
-2.38278e-06
4.82324e-06
-5.37007e-06
5.99433e-06
-6.42604e-06
2.11724e-06
-5.47723e-06
-1.90944e-06
-4.04958e-06
-2.87051e-06
-3.06011e-06
-1.99602e-06
-2.57438e-06
-9.75811e-07
-2.42951e-06
-2.87207e-07
-2.32199e-06
-2.0358e-07
-2.29125e-06
-5.72564e-08
-2.32619e-06
7.09153e-08
-2.16913e-06
-3.16835e-07
-1.74237e-06
-8.46837e-07
-9.7579e-07
-1.55649e-06
4.01717e-07
-2.81615e-06
2.68734e-06
-4.62931e-06
5.92996e-06
-6.48835e-06
9.79048e-06
-7.69244e-06
1.37747e-05
-7.9348e-06
1.75609e-05
-7.58187e-06
2.11346e-05
-7.17151e-06
2.45252e-05
-6.79305e-06
2.77275e-05
-6.40955e-06
3.0758e-05
-6.0569e-06
3.36537e-05
-5.78729e-06
3.65598e-05
-5.81634e-06
3.94988e-05
-5.88001e-06
4.1732e-05
-4.42405e-06
4.53399e-05
-7.48197e-06
5.60769e-05
-2.16966e-05
6.58945e-05
-1.9284e-05
6.74612e-05
-2.95944e-06
6.74446e-05
3.44067e-08
6.75174e-05
-1.50216e-07
-1.30181e-07
-2.31662e-06
7.13996e-06
-5.28371e-06
8.96144e-06
-6.32656e-06
3.16008e-06
-5.3765e-06
-2.85928e-06
-3.96498e-06
-4.28216e-06
-2.99307e-06
-2.96752e-06
-2.512e-06
-1.45663e-06
-2.36357e-06
-4.35502e-07
-2.25028e-06
-3.15397e-07
-2.22659e-06
-8.01562e-08
-2.26754e-06
1.15514e-07
-2.09799e-06
-4.93518e-07
-1.66159e-06
-1.28688e-06
-9.22075e-07
-2.30103e-06
3.9251e-07
-4.13111e-06
2.62808e-06
-6.86077e-06
5.86858e-06
-9.72204e-06
9.75711e-06
-1.15792e-05
1.37676e-05
-1.19398e-05
1.75597e-05
-1.13808e-05
2.11192e-05
-1.07366e-05
2.44934e-05
-1.01638e-05
2.76892e-05
-9.60468e-06
3.07229e-05
-9.0917e-06
3.36253e-05
-8.69307e-06
3.65295e-05
-8.72273e-06
3.94685e-05
-8.823e-06
4.17347e-05
-6.68399e-06
4.50807e-05
-1.07967e-05
5.56352e-05
-3.22746e-05
6.5739e-05
-2.93914e-05
6.74647e-05
-4.68275e-06
6.74508e-05
4.78535e-08
6.7519e-05
-2.18269e-07
-1.94455e-07
-2.24029e-06
9.38039e-06
-5.18631e-06
1.19075e-05
-6.20445e-06
4.17823e-06
-5.24128e-06
-3.82218e-06
-3.84545e-06
-5.67811e-06
-2.89585e-06
-3.91669e-06
-2.42322e-06
-1.92902e-06
-2.27376e-06
-5.84806e-07
-2.15737e-06
-4.30269e-07
-2.14304e-06
-9.37146e-08
-2.18917e-06
1.63955e-07
-2.00615e-06
-6.82676e-07
-1.56005e-06
-1.73709e-06
-8.45977e-07
-3.02119e-06
4.08618e-07
-5.38629e-06
2.59339e-06
-9.04035e-06
5.83e-06
-1.29498e-05
9.74931e-06
-1.54962e-05
1.37928e-05
-1.5977e-05
1.75982e-05
-1.51943e-05
2.11473e-05
-1.4292e-05
2.45041e-05
-1.35169e-05
2.76907e-05
-1.27904e-05
3.07246e-05
-1.21269e-05
3.36315e-05
-1.16034e-05
3.65323e-05
-1.16261e-05
3.94686e-05
-1.17635e-05
4.17665e-05
-8.975e-06
4.48997e-05
-1.38979e-05
5.52712e-05
-4.26701e-05
6.55935e-05
-3.97175e-05
6.7467e-05
-6.55367e-06
6.74568e-05
5.75624e-08
6.75206e-05
-2.81924e-07
-2.58127e-07
-2.1534e-06
1.15339e-05
-5.07669e-06
1.48308e-05
-6.0565e-06
5.15802e-06
-5.06959e-06
-4.80886e-06
-3.69095e-06
-7.05687e-06
-2.76952e-06
-4.8377e-06
-2.30978e-06
-2.38852e-06
-2.16124e-06
-7.33221e-07
-2.04397e-06
-5.46175e-07
-2.03929e-06
-9.75859e-08
-2.08762e-06
2.14872e-07
-1.88953e-06
-8.87463e-07
-1.43348e-06
-2.19733e-06
-7.41931e-07
-3.71851e-06
4.58902e-07
-6.5875e-06
2.59518e-06
-1.11713e-05
5.82627e-06
-1.61713e-05
9.77875e-06
-1.94461e-05
1.3862e-05
-2.00524e-05
1.76868e-05
-1.90283e-05
2.12274e-05
-1.78391e-05
2.45645e-05
-1.68499e-05
2.77377e-05
-1.59629e-05
3.07681e-05
-1.51587e-05
3.36767e-05
-1.45156e-05
3.65723e-05
-1.45244e-05
3.95025e-05
-1.46982e-05
4.18302e-05
-1.12954e-05
4.47915e-05
-1.68255e-05
5.49766e-05
-5.28785e-05
6.54569e-05
-5.02013e-05
6.74681e-05
-8.56259e-06
6.74627e-05
6.25333e-08
6.75223e-05
-3.41452e-07
-3.2116e-07
-2.05538e-06
1.35894e-05
-4.9533e-06
1.77288e-05
-5.87873e-06
6.08345e-06
-4.85834e-06
-5.82895e-06
-3.50036e-06
-8.41496e-06
-2.61396e-06
-5.72366e-06
-2.17197e-06
-2.83028e-06
-2.02577e-06
-8.79267e-07
-1.90948e-06
-6.60976e-07
-1.91367e-06
-9.26102e-08
-1.96011e-06
2.62562e-07
-1.74528e-06
-1.10811e-06
-1.27921e-06
-2.66822e-06
-6.05725e-07
-4.39917e-06
5.52608e-07
-7.74647e-06
2.65046e-06
-1.32624e-05
5.87964e-06
-1.93879e-05
9.86868e-06
-2.34314e-05
1.39971e-05
-2.4171e-05
1.78438e-05
-2.28866e-05
2.13739e-05
-2.13772e-05
2.46858e-05
-2.01571e-05
2.78397e-05
-1.91159e-05
3.08617e-05
-1.81822e-05
3.37684e-05
-1.74264e-05
3.66563e-05
-1.74156e-05
3.95762e-05
-1.76229e-05
4.19306e-05
-1.36416e-05
4.47505e-05
-1.96093e-05
5.47418e-05
-6.28944e-05
6.53281e-05
-6.07916e-05
6.7468e-05
-1.06998e-05
6.74684e-05
6.1714e-08
6.75241e-05
-3.97071e-07
-3.8352e-07
-1.94553e-06
1.5535e-05
-4.81414e-06
2.05974e-05
-5.66594e-06
6.93523e-06
-4.60284e-06
-6.89179e-06
-3.27129e-06
-9.74663e-06
-2.42757e-06
-6.56695e-06
-2.00846e-06
-3.24916e-06
-1.86557e-06
-1.02203e-06
-1.75168e-06
-7.73508e-07
-1.76336e-06
-8.00616e-08
-1.8035e-06
3.04197e-07
-1.57027e-06
-1.34766e-06
-1.09371e-06
-3.14966e-06
-4.32264e-07
-5.06742e-06
6.98618e-07
-8.87773e-06
2.77734e-06
-1.53345e-05
6.0201e-06
-2.26178e-05
1.00559e-05
-2.7463e-05
1.42347e-05
-2.83367e-05
1.80997e-05
-2.67662e-05
2.16103e-05
-2.48967e-05
2.48864e-05
-2.34279e-05
2.80115e-05
-2.22401e-05
3.10179e-05
-2.11902e-05
3.39182e-05
-2.03313e-05
3.67952e-05
-2.02961e-05
3.96986e-05
-2.05318e-05
4.20749e-05
-1.60089e-05
4.47746e-05
-2.22695e-05
5.45598e-05
-7.27047e-05
6.52064e-05
-7.1442e-05
6.74667e-05
-1.29577e-05
6.74738e-05
5.41845e-08
6.7526e-05
-4.49118e-07
-4.45175e-07
-1.82308e-06
1.73582e-05
-4.65667e-06
2.3431e-05
-5.41185e-06
7.69041e-06
-4.29747e-06
-8.00582e-06
-3.00077e-06
-1.10434e-05
-2.20769e-06
-7.35955e-06
-1.81666e-06
-3.63995e-06
-1.67757e-06
-1.16094e-06
-1.56684e-06
-8.82693e-07
-1.58404e-06
-6.20054e-08
-1.61307e-06
3.33471e-07
-1.3592e-06
-1.60725e-06
-8.70192e-07
-3.64451e-06
-2.12947e-07
-5.73353e-06
9.07657e-07
-9.99904e-06
2.99457e-06
-1.74129e-05
6.28296e-06
-2.58894e-05
1.03921e-05
-3.15664e-05
1.46321e-05
-3.25604e-05
1.8505e-05
-3.06581e-05
2.19753e-05
-2.8379e-05
2.51954e-05
-2.66413e-05