/*--------------------------------*- C++ -*----------------------------------*\
| =========                 |                                                 |
| \\      /  F ield         | OpenFOAM: The Open Source CFD Toolbox           |
|  \\    /   O peration     | Version:  v1912                                 |
|   \\  /    A nd           | Website:  www.openfoam.com                      |
|    \\/     M anipulation  |                                                 |
\*---------------------------------------------------------------------------*/
FoamFile
{
    version     2.0;
    format      ascii;
    class       volScalarField;
    location    "360";
    object      yPlus;
}
// * * * * * * * * * * * * * * * * * * * * * * * * * * * * * * * * * * * * * //

dimensions      [0 0 0 0 0 0 0];


internalField   uniform 0;

boundaryField
{
    inlet
    {
        type            calculated;
        value           uniform 0;
    }
    outlet
    {
        type            calculated;
        value           uniform 0;
    }
    lowerSymmetry
    {
        type            symmetryPlane;
    }
    obstical
    {
        type            calculated;
        value           nonuniform List<scalar> 
88
(
481.564
483.769
488.167
494.747
503.441
514.162
526.818
541.32
557.581
575.516
595.047
616.096
638.579
662.404
687.478
713.704
740.995
769.27
798.457
828.497
859.344
890.958
923.312
956.389
990.178
1024.68
1059.89
1095.83
1132.5
1169.94
1208.15
1247.16
1286.99
1327.66
1369.2
1411.62
1454.95
1499.21
1544.42
1590.61
1637.79
1686.04
1735.76
1790.87
37.767
36.7585
36.0056
35.6611
35.7966
36.4935
37.8411
39.9268
42.8227
46.5738
51.1927
56.6589
62.9209
69.8959
77.4675
85.4779
93.7172
101.911
109.856
117.368
124.265
130.359
135.458
139.365
141.884
142.828
142.022
139.308
134.556
127.673
118.631
107.49
94.4415
79.9303
64.956
52.0238
46.9256
54.7943
71.9655
93.6978
118.201
144.941
173.75
205.026
)
;
    }
    obsticalTop
    {
        type            calculated;
        value           nonuniform List<scalar> 
20
(
53.3621
38.7319
47.111
53.2163
56.0714
57.7157
58.3277
58.0321
57.0943
55.6466
53.6651
51.0408
47.6798
43.3962
38.1598
31.3299
24.9574
15.451
13.929
11.3221
)
;
    }
    top
    {
        type            calculated;
        value           uniform 0;
    }
    defaultFaces
    {
        type            empty;
    }
}


// ************************************************************************* //
