/*--------------------------------*- C++ -*----------------------------------*\
| =========                 |                                                 |
| \\      /  F ield         | OpenFOAM: The Open Source CFD Toolbox           |
|  \\    /   O peration     | Version:  v1912                                 |
|   \\  /    A nd           | Website:  www.openfoam.com                      |
|    \\/     M anipulation  |                                                 |
\*---------------------------------------------------------------------------*/
FoamFile
{
    version     2.0;
    format      ascii;
    class       volScalarField;
    location    "280";
    object      epsilon;
}
// * * * * * * * * * * * * * * * * * * * * * * * * * * * * * * * * * * * * * //

dimensions      [0 2 -3 0 0 0 0];


internalField   nonuniform List<scalar> 
12441
(
0.0102962
0.00908472
0.00832688
0.00770248
0.00718358
0.00674896
0.00638232
0.00607094
0.00580506
0.00557656
0.00537927
0.00520811
0.0050448
0.00491455
0.00479101
0.00468863
0.00481745
0.0196401
0.267268
2.99749
20.9601
39.25
0.0101185
0.00891972
0.00818364
0.00757659
0.00707171
0.00664852
0.00629131
0.00598779
0.00572856
0.00550575
0.00531338
0.0051466
0.00498606
0.00485946
0.00473919
0.00464134
0.00475843
0.019368
0.251756
2.99004
21.2516
40.2318
0.00989653
0.00871695
0.00799994
0.00740877
0.00691722
0.00650534
0.00615781
0.00586269
0.00561081
0.00539455
0.0052081
0.00504686
0.00489091
0.00476967
0.00465402
0.0045614
0.00462129
0.0175709
0.213492
2.95994
21.632
41.3784
0.00967294
0.0085133
0.00781455
0.0072385
0.00675961
0.00635842
0.00602001
0.00573279
0.00548782
0.00527771
0.00509681
0.00494072
0.004791
0.00467428
0.00456463
0.00447703
0.00448886
0.0154116
0.175906
2.9379
22.0997
42.5504
0.00942874
0.0082887
0.00760867
0.00704824
0.00658251
0.00619255
0.00586382
0.00558506
0.00534757
0.00514421
0.00496949
0.00481929
0.00467446
0.00456382
0.00445934
0.00437899
0.00434387
0.013475
0.156803
2.94504
22.6157
43.6698
0.00922275
0.00809907
0.00743425
0.00688644
0.00643127
0.00605022
0.00572908
0.00545686
0.00522506
0.00502672
0.00485647
0.00471036
0.0045712
0.00446418
0.00436521
0.00428868
0.00427052
0.0136561
0.176518
3.05079
23.2414
44.7472
0.00900211
0.00789549
0.00724711
0.00671301
0.0062694
0.0058982
0.00558555
0.00532075
0.00509549
0.00490302
0.00473812
0.00459706
0.00446169
0.00436082
0.00426397
0.00419595
0.0060279
0.0227853
0.281536
3.34743
24.0745
45.7945
0.00882364
0.00773082
0.00709528
0.00657179
0.00613702
0.00577322
0.00546683
0.00520736
0.00498667
0.00479818
0.00463676
0.00449881
0.00436861
0.00427191
0.00418457
0.00516755
0.0345531
0.0795019
0.591927
3.97024
25.2347
46.8732
0.00862953
0.00755164
0.00693061
0.00641921
0.00599464
0.00563955
0.00534064
0.0050877
0.00487275
0.0046894
0.00453262
0.00439902
0.00427188
0.00414353
0.00539332
0.0271523
0.177595
0.300115
1.27076
5.0644
26.8484
48.0153
0.00847482
0.00740874
0.00679869
0.00629636
0.00587931
0.00553048
0.00523685
0.00498837
0.00477722
0.00459712
0.00444318
0.00431226
0.00418966
0.00427464
0.0253255
0.151287
0.535424
0.803351
2.34816
6.68678
29.0068
49.2846
0.00830541
0.0072523
0.00665498
0.00616326
0.00575515
0.00541395
0.00512688
0.00488411
0.00467798
0.00450234
0.0043524
0.0042262
0.00407316
0.00953974
0.11525
0.443051
1.07248
1.54684
3.62746
8.74081
31.7356
50.6975
0.00817036
0.00712758
0.00653983
0.00605597
0.00565436
0.00531856
0.005036
0.00479703
0.0045941
0.00442121
0.00427362
0.00415123
0.00415436
0.0489738
0.328614
0.842439
1.61131
2.31847
4.85484
11.0217
34.9838
52.295
0.00802126
0.00698994
0.00641353
0.00593912
0.00554548
0.00521647
0.00493974
0.00470583
0.00450734
0.00433836
0.00419426
0.00403862
0.00837782
0.168796
0.619202
1.21495
2.03723
2.95724
5.8996
13.323
38.6473
54.0597
0.00790034
0.00687829
0.00631044
0.00584307
0.00545523
0.00513105
0.00485837
0.00462786
0.00443225
0.00426574
0.00412378
0.00388351
0.037385
0.356024
0.885402
1.49682
2.34093
3.43279
6.74804
15.5011
42.5958
56.0037
0.00776899
0.00675696
0.00619913
0.0057401
0.00535929
0.00504109
0.00477353
0.00454746
0.00435572
0.00419259
0.00405364
0.00426776
0.115479
0.548768
1.09052
1.69813
2.55442
3.77854
7.43415
17.4832
46.7029
58.0812
0.00765989
0.00665626
0.00610616
0.00565348
0.00527792
0.00496408
0.00470017
0.00447718
0.00428805
0.00412718
0.00399023
0.00953489
0.231296
0.709353
1.24042
1.84294
2.70818
4.03503
7.99832
19.2464
50.8579
60.2902
0.00754399
0.00654923
0.00600804
0.00556277
0.00519342
0.00488484
0.00462542
0.00440629
0.0042205
0.00406252
0.00392856
0.0328824
0.352734
0.833533
1.35117
1.95039
2.82323
4.23298
8.47398
20.7958
54.9771
62.571
0.00744243
0.00645562
0.00592172
0.00548246
0.0051181
0.00481369
0.00455779
0.00434165
0.00415842
0.00400269
0.00387339
0.0839897
0.459143
0.928582
1.43561
2.03316
2.91306
4.39299
8.88572
22.1487
59.0006
64.9213
0.00733986
0.00636076
0.00583469
0.00540192
0.00504298
0.00474315
0.00449114
0.00427832
0.00409795
0.00394467
0.00380998
0.152108
0.545707
1.00301
1.5024
2.09941
2.98631
4.52845
9.2508
23.3269
62.8938
67.2818
0.00724519
0.00627358
0.00575436
0.00532725
0.00497304
0.00467717
0.00442852
0.00421859
0.0040407
0.00388963
0.00428892
0.221446
0.615053
1.06321
1.55717
2.15446
3.04866
4.64803
9.58098
24.3514
66.6405
69.6617
0.00715501
0.00619011
0.00567777
0.00525631
0.00490678
0.00461483
0.00436947
0.00416231
0.00398677
0.00383775
0.0100628
0.284125
0.671526
1.11357
1.60364
2.2019
3.104
4.75729
9.88401
25.242
70.2436
72.0102
0.00706419
0.00610665
0.00560104
0.00518519
0.00484038
0.00455243
0.00431049
0.0041063
0.00393335
0.00378714
0.0292251
0.33822
0.718841
1.15702
1.64437
2.24425
3.15507
4.85965
10.1649
26.0159
73.7189
74.3523
0.00698495
0.00603309
0.00553337
0.00512232
0.00478145
0.00449677
0.00425756
0.00405562
0.00388458
0.00374208
0.0624027
0.384538
0.759688
1.19556
1.68116
2.28332
3.20387
4.95698
10.4267
26.6888
77.0976
76.6493
0.00689841
0.00595366
0.00546044
0.00505484
0.0047186
0.00443787
0.00420206
0.00400309
0.00383465
0.00370242
0.101377
0.424533
0.795943
1.23061
1.71536
2.32045
3.25172
5.05019
10.6715
27.2743
80.4211
78.9445
0.00683019
0.00589021
0.00540197
0.00500036
0.00466732
0.00438918
0.00415546
0.00395819
0.00379115
0.00368412
0.139343
0.459693
0.828896
1.26322
1.74796
2.35667
3.29944
5.1397
10.9004
27.7847
83.744
81.212
0.00674445
0.00581179
0.00533027
0.00493436
0.0046062
0.00433228
0.00410223
0.00390818
0.00374399
0.00364603
0.173863
0.49127
0.859462
1.29417
1.77971
2.39265
3.34737
5.22569
11.1145
28.2308
87.1288
83.5114
0.00668535
0.00575652
0.00527905
0.00488632
0.00456066
0.0042887
0.00406021
0.00386739
0.00370424
0.00385093
0.204961
0.520227
0.888301
1.32405
1.81116
2.42886
3.39554
5.30838
11.3144
28.6222
90.6476
85.8273
0.00660158
0.00568004
0.00520929
0.0048223
0.0045016
0.00423396
0.00400924
0.00381974
0.00365961
0.00586544
0.233392
0.547275
0.915909
1.35333
1.8427
2.46553
3.44384
5.38797
11.5009
28.9667
94.3749
88.2307
0.00655197
0.00563338
0.0051658
0.00478119
0.00446225
0.00419591
0.00397214
0.00378332
0.00362411
0.0115344
0.259922
0.572929
0.942658
1.38234
1.87455
2.50273
3.49213
5.46472
11.6747
29.271
98.3867
90.7106
0.00646782
0.00555688
0.00509637
0.00471787
0.00440425
0.00414256
0.00392287
0.00373765
0.00358261
0.0221945
0.285134
0.597569
0.968841
1.41132
1.90685
2.54042
3.54029
5.53888
11.8364
29.5407
102.752
93.3406
0.00642565
0.0055168
0.00505863
0.00468175
0.00436925
0.00410831
0.00388911
0.00370418
0.00355162
0.0383535
0.30942
0.621475
0.994672
1.44044
1.93964
2.57856
3.58826
5.61071
11.9869
29.7804
107.533
96.1058
0.00634313
0.00544191
0.00499081
0.00462009
0.00431299
0.00405678
0.00384175
0.0036605
0.00351569
0.0594427
0.333029
0.644858
1.02032
1.46977
1.97288
2.61705
3.63603
5.68042
12.1268
29.9944
112.774
99.0732
0.00630951
0.00540962
0.00496004
0.0045902
0.00428351
0.0040274
0.00381226
0.00363077
0.00349488
0.0843098
0.356114
0.667876
1.04589
1.49938
2.00655
2.65582
3.6836
5.74823
12.2571
30.1866
118.512
102.217
0.00622498
0.00533327
0.0048913
0.00452816
0.00422738
0.00397648
0.00376593
0.00358849
0.00347391
0.11165
0.378765
0.690646
1.07146
1.52927
2.04058
2.69483
3.73103
5.81432
12.3785
30.3608
124.765
105.592
0.0061982
0.00530707
0.00486581
0.0045028
0.00420177
0.00395039
0.00373925
0.00356118
0.00347926
0.140341
0.401024
0.71325
1.09708
1.55943
2.07491
2.73403
3.77835
5.87884
12.4917
30.5211
131.549
109.157
0.00611115
0.00522887
0.00479582
0.00444007
0.00414544
0.00389973
0.00369355
0.00351984
0.00355259
0.169447
0.422896
0.73574
1.12275
1.58981
2.10946
2.77339
3.82561
5.94191
12.5977
30.6709
138.869
112.957
0.00608767
0.0052056
0.00477285
0.00441683
0.0041216
0.00387509
0.00366809
0.00349358
0.00641943
0.198162
0.444349
0.758139
1.14846
1.62037
2.14419
2.81289
3.87285
6.00365
12.6974
30.8131
146.726
116.938
0.00599561
0.00512349
0.00469986
0.00435188
0.00406373
0.00382345
0.00362187
0.00345212
0.0306714
0.22564
0.465318
0.780447
1.17418
1.65105
2.17901
2.85249
3.92012
6.06414
12.7917
30.9495
155.104
121.137
0.00596737
0.00509613
0.00467333
0.0043255
0.0040371
0.00379635
0.00359427
0.00342464
0.067853
0.250659
0.485716
0.802644
1.19986
1.68177
2.21388
2.89218
3.96744
6.12342
12.8816
31.0807
163.951
125.495
0.00586262
0.00500311
0.00459101
0.00425259
0.00397247
0.00373901
0.00354329
0.00338448
0.0936813
0.272404
0.50545
0.824686
1.22543
1.71246
2.24871
2.93191
4.01481
6.18157
12.9682
31.2057
173.133
130.045
0.0058211
0.00496375
0.00455361
0.00421633
0.00393684
0.00370373
0.0035083
0.00336663
0.109771
0.290906
0.524435
0.846514
1.25082
1.743
2.28344
2.97163
4.0622
6.23862
13.0525
31.3232
182.379
134.727
0.00569941
0.0048561
0.00445839
0.00413175
0.0038615
0.00363647
0.00344814
0.00387928
0.120238
0.306554
0.542604
0.868054
1.27595
1.7733
2.31796
3.01129
4.10958
6.29463
13.1353
31.4321
191.208
139.588
0.00561717
0.00478967
0.00440403
0.00408576
0.00382114
0.00359978
0.00341364
0.0049708
0.127407
0.319792
0.559914
0.889217
1.30074
1.80322
2.35218
3.05079
4.15685
6.34969
13.2169
31.5328
198.922
144.654
0.00525464
0.00446021
0.00411186
0.0038263
0.00358906
0.00339053
0.00322358
0.00553073
0.132495
0.330989
0.576331
0.909897
1.32509
1.83261
2.38597
3.09001
4.2039
6.40397
13.2971
31.6273
204.709
150.447
95.0235
64.724
43.0264
33.7401
30.155
24.7155
23.4895
21.1575
19.9564
19.3479
19.432
19.5087
22.2409
27.4513
32.8024
35.0613
34.8116
35.5355
36.8199
37.2637
37.3379
37.4046
37.0195
36.1264
35.2895
34.534
36.3211
52.472
9.72361
4.51478
4.46002
4.55244
4.53253
4.1625
3.64948
94.6475
64.8778
43.3185
34.4469
31.0369
25.3154
24.0675
21.6174
20.3822
19.7057
19.5877
19.6084
22.454
27.9343
33.6223
36.0597
35.4077
35.6904
36.9474
37.5927
37.8938
38.1111
37.7802
36.8188
35.8306
34.919
36.6531
53.1792
9.81324
4.51325
4.45555
4.54689
4.52653
4.1565
3.64445
93.9266
65.1206
43.8798
35.8777
32.8002
26.5205
25.1949
22.5048
21.1959
20.3605
19.8795
19.8159
22.8351
28.7064
35.2067
38.2118
36.8211
36.1263
37.1795
38.1417
38.9037
39.4681
39.3035
38.2514
36.9633
35.698
37.3291
51.6127
9.87051
4.51013
4.44656
4.53581
4.51454
4.14452
3.63441
92.8104
65.4251
44.7329
38.1015
35.4318
28.3342
26.829
23.7881
22.3774
21.3083
20.3631
20.1856
23.4209
29.8788
37.7604
41.9411
39.6215
37.1833
37.6527
38.9889
40.4319
41.5458
41.6927
40.5736
38.8515
36.9901
38.446
49.3178
9.92701
4.50569
4.43307
4.51922
4.4966
4.12659
3.61939
91.3035
65.7647
45.9086
41.1624
38.8945
30.7486
28.9345
25.4588
23.9291
22.5627
21.1007
20.7815
24.2902
31.5574
41.4232
47.6952
44.7065
39.5008
38.6677
40.2976
42.5922
44.451
45.0939
43.9945
41.7313
38.965
40.129
47.3091
10.0175
4.50036
4.41511
4.49712
4.47274
4.10274
3.59943
89.3553
66.1152
47.4467
45.0895
43.1594
33.768
31.504
27.535
25.8775
24.1587
22.1605
21.6778
25.5233
33.8168
46.1979
55.6154
53.1298
44.1264
40.7869
42.3692
45.582
48.3549
49.7127
48.8001
45.9403
41.8702
42.5497
46.1345
10.1767
4.49475
4.3927
4.46954
4.44299
4.07303
3.57456
87.0012
66.4555
49.397
49.8863
48.202
37.4137
34.5605
30.0603
28.2766
26.1615
23.6282
22.9609
27.2147
36.7443
51.9925
65.2522
65.4593
52.5098
44.9472
45.7194
49.7353
53.5335
55.8448
55.3773
51.9568
46.0689
45.9485
46.1148
10.4402
4.48959
4.36587
4.4365
4.40741
4.03749
3.54486
84.2135
66.7663
51.8174
55.4809
53.9708
41.7081
38.1469
33.0978
31.2042
28.6712
25.6245
24.7507
29.5041
40.5211
58.7359
75.5614
80.5418
65.9856
52.5282
51.1738
55.5966
60.4291
63.924
64.2469
60.4472
52.0931
50.6636
47.5403
10.8469
4.48572
4.33465
4.39804
4.36607
3.9962
3.51039
81.0699
67.03
54.7701
61.6578
60.3542
46.6503
42.3079
36.7197
34.7521
31.8204
28.3199
27.2196
32.6123
45.4896
66.4588
85.2873
94.8162
83.964
65.1202
59.9473
64.0112
69.7253
74.581
76.0962
72.3014
60.7055
57.1621
50.8074
11.4429
4.48404
4.29908
4.3542
4.31904
3.94926
3.47125
77.574
67.2287
58.3216
68.0312
67.1693
52.1926
47.0722
40.9935
39.011
35.7677
31.9436
30.6137
36.8687
52.1529
75.2086
93.5667
104.486
101.683
83.2334
73.5026
76.1621
82.3925
88.672
91.7619
88.5837
72.9321
66.0508
56.528
12.2846
4.4854
4.25921
4.30505
4.26643
3.89677
3.42754
73.8369
67.3433
62.5481
74.1351
74.1857
58.2326
52.4328
45.9616
44.0441
40.6736
36.7692
35.2615
42.7132
60.9975
84.882
100.364
108.993
112.867
103.69
92.5821
93.291
99.5408
107.127
112.002
110.177
89.9175
77.9973
65.6037
13.4386
4.49047
4.2151
4.25069
4.20838
3.83889
3.37941
69.8857
67.351
67.5455
79.6147
81.1796
64.6278
58.3346
51.618
49.8538
46.6583
43.0684
41.5567
50.6257
72.0125
94.8999
106.303
110.882
116.577
119.801
115.014
115.541
121.688
130.3
136.747
136.702
112.218
93.3967
79.1441
14.9738
4.49945
4.16683
4.19121
4.14506
3.77579
3.32703
65.8489
67.2216
73.4233
84.3849
87.9906
71.2367
64.6756
57.8882
56.347
53.722
50.98
49.8604
60.889
83.982
104.162
112.102
112.985
117.021
127.872
134.927
139.951
147.138
156.562
163.695
164.681
138.046
111.562
97.8345
16.9343
4.51155
4.11445
4.12678
4.07666
3.70768
3.27057
61.7626
66.9132
80.2376
88.6197
94.553
77.9668
71.3321
64.6301
63.3339
61.6753
60.3339
60.2755
73.0921
94.4323
111.432
118.011
116.843
118.216
130.528
147.324
160.475
170.851
181.167
187.522
187.073
161.429
129.656
120.205
19.282
4.52454
4.05804
4.05757
4.00342
3.63481
3.21027
57.7502
66.3673
87.8183
92.6112
100.889
84.8058
78.2064
71.6676
70.5582
70.0947
70.5094
72.298
85.4258
101.537
116.164
123.704
122.536
121.736
132.056
152.617
172.588
186.962
198.057
202.093
197.227
174.341
142.91
140.724
21.8207
4.5343
3.99769
3.98379
3.9256
3.55746
3.14637
53.8399
65.5105
95.5324
96.6233
107.071
91.8367
85.2534
78.852
77.7879
78.4299
80.551
84.5337
95.541
105.369
118.839
128.578
129.046
127.161
134.559
154.286
176.793
193.396
204.169
204.654
193.958
173.351
147.601
151.912
24.173
4.53497
3.93346
3.90569
3.84351
3.47596
3.07914
50.1273
64.2739
102.224
100.824
113.231
99.133
92.4993
86.1363
84.9111
86.2309
89.5134
95.1795
102.257
107.443
120.674
132.369
134.89
132.921
137.811
154.812
176.286
192.324
200.914
197.014
181.192
162.011
143.945
150.812
25.8913
4.51996
3.86547
3.82352
3.75747
3.39065
3.00888
46.6135
62.6388
106.683
105.251
119.479
106.776
100.027
93.5942
91.9945
93.3914
97.0222
103.126
106.231
109.339
122.842
135.379
139.066
137.33
140.537
154.724
173.521
186.901
191.635
183.051
163.969
146.269
135.144
140.789
26.638
4.48358
3.79384
3.73761
3.66785
3.30192
2.93591
43.349
60.7003
108.472
109.85
125.888
114.808
107.93
101.379
99.2494
100.177
103.401
108.681
109.174
112.278
126.173
138.29
141.55
139.502
141.577
153.584
169.423
179.13
179.104
166.224
145.931
130.344
124.506
126.859
26.2949
4.42243
3.71877
3.64826
3.57502
3.21017
2.86056
40.3033
58.7048
108.369
114.543
132.471
123.208
116.271
109.659
106.957
107.109
109.55
113.293
112.856
117.073
131.049
141.678
143.024
139.658
140.61
150.996
164.111
169.854
164.976
148.814
129.039
116.131
114.007
112.245
24.9651
4.33623
3.64048
3.55584
3.47938
3.11582
2.78317
37.4893
57.0169
107.537
119.279
139.187
131.881
125.045
118.543
115.366
114.719
116.444
118.722
118.784
124.51
137.734
145.868
144.198
138.566
138.033
147.004
157.611
159.424
150.212
132.141
114.107
104.098
104.404
98.2818
22.908
4.22759
3.55926
3.46071
3.38136
3.01931
2.70409
34.8769
56.0397
106.826
124.035
145.956
140.676
134.177
128.051
124.64
123.437
124.923
126.423
128.134
135.336
146.473
150.954
145.502
136.971
134.541
141.979
150.097
148.149
135.495
116.913
101.315
94.0893
95.7713
85.3439
20.4448
4.10118
3.47545
3.36325
3.28135
2.92108
2.62367
32.4767
55.8714
106.696
128.782
152.676
149.417
143.533
138.103
134.823
133.481
135.499
137.333
141.849
150.48
157.756
157.084
147.113
135.325
130.71
136.367
141.863
136.413
121.385
103.45
90.5349
85.7472
87.9016
73.4853
17.8708
3.96255
3.38941
3.26385
3.1798
2.82158
2.54228
30.2708
56.4673
107.153
133.463
159.235
157.926
152.947
148.551
145.856
144.911
148.268
151.921
160.512
170.751
172.156
164.492
149.196
133.934
126.974
130.537
133.218
124.642
108.31
91.82
81.5054
78.6937
80.5309
62.7112
15.4042
3.81711
3.30151
3.16291
3.07711
2.72124
2.46024
28.2673
57.594
108.049
137.994
165.522
166.043
162.243
159.209
157.599
157.629
163.087
170.085
184.296
196.779
190.316
173.54
151.963
133.033
123.62
124.76
124.445
113.228
96.5403
81.9259
73.9322
72.5947
73.4421
53.0404
13.1742
3.66946
3.21213
3.0608
2.9737
2.6205
2.37789
26.4614
58.8432
109.222
142.277
171.437
173.64
171.261
169.896
169.883
171.487
179.755
191.535
212.817
228.308
212.429
184.438
155.657
132.87
120.891
119.22
115.77
102.482
86.1867
73.5809
67.5335
67.1761
66.5054
44.4955
11.2366
3.52308
3.12165
2.95793
2.86997
2.51975
2.29556
24.8623
59.781
110.549
146.225
176.901
180.633
179.877
180.456
182.537
186.293
198
215.841
245.354
264.224
238.002
197.112
160.363
133.575
118.904
114.03
107.373
92.6098
77.2302
66.5606
62.0613
62.2253
59.6868
37.0749
9.59712
3.38037
3.03042
2.85466
2.7663
2.4194
2.21353
23.4808
60.2047
111.944
149.77
181.871
186.993
188.017
190.791
195.428
201.896
217.617
242.555
280.958
302.418
265.31
210.882
165.936
135.143
117.667
109.22
99.3811
83.7186
69.5659
60.6395
57.3086
57.5858
53.032
30.7399
8.23313
3.24279
2.93876
2.75136
2.66305
2.31981
2.13209
22.3333
60.297
113.355
152.883
186.335
192.738
195.666
200.86
208.477
218.176
238.416
271.288
318.745
340.726
291.938
224.569
171.896
137.324
116.99
104.747
91.8767
75.8301
63.0434
55.6114
53.109
53.1528
46.6384
25.4137
7.10943
3.11108
2.84699
2.64837
2.56056
2.22132
2.05149
21.4546
60.5084
114.741
155.563
190.316
197.925
202.863
210.687
221.677
235.099
260.322
301.776
357.879
376.905
315.22
236.595
177.545
139.714
116.579
100.498
84.8988
68.906
57.4972
51.2982
49.3335
48.8652
40.6193
20.9926
6.18788
2.98548
2.75537
2.54602
2.45913
2.12423
1.97197
20.8892
61.2914
116.068
157.833
193.859
202.635
209.686
220.354
235.098
252.713
283.346
333.94
397.719
409.169
333.182
245.564
182.067
141.771
116.028
96.3288
78.4591
62.8683
52.7664
47.5524
45.8849
44.7
35.0758
17.3586
5.43253
2.86593
2.66418
2.4446
2.35907
2.02883
1.89373
20.7351
62.9205
117.304
159.735
197.025
206.964
216.249
230.005
248.919
271.237
307.744
368.005
437.637
435.685
344.379
250.433
184.76
142.992
114.982
92.1027
72.5469
57.6213
48.7056
44.2556
42.6931
40.6617
30.0768
14.3926
4.81194
2.75213
2.57363
2.34441
2.26061
1.93535
1.81695
21.1259
65.4591
118.423
161.316
199.885
211.018
222.702
239.866
263.468
291.12
334.082
404.615
476.954
454.879
348.123
250.736
185.117
142.945
113.147
87.73
67.143
53.0625
45.1888
41.3144
39.7093
36.774
25.6528
11.9822
4.29969
2.64373
2.48395
2.24568
2.164
1.84401
1.74179
22.2957
68.8075
119.408
162.631
202.521
214.917
229.247
250.283
279.33
313.239
363.54
444.954
514.417
464.958
344.079
246.369
182.898
141.384
110.39
83.1862
62.2203
49.0932
42.1105
38.6568
36.9014
33.0689
21.7989
10.0268
3.87421
2.54029
2.39531
2.14865
2.06945
1.755
1.66839
24.5223
72.7666
120.25
163.733
205.02
218.807
236.165
261.807
297.506
339.147
398.143
490.65
547.691
464.412
332.518
237.619
178.065
138.191
106.679
78.5017
57.7484
45.6213
39.384
36.2279
34.2495
29.5792
18.4835
8.44039
3.51814
2.44141
2.30789
2.05353
1.97712
1.66848
1.59687
28.1637
77.0947
120.951
164.674
207.486
222.876
243.875
275.33
319.719
371.538
441.186
543.054
572.51
451.96
314.103
224.993
170.771
133.398
102.084
73.7346
53.6893
42.564
36.9395
33.9865
31.7416
26.3315
15.6581
7.15073
3.2176
2.3467
2.22186
1.96051
1.88718
1.58458
1.52733
33.4954
81.5532
121.519
165.501
210.039
227.388
253.03
292.337
348.898
414.791
497.066
600.832
582.723
427.477
290.146
209.272
161.298
127.105
96.6993
68.9429
49.9994
39.8477
34.7213
31.9017
29.3709
23.3431
13.2662
6.09872
2.96161
2.2558
2.13736
1.86976
1.79978
1.50342
1.45985
40.701
85.9404
121.961
166.263
212.843
232.739
264.689
315.33
389.911
475.28
569.264
655.2
571.651
392.154
262.312
191.372
150.062
119.496
90.647
64.1692
46.6292
37.409
32.6862
29.951
27.1329
20.6206
11.2498
5.2366
2.74145
2.16842
2.05453
1.78143
1.71504
1.4251
1.39451
49.6321
90.1143
122.289
167.016
216.126
239.563
280.617
348.532
450.16
559.016
652.129
686.196
535.628
348.965
232.601
172.335
137.557
110.793
84.0394
59.4395
43.5283
35.1939
30.8015
28.1182
25.0247
18.1613
9.55395
4.52616
2.55022
2.08429
1.9735
1.69567
1.63308
1.34972
1.33137
59.8743
94.0016
122.512
167.833
220.243
248.91
303.838
398.845
537.645
660.353
717.244
670.693
477.135
301.839
202.87
153.146
124.348
101.271
77.0055
54.77
40.6481
33.158
29.0433
26.3923
23.0432
15.9547
8.12864
3.93703
2.38241
2.0032
1.89441
1.61262
1.55399
1.27733
1.27048
70.5911
97.5908
122.64
168.821
225.774
262.597
339.585
475.707
647.814
739.904
718.776
602.52
405.084
254.959
174.714
134.695
111.003
91.2323
69.6745
50.1743
37.946
31.2658
27.3947
24.7667
21.1861
13.9854
6.93021
3.44516
2.23366
1.92498
1.8174
1.53243
1.47787
1.20802
1.21189
80.9187
100.912
122.686
170.157
233.734
283.925
396.514
582.228
733.903
735.177
640.237
500.863
330.697
211.522
149.177
117.643
98.0625
81.008
62.2005
45.6693
35.3861
29.4895
25.8446
23.2385
19.4515
12.2353
5.92124
3.03155
2.10047
1.84949
1.74259
1.4552
1.4048
1.14182
1.15564
89.3733
104.02
122.669
172.146
246.024
319.034
484.428
680.832
720.355
634.405
516.663
393.963
262.661
173.441
126.851
102.443
85.983
70.9307
54.7456
41.2765
32.9394
27.8074
24.3863
21.8077
17.8386
10.6856
5.07017
2.68117
1.98003
1.77665
1.67011
1.38107
1.33486
1.0788
1.10178
95.1437
106.99
122.619
175.367
266.48
378.171
588.127
679.939
601.245
493.228
394.351
300.563
205.023
141.261
107.84
89.2746
75.0962
61.3343
47.4975
37.0214
30.5813
26.2019
23.0152
20.4763
16.3479
9.31835
4.35063
2.38212
1.87005
1.70638
1.60009
1.31014
1.26811
1.01896
1.05033
0.00337765
0.00250302
0.00227359
0.00216023
0.0021182
0.00212101
0.00215414
0.00570097
0.13527
0.338079
0.587918
0.924806
1.34266
1.85368
2.41031
3.11846
4.23832
6.44393
13.3558
31.698
207.051
160.115
0.00334416
0.00224166
0.00184047
0.00160304
0.00148012
0.00144053
0.00147254
0.00577887
0.136644
0.341912
0.594564
0.933195
1.35221
1.86481
2.42309
3.1336
4.25747
6.46754
13.3936
31.7511
208.048
170.225
0.00354028
0.00237562
0.00188174
0.00154352
0.00132067
0.0011885
0.00115757
0.00582835
0.13755
0.344698
0.599725
0.939456
1.35887
1.8722
2.43143
3.14372
4.27123
6.48609
13.4253
31.8056
208.196
179.883
0.00367058
0.00251726
0.00200378
0.00162959
0.00135752
0.00116553
0.00103154
0.00585851
0.138051
0.346496
0.60338
0.943536
1.36259
1.87577
2.43524
3.1487
4.27944
6.49932
13.4494
31.8624
207.56
188.951
0.00392242
0.00276395
0.00222662
0.0018225
0.00151469
0.00128032
0.00100041
0.00587391
0.138184
0.347347
0.60551
0.945397
1.36331
1.87549
2.43446
3.14846
4.28192
6.50698
13.4641
31.9221
206.182
197.891
0.00406001
0.00292962
0.00239855
0.00199234
0.00167571
0.00142588
0.000990428
0.00587701
0.137973
0.347278
0.606104
0.945019
1.36101
1.87133
2.42906
3.14294
4.27855
6.50882
13.468
31.9849
204.095
206.876
0.00434035
0.00320805
0.00265982
0.00223404
0.00189696
0.00162586
0.00106033
0.00586897
0.137433
0.346312
0.605167
0.942406
1.3557
1.86334
2.41907
3.13211
4.26922
6.50461
13.4595
32.0506
201.337
215.905
0.00447839
0.00337919
0.00284399
0.00242381
0.0020872
0.00181249
0.00118748
0.0058499
0.136576
0.344472
0.602722
0.937584
1.34742
1.85155
2.40453
3.11599
4.25384
6.49411
13.4371
32.1187
197.958
224.918
0.00478394
0.00368474
0.003135
0.00269763
0.00234315
0.00205057
0.00131246
0.00581921
0.13541
0.341785
0.59881
0.930605
1.33624
1.83606
2.38555
3.09461
4.23233
6.47711
13.3998
32.1876
194.012
233.845
0.00490852
0.0038488
0.00331962
0.00289504
0.0025477
0.00225772
0.0014025
0.00577586
0.133943
0.338281
0.593489
0.921546
1.32228
1.817
2.36224
3.06805
4.20463
6.45338
13.3464
32.2553
189.56
242.602
0.00522931
0.00417138
0.00363048
0.00319127
0.00282838
0.00252275
0.00151635
0.00571861
0.132181
0.333996
0.586835
0.910504
1.30566
1.79451
2.33477
3.03643
4.17072
6.42272
13.2761
32.3186
184.667
251.08
0.00533914
0.00432465
0.00380998
0.00338946
0.00303945
0.00274195
0.00163537
0.00564567
0.130131
0.32897
0.578932
0.897603
1.28654
1.76878
2.30334
2.99988
4.13056
6.3849
13.1882
32.3733
179.4
259.146
0.00567202
0.00466108
0.00413722
0.00370423
0.0033405
0.00302904
0.0018397
0.00555489
0.127793
0.323245
0.569877
0.882979
1.26511
1.74002
2.26817
2.95861
4.08419
6.3397
13.0821
32.4142
173.828
266.653
0.00575612
0.00479286
0.00430124
0.00389329
0.00354871
0.00325146
0.00211713
0.00544298
0.125165
0.316862
0.559768
0.866788
1.24157
1.70846
2.22952
2.91283
4.03165
6.28687
12.9574
32.4349
168.016
273.446
0.00609203
0.00513349
0.00463482
0.00421645
0.00386009
0.00355081
0.00252209
0.00530595
0.122238
0.309861
0.548704
0.849192
1.21612
1.67435
2.18767
2.86282
3.97305
6.22619
12.8138
32.4283
162.031
279.379
0.00615206
0.00524291
0.00478023
0.00439133
0.00405888
0.00376874
0.00298812
0.00513762
0.11899
0.302272
0.53678
0.830362
1.189
1.63794
2.14291
2.80887
3.90855
6.15741
12.6511
32.386
155.932
284.318
0.0064867
0.00558327
0.00511532
0.00471763
0.00437484
0.00407403
0.00350092
0.00493101
0.115385
0.294113
0.524081
0.81047
1.16042
1.5995
2.09554
2.75132
3.83835
6.0803
12.4692
32.2992
149.774
288.153
0.00651826
0.00566541
0.00523654
0.00487218
0.00455755
0.00428032
0.00389632
0.00467551
0.111366
0.285384
0.510677
0.789683
1.13062
1.55931
2.04587
2.6905
3.76273
5.99463
12.2684
32.1586
143.606
290.798
0.00683897
0.00599264
0.00556031
0.005189
0.00486586
0.00457979
0.00427318
0.00436983
0.106845
0.276057
0.496619
0.768161
1.09982
1.51764
1.99423
2.62679
3.682
5.90021
12.0488
31.9546
137.468
292.194
0.00685342
0.0060557
0.00566233
0.00532517
0.0050317
0.00477126
0.00452727
0.00403051
0.101701
0.266069
0.481929
0.746044
1.06826
1.47475
1.94092
2.56057
3.59655
5.79688
11.8109
31.6778
131.396
292.306
0.00716007
0.00636961
0.00597427
0.00563158
0.00533083
0.00506261
0.00482301
0.00375198
0.0957624
0.255306
0.466591
0.723448
1.03615
1.43092
1.88626
2.4922
3.50678
5.68456
11.5552
31.3196
125.417
291.12
0.00715658
0.00641246
0.00605554
0.00574737
0.00547736
0.00523632
0.00502248
0.00374521
0.0888106
0.243591
0.450537
0.700453
1.00369
1.38639
1.83054
2.42207
3.41316
5.56321
11.2824
30.872
119.552
288.638
0.00744656
0.00670986
0.0063519
0.00603918
0.00576281
0.00551482
0.00529243
0.00411672
0.0805813
0.230667
0.433631
0.67709
0.971056
1.34144
1.77405
2.35056
3.31617
5.43291
10.9935
30.3287
113.816
284.873
0.00743051
0.00673697
0.00641571
0.00613665
0.00589082
0.00567032
0.00547052
0.0046661
0.0708053
0.216182
0.415645
0.653318
0.938381
1.29628
1.71708
2.27802
3.21633
5.29382
10.6892
29.6852
108.219
279.848
0.00770418
0.00701799
0.0066963
0.00641336
0.00616176
0.00593482
0.00572749
0.00524442
0.0593291
0.199682
0.396235
0.629005
0.905752
1.25114
1.65988
2.2048
3.11418
5.14625
10.3707
28.9393
102.766
273.595
0.00767669
0.00703037
0.00674338
0.00649286
0.0062712
0.00607163
0.00588835
0.00561968
0.0463732
0.180636
0.374912
0.603889
0.873176
1.20622
1.60271
2.13124
3.01026
4.99062
10.039
28.0911
97.4575
266.154
0.00793332
0.00729397
0.00700685
0.00675283
0.00652579
0.00632009
0.00613059
0.0059265
0.0329065
0.158536
0.351011
0.577543
0.84054
1.16166
1.5458
2.05766
2.90513
4.82749
9.69522
27.1438
92.2899
257.573
0.00789949
0.00729634
0.00704133
0.00681778
0.00661928
0.00644001
0.00627454
0.00611198
0.0207733
0.133145
0.323685
0.549324
0.807579
1.11751
1.48936
1.98436
2.79935
4.65758
9.3405
26.1032
87.2563
247.916
0.00814121
0.00754452
0.00728944
0.00706259
0.00685888
0.00667358
0.00650217
0.00633898
0.0121256
0.104949
0.291947
0.518323
0.773801
1.07374
1.43353
1.91163
2.69352
4.48178
8.97595
24.9783
82.3474
237.26
0.00810332
0.00753935
0.00731379
0.00711536
0.00693861
0.00677855
0.00663044
0.00648924
0.00781046
0.0757494
0.254856
0.483314
0.738434
1.03008
1.37841
1.8397
2.58821
4.30116
8.60274
23.7801
77.5501
225.7
0.00833028
0.00777218
0.00754652
0.00734492
0.00716314
0.00699719
0.00684322
0.00669748
0.00662857
0.0488003
0.211989
0.442742
0.700336
0.98603
1.32393
1.76878
2.484
4.11699
8.22209
22.5224
72.8508
213.35
0.00829262
0.00776375
0.00756483
0.00738928
0.00723249
0.00709016
0.00695818
0.00683255
0.00660949
0.0277567
0.164307
0.394841
0.657914
0.940705
1.26983
1.69896
2.38146
3.93074
7.83538
21.2202
68.2332
200.347
0.00850606
0.00798252
0.00778348
0.00760491
0.00744327
0.00729521
0.00715744
0.00702696
0.00684916
0.0148192
0.115237
0.338104
0.609035
0.892752
1.21551
1.63018
2.28108
3.74407
7.44426
19.8898
63.6835
186.842
0.00847099
0.00797343
0.00779844
0.00764356
0.00750487
0.00737869
0.00726144
0.00714972
0.00702358
0.008981
0.0708929
0.272386
0.551059
0.840226
1.15997
1.56212
2.18323
3.55878
7.05076
18.548
59.1895
173.004
0.00867171
0.00817898
0.00800383
0.00784609
0.00770279
0.00757111
0.0074482
0.00733156
0.00721321
0.00720811
0.0378024
0.200743
0.481217
0.780467
1.1016
1.49413
2.08807
3.37674
6.65744
17.2118
54.746
159.01
0.00864157
0.00817177
0.00801806
0.00788165
0.0077592
0.00764754
0.00754356
0.00744428
0.00734491
0.00697933
0.0186698
0.130896
0.397848
0.710046
1.03811
1.42504
1.99538
3.1997
6.26741
15.8974
50.3561
145.044
0.00883166
0.00836619
0.00821225
0.00807309
0.00794622
0.00782924
0.00771972
0.00761548
0.00751336
0.0072116
0.0105476
0.0736085
0.303012
0.625122
0.966267
1.35308
1.9045
3.02913
5.88424
14.6206
46.0346
131.285
0.00880914
0.00836381
0.00822886
0.00810876
0.00800065
0.0079018
0.0078095
0.00772114
0.00763368
0.0074572
0.00805813
0.0363547
0.205524