/*--------------------------------*- C++ -*----------------------------------*\
| =========                 |                                                 |
| \\      /  F ield         | OpenFOAM: The Open Source CFD Toolbox           |
|  \\    /   O peration     | Version:  v1912                                 |
|   \\  /    A nd           | Website:  www.openfoam.com                      |
|    \\/     M anipulation  |                                                 |
\*---------------------------------------------------------------------------*/
FoamFile
{
    version     2.0;
    format      ascii;
    class       volScalarField;
    location    "280";
    object      nut;
}
// * * * * * * * * * * * * * * * * * * * * * * * * * * * * * * * * * * * * * //

dimensions      [0 2 -1 0 0 0 0];


internalField   nonuniform List<scalar> 
12441
(
5.82199e-24
1.79052e-20
8.1049e-20
3.32539e-19
1.06829e-18
3.88827e-18
1.01055e-17
2.50048e-17
6.13826e-17
1.27529e-16
3.05649e-16
7.71444e-16
2.18116e-15
7.40611e-15
1.03807e-13
1.89643e-11
0.00019649
0.000970229
0.003113
0.00265608
0.00364566
0.00775321
6.34204e-24
3.03351e-20
1.11732e-19
4.23946e-19
1.30209e-18
4.80726e-18
1.21984e-17
3.00101e-17
7.36088e-17
1.54453e-16
3.79797e-16
1.02918e-15
2.82845e-15
9.38041e-15
1.13261e-13
3.90404e-11
5.82853e-05
0.00117762
0.0035642
0.00289169
0.00400786
0.00781733
6.3648e-24
3.58956e-20
1.20778e-19
4.4813e-19
1.37773e-18
4.9067e-18
1.29288e-17
3.20411e-17
8.05135e-17
1.71773e-16
4.17888e-16
1.11745e-15
2.78513e-15
7.66928e-15
5.36178e-14
6.58014e-12
1.11615e-05
0.000863647
0.00141978
0.00272791
0.00416078
0.0078909
6.31927e-24
3.76918e-20
1.18534e-19
4.29309e-19
1.32534e-18
4.71353e-18
1.25133e-17
3.13269e-17
7.84937e-17
1.73675e-16
4.2376e-16
1.15399e-15
2.61058e-15
8.47924e-15
3.85681e-14
1.54458e-12
1.63033e-06
0.000601841
0.00105844
0.00265017
0.00432342
0.0079647
6.28523e-24
4.38832e-20
1.29779e-19
4.58314e-19
1.40268e-18
4.7793e-18
1.30908e-17
3.27948e-17
8.42974e-17
1.87528e-16
4.54174e-16
1.28467e-15
3.01928e-15
4.07434e-14
2.47661e-13
2.30003e-12
1.39951e-07
0.000424444
0.00103817
0.00263711
0.00446404
0.00803394
6.23506e-24
4.12882e-20
1.20539e-19
4.29188e-19
1.34271e-18
4.62205e-18
1.27503e-17
3.23931e-17
8.28938e-17
1.9269e-16
4.76958e-16
1.44556e-15
4.53277e-15
1.32973e-12
1.19163e-11
5.10801e-11
4.59483e-07
0.000389416
0.00110366
0.00269424
0.0045912
0.00809948
6.20016e-24
5.02641e-20
1.37796e-19
4.75768e-19
1.46014e-18
4.79243e-18
1.3593e-17
3.44537e-17
9.07026e-17
2.1113e-16
5.20863e-16
2.00011e-15
2.50254e-14
4.14776e-11
6.59056e-10
9.3833e-09
1.87683e-05
0.000406412
0.00128953
0.00288047
0.00473797
0.00816218
6.15038e-24
4.34524e-20
1.23172e-19
4.40157e-19
1.40816e-18
4.72277e-18
1.35122e-17
3.4845e-17
9.13196e-17
2.23854e-16
5.72532e-16
5.43608e-15
6.09752e-13
2.25373e-09
8.42599e-08
4.97761e-06
0.000195049
0.000465067
0.00174514
0.00326204
0.00493078
0.00822577
6.11759e-24
5.57045e-20
1.46131e-19
4.99677e-19
1.55411e-18
4.95863e-18
1.46117e-17
3.75708e-17
1.02075e-16
2.50955e-16
6.45381e-16
6.13519e-14
2.59078e-11
7.42218e-08
1.044e-05
0.000153951
0.000797683
0.000827812
0.00269154
0.00391478
0.00520258
0.00829204
6.07074e-24
4.43499e-20
1.25436e-19
4.56631e-19
1.50753e-18
4.9536e-18
1.47474e-17
3.87256e-17
1.04879e-16
2.7513e-16
7.48656e-16
1.68202e-12
1.08329e-09
4.43392e-06
0.000191519
0.000614021
0.00168772
0.00156481
0.00442856
0.00491725
0.00556712
0.00836448
6.04157e-24
6.02605e-20
1.53435e-19
5.25908e-19
1.67272e-18
5.20593e-18
1.6025e-17
4.20349e-17
1.19295e-16
3.17383e-16
8.92129e-16
5.23102e-11
5.50804e-08
8.19949e-05
0.000721103
0.00169863
0.00368154
0.00311359
0.00739296
0.00636836
0.00603763
0.00844366
5.99616e-24
4.46293e-20
1.27737e-19
4.76944e-19
1.63369e-18
5.28094e-18
1.64022e-17
4.40653e-17
1.25501e-16
3.64643e-16
1.15867e-15
1.45667e-09
3.24734e-06
0.000346408
0.00157735
0.00379465
0.00766632
0.00622349
0.0120305
0.00831019
0.00660253
0.00853143
5.97055e-24
6.41499e-20
1.60451e-19
5.53811e-19
1.81496e-18
5.54191e-18
1.79084e-17
4.82223e-17
1.46705e-16
4.44746e-16
1.69466e-15
3.5211e-08
7.26467e-05
0.00108014
0.00386798
0.00836781
0.015247
0.0119244
0.0184933
0.0107218
0.00725189
0.00862633
5.92658e-24
4.43257e-20
1.29671e-19
4.99315e-19
1.7832e-18
5.69191e-18
1.85324e-17
5.13843e-17
1.59853e-16
5.59176e-16
3.60157e-15
7.96319e-07
0.000346556
0.00278042
0.00854562
0.0166966
0.0278265
0.021085
0.0264671
0.0134742
0.00795271
0.00872852
5.9042e-24
6.75163e-20
1.66656e-19
5.82624e-19
1.978e-18
5.94013e-18
2.02691e-17
5.67831e-17
1.96058e-16
7.78745e-16
1.65181e-14
1.51868e-05
0.00112635
0.00652537
0.0169469
0.0298637
0.0460001
0.0337907
0.0351672
0.0164073
0.0086843
0.00883515
5.86052e-24
4.39594e-20
1.31999e-19
5.24809e-19
1.9578e-18
6.18556e-18
2.12022e-17
6.16798e-17
2.28172e-16
1.21632e-15
3.02178e-13
0.000137405
0.0027898
0.013372
0.0300677
0.0481819
0.0690425
0.0489192
0.0436388
0.0193205
0.00940947
0.00894576
5.84143e-24
7.05411e-20
1.73506e-19
6.15127e-19
2.17061e-18
6.43956e-18
2.33108e-17
6.93791e-17
3.08238e-16
2.30506e-15
1.26032e-11
0.000522805
0.00633497
0.0242181
0.04788
0.0709997
0.0946755
0.0643526
0.0510464
0.022075
0.0101133
0.00905718
5.79748e-24
4.35028e-20
1.34495e-19
5.53145e-19
2.16069e-18
6.77166e-18
2.46186e-17
7.72313e-17
4.08476e-16
5.44589e-15
5.48016e-10
0.00133609
0.0126395
0.0394454
0.0698675
0.0965075
0.11944
0.0777327
0.0569705
0.0245492
0.0107682
0.00916919
5.78111e-24
7.32649e-20
1.80291e-19
6.49143e-19
2.38804e-18
7.01174e-18
2.71829e-17
8.90728e-17
6.61745e-16
1.6924e-14
4.40847e-08
0.00323432
0.0225485
0.0583405
0.094228
0.122076
0.139661
0.0874618
0.0613753
0.0267124
0.0113741
0.00927899
5.73659e-24
4.3054e-20
1.36874e-19
5.82416e-19
2.38692e-18
7.4383e-18
2.90079e-17
1.02319e-16
1.08046e-15
7.52755e-14
8.54322e-06
0.00683016
0.03617
0.0799124
0.119059
0.144684
0.152597
0.0932007
0.064552
0.0285366
0.0119168
0.00938714
5.72352e-24
7.5731e-20
1.86806e-19
6.83194e-19
2.62932e-18
7.6732e-18
3.23048e-17
1.22249e-16
2.19383e-15
7.80238e-13
0.000166752
0.0130123
0.0529005
0.102398
0.141703
0.161836
0.157356
0.0957873
0.0668645
0.0300604
0.01241
0.00949146
5.67817e-24
4.24352e-20
1.38575e-19
6.10943e-19
2.63519e-18
8.19352e-18
3.49408e-17
1.46469e-16
4.34031e-15
1.34066e-11
0.000650226
0.0222703
0.0716116
0.124372
0.160313
0.172079
0.15504
0.0965516
0.0686715
0.0312978
0.0128511
0.00959327
5.66779e-24
7.80245e-20
1.92475e-19
7.15502e-19
2.88995e-18
8.41853e-18
3.94343e-17
1.83588e-16
1.02761e-14
1.6611e-10
0.00170523
0.0345104
0.0909865
0.144084
0.173244
0.175454
0.148141
0.0966817
0.070199
0.0323117
0.0132651
0.00969106
5.62189e-24
4.19655e-20
1.39796e-19
6.38024e-19
2.9027e-18
9.03792e-18
4.35026e-17
2.31501e-16
2.24212e-14
1.55807e-09
0.00389501
0.0491693
0.109798
0.160512
0.180348
0.173194
0.139429
0.0968431
0.0715953
0.0331334
0.0136593
0.00978684
5.61504e-24
8.02774e-20
1.97584e-19
7.45839e-19
3.17129e-18
9.26766e-18
5.0266e-17
3.06438e-16
5.64425e-14
1.378e-08
0.00777634
0.0652054
0.127058
0.172749
0.182039
0.167286
0.131038
0.097244
0.0729088
0.0338396
0.0140673
0.00987966
5.56736e-24
4.17934e-20
1.40768e-19
6.63894e-19
3.19215e-18
9.99288e-18
5.71546e-17
4.08477e-16
1.30487e-13
3.18886e-07
0.0137959
0.0816504
0.142054
0.180813
0.179764
0.159707
0.12407
0.0978151
0.074164
0.0344758
0.0145028
0.00997203
5.56301e-24
8.24863e-20
2.02103e-19
7.74043e-19
3.47302e-18
1.02327e-17
6.84629e-17
5.73381e-16
3.92556e-13
1.86962e-05
0.0219173
0.0975323
0.154362
0.184918
0.174861
0.152011
0.118771
0.0984171
0.0753426
0.0351246
0.0150028
0.0100634
5.51419e-24
4.18611e-20
1.41227e-19
6.87553e-19
3.50169e-18
1.10694e-17
8.13325e-17
8.1043e-16
1.83003e-12
0.000210778
0.0318425
0.112229
0.16382
0.185908
0.168801
0.145093
0.114914
0.0989215
0.0764332
0.035828
0.0155798
0.0101564
5.51321e-24
8.46782e-20
2.05804e-19
7.99247e-19
3.7964e-18
1.13447e-17
1.02517e-16
1.20444e-15
1.28019e-11
0.000702929
0.0429349
0.125249
0.170515
0.184513
0.162465
0.139319
0.112127
0.0992565
0.0774048
0.0366489
0.0162642
0.0102507
5.46214e-24
4.20362e-20
1.40972e-19
7.08449e-19
3.83381e-18
1.23053e-17
1.28835e-16
1.79584e-15
7.40952e-11
0.00141545
0.054657
0.136368
0.174711
0.181646
0.156543
0.134683
0.110067
0.0993896
0.0782405
0.037599
0.0170557
0.0103488
5.46318e-24
8.68095e-20
2.08986e-19
8.21834e-19
4.14338e-18
1.26537e-17
1.72485e-16
2.80972e-15
3.56414e-10
0.00246426
0.066422
0.145449
0.176793
0.177889
0.151243
0.131031
0.108481
0.0993247
0.0789109
0.0387004
0.0179675
0.01045
5.41105e-24
4.22484e-20
1.39906e-19
7.26647e-19
4.19109e-18
1.37424e-17
2.30147e-16
4.38988e-15
1.38691e-09
0.00397082
0.0778465
0.152543
0.177187
0.173809
0.146701
0.128148
0.107197
0.0990783
0.0794011
0.0399239
0.0189785
0.0105565
5.4152e-24
8.89213e-20
2.11422e-19
8.42417e-19
4.52285e-18
1.41939e-17
3.26415e-16
7.08394e-15
4.74633e-09
0.00609966
0.0885538
0.15775
0.176313
0.169666
0.142819
0.125848
0.106112
0.0986796
0.0796865
0.0412564
0.0200807
0.010667
5.3596e-24
4.22809e-20
1.37816e-19
7.4292e-19
4.58522e-18
1.54547e-17
4.58287e-16
1.12965e-14
1.44512e-08
0.00899501
0.0983707
0.161287
0.174543
0.165711
0.139552
0.123971
0.105167
0.0981556
0.0797561
0.0426467
0.0212331
0.0107831
5.36569e-24
8.84608e-20
2.10347e-19
8.57272e-19
4.93682e-18
1.60487e-17
6.78016e-16
1.85082e-14
4.27976e-08
0.0127943
0.107163
0.163371
0.172189
0.161992
0.136755
0.122404
0.104332
0.0975374
0.0795906
0.0440751
0.022415
0.0109032
5.30605e-24
4.14882e-20
1.32583e-19
7.51668e-19
5.01047e-18
1.7464e-17
9.80551e-16
2.99208e-14
2.19561e-07
0.0176906
0.11498
0.164282
0.169493
0.158601
0.13437
0.121063
0.103594
0.0968513
0.0791844
0.0455019
0.0235782
0.0110282
5.31252e-24
8.52667e-20
2.03834e-19
8.62105e-19
5.38135e-18
1.81876e-17
1.47479e-15
5.74625e-14
1.12866e-05
0.0239503
0.121896
0.164256
0.166642
0.155504
0.132287
0.119896
0.102954
0.0961265
0.078526
0.0469342
0.024704
0.0111563
5.24611e-24
4.16174e-20
1.27333e-19
7.57748e-19
5.48307e-18
1.98587e-17
2.14254e-15
4.65072e-13
0.000202869
0.0320188
0.128097
0.163551
0.163766
0.152742
0.130478
0.118865
0.102417
0.0953878
0.0776194
0.0483694
0.0257553
0.0112883
5.24947e-24
5.37922e-20
1.54729e-19
7.99526e-19
5.76917e-18
2.06403e-17
3.20175e-15
2.31302e-11
0.00145555
0.0424531
0.13372
0.162366
0.160958
0.150269
0.128873
0.117957
0.101995
0.0946623
0.0764664
0.0498534
0.0267353
0.011422
5.17271e-24
4.32832e-20
1.1448e-19
7.24329e-19
5.94086e-18
2.35471e-17
4.66313e-15
1.03289e-09
0.00579428
0.055617
0.138918
0.160901
0.158274
0.148126
0.127476
0.117163
0.101703
0.093972
0.0750887
0.0514104
0.0276363
0.0115584
5.16606e-24
1.9396e-21
1.12098e-20
4.00674e-19
5.44946e-18
2.44398e-17
7.20776e-15
1.83458e-07
0.0157549
0.0714596
0.143722
0.159297
0.155743
0.146278
0.126243
0.116492
0.101556
0.0933386
0.0735103
0.0530785
0.0284965
0.0116955
5.07793e-24
1.71176e-20
4.47766e-20
4.17418e-19
5.46281e-18
3.62115e-17
1.80081e-14
4.89905e-05
0.0334692
0.0896568
0.148136
0.1577
0.153365
0.144785
0.125211
0.115953
0.101568
0.0927734
0.0717798
0.0548027
0.0293304
0.0118345
5.03911e-24
6.72054e-22
8.45974e-23
2.35261e-19
5.06673e-18
8.28252e-17
3.70819e-13
0.00109376
0.0603666
0.109678
0.152044
0.156206
0.151123
0.143616
0.12435
0.115572
0.101752
0.0922823
0.0699518
0.0564158
0.0301385
0.011976
4.83843e-24
2.10342e-19
4.58185e-19
1.02965e-18
7.26136e-18
9.13669e-16
7.18248e-12
0.0067995
0.0970056
0.131228
0.155564
0.15499
0.148997
0.142827
0.123696
0.115361
0.102105
0.0918098
0.068094
0.0574913
0.0306163
0.0121338
0.00987657
0.0228594
0.0244748
0.00933422
0.00779487
0.00800326
0.00821505
0.00850157
0.00845355
0.00891973
0.012405
0.011315
0.00980542
0.00905603
0.00948541
0.0113464
0.0141244
0.01599
0.0158442
0.0135548
0.0119426
0.0118351
0.0123071
0.0130081
0.0138248
0.0145828
0.0141904
0.00999684
0.0544236
0.116927
0.11849
0.116034
0.116782
0.127022
0.145138
0.00986353
0.0232248
0.0236884
0.00899729
0.00764774
0.00785845
0.00823683
0.00854872
0.00842945
0.00889624
0.012136
0.0110395
0.0095348
0.00872472
0.0090821
0.0108671
0.0138353
0.0160971
0.0161045
0.0136181
0.0117933
0.0115988
0.0120362
0.0127337
0.013583
0.0143863
0.0140287
0.00984257
0.0538332
0.11674
0.118396
0.115956
0.116739
0.126979
0.14511
0.00983842
0.023526
0.0223184
0.00841221
0.00748099
0.00766948
0.0083335
0.00866803
0.00843487
0.00890266
0.0112365
0.0101122
0.00879346
0.00792805
0.00789263
0.00907017
0.0116846
0.0142033
0.0148142
0.0128787
0.0112882
0.0110889
0.0114876
0.0121785
0.0130875
0.0139889
0.0136985
0.0100905
0.053308
0.116309
0.118155
0.115745
0.116604
0.126843
0.145005
0.00979929
0.0237598
0.0205661
0.00780552
0.00735291
0.00752397
0.00848633
0.00876834
0.00846242
0.00895302
0.0102611
0.00908799
0.00795222
0.00710489
0.00669763
0.00716334
0.00908186
0.011551
0.012751
0.0116615
0.0105195
0.0103539
0.0106996
0.0113622
0.012332
0.0133739
0.0131853
0.0104774
0.0526755
0.115631
0.117766
0.1154
0.116377
0.126613
0.144824
0.00974597
0.0238382
0.0185651
0.00719089
0.00720067
0.00736824
0.00859496
0.0087687
0.00843313
0.00895463
0.00941929
0.00821469
0.00724987
0.00646901
0.00577623
0.00563256
0.00676651
0.00891568
0.0104978
0.0102292
0.00957563
0.00945422
0.00973063
0.0103307
0.0113328
0.0125368
0.0124858
0.010808
0.0517665
0.114711
0.117243
0.114936
0.116069
0.126302
0.144578
0.00967615
0.0236863
0.0164299
0.00655054
0.00698413
0.00715415
0.0085836
0.008627
0.00828422
0.00881189
0.00868454
0.00749611
0.00668002
0.00596233
0.00508901
0.00452851
0.00497444
0.00664461
0.00838124
0.00875951
0.00853209
0.00845206
0.00864902
0.00915081
0.0101314
0.0114878
0.0116082
0.0109411
0.0504382
0.113564
0.11661
0.114373
0.115699
0.12593
0.144288
0.00959042
0.0232579
0.0142757
0.00590235
0.00671314
0.00687971
0.00843168
0.0083436
0.0079968
0.00848244
0.00797284
0.00684637
0.00613851
0.00545316
0.00451253
0.0037487
0.00369768
0.00482979
0.006521
0.0073431
0.00744402
0.00740208
0.00752165
0.00790077
0.00879422
0.0102559
0.0105733
0.0107833
0.0485865
0.112205
0.115893
0.11374
0.115292
0.125523
0.143979
0.00948687
0.0225204
0.0122116
0.00529276
0.0064279
0.00657465
0.00816333
0.00794907
0.00759002
0.00797828
0.00722958
0.00619728
0.00555036
0.00486787
0.00396883
0.0031908
0.00285537
0.00347414
0.00493498
0.00601042
0.00634855
0.00634783
0.00640543
0.00665746
0.00740622
0.00889249
0.00941527
0.0102877
0.0461535
0.110654
0.115124
0.113067
0.114873
0.12511
0.143679
0.00936733
0.0214749
0.0103238
0.00477197
0.00617411
0.00627949
0.00782473
0.00748776
0.0071033
0.00734601
0.00644918
0.00552562
0.00490203
0.00421028
0.00344145
0.00278799
0.00235412
0.00256081
0.00364187
0.0047788
0.00527563
0.00532421
0.00534469
0.00548632
0.00605843
0.00747158
0.00818271
0.00945568
0.0431344
0.108929
0.114335
0.112386
0.114472
0.124721
0.143418
0.0092307
0.0201351
0.00866882
0.00437679
0.00598972
0.00603259
0.00746761
0.00700748
0.00658432
0.00664678
0.00565701
0.00484009
0.00421956
0.00352761
0.00294665
0.00249282
0.00209276
0.00203384
0.00268385
0.00369049
0.00426253
0.00436385
0.00437391
0.00443679
0.0048343
0.00608414
0.00693797
0.00834101
0.039587
0.107052
0.113559
0.11173
0.114118
0.124388
0.143228
0.00908003
0.018546
0.00727162
0.00412542
0.00590111
0.00586486
0.00713979
0.00655257
0.00607945
0.00594325
0.00489356
0.00416556
0.00354457
0.00288364
0.00250931
0.00226669
0.00197108
0.00178886
0.00207347
0.00281419
0.00336255
0.00350388
0.00352311
0.00354369
0.00379881
0.00482614
0.00575374
0.00705016
0.0356401
0.105047
0.112827
0.11113
0.11384
0.124142
0.143138
0.00891508
0.0167608
0.0061338
0.0040201
0.00592512
0.00579882
0.00688176
0.00616144
0.00562985
0.00529109
0.00420114
0.00353325
0.00292081
0.00233765
0.00215069
0.00207936
0.00190407
0.00170441
0.00175217
0.00220016
0.00263646
0.00278607
0.0028207
0.00283016
0.00299283
0.00378214
0.00470536
0.00573163
0.0314979
0.102948
0.112168
0.110617
0.113665
0.124013
0.14318
0.00874002
0.0148582
0.00524182
0.00405368
0.00607284
0.00584978
0.00672533
0.00586479
0.00526848
0.00473507
0.00361715
0.00297547
0.00238732
0.00192834
0.0018804
0.00191367
0.00183616
0.00167788
0.00161707
0.00183643
0.00212304
0.00224499
0.00228864
0.00230681
0.00242972
0.00300821
0.00385843
0.004548
0.0274287
0.100803
0.11161
0.110218
0.113618
0.12403
0.143379
0.00855535
0.0129197
0.00457827
0.0042169
0.00635395
0.00602821
0.00669418
0.00568558
0.00501897
0.00430585
0.00316729
0.00251978
0.00197251
0.00166222
0.00169425
0.00176607
0.00174518
0.00164473
0.0015687
0.00165626
0.0018128
0.00188822
0.00193086
0.00196668
0.00209354
0.00251869
0.00325355
0.00363204
0.0237299
0.0986898
0.111175
0.109958
0.113722
0.12422
0.143762
0.00836592
0.0110396
0.00412927
0.00450396
0.00678037
0.00634333
0.00680485
0.00563956
0.00489639
0.0040215
0.00286357
0.00218443
0.00169263
0.00151143
0.00157602
0.00164129
0.00163735
0.00158365
0.00154004
0.00158053
0.00165548
0.00168906
0.00172692
0.00178435
0.00194557
0.00228535
0.00289468
0.00304565
0.0206648
0.0967126
0.110886
0.109858
0.113999
0.124605
0.144353
0.00817267
0.00930244
0.00389131
0.00491649
0.00737021
0.00680653
0.00707134
0.00573784
0.00490899
0.00388886
0.00270578
0.00197805
0.0015384
0.00143736
0.00150388
0.00154403
0.0015323
0.00150466
0.00150357
0.00154939
0.00159122
0.00160176
0.00164055
0.00172514
0.00194048
0.00225448
0.00275063
0.00277143
0.0183923
0.0950009
0.11076
0.109937
0.114465
0.125208
0.14517
0.00798033
0.00778487
0.00387539
0.00546588
0.00814756
0.00744198
0.00750931
0.0059895
0.005061
0.00390741
0.00268897
0.00189853
0.00148506
0.0014055
0.00145587
0.00147307
0.00144808
0.00142999
0.00146169
0.00153272
0.00157431
0.00158299
0.00163516
0.00175688
0.00203978
0.00236862
0.00277047
0.00274416
0.0169404
0.0936883
0.110813
0.110211
0.115138
0.126049
0.146233
0.00778933
0.00654277
0.00410952
0.00617673
0.00914777
0.00828673
0.00814096
0.00640682
0.00535612
0.00407275
0.0028058
0.00193728
0.00150624
0.00139363
0.00141626
0.00142171
0.00139142
0.00137647
0.00142752
0.0015236
0.00158022
0.00160352
0.00168393
0.00185627
0.00221596
0.00257871
0.00290112
0.00289164
0.0162533
0.0928874
0.111056
0.110694
0.11603
0.127145
0.147558
0.00760307
0.00560194
0.00463818
0.00708779
0.010418
0.00939375
0.00899881
0.00701016
0.00580184
0.00438195
0.00305232
0.00208402
0.00158126
0.00138975
0.00137686
0.00138178
0.00135909
0.00134961
0.00141136
0.00152556
0.00160082
0.00164928
0.00177218
0.00200931
0.00245054
0.00284722
0.00309858
0.00315924
0.0162629
0.0926712
0.1115
0.111396
0.117153
0.128511
0.149158
0.00742066
0.00495138
0.00551861
0.0082505
0.0120178
0.010831
0.0101265
0.00783053
0.00641218
0.00483618
0.00342736
0.00232949
0.0016975
0.00139083
0.00133727
0.00134844
0.00134355
0.00134567
0.0014154
0.00154229
0.00163595
0.00171662
0.0018947
0.00220876
0.00273042
0.00314732
0.00333257
0.0035176
0.0169285
0.0930661
0.112152
0.112326
0.118517
0.130161
0.151046
0.00724378
0.0045501
0.00683595
0.00972726
0.0140171
0.0126768
0.0115763
0.0089088
0.00720911
0.00544468
0.00393763
0.00266802
0.00184992
0.00139861
0.00130084
0.00132133
0.00133966
0.00135864
0.00143668
0.00157423
0.00168715
0.00180678
0.00205158
0.00245071
0.0030451
0.00346111
0.00358669
0.00396053
0.0182426
0.0940555
0.113015
0.113493
0.120132
0.132109
0.153231
0.00707145
0.00434411
0.00871117
0.0115953
0.0164966
0.015015
0.0134048
0.0102912
0.0082202
0.00622231
0.00459415
0.00310057
0.00204281
0.00142055
0.00127349
0.00130375
0.00134654
0.00138448
0.00147061
0.00161917
0.00175535
0.00192234
0.00224457
0.00273183
0.00338524
0.00377794
0.0038566
0.0044994
0.0202229
0.0955899
0.114094
0.114904
0.122004
0.134365
0.155722
0.00690537
0.0043007
0.0112846
0.0139594
0.0195543
0.0179368
0.0156729
0.0120242
0.00947484
0.0071869
0.00540894
0.0036352
0.0022889
0.00146826
0.00126166
0.00130023
0.00136734
0.00142346
0.00151473
0.00167432
0.00184066
0.00206565
0.00247492
0.00304783
0.00374251
0.00409308
0.00414738
0.00515816
0.0229002
0.0975998
0.115387
0.116564
0.124141
0.13694
0.158526
0.00674534
0.00440314
0.0147106
0.0169713
0.0233181
0.0215492
0.0184476
0.0141506
0.0109982
0.00834941
0.00638855
0.00427964
0.00260631
0.00156024
0.00127455
0.00131637
0.00140665
0.00147837
0.00156879
0.00173755
0.00194304
0.00223831
0.00274226
0.00339306
0.00411002
0.00440679
0.00447114
0.00596994
0.0263085
0.100008
0.116896
0.118479
0.126548
0.139844
0.16165
0.00659312
0.00465606
0.0191248
0.0208454
0.0279519
0.0259764
0.0218013
0.0167046
0.0128044
0.00970696
0.00751925
0.00503412
0.00300697
0.00171786
0.00132478
0.00135891
0.00147011
0.00155387
0.00163529
0.00180812
0.00206254
0.0024412
0.00304438
0.00376105
0.00448301
0.00472331
0.00484518
0.00697521
0.0304739
0.10274
0.118617
0.120653
0.129231
0.143086
0.165097
0.00644962
0.00509152
0.0246147
0.0258582
0.0336435
0.0313383
0.0257929
0.019697
0.0148841
0.011231
0.00875538
0.00587242
0.00348515
0.00196019
0.00143094
0.00143797
0.00156388
0.00165464
0.001718
0.00188683
0.00219965
0.00267432
0.00337751
0.0041454
0.00485929
0.00505028
0.00529079
0.00822074
0.0354065
0.105729
0.12055
0.12309
0.132194
0.146673
0.168872
0.00631698
0.00576262
0.0311992
0.0323199
0.0405636
0.0376953
0.0304267
0.023089
0.0171878
0.0128611
0.0100232
0.00674125
0.00401003
0.00228885
0.00161362
0.00156756
0.00169614
0.00178633
0.00182279
0.00197678
0.00235532
0.00293706
0.00373693
0.00454086
0.00523938
0.00539788
0.00583255
0.00975898
0.0410934
0.108919
0.122691
0.125793
0.135441
0.150611
0.172974
0.00619775
0.00673417
0.0388556
0.0405271
0.0488049
0.0449748
0.0355993
0.0267606
0.0196096
0.0144985
0.0112235
0.00756672
0.00453304
0.00268341
0.00188779
0.00176505
0.00187671
0.00195456
0.00195639
0.00208379
0.00253148
0.00322828
0.00411782
0.00494402
0.00562628
0.00577851
0.00649806
0.0116471
0.047495
0.112267
0.125036
0.128763
0.138973
0.154908
0.177404
0.00609509
0.00806043
0.0475798
0.0507121
0.0583188
0.0529119
0.0410585
0.0304917
0.0219805
0.0160122
0.0122478
0.00826772
0.00499819
0.00310413
0.00224945
0.00204477
0.00211641
0.00216599
0.00212729
0.00221719
0.00273143
0.00354696
0.00451612
0.00535374
0.00602509
0.00620629
0.00731782
0.013946
0.0545458
0.11574
0.127583
0.132003
0.142794
0.159567
0.182161
0.00601408
0.00977747
0.057455
0.0629833
0.0688548
0.0610265
0.0463974
0.033969
0.0240799
0.0172503
0.0129885
0.00876799
0.0053549
0.0035082
0.00267429
0.00240964
0.00242168
0.00242512
0.00234326
0.00238943
0.00296061
0.00389253
0.00492918
0.0057711
0.00644251
0.00669688
0.00832537
0.0167184
0.0621583
0.119312
0.130326
0.135512
0.146905
0.164594
0.187241
0.00596079
0.0119028
0.06864
0.0772088
0.0798952
0.0686386
0.0510876
0.0368182
0.0256628
0.0180615
0.0133562
0.00900662
0.00556374
0.00385686
0.00312424
0.0028438
0.00278982
0.00273273
0.00261074
0.00261562
0.00322706
0.00426572
0.00535626
0.0061991
0.00688631
0.0072672
0.00955725
0.0200265
0.0702292
0.122966
0.133261
0.13929
0.151306
0.169991
0.192642
0.00594609
0.0144631
0.0812841
0.0928272
0.090602
0.0749284
0.0545501
0.0386598
0.0264974
0.018316
0.0132866
0.00894409
0.00560304
0.00412405
0.00356135
0.00331564
0.00320371
0.00308055
0.00292998
0.00291085
0.00354178
0.00466871
0.00579853
0.00664214
0.00736489
0.00793542
0.0110532
0.0239298
0.0786484
0.126691
0.136383
0.143336
0.155998
0.175763
0.198358
0.00598322
0.0175056
0.0953268
0.108672
0.0998394
0.0790531
0.056256
0.039177
0.0264073
0.0179301
0.0127535
0.0085686
0.00547078
0.00429612
0.00395403
0.00378647
0.00363538
0.0034519
0.00329392
0.00328709
0.0039182
0.00510559
0.0062589
0.00710532
0.00788681
0.00872072
0.0128559
0.028482
0.087306
0.130475
0.139689
0.147651
0.160985
0.181916
0.204388
0.00609167
0.0211162
0.110297
0.123003
0.106346
0.0803259
0.0558445
0.0381865
0.0253093
0.0168815
0.0117733
0.00790047
0.00518841
0.00437557
0.00428306
0.00422141
0.00405137
0.00382212
0.0036851
0.00374727
0.00437074
0.00558181
0.00674135
0.00759376
0.00846049
0.00964329
0.0150113
0.0337286
0.0961004
0.134313
0.143175
0.152235
0.16627
0.188457
0.210731
0.00628805
0.0253919
0.125192
0.133867
0.109047
0.0784017
0.0532194
0.0356885
0.0232377
0.0152228
0.010412
0.00699733
0.00479832
0.00437708
0.00454056
0.00459569
0.00442341
0.00416671
0.00408059
0.00428186
0.0049115
0.0061036
0.00725015
0.00811182
0.00909382
0.0107241
0.0175684
0.0397055
0.104943
0.138202
0.14684
0.157092
0.171861
0.195402
0.217389
0.00658505
0.030438
0.138666
0.139688
0.10738
0.0733937
0.0485898
0.0318805
0.0203476
0.0130791
0.00878209
0.00595421
0.00435902
0.00432594
0.0047298
0.0048968
0.00473187
0.00446487
0.00445527
0.00486649
0.00554507
0.00667578
0.00778862
0.00866237
0.00979388
0.011985
0.0205789
0.046438
0.113764
0.142141
0.150689
0.162234
0.177771
0.202768
0.224372
0.00697682
0.0362848
0.14935
0.139742
0.101459
0.0658489
0.0424233
0.0271202
0.0168951
0.010642
0.00704175
0.00489677
0.00393188
0.0042498
0.00485984
0.00512263
0.00496989
0.00470643
0.0047909
0.00546805
0.00626283
0.00729946
0.0083579
0.00924613
0.0105668
0.0134489
0.0240976
0.0539414
0.12251
0.146133
0.154729
0.167676
0.18402
0.210587
0.231696
0.00744499
0.0428293
0.156169
0.134246
0.0920055
0.0565957
0.0353366
0.0218577
0.0132061
0.00815527
0.00538043
0.0039569
0.00356824
0.00417417
0.00494207
0.00527744
0.00513864
0.00488981
0.00507769
0.00605127
0.00703919
0.0079682
0.00895552
0.0098612
0.0114176
0.0151398
0.028183
0.0622234
0.131153
0.150188
0.158976
0.173444
0.190635
0.218897
0.239385
0.00795396
0.0495926
0.158369
0.124081
0.0800811
0.046534
0.0279647
0.0165635
0.00964447
0.00589503
0.00399033
0.00323301
0.00329841
0.00411541
0.00498504
0.00536791
0.00524674
0.00502375
0.00531894
0.00659002
0.00783347
0.00866597
0.00957461
0.0105029
0.0123504
0.0170841
0.0328979
0.0712879
0.139683
0.154322
0.163452
0.179575
0.197653
0.22775
0.247474
0.00846726
0.0556408
0.155454
0.110403
0.0668032
0.0364642
0.020869
0.0116828
0.00657568
0.00411273
0.00299852
0.0027558
0.00313004
0.00407937
0.00499269
0.00539913
0.00530314
0.00512109
0.00552672
0.00707014
0.00859722
0.00936611
0.0102036
0.0111642
0.0133686
0.0193115
0.038312
0.0811409
0.148115
0.158561
0.168188
0.186117
0.205121
0.23721
0.256009
0.00894498
0.0595236
0.147097
0.094361
0.0531473
0.0270009
0.0144999
0.00760624
0.00428795
0.00293159
0.00240778
0.00249329
0.00304947
0.00405907
0.00496253
0.00537295
0.00531666
0.00519897
0.00572263
0.00749432
0.0092857
0.0100355
0.0108274
0.0118364
0.0144754
0.0218571
0.0445046
0.0917968
0.156485
0.16294
0.173225
0.193129
0.213095
0.247354
0.265047
0.0093615
0.0597641
0.133218
0.077025
0.0398997
0.0185881
0.00921272
0.00462036
0.0028595
0.00227798
0.00211595
0.00238003
0.00302737
0.00403788
0.00488698
0.00528656
0.00529025
0.00527275
0.00593185
0.00787715
0.00986759
0.0106404
0.0114301
0.0125103
0.0156737
0.024763
0.0515687
0.103286
0.164853
0.167505
0.178611
0.200677
0.221639
0.258266
0.27465
0.0096768
0.0551096
0.114034
0.0594176
0.0277345
0.0115801
0.00528339
0.00278725
0.00210179
0.00195978
0.00199065
0.00234286
0.0030267
0.00399354
0.00475584
0.00513434
0.00522286
0.0053572
0.00618537
0.00824671
0.0103327
0.0111556
0.0119974
0.0131775
0.0169663
0.0280808
0.0596166
0.11566
0.1733
0.172309
0.184398
0.208836
0.23082
0.270039
0.284889
0.00988074
0.0454822
0.0904009
0.0425003
0.0172607
0.00627087
0.0028116
0.00183386
0.00170833
0.00177731
0.00190409
0.00230813
0.00300397
0.00389713
0.00455461
0.0049046
0.00510196
0.00545583
0.00651281
0.0086389
0.0106937
0.0115695
0.0125204
0.0138309
0.0183546
0.0318716
0.068784
0.128999
0.181929
0.177414
0.19064
0.217682
0.240709
0.282765
0.295837
4.88263e-24
3.15432e-19
1.14316e-18
4.32066e-18
2.50668e-17
3.16388e-14
9.06053e-11
0.0251326
0.131504
0.147919
0.157817
0.154312
0.147494
0.142543
0.123383
0.115399
0.102562
0.0913519
0.0667098
0.0576613
0.0302291
0.0121438
4.99639e-24
7.39633e-20
8.35899e-20
6.25522e-18
6.26027e-17
2.46817e-13
9.27536e-10
0.0474724
0.15499
0.158007
0.158731
0.153867
0.146617
0.142571
0.123406
0.11561
0.103092
0.0910823
0.0660214
0.0574246
0.0297935
0.0121935
5.10244e-24
2.76633e-19
8.77932e-19
8.90282e-18
1.22348e-16
9.30105e-13
9.34347e-09
0.0741169
0.176002
0.166304
0.159245
0.153488
0.145944
0.142779
0.12364
0.115985
0.103804
0.0908969
0.0656751
0.0568231
0.0292569
0.0123524
5.06224e-24
5.72606e-20
2.14764e-20
6.84922e-18
1.92251e-16
2.27892e-12
1.69624e-07
0.102234
0.194167
0.173062
0.159685
0.153259
0.145529
0.143205
0.124118
0.11651
0.104667
0.0908025
0.0656593
0.0558885
0.0286536
0.01261
5.16603e-24
2.21301e-19
6.32102e-19
7.22747e-18
2.87982e-16
3.60661e-12
6.54113e-06
0.127505
0.209453
0.17854
0.160281
0.153246
0.145422
0.143834
0.124819
0.117174
0.105648
0.0908007
0.0659425
0.0546906
0.0280292
0.0129575
5.11426e-24
4.59239e-20
1.20659e-20
4.61375e-18
4.09448e-16
4.86583e-12
1.85912e-05
0.145219
0.221964
0.183019
0.16122
0.153521
0.145665
0.144712
0.125778
0.117967
0.106709
0.0908877
0.0664908
0.0532861
0.0273937
0.0134119
5.2295e-24
1.78683e-19
4.73273e-19
4.63465e-18
5.79848e-16
5.05432e-12
3.43576e-05
0.153099
0.231906
0.186733
0.162608
0.154132
0.146295
0.145827
0.126975
0.118891
0.107817
0.0910604
0.0672526
0.0517558
0.0267728
0.013987
5.17041e-24
3.80405e-20
7.87972e-21
2.77901e-18
7.71629e-16
4.37075e-12
2.56992e-05
0.151793
0.239439
0.189896
0.16453
0.155133
0.147335
0.147228
0.128452
0.11995
0.108944
0.0913094
0.0681824
0.0501545
0.0261643
0.0147004
5.29816e-24
1.46652e-19
3.69482e-19
2.86009e-18
9.85066e-16
2.87654e-12
2.73128e-05
0.143679
0.244698
0.192645
0.167005
0.156555
0.148808
0.148904
0.130189
0.121162
0.110075
0.0916274
0.0692236
0.048554
0.0255874
0.0155559
5.2237e-24
3.24413e-20
5.88696e-21
1.68633e-18
1.14708e-15
1.68702e-12
3.51744e-05
0.130992
0.247681
0.195083
0.170049
0.158435
0.150723
0.150902
0.132231
0.122542
0.111204
0.0920028
0.0703345
0.0469946
0.0250331
0.0165569
5.35791e-24
1.21926e-19
2.97334e-19
1.84144e-18
1.25124e-15
8.51412e-13
4.00115e-05
0.11517
0.248302
0.197219
0.173624
0.160788
0.153089
0.153203
0.134561
0.124121
0.112343
0.0924292
0.0714665
0.0455324
0.0245168
0.017689
5.27131e-24
2.84275e-20
4.69145e-21
1.08024e-18
1.23804e-15
4.16055e-13
4.09896e-05
0.0975377
0.246321
0.19902
0.177692
0.163638
0.155909
0.15585
0.13722
0.125923
0.113516
0.0928984
0.0725925
0.0441902
0.0240254
0.0189366
5.41233e-24
1.0286e-19
2.48101e-19
1.26232e-18
1.14734e-15