/*--------------------------------*- C++ -*----------------------------------*\
| =========                 |                                                 |
| \\      /  F ield         | OpenFOAM: The Open Source CFD Toolbox           |
|  \\    /   O peration     | Version:  v1912                                 |
|   \\  /    A nd           | Website:  www.openfoam.com                      |
|    \\/     M anipulation  |                                                 |
\*---------------------------------------------------------------------------*/
FoamFile
{
    version     2.0;
    format      ascii;
    class       volScalarField;
    location    "280";
    object      p;
}
// * * * * * * * * * * * * * * * * * * * * * * * * * * * * * * * * * * * * * //

dimensions      [0 2 -2 0 0 0 0];


internalField   nonuniform List<scalar> 
12441
(
8.59607
8.88908
9.72589
11.0287
12.7206
14.8507
17.5084
20.8052
24.9239
30.0271
36.3119
44.1301
53.9555
65.527
81.5692
100.893
129.153
163.988
220.433
282.7
373.961
437.71
8.59606
8.88907
9.72588
11.0287
12.7205
14.8506
17.5084
20.8051
24.9238
30.0269
36.3115
44.1294
53.9546
65.5253
81.5662
100.886
129.137
163.963
220.351
282.624
373.912
437.513
8.59604
8.88905
9.72585
11.0286
12.7205
14.8505
17.5082
20.8049
24.9235
30.0264
36.3108
44.1282
53.9526
65.5218
81.5602
100.872
129.112
163.907
220.182
282.442
373.778
437.155
8.59602
8.88902
9.72582
11.0286
12.7204
14.8504
17.508
20.8046
24.9231
30.0257
36.3097
44.1263
53.9496
65.5166
81.5512
100.852
129.08
163.822
220.003
282.164
373.536
436.6
8.59599
8.88899
9.72577
11.0285
12.7203
14.8503
17.5078
20.8042
24.9225
30.0248
36.3082
44.1238
53.9457
65.5096
81.5393
100.826
129.037
163.714
219.837
281.815
373.195
435.841
8.59595
8.88894
9.72572
11.0284
12.7202
14.8501
17.5075
20.8037
24.9217
30.0236
36.3064
44.1207
53.9407
65.5009
81.5244
100.793
128.985
163.589
219.651
281.392
372.76
434.881
8.59591
8.88889
9.72565
11.0283
12.72
14.8498
17.5071
20.8031
24.9209
30.0222
36.3042
44.117
53.9348
65.4904
81.5066
100.754
128.923
163.441
219.432
280.9
372.236
433.72
8.59585
8.88883
9.72557
11.0282
12.7198
14.8496
17.5067
20.8024
24.9198
30.0205
36.3016
44.1126
53.9279
65.4782
81.4858
100.709
128.855
163.272
219.194
280.351
371.629
432.353
8.59579
8.88876
9.72548
11.0281
12.7196
14.8492
17.5062
20.8016
24.9187
30.0186
36.2987
44.1076
53.92
65.4643
81.4626
100.661
128.785
163.092
218.957
279.756
370.941
430.777
8.59572
8.88868
9.72538
11.0279
12.7194
14.8489
17.5057
20.8007
24.9173
30.0165
36.2954
44.102
53.9111
65.4489
81.4381
100.612
128.718
162.908
218.744
279.128
370.174
428.987
8.59564
8.88859
9.72526
11.0277
12.7191
14.8485
17.5051
20.7997
24.9159
30.0142
36.2917
44.0958
53.9012
65.4322
81.4136
100.568
128.669
162.739
218.586
278.475
369.325
426.976
8.59556
8.8885
9.72514
11.0275
12.7189
14.8481
17.5044
20.7986
24.9143
30.0116
36.2876
44.0889
53.8904
65.4153
81.3922
100.537
128.666
162.618
218.51
277.802
368.389
424.734
8.59547
8.88839
9.725
11.0273
12.7185
14.8476
17.5037
20.7975
24.9125
30.0088
36.2832
44.0815
53.879
65.4
81.3824
100.541
128.748
162.589
218.524
277.101
367.357
422.25
8.59537
8.88828
9.72485
11.0271
12.7182
14.8471
17.5029
20.7962
24.9106
30.0057
36.2785
44.0734
53.8674
65.391
81.3975
100.604
128.954
162.686
218.599
276.352
366.22
419.512
8.59526
8.88816
9.72469
11.0269
12.7178
14.8465
17.5021
20.7948
24.9085
30.0024
36.2733
44.0648
53.8573
65.3956
81.4528
100.744
129.303
162.911
218.675
275.53
364.968
416.507
8.59514
8.88803
9.72452
11.0266
12.7175
14.8459
17.5012
20.7933
24.9063
29.9989
36.2678
44.0558
53.8512
65.423
81.5591
100.967
129.774
163.215
218.68
274.609
363.592
413.222
8.59502
8.88789
9.72434
11.0263
12.717
14.8453
17.5002
20.7917
24.904
29.9951
36.2618
44.047
53.8538
65.4799
81.7191
101.262
130.305
163.508
218.557
273.569
362.085
409.642
8.59489
8.88774
9.72414
11.026
12.7166
14.8446
17.4992
20.7901
24.9015
29.9911
36.2554
44.0395
53.8705
65.5694
81.923
101.6
130.802
163.69
218.279
272.4
360.441
405.753
8.59475
8.88758
9.72394
11.0257
12.7161
14.8439
17.4981
20.7883
24.8988
29.9868
36.2486
44.035
53.9058
65.6866
82.1541
101.933
131.166
163.694
217.848
271.1
358.656
401.54
8.59461
8.88742
9.72372
11.0254
12.7156
14.8432
17.497
20.7864
24.8961
29.9823
36.2415
44.0365
53.9597
65.8237
82.3851
102.213
131.322
163.511
217.289
269.672
356.729
396.988
8.59445
8.88724
9.72349
11.0251
12.7151
14.8424
17.4958
20.7845
24.8931
29.9776
36.2343
44.0472
54.0303
65.9668
82.5907
102.395
131.248
163.176
216.631
268.123
354.658
392.081
8.59429
8.88706
9.72325
11.0247
12.7146
14.8416
17.4945
20.7824
24.89
29.9725
36.2275
44.0692
54.1095
66.1052
82.7437
102.457
130.972
162.747
215.901
266.461
352.445
386.803
8.59412
8.88687
9.723
11.0243
12.714
14.8407
17.4932
20.7802
24.8868
29.9672
36.222
44.1024
54.1925
66.2245
82.8308
102.395
130.562
162.272
215.116
264.696
350.09
381.137
8.59394
8.88667
9.72274
11.0239
12.7134
14.8398
17.4918
20.7779
24.8834
29.9616
36.219
44.1441
54.2696
66.3178
82.8446
102.234
130.091
161.783
214.286
262.836
347.596
375.064
8.59376
8.88646
9.72247
11.0235
12.7128
14.8388
17.4904
20.7756
24.8798
29.9557
36.2202
44.1905
54.3389
66.3765
82.795
102.002
129.617
161.288
213.416
260.891
344.965
368.565
8.59357
8.88624
9.72218
11.0231
12.7122
14.8379
17.4889
20.7731
24.8761
29.9496
36.2268
44.2377
54.3927
66.4024
82.6936
101.737
129.172
160.786
212.507
258.871
342.202
361.619
8.59337
8.88601
9.72188
11.0226
12.7115
14.8368
17.4873
20.7706
24.8723
29.9434
36.2389
44.2822
54.4329
66.395
82.5604
101.462
128.762
160.272
211.559
256.785
339.307
354.203
8.59316
8.88578
9.72157
11.0222
12.7108
14.8358
17.4857
20.7679
24.8682
29.9371
36.2559
44.3213
54.4542
66.3628
82.4084
101.196
128.382
159.74
210.571
254.641
336.282
346.295
8.59294
8.88553
9.72125
11.0217
12.7101
14.8347
17.484
20.7651
24.864
29.9311
36.2761
44.3536
54.4618
66.309
82.2516
100.943
128.022
159.188
209.542
252.446
333.129
337.868
8.59272
8.88528
9.72092
11.0212
12.7093
14.8335
17.4822
20.7623
24.8597
29.9254
36.2976
44.3778
54.4522
66.2432
82.0948
100.705
127.673
158.614
208.472
250.205
329.844
328.894
8.59249
8.88502
9.72058
11.0207
12.7085
14.8323
17.4804
20.7593
24.8551
29.9201
36.3188
44.3938
54.4327
66.1674
81.9438
100.478
127.327
158.019
207.362
247.919
326.423
319.342
8.59225
8.88475
9.72022
11.0202
12.7077
14.8311
17.4786
20.7562
24.8504
29.9155
36.3387
44.4016
54.4004
66.0885
81.7971
100.261
126.98
157.404
206.211
245.589
322.859
309.179
8.59201
8.88447
9.71986
11.0196
12.7069
14.8299
17.4766
20.7531
24.8456
29.9119
36.3564
44.4017
54.3627
66.006
81.6565
100.047
126.629
156.77
205.019
243.214
319.143
298.372
8.59175
8.88418
9.71948
11.019
12.7061
14.8286
17.4747
20.7498
24.8405
29.9095
36.3712
44.3947
54.3166
65.9245
81.5188
99.8361
126.272
156.119
203.787
240.795
315.265
286.883
8.59149
8.88388
9.71909
11.0185
12.7052
14.8272
17.4726
20.7464
24.8353
29.9086
36.383
44.3818
54.2689
65.8418
81.385
99.6246
125.909
155.451
202.516
238.33
311.213
274.672
8.59122
8.88358
9.71869
11.0179
12.7043
14.8258
17.4705
20.7429
24.83
29.9095
36.3916
44.3637
54.216
65.7612
81.2519
99.4134
125.539
154.768
201.206
235.821
306.974
261.699
8.59095
8.88326
9.71827
11.0173
12.7033
14.8244
17.4683
20.7393
24.8245
29.9129
36.3975
44.3416
54.1636
65.68
81.1206
99.1989
125.162
154.07
199.858
233.272
302.538
247.92
8.59066
8.88294
9.71785
11.0166
12.7024
14.823
17.4661
20.7356
24.8192
29.9201
36.401
44.3161
54.1079
65.6009
80.9886
98.9833
124.779
153.359
198.473
230.686
297.895
233.288
8.59037
8.88261
9.71741
11.016
12.7014
14.8215
17.4638
20.7318
24.8152
29.9317
36.4025
44.2884
54.0539
65.5213
80.8572
98.7638
124.389
152.635
197.053
228.068
293.035
217.754
8.59007
8.88227
9.71696
11.0153
12.7004
14.8199
17.4615
20.7279
24.8147
29.948
36.4023
44.2589
53.9974
65.4437
80.7243
98.5428
123.994
151.9
195.6
225.424
287.956
201.267
8.58977
8.88192
9.7165
11.0146
12.6994
14.8184
17.4591
20.7238
24.8214
29.9688
36.4006
44.2284
53.9432
65.3654
80.5918
98.3179
123.594
151.153
194.119
222.759
282.654
183.772
8.58945
8.88157
9.71603
11.0139
12.6983
14.8168
17.4566
20.7199
24.8386
29.9936
36.3973
44.1972
53.8864
65.2896
80.4575
98.0922
123.189
150.395
192.613
220.075
277.127
165.222
8.58913
8.8812
9.71555
11.0132
12.6972
14.8151
17.4541
20.7168
24.8687
30.0217
36.3923
44.166
53.8318
65.2133
80.3236
97.8629
122.779
149.625
191.087
217.368
271.351
145.531
8.5888
8.88083
9.71506
11.0125
12.6961
14.8134
17.4514
20.7177
24.9106
30.0514
36.3856
44.1349
53.7744
65.1399
80.1884
97.6338
122.366
148.84
189.547
214.628
265.245
123.957
-18.6585
-25.7272
-29.1893
-23.5709
-18.1462
-14.7109
-12.1029
-9.88507
-7.93855
-6.90122
-8.64264
-11.6626
-11.497
-3.11383
8.90428
17.5419
19.2465
17.2491
15.2898
14.5948
12.9012
11.2424
9.7403
7.65899
6.08181
5.0341
5.11094
-1.0118
-2.29093
6.47306
7.12523
5.15758
3.17828
1.77847
0.720733
-18.67
-25.7217
-29.213
-23.569
-18.1426
-14.7081
-12.1032
-9.88583
-7.93937
-6.90085
-8.64274
-11.6571
-11.4914
-3.10886
8.91271
17.5571
19.2636
17.261
15.2952
14.5973
12.9034
11.2446
9.74272
7.66157
6.0842
5.03565
5.11903
-1.01482
-2.32189
6.4501
7.12475
5.15807
3.17839
1.7785
0.720735
-18.6883
-25.7281
-29.2564
-23.5672
-18.1382
-14.7041
-12.1031
-9.88627
-7.93935
-6.89917
-8.64072
-11.6536
-11.4863
-3.10131
8.92942
17.5868
19.2999
17.2925
15.3148
14.6068
12.9088
11.2493
9.74733
7.66601
6.08814
5.03845
5.12771
-1.02214
-2.35094
6.4277
7.12446
5.15861
3.17851
1.77853
0.720743
-18.7139
-25.7542
-29.3193
-23.5678
-18.1338
-14.6993
-12.1025
-9.88645
-7.93892
-6.89701
-8.6388
-11.6519
-11.4821
-3.09331
8.94899
17.6228
19.3477
17.3392
15.3478
14.6231
12.9175
11.2565
9.75425
7.67264
6.09405
5.0424
5.13652
-1.03315
-2.36328
6.40718
7.12424
5.15919
3.17865
1.77859
0.720757
-18.7465
-25.8046
-29.3987
-23.5715
-18.1285
-14.6935
-12.1009
-9.88611
-7.93776
-6.89438
-8.63789
-11.652
-11.4804
-3.08778
8.96533
17.6541
19.3916
17.3852
15.3836
14.6422
12.9281
11.2655
9.76305
7.68122
6.1019
5.04776
5.14537
-1.04301
-2.35939
6.38999
7.12416
5.1598
3.1788
1.77866
0.720775
-18.7854
-25.8836
-29.491
-23.5776
-18.1211
-14.6861
-12.0978
-9.88521
-7.93576
-6.89145
-8.63785
-11.6538
-11.4814
-3.08496
8.97709
17.6769
19.4253
17.423
15.4154
14.661
12.9396
11.2756
9.77302
7.69123
6.11143
5.05457
5.15446
-1.04765
-2.34032
6.37642
7.12423
5.16045
3.17896
1.77873
0.720798
-18.8299
-25.9944
-29.5923
-23.5857
-18.1115
-14.6773
-12.0931
-9.88378
-7.93286
-6.88827
-8.6386
-11.657
-11.4848
-3.08367
8.98533
17.6921
19.4488
17.4514
15.4414
14.6782
12.9512
11.2859
9.78339
7.70197
6.12215
5.06265
5.16406
-1.04469
-2.30615
6.36628
7.12445
5.16112
3.17913
1.77881
0.720822
-18.8792
-26.1381
-29.6987
-23.5962
-18.1004
-14.6675
-12.0873
-9.88202
-7.9293
-6.88508
-8.64018
-11.6614
-11.4896
-3.08268
8.99104
17.7008
19.4635
17.4717
15.4621
14.6936
12.9625
11.2959
9.79345
7.71268
6.13341
5.07168
5.17428
-1.03327
-2.25683
6.35946
7.1248
5.16183
3.17929
1.7789
0.720845
-18.9325
-26.3139
-29.806
-23.6098
-18.089
-14.6577
-12.0808
-9.88014
-7.92527
-6.88196
-8.64244
-11.6671
-11.4955
-3.08166
8.99459
17.7039
19.4707
17.4848
15.478
14.7071
12.973
11.3051
9.80257
7.72258
6.1444
5.08122
5.1851
-1.01363
-2.19292
6.35577
7.12528
5.16256
3.17944
1.77897
0.720865
-18.9888
-26.5185
-29.9106
-23.6268
-18.0781
-14.6487
-12.0745
-9.87844
-7.92115
-6.87916
-8.64554
-11.6738
-11.5019
-3.08071
8.99616
17.7025
19.4715
17.4915
15.4892
14.7183
12.9824
11.313
9.8102
7.731
6.15428
5.09064
5.19632
-0.986957
-2.11608
6.35528
7.12586
5.16332
3.17958
1.77904
0.720879
-19.0474
-26.7463
-30.0094
-23.6473
-18.0686
-14.6412
-12.0688
-9.87716
-7.91722
-6.87675
-8.64914
-11.6816
-11.5087
-3.08038
8.99593
17.6978
19.4673
17.4925
15.4955
14.7266
12.99
11.3191
9.8159
7.73741
6.16231
5.09925
5.20766
-0.955238
-2.02916
6.35804
7.12654
5.1641
3.1797
1.77909
0.720886
-19.1072
-26.9895
-30.1002
-23.6707
-18.0613
-14.6357
-12.0645
-9.87659
-7.91387
-6.875
-8.6533
-11.6897
-11.5153
-3.08107
8.99414
17.6911
19.4598
17.4892
15.4974
14.7313
12.995
11.323
9.81937
7.74152
6.16803
5.10639
5.21877
-0.921038
-1.93632
6.36446
7.12729
5.16489
3.1798
1.77912
0.720883
-19.1674
-27.2387
-30.182
-23.6959
-18.0568
-14.6327
-12.062
-9.87696
-7.91132
-6.87399
-8.6577
-11.6981
-11.5216
-3.08307
8.99096
17.6832
19.4505
17.4829
15.4956
14.7325
12.9971
11.3243
9.82048
7.74331
6.17132
5.11159
5.22931
-0.886999
-1.84283
6.37502
7.12811
5.1657
3.17987
1.77912
0.720869
-19.2271
-27.4833
-30.2542
-23.7214
-18.0554
-14.6324
-12.0617
-9.87852
-7.90983
-6.87396
-8.66248
-11.7059
-11.5272
-3.08611
8.98649
17.6744
19.44
17.4748
15.4915
14.7307
12.9963
11.3231
9.81937
7.74303
6.17242
5.1147
5.23903
-0.855174
-1.7547
6.39055
7.129
5.16651
3.17991
1.7791
0.720841
-19.2854
-27.7123
-30.3167
-23.7454
-18.0572
-14.6352
-12.0639
-9.88145
-7.90948
-6.87496
-8.66744
-11.7131
-11.532
-3.08975
8.98079
17.6642
19.4286
17.4657
15.4859
14.7269
12.9932
11.3198
9.81633
7.74111
6.17177
5.11595
5.24787
-0.82646
-1.67784
6.41175
7.12994
5.16734
3.17991
1.77904
0.720798
-19.3412
-27.9153
-30.3697
-23.7658
-18.0621
-14.6413
-12.0687
-9.88593
-7.91042
-6.87716
-8.67281
-11.7193
-11.5356
-3.09325
8.97394
17.6521
19.4156
17.4556
15.4797
14.7218
12.9885
11.3146
9.81171
7.73796
6.16993
5.11581
5.25595
-0.8005
-1.61704
6.43921
7.13094
5.16817
3.17987
1.77894
0.720739
-19.3935
-28.0839
-30.4138
-23.7802
-18.0706
-14.651
-12.0762
-9.8921
-7.91267
-6.88054
-8.67853
-11.725
-11.5379
-3.09607
8.96611
17.6375
19.4004
17.4443
15.473
14.7161
12.9827
11.3081
9.80581
7.73392
6.16732
5.11479
5.26362
-0.776105
-1.57459
6.47269
7.13201
5.169
3.17979
1.77881
0.720664
-19.4409
-28.2133
-30.4502
-23.787
-18.0835
-14.6646
-12.0868
-9.9002
-7.91638
-6.88522
-8.68501
-11.7301
-11.5388
-3.09765
8.95752
17.62
19.3823
17.4315
15.4657
14.7099
12.976
11.3006
9.79886
7.72922
6.16428
5.11327
5.27123
-0.75196
-1.54958
6.51131
7.13316
5.16982
3.17967
1.77864
0.720572
-19.4823
-28.3035
-30.4813
-23.7863
-18.1007
-14.6823
-12.1008
-9.9105
-7.92151
-6.89111
-8.69236
-11.7356
-11.5385
-3.09782
8.9484
17.5994
19.361
17.4167
15.4577
14.7031
12.9687
11.2921
9.79103
7.72399
6.16096
5.11148
5.27911
-0.727147
-1.53852
6.55333
7.13439
5.17063
3.1795
1.77842
0.720461
-19.5162
-28.3578
-30.5099
-23.78
-18.1218
-14.7045
-12.1188
-9.92357
-7.92832
-6.89832
-8.70118
-11.7417
-11.5372
-3.09642
8.93885
17.5758
19.3363
17.3998
15.4487
14.6957
12.9607
11.2829
9.78243
7.71833
6.15745
5.10952
5.28746
-0.701309
-1.53702
6.59699
7.1357
5.17141
3.17928
1.77816
0.720334
-19.5426
-28.3816
-30.5378
-23.7703
-18.1462
-14.7317
-12.1413
-9.93999
-7.93695
-6.90677
-8.71175
-11.7497
-11.5357
-3.09378
8.92877
17.5489
19.3082
17.3807
15.4386
14.6876
12.9519
11.2728
9.77312
7.71233
6.15379
5.10745
5.29639
-0.674486
-1.54114
6.64057
7.13711
5.17217
3.17901
1.77786
0.720188
-19.5627
-28.381
-30.5635
-23.7593
-18.1734
-14.7642
-12.1694
-9.96069
-7.94791
-6.91668
-8.72486
-11.7602
-11.5346
-3.09035
8.91779
17.5187
19.2765
17.3594
15.4275
14.6787
12.9424
11.2619
9.76319
7.70605
6.14999
5.1053
5.30588
-0.646924
-1.5481
6.68308
7.13861
5.17289
3.17869
1.77752
0.720025
-19.5775
-28.3613
-30.583
-23.7483
-18.2028
-14.8027
-12.2039
-9.98648
-7.96147
-6.92792
-8.7408
-11.7749
-11.5353
-3.08726
8.9053
17.4848
19.2413
17.3357
15.4154
14.6691
12.9322
11.2502
9.75268
7.69956
6.14606
5.10309
5.31594
-0.618891
-1.55602
6.72388
7.14021
5.17357
3.17832
1.77713
0.719844
-19.5862
-28.3258
-30.591
-23.7378
-18.2341
-14.8479
-12.246
-10.0184
-7.97826
-6.94071
-8.76031
-11.7946
-11.5393
-3.08581
8.89035
17.4468
19.2023
17.3098
15.4022
14.6588
12.9211
11.2378
9.74167
7.6929
6.14202
5.10087
5.32647
-0.590665
-1.5637
6.76305
7.1419
5.1742
3.1779
1.7767
0.719646
-19.5881
-28.2777
-30.5774
-23.7278
-18.267
-14.9008
-12.297
-10.0574
-7.99834
-6.95463
-8.78314
-11.8209
-11.5484
-3.08789
8.8718
17.4044
19.1595
17.2815
15.388
14.6478
12.9095
11.2246
9.73024
7.68613
6.1379
5.09869
5.33741
-0.562473
-1.57013
6.80071
7.1437
5.17477
3.17742
1.77622
0.719432
-19.5824
-28.2205
-30.5285
-23.7168
-18.3017
-14.9626
-12.3583
-10.1042
-8.02205
-6.96954
-8.80934
-11.854
-11.5631
-3.09485
8.84834
17.3569
19.1129
17.251
15.3727
14.6362
12.8971
11.2109
9.71844
7.67927
6.13372
5.09661
5.34859
-0.534568
-1.57455
6.83746
7.1456
5.17528
3.17688
1.7757
0.719202
-19.5687
-28.1586
-30.4315
-23.7025
-18.3383
-15.0341
-12.4306
-10.1587
-8.04853
-6.98427
-8.83758
-11.8941
-11.5837
-3.10759
8.81888
17.3041
19.0624
17.2181
15.3562
14.6239
12.8842
11.1965
9.70634
7.67238
6.12952
5.09468
5.35989
-0.507165
-1.5762
6.87363
7.14763
5.17572
3.17629
1.77514
0.718957
-19.5466
-28.0977
-30.2809
-23.6815
-18.3772
-15.1159
-12.514
-10.2201
-8.07683
-6.99789
-8.86696
-11.9394
-11.6085
-3.12534
8.78298
17.2455
19.0081
17.1831
15.3385
14.6108
12.8707
11.1817
9.694
7.66548
6.12536
5.09295
5.37111
-0.480544
-1.5746
6.90988
7.1498
5.17608
3.17564
1.77454
0.718698
-19.5169
-28.044
-30.0816
-23.6501
-18.4191
-15.2069
-12.6061
-10.2856
-8.10418
-7.00814
-8.89518
-11.9885
-11.6356
-3.14666
8.74119
17.1813
18.9502
17.1458
15.3193
14.5966
12.8565
11.1663
9.68145
7.65862
6.12128
5.09146
5.3821
-0.454955
-1.56922
6.94648
7.15214
5.17637
3.17493
1.77389
0.718425
-19.4818
-28.0044
-29.8471
-23.605
-18.4649
-15.3051
-12.7031
-10.351
-8.12776
-7.01333
-8.92085
-12.0377
-11.6618
-3.16892
8.69511
17.1118
18.8888
17.1064
15.2986
14.5809
12.8414
11.1504
9.66874
7.65184
6.11735
5.09023
5.3926
-0.430762
-1.55986
6.98402
7.15465
5.17657
3.17415
1.77321
0.71814
-19.4445
-27.9859
-29.5934
-23.5449
-18.5158
-15.4063
-12.7981
-10.4101
-8.1431
-7.01079
-8.9416
-12.0844
-11.6845
-3.19014
8.64687
17.0382
18.8243
17.065
15.276
14.5635
12.8253
11.134
9.65589
7.64518
6.11363
5.0893
5.40247
-0.408287
-1.5462
7.02265
7.15737
5.17669
3.17332
1.77248
0.717843
-19.4087
-27.9968
-29.3356
-23.4719
-18.5736
-15.5051
-12.8835
-10.4568
-8.14673
-6.9992
-8.95638
-12.1239
-11.7005
-3.20787
8.59857
16.962
18.7573
17.0216
15.2516
14.5439
12.8078
11.117
9.64294
7.6387
6.1102
5.08866
5.4114
-0.38801
-1.52825
7.06285
7.16031
5.17672
3.17242
1.77172
0.717535
-19.378
-28.0473
-29.0871
-23.3938
-18.6396
-15.5947
-12.9506
-10.4844
-8.13477
-6.97708
-8.96342
-12.1536
-11.7085
-3.22093
8.55176
16.8847
18.6887
16.9767
15.2253
14.5219
12.7888
11.0993
9.62992
7.63244
6.10712
5.08833
5.41923
-0.370344
-1.5058
7.10464
7.16352
5.17665
3.17147
1.77092
0.717217
-19.3553
-28.1506
-28.8607
-23.3243
-18.7148
-15.6686
-12.9926
-10.4884
-8.10581
-6.94512
-8.96227
-12.17
-11.7065
-3.22777
8.50741
16.8071
18.619
16.9306
15.1973
14.4973
12.768
11.081
9.61685
7.62647
6.10449
5.08832
5.42561
-0.355909
-1.47899
7.14847
7.16699
5.17649
3.17044
1.77008
0.71689
-19.3424
-28.3239
-28.6682
-23.2805
-18.7993
-15.7214
-13.005
-10.4665
-8.05946
-6.90444
-8.95216
-12.1728
-11.6949
-3.22841
8.46573
16.7298
18.5489
16.8837
15.168
14.4702
12.7453
11.0618
9.60378
7.62084
6.10236
5.08864
5.43034
-0.345184
-1.44766
7.19424
7.17076
5.17624
3.16935
1.76921
0.716553
-19.339
-28.5876
-28.5185
-23.2788
-18.8918
-15.7508
-12.9876
-10.4199
-7.99866
-6.85804
-8.93414
-12.1628
-11.6737
-3.22248
8.42657
16.6528
18.4784
16.8362
15.1376
14.4407
12.7207
11.042
9.59076
7.61563
6.10083
5.08931
5.43299
-0.338899
-1.41205
7.24234
7.17485
5.17588
3.16819
1.76829
0.716208
-19.3426
-28.964
-28.4147
-23.329
-18.9898
-15.7576
-12.9435
-10.3526
-7.92754
-6.80893
-8.91042
-12.144
-11.6445
-3.21107
8.38925
16.5757
18.4074
16.7882
15.1065
14.4093
12.6942
11.0214
9.57785
7.6109
6.09998
5.09036
5.4333
-0.337573
-1.37202
7.29264
7.17928
5.17541
3.16696
1.76734
0.715854
-19.3486
-29.4713
-28.3533
-23.4329
-19.0902
-15.7452
-12.8791
-10.2713
-7.85226
-6.76152
-8.88571
-12.1199
-11.6076
-3.19443
8.35305
16.4976
18.3353
16.7396
15.0749
14.3763
12.6661
11.0002
9.56512
7.60674
6.09989
5.09181
5.43069
-0.342042
-1.32786
7.34555
7.18407
5.17484
3.16564
1.76633
0.715489
-19.3517
-30.111
-28.3255
-23.5846
-19.1895
-15.7185
-12.8018
-10.1832
-7.77896
-6.72089
-8.86518
-12.0942
-11.5643
-3.17407
8.31673
16.4177
18.2616
16.6903
15.0429
14.3422
12.6367
10.9785
9.55266
7.60315
6.1006
5.0937
5.42479
-0.35282
-1.27926
7.40094
7.18925
5.17413
3.16424
1.76529
0.715114
-19.3466
-30.8478
-28.3197
-23.7738
-19.2845
-15.6824
-12.7189
-10.096
-7.71497
-6.69307
-8.85258
-12.0675
-11.5144
-3.15085
8.27869
16.3345
18.1857
16.6403
15.0109
14.3074
12.6065
10.9565
9.54045
7.60016
6.10217
5.09606
5.41482
-0.370673
-1.22621
7.45921
7.19482
5.17328
3.16275
1.76418
0.714727
-19.3253
-31.5897
-28.3229
-23.9876
-19.3718
-15.6409
-12.6363
-10.0169
-7.66754
-6.68165
-8.84803
-12.0396
-11.4595
-3.12776
8.23656
16.2475
18.1082
16.5906
14.9793
14.2721
12.5754
10.9342
9.5284
7.59766
6.10462
5.09899
5.40054
-0.395631
-1.16865
7.51971
7.20075
5.17229
3.16116
1.76301
0.714325
-19.2711
-32.1764
-28.3214
-24.2116
-19.4474
-15.5967
-12.5588
-9.95358
-7.64121
-6.68552
-8.84876
-12.0092
-11.402
-3.10797
8.18859
16.1572
18.0309
16.5426
14.9482
14.2357
12.5429
10.9111
9.5163
7.59568
6.10819
5.10294
5.38219
-0.42802
-1.10955
7.58119
7.20693
5.17117
3.15947
1.76178
0.713905
-19.1848
-32.3994
-28.3019
-24.4316
-19.5069
-15.5505
-12.4917
-9.91222
-7.63302
-6.69892
-8.85131
-11.9783
-11.3485
-3.09623
8.13558
16.0684
17.9578
16.4973
14.9161
14.1964
12.5076
10.8869
9.50437
7.59465
6.1135
5.10876
5.36075
-0.468781
-1.05255
7.64241
7.21347
5.16995
3.15769
1.76047
0.713461
-19.2185
-32.0913
-28.2578
-24.6406
-19.5513
-15.5043
-12.4412
-9.89171
-7.63627
-6.71763
-8.85558
-11.951
-11.3037
-3.09125
8.08401
15.9873
17.8914
16.4523
14.8779
14.1495
12.4682
10.8626
9.49453
7.59646
6.12189
5.11596
5.32668
-0.527798
-0.982216
7.71858
7.2223
5.16821
3.15562
1.75906
0.71301
8.58854
8.88053
9.71466
11.0119
12.6952
14.8121
17.4493
20.7295
24.9502
30.0738
36.3788
44.1113
53.7317
65.0847
80.0851
97.4551
122.043
148.216
188.346
212.458
260.201
102.273
8.58834
8.88031
9.71437
11.0114
12.6946
14.8111
17.4478
20.7484
24.9789
30.0868
36.3722
44.0941
53.6976
65.0496
80.0103
97.3288
121.81
147.758
187.477
210.88
256.348
99.3536
8.58814
8.88008
9.71407
11.011
12.6939
14.81
17.4462
20.7721
25.003
30.0955
36.364
44.0765
53.6667
65.0121
79.9356
97.1969
121.568
147.281
186.584
209.243
252.337
101.041
8.58793
8.87983
9.71375
11.0105
12.6932
14.8089
17.4444
20.7961
25.0225
30.1006
36.3548
44.0583
53.6325
64.9756
79.858
97.062
121.316
146.785
185.667
207.538
248.213
100.937
8.5877
8.87957
9.71341
11.01
12.6924
14.8077
17.4426
20.8168
25.0377
30.103
36.3455
44.0402
53.6018
64.9359
79.7797
96.9196
121.052
146.267
184.721
205.764
243.965
99.1489
8.58746
8.8793
9.71305
11.0095
12.6916
14.8065
17.4407
20.8309
25.049
30.1031
36.3365
44.0221
53.5683
64.8971
79.6982
96.7731
120.775
145.728
183.74
203.925
239.589
97.1059
8.58721
8.87902
9.71267
11.0089
12.6908
14.8052
17.4387
20.8356
25.0567
30.1014
36.328
44.0044
53.5383
64.8553
79.6157
96.6184
120.483
145.165
182.718
202.021
235.09
95.2035
8.58694
8.87871
9.71227
11.0083
12.6899
14.8038
17.4366
20.8315
25.0609
30.0982
36.3202
43.9869
53.5059
64.8143
79.5295
96.4585
120.175
144.579
181.649
200.053
230.473
93.2793
8.58666
8.8784
9.71185
11.0077
12.6889
14.8023
17.4343
20.8207
25.0617
30.0939
36.3133
43.97
53.4768
64.7704
79.4418
96.2898
119.849
143.966
180.527
198.02
225.742
91.2349
8.58637
8.87806
9.71141
11.007
12.6879
14.8008
17.432
20.8052
25.0593
30.0884
36.307
43.9534
53.4452
64.7271
79.3502
96.1152
119.505
143.326
179.347
195.924
220.902
89.0947
8.58606
8.8777
9.71094
11.0064
12.6869
14.7991
17.4295
20.7865
25.0534
30.082
36.3014
43.9374
53.4167
64.6809
79.2565
95.9313
119.14
142.657
178.103
193.762
215.957
86.8936
8.58573
8.87733
9.71044
11.0056
12.6858
14.7974
17.4268
20.7657
25.0437
30.0744
36.2961
43.9217
53.3857
64.6349
79.1585
95.7409
118.756
141.958
176.791
191.534
210.912
84.6427
8.58538
8.87693
9.70992
11.0048
12.6846
14.7955
17.424
20.7438
25.0298
30.0655
36.2911
43.9066
53.3574
64.5858
79.0578
95.5407
118.351
141.226
175.406
189.239
205.772
82.3458
8.58501
8.87651
9.70936
11.004
12.6834
14.7936
17.4211
20.722
25.0112
30.0546
36.2858
43.8917
53.3263
64.5365
78.9522
95.3334
117.926
140.461
173.944
186.875
200.542
80.0119
8.58462
8.87607
9.70878
11.0032
12.682
14.7915
17.4179
20.7014
24.9872
30.0415
36.2799
43.8772
53.2976
64.4838
78.8432
95.1156
117.479
139.66
172.404
184.441
195.228
77.6531
8.58421
8.8756
9.70815
11.0022
12.6807
14.7893
17.4145
20.6828
24.9576
30.0252
36.2727
43.8627
53.266
64.4302
78.7284
94.8896
117.01
138.823
170.782
181.935
189.834
75.2827
8.58377
8.8751
9.70749
11.0013
12.6792
14.787
17.411
20.6667
24.9224
30.005
36.2634
43.8481
53.2364
64.3726
78.6094
94.6519
116.519
137.948
169.078
179.356
184.363
72.9146
8.58331
8.87457
9.7068
11.0002
12.6776
14.7845
17.4073
20.6532
24.8821
29.9797
36.2509
43.833
53.2037
64.3137
78.4837
94.4048
116.004
137.033
167.291
176.702
178.821
70.5627
8.58282
8.87401
9.70606
10.9991
12.676
14.7819
17.4033
20.6421
24.8379
29.9484
36.2339
43.8169
53.1727
64.2501
78.3525
94.1446
115.465
136.076
165.418
173.972
173.211
68.2398
8.5823
8.87342
9.70527
10.998
12.6742
14.7791
17.399
20.6327
24.7918
29.9102
36.2107
43.7988
53.1383
64.1845
78.2136
93.8733
114.9
135.078
163.46
171.164
167.537
65.9563
8.58175
8.87279
9.70444
10.9968
12.6724
14.7762
17.3945
20.6244
24.746
29.8647
36.1791
43.7776
53.1051
64.1136
78.068
93.5873
114.307
134.034
161.416
168.277
161.804
63.7192
8.58116
8.87213
9.70356
10.9955
12.6704
14.7731
17.3898
20.6166
24.7028
29.8122
36.1369
43.7511
53.0676
64.04
77.9133
93.2884
113.686
132.945
159.286
165.31
156.018
61.5312
8.58054
8.87142
9.70262
10.9941
12.6683
14.7698
17.3847
20.6088
24.6642
29.7541
36.0819
43.7167
53.0297
63.9606
77.7505
92.9728
113.034
131.808
157.069
162.26
150.184
59.3904
8.57988
8.87067
9.70163
10.9926
12.6661
14.7662
17.3792
20.6007
24.6309
29.6925
36.0125
43.6702
52.9846
63.8775
77.5772
92.6423
112.351
130.621
154.764
159.127
144.309
57.2896
8.57918
8.86988
9.70057
10.9911
12.6637
14.7625
17.3735
20.5922
24.6029
29.6305
35.9289
43.6071
52.9342
63.7874
77.3943
92.2932
111.633
129.382
152.371
155.908
138.402
55.2169
8.57844
8.86903
9.69945
10.9894
12.6612
14.7586
17.3674
20.5831
24.579
29.5706
35.8331
43.5218
52.8689
63.6917
77.1994
91.9271
110.881
128.09
149.89
152.602
132.472
53.1557
8.57765
8.86813
9.69826
10.9876
12.6586
14.7544
17.3609
20.5734
24.558
29.5151
35.7293
43.4103
52.7858
63.5851
76.993
91.5403
110.091
126.741
147.319
149.207
126.529
51.086
8.57681
8.86718
9.69699
10.9858
12.6557
14.7499
17.354
20.5631
24.5384
29.4648
35.6227
43.2713
52.6708
63.4657
76.7719
91.1344
109.265
125.335
144.659
145.723
120.587
48.9853
8.57592
8.86616
9.69564
10.9838
12.6527
14.7452
17.3466
20.552
24.5192
29.4196
35.5189
43.1087
52.5168
63.3231
76.5348
90.7054
108.399
123.87
141.909
142.146
114.658
46.8301
8.57497
8.86508
9.6942
10.9817
12.6495
14.7402
17.3388
20.5402
24.4997
29.3784
35.4215
42.9307
52.3123
63.1476
76.275
90.2541
107.493
122.343
139.071
138.476
108.755
44.5969
8.57396
8.86393
9.69267
10.9794
12.6461
14.7348
17.3305
20.5276
24.4795
29.3397
35.3326
42.7483
52.0592
62.9213
75.9846
89.7748
106.546
120.754
136.144
134.713
102.892
42.264
8.57288
8.86271
9.69104
10.977
12.6425
14.7291
17.3217
20.5142
24.4581
29.302
35.2517
42.5718
51.7652
62.6305
75.6479
89.2644
105.556
119.1
133.129
130.855
97.0856
39.8126
8.57174
8.86141
9.68931
10.9745
12.6387
14.7231
17.3123
20.4999
24.4354
29.2638
35.177
42.4077
51.4504
62.2654
75.2459
88.7111
104.521
117.38
130.028
126.903
91.3486
37.2275
8.57052
8.86002
9.68746
10.9718
12.6346
14.7167
17.3023
20.4846
24.4113
29.2243
35.1056
42.2579
51.1349
61.8329
74.7565
88.1028
103.436
115.594
126.842
122.859
85.6959
34.4987
8.56922
8.85854
9.68549
10.9689
12.6302
14.7098
17.2917
20.4684
24.3855
29.1829
35.0348
42.1201
50.8365
61.3535
74.1664
87.4174
102.293
113.738
123.573
118.724
80.1413
31.6214
8.56783
8.85696
9.68338
10.9658
12.6255
14.7026
17.2804
20.4512
24.3581
29.1392
34.9625
41.99
50.5622
60.8588
73.4784
86.6355
101.08
111.813
120.225
114.503
74.6982
28.597
8.56635
8.85528
9.68114
10.9625
12.6206
14.6948
17.2684
20.4327
24.329
29.0927
34.8872
41.8623
50.3109
60.3765
72.7181
85.7403
99.7825
109.815
116.802
110.202
69.3793
25.4329
8.56477
8.85349
9.67875
10.959
12.6153
14.6866
17.2556
20.4131
24.2979
29.0433
34.8079
41.7326
50.075
59.9231
71.9254
84.7336
98.3844
107.743
113.311
105.826
64.1968
22.1425
8.56308
8.85158
9.6762
10.9553
12.6096
14.6778
17.242
20.3922
24.2649
28.9908
34.724
41.5979
49.845
59.5
71.1406
83.636
96.8749
105.596
109.764
101.388
59.163
18.7447
8.56128
8.84953
9.67347
10.9513
12.6036
14.6684
17.2274
20.3699
24.2297
28.9349
34.6349
41.4563
49.6122
59.0973
70.3884
82.4858
95.2571
103.376
106.177
96.8998
54.2907
15.2636
8.55936
8.84736
9.67056
10.947
12.5972
14.6584
17.2119
20.3462
24.1921
28.8755
34.5404
41.3065
49.3708
58.7005
69.6722
81.322
93.5477
101.088
102.574
92.3821
49.594
11.7275
8.55731
8.84503
9.66745
10.9424
12.5903
14.6477
17.1954
20.3208
24.1522
28.8123
34.4399
41.148
49.117
58.2963
68.9781
80.1711
91.7761
98.7437
98.9861
87.8614
45.0893
8.16853
8.55512
8.84254
9.66412
10.9376
12.5829
14.6363
17.1778
20.2938
24.1096
28.745
34.3331
40.9798
48.8491
57.8752
68.2849
79.0381
89.9715
96.3536
95.4457
83.3718
40.7956
4.62238
8.55277
8.83988
9.66057
10.9324
12.5751
14.6242
17.1591
20.265
24.0643
28.6733
34.2197
40.8014
48.5659
57.4322
67.573
77.9101
88.1536
93.925
91.9821
78.9541
36.7341
1.12769
8.55026
8.83704
9.65677
10.9268
12.5667
14.6113
17.139
20.2342
24.0159
28.5971
34.0991
40.612
48.2665
56.9648
66.8291
76.7652
86.3276
91.4553
88.6076
74.6514
32.9272
-2.27447
8.54758
8.834
9.65271
10.9209
12.5578
14.5974
17.1177
20.2014
23.9644
28.5159
33.9709
40.4111
47.9496
56.4718
66.0467
75.582
84.4845
88.9354
85.3086
70.5004
29.3952
-5.5418
8.54471
8.83075
9.64836
10.9145
12.5482
14.5827
17.0949
20.1664
23.9094
28.4295
33.8347
40.198
47.6143
55.952
65.2244
74.3464
82.6054
86.3575
82.0434
66.5189
26.152
-8.63252
8.54164
8.82728
9.64371
10.9077
12.538
14.5669
17.0706
20.129
23.8509
28.3375
33.69
39.9719
47.2597
55.4039
64.3619
73.0526
80.6705
83.7187
78.758
62.6941
23.1983
-11.5083
8.53835
8.82356
9.63873
10.9004
12.5271
14.5501
17.0446
20.089
23.7884
28.2395
33.5362
39.7321
46.8848
54.826
63.4587
71.7008
78.6661
81.0163
75.4121
58.9804
20.514
-14.1381
8.53483
8.81957
9.6334
10.8927