/*--------------------------------*- C++ -*----------------------------------*\
| =========                 |                                                 |
| \\      /  F ield         | OpenFOAM: The Open Source CFD Toolbox           |
|  \\    /   O peration     | Version:  v1912                                 |
|   \\  /    A nd           | Website:  www.openfoam.com                      |
|    \\/     M anipulation  |                                                 |
\*---------------------------------------------------------------------------*/
FoamFile
{
    version     2.0;
    format      ascii;
    class       surfaceScalarField;
    location    "280";
    object      phi;
}
// * * * * * * * * * * * * * * * * * * * * * * * * * * * * * * * * * * * * * //

dimensions      [0 3 -1 0 0 0 0];
oriented        oriented;


internalField   nonuniform List<scalar> 
24588
(
6.81686e-05
1.93884e-08
6.81161e-05
5.32541e-08
6.80334e-05
8.219e-08
6.79206e-05
1.12656e-07
6.77734e-05
1.46575e-07
6.75879e-05
1.85502e-07
6.73566e-05
2.31059e-07
6.7065e-05
2.92272e-07
6.67042e-05
3.59988e-07
6.62534e-05
4.51312e-07
6.57019e-05
5.50353e-07
6.4958e-05
7.14983e-07
6.41689e-05
8.81142e-07
6.29146e-05
1.15319e-06
6.14992e-05
1.4675e-06
5.9182e-05
2.28867e-06
5.63152e-05
2.87174e-06
5.1592e-05
4.72229e-06
4.49666e-05
6.62553e-06
3.38139e-05
1.11533e-05
2.01163e-05
1.36977e-05
2.01163e-05
6.81689e-05
3.92879e-08
6.8116e-05
1.07167e-07
6.80333e-05
1.64184e-07
6.79206e-05
2.25026e-07
6.77736e-05
2.92833e-07
6.75881e-05
3.71008e-07
6.73569e-05
4.61963e-07
6.70652e-05
5.84843e-07
6.67043e-05
7.19755e-07
6.6254e-05
9.02184e-07
6.57023e-05
1.10075e-06
6.49557e-05
1.42883e-06
6.41775e-05
1.76028e-06
6.29032e-05
2.32758e-06
6.1489e-05
2.93585e-06
5.92342e-05
4.51681e-06
5.63279e-05
5.78674e-06
5.15612e-05
9.48801e-06
4.50119e-05
1.31752e-05
3.37173e-05
2.24489e-05
2.00751e-05
2.73399e-05
4.01914e-05
6.81689e-05
5.91863e-08
6.8116e-05
1.61078e-07
6.80332e-05
2.4622e-07
6.79206e-05
3.3747e-07
6.77735e-05
4.3915e-07
6.7588e-05
5.565e-07
6.73568e-05
6.92906e-07
6.7065e-05
8.77417e-07
6.67043e-05
1.07948e-06
6.62535e-05
1.35358e-06
6.57029e-05
1.65003e-06
6.49536e-05
2.14417e-06
6.41776e-05
2.64352e-06
6.29092e-05
3.47828e-06
6.14904e-05
4.41424e-06
5.92718e-05
6.70229e-06
5.63279e-05
8.74123e-06
5.15816e-05
1.42322e-05
4.49866e-05
1.97706e-05
3.3737e-05
3.36998e-05
2.00951e-05
4.09818e-05
6.02865e-05
6.81689e-05
7.90839e-08
6.8116e-05
2.14941e-07
6.80333e-05
3.28203e-07
6.79207e-05
4.49837e-07
6.77736e-05
5.85386e-07
6.75882e-05
7.42002e-07
6.73569e-05
9.23816e-07
6.70652e-05
1.16996e-06
6.67044e-05
1.43924e-06
6.62539e-05
1.80454e-06
6.57021e-05
2.20044e-06
6.49565e-05
2.85695e-06
6.41739e-05
3.5257e-06
6.29037e-05
4.65241e-06
6.14824e-05
5.88717e-06
5.92845e-05
8.87463e-06
5.63476e-05
1.16877e-05
5.15952e-05
1.89834e-05
4.49742e-05
2.63923e-05
3.37647e-05
4.49105e-05
2.01288e-05
5.46177e-05
8.04153e-05
6.81689e-05
9.89731e-08
6.8116e-05
2.68789e-07
6.80333e-05
4.10229e-07
6.79206e-05
5.62298e-07
6.77735e-05
7.31696e-07
6.75881e-05
9.2748e-07
6.73568e-05
1.15477e-06
6.70651e-05
1.46249e-06
6.67043e-05
1.79896e-06
6.62535e-05
2.25599e-06
6.57028e-05
2.74987e-06
6.49534e-05
3.57295e-06
6.41735e-05
4.41384e-06
6.29088e-05
5.79936e-06
6.14821e-05
7.37411e-06
5.92974e-05
1.10262e-05
5.63754e-05
1.46203e-05
5.15971e-05
2.37593e-05
4.49914e-05
3.29984e-05
3.38093e-05
5.60937e-05
2.0177e-05
6.82501e-05
0.000100592
6.81689e-05
1.18867e-07
6.8116e-05
3.22598e-07
6.80333e-05
4.92186e-07
6.79207e-05
6.74649e-07
6.77737e-05
8.77884e-07
6.75882e-05
1.11297e-06
6.7357e-05
1.38568e-06
6.70653e-05
1.75499e-06
6.67044e-05
2.15871e-06
6.62541e-05
2.70689e-06
6.57019e-05
3.3006e-06
6.4958e-05
4.28442e-06
6.41712e-05
5.29683e-06
6.29047e-05
6.97521e-06
6.14778e-05
8.84955e-06
5.92934e-05
1.31864e-05
5.63879e-05
1.75353e-05
5.16054e-05
2.85408e-05
4.50213e-05
3.95833e-05
3.38735e-05
6.72427e-05
2.02418e-05
8.18819e-05
0.000120834
6.81689e-05
1.38752e-07
6.8116e-05
3.76393e-07
6.80333e-05
5.74198e-07
6.79206e-05
7.87125e-07
6.77736e-05
1.02416e-06
6.75881e-05
1.29842e-06
6.73569e-05
1.61663e-06
6.70652e-05
2.04745e-06
6.67044e-05
2.51842e-06
6.62536e-05
3.1583e-06
6.57026e-05
3.85038e-06
6.49534e-05
5.00127e-06
6.41709e-05
6.18713e-06
6.29108e-05
8.11644e-06
6.1477e-05
1.03441e-05
5.92928e-05
1.53383e-05
5.64062e-05
2.04306e-05
5.16252e-05
3.33192e-05
4.50669e-05
4.61417e-05
3.39639e-05
7.83467e-05
2.03258e-05
9.552e-05
0.00014116
6.81689e-05
1.58643e-07
6.8116e-05
4.30153e-07
6.80333e-05
6.56132e-07
6.79207e-05
8.99456e-07
6.77737e-05
1.17029e-06
6.75883e-05
1.48388e-06
6.73571e-05
1.84751e-06
6.70654e-05
2.33989e-06
6.67046e-05
2.87816e-06
6.62543e-05
3.60907e-06
6.57018e-05
4.40146e-06
6.49603e-05
5.71076e-06
6.41697e-05
7.06862e-06
6.2906e-05
9.29598e-06
6.14648e-05
1.18316e-05
5.92764e-05
1.75061e-05
5.64195e-05
2.32948e-05
5.16659e-05
3.80725e-05
4.51408e-05
5.26677e-05
3.40901e-05
8.93983e-05
2.04326e-05
0.000109177
0.000161593
6.81689e-05
1.78523e-07
6.8116e-05
4.83898e-07
6.80333e-05
7.38131e-07
6.79207e-05
1.01194e-06
6.77736e-05
1.31654e-06
6.75882e-05
1.6693e-06
6.73569e-05
2.07846e-06
6.70653e-05
2.63228e-06
6.67045e-05
3.23783e-06
6.62538e-05
4.06037e-06
6.57025e-05
4.95159e-06
6.49535e-05
6.42889e-06
6.41635e-05
7.9676e-06
6.29119e-05
1.04316e-05
6.14469e-05
1.33482e-05
5.92802e-05
1.96499e-05
5.64215e-05
2.61575e-05
5.17537e-05
4.27382e-05
4.52589e-05
5.91622e-05
3.42616e-05
0.000100396
2.05661e-05
0.000122873
0.000182159
6.81689e-05
1.98411e-07
6.81161e-05
5.37612e-07
6.80334e-05
8.20048e-07
6.79208e-05
1.12425e-06
6.77738e-05
1.46261e-06
6.75884e-05
1.85473e-06
6.73572e-05
2.30932e-06
6.70656e-05
2.92466e-06
6.67047e-05
3.59757e-06
6.62547e-05
4.51085e-06
6.57016e-05
5.50328e-06
6.49643e-05
7.13479e-06
6.41601e-05
8.85363e-06
6.29053e-05
1.16119e-05
6.14242e-05
1.48608e-05
5.93009e-05
2.1764e-05
5.64171e-05
2.90452e-05
5.18851e-05
4.72705e-05
4.54233e-05
6.56248e-05
3.44818e-05
0.000111338
2.07294e-05
0.000136626
0.000202888
6.81689e-05
2.18284e-07
6.81161e-05
5.9131e-07
6.80333e-05
9.02047e-07
6.79207e-05
1.23674e-06
6.77736e-05
1.60882e-06
6.75883e-05
2.04012e-06
6.7357e-05
2.54025e-06
6.70655e-05
3.21696e-06
6.67047e-05
3.95729e-06
6.62544e-05
4.96171e-06
6.57018e-05
6.05474e-06
6.49548e-05
7.85286e-06
6.41324e-05
9.78018e-06
6.28974e-05
1.27533e-05
6.14041e-05
1.63807e-05
5.93254e-05
2.38317e-05
5.64269e-05
3.19446e-05
5.20393e-05
5.16564e-05
4.56168e-05
7.20469e-05
3.47437e-05
0.000122212
2.09235e-05
0.000150446
0.000223811
6.81689e-05
2.38167e-07
6.81161e-05
6.44978e-07
6.80334e-05
9.83959e-07
6.79208e-05
1.34902e-06
6.77738e-05
1.75484e-06
6.75885e-05
2.22552e-06
6.73573e-05
2.77107e-06
6.70658e-05
3.50923e-06
6.67048e-05
4.31714e-06
6.62555e-05
5.41147e-06
6.57001e-05
6.60874e-06
6.49659e-05
8.55814e-06
6.41157e-05
1.06959e-05
6.28973e-05
1.39276e-05
6.13908e-05
1.78991e-05
5.93451e-05
2.58762e-05
5.64489e-05
3.48427e-05
5.21843e-05
5.59217e-05
4.58145e-05
7.84173e-05
3.50334e-05
0.000132993
2.11473e-05
0.000164332
0.000244959
6.81689e-05
2.58031e-07
6.81161e-05
6.98632e-07
6.80333e-05
1.06597e-06
6.79207e-05
1.46151e-06
6.77737e-05
1.90103e-06
6.75883e-05
2.41087e-06
6.73571e-05
3.00198e-06
6.70657e-05
3.80141e-06
6.67046e-05
4.67707e-06
6.62556e-05
5.86113e-06
6.56986e-05
7.16467e-06
6.49591e-05
9.27256e-06
6.40846e-05
1.16522e-05
6.29049e-05
1.50646e-05
6.13845e-05
1.94288e-05
5.93604e-05
2.78954e-05
5.64746e-05
3.77281e-05
5.23023e-05
6.00929e-05
4.59998e-05
8.47194e-05
3.53368e-05
0.000143656
2.13976e-05
0.000178271
0.000266356
6.81689e-05
2.77906e-07
6.81161e-05
7.52254e-07
6.80334e-05
1.14788e-06
6.79209e-05
1.57378e-06
6.77739e-05
2.047e-06
6.75886e-05
2.59625e-06
6.73574e-05
3.23277e-06
6.7066e-05
4.09354e-06
6.67048e-05
5.03714e-06
6.62568e-05
6.30959e-06
6.56943e-05
7.72581e-06
6.49648e-05
9.97947e-06
6.40816e-05
1.25661e-05
6.29115e-05
1.62241e-05
6.13813e-05
2.09615e-05
5.93702e-05
2.99078e-05
5.64971e-05
4.06022e-05
5.23924e-05
6.41983e-05
4.61664e-05
9.09458e-05
3.56433e-05
0.00015418
2.16706e-05
0.000192244
0.000288027
6.81689e-05
2.9776e-07
6.81161e-05
8.0586e-07
6.80334e-05
1.22991e-06
6.79207e-05
1.68628e-06
6.77737e-05
2.19316e-06
6.75884e-05
2.78156e-06
6.73572e-05
3.46365e-06
6.70659e-05
4.38554e-06
6.67046e-05
5.39735e-06
6.6257e-05
6.75787e-06
6.56884e-05
8.29344e-06
6.49573e-05
1.0693e-05
6.40744e-05
1.34864e-05
6.29133e-05
1.73682e-05
6.13796e-05
2.24987e-05
5.93762e-05
3.19082e-05
5.65145e-05
4.34635e-05
5.2461e-05
6.82509e-05
4.63138e-05
9.70926e-05
3.59461e-05
0.000164547
2.1962e-05
0.000206228
0.000309989
6.81689e-05
3.17626e-07
6.81161e-05
8.59436e-07
6.80334e-05
1.31183e-06
6.79209e-05
1.79852e-06
6.7774e-05
2.33907e-06
6.75887e-05
2.9669e-06
6.73576e-05
3.6944e-06
6.70663e-05
4.67751e-06
6.6705e-05
5.75757e-06
6.62577e-05
7.20548e-06
6.568e-05
8.86999e-06
6.49563e-05
1.14033e-05
6.40704e-05
1.43762e-05
6.29125e-05
1.85263e-05
6.13787e-05
2.40326e-05
5.93797e-05
3.39087e-05
5.65271e-05
4.63168e-05
5.25145e-05
7.22642e-05
4.64445e-05
0.000103163
3.62422e-05
0.00017475
2.22683e-05
0.000220202
0.000332257
6.81689e-05
3.37468e-07
6.81161e-05
9.12996e-07
6.80334e-05
1.39388e-06
6.79207e-05
1.91102e-06
6.77738e-05
2.48522e-06
6.75885e-05
3.15217e-06
6.73573e-05
3.92525e-06
6.70662e-05
4.96932e-06
6.67048e-05
6.11792e-06
6.62578e-05
7.65311e-06
6.56678e-05
9.45914e-06
6.49574e-05
1.21065e-05
6.40657e-05
1.52856e-05
6.29114e-05
1.96721e-05
6.13781e-05
2.55679e-05
5.93815e-05
3.59032e-05
5.6536e-05
4.91618e-05
5.25579e-05
7.62416e-05
4.65613e-05
0.000109159
3.65304e-05
0.000184781
2.25867e-05
0.000234146
0.000354844
6.81689e-05
3.57322e-07
6.81161e-05
9.66526e-07
6.80335e-05
1.47582e-06
6.79209e-05
2.02323e-06
6.7774e-05
2.63109e-06
6.75888e-05
3.33747e-06
6.73577e-05
4.15597e-06
6.70666e-05
5.26111e-06
6.67052e-05
6.47826e-06
6.62587e-05
8.09997e-06
6.56578e-05
1.0059e-05
6.49608e-05
1.2799e-05
6.40626e-05
1.61804e-05
6.29104e-05
2.08271e-05
6.13779e-05
2.71e-05
5.93823e-05
3.79003e-05
5.65423e-05
5.20023e-05
5.25949e-05
8.01896e-05
4.66676e-05
0.000115087
3.68108e-05
0.000194638
2.29152e-05
0.000248041
0.000377759
6.81689e-05
3.77151e-07
6.81161e-05
1.02004e-06
6.80334e-05
1.5579e-06
6.79207e-05
2.13575e-06
6.77738e-05
2.77721e-06
6.75885e-05
3.5227e-06
6.73575e-05
4.38678e-06
6.70665e-05
5.55275e-06
6.67051e-05
6.83865e-06
6.62578e-05
8.54783e-06
6.56516e-05
1.06645e-05
6.49622e-05
1.34871e-05
6.40603e-05
1.70923e-05
6.29096e-05
2.19719e-05
6.13779e-05
2.8633e-05
5.93826e-05
3.98938e-05
5.65471e-05
5.48373e-05
5.26283e-05
8.41078e-05
4.67663e-05
0.000120948
3.70847e-05
0.000204319
2.32526e-05
0.000261873
0.000401012
6.81689e-05
3.96994e-07
6.81161e-05
1.07352e-06
6.80335e-05
1.63986e-06
6.7921e-05
2.24793e-06
6.77741e-05
2.92303e-06
6.75889e-05
3.70794e-06
6.73579e-05
4.61745e-06
6.70669e-05
5.8444e-06
6.67056e-05
7.19888e-06
6.62543e-05
8.99942e-06
6.56521e-05
1.12659e-05
6.49625e-05
1.41753e-05
6.40589e-05
1.7991e-05
6.29092e-05
2.31247e-05
6.13782e-05
3.01635e-05
5.93828e-05
4.18906e-05
5.65514e-05
5.76693e-05
5.26603e-05
8.79995e-05
4.68601e-05
0.000126749
3.73537e-05
0.000213826
2.35982e-05
0.000275629
0.00042461
6.81689e-05
4.16809e-07
6.81161e-05
1.12699e-06
6.80334e-05
1.72197e-06
6.79208e-05
2.36045e-06
6.77739e-05
3.06914e-06
6.75886e-05
3.89312e-06
6.73576e-05
4.84822e-06
6.70667e-05
6.13593e-06
6.67056e-05
7.55897e-06
6.62451e-05
9.4606e-06
6.56574e-05
1.18533e-05
6.49622e-05
1.48704e-05
6.40579e-05
1.89028e-05
6.2909e-05
2.4269e-05
6.13788e-05
3.16947e-05
5.93833e-05
4.38846e-05
5.65558e-05
6.04963e-05
5.26924e-05
9.18623e-05
4.69513e-05
0.000132489
3.76197e-05
0.000223158
2.39521e-05
0.000289296
0.000448562
6.81689e-05
4.36639e-07
6.81162e-05
1.18043e-06
6.80335e-05
1.80395e-06
6.7921e-05
2.47261e-06
6.77742e-05
3.21492e-06
6.7589e-05
4.07832e-06
6.73581e-05
5.07882e-06
6.70671e-05
6.42754e-06
6.67064e-05
7.9186e-06
6.62358e-05
9.93151e-06
6.56639e-05
1.24248e-05
6.49619e-05
1.55717e-05
6.40574e-05
1.98024e-05
6.2909e-05
2.54204e-05
6.13798e-05
3.32234e-05
5.93844e-05
4.58813e-05
5.65612e-05
6.33199e-05
5.27257e-05
9.56984e-05
4.70417e-05
0.000138174
3.78849e-05
0.000232314
2.43146e-05
0.000302867
0.000472877
6.81689e-05
4.56439e-07
6.81162e-05
1.23385e-06
6.80334e-05
1.88609e-06
6.79208e-05
2.58513e-06
6.77739e-05
3.36101e-06
6.75887e-05
4.26344e-06
6.73578e-05
5.30951e-06
6.7067e-05
6.71901e-06
6.67065e-05
8.27809e-06
6.62286e-05
1.04101e-05
6.56683e-05
1.29852e-05
6.49616e-05
1.62785e-05
6.40572e-05
2.0713e-05
6.29094e-05
2.65641e-05
6.13813e-05
3.47524e-05
5.93865e-05
4.78746e-05
5.65682e-05
6.61379e-05
5.27612e-05
9.95047e-05
4.71327e-05
0.000143802
3.81515e-05
0.000241296
2.46865e-05
0.000316332
0.000497563
6.81689e-05
4.76256e-07
6.81162e-05
1.28724e-06
6.80335e-05
1.96809e-06
6.79211e-05
2.69726e-06
6.77743e-05
3.50673e-06
6.75891e-05
4.44858e-06
6.73583e-05
5.54004e-06
6.70674e-05
7.01055e-06
6.67073e-05
8.63714e-06
6.62251e-05
1.08925e-05
6.56706e-05
1.35394e-05
6.49615e-05
1.69871e-05
6.40572e-05
2.16126e-05
6.29101e-05
2.77143e-05
6.13834e-05
3.62786e-05
5.939e-05
4.98692e-05
5.65771e-05
6.89512e-05
5.27991e-05
0.000103283
4.72253e-05
0.000149376
3.84217e-05
0.000250099
2.50689e-05
0.000329685
0.000522632
6.81689e-05
4.9604e-07
6.81162e-05
1.34062e-06
6.80335e-05
2.05026e-06
6.79208e-05
2.80977e-06
6.7774e-05
3.65281e-06
6.75889e-05
4.63364e-06
6.7358e-05
5.77067e-06
6.70673e-05
7.30184e-06
6.6707e-05
8.99648e-06
6.62227e-05
1.13775e-05
6.56717e-05
1.40905e-05
6.49616e-05
1.76973e-05
6.40575e-05
2.25222e-05
6.29111e-05
2.88569e-05
6.13861e-05
3.78044e-05
5.93951e-05
5.18587e-05
5.65883e-05
7.17577e-05
5.28397e-05
0.000107031
4.73205e-05
0.000154895
3.86978e-05
0.000258722
2.54629e-05
0.00034292
0.000548095
6.81689e-05
5.15843e-07
6.81162e-05
1.39396e-06
6.80336e-05
2.13228e-06
6.79211e-05
2.92187e-06
6.77744e-05
3.79849e-06
6.75893e-05
4.81872e-06
6.73585e-05
6.00116e-06
6.70678e-05
7.59311e-06
6.67063e-05
9.35707e-06
6.6223e-05
1.18609e-05
6.56724e-05
1.4641e-05
6.49618e-05
1.84075e-05
6.4058e-05
2.34215e-05
6.29125e-05
3.00054e-05
6.13897e-05
3.93267e-05
5.9402e-05
5.38477e-05
5.6602e-05
7.45581e-05
5.28828e-05
0.000110751
4.74185e-05
0.00016036
3.89819e-05
0.000267159
2.58702e-05
0.000356031
0.000573965
6.81689e-05
5.35613e-07
6.81162e-05
1.44729e-06
6.80335e-05
2.21448e-06
6.79208e-05
3.03439e-06
6.77741e-05
3.94455e-06
6.7589e-05
5.0037e-06
6.73582e-05
6.23177e-06
6.70679e-05
7.88399e-06
6.67009e-05
9.72315e-06
6.62259e-05
1.23365e-05
6.56728e-05
1.51942e-05
6.49621e-05
1.91184e-05
6.40587e-05
2.43299e-05
6.29143e-05
3.11463e-05
6.13941e-05
4.08476e-05
5.94106e-05
5.58297e-05
5.66182e-05
7.73501e-05
5.29286e-05
0.00011444
4.75198e-05
0.000165768
3.9276e-05
0.000275403
2.62922e-05
0.000369015
0.000600257
6.81689e-05
5.55402e-07
6.81162e-05
1.50059e-06
6.80336e-05
2.29652e-06
6.79212e-05
3.14645e-06
6.77745e-05
4.09019e-06
6.75895e-05
5.18868e-06
6.73587e-05
6.46226e-06
6.70685e-05
8.17471e-06
6.66941e-05
1.00966e-05
6.62313e-05
1.27993e-05
6.56733e-05
1.57522e-05
6.49625e-05
1.98288e-05
6.40596e-05
2.52284e-05
6.29165e-05
3.22923e-05
6.13994e-05
4.23643e-05
5.94211e-05
5.78092e-05
5.66371e-05
8.01346e-05
5.29769e-05
0.000118101
4.76245e-05
0.000171121
3.95817e-05
0.000283446
2.67305e-05
0.000381866
0.000626988
6.81689e-05
5.75157e-07
6.81162e-05
1.55388e-06
6.80335e-05
2.37874e-06
6.79209e-05
3.25896e-06
6.77741e-05
4.23624e-06
6.75891e-05
5.37356e-06
6.73583e-05
6.69287e-06
6.70686e-05
8.46506e-06
6.66884e-05
1.0476e-05
6.62353e-05
1.32528e-05
6.56737e-05
1.63138e-05
6.4963e-05
2.05396e-05
6.40608e-05
2.61355e-05
6.29191e-05
3.34305e-05
6.14055e-05
4.38786e-05
5.94332e-05
5.978e-05
5.66585e-05
8.29089e-05
5.30277e-05
0.000121731
4.77326e-05
0.000176415
3.99005e-05
0.000291278
2.71866e-05
0.00039458
0.000654175
6.81689e-05
5.94932e-07
6.81162e-05
1.60713e-06
6.80336e-05
2.4608e-06
6.79212e-05
3.37098e-06
6.77746e-05
4.38183e-06
6.75896e-05
5.55844e-06
6.73589e-05
6.92335e-06
6.70692e-05
8.75529e-06
6.66852e-05
1.08592e-05
6.62381e-05
1.36998e-05
6.56742e-05
1.68776e-05
6.49637e-05
2.12498e-05
6.40621e-05
2.70329e-05
6.29221e-05
3.45733e-05
6.14124e-05
4.53879e-05
5.94469e-05
6.17468e-05
5.66825e-05
8.56738e-05
5.3081e-05
0.000125333
4.78438e-05
0.000181653
4.02332e-05
0.000298888
2.76615e-05
0.000407152
0.000681836
6.81689e-05
6.14672e-07
6.81162e-05
1.66038e-06
6.80335e-05
2.54306e-06
6.79209e-05
3.48348e-06
6.77742e-05
4.52785e-06
6.75893e-05
5.74324e-06
6.73586e-05
7.1539e-06
6.70691e-05
9.0453e-06
6.66829e-05
1.12446e-05
6.62401e-05
1.41431e-05
6.56748e-05
1.7443e-05
6.49644e-05
2.19603e-05
6.40636e-05
2.79383e-05
6.29256e-05
3.57079e-05
6.14201e-05
4.68941e-05
5.9462e-05
6.37033e-05
5.6709e-05
8.84264e-05
5.3137e-05
0.000128904
4.79581e-05
0.000186831
4.05801e-05
0.000306266
2.81562e-05
0.000419576
0.000709992
6.81689e-05
6.34434e-07
6.81162e-05
1.71359e-06
6.80337e-05
2.62513e-06
6.79213e-05
3.59547e-06
6.77747e-05
4.67338e-06
6.75898e-05
5.92805e-06
6.73592e-05
7.38425e-06
6.70697e-05
9.33537e-06
6.66821e-05
1.16315e-05
6.62418e-05
1.45833e-05
6.56754e-05
1.80092e-05
6.49653e-05
2.26702e-05
6.40653e-05
2.88342e-05
6.29294e-05
3.68467e-05
6.14285e-05
4.83946e-05
5.94786e-05
6.56546e-05
5.67381e-05
9.11674e-05
5.31956e-05
0.000132447
4.80752e-05
0.000191952
4.0941e-05
0.000313401
2.86714e-05
0.000431845
0.000738664
6.81689e-05
6.54159e-07
6.81162e-05
1.76679e-06
6.80336e-05
2.70741e-06
6.7921e-05
3.70796e-06
6.77743e-05
4.81938e-06
6.75895e-05
6.11278e-06
6.73589e-05
7.61462e-06
6.70695e-05
9.62534e-06
6.66815e-05
1.20187e-05
6.62432e-05
1.50218e-05
6.56762e-05
1.85764e-05
6.49662e-05
2.33803e-05
6.40672e-05
2.97377e-05
6.29336e-05
3.79767e-05
6.14376e-05
4.98913e-05
5.94965e-05
6.7594e-05
5.67697e-05
9.38938e-05
5.3257e-05
0.00013596
4.8195e-05
0.000197014
4.13158e-05
0.00032028
2.92073e-05
0.000443954
0.000767871
6.81689e-05
6.7391e-07
6.81163e-05
1.81996e-06
6.80337e-05
2.78949e-06
6.79213e-05
3.8199e-06
6.77748e-05
4.96484e-06
6.759e-05
6.29753e-06
6.73596e-05
7.84474e-06
6.70699e-05
9.91556e-06
6.66815e-05
1.24064e-05
6.62446e-05
1.54587e-05
6.56769e-05
1.9144e-05
6.49673e-05
2.40897e-05
6.40693e-05
3.06318e-05
6.29381e-05
3.91108e-05
6.14472e-05
5.13818e-05
5.95157e-05
6.95269e-05
5.68039e-05
9.66061e-05
5.33213e-05
0.000139443
4.83177e-05
0.000202018
4.17038e-05
0.000326894
2.97642e-05
0.000455893
0.000797635
6.81689e-05
6.93622e-07
6.81163e-05
1.87312e-06
6.80336e-05
2.87179e-06
6.7921e-05
3.93238e-06
6.77744e-05
5.1108e-06
6.75896e-05
6.48222e-06
6.73594e-05
8.07481e-06
6.70696e-05
1.02058e-05
6.66816e-05
1.27938e-05
6.62459e-05
1.58946e-05
6.56778e-05
1.97122e-05
6.49684e-05
2.47992e-05
6.40715e-05
3.15329e-05
6.2943e-05
4.02356e-05
6.14575e-05
5.28679e-05
5.95361e-05
7.14466e-05
5.68406e-05
9.93012e-05
5.33886e-05
0.000142894
4.84434e-05
0.000206962
4.21048e-05
0.000333232
3.03421e-05
0.000467656
0.000827977
6.81689e-05
7.13361e-07
6.81163e-05
1.92625e-06
6.80337e-05
2.95388e-06
6.79214e-05
4.04428e-06
6.77749e-05
5.25618e-06
6.75902e-05
6.66692e-06
6.73601e-05
8.30458e-06
6.70698e-05
1.04967e-05
6.66822e-05
1.31808e-05
6.62472e-05
1.63295e-05
6.56787e-05
2.02807e-05
6.49696e-05
2.55079e-05
6.40739e-05
3.24247e-05
6.29482e-05
4.13643e-05
6.14683e-05
5.43475e-05
5.95576e-05
7.33586e-05
5.68798e-05
0.000101979
5.34592e-05
0.000146315
4.85724e-05
0.00021185
4.25186e-05
0.000339286
3.09411e-05
0.000479234
0.000858918
6.81689e-05
7.33062e-07
6.81163e-05
1.97937e-06
6.80336e-05
3.03619e-06
6.79211e-05
4.15675e-06
6.77745e-05
5.40207e-06
6.75897e-05
6.85158e-06
6.73599e-05
8.53424e-06
6.70667e-05
1.07905e-05
6.66846e-05
1.35624e-05
6.62485e-05
1.67658e-05
6.56796e-05
2.08496e-05
6.4971e-05
2.62167e-05
6.40765e-05
3.33235e-05
6.29537e-05
4.24834e-05
6.14796e-05
5.58221e-05
5.95804e-05
7.52562e-05
5.69215e-05
0.000104638
5.35332e-05
0.000149703
4.87052e-05
0.000216677
4.29453e-05
0.000345046
3.15616e-05
0.000490617
0.00089048
6.81689e-05
7.52792e-07
6.81163e-05
2.03246e-06
6.80338e-05
3.11828e-06
6.79215e-05
4.26861e-06
6.77751e-05
5.54736e-06
6.75904e-05
7.03623e-06
6.73607e-05
8.7637e-06
6.70583e-05
1.10934e-05
6.66935e-05
1.3927e-05
6.62497e-05
1.72095e-05
6.56806e-05
2.14185e-05
6.49724e-05
2.69247e-05
6.40792e-05
3.42127e-05
6.29594e-05
4.36063e-05
6.14915e-05
5.72898e-05
5.96042e-05
7.71448e-05
5.69656e-05
0.000107277
5.36109e-05
0.000153058
4.88422e-05
0.000221446
4.33853e-05
0.000350503
3.22042e-05
0.000501798
0.000922684
6.81689e-05
7.72481e-07
6.81163e-05
2.08554e-06
6.80336e-05
3.20061e-06
6.79211e-05
4.38107e-06
6.77746e-05
5.6932e-06
6.759e-05
7.22076e-06
6.73602e-05
8.99331e-06
6.70517e-05
1.14023e-05
6.67006e-05
1.4278e-05
6.62508e-05
1.76595e-05
6.56817e-05
2.19877e-05
6.49739e-05
2.76326e-05
6.40821e-05
3.51089e-05
6.29654e-05
4.47192e-05
6.15038e-05
5.87519e-05
5.96292e-05
7.90177e-05
5.70121e-05
0.000109894
5.36925e-05
0.000156377
4.89836e-05
0.000226155
4.3839e-05
0.000355648
3.28695e-05
0.000512768
0.000955554
6.81689e-05
7.922e-07
6.81163e-05
2.13859e-06
6.80338e-05
3.2827e-06
6.79216e-05
4.49288e-06
6.77752e-05
5.83843e-06
6.75907e-05
7.40522e-06
6.73608e-05
9.22292e-06
6.705e-05
1.17136e-05
6.67035e-05
1.46245e-05
6.62518e-05
1.8111e-05
6.56828e-05
2.25567e-05
6.49755e-05
2.83396e-05
6.40851e-05
3.59952e-05
6.29717e-05
4.58359e-05
6.15167e-05
6.02067e-05
5.96552e-05
8.08807e-05
5.70608e-05
0.000112489
5.37782e-05
0.000159661
4.91295e-05
0.000230804
4.43064e-05
0.000360471
3.35579e-05
0.000523516
0.000989112
6.81689e-05
8.11885e-07
6.81163e-05
2.19164e-06
6.80337e-05
3.36501e-06
6.79212e-05
4.60528e-06
6.77748e-05
5.98422e-06
6.75904e-05
7.58949e-06
6.73591e-05
9.454e-06
6.70499e-05
1.20232e-05
6.67046e-05
1.49697e-05
6.62528e-05
1.8563e-05
6.56839e-05
2.31256e-05
6.49771e-05
2.90465e-05
6.40882e-05
3.68894e-05
6.29783e-05
4.69415e-05
6.153e-05
6.16554e-05
5.96823e-05
8.27266e-05
5.71116e-05
0.000115059
5.38684e-05
0.000162903
4.92797e-05
0.000235392
4.47859e-05
0.000364965
3.42689e-05
0.000534033
0.00102338
6.81689e-05
8.31592e-07
6.81163e-05
2.24465e-06
6.80338e-05
3.44713e-06
6.79216e-05
4.71708e-06
6.77752e-05
6.12952e-06
6.75912e-05
7.77345e-06
6.73507e-05
9.69422e-06
6.7056e-05
1.23181e-05
6.67052e-05
1.53204e-05
6.62536e-05
1.90145e-05
6.5685e-05
2.36941e-05
6.49789e-05
2.97523e-05
6.40914e-05
3.77722e-05
6.2985e-05
4.80516e-05
6.15439e-05
6.30963e-05
5.97103e-05
8.45619e-05
5.71644e-05
0.000117605
5.39636e-05
0.000166104
4.94336e-05
0.000239922
4.52731e-05
0.000369126
3.49993e-05
0.000544307
0.00105838
6.81689e-05
8.51258e-07
6.81163e-05
2.29763e-06
6.80337e-05
3.52946e-06
6.79213e-05
4.82946e-06
6.77748e-05
6.27543e-06
6.7591e-05
7.95715e-06
6.73428e-05
9.94218e-06
6.70613e-05
1.25997e-05
6.67055e-05
1.56762e-05
6.62543e-05
1.94659e-05
6.56861e-05
2.42624e-05
6.49806e-05
3.0458e-05
6.40948e-05
3.86634e-05
6.2992e-05
4.91501e-05
6.15582e-05
6.45306e-05
5.97392e-05
8.6379e-05
5.7219e-05
0.000120125
5.4064e-05
0.000169259
4.9591e-05
0.000244395
4.57584e-05
0.000372958
3.57413e-05
0.000554324
0.00109412
6.81688e-05
8.70924e-07
6.81163e-05
2.35061e-06
6.80338e-05
3.61152e-06
6.79217e-05
4.94111e-06
6.77754e-05
6.42053e-06
6.75917e-05
8.14069e-06
6.73409e-05
1.01927e-05
6.70627e-05
1.28779e-05
6.67057e-05
1.60332e-05
6.62549e-05
1.99166e-05
6.56872e-05
2.48299e-05
6.49824e-05
3.11626e-05
6.40981e-05
3.95431e-05
6.29992e-05
5.02526e-05
6.15729e-05
6.59567e-05
5.97691e-05
8.81844e-05
5.72749e-05
0.00012262
5.41709e-05
0.000172363
4.9751e-05
0.000248815
4.62388e-05
0.00037647
3.65742e-05
0.000563989
0.0011307
-4.46876e-06
4.46894e-06
-8.44907e-06
3.98033e-06
-9.27802e-06
8.2898e-07
-7.36548e-06
-1.91239e-06
-5.31163e-06
-2.05317e-06
-4.1123e-06
-1.19942e-06
-3.54718e-06
-5.65097e-07
-3.33522e-06
-2.12569e-07
-3.14518e-06
-1.91626e-07
-3.13617e-06
-1.30657e-08
-3.30459e-06
1.12377e-07
-3.16337e-06
-1.00729e-07
-2.26147e-06
-9.03037e-07
-3.20517e-07
-1.92462e-06
2.61011e-06
-2.91961e-06
6.15373e-06
-3.53958e-06
1.00874e-05
-3.93725e-06
1.42154e-05
-4.12991e-06
1.82349e-05
-4.02619e-06
2.19528e-05
-3.7143e-06
2.54004e-05
-3.44674e-06
2.86561e-05
-3.25668e-06
3.17865e-05
-3.13037e-06
3.4896e-05
-3.10966e-06
3.81327e-05
-3.23764e-06
4.1068e-05
-2.93345e-06
4.55642e-05
-4.49173e-06
5.60231e-05
-1.04653e-05
6.51614e-05
-9.14279e-06
6.69338e-05
-1.76855e-06
6.7066e-05
-1.32298e-07
6.71874e-05
-1.21297e-07
6.73427e-05
-1.55397e-07
6.74799e-05
-1.37167e-07
-6.68937e-08
-4.38347e-06
8.85279e-06
-8.33989e-06
7.93683e-06
-9.18102e-06
1.67017e-06
-7.28871e-06
-3.8044e-06
-5.24952e-06
-4.09112e-06
-4.05794e-06
-2.39116e-06
-3.48709e-06
-1.13595e-06
-3.26076e-06
-4.40102e-07
-3.04187e-06
-4.13559e-07
-3.01265e-06
-5.04393e-08
-3.2075e-06
2.14779e-07
-3.15981e-06
-8.52046e-08
-2.41486e-06
-1.64972e-06
-5.22497e-07
-3.7842e-06
2.51462e-06
-5.93449e-06
6.18184e-06
-7.19843e-06
1.01236e-05
-7.8863e-06
1.41742e-05
-8.1844e-06
1.81128e-05
-7.97779e-06
2.1803e-05
-7.39752e-06
2.52595e-05
-6.90145e-06
2.85416e-05
-6.54068e-06
3.16915e-05
-6.28017e-06
3.48023e-05
-6.22075e-06
3.80246e-05
-6.46178e-06
4.09567e-05
-5.86192e-06
4.51179e-05
-8.64482e-06
5.54289e-05
-2.07883e-05
6.49719e-05
-1.8694e-05
6.6933e-05
-3.72242e-06
6.70739e-05
-2.73469e-07
6.71898e-05
-2.37038e-07
6.73438e-05
-3.09462e-07
6.74808e-05
-2.74126e-07
-1.33787e-07
-4.29235e-06
1.31454e-05
-8.21848e-06
1.1863e-05
-9.05484e-06
2.50659e-06
-7.1656e-06
-5.69337e-06
-5.14169e-06
-6.11382e-06
-3.95878e-06
-3.57425e-06
-3.38379e-06
-1.71091e-06
-3.14054e-06
-6.84414e-07
-2.89564e-06
-6.61234e-07
-2.87277e-06
-8.04452e-08
-3.12648e-06
3.73245e-07
-3.19579e-06
5.17841e-08
-2.56634e-06
-2.2815e-06
-6.58904e-07
-5.65843e-06
2.50647e-06
-9.07638e-06
6.27254e-06
-1.09551e-05
1.01988e-05
-1.18206e-05
1.41589e-05
-1.21485e-05
1.80163e-05
-1.18488e-05
2.16815e-05
-1.10556e-05
2.51549e-05
-1.03733e-05
2.84639e-05
-9.85156e-06
3.16331e-05
-9.44936e-06
3.47456e-05
-9.33348e-06
3.79524e-05
-9.67044e-06
4.08825e-05
-8.78848e-06
4.47635e-05
-1.25175e-05
5.49233e-05
-3.09594e-05
6.47946e-05
-2.85733e-05
6.69318e-05
-5.85267e-06
6.70818e-05
-4.23697e-07
6.71926e-05
-3.47658e-07
6.73452e-05
-4.62125e-07
6.74819e-05
-4.10814e-07
-2.00619e-07
-4.18917e-06
1.7335e-05
-8.07904e-06
1.57529e-05
-8.89231e-06
3.31992e-06
-6.99028e-06
-7.59505e-06
-4.98584e-06
-8.11704e-06
-3.82043e-06
-4.73982e-06
-3.24794e-06
-2.28344e-06
-2.99313e-06
-9.40428e-07
-2.73009e-06
-9.27321e-07
-2.71955e-06
-9.92922e-08
-3.03328e-06
6.0179e-07
-3.21503e-06
2.88854e-07
-2.6836e-06
-2.81469e-06
-7.43078e-07
-7.55919e-06
2.55926e-06
-1.235e-05
6.42719e-06
-1.48108e-05
1.03295e-05
-1.57335e-05
1.41852e-05
-1.60096e-05
1.79527e-05
-1.56325e-05
2.15928e-05
-1.46875e-05
2.50858e-05
-1.38642e-05
2.84233e-05
-1.31912e-05
3.16125e-05
-1.26385e-05
3.47271e-05
-1.24484e-05
3.79178e-05
-1.28631e-05
4.08453e-05
-1.17121e-05
4.44994e-05
-1.61631e-05
5.45059e-05
-4.09776e-05
6.46292e-05
-3.87047e-05
6.69297e-05
-8.14589e-06
6.70896e-05
-5.83827e-07
6.71955e-05
-4.5342e-07
6.73467e-05
-6.13362e-07
6.7483e-05
-5.47141e-07
-2.67329e-07
-4.07356e-06
2.14088e-05
-7.91937e-06
1.95988e-05
-8.6877e-06
4.08831e-06
-6.75899e-06
-9.52348e-06
-4.78182e-06
-1.0093e-05
-3.6442e-06
-5.87763e-06
-3.0816e-06
-2.84602e-06
-2.81971e-06
-1.20336e-06
-2.54502e-06
-1.20472e-06
-2.54927e-06
-1.01944e-07
-2.92145e-06
8.92781e-07
-3.21017e-06
6.32133e-07
-2.75745e-06
-3.27004e-06
-7.59491e-07
-9.5178e-06
2.69919e-06
-1.5779e-05
6.67908e-06
-1.87766e-05
1.05466e-05
-1.96139e-05
1.42736e-05
-1.97425e-05
1.79334e-05
-1.93109e-05
2.15437e-05
-1.82888e-05
2.50571e-05
-1.73758e-05
2.84247e-05
-1.65611e-05
3.16345e-05
-1.58483e-05
3.47515e-05
-1.55657e-05
3.79245e-05
-1.60382e-05
4.08476e-05
-1.4631e-05
4.43186e-05
-1.96252e-05
5.41671e-05
-5.08371e-05
6.44745e-05
-4.902e-05
6.69267e-05
-1.05912e-05
6.70973e-05
-7.54605e-07
6.71987e-05
-5.5466e-07
6.73484e-05
-7.63129e-07
6.74843e-05
-6.83015e-07
-3.33858e-07
-3.94494e-06
2.53541e-05
-7.7366e-06
2.33905e-05
-8.43413e-06
4.78592e-06
-6.46641e-06
-1.14908e-05
-4.52799e-06
-1.20302e-05
-3.42958e-06
-6.97621e-06
-2.88462e-06
-3.39106e-06
-2.61923e-06
-1.47004e-06
-2.33807e-06
-1.48907e-06
-2.35759e-06
-9.12539e-08
-2.78465e-06
1.24497e-06
-3.17227e-06
1.06327e-06
-2.7765e-06
-3.66761e-06
-6.91286e-07
-1.15549e-05
2.9562e-06
-1.93903e-05
7.07147e-06
-2.28736e-05
1.08952e-05
-2.34553e-05
1.44573e-05
-2.33134e-05
1.79797e-05
-2.28568e-05
2.15475e-05
-2.18457e-05
2.50786e-05
-2.09044e-05
2.8477e-05
-1.99622e-05
3.17084e-05
-1.90797e-05
3.48274e-05
-1.86851e-05
3.79796e-05
-1.91928e-05
4.08945e-05
-1.75411e-05
4.42137e-05
-2.29348e-05
5.38954e-05
-6.05308e-05
6.43296e-05
-5.94627e-05
6.69229e-05
-1.31769e-05
6.71049e-05
-9.36878e-07
6.72021e-05
-6.51694e-07
6.73503e-05
-9.11408e-07
6.74857e-05
-8.18343e-07
-4.00146e-07
-3.80258e-06
2.9157e-05
-7.52715e-06
2.71151e-05
-8.12314e-06
5.38198e-06
-6.10544e-06
-1.35082e-05
-4.22111e-06
-1.39133e-05
-3.17399e-06
-8.02356e-06
-2.65455e-06
-3.91048e-06
-2.38843e-06
-1.73731e-06
-2.10458e-06
-1.77568e-06
-2.13857e-06
-6.46973e-08
-2.61539e-06
1.65317e-06
-3.09143e-06
1.58014e-06
-2.73004e-06
-4.03219e-06
-5.24512e-07
-1.37128e-05
3.35687e-06
-2.32359e-05
7.65176e-06
-2.71489e-05
1.14343e-05
-2.72583e-05
1.47847e-05
-2.66741e-05
1.81233e-05
-2.62232e-05
2.16248e-05
-2.53347e-05
2.51658e-05
-2.44433e-05
2.85951e-05
-2.33946e-05
3.18493e-05
-2.2334e-05
3.49695e-05
-2.18056e-05
3.80951e-05
-2.2321e-05
4.09947e-05
-2.04355e-05
4.41815e-05
-2.61112e-05
5.36822e-05
-7.00433e-05
6.41935e-05
-6.99823e-05
6.69181e-05
-1.58944e-05
6.71124e-05
-1.13131e-06
6.72058e-05
-7.4493e-07
6.73525e-05
-1.05815e-06
6.74872e-05
-9.53031e-07
-4.66131e-07
-3.64558e-06
3.28029e-05
-7.28666e-06
3.07563e-05
-7.74551e-06
5.84093e-06
-5.66882e-06
-1.55844e-05
-3.8575e-06
-1.57234e-05
-2.8735e-06
-9.00774e-06
-2.3873e-06
-4.39679e-06
-2.12224e-06
-2.00386e-06
-1.83801e-06
-2.06345e-06
-1.88429e-06
-2.85465e-08
-2.40421e-06
2.10563e-06
-2.95629e-06
2.16453e-06
-2.60568e-06
-4.38474e-06
-2.44147e-07
-1.60142e-05
3.92118e-06
-2.73568e-05
8.45817e-06
-3.16619e-05
1.2229e-05
-3.10561e-05
1.53213e-05
-2.97814e-05
1.84091e-05
-2.93476e-05
2.18058e-05
-2.87159e-05