/*--------------------------------*- C++ -*----------------------------------*\
| =========                 |                                                 |
| \\      /  F ield         | OpenFOAM: The Open Source CFD Toolbox           |
|  \\    /   O peration     | Version:  v1912                                 |
|   \\  /    A nd           | Website:  www.openfoam.com                      |
|    \\/     M anipulation  |                                                 |
\*---------------------------------------------------------------------------*/
FoamFile
{
    version     2.0;
    format      ascii;
    class       volVectorField;
    location    "280";
    object      U;
}
// * * * * * * * * * * * * * * * * * * * * * * * * * * * * * * * * * * * * * //

dimensions      [0 1 -1 0 0 0 0];


internalField   nonuniform List<vector> 
12441
(
(29.9989 1.66533e-05 0)
(29.9858 5.05475e-05 0)
(29.9573 8.74094e-05 0)
(29.914 0.000134651 0)
(29.8571 0.000196951 0)
(29.7845 0.000280272 0)
(29.6942 0.000391915 0)
(29.5806 0.000557094 0)
(29.4387 0.000771395 0)
(29.2637 0.00108674 0)
(29.0402 0.00149247 0)
(28.7787 0.00216916 0)
(28.409 0.00301834 0)
(28.0052 0.00444222 0)
(27.4102 0.00629712 0)
(26.6351 0.0110942 0)
(25.6038 0.014762 0)
(23.9688 0.0308902 0)
(21.665 0.0521509 0)
(18.0205 0.0908617 0)
(12.2423 0.12284 0)
(5.88521 0.198801 0)
(29.9989 4.9498e-05 0)
(29.9857 0.000151042 0)
(29.9573 0.000260505 0)
(29.9139 0.000401645 0)
(29.8572 0.000587634 0)
(29.7844 0.000836318 0)
(29.6942 0.0011713 0)
(29.5806 0.00166688 0)
(29.4387 0.00230635 0)
(29.2638 0.00325135 0)
(29.04 0.00445762 0)
(28.7795 0.00651423 0)
(28.4095 0.0090168 0)
(28.0049 0.0133575 0)
(27.4065 0.0189746 0)
(26.633 0.0331221 0)
(25.6016 0.0469743 0)
(23.9678 0.0885418 0)
(21.665 0.136125 0)
(18.0184 0.26291 0)
(12.2428 0.360923 0)
(5.88849 0.593656 0)
(29.9989 8.22341e-05 0)
(29.9857 0.000251623 0)
(29.9573 0.000433011 0)
(29.9139 0.000667457 0)
(29.8571 0.000976719 0)
(29.7844 0.00139172 0)
(29.6942 0.00194878 0)
(29.5806 0.00277478 0)
(29.4387 0.00383951 0)
(29.2638 0.00541313 0)
(29.0397 0.0074228 0)
(28.7806 0.0108433 0)
(28.4069 0.0150251 0)
(28.0089 0.0222724 0)
(27.4081 0.0317036 0)
(26.6372 0.0542971 0)
(25.6052 0.0798757 0)
(23.9723 0.144365 0)
(21.6678 0.217613 0)
(18.0175 0.432643 0)
(12.2482 0.595536 0)
(5.89622 0.986502 0)
(29.9989 0.000115389 0)
(29.9857 0.000352891 0)
(29.9573 0.000606311 0)
(29.9139 0.000934492 0)
(29.8572 0.00136751 0)
(29.7845 0.00194906 0)
(29.6943 0.00272894 0)
(29.5807 0.00388622 0)
(29.4388 0.0053763 0)
(29.2639 0.00758041 0)
(29.0401 0.0103932 0)
(28.7797 0.01518 0)
(28.4101 0.0210546 0)
(28.0043 0.0311994 0)
(27.4077 0.0444474 0)
(26.6347 0.0755289 0)
(25.6044 0.112047 0)
(23.9759 0.203211 0)
(21.6758 0.323839 0)
(18.0214 0.610381 0)
(12.2599 0.834118 0)
(5.90873 1.38101 0)
(29.9989 0.000148602 0)
(29.9857 0.000454019 0)
(29.9573 0.000779411 0)
(29.9139 0.00120132 0)
(29.8571 0.00175797 0)
(29.7845 0.00250587 0)
(29.6942 0.00350849 0)
(29.5806 0.0049967 0)
(29.4387 0.00691194 0)
(29.2639 0.00974669 0)
(29.0398 0.0133615 0)
(28.7807 0.019517 0)
(28.4066 0.0270975 0)
(28.0085 0.040119 0)
(27.4083 0.0572225 0)
(26.6375 0.0965386 0)
(25.6088 0.143714 0)
(23.9811 0.262811 0)
(21.6865 0.412856 0)
(18.0312 0.7843 0)
(12.2794 1.07246 0)
(5.92632 1.7768 0)
(29.9989 0.000181809 0)
(29.9857 0.000555063 0)
(29.9573 0.000952481 0)
(29.914 0.00146816 0)
(29.8572 0.00214838 0)
(29.7845 0.00306269 0)
(29.6943 0.0042881 0)
(29.5807 0.00610723 0)
(29.4389 0.00844784 0)
(29.264 0.0119126 0)
(29.0404 0.0163322 0)
(28.7797 0.0238501 0)
(28.4115 0.0331461 0)
(28.0036 0.0490238 0)
(27.4094 0.0700024 0)
(26.6364 0.117426 0)
(25.6091 0.175117 0)
(23.9843 0.321847 0)
(21.6986 0.500311 0)
(18.0475 0.956912 0)
(12.3082 1.31048 0)
(5.94933 2.17368 0)
(29.9989 0.00021501 0)
(29.9857 0.000656055 0)
(29.9573 0.00112554 0)
(29.9139 0.00173502 0)
(29.8572 0.00253877 0)
(29.7845 0.0036195 0)
(29.6943 0.00506773 0)
(29.5807 0.00721765 0)
(29.4388 0.00998362 0)
(29.264 0.014079 0)
(29.0401 0.0193024 0)
(28.7807 0.0281869 0)
(28.4068 0.0391967 0)
(28.0089 0.0579143 0)
(27.41 0.0827771 0)
(26.6392 0.138175 0)
(25.6143 0.205857 0)
(23.9897 0.378435 0)
(21.7151 0.589939 0)
(18.0729 1.12963 0)
(12.3484 1.54857 0)
(5.97826 2.57195 0)
(29.9989 0.000248208 0)
(29.9857 0.000757003 0)
(29.9573 0.00129859 0)
(29.914 0.00200185 0)
(29.8572 0.00292907 0)
(29.7846 0.00417624 0)
(29.6944 0.0058473 0)
(29.5808 0.00832792 0)
(29.439 0.0115195 0)
(29.2641 0.0162444 0)
(29.0408 0.0222751 0)
(28.7796 0.0325155 0)
(28.4135 0.0452478 0)
(28.0035 0.0667634 0)
(27.4117 0.0954155 0)
(26.6374 0.15855 0)
(25.617 0.238131 0)
(23.9944 0.43704 0)
(21.7418 0.680702 0)
(18.1129 1.30185 0)
(12.4029 1.78693 0)
(6.01366 2.97207 0)
(29.9989 0.000281401 0)
(29.9857 0.000857906 0)
(29.9573 0.00147161 0)
(29.914 0.00226869 0)
(29.8572 0.00331934 0)
(29.7845 0.00473296 0)
(29.6943 0.00662688 0)
(29.5808 0.00943812 0)
(29.439 0.0130551 0)
(29.2642 0.0184103 0)
(29.0405 0.0252468 0)
(28.7806 0.0368527 0)
(28.407 0.0513041 0)
(28.0076 0.0757124 0)
(27.416 0.10816 0)
(26.6398 0.179423 0)
(25.624 0.268926 0)
(24.0026 0.495137 0)
(21.7875 0.771165 0)
(18.1738 1.47319 0)
(12.4748 2.02579 0)
(6.05615 3.37455 0)
(29.9989 0.000314592 0)
(29.9857 0.000958766 0)
(29.9573 0.00164463 0)
(29.914 0.0025355 0)
(29.8573 0.00370952 0)
(29.7846 0.00528961 0)
(29.6945 0.0074064 0)
(29.5809 0.0105481 0)
(29.4391 0.0145908 0)
(29.2642 0.020575 0)
(29.0413 0.0282214 0)
(28.7793 0.0411739 0)
(28.4173 0.0573897 0)
(28.0026 0.0843758 0)
(27.4223 0.121518 0)
(26.6402 0.200661 0)
(25.6323 0.30022 0)
(24.0183 0.551383 0)
(21.8531 0.861256 0)
(18.2574 1.64382 0)
(12.5662 2.26549 0)
(6.10636 3.77992 0)
(29.9989 0.000347778 0)
(29.9857 0.00105958 0)
(29.9573 0.00181763 0)
(29.914 0.00280233 0)
(29.8572 0.00409966 0)
(29.7846 0.00584624 0)
(29.6944 0.0081859 0)
(29.5809 0.011658 0)
(29.4391 0.0161266 0)
(29.2642 0.0227392 0)
(29.0411 0.031199 0)
(28.7798 0.0454946 0)
(28.4097 0.0635454 0)
(27.998 0.093034 0)
(27.4243 0.134108 0)
(26.6394 0.220817 0)
(25.6429 0.332597 0)
(24.0453 0.606994 0)
(21.9283 0.951072 0)
(18.3586 1.81363 0)
(12.6774 2.50628 0)
(6.16486 4.1888 0)
(29.9989 0.000380959 0)
(29.9857 0.00116035 0)
(29.9573 0.00199064 0)
(29.914 0.00306912 0)
(29.8573 0.00448972 0)
(29.7847 0.00640279 0)
(29.6945 0.00896534 0)
(29.581 0.0127677 0)
(29.4393 0.0176626 0)
(29.2643 0.024901 0)
(29.0421 0.0341843 0)
(28.7777 0.0497912 0)
(28.4226 0.069728 0)
(27.9918 0.101958 0)
(27.4238 0.147544 0)
(26.6377 0.241319 0)
(25.6532 0.364941 0)
(24.0766 0.661069 0)
(21.9995 1.03993 0)
(18.4678 1.98214 0)
(12.8066 2.74826 0)
(6.23212 4.60178 0)
(29.9989 0.000414133 0)
(29.9857 0.00126108 0)
(29.9573 0.00216365 0)
(29.914 0.00333592 0)
(29.8572 0.00487976 0)
(29.7846 0.00695933 0)
(29.6944 0.00974475 0)
(29.581 0.0138771 0)
(29.4393 0.0191991 0)
(29.2642 0.0270603 0)
(29.0424 0.0371765 0)
(28.7772 0.0541125 0)
(28.4205 0.0758958 0)
(27.9871 0.11103 0)
(27.4224 0.161284 0)
(26.6375 0.261494 0)
(25.6617 0.396871 0)
(24.1045 0.71336 0)
(22.0596 1.12749 0)
(18.576 2.14882 0)
(12.9507 2.99129 0)
(6.30833 5.01942 0)
(29.9989 0.000447301 0)
(29.9857 0.00136177 0)
(29.9573 0.00233667 0)
(29.914 0.00360269 0)
(29.8573 0.00526972 0)
(29.7847 0.00751578 0)
(29.6946 0.0105241 0)
(29.5811 0.0149863 0)
(29.4395 0.0207358 0)
(29.2642 0.0292181 0)
(29.0435 0.0401941 0)
(28.7752 0.0584154 0)
(28.4317 0.0824434 0)
(27.9842 0.12022 0)
(27.4211 0.174671 0)
(26.6376 0.281093 0)
(25.6676 0.428316 0)
(24.1261 0.764219 0)
(22.1083 1.21379 0)
(18.6776 2.31334 0)
(13.1057 3.23508 0)
(6.39348 5.44222 0)
(29.9989 0.00048046 0)
(29.9857 0.00146241 0)
(29.9573 0.00250971 0)
(29.914 0.00386948 0)
(29.8573 0.00565965 0)
(29.7847 0.00807221 0)
(29.6945 0.0113034 0)
(29.5811 0.0160951 0)
(29.4395 0.0222739 0)
(29.2641 0.0313695 0)
(29.0439 0.0432498 0)
(28.7736 0.0625735 0)
(28.4302 0.0888356 0)
(27.9814 0.129189 0)
(27.4201 0.187943 0)
(26.638 0.300476 0)
(25.6713 0.459506 0)
(24.1418 0.814103 0)
(22.1476 1.29894 0)
(18.7703 2.47548 0)
(13.2681 3.47926 0)
(6.4873 5.87057 0)
(29.9989 0.000513611 0)
(29.9857 0.00156301 0)
(29.9574 0.00268276 0)
(29.914 0.00413623 0)
(29.8574 0.00604951 0)
(29.7848 0.00862855 0)
(29.6947 0.0120826 0)
(29.5812 0.0172036 0)
(29.4397 0.0238112 0)
(29.2643 0.0335233 0)
(29.0445 0.0463227 0)
(28.7722 0.06687 0)
(28.4292 0.0951577 0)
(27.9789 0.138028 0)
(27.4194 0.201125 0)
(26.6383 0.319809 0)
(25.6733 0.490571 0)
(24.1529 0.863348 0)
(22.1802 1.38304 0)
(18.8538 2.63512 0)
(13.4349 3.72345 0)
(6.58938 6.30481 0)
(29.9989 0.000546752 0)
(29.9857 0.00166357 0)
(29.9573 0.00285583 0)
(29.914 0.00440299 0)
(29.8573 0.00643934 0)
(29.7847 0.00918488 0)
(29.6946 0.0128618 0)
(29.5811 0.0183119 0)
(29.4398 0.0253496 0)
(29.2641 0.0356712 0)
(29.0448 0.0494738 0)
(28.7703 0.0711968 0)
(28.4264 0.101405 0)
(27.9773 0.14682 0)
(27.4188 0.214307 0)
(26.6387 0.339127 0)
(25.6742 0.521557 0)
(24.1609 0.91214 0)
(22.2081 1.46618 0)
(18.9291 2.79216 0)
(13.6039 3.96728 0)
(6.69925 6.74519 0)
(29.9989 0.000579884 0)
(29.9857 0.00176408 0)
(29.9574 0.00302892 0)
(29.9141 0.00466972 0)
(29.8574 0.00682912 0)
(29.7848 0.0097411 0)
(29.6947 0.0136409 0)
(29.5813 0.0194195 0)
(29.44 0.0268885 0)
(29.2643 0.0378125 0)
(29.0455 0.0526541 0)
(28.7688 0.07558 0)
(28.4248 0.107554 0)
(27.9762 0.155605 0)
(27.4184 0.227496 0)
(26.639 0.35845 0)
(25.6744 0.552489 0)
(24.1667 0.960584 0)
(22.233 1.54841 0)
(18.9974 2.94655 0)
(13.7739 4.21042 0)
(6.81639 7.19193 0)
(29.9989 0.000613005 0)
(29.9857 0.00186455 0)
(29.9574 0.00320204 0)
(29.914 0.00493645 0)
(29.8573 0.00721887 0)
(29.7848 0.0102973 0)
(29.6946 0.01442 0)
(29.5813 0.0205271 0)
(29.44 0.0284269 0)
(29.2643 0.0399652 0)
(29.0457 0.0558233 0)
(28.7675 0.0798564 0)
(28.4234 0.113708 0)
(27.9755 0.164386 0)
(27.4181 0.240693 0)
(26.6394 0.377773 0)
(25.6742 0.583378 0)
(24.1714 1.00873 0)
(22.2565 1.62977 0)
(19.0602 3.09825 0)
(13.9443 4.45258 0)
(6.94033 7.64522 0)
(29.9989 0.000646116 0)
(29.9857 0.00196498 0)
(29.9574 0.00337518 0)
(29.9141 0.00520316 0)
(29.8574 0.00760856 0)
(29.7849 0.0108534 0)
(29.6948 0.015199 0)
(29.5814 0.0216344 0)
(29.4402 0.0299664 0)
(29.2646 0.0421264 0)
(29.0461 0.0590574 0)
(28.7666 0.0840577 0)
(28.4226 0.119845 0)
(27.9751 0.173182 0)
(27.418 0.253891 0)
(26.6399 0.397105 0)
(25.6739 0.614236 0)
(24.1754 1.05662 0)
(22.2794 1.7103 0)
(19.119 3.24725 0)
(14.115 4.69351 0)
(7.07069 8.10522 0)
(29.9989 0.000679215 0)
(29.9858 0.00206536 0)
(29.9574 0.00354835 0)
(29.914 0.00546987 0)
(29.8573 0.00799822 0)
(29.7848 0.0114094 0)
(29.6947 0.0159779 0)
(29.5814 0.0227411 0)
(29.4402 0.0315061 0)
(29.2647 0.0443034 0)
(29.0456 0.0622972 0)
(28.766 0.0882584 0)
(28.422 0.126003 0)
(27.9749 0.181979 0)
(27.4179 0.267087 0)
(26.6405 0.416444 0)
(25.6736 0.645072 0)
(24.1794 1.10424 0)
(22.3025 1.79002 0)
(19.1751 3.39353 0)
(14.2863 4.933 0)
(7.20713 8.57208 0)
(29.9989 0.000712303 0)
(29.9858 0.0021657 0)
(29.9574 0.00372154 0)
(29.9141 0.00573654 0)
(29.8575 0.00838783 0)
(29.785 0.0119653 0)
(29.6949 0.0167567 0)
(29.5816 0.0238482 0)
(29.4404 0.0330415 0)
(29.2652 0.0465419 0)
(29.045 0.0654794 0)
(28.7656 0.0924777 0)
(28.4216 0.132162 0)
(27.9748 0.190783 0)
(27.418 0.280279 0)
(26.6413 0.435791 0)
(25.6738 0.675894 0)
(24.1839 1.15156 0)
(22.3265 1.86894 0)
(19.2295 3.53709 0)
(14.4589 5.17087 0)
(7.34945 9.04598 0)
(29.9989 0.00074538 0)
(29.9858 0.002266 0)
(29.9574 0.00389476 0)
(29.9141 0.00600323 0)
(29.8573 0.0087774 0)
(29.7849 0.0125212 0)
(29.6948 0.0175354 0)
(29.5815 0.024955 0)
(29.4404 0.0345763 0)
(29.2653 0.0488214 0)
(29.0443 0.0686252 0)
(28.7654 0.0967328 0)
(28.4214 0.138333 0)
(27.9748 0.199584 0)
(27.4182 0.293465 0)
(26.6423 0.455145 0)
(25.6746 0.706703 0)
(24.1891 1.19854 0)
(22.3515 1.94707 0)
(19.2833 3.67794 0)
(14.6335 5.40696 0)
(7.4975 9.52709 0)
(29.9989 0.000778445 0)
(29.9858 0.00236625 0)
(29.9574 0.00406801 0)
(29.9141 0.00626987 0)
(29.8575 0.00916692 0)
(29.785 0.013077 0)
(29.695 0.0183139 0)
(29.5817 0.0260618 0)
(29.4406 0.036108 0)
(29.2658 0.0511285 0)
(29.0438 0.0716766 0)
(28.7653 0.101013 0)
(28.4213 0.144502 0)
(27.975 0.208385 0)
(27.4186 0.306646 0)
(26.6437 0.474502 0)
(25.6762 0.737485 0)
(24.1951 1.24516 0)
(22.3777 2.02443 0)
(19.3372 3.81604 0)
(14.8114 5.64115 0)
(7.65128 10.0156 0)
(29.9989 0.000811497 0)
(29.9858 0.00246646 0)
(29.9574 0.00424129 0)
(29.9141 0.00653652 0)
(29.8573 0.0095564 0)
(29.7849 0.0136327 0)
(29.6948 0.0190922 0)
(29.5817 0.0271686 0)
(29.4406 0.0376374 0)
(29.2655 0.0534141 0)
(29.0435 0.0746599 0)
(28.7653 0.105309 0)
(28.4212 0.150677 0)
(27.9753 0.217181 0)
(27.4192 0.319818 0)
(26.6455 0.493852 0)
(25.6788 0.768215 0)
(24.2022 1.29139 0)
(22.4052 2.10103 0)
(19.392 3.95137 0)
(14.9935 5.87334 0)
(7.81083 10.5117 0)
(29.9989 0.000844538 0)
(29.9858 0.00256662 0)
(29.9574 0.00441459 0)
(29.9141 0.00680313 0)
(29.8575 0.00994585 0)
(29.7851 0.0141883 0)
(29.6951 0.0198707 0)
(29.5819 0.0282738 0)
(29.4409 0.0391817 0)
(29.2656 0.0556819 0)
(29.0434 0.0776132 0)
(28.7654 0.109614 0)
(28.4213 0.156848 0)
(27.9756 0.225974 0)
(27.42 0.332979 0)
(26.6477 0.513183 0)
(25.6825 0.798866 0)
(24.2104 1.33724 0)
(22.4339 2.17687 0)
(19.4482 4.08386 0)
(15.1812 6.10341 0)
(7.9763 11.0157 0)
(29.9989 0.000877566 0)
(29.9858 0.00266675 0)
(29.9574 0.00458792 0)
(29.9141 0.00706973 0)
(29.8574 0.0103352 0)
(29.785 0.0147438 0)
(29.6949 0.0206491 0)
(29.5818 0.0293802 0)
(29.4411 0.0407335 0)
(29.2649 0.0580444 0)
(29.0434 0.0805736 0)
(28.7655 0.113924 0)
(28.4214 0.163018 0)
(27.9761 0.234762 0)
(27.421 0.346123 0)
(26.6504 0.53248 0)
(25.6874 0.82942 0)
(24.2198 1.38272 0)
(22.4637 2.25194 0)
(19.5061 4.21342 0)
(15.3757 6.3313 0)
(8.14791 11.5278 0)
(29.9989 0.000910583 0)
(29.9858 0.00276683 0)
(29.9574 0.00476127 0)
(29.9142 0.0073363 0)
(29.8576 0.0107246 0)
(29.7852 0.0152991 0)
(29.6952 0.0214271 0)
(29.582 0.0304857 0)
(29.4415 0.0422949 0)
(29.2645 0.0603646 0)
(29.0434 0.0835588 0)
(28.7656 0.118237 0)
(28.4216 0.169185 0)
(27.9767 0.243542 0)
(27.4223 0.359244 0)
(26.6536 0.551729 0)
(25.6932 0.859873 0)
(24.2303 1.42784 0)
(22.4946 2.32624 0)
(19.5659 4.33992 0)
(15.5782 6.55692 0)
(8.32595 12.0484 0)
(29.9989 0.000943587 0)
(29.9858 0.00286687 0)
(29.9574 0.00493465 0)
(29.9141 0.00760285 0)
(29.8574 0.0111139 0)
(29.785 0.0158543 0)
(29.6951 0.0222057 0)
(29.5818 0.0315874 0)
(29.4417 0.0439074 0)
(29.2638 0.0625424 0)
(29.0435 0.0865715 0)
(28.7658 0.12255 0)
(28.4219 0.175349 0)
(27.9774 0.252313 0)
(27.4239 0.372336 0)
(26.6572 0.570918 0)
(25.7 0.890221 0)
(24.2421 1.4726 0)
(22.5264 2.39976 0)
(19.6276 4.46324 0)
(15.7896 6.78018 0)
(8.51074 12.5777 0)
(29.9989 0.00097658 0)
(29.9858 0.00296687 0)
(29.9574 0.00510805 0)
(29.9142 0.00786935 0)
(29.8576 0.0115032 0)
(29.7852 0.0164093 0)
(29.6953 0.0229841 0)
(29.5821 0.0326886 0)
(29.4421 0.0455409 0)
(29.2635 0.0646961 0)
(29.0437 0.0896052 0)
(28.766 0.126863 0)
(28.4222 0.181509 0)
(27.9782 0.261072 0)
(27.4257 0.385396 0)
(26.6614 0.59004 0)
(25.7077 0.920461 0)
(24.2553 1.517 0)
(22.5592 2.47248 0)
(19.6913 4.5832 0)
(16.0106 7.00101 0)
(8.70264 13.1162 0)
(29.9989 0.00100956 0)
(29.9858 0.00306682 0)
(29.9574 0.00528148 0)
(29.9141 0.00813585 0)
(29.8574 0.0118924 0)
(29.7851 0.0169642 0)
(29.6952 0.0237622 0)
(29.582 0.0337901 0)
(29.4421 0.0471813 0)
(29.2634 0.0668422 0)
(29.0439 0.0926515 0)
(28.7663 0.131176 0)
(28.4226 0.187665 0)
(27.9791 0.269818 0)
(27.4277 0.398418 0)
(26.666 0.609091 0)
(25.7163 0.950583 0)
(24.2697 1.56105 0)
(22.5929 2.5444 0)
(19.7567 4.69963 0)
(16.2418 7.21931 0)
(8.902 13.6642 0)
(29.9989 0.00104253 0)
(29.9858 0.00316673 0)
(29.9574 0.00545493 0)
(29.9142 0.00840231 0)
(29.8577 0.0122816 0)
(29.7853 0.017519 0)
(29.6955 0.0245403 0)
(29.5823 0.0348909 0)
(29.4423 0.04883 0)
(29.2636 0.0689677 0)
(29.0442 0.0957053 0)
(28.7665 0.135488 0)
(28.423 0.193815 0)
(27.9801 0.278547 0)
(27.43 0.411401 0)
(26.6709 0.628063 0)
(25.7257 0.980577 0)
(24.2856 1.60473 0)
(22.6277 2.61551 0)
(19.8236 4.81236 0)
(16.4833 7.43496 0)
(9.10919 14.2221 0)
(29.9989 0.00107549 0)
(29.9858 0.00326661 0)
(29.9574 0.0056284 0)
(29.9141 0.00866875 0)
(29.8575 0.0126707 0)
(29.7852 0.0180737 0)
(29.6953 0.025318 0)
(29.5822 0.035992 0)
(29.4422 0.0504826 0)
(29.2639 0.0710793 0)
(29.0444 0.0987642 0)
(28.7669 0.139798 0)
(28.4235 0.199958 0)
(27.9813 0.287259 0)
(27.4325 0.424342 0)
(26.6762 0.646953 0)
(25.7359 1.01043 0)
(24.3028 1.64805 0)
(22.6635 2.68581 0)
(19.8919 4.92121 0)
(16.7349 7.64786 0)
(9.32453 14.7903 0)
(29.9989 0.00110843 0)
(29.9858 0.00336644 0)
(29.9574 0.00580188 0)
(29.9142 0.00893514 0)
(29.8577 0.0130598 0)
(29.7854 0.0186283 0)
(29.6956 0.0260951 0)
(29.5826 0.0370933 0)
(29.4423 0.0521375 0)
(29.2643 0.0731787 0)
(29.0448 0.101827 0)
(28.7672 0.144108 0)
(28.4241 0.206096 0)
(27.9825 0.295952 0)
(27.4351 0.43724 0)
(26.6819 0.665754 0)
(25.7468 1.04012 0)
(24.3215 1.691 0)
(22.7004 2.75531 0)
(19.9616 5.02601 0)
(16.9964 7.85787 0)
(9.54831 15.3693 0)
(29.9989 0.00114137 0)
(29.9859 0.00346625 0)
(29.9574 0.00597538 0)
(29.9142 0.00920153 0)
(29.8575 0.0134487 0)
(29.7853 0.0191829 0)
(29.6954 0.0268719 0)
(29.5826 0.0381916 0)
(29.442 0.0537906 0)
(29.2649 0.0752698 0)
(29.0451 0.104893 0)
(28.7676 0.148415 0)
(28.4247 0.212225 0)
(27.9838 0.304626 0)
(27.438 0.450091 0)
(26.6878 0.684459 0)
(25.7585 1.06965 0)
(24.3417 1.73358 0)
(22.7385 2.824 0)
(20.0327 5.12661 0)
(17.2675 8.06486 0)
(9.78081 15.9594 0)
(29.9989 0.0011743 0)
(29.9859 0.00356601 0)
(29.9575 0.00614889 0)
(29.9143 0.00946784 0)
(29.8577 0.0138377 0)
(29.7855 0.0197369 0)
(29.6956 0.0276505 0)
(29.583 0.0392878 0)
(29.442 0.0553791 0)
(29.2654 0.0773531 0)
(29.0455 0.107961 0)
(28.768 0.152721 0)
(28.4254 0.218347 0)
(27.9852 0.313277 0)
(27.4411 0.462895 0)
(26.6941 0.703063 0)
(25.7709 1.09899 0)
(24.3633 1.77578 0)
(22.7781 2.89189 0)
(20.1054 5.22286 0)
(17.548 8.26868 0)
(10.0223 16.561 0)
(29.9989 0.00120722 0)
(29.9859 0.00366574 0)
(29.9574 0.00632241 0)
(29.9142 0.00973417 0)
(29.8575 0.0142264 0)
(29.7854 0.0202921 0)
(29.6954 0.0284226 0)
(29.583 0.0404249 0)
(29.4415 0.0567939 0)
(29.266 0.0794393 0)
(29.0458 0.111032 0)
(28.7685 0.157024 0)
(28.4261 0.22446 0)
(27.9867 0.321907 0)
(27.4443 0.475649 0)
(26.7007 0.721559 0)
(25.7839 1.12813 0)
(24.3864 1.81758 0)
(22.8192 2.95896 0)
(20.1798 5.31462 0)
(17.8379 8.4692 0)
(10.2729 17.1747 0)
(29.9989 0.00124013 0)
(29.9859 0.00376543 0)
(29.9575 0.00649593 0)
(29.9143 0.0100004 0)
(29.8578 0.0146151 0)
(29.7856 0.0208459 0)
(29.6958 0.0292008 0)
(29.5834 0.0415371 0)
(29.4418 0.0585683 0)
(29.2666 0.0815569 0)
(29.0462 0.114104 0)
(28.769 0.161326 0)
(28.4268 0.230564 0)
(27.9883 0.330515 0)
(27.4476 0.488352 0)
(26.7075 0.739942 0)
(25.7977 1.15706 0)
(24.4108 1.85899 0)
(22.8622 3.02522 0)
(20.2561 5.40175 0)
(18.1374 8.66625 0)
(10.5329 17.8007 0)
(29.9989 0.00127303 0)
(29.9859 0.00386508 0)
(29.9575 0.00666949 0)
(29.9142 0.0102666 0)
(29.8576 0.0150039 0)
(29.7854 0.0213993 0)
(29.6956 0.0299758 0)
(29.5831 0.0426856 0)
(29.4422 0.0603203 0)
(29.2671 0.0837083 0)
(29.0466 0.117177 0)
(28.7695 0.165624 0)
(28.4276 0.23666 0)
(27.99 0.339099 0)
(27.4512 0.501001 0)
(26.7147 0.758206 0)
(25.8121 1.18576 0)
(24.4367 1.89997 0)
(22.9071 3.09066 0)
(20.3344 5.4841 0)
(18.4469 8.85968 0)
(10.8026 18.4395 0)
(29.9989 0.00130592 0)
(29.9859 0.00396468 0)
(29.9575 0.006843 0)
(29.9143 0.010533 0)
(29.8579 0.0153919 0)
(29.7857 0.0219566 0)
(29.696 0.0307338 0)
(29.5833 0.043855 0)
(29.4425 0.061816 0)
(29.2676 0.085875 0)
(29.047 0.12025 0)
(28.77 0.16992 0)
(28.4284 0.242745 0)
(27.9918 0.347658 0)
(27.4548 0.513595 0)
(26.7221 0.776345 0)
(25.8271 1.21421 0)
(24.4638 1.94052 0)
(22.9543 3.15527 0)
(20.4143 5.56154 0)
(18.7665 9.04933 0)
(11.0821 19.0917 0)
(29.9989 0.00133881 0)
(29.9859 0.00406427 0)
(29.9575 0.00701653 0)
(29.9142 0.010799 0)
(29.8576 0.0157808 0)
(29.7855 0.0225067 0)
(29.6959 0.0315405 0)
(29.5828 0.0447749 0)
(29.4426 0.0632444 0)
(29.268 0.0880443 0)
(29.0474 0.123322 0)
(28.7706 0.174212 0)
(28.4293 0.248824 0)
(27.9936 0.356191 0)
(27.4587 0.52613 0)
(26.7298 0.794353 0)
(25.8428 1.24242 0)
(24.4922 1.98059 0)
(23.0042 3.21904 0)
(20.4955 5.63392 0)
(19.0954 9.23509 0)
(11.3717 19.7575 0)
(29.9989 0.00137168 0)
(29.9859 0.00416386 0)
(29.9575 0.00719013 0)
(29.9143 0.0110651 0)
(29.8579 0.0161693 0)
(29.7857 0.0230607 0)
(29.6965 0.0323316 0)
(29.582 0.0460212 0)
(29.4427 0.0647031 0)
(29.2682 0.0902123 0)
(29.0478 0.126393 0)
(28.7711 0.178501 0)
(28.4302 0.254891 0)
(27.9955 0.364697 0)
(27.4626 0.538606 0)
(26.7378 0.812226 0)
(25.859 1.27035 0)
(24.5217 2.02017 0)
(23.0572 3.282 0)
(20.577 5.70115 0)
(19.4305 9.41695 0)
(11.6716 20.4382 0)
(29.9989 0.00140439 0)
(29.9859 0.00426335 0)
(29.9575 0.00736376 0)
(29.9143 0.0113316 0)
(29.8577 0.0165579 0)
(29.7855 0.0236145 0)
(29.6964 0.0331291 0)
(29.5813 0.0473896 0)
(29.4426 0.0662011 0)
(29.2685 0.092381 0)
(29.0482 0.129462 0)
(28.7717 0.182787 0)
(28.4311 0.260948 0)
(27.9974 0.373173 0)
(27.4667 0.551018 0)
(26.7461 0.829958 0)
(25.8757 1.29801 0)
(24.5522 2.05921 0)
(23.1137 3.34413 0)
(20.6584 5.76321 0)
(19.7647 9.5946 0)
(11.9814 21.1412 0)
(29.9989 0.00143661 0)
(29.9859 0.00436182 0)
(29.9575 0.00753571 0)
(29.9144 0.0115965 0)
(29.858 0.0169461 0)
(29.7857 0.0241587 0)
(29.6968 0.0339759 0)
(29.581 0.0485128 0)
(29.4426 0.0677119 0)
(29.2686 0.0945467 0)
(29.0486 0.132529 0)
(28.7723 0.187071 0)
(28.4321 0.266992 0)
(27.9994 0.381613 0)
(27.4709 0.563363 0)
(26.7546 0.84755 0)
(25.8929 1.32539 0)
(24.5836 2.09764 0)
(23.1741 3.4055 0)
(20.7395 5.82017 0)
(20.0867 9.76602 0)
(12.3871 21.8881 0)
(-0.900516 0.0460433 0)
(-3.13217 0.0377831 0)
(-4.35339 0.00722998 0)
(-3.78364 -0.0154907 0)
(-2.65087 -0.0152569 0)
(-1.99929 -0.00821176 0)
(-1.60448 -0.00355145 0)
(-1.51367 -0.00120186 0)
(-1.41706 -0.00100364 0)
(-1.3468 -0.00010713 0)
(-1.41734 0.000306862 0)
(-1.49592 -0.000625145 0)
(-1.2818 -0.00368982 0)
(-0.681665 -0.00693949 0)
(0.448034 -0.00979967 0)
(1.90761 -0.0111148 0)
(3.5722 -0.0115214 0)
(5.37539 -0.0112405 0)
(7.20682 -0.0100738 0)
(8.90806 -0.00846282 0)
(10.4724 -0.00718513 0)
(11.9383 -0.00626899 0)
(13.3348 -0.00556362 0)
(14.6911 -0.00510473 0)
(16.0724 -0.00490665 0)
(17.5429 -0.00410459 0)
(18.6416 -0.00595221 0)
(21.57 -0.0125158 0)
(27.9862 -0.00978457 0)
(29.413 -0.00175329 0)
(29.4918 -0.000123357 0)
(29.5276 -0.000106439 0)
(29.6002 -0.000124424 0)
(29.664 -0.000101191 0)
(29.7206 -4.55497e-05 0)
(-0.876659 0.136519 0)
(-3.08657 0.112674 0)
(-4.30539 0.0217954 0)
(-3.74375 -0.0459665 0)
(-2.62151 -0.0456354 0)
(-1.97592 -0.0246371 0)
(-1.58003 -0.0107615 0)
(-1.48626 -0.00376966 0)
(-1.37783 -0.00317404 0)
(-1.28988 -0.000250149 0)
(-1.36417 0.00156209 0)
(-1.46622 -0.000960904 0)
(-1.32341 -0.0102521 0)
(-0.780558 -0.0207469 0)
(0.378309 -0.0294381 0)
(1.90542 -0.0330841 0)
(3.59912 -0.0339608 0)
(5.37688 -0.0328143 0)
(7.16501 -0.0295038 0)
(8.84152 -0.0251126 0)
(10.4063 -0.0214952 0)
(11.8824 -0.0187542 0)
(13.2902 -0.0166433 0)
(14.6522 -0.0152628 0)
(16.0287 -0.0146732 0)
(17.4908 -0.0122749 0)
(18.5959 -0.0170515 0)
(21.211 -0.0371995 0)
(27.8303 -0.0305095 0)
(29.4078 -0.0054811 0)
(29.497 -0.000374549 0)
(29.5292 -0.000312162 0)
(29.6007 -0.000371792 0)
(29.6644 -0.000303404 0)
(29.721 -0.000136676 0)
(-0.84667 0.225205 0)
(-3.0353 0.186966 0)
(-4.25024 0.036428 0)
(-3.68719 -0.0763016 0)
(-2.56997 -0.0758673 0)
(-1.93297 -0.0409557 0)
(-1.5357 -0.0180406 0)
(-1.43957 -0.00654552 0)
(-1.31823 -0.00576251 0)
(-1.2204 -0.000683915 0)
(-1.31079 0.00256652 0)
(-1.45 -0.000399375 0)
(-1.3751 -0.0155894 0)
(-0.863634 -0.0340657 0)
(0.344185 -0.0497767 0)
(1.93652 -0.0555663 0)
(3.648 -0.0558961 0)
(5.39222 -0.0534731 0)
(7.13412 -0.0482364 0)
(8.78657 -0.0414661 0)
(10.3544 -0.0358419 0)
(11.8428 -0.0314046 0)
(13.2619 -0.0278346 0)
(14.6294 -0.0254328 0)
(16.0014 -0.0243763 0)
(17.4541 -0.0204399 0)
(18.5677 -0.0274163 0)
(20.9167 -0.06178 0)
(27.6856 -0.0517374 0)
(29.4021 -0.00963284 0)
(29.5021 -0.000648819 0)
(29.5309 -0.000507783 0)
(29.6014 -0.000616716 0)
(29.6649 -0.000505219 0)
(29.7214 -0.000227755 0)
(-0.811705 0.311892 0)
(-2.97844 0.260728 0)
(-4.18486 0.05087 0)
(-3.60807 -0.106825 0)
(-2.49504 -0.105847 0)
(-1.87133 -0.0571289 0)
(-1.4757 -0.0253373 0)
(-1.38002 -0.00948392 0)
(-1.24764 -0.00855676 0)
(-1.14514 -0.000943252 0)
(-1.25125 0.00432346 0)
(-1.42936 0.00120471 0)
(-1.41673 -0.0201689 0)
(-0.926269 -0.0478122 0)
(0.336085 -0.0713725 0)
(1.99639 -0.0791801 0)
(3.72408 -0.0783134 0)
(5.42847 -0.0741177 0)
(7.11837 -0.0668832 0)
(8.7454 -0.0578639 0)
(10.3176 -0.0503012 0)
(11.8194 -0.0441546 0)
(13.2501 -0.0390876 0)
(14.6233 -0.0356078 0)
(15.9912 -0.0340363 0)
(17.4335 -0.0285953 0)
(18.5559 -0.0370768 0)
(20.6874 -0.0857482 0)
(27.5514 -0.0737609 0)
(29.3958 -0.0141183 0)
(29.507 -0.000938832 0)
(29.5327 -0.000694803 0)
(29.6022 -0.000859426 0)
(29.6654 -0.000706578 0)
(29.7219 -0.000318712 0)
(-0.77151 0.396362 0)
(-2.91596 0.333733 0)
(-4.10724 0.0647447 0)
(-3.5033 -0.137597 0)
(-2.39663 -0.135411 0)
(-1.79099 -0.0729549 0)
(-1.40124 -0.032542 0)
(-1.30821 -0.0125257 0)
(-1.16646 -0.0115013 0)
(-1.06341 -0.00105442 0)
(-1.18307 0.00672066 0)
(-1.40101 0.00369979 0)
(-1.44477 -0.0240436 0)
(-0.963775 -0.0618796 0)
(0.362881 -0.0939897 0)
(2.09914 -0.103576 0)
(3.84286 -0.100724 0)
(5.49703 -0.0942678 0)
(7.12427 -0.0851499 0)
(8.72156 -0.0741743 0)
(10.2983 -0.0648564 0)
(11.8141 -0.0570271 0)
(13.2569 -0.0504219 0)
(14.6359 -0.0457976 0)
(15.9998 -0.0436491 0)
(17.4303 -0.0367401 0)
(18.5615 -0.0462078 0)
(20.5156 -0.109328 0)
(27.4269 -0.0962635 0)
(29.3888 -0.0189273 0)
(29.5118 -0.00124824 0)
(29.5346 -0.000873667 0)
(29.603 -0.00109982 0)
(29.6661 -0.000907342 0)
(29.7224 -0.000409466 0)
(-0.725781 0.478345 0)
(-2.84769 0.405816 0)
(-4.01499 0.0776265 0)
(-3.36909 -0.168851 0)
(-2.27395 -0.164486 0)
(-1.69134 -0.0883118 0)
(-1.31251 -0.0395707 0)
(-1.22378 -0.0156285 0)
(-1.07414 -0.0145391 0)
(-0.973611 -0.0010085 0)
(-1.10408 0.00970676 0)
(-1.36151 0.00703405 0)
(-1.45465 -0.0273501 0)
(-0.970688 -0.0763692 0)
(0.434087 -0.117606 0)
(2.26157 -0.128618 0)
(4.02619 -0.122891 0)
(5.61541 -0.113612 0)
(7.16319 -0.10282 0)
(8.722 -0.0903164 0)
(10.3011 -0.079492 0)
(11.831 -0.0700185 0)
(13.2866 -0.0618337 0)
(14.6715 -0.0559987 0)
(16.0309 -0.0532065 0)
(17.4471 -0.0448684 0)
(18.5864 -0.0549083 0)
(20.3925 -0.132553 0)
(27.3112 -0.119092 0)
(29.3813 -0.0240341 0)
(29.5164 -0.00157846 0)
(29.5365 -0.00104497 0)
(29.604 -0.00133784 0)
(29.6668 -0.00110737 0)
(29.7229 -0.000499932 0)
(-0.674209 0.557562 0)
(-2.77331 0.476768 0)
(-3.90521 0.0890246 0)
(-3.20076 -0.200831 0)
(-2.12554 -0.192906 0)
(-1.57097 -0.103057 0)
(-1.20866 -0.0463291 0)
(-1.12543 -0.0187551 0)
(-0.969059 -0.0176236 0)
(-0.873178 -0.000811496 0)
(-1.01161 0.01323 0)
(-1.30693 0.0111021 0)
(-1.44173 -0.0302881 0)
(-0.942326 -0.0915112 0)
(0.557686 -0.142481 0)
(2.49909 -0.154498 0)
(4.30114 -0.144805 0)
(5.80873 -0.131954 0)
(7.25213 -0.1197 0)
(8.75752 -0.106199 0)
(10.3333 -0.0941843 0)
(11.8765 -0.0831282 0)
(13.3457 -0.073324 0)
(14.7367 -0.066208 0)
(16.0906 -0.0626962 0)
(17.4883 -0.0529634 0)
(18.6338 -0.0632471 0)
(20.3116 -0.155386 0)
(27.2034 -0.142133 0)
(29.3733 -0.0294172 0)
(29.5208 -0.0019309 0)
(29.5386 -0.00120934 0)
(29.6051 -0.00157345 0)
(29.6676 -0.00130652 0)
(29.7234 -0.000590028 0)
(-0.616493 0.633726 0)
(-2.69236 0.546314 0)
(-3.77445 0.0983599 0)
(-2.99354 -0.23372 0)
(-1.94995 -0.220412 0)
(-1.42807 -0.117025 0)
(-1.08807 -0.0527175 0)
(-1.01117 -0.0218787 0)
(-0.848782 -0.0207234 0)
(-0.758731 -0.000481942 0)
(-0.901981 0.0172165 0)
(-1.23261 0.0158146 0)
(-1.40092 -0.0330584 0)
(-0.872907 -0.107579 0)
(0.74153 -0.168997 0)
(2.82123 -0.181611 0)
(4.69239 -0.166585 0)
(6.11022 -0.149114 0)
(7.41497 -0.135545 0)
(8.84353 -0.121679 0)
(10.4058 -0.108885 0)
(11.9601 -0.096351 0)
(13.444 -0.084894 0)
(14.842 -0.0764193 0)
(16.1887 -0.0720963 0)
(17.5608 -0.0609986 0)
(18.7089 -0.07126 0)
(20.27 -0.177773 0)
(27.1031 -0.165289 0)
(29.3647 -0.0350572 0)
(29.5249 -0.00230687 0)
(29.5408 -0.00136746 0)
(29.6063 -0.0018066 0)
(29.6684 -0.00150467 0)
(29.7239 -0.000679672 0)
(-0.552363 0.706528 0)
(-2.60423 0.614109 0)
(-3.61878 0.104976 0)
(-2.74433 -0.26764 0)
(-1.74672 -0.246686 0)
(-1.26107 -0.130055 0)
(-0.948767 -0.0586405 0)
(-0.87846 -0.0249837 0)
(-0.710227 -0.023823 0)
(-0.626166 -5.10263e-05 0)
(-0.77037 0.0215998 0)
(-1.13285 0.0210618 0)
(-1.32557 -0.0358628 0)
(-0.753046 -0.124847 0)
(0.994933 -0.197527 0)
(3.22791 -0.210386 0)
(5.20383 -0.188469 0)
(6.5533 -0.164923 0)
(7.68388 -0.150054 0)
(9.0017 -0.136541 0)
(10.5343 -0.123509 0)
(12.096 -0.109674 0)
(13.5958 -0.0965476 0)
(15.0027 -0.0866258 0)
(16.3407 -0.081371 0)
(17.6758 -0.0689297 0)
(18.8192 -0.0789536 0)
(20.2691 -0.199648 0)
(27.0101 -0.18846 0)
(29.3557 -0.0409363 0)
(29.5288 -0.0027076 0)
(29.5431 -0.00152006 0)
(29.6076 -0.00203725 0)
(29.6693 -0.00170166 0)
(29.7245 -0.000768781 0)
(-0.481587 0.775638 0)
(-2.50813 0.679724 0)
(-3.43401 0.108199 0)
(-2.45398 -0.302627 0)
(-1.51715 -0.271407 0)
(-1.06936 -0.142025 0)
(-0.788878 -0.0640237 0)
(-0.724583 -0.0280727 0)
(-0.54994 -0.0269279 0)
(-0.470748 0.000424262 0)
(-0.610745 0.0262716 0)
(-1.00051 0.026723 0)
(-1.20625 -0.0389369 0)
(-0.568097 -0.143589 0)
(1.32823 -0.228313 0)
(3.70925 -0.241051 0)
(5.80449 -0.210834 0)
(7.14477 -0.179392 0)
(8.09517 -0.162914 0)
(9.26172 -0.150508 0)
(10.7416 -0.137938 0)
(12.304 -0.12308 0)
(13.8211 -0.108297 0)
(15.2404 -0.096828 0)
(16.5692 -0.0904683 0)
(17.85 -0.0766839 0)
(18.9759 -0.0863063 0)
(20.3153 -0.220929 0)
(26.9253 -0.211539 0)
(29.3464 -0.0470354 0)
(29.5324 -0.00313412 0)
(29.5455 -0.00166795 0)
(29.609 -0.00226536 0)
(29.6704 -0.00189735 0)
(29.7251 -0.000857271 0)
(-0.403979 0.8407 0)
(-2.4031 0.742651 0)
(-3.21586 0.107426 0)
(-2.12881 -0.338589 0)
(-1.26471 -0.294319 0)
(-0.854006 -0.152877 0)
(-0.607188 -0.0688342 0)
(-0.546978 -0.0311729 0)