/*--------------------------------*- C++ -*----------------------------------*\
| =========                 |                                                 |
| \\      /  F ield         | OpenFOAM: The Open Source CFD Toolbox           |
|  \\    /   O peration     | Version:  v1912                                 |
|   \\  /    A nd           | Website:  www.openfoam.com                      |
|    \\/     M anipulation  |                                                 |
\*---------------------------------------------------------------------------*/
FoamFile
{
    version     2.0;
    format      ascii;
    class       volScalarField;
    location    "280";
    object      mag(U);
}
// * * * * * * * * * * * * * * * * * * * * * * * * * * * * * * * * * * * * * //

dimensions      [0 1 -1 0 0 0 0];


internalField   nonuniform List<scalar> 
12225
(
9.88754
9.63354
9.33649
9.02229
8.72869
8.46823
8.24042
8.04185
7.86976
7.72068
7.59152
7.47918
7.38145
7.29637
7.22224
7.16007
7.10026
7.07202
10.0754
10.1953
10.2357
10.2343
10.2144
10.1813
10.1346
10.0767
10.0111
9.94129
9.86957
9.79768
9.72669
9.65771
9.59115
9.52793
9.46868
9.41533
10.0034
10.031
10.0614
10.0898
10.1151
10.1376
10.1547
10.1658
10.1716
10.1731
10.1712
10.1663
10.1592
10.1503
10.1402
10.1292
10.1183
10.1063
9.99715
10.009
10.0343
10.0555
10.0723
10.0877
10.1018
10.1136
10.1238
10.1328
10.1406
10.1474
10.1534
10.1587
10.1633
10.1675
10.1714
10.1743
9.99907
10.0083
10.028
10.0438
10.056
10.068
10.0795
10.0899
10.0993
10.1079
10.1159
10.1233
10.1303
10.137
10.1435
10.1496
10.1554
10.1606
10.0002
10.0081
10.0237
10.037
10.0479
10.0586
10.0692
10.0787
10.0873
10.0952
10.1027
10.1098
10.1166
10.1232
10.1295
10.1355
10.1412
10.1463
10.0003
10.007
10.0202
10.0323
10.0426
10.0526
10.0623
10.0712
10.0794
10.087
10.0941
10.1009
10.1074
10.1137
10.1197
10.1254
10.1307
10.1355
10.0004
10.006
10.0172
10.0284
10.0382
10.0476
10.0568
10.0653
10.0731
10.0805
10.0874
10.094
10.1003
10.1063
10.112
10.1174
10.1224
10.1268
10.0004
10.0052
10.0146
10.0249
10.0342
10.043
10.0517
10.0599
10.0676
10.0747
10.0815
10.0879
10.094
10.0998
10.1053
10.1104
10.1151
10.1192
10.0004
10.0045
10.0125
10.0217
10.0304
10.0388
10.047
10.0549
10.0623
10.0693
10.0759
10.0821
10.0881
10.0937
10.099
10.1039
10.1083
10.1123
10.0004
10.0039
10.0107
10.0189
10.027
10.0349
10.0427
10.0502
10.0574
10.0641
10.0705
10.0766
10.0824
10.0878
10.0928
10.0975
10.1018
10.1057
10.0003
10.0034
10.0093
10.0167
10.0242
10.0317
10.0391
10.0462
10.0531
10.0596
10.0658
10.0717
10.0772
10.0825
10.0874
10.0919
10.0961
10.0999
10.0003
10.003
10.0082
10.0148
10.0217
10.0287
10.0357
10.0425
10.0491
10.0554
10.0614
10.0671
10.0725
10.0775
10.0823
10.0866
10.0907
10.0943
10.0003
10.0026
10.0071
10.0129
10.0193
10.0258
10.0323
10.0387
10.045
10.051
10.0567
10.0622
10.0674
10.0723
10.0768
10.081
10.0849
10.0884
10.0002
10.0022
10.006
10.0112
10.0169
10.0229
10.0289
10.035
10.0409
10.0466
10.0521
10.0573
10.0622
10.0669
10.0712
10.0752
10.0789
10.0824
10.0002
10.0019
10.0052
10.0097
10.0148
10.0202
10.0258
10.0314
10.037
10.0424
10.0475
10.0525
10.0572
10.0616
10.0657
10.0696
10.0732
10.0765
10.0002
10.0016
10.0045
10.0084
10.013
10.018
10.0231
10.0283
10.0335
10.0386
10.0435
10.0482
10.0526
10.0568
10.0608
10.0645
10.0679
10.0712
10.0002
10.0014
10.004
10.0075
10.0117
10.0163
10.0211
10.026
10.0309
10.0357
10.0404
10.0448
10.0491
10.0531
10.0569
10.0605
10.0639
10.067
10.0001
10.0014
10.0038
10.0071
10.0112
10.0156
10.0202
10.025
10.0297
10.0343
10.0389
10.0432
10.0473
10.0513
10.055
10.0585
10.0618
10.0649
10.0002
10.0014
10.004
10.0075
10.0117
10.0163
10.021
10.0259
10.0306
10.0354
10.0399
10.0443
10.0484
10.0524
10.0561
10.0596
10.0629
10.066
10.0002
10.0016
10.0043
10.0083
10.0129
10.0177
10.0227
10.0278
10.0328
10.0376
10.0423
10.0467
10.051
10.055
10.0588
10.0623
10.0656
10.0688
10.0002
10.0017
10.0049
10.0094
10.0145
10.0198
10.0251
10.0305
10.0357
10.0408
10.0456
10.0502
10.0546
10.0586
10.0625
10.0661
10.0696
10.0727
10.0001
10.0017
10.0055
10.0109
10.0166
10.0223
10.028
10.0338
10.0394
10.0446
10.0497
10.0544
10.0589
10.0631
10.067
10.0707
10.0741
10.0773
10.0001
10.0016
10.0061
10.0124
10.0188
10.0251
10.0313
10.0374
10.0432
10.0487
10.0539
10.0588
10.0634
10.0677
10.0717
10.0755
10.079
10.0823
9.9998
10.0012
10.007
10.0141
10.0208
10.0274
10.0343
10.041
10.0474
10.0533
10.0589
10.0641
10.069
10.0735
10.0777
10.0816
10.0853
10.0887
9.99829
9.998
10.0068
10.0163
10.0235
10.0304
10.038
10.0456
10.0528
10.0595
10.0658
10.0717
10.0772
10.0822
10.0869
10.0912
10.0952
10.0989
9.99413
9.98996
10.0032
10.0186
10.0303
10.0405
10.0503
10.0595
10.068
10.0758
10.0832
10.0899
10.0961
10.1018
10.1069
10.1116
10.1159
10.1198
9.99425
9.99527
10.0086
10.0273
10.047
10.0668
10.085
10.1007
10.1139
10.1251
10.1343
10.1419
10.1477
10.1521
10.1551
10.157
10.158
10.158
10.039
10.1149
10.1484
10.1611
10.1727
10.1841
10.1899
10.1878
10.1782
10.1625
10.1419
10.1173
10.0897
10.0601
10.029
9.99715
9.96491
9.93302
9.95813
9.86718
9.7195
9.53274
9.33464
9.14181
8.95932
8.78912
8.63241
8.4897
8.36033
8.24347
8.13793
8.04265
7.95651
7.87855
7.80739
7.74267
0.00477266
0.0155691
0.0271132
0.0383683
0.0482238
0.0562263
0.0621748
0.0659907
0.0677535
0.0674819
0.0654572
0.0620534
0.0575339
0.0521114
0.0459333
0.0390802
0.031609
0.0236673
0.0158774
0.0112537
0.0158244
0.0267614
0.0405925
0.0565486
0.0745166
0.0945317
0.116659
0.14095
0.167431
0.196071
0.226787
0.259469
0.293974
0.330133
0.367762
0.406668
0.446647
0.487501
0.529042
0.571093
0.613495
0.656107
0.6988
0.741472
0.784047
0.826466
0.868674
0.910612
0.952356
0.993909
1.03527
1.07647
1.11749
1.15835
1.19905
1.23961
1.28
1.32025
1.36033
1.40024
1.43998
1.47954
1.5189
1.55804
1.59694
1.6356
1.67397
1.71201
1.74973
1.78708
1.82402
1.86053
1.89656
1.93207
1.96703
2.0014
2.03513
2.06819
2.10052
2.13209
2.16285
2.19276
2.22178
2.24986
2.27695
2.30302
2.32802
2.3519
2.37463
2.39616
2.41644
2.43546
2.45313
2.46944
2.48433
2.49773
2.50961
2.51987
2.52844
2.53525
2.5402
2.54314
2.5442
2.54375
2.54172
2.53816
2.53304
2.52636
2.51813
2.5083
2.49689
2.48389
2.46931
2.45312
2.43533
2.41597
2.395
2.37246
2.34834
2.32267
2.29543
2.26667
2.23637
2.20459
2.17131
2.13657
2.1004
2.06281
2.02384
1.98352
1.94186
1.89893
1.85473
1.8093
1.76268
1.71492
1.66604
1.61611
1.56515
1.51322
1.46035
1.4066
1.35201
1.29664
1.24054
1.18373
1.12629
1.06826
1.00969
0.950629
0.891125
0.831228
0.770986
0.710448
0.649659
0.588667
0.52752
0.466265
0.404956
0.343653
0.282437
0.221442
0.160938
0.10176
0.0486862
0.0430802
0.09357
0.15177
0.211197
0.270859
0.330478
0.389927
0.449102
0.507857
0.565996
0.622934
0.678388
0.727787
0.776585
0.775784
0.0231354
0.0397001
0.0448453
0.0455129
0.0441426
0.0416665
0.0385707
0.0350656
0.0312115
0.0271189
0.0229379
0.019331
0.018136
0.0215548
0.0295623
0.0408534
0.0546035
0.0704737
0.0883628
0.108258
0.130147
0.154026
0.17993
0.207871
0.237813
0.269667
0.303304
0.33855
0.375205
0.413057
0.451909
0.491563
0.531826
0.572513
0.613457
0.654508
0.695536
0.736438
0.777135
0.817566
0.857694
0.897491
0.936949
0.976068
1.01486
1.05335
1.09156
1.12949
1.16715
1.20455
1.24169
1.27856
1.3152
1.35158
1.38772
1.42363
1.45929
1.49469
1.52985
1.56474
1.59935
1.63367
1.66769
1.70138
1.73472
1.76769
1.80027
1.83243
1.86415
1.8954
1.92613
1.95634
1.98599
2.01504
2.04346
2.07121
2.09827
2.1246
2.15016
2.17492
2.19884
2.2219
2.24403
2.26524
2.28547
2.30469
2.32286
2.33996
2.35595
2.37079
2.38446
2.39691
2.40815
2.41811
2.42679
2.43417
2.44023
2.44497
2.4484
2.45057
2.45155
2.45148
2.45029
2.44766
2.44355
2.43795
2.43082
2.42216
2.41195
2.40018
2.38686
2.37196
2.3555
2.33745
2.31784
2.29665
2.27391
2.2496
2.22373
2.19633
2.1674
2.13695
2.105
2.07157
2.03667
2.00033
1.96257
1.92341
1.8829
1.84104
1.79788
1.75345
1.70777
1.66088
1.61283
1.56364
1.51336
1.46203
1.4097
1.3564
1.30219
1.24712
1.19123
1.13456
1.07717
1.01912
0.960449
0.901209
0.841453
0.781235
0.720607
0.659625
0.598346
0.536829
0.475141
0.41336
0.351585
0.289965
0.228764
0.168568
0.111133
0.0643999
0.0616089
0.106194
0.162992
0.222714
0.283329
0.344268
0.40532
0.466351
0.527278
0.588029
0.648518
0.70861
0.768102
0.826511
0.883447
0.936106
0.987514
1.01625
0.0442258
0.0549798
0.0488252
0.0394012
0.0290989
0.0184334
0.00771738
0.00408073
0.0147381
0.0259764
0.0376809
0.0500723
0.0634175
0.0779787
0.0939778
0.111581
0.130897
0.151992
0.174893
0.199604
0.226089
0.254265
0.284009
0.315165
0.347543
0.380933
0.415119
0.449889
0.48505
0.520433
0.555893
0.591303
0.62657
0.661625
0.696414
0.730912
0.765124
0.799065
0.832752
0.866211
0.899468
0.932549
0.965481
0.998285
1.03098
1.06359
1.09612
1.12857
1.16094
1.19322
1.2254
1.25748
1.28945
1.32132
1.35307
1.38469
1.41617
1.44751
1.4787
1.50971
1.54053
1.57115
1.60155
1.6317
1.66158
1.69118
1.72047
1.74942
1.778
1.80619
1.83395
1.86127
1.88809
1.9144
1.94017
1.96536
1.98992
2.01384
2.03708
2.0596
2.08136
2.10233
2.12247
2.14176
2.16016
2.17763
2.19413
2.20964
2.22412
2.23754
2.24987
2.26109
2.27114
2.28005
2.28774
2.29424
2.29952
2.30356
2.30637
2.30796
2.30831
2.30737
2.30509
2.3014
2.29628
2.28972
2.28168
2.27214
2.26112
2.24859
2.23454
2.21897
2.20189
2.18327
2.16312
2.14146
2.11828
2.09358
2.06737
2.03967
2.01049
1.97982
1.94771
1.91415
1.87917
1.84278
1.80502
1.76589
1.72544
1.6837
1.64069
1.59643
1.55097
1.50434
1.45657
1.40771
1.35778
1.30684
1.25493
1.20209
1.14837
1.09381
1.03847
0.982401
0.925648
0.868267
0.810315
0.751849
0.692931
0.633626
0.574009
0.514164
0.454194
0.39424
0.334505
0.275327
0.217369
0.162151
0.113948
0.0857501
0.0970233
0.138434
0.191273
0.248283
0.307097
0.366795
0.426933
0.487289
0.547739
0.608188
0.66856
0.728783
0.788774
0.848399
0.907469
0.965576
1.02242
1.07611
1.12956
1.17049
0.0564221
0.0573514
0.0442458
0.0303514
0.0187831
0.0161072
0.0251883
0.0384114
0.0528281
0.0678712
0.0835018
0.0998425
0.117075
0.135392
0.154959
0.175901
0.198281
0.222111
0.247352
0.273915
0.301671
0.330459
0.360089
0.39036
0.421068
0.452016
0.483034
0.513979
0.544735
0.575222
0.605383
0.635187
0.664635
0.69374
0.722543
0.751094
0.779447
0.807649
0.835749
0.863788
0.891805
0.919829
0.947884
0.975988
1.00415
1.03238
1.06067
1.08901
1.11741
1.14584
1.17428
1.20274
1.23121
1.25965
1.28806
1.31644
1.34476
1.37301
1.40117
1.42924
1.45717
1.48496
1.51259
1.54003
1.56726
1.59427
1.62101
1.64746
1.67361
1.69942
1.72484
1.74988
1.77448
1.79861
1.82225
1.84536
1.8679
1.88985
1.91116
1.9318
1.95175
1.97096
1.98939
2.00702
2.02381
2.03972
2.05473
2.06879
2.08188
2.09397
2.10503
2.11503
2.12393
2.13173
2.13839
2.1439
2.14823
2.15137
2.1533
2.154
2.15345
2.15159
2.14839
2.14382
2.13788
2.13052
2.12176
2.11156
2.09991
2.08683
2.07227
2.05626
2.03877
2.01981
1.99938
1.97748
1.95412
1.92929
1.90301
1.87529
1.84613
1.81556
1.78357
1.7502
1.71544
1.67934
1.64191
1.60317
1.56314
1.52186
1.47937
1.43568
1.39083
1.34486
1.2978
1.24969
1.20057
1.15047
1.09946
1.04757
0.99485
0.941359
0.887146
0.832271
0.776796
0.720788
0.664322
0.607486
0.550381
0.493136
0.435923
0.378989
0.322722
0.267791
0.215484
0.168534
0.133025
0.119842
0.135788
0.17304
0.221083
0.274284
0.330123
0.387416
0.445559
0.504225
0.56322
0.622417
0.681724
0.741059
0.800352
0.859533
0.918518
0.977185
1.03537
1.09273
1.14911
1.20318
1.25805
1.30473
0.0568586
0.0492365
0.0343535
0.0252633
0.0286281
0.0410503
0.0566985
0.0735361
0.0910003
0.108965
0.127463
0.146595
0.166484
0.18725
0.208987
0.231746
0.255528
0.280284
0.305915
0.332285
0.359231
0.386578
0.414141
0.441749
0.469245
0.496499
0.523409
0.549906
0.575954
0.601541
0.626681
0.65141
0.67578
0.699857
0.723711
0.747413
0.771025
0.794606
0.818208
0.841872
0.865633
0.889517
0.913546
0.937728
0.962071
0.986573
1.01123
1.03603
1.06096
1.08601
1.11116
1.1364
1.16171
1.18707
1.21246
1.23786
1.26328
1.28867
1.31403
1.33933
1.36455
1.38967
1.41467
1.43953
1.46422
1.48872
1.51299
1.53702
1.56077
1.58421
1.60733
1.63008
1.65244
1.67437
1.69584
1.71682
1.73727
1.75717
1.77647
1.79515
1.81316
1.8305
1.84708
1.86292
1.87796
1.89218
1.90553
1.91799
1.92953
1.94011
1.94971
1.95831
1.96587
1.97237
1.97777
1.98209
1.98526
1.98727
1.98812
1.98776
1.98616
1.9833
1.97914
1.97367
1.96688
1.95874
1.94925
1.93839
1.92614
1.91251
1.89748
1.88105
1.86322
1.84397
1.82332
1.80126
1.7778
1.75295
1.7267
1.69907
1.67007
1.63971
1.60801
1.57497
1.54062
1.50499
1.46808
1.42992
1.39055
1.34998
1.30825
1.2654
1.22144
1.17643
1.1304
1.08339
1.03542
0.986577
0.936888
0.886413
0.835212
0.78335
0.730901
0.677948
0.624591
0.570949
0.517177
0.463478
0.410139
0.357591
0.306525
0.258117
0.214486
0.17947
0.159165
0.159531
0.180598
0.21649
0.261207
0.310975
0.363717
0.418289
0.474032
0.530545
0.587574
0.644957
0.702591
0.760399
0.818316
0.876277
0.934224
0.992091
1.0498
1.10725
1.16431
1.22071
1.27641
1.33049
1.38618
1.43551
0.0468147
0.0340173
0.0253138
0.0331679
0.0494958
0.0680326
0.0872775
0.106877
0.12676
0.146948
0.167506
0.188512
0.210043
0.232158
0.254888
0.278226
0.302127
0.326502
0.351235
0.376182
0.401193
0.426114
0.450806
0.475146
0.499039
0.522418
0.545245
0.567509
0.589226
0.610433
0.631186
0.651552
0.671609
0.691435
0.71111
0.730706
0.750291
0.769921
0.789648
0.809509
0.82954
0.849762
0.870194
0.890843
0.911711
0.932798
0.954096
0.975594
0.997278
1.01913
1.04114
1.06328
1.08555
1.1079
1.13034
1.15284
1.17537
1.19793
1.22047
1.243
1.26549
1.28791
1.31023
1.33244
1.35451
1.3764
1.39811
1.4196
1.44084
1.4618
1.48246
1.50277
1.52272
1.54228
1.56141
1.58007
1.59824
1.61588
1.63297
1.64947
1.66534
1.68057
1.6951
1.70891
1.72196
1.73425
1.74571
1.75632
1.76607
1.77492
1.78282
1.78978
1.79575
1.80071
1.80465
1.80752
1.80932
1.81
1.80955
1.80795
1.80517
1.80119
1.79596
1.7895
1.78177
1.77277
1.76249
1.7509
1.73802
1.72381
1.70829
1.69142
1.67324
1.65372
1.63287
1.6107
1.58719
1.56236
1.53621
1.50877
1.48003
1.45
1.41871
1.38617
1.35239
1.3174
1.28122
1.24386
1.20537
1.16578
1.1251
1.08338
1.04067
0.996987
0.952393
0.906927
0.860646
0.813613
0.765897
0.717579
0.668755
0.61954
0.570074
0.520542
0.471189
0.422353
0.374531
0.328472
0.285351
0.247049
0.216483
0.197608
0.194148
0.207102
0.233912
0.270594
0.313764
0.361137
0.411274
0.463276
0.516567
0.570767
0.625618
0.680939
0.736603
0.792518
0.848622
0.904871
0.961219
1.01762
1.07403
1.13038
1.18663
1.24267
1.29841
1.35367
1.40852
1.46226
1.51825
1.56861
0.0291817
0.0191635
0.0320355
0.0526848
0.0741719
0.0956136
0.116988
0.138363
0.159804
0.181373
0.203123
0.225101
0.247338
0.269843
0.292604
0.315575
0.338684
0.361834
0.384912
0.407793
0.430355
0.452488
0.474097
0.495114
0.51549
0.53521
0.55428
0.572729
0.590605
0.607972
0.624905
0.641484
0.657795
0.673921
0.68994
0.705925
0.721939
0.73804
0.754275
0.770683
0.787295
0.804132
0.821211
0.83854
0.856119
0.873948
0.892019
0.91032
0.928839
0.947559
0.966464
0.985532
1.00475
1.02409
1.04354
1.06307
1.08267
1.1023
1.12196
1.14161
1.16124
1.18082
1.20032
1.21973
1.239
1.25814
1.27709
1.29583
1.31435
1.33261
1.35058
1.36824
1.38554
1.40247
1.41899
1.43508
1.4507
1.46583
1.48042
1.49446
1.50791
1.52074
1.53292
1.54443
1.55522
1.56527
1.57457
1.58305
1.59073
1.59755
1.60349
1.60855
1.61266
1.61583
1.61803
1.61923
1.61941
1.61855
1.61662
1.6136
1.60947
1.6042
1.59778
1.59019
1.58143
1.57147
1.5603
1.54792
1.53433
1.51951
1.50345
1.48615
1.46761
1.44783
1.42681
1.40455
1.38106
1.35634
1.3304
1.30326
1.2749
1.24537
1.21467
1.18282
1.14984
1.11575
1.08057
1.04434
1.00709
0.968858
0.929679
0.889601
0.848681
0.806974
0.764546
0.72147
0.677843
0.633777
0.589411
0.544925
0.500548
0.456588
0.413471
0.371798
0.332437
0.296646
0.266223
0.243537
0.231213
0.231212
0.243781
0.267343
0.299458
0.337797
0.380552
0.426443
0.474586
0.524371
0.57537
0.627282
0.679881
0.733005
0.786529
0.840363
0.894432
0.948685
1.00308
1.0576
1.1122
1.16687
1.22155
1.27622
1.33082
1.38529
1.43957
1.49353
1.54732
1.60042
1.65624
1.70662
0.0102074
0.0302145
0.0546628
0.0782452
0.101219
0.123737
0.145999
0.168138
0.190225
0.212302
0.234396
0.25651
0.278637
0.300748
0.322799
0.344723
0.36644
0.387859
0.408881
0.429411
0.449361
0.46866
0.487255
0.505114
0.522233
0.538624
0.554323
0.569382
0.583867
0.597852
0.611423
0.624661
0.637652
0.650479
0.663219
0.67594
0.688704
0.701566
0.714572
0.727758
0.741154
0.754785
0.768662
0.782796
0.797189
0.81184
0.826742
0.841884
0.857254
0.872835
0.888611
0.904564
0.920674
0.936921
0.953284
0.969741
0.98627
1.00285
1.01945
1.03606
1.05265
1.0692
1.08567
1.10205
1.11831
1.13442
1.15037
1.16611
1.18164
1.1969
1.2119
1.22659
1.24094
1.25493
1.26854
1.28173
1.29447
1.30674
1.31851
1.32976
1.34045
1.35055
1.36005
1.36891
1.3771
1.38461
1.3914
1.39745
1.40274
1.40723
1.41091
1.41375
1.41574
1.41684
1.41704
1.41632
1.41466
1.41202
1.4084
1.40377
1.39811
1.39141
1.38365
1.37481
1.3649
1.35389
1.34177
1.32855
1.3142
1.29874
1.28215
1.26443
1.24557
1.22559
1.20448
1.18224
1.15889
1.13444
1.10888
1.08224
1.05454
1.02577
0.995982
0.965183
0.933405
0.90068
0.86704
0.832533
0.797204
0.761114
0.724329
0.686936
0.649032
0.610739
0.572202
0.533604
0.495188
0.457268
0.420266
0.384749
0.351484
0.321505
0.296156
0.277057
0.265896
0.263998
0.271837
0.288858
0.313765
0.345011
0.38116
0.421043
0.463766
0.50866
0.555231
0.603109
0.652012
0.701728
0.752086
0.802959
0.854241
0.905848
0.957718
1.0098
1.06204
1.11443
1.16693
1.21952
1.27221
1.32497
1.37776
1.43057
1.48336
1.53608
1.58872
1.6412
1.69375
1.74592
1.80113
1.85088
0.0254366
0.0582847
0.083662
0.107102
0.129864
0.152218
0.174341
0.196328
0.218216
0.240009
0.261689
0.283227
0.304578
0.325687
0.346486
0.366903
0.386857
0.406269
0.42506
0.443162
0.460517
0.477085
0.492845
0.507794
0.521952
0.53535
0.548041
0.560089
0.571566
0.582553
0.593129
0.603381
0.613391
0.623236
0.632989
0.642717
0.652478
0.662324
0.672298
0.682436
0.69277
0.703318
0.714098
0.725119
0.736386
0.747895
0.759643
0.771621
0.783815
0.796211
0.808793
0.821544
0.834445
0.847475
0.860612
0.873835
0.887123
0.900451
0.913796
0.927136
0.940445
0.953702
0.966879
0.979954
0.992901
1.0057
1.01831
1.03073
1.04291
1.05485
1.06651
1.07787
1.0889
1.09958
1.10988
1.11978
1.12926
1.13829
1.14685
1.1549
1.16244
1.16943
1.17586
1.18169
1.18691
1.19149
1.19543
1.19867
1.20123
1.20306
1.20414
1.20448
1.20403
1.20278
1.20071
1.19782
1.19406
1.18944
1.18392
1.1775
1.17017
1.1619
1.15268
1.1425
1.13136
1.11924
1.10615
1.09208
1.07701
1.06095
1.04391
1.02588
1.00685
0.986843
0.965859
0.943908
0.921002
0.897158
0.872393
0.846731
0.820197
0.792823
0.764646
0.735712
0.706072
0.675791
0.644944
0.613625
0.581947
0.550052
0.518118
0.486371
0.455097
0.424665
0.395543
0.368329
0.343782
0.322828
0.306529
0.29598
0.292119
0.295502
0.306159
0.323606
0.347028
0.375482
0.408059
0.443973
0.482574
0.523343
0.565871
0.609834
0.654974
0.701084
0.747997
0.795575
0.843704
0.892291
0.941257
0.990533
1.04007
1.08982
1.13974
1.18981
1.24001
1.29031
1.34071
1.3912
1.44177
1.49243
1.54315
1.59392
1.64473
1.69555
1.74638
1.79721
1.8483
1.89925
1.95349
2.00213
0.0534423
0.0902766
0.115291
0.137639
0.1593
0.180658
0.201857
0.222955
0.243947
0.264795
0.285447
0.305841
0.325905
0.345564
0.36474
0.383357
0.40134
0.418619
0.435138
0.450846
0.46571
0.479714
0.492857
0.505156
0.516641
0.527361
0.537372
0.546742
0.555543
0.563854
0.571755
0.579324
0.586639
0.593773
0.600793
0.607761
0.614732
0.621754
0.628871
0.636115
0.643516
0.651094
0.658866
0.66684
0.675021
0.683409
0.692
0.700785
0.709755
0.718894
0.728189
0.737622
0.747175
0.756828
0.76656
0.77635
0.786174
0.796011
0.805838
0.815631
0.825366
0.835022
0.844573
0.853996
0.863269
0.872368
0.88127
0.889951
0.898393
0.90657
0.914462
0.922047
0.929305
0.936215
0.942757
0.948911
0.954657
0.959977
0.96485
0.969259
0.973184
0.976609
0.979514
0.981884
0.983699
0.984945
0.985603
0.985657
0.985091
0.98389
0.98204
0.979522
0.976326
0.972435
0.967836
0.962514
0.956455
0.949647
0.942078
0.933733
0.924605
0.914684
0.90396
0.892432
0.880093
0.866942
0.852977
0.838201
0.822613
0.806221
0.78903
0.77105
0.752295
0.732782
0.712532
0.691572
0.669932
0.647656
0.624789
0.601391
0.577531
0.553298
0.528795
0.504153
0.479534
0.455133
0.431198
0.408032
0.386013
0.365599
0.34734
0.331875
0.319897
0.312102
0.30909
0.311276
0.318814
0.331582
0.349231
0.37127
0.397146
0.426321
0.458303
0.492662
0.529038
0.567127
0.606678
0.64748
0.689358
0.732163
0.775767
0.820064
0.864959
0.910369
0.956223
1.00246
1.04902
1.09585
1.14293
1.1902
1.23764
1.28521
1.33292
1.38073
1.42864
1.47664
1.52473
1.57291
1.62119
1.66955
1.71802
1.76657
1.81521
1.86395
1.91281
1.96179
2.0112
2.06068
2.11362
2.16078
0.0825039
0.123255
0.147725
0.168651
0.18875
0.208585
0.228315
0.247978
0.267542
0.28694
0.306094
0.324918
0.343324
0.361225
0.378536
0.39518
0.41109
0.426206
0.440485
0.453895
0.466419
0.478053
0.48881
0.498718
0.507813
0.516147
0.523777
0.53077
0.537196
0.543129
0.548643
0.55381
0.5587
0.56338
0.567912
0.57235
0.576745
0.581143
0.58558
0.59009
0.594698
0.599424
0.604281
0.60928
0.614426
0.619719
0.625153
0.630722
0.636414
0.642219
0.648121
0.654106
0.660156
0.666249
0.672369
0.67849
0.684593
0.690656
0.696656
0.702572
0.70838
0.71406
0.719587
0.724943
0.730104
0.735052
0.739766
0.744226
0.748417
0.75232
0.755915
0.759191
0.76213
0.764716
0.766939
0.768781
0.770231
0.771277
0.771906
0.772106
0.771868
0.771179
0.77003
0.76841
0.766309
0.763718
0.760627
0.757027
0.752911
0.748268
0.743091
0.737373
0.731104
0.724279
0.716889
0.708929
0.700393
0.691275
0.68157
0.671275
0.660391
0.648917
0.636857
0.624218
0.611009
0.59724
0.58293
0.568097
0.552768
0.536972
0.520749
0.504146
0.487218
0.47004
0.452695
0.435288
0.417951
0.400838
0.384137
0.368078
0.35293
0.339013
0.326694
0.316376
0.308491
0.303464
0.301678
0.303426
0.308884
0.318091
0.330951
0.347271
0.366784
0.389191
0.414188
0.441483
0.470809
0.501929
0.53464
0.568764
0.604151
0.640666
0.678195
0.716634
0.755894
0.795894
0.836561
0.87783
0.919639
0.961933
1.00466
1.04778
1.09124
1.135
1.17902
1.22328
1.26775
1.31238
1.35717
1.40208
1.44711
1.49223
1.53745
1.58275
1.62814
1.67361
1.71917
1.76482
1.81059
1.85647
1.90249
1.94863
1.99493
2.04141
2.0881
2.13504
2.18258
2.23031
2.28165
2.32704
0.110984
0.155816
0.179781
0.199205
0.217535
0.235549
0.253462
0.271316
0.289077
0.306662
0.32398
0.340935
0.357428
0.373367
0.388668
0.403256
0.417072
0.430062
0.442192
0.453439
0.463795
0.473264
0.481867
0.489633
0.496603
0.502827
0.508362
0.51327
0.517615
0.521462
0.524879
0.527929
0.530674
0.533172
0.535478
0.53764
0.539702
0.541703
0.543675
0.545647
0.54764
0.549671
0.551752
0.55389
0.55609
0.558351
0.560666
0.563029
0.565429
0.567854
0.570289
0.57272
0.575129
0.577495
0.579799
0.582022
0.58414
0.586135
0.587985
0.58967
0.591168
0.592458
0.593522
0.59434
0.594896
0.59517
0.595151
0.594821
0.594169
0.593182
0.591851
0.590166
0.588119
0.585704
0.582912
0.579741
0.576185
0.572241
0.567907
0.56318
0.558061
0.552547
0.546639
0.540338
0.533645
0.526562
0.519091
0.511235
0.502998
0.494384
0.485399
0.476049
0.466341
0.456286
0.445894
0.435178
0.424153
0.412839
0.40126
0.389447
0.377436
0.365272
0.353009
0.340717
0.328477
0.31639
0.304575
0.293177
0.282367
0.272345
0.263342
0.255619
0.249453
0.245135
0.242939
0.243109
0.245829
0.251204
0.259257
0.269934
0.283119
0.298653
0.316357
0.336048
0.357548
0.380694
0.405339
0.431351
0.458616
0.487033
0.516518
0.546994
0.578395
0.610659
0.643739
0.67758
0.712133
0.747356
0.783207
0.819651
0.856655
0.894183
0.932203
0.970685
1.0096
1.04891
1.08858
1.12861
1.16894
1.20956
1.25045
1.29155
1.33288
1.37438
1.41605
1.45786
1.49981
1.54186
1.58401
1.62624
1.66856
1.71094
1.75341
1.79595
1.83856
1.88127
1.92407
1.96699
2.01003
2.05323
2.09659
2.14014
2.18391
2.22792
2.27225
2.31696
2.3624
2.40816
2.45761
2.50101
0.138026
0.187087
0.210657
0.228615
0.245114
0.261162
0.277057
0.292872
0.308579
0.324106
0.339361
0.35425
0.368675
0.382544
0.395776
0.408297
0.420048
0.430985
0.441077
0.450308
0.458676
0.466188
0.472868
0.478745
0.483857
0.488251
0.491978
0.495093
0.497654
0.499717
0.50134
0.502577
0.503481
0.504103
0.504485
0.504669
0.50469
0.504581
0.504366
0.504068
0.503704
0.503285
0.502821
0.502316
0.501769
0.501175
0.500527
0.499816
0.499031
0.498157
0.497181
0.496083
0.494846
0.49345
0.491877
0.490104
0.488114
0.485886
0.4834
0.480635
0.477573
0.474193
0.470478
0.466411
0.461979
0.457167
0.451964
0.44636
0.440347
0.433919
0.42707
0.419798
0.4121
0.403977
0.395428
0.386458
0.377069
0.367266
0.357055
0.346446
0.335444
0.324063
0.312314
0.300212
0.287771
0.275013
0.261958
0.248637
0.235082
0.221336
0.207452
0.193503
0.179581
0.165814
0.152375
0.139504
0.127542
0.11695
0.108333
0.102416
0.099912
0.101313
0.106694
0.115723
0.127828
0.142416
0.158977
0.177117
0.196546
0.217056
0.238493
0.260752
0.28375
0.307429
0.331743
0.35666
0.382153
0.408202
0.43479
0.461905
0.489534
0.517668
0.546298
0.575417
0.605017
0.635092
0.665633
0.696634
0.728086
0.759981
0.792312
0.82507
0.858243
0.891824
0.925807
0.960173
0.99491
1.03
1.06544
1.10121
1.1373
1.17369
1.21037
1.24732
1.28452
1.32197
1.35964
1.39752
1.43559
1.47383
1.51224
1.55078
1.58945
1.62823
1.66712
1.70609
1.74515
1.78427
1.82345
1.8627
1.90201
1.94138
1.98082
2.02034
2.05994
2.09963
2.13944
2.1794
2.21951
2.25979
2.30029
2.34105
2.38207
2.42343
2.46522
2.5075
2.55061
2.59417
2.64148
2.68268
0.163139
0.216541
0.239841
0.256407
0.271086
0.285116
0.298889
0.312527
0.326035
0.339361
0.352427
0.365143
0.377417
0.389165
0.400309
0.410782
0.42053
0.429514
0.437705
0.445088
0.451662
0.457436
0.46243
0.466669
0.47019
0.473032
0.475241
0.476862
0.477946
0.47854
0.478693
0.478449
0.477853
0.476944
0.475758
0.474327
0.47268
0.47084
0.468829
0.466661
0.464344
0.461887
0.459293
0.456561
0.453688
0.450667
0.447487
0.444137
0.440604
0.436873
0.43293
0.428759
0.42434
0.419659
0.414698
0.409441
0.403872
0.397974
0.391732
0.385129
0.378149
0.37078
0.363008
0.354826
0.346226
0.337203
0.327755
0.317884
0.307593
0.296888
0.28578
0.274278
0.262402
0.250171
0.237615
0.224765
0.211664
0.198369
0.184949
0.1715
0.158149
0.14507
0.132506
0.120794
0.110396
0.101924
0.0961057
0.0936597
0.0950632
0.100357
0.10916
0.120873
0.134886
0.150691
0.167901
0.186234
0.205487
0.225514
0.246208
0.267491
0.289304
0.311602
0.334352
0.357525
0.3811
0.405062
0.429395
0.454087
0.479129
0.504515
0.530237
0.55629
0.582669
0.609369
0.636388
0.663722
0.691368
0.719325
0.747589
0.776159
0.805031
0.834205
0.863677
0.893444
0.923504
0.953855
0.984493
1.01541
1.04661
1.07809
1.10984
1.14184
1.1741
1.20662
1.23939
1.27239
1.30561
1.33907
1.37273
1.40659
1.44064
1.47488
1.5093
1.54387
1.57861
1.61348
1.64849
1.68362
1.71886
1.75421
1.78965
1.82517
1.86075
1.89641
1.93212
1.9679
2.00371
2.03957
2.07547
2.11143
2.14744
2.18351
2.21966
2.25588
2.29219
2.32864
2.36522
2.40197
2.43891
2.47608
2.51352
2.55124
2.58934
2.62785
2.66688
2.70651
2.7471
2.78823
2.83315
2.87197
0.186159
0.243977
0.267119
0.28237
0.295255
0.307248
0.318849
0.330242
0.341467
0.352504
0.363293
0.373768
0.383853
0.393472
0.402558
0.411046
0.418888
0.426043
0.432482
0.438192
0.443167
0.447413
0.450947
0.453791
0.455974
0.45753
0.4585
0.458921
0.458837
0.458288
0.457315
0.455956
0.454248
0.452223
0.449908
0.447331
0.444513
0.441475
0.438232
0.434797
0.431178
0.427377
0.4234
0.419248
0.414917
0.410409
0.405719
0.400843
0.395779
0.390529
0.385089
0.379463
0.373652
0.367663
0.361506
0.355195
0.348746
0.342177
0.335513
0.32878
0.322014
0.315257
0.308562
0.301988
0.295608
0.289499
0.283749
0.278457
0.273726
0.269667
0.266391
0.264013
0.262637
0.262364
0.263278
0.265446
0.268915
0.27371
0.279833
0.287266
0.295974
0.30591
0.31701
0.329212
0.342446
0.356644
0.371736
0.387659
0.404352
0.421759
0.439829
0.458513
0.47777
0.497564
0.517862
0.538632
0.559849
0.581487
0.603526
0.625948
0.648734
0.671871
0.695344
0.71914
0.743249
0.76766
0.792364
0.81735
0.842613
0.868145
0.893939
0.919987
0.946285
0.972825
0.999606
1.02662
1.05385
1.08133
1.10901
1.1369
1.16502
1.19334
1.22186
1.25059
1.27949
1.3086
1.33789
1.36736
1.39702
1.42685
1.45684
1.48699
1.51731
1.54776
1.57837
1.60912
1.64
1.67099
1.70211
1.73335
1.76469
1.79612
1.82765
1.85927
1.89097
1.92274
1.95457
1.98647
2.01842
2.05042
2.08246
2.11454
2.14666
2.1788
2.21098
2.24319
2.27543
2.3077
2.34001
2.37237
2.40478
2.43726
2.46982
2.50249
2.53527
2.5682
2.6013
2.6346
2.66815
2.70196
2.7361
2.77061
2.80556
2.841
2.87707
2.91384
2.95169
2.99017
3.03249
3.06876
0.207878
0.270281
0.29332
0.307237
0.318267
0.328127
0.337429
0.346425
0.355214
0.363819
0.372216
0.380361
0.388197
0.395659
0.402686
0.40922
0.415207
0.42061
0.425397
0.429549
0.43306
0.435931
0.438174
0.439809
0.440861
0.441363
0.441344
0.440842
0.439892
0.438534
0.436803
0.434738
0.432369
0.42973
0.42685
0.423755
0.420471
0.417022
0.41343
0.409713
0.405895
0.401996
0.398043
0.394057
0.390066
0.3861
0.382191
0.378376
0.374699
0.371208
0.367954
0.364991
0.362378
0.360181
0.358465
0.357301
0.356758
0.356905
0.357805
0.35952
0.362106
0.365616
0.37009
0.375561
0.382049
0.389567
0.398113
0.407673
0.41823
0.429753
0.442206
0.455549
0.469739
0.484726
0.500464
0.516905
0.534001
0.551705
0.569974
0.588765
0.608039
0.627758
0.647888
0.668396
0.689251
0.710429
0.731903
0.753652
0.775657
0.797899
0.820363
0.843036
0.865906
0.888961
0.912192
0.935591
0.959151
0.982866
1.00673
1.03074
1.0549
1.07919
1.10363
1.1282
1.1529
1.17773
1.20269
1.22778
1.25299
1.27833
1.30379
1.32937
1.35507
1.38087
1.4068
1.43284
1.459
1.48525
1.51161
1.53808
1.56466
1.59132
1.6181
1.64496
1.67192
1.69896
1.72609
1.7533
1.7806
1.80797
1.83542
1.86292
1.8905
1.91815
1.94584
1.97359
2.0014
2.02923
2.0571
2.08503
2.11297
2.14095
2.16895
2.19698
2.22503
2.25309
2.28117
2.30925
2.33736
2.36547
2.39359
2.42172
2.44984
2.478
2.50615
2.53433
2.56253
2.59077
2.61904
2.64737
2.67577
2.70426
2.73284
2.76156
2.79043
2.81948
2.84873
2.87824
2.90805
2.93819
2.96871
2.99968
3.03117
3.06325
3.09605
3.12967
3.16447
3.20001
3.23941
3.27289
0.227965
0.294622
0.317405
0.329875
0.338947
0.346569
0.353476
0.360006
0.366321
0.372489
0.378521
0.384393
0.390063
0.395472
0.40056
0.405268
0.409545
0.413345
0.416636
0.419392
0.421605
0.423276
0.424413
0.425038
0.425178
0.424862
0.424125
0.423006
0.421545
0.419788
0.417778
0.415558
0.413171
0.410659
0.408068
0.40545
0.40286
0.400352