/*--------------------------------*- C++ -*----------------------------------*\
| =========                 |                                                 |
| \\      /  F ield         | OpenFOAM: The Open Source CFD Toolbox           |
|  \\    /   O peration     | Version:  v1912                                 |
|   \\  /    A nd           | Website:  www.openfoam.com                      |
|    \\/     M anipulation  |                                                 |
\*---------------------------------------------------------------------------*/
FoamFile
{
    version     2.0;
    format      ascii;
    class       volScalarField;
    location    "280";
    object      turbulenceProperties:I;
}
// * * * * * * * * * * * * * * * * * * * * * * * * * * * * * * * * * * * * * //

dimensions      [0 0 0 0 0 0 0];


internalField   nonuniform List<scalar> 
12225
(
0.0624271
0.0842306
0.0989857
0.109183
0.116145
0.121098
0.124376
0.127106
0.129049
0.130542
0.131746
0.13272
0.133561
0.134238
0.134878
0.135294
0.135919
0.135737
0.0536601
0.0564519
0.0576305
0.0583491
0.0588973
0.0593349
0.059761
0.0602139
0.0608144
0.0614333
0.0622131
0.0629822
0.063902
0.0647718
0.0657601
0.0666765
0.0676385
0.0685751
0.0508141
0.0525935
0.0528537
0.0525394
0.052003
0.0512543
0.0504571
0.0496944
0.0489547
0.0483184
0.0477106
0.0472498
0.0467927
0.0465126
0.0461933
0.0460745
0.0458648
0.0458699
0.0500929
0.0506045
0.0506937
0.0505402
0.0503269
0.0499691
0.0495414
0.0490784
0.0485994
0.0481162
0.0476421
0.0471795
0.0467397
0.0463155
0.045925
0.0455456
0.0452084
0.0448769
0.0499498
0.0499836
0.049953
0.0498438
0.0497083
0.0494971
0.0492483
0.0489655
0.0486753
0.0483639
0.0480612
0.0477411
0.0474455
0.0471302
0.0468525
0.0465488
0.0462987
0.0460117
0.0499147
0.0497959
0.0496817
0.0495547
0.0494231
0.0492601
0.0490798
0.0488789
0.0486765
0.0484578
0.0482467
0.0480205
0.0478101
0.0475832
0.0473808
0.0471591
0.0469707
0.0467589
0.0499163
0.0497462
0.049581
0.0494274
0.0492851
0.0491337
0.0489792
0.0488153
0.0486532
0.0484827
0.0483176
0.048144
0.0479799
0.0478068
0.0476477
0.0474789
0.0473295
0.0471682
0.0499191
0.0497403
0.0495551
0.0493816
0.0492252
0.0490724
0.0489237
0.0487746
0.0486304
0.0484834
0.0483418
0.048197
0.0480585
0.0479171
0.0477841
0.0476477
0.0475227
0.0473939
0.0499201
0.0497438
0.0495565
0.0493754
0.0492094
0.049052
0.0489019
0.0487563
0.0486172
0.0484812
0.0483502
0.0482206
0.0480962
0.0479726
0.0478549
0.047738
0.0476286
0.0475195
0.0499201
0.0497477
0.0495648
0.0493845
0.0492151
0.0490542
0.0489018
0.0487557
0.0486175
0.0484845
0.0483578
0.0482352
0.0481173
0.0480031
0.0478939
0.0477879
0.0476877
0.0475904
0.0499199
0.0497507
0.0495732
0.0493961
0.0492277
0.0490666
0.048913
0.0487666
0.0486276
0.0484956
0.0483699
0.0482494
0.0481345
0.0480246
0.0479197
0.0478194
0.0477242
0.0476332
0.0499203
0.0497531
0.0495798
0.0494064
0.0492397
0.0490801
0.0489271
0.0487814
0.0486425
0.0485106
0.0483852
0.0482655
0.0481516
0.0480429
0.0479398
0.0478419
0.0477487
0.0476604
0.0499202
0.049755
0.049585
0.0494154
0.0492513
0.0490932
0.0489416
0.0487967
0.0486584
0.0485268
0.0484016
0.0482824
0.0481691
0.0480617
0.0479591
0.0478624
0.0477701
0.0476834
0.0499202
0.0497568
0.0495902
0.0494243
0.0492625
0.0491067
0.0489571
0.0488138
0.0486765
0.0485459
0.0484216
0.0483029
0.0481901
0.0480828
0.0479812
0.0478849
0.0477933
0.0477071
0.0499207
0.0497587
0.0495954
0.0494324
0.0492738
0.0491203
0.0489729
0.0488308
0.0486951
0.0485657
0.048442
0.0483244
0.0482126
0.0481059
0.048005
0.0479093
0.0478184
0.0477318
0.0499207
0.0497601
0.0495992
0.0494395
0.0492837
0.0491329
0.0489873
0.0488474
0.0487131
0.0485847
0.0484628
0.0483459
0.0482348
0.0481292
0.048029
0.0479335
0.0478428
0.0477569
0.0499206
0.0497616
0.0496025
0.0494458
0.0492923
0.0491434
0.049
0.0488618
0.0487292
0.0486022
0.048481
0.0483653
0.0482554
0.0481507
0.0480507
0.0479559
0.0478659
0.0477799
0.0499206
0.0497626
0.0496049
0.0494501
0.0492985
0.0491514
0.0490094
0.0488726
0.0487412
0.0486155
0.0484951
0.0483808
0.0482712
0.0481672
0.0480681
0.0479735
0.0478835
0.0477982
0.0499211
0.0497626
0.0496059
0.0494521
0.0493009
0.0491547
0.0490136
0.0488773
0.0487469
0.048622
0.048502
0.0483881
0.0482793
0.0481753
0.0480765
0.0479824
0.0478927
0.0478073
0.0499206
0.0497626
0.049605
0.0494501
0.0492986
0.0491514
0.0490099
0.0488731
0.0487426
0.0486169
0.0484974
0.048383
0.0482743
0.0481703
0.0480715
0.0479775
0.0478878
0.0478024
0.0499207
0.0497616
0.0496036
0.0494464
0.0492929
0.0491448
0.0490019
0.0488642
0.0487324
0.0486068
0.0484865
0.0483722
0.0482627
0.0481588
0.0480598
0.0479658
0.0478763
0.0477905
0.0499207
0.0497612
0.0496008
0.0494412
0.0492854
0.049135
0.0489909
0.0488521
0.0487197
0.048593
0.0484726
0.0483578
0.0482483
0.0481448
0.0480456
0.0479515
0.0478617
0.0477766
0.0499212
0.0497613
0.049598
0.0494342
0.0492761
0.0491247
0.0489798
0.0488411
0.0487083
0.0485826
0.0484621
0.0483479
0.0482387
0.0481346
0.0480355
0.0479406
0.0478502
0.0477636
0.0499212
0.0497618
0.0495958
0.0494305
0.0492727
0.0491241
0.0489819
0.0488462
0.0487162
0.0485919
0.0484721
0.048357
0.0482458
0.0481388
0.0480354
0.0479354
0.0478389
0.0477459
0.0499222
0.0497644
0.0496026
0.0494508
0.0493091
0.0491748
0.0490402
0.0489085
0.0487767
0.0486479
0.0485191
0.048393
0.0482678
0.0481458
0.0480252
0.0479084
0.0477929
0.0476818
0.0499263
0.049806
0.049693
0.0495834
0.0494763
0.0493654
0.0492313
0.0490872
0.0489306
0.0487718
0.048606
0.0484416
0.0482737
0.0481105
0.0479462
0.0477876
0.0476293
0.0474776
0.0499688
0.0500636
0.0501343
0.0500775
0.0499875
0.0498519
0.0496493
0.0494293
0.0491833
0.0489366
0.0486751
0.0484201
0.0481584
0.047906
0.0476518
0.0474086
0.0471661
0.0469363
0.050207
0.0512802
0.0517848
0.0516508
0.0514178
0.0510429
0.0506035
0.050168
0.0497084
0.0492701
0.0488228
0.0484034
0.047989
0.0476017
0.0472346
0.0468872
0.0465734
0.0462671
0.0518094
0.0534826
0.0540423
0.0542508
0.0543845
0.0545098
0.0546383
0.054782
0.0549504
0.0551301
0.0553387
0.0555575
0.0558043
0.0560585
0.0563578
0.0566333
0.0569839
0.057268
0.0567478
0.068483
0.0781367
0.0852573
0.0915038
0.0968492
0.101457
0.105243
0.108466
0.111001
0.113189
0.114808
0.116205
0.117357
0.118252
0.118967
0.119553
0.120023
1
1
1
1
1
1
1
1
1
1
1
1
1
1
1
1
1
1
1
1
1
1
1
1
1
1
1
1
1
0.91468
0.82404
0.749924
0.688469
0.636886
0.593161
0.555772
0.523579
0.495685
0.471381
0.450104
0.431398
0.414891
0.40029
0.387347
0.37586
0.365674
0.356676
0.348796
0.34162
0.335095
0.329122
0.323644
0.318602
0.313951
0.309645
0.305653
0.301947
0.298494
0.295279
0.292279
0.289477
0.286859
0.28441
0.282122
0.279982
0.277981
0.276115
0.274376
0.272756
0.271251
0.269858
0.26857
0.267386
0.266303
0.265317
0.264426
0.263627
0.262921
0.262305
0.261777
0.261337
0.260985
0.260718
0.260539
0.260444
0.260435
0.260513
0.260676
0.260926
0.261264
0.26169
0.262203
0.262808
0.263504
0.264293
0.265178
0.266162
0.267251
0.268448
0.269762
0.271208
0.272812
0.27457
0.276428
0.278406
0.280499
0.282714
0.285056
0.287527
0.290137
0.29289
0.295794
0.298855
0.302083
0.305486
0.309073
0.312855
0.316843
0.321049
0.325486
0.330171
0.335116
0.340343
0.345866
0.351711
0.357899
0.364455
0.371411
0.378795
0.386643
0.394993
0.403896
0.413412
0.423564
0.43442
0.446056
0.458589
0.472097
0.486658
0.502418
0.519516
0.538125
0.558442
0.580699
0.60518
0.632227
0.662247
0.695742
0.733338
0.775829
0.824211
0.87978
0.944244
1
1
1
1
1
1
1
1
1
1
1
1
1
1
1
1
1
1
1
1
1
1
1
0.966185
0.896865
0.835888
0.820031
1
1
1
1
1
1
1
1
1
1
1
1
1
1
1
1
1
1
1
1
1
1
1
1
0.961364
0.875467
0.803719
0.743441
0.692542
0.649323
0.612408
0.580714
0.553386
0.529729
0.50918
0.49124
0.475522
0.461706
0.449519
0.438733
0.429154
0.420617
0.412985
0.406135
0.399967
0.394386
0.389317
0.384699
0.380472
0.376603
0.373054
0.369801
0.366811
0.364064
0.361543
0.359224
0.357097
0.35515
0.353367
0.351741
0.350266
0.34893
0.347729
0.346657
0.34571
0.344882
0.344172
0.343576
0.343088
0.34271
0.34244
0.342273
0.342209
0.342247
0.342388
0.342629
0.342971
0.343413
0.343955
0.344598
0.345342
0.346187
0.347136
0.348186
0.349342
0.350605
0.351974
0.353454
0.355044
0.356748
0.358569
0.360509
0.362567
0.364753
0.367063
0.369502
0.37207
0.374766
0.377586
0.380522
0.383559
0.386671
0.389877
0.393251
0.396804
0.400545
0.404485
0.408634
0.413001
0.4176
0.422441
0.427535
0.432899
0.438546
0.444494
0.450764
0.457368
0.464333
0.471683
0.47944
0.487636
0.496299
0.505466
0.515172
0.525461
0.536382
0.547983
0.560327
0.573472
0.587498
0.602483
0.618523
0.635724
0.65421
0.674085
0.695515
0.718729
0.743953
0.771374
0.80131
0.83411
0.870175
0.910022
0.954248
1
1
1
1
1
1
1
1
1
1
1
1
1
1
1
1
1
1
1
1
1
1
1
1
1
1
1
1
1
1
1
1
1
1
0.955104
0.915702
1
1
1
1
1
1
1
1
1
1
1
1
1
1
1
1
1
1
1
1
1
0.994703
0.918942
0.854141
0.798606
0.750959
0.710033
0.674846
0.644544
0.618411
0.595841
0.576311
0.559371
0.544631
0.531764
0.520477
0.510521
0.501693
0.49382
0.48676
0.480391
0.474614
0.469346
0.464517
0.46007
0.455954
0.452136
0.448582
0.445269
0.442185
0.439315
0.436638
0.434148
0.43183
0.429674
0.427676
0.425823
0.42411
0.422531
0.421081
0.419759
0.418557
0.417473
0.416505
0.415651
0.414907
0.414274
0.413747
0.413331
0.41302
0.412816
0.412718
0.412728
0.412844
0.413066
0.413395
0.413833
0.414383
0.415041
0.415811
0.416696
0.417698
0.418816
0.420052
0.421412
0.422893
0.424501
0.426239
0.428111
0.430117
0.432261
0.434548
0.436983
0.439563
0.442297
0.445186
0.448229
0.451434
0.4548
0.458328
0.462021
0.4659
0.469976
0.474273
0.478802
0.483572
0.4886
0.493899
0.49948
0.505363
0.511562
0.518094
0.524976
0.532237
0.539895
0.547972
0.556503
0.565513
0.57504
0.585118
0.595783
0.607092
0.619082
0.631815
0.64535
0.659763
0.675121
0.691521
0.709053
0.727832
0.747979
0.769648
0.792996
0.818214
0.845513
0.875124
0.907407
0.942716
0.981421
1
1
1
1
1
1
1
1
1
1
1
1
1
1
1
1
1
1
1
1
1
1
1
1
1
1
1
1
1
1
1
1
1
1
1
1
1
1
0.995861
0.943233
0.901862
1
1
1
1
1
1
1
1
1
1
1
1
1
1
1
1
1
1
1
0.974522
0.912767
0.859048
0.812357
0.771838
0.736744
0.706412
0.680241
0.65769
0.638273
0.621557
0.607158
0.594733
0.583978
0.574624
0.56643
0.559203
0.552775
0.547009
0.541787
0.537017
0.532622
0.52854
0.524724
0.521136
0.517747
0.514533
0.511484
0.508583
0.505825
0.50321
0.500732
0.498384
0.496163
0.494071
0.492102
0.490253
0.488522
0.48691
0.485413
0.484029
0.48276
0.481601
0.480555
0.479619
0.478798
0.478083
0.477482
0.476993
0.476614
0.476349
0.476199
0.476163
0.476244
0.476444
0.476759
0.477197
0.477758
0.478442
0.479255
0.480195
0.481268
0.482471
0.483816
0.485296
0.48692
0.488692
0.49061
0.492684
0.494915
0.497306
0.499864
0.502588
0.505491
0.508572
0.511835
0.515288
0.518937
0.522783
0.52684
0.531112
0.53561
0.540354
0.545359
0.550638
0.556204
0.562075
0.568263
0.574791
0.581674
0.588929
0.596585
0.604662
0.613186
0.622187
0.631695
0.641741
0.65237
0.663619
0.675538
0.68817
0.701577
0.715818
0.730966
0.747099
0.764308
0.782681
0.802342
0.823406
0.846027
0.87036
0.896592
0.924945
0.955665
0.989034
1
1
1
1
1
1
1
1
1
1
1
1
1
1
1
1
1
1
1
1
1
1
1
1
1
1
1
1
1
1
1
1
1
1
1
1
1
1
1
1
1
1
1
0.958874
0.91197
0.872845
1
1
1
1
1
1
1
1
1
1
1
1
1
1
1
1
1
0.973199
0.919477
0.872427
0.83126
0.795329
0.764081
0.737012
0.713668
0.69362
0.67648
0.661873
0.649462
0.638936
0.63001
0.622427
0.615956
0.610392
0.60556
0.601311
0.597521
0.594092
0.590939
0.587998
0.58522
0.582567
0.580008
0.577529
0.575114
0.57276
0.570462
0.568225
0.566049
0.563938
0.561901
0.559938
0.558057
0.556262
0.554553
0.552938
0.551413
0.549983
0.548652
0.547424
0.546297
0.545275
0.544359
0.543554
0.542857
0.542273
0.541807
0.541455
0.541224
0.541116
0.541129
0.54127
0.541541
0.54194
0.542475
0.543146
0.543958
0.54491
0.54601
0.547258
0.548658
0.550211
0.551929
0.553806
0.555851
0.558068
0.560462
0.563038
0.565801
0.568753
0.571906
0.575259
0.578824
0.582602
0.586609
0.590842
0.595319
0.600046
0.60503
0.610291
0.615842
0.621698
0.627879
0.634402
0.641281
0.648538
0.656194
0.664272
0.672796
0.681793
0.691294
0.701329
0.711933
0.723148
0.735015
0.747579
0.760895
0.775019
0.790016
0.805958
0.822918
0.840993
0.860278
0.880888
0.902951
0.926601
0.952016
0.979377
1
1
1
1
1
1
1
1
1
1
1
1
1
1
1
1
1
1
1
1
1
1
1
1
1
1
1
1
1
1
1
1
1
1
1
1
1
1
1
1
1
1
1
1
1
1
1
1
0.959904
0.916042
0.874486
0.838912
1
1
1
1
1
1
1
1
1
1
1
1
1
1
1
0.984656
0.934497
0.890783
0.852622
0.819353
0.790439
0.765427
0.743929
0.725577
0.710034
0.696981
0.686114
0.677149
0.669818
0.663874
0.659085
0.655246
0.652166
0.649684
0.647656
0.645963
0.644505
0.643201
0.641989
0.640819
0.639656
0.638473
0.637255
0.635995
0.634691
0.633347
0.631968
0.630564
0.629146
0.627726
0.626315
0.624926
0.623563
0.622244
0.620976
0.619766
0.618622
0.61755
0.616562
0.615656
0.614842
0.614122
0.613509
0.612998
0.612601
0.612318
0.612158
0.612119
0.612211
0.612431
0.612792
0.613294
0.61394
0.61473
0.615674
0.616776
0.618034
0.619464
0.621057
0.622822
0.624768
0.626894
0.62921
0.631717
0.634424
0.637332
0.640451
0.64379
0.64735
0.651139
0.655172
0.659446
0.663979
0.668774
0.673844
0.679202
0.684856
0.690824
0.697122
0.703764
0.710771
0.718163
0.725966
0.734195
0.742878
0.752042
0.761712
0.771922
0.782706
0.794098
0.806143
0.818888
0.832374
0.846663
0.861814
0.87789
0.894972
0.913139
0.932485
0.95311
0.975139
0.998697
1
1
1
1
1
1
1
1
1
1
1
1
1
1
1
1
1
1
1
1
1
1
1
1
1
1
1
1
1
1
1
1
1
1
1
1
1
1
1
1
1
1
1
1
1
1
1
1
1
1
1
1
0.997438
0.951468
0.909473
0.871406
0.834767
0.803002
1
1
1
1
1
1
1
1
1
1
1
1
1
1
0.958571
0.914821
0.877108
0.844531
0.816417
0.792245
0.771595
0.754107
0.73946
0.727358
0.717524
0.709695
0.703617
0.699053
0.695779
0.693583
0.69227
0.691662
0.691598
0.691935
0.69255
0.693338
0.694213
0.695104
0.695954
0.696721
0.697375
0.697897
0.698277
0.698511
0.698604
0.698565
0.698403
0.698136
0.697779
0.69735
0.696866
0.696344
0.6958
0.69525
0.69471
0.694191
0.693706
0.69327
0.692895
0.692587
0.692354
0.692213
0.692172
0.692229
0.692405
0.692694
0.693116
0.693674
0.694367
0.695205
0.696201
0.697349
0.698665
0.700151
0.701813
0.703654
0.705685
0.707908
0.710328
0.712954
0.715787
0.718844
0.722122
0.725629
0.729379
0.733374
0.737623
0.74214
0.746924
0.752
0.757366
0.763033
0.769025
0.775344
0.782013
0.789039
0.796451
0.804261
0.812488
0.821164
0.83031
0.839959
0.850135
0.860872
0.872198
0.88416
0.896798
0.910149
0.924261
0.939199
0.95502
0.971783
0.98957
1
1
1
1
1
1
1
1
1
1
1
1
1
1
1
1
1
1
1
1
1
1
1
1
1
1
1
1
1
1
1
1
1
1
1
1
1
1
1
1
1
1
1
1
1
1
1
1
1
1
1
1
1
1
1
1
1
1
1
1
0.976534
0.934415
0.895624
0.859737
0.826751
0.794574
0.766486
1
1
1
1
1
1
1
1
1
1
1
1
0.993669
0.946542
0.906566
0.872527
0.843504
0.818802
0.797889
0.780333
0.765783
0.753931
0.744505
0.737251
0.731929
0.728314
0.726188
0.725342
0.725583
0.726725
0.728592
0.731029
0.733889
0.737041
0.740373
0.743785
0.747194
0.750531
0.753742
0.756785
0.75963
0.762255
0.764652
0.766818
0.768757
0.77048
0.772001
0.773339
0.774513
0.775546
0.776458
0.777271
0.778009
0.77869
0.779336
0.779967
0.780599
0.781252
0.781939
0.78268
0.783485
0.784369
0.785352
0.786435
0.787639
0.788968
0.790435
0.792052
0.793823
0.79577
0.797885
0.80018
0.802674
0.805371
0.808266
0.81138
0.814725
0.818299
0.822109
0.826171
0.830491
0.835081
0.839943
0.845091
0.85054
0.856292
0.862366
0.868773
0.875527
0.882645
0.890137
0.898028
0.906328
0.915061
0.924249
0.933912
0.94408
0.954784
0.966055
0.977923
0.990432
1
1
1
1
1
1
1
1
1
1
1
1
1
1
1
1
1
1
1
1
1
1
1
1
1
1
1
1
1
1
1
1
1
1
1
1
1
1
1
1
1
1
1
1
1
1
1
1
1
1
1
1
1
1
1
1
1
1
1
1
1
1
1
1
1
1
1
1
1
1
0.988828
0.94813
0.910292
0.875067
0.842262
0.811567
0.783016
0.754853
0.730189
1
1
1
1
1
1
1
1
1
1
1
0.986354
0.942014
0.904617
0.873044
0.846415
0.82406
0.805439
0.790122
0.777756
0.768043
0.760719
0.755548
0.752311
0.750798
0.750816
0.752173
0.754686
0.758182
0.762494
0.76747
0.772963
0.778835
0.784968
0.791249
0.797581
0.803882
0.810078
0.816112
0.821938
0.827519
0.832832
0.837861
0.8426
0.847049
0.85122
0.855123
0.858778
0.862206
0.865431
0.868475
0.871367
0.874132
0.876794
0.879381
0.881917
0.884424
0.886929
0.889452
0.892015
0.894636
0.897333
0.900131
0.903043
0.906084
0.909272
0.91262
0.916143
0.91986
0.923775
0.927901
0.932252
0.936839
0.941684
0.94678
0.952155
0.95781
0.963755
0.970013
0.976588
0.983499
0.990753
0.998361
1
1
1
1
1
1
1
1
1
1
1
1
1
1
1
1
1
1
1
1
1
1
1
1
1
1
1
1
1
1
1
1
1
1
1
1
1
1
1
1
1
1
1
1
1
1
1
1
1
1
1
1
1
1
1
1
1
1
1
1
1
1
1
1
1
1
1
1
1
1
1
1
1
1
1
1
1
1
1
1
1
1
1
1
1
1
0.987553
0.949536
0.913902
0.880455
0.849032
0.819481
0.791685
0.765408
0.740718
0.71613
0.694578
1
1
1
1
1
1
1
1
1
1
0.980974
0.93971
0.904815
0.875391
0.850713
0.830186
0.81332
0.799721
0.789045
0.781009
0.775368
0.771895
0.770392
0.770671
0.772554
0.775871
0.780458
0.786157
0.792815
0.800287
0.808429
0.817111
0.826205
0.835596
0.845176
0.854851
0.864534
0.874148
0.883628
0.892922
0.901985
0.910787
0.919303
0.927522
0.93544
0.943055
0.950381
0.957431
0.964224
0.970784
0.977134
0.983303
0.989319
0.995211
1
1
1
1
1
1
1
1
1
1
1
1
1
1
1
1
1
1
1
1
1
1
1
1
1
1
1
1
1
1
1
1
1
1
1
1
1
1
1
1
1
1
1
1
1
1
1
1
1
1
1
1
1
1
1
1
1
1
1
1
1
1
1
1
1
1
1
1
1
1
1
1
1
1
1
1
1
1
1
1
1
1
1
1
1
1
1
1
1
1
1
1
1
1
1
1
1
1
1
1
1
1
1
1
1
1
1
1
1
1
1
1
1
0.973113
0.938678
0.906152
0.875375
0.846237
0.818622
0.792432
0.767579
0.743987
0.721479
0.700137
0.678705
0.659912
1
1
1
1
1
1
1
1
1
0.971805
0.934956
0.903391
0.876576
0.854029
0.835328
0.820096
0.808003
0.798768
0.792137
0.787887
0.785829
0.785778
0.787575
0.791059
0.796084
0.802511
0.810202
0.81902
0.828836
0.839523
0.850958
0.863022
0.875606
0.8886
0.901904
0.915426
0.929084
0.942793
0.956492
0.97012
0.983628
0.996975
1
1
1
1
1
1
1
1
1
1
1
1
1
1
1
1
1
1
1
1
1
1
1
1
1
1
1
1
1
1
1
1
1
1
1
1
1
1
1
1
1
1
1
1
1
1
1
1
1
1
1
1
1
1
1
1
1
1
1
1
1
1
1
1
1
1
1
1
1
1
1
1
1
1
1
1
1
1
1
1
1
1
1
1
1
1
1
1
1
1
1
1
1
1
1
1
1
1
1
1
1
1
1
1
1
1
1
1
1
1
1
1
1
1
1
1
1
1
1
1
1
1
0.978775
0.946876
0.916549
0.887677
0.860165
0.833917
0.808857
0.784914
0.762025
0.740133
0.719183
0.699132
0.679837
0.661401
0.642748
0.626384
1
1
1
1
1
1
1
0.988395
0.954209
0.923718
0.896938
0.873782
0.85409
0.837673
0.82433
0.813857
0.806057
0.800752
0.79777
0.796953
0.798156
0.801246
0.806091
0.812574
0.820576
0.829984
0.840688
0.852584
0.865565
0.879532
0.894384
0.910024
0.926359
0.943301
0.960763
0.978663
0.99693
1
1
1
1
1
1
1
1
1
1
1
1
1
1
1
1
1
1
1
1
1
1
1
1
1
1
1
1
1
1
1
1
1
1
1
1
1
1
1
1
1
1
1
1
1
1
1
1
1
1
1
1
1
1
1
1
1
1
1
1
1
1
1
1
1
1
1
1
1
1
1
1
1
1
1
1
1
1
1
1
1
1
1
1
1
1
1
1
1
1
1
1
1
1
1
1
1
1
1
1
1
1
1
1
1
1
1
1
1
1
1
1
1
1
1
1
1
1
1
1
1
1
1
0.995988
0.966319
0.93794
0.910777
0.884752
0.859789
0.835829
0.812809
0.790678
0.769381
0.748877
0.72913
0.710101
0.69176
0.674072
0.657008
0.640464
0.624543
0.608326
0.594092
1
1
1
1
0.995448
0.972547
0.948679
0.925208
0.903028
0.882694
0.864554
0.848779
0.83546
0.824597
0.816149
0.810049
0.806214
0.804541
0.804934
0.807295
0.811526
0.817538
0.825238
0.834545
0.845375
0.857641
0.871267
0.886178
0.902302
0.91957
0.937908
0.957252
0.977536
0.998696
1
1
1
1
1
1
1
1
1
1
1
1
1
1
1
1
1
1
1
1
1
1
1
1
1
1
1
1
1
1
1
1
1
1
1
1
1
1
1
1
1
1
1
1
1
1
1
1
1
1
1
1
1
1
1
1
1
1
1
1
1
1
1
1
1
1
1
1
1
1
1
1
1
1
1
1
1
1
1
1
1
1
1
1
1
1
1
1
1
1
1
1
1
1
1
1
1
1
1
1
1
1
1
1
1
1
1
1
1
1
1
1
1
1
1
1
1
1
1
1
1
1
0.988481
0.962352
0.937185
0.912934
0.889547
0.866985
0.845199
0.824149
0.803798
0.78411
0.765054
0.746592
0.7287
0.711352
0.694523
0.678189
0.662338
0.646946
0.631992
0.617462
0.603277
0.589534
0.575451
0.563078
0.93767
0.898072
0.908888
0.910488
0.905145
0.895685
0.884024
0.87146
0.858927
0.847076
0.836378
0.827144
0.819584
0.813822
0.80992
0.807902
0.807769
0.809489
0.813034
0.818361
0.825419
0.834164
0.844544
0.856514
0.870033
0.885065
0.901545
0.919426
0.938664
0.95922
0.981059
1
1
1
1
1
1
1
1
1
1
1
1
1
1
1
1
1
1
1
1
1
1
1
1
1
1
1
1
1
1
1
1
1
1
1
1
1
1
1
1
1
1
1
1
1
1
1
1
1
1
1
1
1
1
1
1
1
1
1
1
1
1
1
1
1
1
1
1
1
1
1
1
1
1
1
1
1
1
1
1
1
1
1
1
1
1
1
1
1
1
1
1
1
1
1
1
1
1
1
1
1
1
1
1
1
1
1
1
1
1
1
1
1
1
1
1
1
1
1
1
0.979945
0.957508
0.935734
0.9146
0.894076
0.874147
0.854786
0.835967
0.817669
0.799867
0.782544
0.765676
0.749247
0.733238
0.717625
0.702399
0.687538
0.67303
0.658861
0.645016
0.631489
0.618265
0.605338
0.592692
0.580319
0.568158
0.556305
0.544087
0.533345
0.838969
0.799113
0.817187
0.827672
0.831791
0.831772
0.82918
0.825133
0.820458
0.815781
0.811574
0.808185
0.805881
0.804855
0.805224
0.807082
0.810483
0.815467
0.822051
0.83024
0.840031
0.85142
0.864391
0.878933
0.895023
0.912635
0.931752
0.952381
0.974512
0.998141
1
1
1
1
1
1
1
1
1
1
1
1
1
1
1
1
1
1
1
1
1
1
1
1
1
1
1
1
1
1
1
1
1
1
1
1
1
1
1
1
1
1
1
1
1
1
1
1
1
1
1
1
1
1
1
1
1
1
1
1
1
1
1
1
1
1
1
1
1
1
1
1
1
1
1
1
1
1
1
1
1
1
1
1
1
1
1
1
1
1
1
1
1
1
1
1
1
1
1
1
1
1
1
1
1
1
1
1
1
1
1
1
1
0.998422
0.979303
0.960596
0.942288
0.924374
0.906844
0.889686
0.872893
0.856459
0.840365
0.824618
0.809194
0.794094
0.779303
0.764813
0.750617
0.736705
0.723065
0.709691
0.69657
0.683695
0.671055
0.658644
0.646449
0.634467
0.622686
0.611104
0.59971
0.5885
0.577469
0.566615
0.555923
0.545396
0.534976
0.524763
0.514177
0.504861
0.764694
0.721044
0.743132
0.759369
0.77013
0.777155
0.781698
0.784657
0.786693
0.788336
0.789995
0.792001
0.794621
0.798061
0.802496
0.80806
0.814862
0.822975
0.832477
0.843419
0.855843
0.869779
0.885246
0.902265
0.92085
0.941014
0.962781
0.986162
1
1
1
1
1
1
1
1
1
1
1
1
1
1
1
1
1
1
1
1
1
1
1
1
1
1
1
1
1
1
1
1
1
1
1
1
1
1
1
1
1
1
1
1
1
1
1
1
1
1
1
1
1
1
1
1
1
1
1
1
1
1
1
1
1
1
1
1
1
1
1
1
1
1
1
1
1
1
1
1
1
1
1
1
1
1
1
1
1
1
1
1
1
1
1
1
1
1
1
1
1
1
1
1
1
0.990699
0.97624
0.961924
0.947772
0.933789
0.919968
0.906304
0.89281
0.87947
0.866298
0.853282
0.84043
0.827741
0.81521
0.802841
0.790627
0.778573
0.766677
0.754935
0.743352
0.731917
0.720637
0.709502
0.698515
0.687668
0.676963
0.666393
0.655956
0.645645
0.635459
0.625392
0.61544
0.605598
0.595864
0.586231
0.576695
0.567255
0.557908
0.548648
0.539476
0.530389
0.521379
0.512447
0.503549
0.494774
0.48563
0.477575
0.708144
0.660083
0.684065
0.704028
0.71948
0.731776
0.741898
0.750515
0.758134
0.765153
0.771903
0.778674
0.785708
0.79323
0.801436
0.810498
0.820568
0.831779
0.844233
0.858018
0.873206
0.889856
0.908018
0.927735
0.949032
0.971936
0.996473
1
1
1
1
1
1
1
1
1
1
1
1
1
1
1
1
1
1
1
1
1
1
1
1
1
1
1
1
1
1
1
1
1
1
1
1
1
1
1
1
1
1
1
1
1
1
1
1
1
1
1
1
1
1
1
1
1
1
1
1
1
1
1
1
1
1
1
1
1
1
1
1
1
1
1
1
1
1
1
1
1
1
1
1
1
1
1
1
0.992099
0.983054
0.974005
0.964956
0.955903
0.946849
0.937784
0.928714
0.919645
0.910564
0.901482
0.892397
0.883309
0.874218
0.865127
0.856041
0.846964
0.837903
0.828874
0.819841
0.810818
0.801816
0.792841
0.783888
0.774964
0.766071
0.757209
0.748381
0.739591
0.730841
0.72213
0.713464
0.70484
0.696264
0.687734
0.679254
0.670824
0.662446
0.654117
0.645839
0.637613
0.629435
0.62131
0.613232
0.605203
0.597219
0.589278
0.581378
0.573517
0.565693
0.557901
0.550139
0.542408
0.534705
0.527026
0.51937
0.511737
0.504124
0.49653
0.488949
0.481382
0.473796
0.46627
0.458384
0.451427
0.664113
0.612393
0.637804
0.660585
0.679647
0.696064
0.710599
0.72376
0.735909
0.747355
0.75836
0.769176
0.780036
0.791169
0.802806
0.815144
0.828374
0.842651
0.858118
0.874891
0.893071
0.91274
0.933951
0.956765
0.981179
1
1
1
1
1
1
1
1
1
1
1
1
1
1
1
1
1
1
1
1
1
1
1
1
1
1
1
1
1
1
1
1
1
1
1
1
1
1
1
1
1
1
1
1
1
1
1
1
1
1
1
1
1
1
1
1
0.991977
0.983857
0.976095
0.968674
0.961565
0.95474
0.948179
0.941869
0.935776
0.92989
0.924195
0.918657
0.913273
0.908024
0.902894
0.897861
0.892924
0.888055
0.883257
0.878505
0.873793
0.869116
0.864456
0.859807
0.85516
0.850514
0.84586
0.841186
0.836488
0.831764
0.827007
0.822211
0.817369
0.812484
0.807549
0.802567
0.797537
0.792454
0.787324
0.782137
0.776895
0.771602
0.766254
0.760854
0.755403
0.749898
0.744344
0.738743
0.733094
0.7274
0.721661
0.715904
0.710107
0.704254
0.698368
0.692451
0.686506
0.680531
0.674531
0.668509
0.662466
0.656406
0.650329
0.644236
0.638134
0.632022
0.6259
0.619771
0.613639
0.607501
0.601359
0.595219
0.589076
0.582932
0.576789
0.570645
0.564501
0.558353
0.552205
0.546054
0.539896
0.533733
0.52756
0.521379
0.515185
0.508976
0.50275
0.496504
0.490239
0.483951
0.47764
0.471304
0.46494
0.458546
0.452121
0.445639
0.439168
0.432354
0.426332
0.626115
0.572483
0.599612
0.625072
0.647404
0.667471
0.685858
0.702936
0.718986
0.734244
0.748956
0.763348
0.777677
0.7922
0.807191
0.822905
0.83955
0.857317
0.876389
0.896924
0.919025
0.942751
0.968084
0.99488
1
1
1
1
1
1
1
1
1
1
1
1
1
1
1
1
1
1
1
1
1
1
1
1
1
1
1
1
1
1
1
1
1
1
0.995781
0.979011
0.963129
0.948097
0.933894
0.920476
0.90781
0.895862
0.884592
0.873959
0.863936
0.854489
0.845583
0.837186
0.829269
0.821804
0.814766
0.808125
0.801859
0.795944
0.790356
0.785077
0.780083
0.775359
0.770884
0.766639
0.762611
0.758784
0.755138
0.75166
0.748338
0.745158
0.742103
0.739165
0.736331
0.733587
0.730924
0.728334
0.7258
0.723317
0.720876
0.718463
0.716075
0.713703
0.711339
0.708974
0.706602
0.704209
0.701796
0.699359
0.696894
0.694394
0.69186
0.689285
0.686666
0.684008
0.681301
0.678541
0.675729
0.672859
0.669932
0.666944
0.663896
0.66079
0.65762
0.654388
0.651095
0.647739
0.644323
0.640844
0.637305
0.633705
0.630045
0.626337
0.622592
0.618777
0.614907
0.610987
0.607017
0.603001
0.598938
0.594834
0.590687
0.5865
0.582275
0.578014
0.573717
0.569386
0.565024
0.560628
0.556203
0.55175
0.547269
0.54276
0.538224
0.533661
0.529072
0.524457
0.519815
0.515146
0.510448
0.50572
0.500963
0.496172
0.491347
0.486487
0.481587
0.476648
0.471663
0.466635
0.461559
0.456432
0.451253
0.446022
0.440734
0.435389
0.429982
0.424514
0.418961
0.413386
0.407486
0.402255
0.590389
0.537009
0.566591
0.595101
0.620815
0.644423
0.666397
0.687038
0.706601
0.725331
0.743497
0.76137
0.779228
0.797413
0.816312
0.836277
0.857524
0.880219
0.904448
0.930279
0.957967
0.987549
1
1
1
1
1
1
1
1
1
1
1
1
1
1
1
1
1
1
1
1
1
1
1
0.998544
0.97428
0.951295
0.92952
0.908936
0.88954
0.871277
0.854102
0.837971
0.822818
0.808592
0.795243
0.782713
0.770952
0.759913
0.749553
0.739823
0.730692
0.722118
0.714066
0.706507
0.699412
0.692753
0.686499
0.680631
0.675124
0.669957
0.665108
0.660561
0.656294
0.652295
0.648543
0.645028
0.64173
0.638639
0.635737
0.63302
0.630469
0.628071
0.625823
0.62371
0.62172
0.619846
0.618077
0.616403
0.614816
0.613309
0.61187
0.610492
0.60917
0.607893
0.606657
0.605453
0.604268
0.603098
0.601935
0.600776
0.599617
0.598455
0.597284
0.596105
0.594909
0.59369
0.592444
0.591166
0.589853
0.588505
0.587115
0.585682
0.584205
0.58268
0.581107
0.57948
0.577801
0.576068
0.574279
0.572433
0.57053
0.56857
0.566552
0.564473
0.562337
0.560143
0.557889
0.555576
0.553204
0.550796
0.548332
0.545804
0.543222
0.540587
0.537903
0.53517
0.532388
0.52956
0.526686
0.523766
0.520803
0.517798
0.514749
0.511662
0.508535
0.505367
0.50216
0.498916
0.495633
0.492314
0.488957
0.485561
0.482129
0.478657
0.475145
0.471594
0.468001
0.464365
0.460684
0.456955
0.453178
0.449348
0.445465
0.441523
0.437523
0.433459
0.42933
0.425134
0.420866
0.416525
0.412107
0.407611
0.403031
0.39837
0.393604
0.38879
0.383673
0.379112
0.554368
0.503808
0.537108
0.569405
0.598859
0.62609
0.651544
0.675602
0.698605
0.720902
0.742896
0.765022
0.787577
0.811016
0.835747
0.862087
0.89055
0.92135
0.954705
0.99086
1
1
1
1
1
1
1
1
1
1
1
1
1
1
1
1
0.998382
0.96562
0.935104
0.906638
0.880119
0.855451
0.832533
0.811177
0.791245
0.772698
0.755441
0.73939
0.724444
0.710511
0.697513
0.685377
0.674036
0.663435
0.653522
0.644242
0.63555
0.627405
0.619775
0.61262
0.60591
0.599614
0.593711
0.588172
0.58298
0.578111
0.573549
0.569274
0.565271
0.561524
0.558021
0.554744
0.551685
0.548829
0.546167
0.543686
0.541379
0.539233
0.537241
0.535392
0.533678
0.532091
0.530625
0.529269
0.528018
0.526863
0.525798
0.524817
0.52391
0.523074
0.522303
0.521587
0.520923
0.520296
0.519704
0.519144
0.518611
0.5181
0.517609
0.517139
0.516675
0.516216
0.515754
0.515289
0.514811
0.514324
0.513819
0.513294
0.512746
0.512171
0.511568
0.510933
0.510263
0.509558
0.508813
0.508028
0.507201
0.506329
0.505412
0.504448
0.503436
0.502376
0.501266
0.500106
0.498895
0.497633
0.49632
0.494954
0.493535
0.492062
0.490547
0.488994
0.487379
0.485714
0.484
0.482238
0.480429
0.478574
0.476675
0.47473
0.472742
0.47071
0.468637
0.466522
0.464366
0.462169
0.459932
0.457656
0.45534
0.452984
0.450588
0.448151
0.445675
0.443157
0.440598
0.437996
0.43535
0.432659
0.42992
0.427133
0.424294
0.421401
0.418452
0.415443
0.412372
0.409235
0.406029
0.402751
0.399397
0.395963
0.392448
0.388845
0.385153
0.381369
0.377487
0.373507
0.369412
0.365248
0.360801
0.35681
0.516919
0.471985
0.51059
0.547597
0.581185
0.612181
0.641305
0.669334
0.696879
0.724483
0.75267
0.781496
0.811957
0.84521
0.882573
0.925113
0.972843
1
1
1
1
1
1
1
1
1
1
1
1
0.98697
0.94478
0.906513
0.871824
0.84022
0.811376
0.785037
0.7609
0.738723
0.718199
0.69928
0.681851
0.665776
0.65093
0.637189
0.62444
0.612586
0.601548
0.591256
0.58165
0.572682
0.564291
0.556439
0.549082
0.542184
0.535712
0.529641
0.523939
0.518583
0.513554
0.50883
0.504392
0.500225
0.496314
0.492643
0.4892
0.485976
0.482955
0.480132
0.477493
0.475029
0.472734
0.470597
0.46861
0.46677
0.465067
0.463494
0.462046
0.460715
0.459496
0.458381
0.457365
0.456443
0.455611
0.454863
0.454194
0.453598
0.453069
0.452598
0.452183
0.451817
0.4515
0.451225
0.450987
0.450795
0.450634
0.450501
0.450388
0.450294
0.450214
0.450143
0.450078
0.450017
0.449955
0.449889
0.449815
0.449731
0.449634
0.44952
0.449387
0.449233
0.449055
0.448852
0.448621
0.448359
0.448066
0.447739
0.447379
0.446981
0.446547
0.446072
0.445557
0.445001
0.444404
0.443764
0.443081
0.442353
0.441582
0.440765
0.439901
0.438994
0.43806
0.437077
0.436046
0.434971
0.433855
0.432697
0.431498
0.430258
0.428979
0.42766
0.426302
0.424907
0.423473
0.422002
0.420495
0.41895
0.417368
0.415751
0.414096
0.412402
0.410672
0.408903
0.407095
0.405248
0.403359
0.401428
0.399453
0.397432
0.395363
0.393244
0.391073
0.388845
0.386558
0.38421
0.381795
0.379312
0.376754
0.37412
0.371405
0.368604
0.365713
0.362729
0.359647
0.356462
0.353171
0.34977
0.346247
0.342637
0.338768
0.335258
0.474591
0.438776
0.486144
0.52968
0.56867
0.605007
0.639991
0.674568
0.710051
0.748913
0.793559
0.846467
0.908653
0.981802
1
1
1
1
1
1
1
1
1
0.945044
0.895378
0.852398
0.814481
0.780723
0.750532
0.723343
0.698783
0.676341
0.655826
0.63712
0.620042
0.604409
0.590064