/*--------------------------------*- C++ -*----------------------------------*\
| =========                 |                                                 |
| \\      /  F ield         | OpenFOAM: The Open Source CFD Toolbox           |
|  \\    /   O peration     | Version:  v1912                                 |
|   \\  /    A nd           | Website:  www.openfoam.com                      |
|    \\/     M anipulation  |                                                 |
\*---------------------------------------------------------------------------*/
FoamFile
{
    version     2.0;
    format      ascii;
    class       volVectorField;
    location    "280";
    object      wallShearStress;
}
// * * * * * * * * * * * * * * * * * * * * * * * * * * * * * * * * * * * * * //

dimensions      [0 2 -2 0 0 0 0];


internalField   uniform (0 0 0);

boundaryField
{
    inlet
    {
        type            calculated;
        value           uniform (0 0 0);
    }
    outlet
    {
        type            calculated;
        value           uniform (0 0 0);
    }
    upperWall
    {
        type            calculated;
        value           nonuniform List<vector> 
223
(
(-0.467731 -0.0480816 0)
(-0.469043 -0.0465936 0)
(-0.46321 -0.0325591 0)
(-0.454403 -0.0212413 0)
(-0.460307 -0.0139605 0)
(-0.463636 -0.0089041 0)
(-0.463829 -0.00542733 0)
(-0.461268 -0.00304837 0)
(-0.45737 -0.00143896 0)
(-0.452061 -0.000361506 0)
(-0.446609 0.000343669 0)
(-0.440381 0.000788962 0)
(-0.434451 0.00106325 0)
(-0.428698 0.00121886 0)
(-0.423028 0.00129285 0)
(-0.417606 0.00131884 0)
(-0.412467 0.00131565 0)
(-0.407627 0.00134436 0)
(-0.4036 0.00140027 0)
(-0.400341 0.00144055 0)
(-0.397099 0.00143801 0)
(-0.393894 0.00140638 0)
(-0.39073 0.0013557 0)
(-0.387618 0.0012928 0)
(-0.384568 0.00122209 0)
(-0.381588 0.00114706 1.17901e-21)
(-0.37868 0.00107016 0)
(-0.375849 0.000992957 1.19109e-21)
(-0.373098 0.000916748 1.1968e-21)
(-0.370429 0.000842403 0)
(-0.367843 0.000770514 0)
(-0.365341 0.000701573 -1.2129e-21)
(-0.362923 0.000636013 -1.21798e-21)
(-0.360589 0.000573984 0)
(-0.358339 0.000515569 1.22777e-21)
(-0.356173 0.000460965 0)
(-0.354087 0.000410209 0)
(-0.352083 0.000363187 -1.24179e-21)
(-0.350157 0.000320052 1.24632e-21)
(-0.34831 0.000280748 0)
(-0.346534 0.000245067 0)
(-0.344835 0.000213035 0)
(-0.343201 0.000184711 0)
(-0.341639 0.000159906 -1.26846e-21)
(-0.340135 0.000138691 -1.27281e-21)
(-0.338699 0.000121096 0)
(-0.337311 0.000107804 1.28151e-21)
(-0.336436 0.000100886 0)
(-0.335999 0.000100127 0)
(-0.335574 0.000103486 -1.30323e-21)
(-0.335158 0.0001096 0)
(-0.33475 0.000117479 0)
(-0.334349 0.000126457 0)
(-0.333954 0.000136163 -1.33514e-21)
(-0.333565 0.000146488 -1.34322e-21)
(-0.33318 0.000157255 1.35134e-21)
(-0.3328 0.000168339 -1.3595e-21)
(-0.332423 0.000179738 0)
(-0.332049 0.000191462 0)
(-0.331677 0.000203393 0)
(-0.331307 0.000215548 1.3925e-21)
(-0.330937 0.000227994 0)
(-0.330567 0.000240562 1.40922e-21)
(-0.330196 0.000253223 -1.41764e-21)
(-0.329823 0.000265987 0)
(-0.329449 0.000278858 0)
(-0.32907 0.000291755 0)
(-0.328688 0.000304638 0)
(-0.328302 0.000317421 2.92038e-21)
(-0.32791 0.000330059 2.93755e-21)
(-0.327512 0.000342557 0)
(-0.327108 0.000354875 0)
(-0.326697 0.000366937 2.98918e-21)
(-0.326278 0.000378665 0)
(-0.325851 0.000390068 0)
(-0.325416 0.000401163 0)
(-0.324971 0.000411883 -3.05776e-21)
(-0.324516 0.000422173 0)
(-0.324051 0.000432064 0)
(-0.323576 0.000441537 0)
(-0.323089 0.00045051 0)
(-0.322591 0.000459065 0)
(-0.322081 0.000467209 0)
(-0.32156 0.000474869 0)
(-0.321025 0.000482135 0)
(-0.320478 0.000489022 0)
(-0.319917 0.000495539 3.2184e-21)
(-0.319342 0.000501729 3.23267e-21)
(-0.318753 0.000507657 0)
(-0.318149 0.000513301 0)
(-0.31753 0.0005187 -3.27233e-21)
(-0.316894 0.000523848 0)
(-0.316244 0.000528806 0)
(-0.315575 0.000533541 0)
(-0.314891 0.000538037 0)
(-0.314189 0.000542432 0)
(-0.313469 0.000546724 0)
(-0.31273 0.000550872 0)
(-0.311972 0.000554942 0)
(-0.311195 0.000559065 3.3487e-21)
(-0.310397 0.000563131 0)
(-0.30958 0.000567229 -3.35339e-21)
(-0.30874 0.000571381 0)
(-0.307879 0.000575569 0)
(-0.306996 0.000579909 0)
(-0.306088 0.000584309 0)
(-0.305157 0.000588772 0)
(-0.304202 0.000593361 0)
(-0.303221 0.000598073 0)
(-0.302215 0.000602806 0)
(-0.301183 0.000607704 0)
(-0.300123 0.000612657 0)
(-0.299035 0.000617702 0)
(-0.297919 0.000622743 0)
(-0.296774 0.000627818 0)
(-0.295601 0.000632753 0)
(-0.294398 0.000637742 0)
(-0.293165 0.000642739 6.22599e-21)
(-0.291902 0.000647569 0)
(-0.290608 0.000652324 0)
(-0.289284 0.000656914 -5.98102e-21)
(-0.28793 0.000661332 0)
(-0.286544 0.000665581 5.78145e-21)
(-0.285128 0.000669481 0)
(-0.283682 0.000673074 5.55008e-21)
(-0.282206 0.00067638 0)
(-0.280701 0.000679455 5.28457e-21)
(-0.279166 0.00068228 0)
(-0.277602 0.000684415 0)
(-0.276013 0.00068582 0)
(-0.274396 0.000687121 4.64102e-21)
(-0.272754 0.00068811 0)
(-0.271085 0.000689707 4.25789e-21)
(-0.269388 0.000689407 0)
(-0.267673 0.000689059 3.83067e-21)
(-0.265932 0.000687868 0)
(-0.264176 0.000687516 0)
(-0.262391 0.000686758 0)
(-0.260591 0.000686822 0)
(-0.25876 0.000686379 0)
(-0.256916 0.000686415 0)
(-0.255041 0.000686691 0)
(-0.253149 0.0006868 0)
(-0.251229 0.000686456 -1.30206e-21)
(-0.249292 0.000683952 0)
(-0.247343 0.000680452 0)
(-0.245381 0.000676411 0)
(-0.243411 0.000671816 1.74045e-22)
(-0.241431 0.000666993 0)
(-0.239446 0.000661761 0)
(-0.237456 0.000656283 0)
(-0.235464 0.000650361 0)
(-0.233468 0.000644212 2.35631e-21)
(-0.231474 0.000637796 2.83919e-21)
(-0.22948 0.000630982 -3.33788e-21)
(-0.227491 0.00062393 0)
(-0.225506 0.000616421 0)
(-0.223528 0.000608593 0)
(-0.22156 0.000600174 0)
(-0.219602 0.00059166 -1.21397e-20)
(-0.217659 0.000582333 -1.33286e-20)
(-0.215731 0.000572863 0)
(-0.213822 0.00056274 0)
(-0.211932 0.000552987 0)
(-0.210064 0.000542784 0)
(-0.208214 0.000533164 -1.97466e-20)
(-0.206389 0.000523098 -2.11246e-20)
(-0.204582 0.000513958 0)
(-0.202799 0.000504241 -2.39737e-20)
(-0.201033 0.000495806 0)
(-0.199289 0.000486687 0)
(-0.197561 0.000478947 0)
(-0.195853 0.00047048 -3.00503e-20)
(-0.194158 0.000463714 -3.16493e-20)
(-0.192478 0.000456112 0)
(-0.190808 0.000450512 0)
(-0.189148 0.0004442 0)
(-0.187489 0.000440294 -3.83923e-20)
(-0.185831 0.000435707 -4.01728e-20)
(-0.184165 0.000433894 0)
(-0.182486 0.0004316 0)
(-0.180785 0.000432478 -4.57693e-20)
(-0.179055 0.000433071 -4.77368e-20)
(-0.177283 0.000437161 0)
(-0.17546 0.000441301 0)
(-0.173569 0.000449602 0)
(-0.171596 0.000458777 0)
(-0.169518 0.00047297 -5.85661e-20)
(-0.167311 0.00048935 0)
(-0.164942 0.000512657 0)
(-0.162372 0.000540124 0)
(-0.159547 0.000578755 6.9125e-20)
(-0.156414 0.000627177 -7.22304e-20)
(-0.152749 0.000700178 0)
(-0.14881 0.000806091 7.93337e-20)
(-0.142707 0.000986181 8.34077e-20)
(-0.138769 0.00152841 0)
(-0.117256 0.00177871 9.65112e-20)
(-0.132349 0.0068868 0)
(-0.162537 0.0133039 -1.07936e-17)
(-0.181266 0.0169233 6.62038e-35)
(-0.190464 0.0187388 0)
(-0.197637 0.019836 1.90857e-17)
(-0.204264 0.0206893 -1.84993e-17)
(-0.209938 0.0214028 -2.57037e-21)
(-0.214876 0.0220033 -1.74408e-17)
(-0.219367 0.0225269 7.52316e-37)
(-0.223786 0.0230038 -1.64043e-17)
(-0.22816 0.0234685 1.58703e-17)
(-0.232735 0.0239301 -3.06397e-17)
(-0.237502 0.0244118 1.20371e-35)
(-0.242702 0.0249187 0)
(-0.248285 0.0254699 -1.20371e-35)
(-0.254479 0.0260678 -2.54056e-17)
(-0.261272 0.0267276 -6.01853e-36)
(-0.268874 0.02746 3.85303e-21)
(-0.277442 0.0282869 -1.46937e-39)
(-0.286802 0.0292053 6.01853e-36)
(-0.297985 0.0302639 -3.08492e-17)
(-0.308893 0.0313868 -9.18592e-21)
(-0.325815 0.0328779 1.50463e-36)
(-0.333979 0.0340838 1.11892e-17)
(-0.364785 0.03618 -6.85437e-18)
)
;
    }
    lowerWall
    {
        type            calculated;
        value           nonuniform List<vector> 
250
(
(-0.611489 0.0787841 0)
(-0.602919 0.0731148 0)
(-0.586234 0.0483994 0)
(-0.566777 0.0295385 0)
(-0.548202 0.0175437 0)
(-0.531664 0.0102779 0)
(-0.517218 0.00592301 0)
(-0.504655 0.00328172 0)
(-0.493789 0.00167629 0)
(-0.484389 0.000710682 0)
(-0.476256 0.000127373 0)
(-0.469188 -0.000214009 0)
(-0.463042 -0.000400451 0)
(-0.457695 -0.000485474 0)
(-0.453034 -0.000497706 0)
(-0.449148 -0.000433149 0)
(-0.445272 -0.000575931 0)
(-0.442847 0.000979125 0)
(-0.000197012 0.000123555 3.21518e-20)
(-0.000385013 0.000841234 -7.84333e-20)
(-0.000346307 0.00167765 1.38748e-23)
(-0.000148739 0.00216169 1.18819e-19)
(9.60904e-05 0.00218199 -7.32719e-20)
(0.000318673 0.0017901 0)
(0.000496817 0.0010897 0)
(0.000623072 0.000169356 -1.34877e-19)
(0.000681218 -0.000878402 1.27088e-19)
(0.000688503 -0.00198743 0)
(0.000666315 -0.00310586 -1.07725e-19)
(0.000624646 -0.00419386 1.01142e-19)
(0.0005711 -0.0052233 0)
(0.000512754 -0.0061771 9.20381e-20)
(0.000456527 -0.00704937 -8.89197e-20)
(0.00041286 -0.0078706 0)
(0.000392043 -0.00862758 0)
(0.000407031 -0.0093121 0)
(0.000467982 -0.00998954 0)
(0.000589318 -0.0107194 0)
(0.000796493 -0.0115636 0)
(0.00113131 -0.0125835 0)
(0.00169383 -0.0138631 0)
(0.00263849 -0.0156921 0)
(0.00387615 -0.0161398 0)
(0.00976144 -0.0363864 0)
(-0.0523063 -0.11715 0)
(0.000105994 0.000179394 1.50478e-20)
(-7.47469e-05 0.000392468 -1.31482e-20)
(-0.000330322 0.000527177 0)
(-0.000603223 0.000559264 0)
(-0.000839893 0.000511887 0)
(-0.00102225 0.000421537 7.40752e-21)
(-0.00114948 0.000313912 0)
(-0.00122597 0.000204364 0)
(-0.00125739 0.000100596 0)
(-0.00124644 8.51359e-06 0)
(-0.00120065 -6.6007e-05 -6.68415e-21)
(-0.00112988 -0.000122314 0)
(-0.00104111 -0.000163951 0)
(-0.000938786 -0.000195752 0)
(-0.000825022 -0.000222716 0)
(-0.000699977 -0.000249098 -7.37995e-21)
(-0.000562439 -0.00027798 -0)
(-0.000410204 -0.00031119 0)
(-0.000239983 -0.000348787 0)
(-4.83375e-05 -0.00038797 0)
(0.00016542 -0.000425233 -0)
(0.000401899 -0.000462221 0)
(0.00066404 -0.000502372 0)
(0.000955437 -0.00054734 -6.0914e-21)
(0.00127924 -0.000597791 5.53307e-21)
(0.00163815 -0.000653799 -5.02825e-21)
(0.00203444 -0.000714989 -4.57304e-21)
(0.00246995 -0.000780447 0)
(0.0029459 -0.000848481 -0)
(0.00346227 -0.00091666 3.47027e-21)
(0.00401761 -0.000982687 3.18009e-21)
(0.00460977 -0.00104502 0)
(0.00523616 -0.0011024 -0)
(0.00589374 -0.00115379 2.49584e-21)
(0.00657911 -0.00119838 0)
(0.00728865 -0.00123566 0)
(0.00801858 -0.00126542 -2.02366e-21)
(0.00876521 -0.00128779 -0)
(0.00952504 -0.00130311 -1.79162e-21)
(0.0102948 -0.00131186 -3.38874e-21)
(0.0110716 -0.00131468 -0)
(0.0118528 -0.00131223 0)
(0.0126361 -0.00130523 -0)
(0.0134196 -0.0012945 -0)
(0.0142019 -0.00128095 0)
(0.0149817 -0.00126551 -2.57635e-21)
(0.0157581 -0.00124919 -2.48216e-21)
(0.0167584 -0.00125049 -2.42876e-21)
(0.0178657 -0.00125873 -0)
(0.0189971 -0.00126681 2.35851e-21)
(0.0201516 -0.00127468 0)
(0.0213296 -0.00128234 -2.2997e-21)
(0.0225307 -0.00128978 -2.27383e-21)
(0.0237551 -0.00129704 -0)
(0.0250026 -0.00130406 0)
(0.0262732 -0.00131073 0)
(0.0275664 -0.00131711 -2.1887e-21)
(0.0288825 -0.00132312 -0)
(0.0302208 -0.00132856 0)
(0.0315811 -0.00133351 0)
(0.0329629 -0.00133781 0)
(0.0343657 -0.00134141 0)
(0.0357891 -0.0013441 -0)
(0.0372318 -0.00134583 0)
(0.0386934 -0.00134661 -0)
(0.0401731 -0.00134617 2.06496e-21)
(0.0416693 -0.00134438 0)
(0.0431807 -0.0013413 0)
(0.0447066 -0.00133684 -2.03538e-21)
(0.0462452 -0.00133075 -2.02622e-21)
(0.0477949 -0.00132308 -0)
(0.0493543 -0.0013137 2.00859e-21)
(0.0509212 -0.00130247 -2.00002e-21)
(0.0524938 -0.00128944 -0)
(0.0540703 -0.00127456 1.9831e-21)
(0.0556485 -0.00125768 0)
(0.0572261 -0.00123883 0)
(0.058801 -0.00121792 -1.95748e-21)
(0.0603704 -0.00119494 -0)
(0.0619322 -0.00116992 1.93964e-21)
(0.0634837 -0.00114278 0)
(0.0650225 -0.0011136 -1.92073e-21)
(0.0665457 -0.00108224 -1.91074e-21)
(0.0680504 -0.00104878 -1.90033e-21)
(0.0695341 -0.00101333 -3.7789e-21)
(0.0709942 -0.000975737 3.7561e-21)
(0.0724271 -0.000936071 0)
(0.0738305 -0.00089445 0)
(0.0752014 -0.000850711 -0)
(0.0765364 -0.000804888 3.65234e-21)
(0.0778327 -0.000757107 3.62277e-21)
(0.0790878 -0.000707084 -3.59154e-21)
(0.0802975 -0.000654703 -0)
(0.081459 -0.000599895 3.52371e-21)
(0.0825688 -0.000542227 3.4869e-21)
(0.0836229 -0.000481332 3.44804e-21)
(0.0846175 -0.000416583 0)
(0.0855474 -0.00034745 0)
(0.0864081 -0.00027385 -0)
(0.0871942 -0.000196809 3.27082e-21)
(0.0879013 -0.000119187 0)
(0.0885257 -4.62224e-05 0)
(0.0890735 1.74174e-05 -3.11302e-21)
(0.0895531 7.57443e-05 0)
(0.0899628 0.000133596 0)
(0.0903021 0.000191193 -2.9283e-21)
(0.0905693 0.000249002 0)
(0.0907632 0.000306861 0)
(0.0908828 0.00036487 2.71485e-21)
(0.0909263 0.000422931 2.63688e-21)
(0.0908932 0.000480854 0)
(0.0907824 0.000538637 -2.47021e-21)
(0.0905934 0.00059619 0)
(0.090325 0.00065346 2.28866e-21)
(0.0899769 0.00071021 0)
(0.0895495 0.000766486 2.09157e-21)
(0.0890415 0.000822209 1.98698e-21)
(0.0884536 0.000877177 0)
(0.0877859 0.000931364 0)
(0.0870388 0.000984776 0)
(0.0862123 0.00103725 0)
(0.0853076 0.00108874 0)
(0.0843248 0.0011391 0)
(0.0832657 0.00118834 0)
(0.0821304 0.00123635 9.93644e-22)
(0.0809212 0.001283 -8.48451e-22)
(0.0796389 0.00132837 0)
(0.0782851 0.00137234 0)
(0.0768617 0.0014148 0)
(0.0753708 0.00145588 0)
(0.0738134 0.00149547 -8.88647e-23)
(0.072194 0.00153367 0)
(0.0705138 0.00157033 -6.32638e-22)
(0.068772 0.00160525 1.01156e-21)
(0.0669717 0.00163844 0)
(0.0651171 0.00167004 0)
(0.0632135 0.00170018 0)
(0.0612628 0.00172861 -2.65822e-21)
(0.0592645 0.00175527 -3.10516e-21)
(0.0572237 0.00178026 0)
(0.0551431 0.00180354 -4.04564e-21)
(0.0530257 0.00182514 -4.54058e-21)
(0.0508746 0.001845 5.05307e-21)
(0.0486936 0.0018632 0)
(0.0464855 0.00187983 0)
(0.0442531 0.00189485 6.70517e-21)
(0.0419999 0.00190825 0)
(0.0397292 0.00192013 0)
(0.0374442 0.00193056 0)
(0.0351476 0.00193957 0)
(0.0328427 0.0019472 -9.91347e-21)
(0.0305325 0.00195353 -1.06374e-20)
(0.0282199 0.00195865 0)
(0.0259077 0.00196262 -1.2184e-20)
(0.0235987 0.00196554 0)
(0.0212955 0.00196749 0)
(0.0190006 0.00196857 -1.47936e-20)
(0.0167165 0.00196888 0)
(0.0144453 0.00196851 -1.67687e-20)
(0.0121892 0.0019675 0)
(0.00995038 0.00196593 0)
(0.00773089 0.00196397 -2.01846e-20)
(0.00553245 0.00196262 0)
(0.00335634 0.00196173 -2.2849e-20)
(0.0012034 0.00195781 0)
(-0.000927075 0.00193002 0)
(-0.0030393 0.00187899 0)
(-0.00513353 0.00182675 2.35054e-20)
(-0.0072105 0.00177702 0)
(-0.00926989 0.00172961 -2.2392e-20)
(-0.0113115 0.00168397 0)
(-0.0133347 0.00163924 0)
(-0.0153375 0.00159422 0)
(-0.0173157 0.00154714 0)
(-0.0192631 0.00149419 0)
(-0.0211597 0.00143022 0)
(-0.0229958 0.00133332 0)
(-0.0246131 0.00118966 3.8474e-20)
(-0.0262119 0.000829451 0)
(-0.025865 9.28796e-05 0)
(-0.028277 7.59779e-05 -2.43172e-18)
(-0.0329735 -0.000758961 2.30141e-18)
(-0.0375231 -0.00144707 1.50463e-35)
(-0.0417065 -0.00199089 7.22224e-35)
(-0.0459776 -0.00248908 -4.00086e-18)
(-0.0504647 -0.00297633 3.82518e-18)
(-0.0551727 -0.00346713 3.65601e-18)
(-0.0601214 -0.00397487 3.4929e-18)
(-0.0653461 -0.00450785 0)
(-0.0708715 -0.00507035 3.17718e-18)
(-0.0767203 -0.00566624 -3.02298e-18)
(-0.0829129 -0.00629856 -5.73954e-18)
(-0.0894758 -0.00697042 1.50463e-36)
(-0.09643 -0.0076846 -5.12518e-18)
(-0.103809 -0.00844285 -1.20371e-35)
(-0.111634 -0.00925082 -5.49426e-35)
(-0.119977 -0.0101056 1.17549e-38)
(-0.128809 -0.0110255 -9.11799e-22)
(-0.138395 -0.0119838 -1.17549e-38)
(-0.148275 -0.0130503 -6.85548e-35)
(-0.159967 -0.014108 3.00927e-35)
(-0.170192 -0.0154041 4.44044e-18)
(-0.187158 -0.0164672 -3.62903e-18)
(-0.194342 -0.0182757 -4.15589e-18)
(-0.228417 -0.0188353 -1.78721e-18)
)
;
    }
    frontAndBack
    {
        type            empty;
    }
}


// ************************************************************************* //
