/*--------------------------------*- C++ -*----------------------------------*\
| =========                 |                                                 |
| \\      /  F ield         | OpenFOAM: The Open Source CFD Toolbox           |
|  \\    /   O peration     | Version:  v1912                                 |
|   \\  /    A nd           | Website:  www.openfoam.com                      |
|    \\/     M anipulation  |                                                 |
\*---------------------------------------------------------------------------*/
FoamFile
{
    version     2.0;
    format      ascii;
    class       volScalarField;
    location    "700";
    object      k;
}
// * * * * * * * * * * * * * * * * * * * * * * * * * * * * * * * * * * * * * //

dimensions      [0 2 -2 0 0 0 0];


internalField   nonuniform List<scalar> 
10000
(
1e-15
1e-15
1e-15
1.01022e-15
1.15758e-15
1.285e-15
1.84051e-15
2.15358e-15
3.29888e-15
3.99502e-15
6.42478e-15
8.03202e-15
1.32636e-14
1.68313e-14
2.87682e-14
3.73201e-14
6.43026e-14
8.58894e-14
9.61718e-13
1.61365e-07
1e-15
1e-15
1.035e-15
1.08506e-15
1.49946e-15
1.71171e-15
2.67933e-15
3.24556e-15
5.14728e-15
6.26716e-15
1.02875e-14
1.3312e-14
2.09526e-14
2.5434e-14
4.41101e-14
5.96838e-14
9.69233e-14
9.77253e-14
3.70689e-13
1.6209e-08
1e-15
1e-15
1e-15
1e-15
1e-15
1e-15
1e-15
1e-15
1e-15
1e-15
1e-15
1.06459e-15
1.31626e-15
1.72375e-15
3.26871e-15
6.26941e-15
1.10488e-14
2.52905e-14
9.35998e-14
2.21512e-07
1e-15
1e-15
1e-15
1e-15
1e-15
1e-15
1e-15
1e-15
1e-15
1e-15
1e-15
1e-15
1e-15
1e-15
1e-15
1e-15
1e-15
1e-15
1e-15
1e-15
1e-15
1e-15
1e-15
1e-15
1e-15
1e-15
1e-15
1e-15
1e-15
1e-15
1e-15
1e-15
1e-15
1e-15
1e-15
1e-15
1e-15
1e-15
1e-15
2.22138e-12
1e-15
1e-15
1e-15
1e-15
1e-15
1e-15
1e-15
1.00593e-15
1e-15
1e-15
1e-15
1e-15
1e-15
1e-15
1e-15
1e-15
1.0115e-15
1e-15
1e-15
9.39532e-12
1e-15
1e-15
1e-15
1e-15
1e-15
1e-15
1e-15
1e-15
1e-15
1e-15
1e-15
1e-15
1e-15
1e-15
1e-15
1.01085e-15
1e-15
1e-15
2.51546e-15
2.44238e-12
1e-15
1e-15
1e-15
1e-15
1e-15
1e-15
1e-15
1e-15
1.00803e-15
1e-15
1e-15
1e-15
1e-15
1e-15
1.00182e-15
1e-15
1e-15
1e-15
1e-15
4.63773e-13
1e-15
1e-15
1e-15
1e-15
1e-15
1e-15
1e-15
1e-15
1e-15
1e-15
1e-15
1e-15
1e-15
1e-15
1e-15
1e-15
1e-15
1e-15
7.0758e-15
1.24678e-14
1e-15
1e-15
1e-15
1e-15
1e-15
1e-15
1e-15
1e-15
1e-15
1e-15
1e-15
1e-15
1e-15
1e-15
1e-15
1e-15
1e-15
1e-15
1.09777e-15
9.49128e-15
1e-15
1e-15
1e-15
1e-15
1e-15
1e-15
1.00344e-15
1e-15
1e-15
1e-15
1e-15
1e-15
1e-15
1e-15
1e-15
1e-15
1e-15
1e-15
1e-15
1.07103e-15
1e-15
1e-15
1e-15
1e-15
1e-15
1e-15
1e-15
1e-15
1e-15
1e-15
1e-15
1e-15
1e-15
1e-15
1e-15
1e-15
1e-15
1e-15
1e-15
1e-15
1e-15
1e-15
1e-15
1e-15
1e-15
1e-15
1e-15
1e-15
1e-15
1e-15
1e-15
1e-15
1e-15
1e-15
1e-15
1e-15
1e-15
1e-15
1e-15
1e-15
1e-15
1e-15
1e-15
1e-15
1e-15
1e-15
1e-15
1e-15
1.01197e-15
1e-15
1e-15
1e-15
1e-15
1e-15
1e-15
1e-15
1e-15
1e-15
1e-15
1e-15
1e-15
1e-15
1e-15
1e-15
1e-15
1e-15
1e-15
1e-15
1e-15
1e-15
1.00003e-15
1e-15
1e-15
1e-15
1e-15
1e-15
1e-15
1e-15
1e-15
1e-15
1e-15
1e-15
1e-15
1e-15
1e-15
1e-15
1e-15
1e-15
1e-15
1.00897e-15
1e-15
1e-15
1e-15
1e-15
1e-15
1e-15
1e-15
1e-15
1.0148e-15
1e-15
1e-15
1e-15
1e-15
1e-15
1e-15
1e-15
1e-15
1e-15
1.01405e-15
1e-15
1e-15
1e-15
1e-15
1e-15
1.00639e-15
1e-15
1e-15
1e-15
1e-15
1e-15
1e-15
1e-15
1e-15
1e-15
1e-15
1e-15
1e-15
1.01193e-15
1e-15
1e-15
1e-15
1e-15
1e-15
1e-15
1e-15
1.01539e-15
1e-15
1e-15
1e-15
1e-15
1e-15
1e-15
1e-15
1e-15
1e-15
1e-15
1.00796e-15
1e-15
1e-15
1e-15
1e-15
1e-15
1e-15
1e-15
1e-15
1e-15
1.01557e-15
1e-15
1e-15
1e-15
1e-15
1e-15
1e-15
1e-15
1e-15
1e-15
1e-15
1.01298e-15
1e-15
1e-15
1e-15
1e-15
1e-15
1e-15
1e-15
1e-15
1e-15
1.015e-15
1e-15
1e-15
1e-15
1e-15
1e-15
1e-15
1e-15
1e-15
1e-15
1e-15
1.01539e-15
1e-15
1e-15
1e-15
1e-15
1e-15
1e-15
1e-15
1.01536e-15
1e-15
1e-15
1e-15
1e-15
1e-15
1e-15
1e-15
1e-15
1e-15
1e-15
1e-15
1e-15
1.01653e-15
1e-15
1e-15
1e-15
1e-15
1e-15
1.00789e-15
1e-15
1e-15
1e-15
1e-15
1e-15
1e-15
1e-15
1e-15
1e-15
1e-15
1e-15
1e-15
1e-15
1e-15
1.01689e-15
1e-15
1e-15
1e-15
1e-15
1e-15
1.00834e-15
1e-15
1e-15
1e-15
1e-15
1e-15
1e-15
1e-15
1e-15
1e-15
1e-15
1e-15
1e-15
1.01649e-15
1e-15
1e-15
1e-15
1e-15
1e-15
1.00771e-15
1e-15
1e-15
1e-15
1e-15
1e-15
1e-15
1e-15
1e-15
1e-15
1e-15
1e-15
1e-15
1.01593e-15
1e-15
1e-15
1e-15
1e-15
1e-15
1.00764e-15
1e-15
1e-15
1e-15
1e-15
1e-15
1e-15
1e-15
1e-15
1e-15
1e-15
1e-15
1e-15
1e-15
1.01618e-15
1e-15
1e-15
1e-15
1e-15
1e-15
1e-15
1.01434e-15
1e-15
1e-15
1e-15
1e-15
1e-15
1e-15
1e-15
1e-15
1e-15
1e-15
1e-15
1e-15
1e-15
1.01709e-15
1e-15
1e-15
1e-15
1e-15
1e-15
1e-15
1e-15
1e-15
1e-15
1e-15
1e-15
1e-15
1e-15
1e-15
1e-15
1e-15
1e-15
1e-15
1e-15
1e-15
1.01743e-15
1e-15
1e-15
1e-15
1e-15
1e-15
1e-15
1e-15
1e-15
1.00417e-15
1e-15
1e-15
1e-15
1e-15
1e-15
1e-15
1e-15
1e-15
1e-15
1e-15
1e-15
1e-15
1e-15
1.01686e-15
1e-15
1e-15
1e-15
1e-15
1e-15
1.00917e-15
1e-15
1e-15
1e-15
1e-15
1e-15
1e-15
1.00985e-15
1e-15
1e-15
1e-15
1e-15
1e-15
1.00654e-15
1e-15
1e-15
1e-15
1e-15
1e-15
1.00917e-15
1e-15
1e-15
1e-15
1e-15
1e-15
1e-15
1e-15
1e-15
1e-15
1e-15
1e-15
1e-15
1.01737e-15
1e-15
1e-15
1e-15
1e-15
1e-15
1.00913e-15
1e-15
1e-15
1e-15
1e-15
1e-15
1e-15
1e-15
1e-15
1.01001e-15
1e-15
1e-15
1e-15
1e-15
1e-15
1.00665e-15
1e-15
1e-15
1e-15
1e-15
1e-15
1.00924e-15
1e-15
1e-15
1e-15
1e-15
1e-15
1e-15
1e-15
1e-15
1.01447e-15
1e-15
1e-15
1e-15
1e-15
1e-15
1.00764e-15
1e-15
1e-15
1.00865e-15
1e-15
1e-15
1e-15
1e-15
1e-15
1e-15
1e-15
1e-15
1e-15
1.01011e-15
1e-15
1e-15
1e-15
1e-15
1e-15
1.0068e-15
1e-15
1e-15
1e-15
1e-15
1e-15
1.00914e-15
1e-15
1e-15
1e-15
1e-15
1e-15
1e-15
1e-15
1e-15
1.01449e-15
1e-15
1e-15
1e-15
1e-15
1e-15
1.01768e-15
1e-15
1e-15
1e-15
1e-15
1e-15
1e-15
1e-15
1e-15
1e-15
1e-15
1e-15
1.00128e-15
1e-15
1e-15
1e-15
1e-15
1e-15
1.00538e-15
1e-15
1e-15
1e-15
1e-15
1e-15
1e-15
1e-15
1e-15
1e-15
1e-15
1e-15
1e-15
1e-15
1e-15
1e-15
1e-15
1e-15
1e-15
1.00324e-15
1e-15
1e-15
1e-15
1e-15
1e-15
1.00931e-15
1e-15
1e-15
1e-15
1e-15
1e-15
1e-15
1e-15
1e-15
1e-15
1e-15
1e-15
1e-15
1e-15
1.00335e-15
1e-15
1e-15
1e-15
1e-15
1e-15
1.00957e-15
1e-15
1e-15
1e-15
1e-15
1e-15
1e-15
1e-15
1e-15
1e-15
1e-15
1e-15
1e-15
1e-15
1.0033e-15
1e-15
1e-15
1e-15
1e-15
1e-15
1.00939e-15
1e-15
1e-15
1e-15
1e-15
1e-15
1e-15
1e-15
1e-15
1.00156e-15
1e-15
1e-15
1e-15
1e-15
1e-15
1e-15
1e-15
1.01693e-15
1e-15
1e-15
1e-15
1e-15
1e-15
1e-15
1e-15
1e-15
1e-15
1e-15
1e-15
1e-15
1.01036e-15
1e-15
1e-15
1e-15
1e-15
1e-15
1.00686e-15
1e-15
1e-15
1e-15
1e-15
1e-15
1.00963e-15
1e-15
1e-15
1e-15
1e-15
1e-15
1e-15
1.00155e-15
1e-15
1e-15
1e-15
1e-15
1e-15
1.00549e-15
1e-15
1e-15
1e-15
1e-15
1e-15
1.00941e-15
1e-15
1e-15
1e-15
1e-15
1e-15
1e-15
1e-15
1e-15
1e-15
1e-15
1e-15
1e-15
1.00332e-15
1e-15
1e-15
1e-15
1e-15
1e-15
1.00922e-15
1e-15
1e-15
1e-15
1e-15
1e-15
1e-15
1e-15
1e-15
1.00164e-15
1e-15
1e-15
1e-15
1e-15
1e-15
1e-15
1e-15
1e-15
1e-15
1.006e-15
1e-15
1e-15
1e-15
1e-15
1e-15
1e-15
1e-15
1e-15
1e-15
1e-15
1.01041e-15
1e-15
1e-15
1e-15
1.01375e-15
1e-15
1e-15
1e-15
1e-15
1e-15
1.00948e-15
1e-15
1e-15
1e-15
1e-15
1e-15
1e-15
1e-15
1e-15
1e-15
1e-15
1.0148e-15
1e-15
1e-15
1e-15
1.01452e-15
1e-15
1e-15
1e-15
1e-15
1e-15
1.00955e-15
1e-15
1e-15
1e-15
1e-15
1e-15
1e-15
1e-15
1e-15
1.01049e-15
1e-15
1e-15
1e-15
1e-15
1e-15
1.00692e-15
1e-15
1e-15
1e-15
1e-15
1e-15
1.00958e-15
1e-15
1e-15
1e-15
1e-15
1e-15
1e-15
1e-15
1e-15
1e-15
1e-15
1e-15
1e-15
1e-15
1e-15
1.01723e-15
1e-15
1e-15
1e-15
1e-15
1e-15
1.00913e-15
1e-15
1e-15
1e-15
1e-15
1e-15
1e-15
1.01045e-15
1e-15
1e-15
1e-15
1e-15
1e-15
1.00702e-15
1e-15
1e-15
1e-15
1e-15
1e-15
1.00976e-15
1e-15
1e-15
1e-15
1e-15
1e-15
1e-15
1e-15
1e-15
1e-15
1e-15
1e-15
1e-15
1e-15
1e-15
1.01727e-15
1e-15
1e-15
1e-15
1e-15
1e-15
1.00921e-15
1e-15
1e-15
1e-15
1e-15
1e-15
1e-15
1.01046e-15
1e-15
1e-15
1e-15
1e-15
1e-15
1.00706e-15
1e-15
1e-15
1e-15
1e-15
1e-15
1.00974e-15
1e-15
1e-15
1e-15
1e-15
1e-15
1e-15
1e-15
1.01056e-15
1e-15
1e-15
1e-15
1e-15
1e-15
1.00702e-15
1e-15
1e-15
1e-15
1e-15
1e-15
1.00969e-15
1e-15
1e-15
1e-15
1e-15
1e-15
1e-15
1e-15
1e-15
1e-15
1e-15
1e-15
1e-15
1.01788e-15
1e-15
1e-15
1e-15
1e-15
1e-15
1.00919e-15
1e-15
1e-15
1e-15
1e-15
1e-15
1e-15
1e-15
1e-15
1.01053e-15
1e-15
1e-15
1e-15
1e-15
1e-15
1.00698e-15
1e-15
1e-15
1e-15
1e-15
1e-15
1.00965e-15
1e-15
1e-15
1e-15
1e-15
1e-15
1e-15
1e-15
1e-15
1e-15
1e-15
1e-15
1e-15
1e-15
1e-15
1.01724e-15
1e-15
1e-15
1e-15
1e-15
1e-15
1.00912e-15
1e-15
1e-15
1e-15
1e-15
1e-15
1e-15
1.01045e-15
1e-15
1e-15
1e-15
1e-15
1e-15
1.00698e-15
1e-15
1e-15
1e-15
1e-15
1e-15
1.00969e-15
1e-15
1e-15
1e-15
1e-15
1e-15
1e-15
1e-15
1e-15
1e-15
1e-15
1e-15
1.00335e-15
1e-15
1e-15
1e-15
1e-15
1e-15
1e-15
1e-15
1.00899e-15
1e-15
1e-15
1e-15
1e-15
1e-15
1e-15
1e-15
1e-15
1e-15
1e-15
1.01735e-15
1e-15
1e-15
1e-15
1e-15
1e-15
1e-15
1e-15
1e-15
1.00356e-15
1e-15
1e-15
1e-15
1e-15
1e-15
1e-15
1e-15
1e-15
1e-15
1.01689e-15
1e-15
1e-15
1e-15
1e-15
1e-15
1e-15
1e-15
1e-15
1e-15
1.01637e-15
1e-15
1e-15
1e-15
1e-15
1e-15
1e-15
1e-15
1e-15
1.01353e-15
1e-15
1e-15
1e-15
1e-15
1e-15
1.00775e-15
1e-15
1e-15
1e-15
1.01509e-15
1e-15
1e-15
1e-15
1e-15
1e-15
1e-15
1e-15
1e-15
1.0105e-15
1e-15
1e-15
1e-15
1e-15
1e-15
1.00698e-15
1e-15
1e-15
1e-15
1e-15
1e-15
1.00966e-15
1e-15
1e-15
1e-15
1e-15
1e-15
1e-15
1.00174e-15
1e-15
1e-15
1e-15
1e-15
1e-15
1.00562e-15
1e-15
1e-15
1e-15
1e-15
1e-15
1.00952e-15
1e-15
1e-15
1e-15
1e-15
1e-15
1e-15
1e-15
1e-15
1e-15
1e-15
1e-15
1e-15
1.00344e-15
1e-15
1e-15
1e-15
1e-15
1e-15
1.0094e-15
1e-15
1e-15
1e-15
1e-15
1e-15
1e-15
1e-15
1e-15
1e-15
1e-15
1e-15
1e-15
1e-15
1e-15
1.00522e-15
1e-15
1e-15
1e-15
1e-15
1e-15
1.00951e-15
1e-15
1e-15
1e-15
1e-15
1e-15
1e-15
1e-15
1e-15
1.01049e-15
1e-15
1e-15
1e-15
1e-15
1e-15
1.007e-15
1e-15
1e-15
1e-15
1e-15
1e-15
1.00961e-15
1e-15
1e-15
1e-15
1e-15
1e-15
1e-15
1e-15
1e-15
1.01352e-15
1e-15
1e-15
1e-15
1e-15
1e-15
1.00773e-15
1e-15
1e-15
1e-15
1e-15
1e-15
1.00966e-15
1e-15
1e-15
1e-15
1e-15
1e-15
1e-15
1e-15
1e-15
1.01691e-15
1e-15
1e-15
1e-15
1e-15
1e-15
1.00834e-15
1e-15
1e-15
1e-15
1e-15
1e-15
1e-15
1e-15
1e-15
1e-15
1e-15
1e-15
1e-15
1e-15
1e-15
1e-15
1e-15
1e-15
1e-15
1e-15
1e-15
1e-15
1e-15
1.01602e-15
1e-15
1e-15
1e-15
1e-15
1e-15
1e-15
1e-15
1e-15
1e-15
1e-15
1e-15
1e-15
1.00341e-15
1e-15
1e-15
1e-15
1e-15
1e-15
1.00928e-15
1e-15
1e-15
1e-15
1e-15
1e-15
1e-15
1e-15
1e-15
1.00175e-15
1e-15
1e-15
1e-15
1e-15
1e-15
1e-15
1e-15
1e-15
1e-15
1e-15
1.0141e-15
1e-15
1e-15
1e-15
1e-15
1e-15
1e-15
1e-15
1e-15
1e-15
1e-15
1e-15
1.00967e-15
1e-15
1e-15
1e-15
1e-15
1e-15
1.00872e-15
1e-15
1e-15
1e-15
1e-15
1e-15
1e-15
1e-15
1e-15
1e-15
1e-15
1e-15
1e-15
1e-15
1e-15
1e-15
1e-15
1e-15
1e-15
1.00353e-15
1e-15
1e-15
1e-15
1e-15
1e-15
1.00973e-15
1e-15
1e-15
1e-15
1e-15
1e-15
1e-15
1e-15
1e-15
1e-15
1e-15
1e-15
1e-15
1.00503e-15
1e-15
1e-15
1e-15
1e-15
1e-15
1.00971e-15
1e-15
1e-15
1e-15
1e-15
1e-15
1e-15
1e-15
1e-15
1.01489e-15
1e-15
1e-15
1e-15
1.01452e-15
1e-15
1e-15
1e-15
1e-15
1e-15
1.00952e-15
1e-15
1e-15
1e-15
1e-15
1e-15
1e-15
1e-15
1e-15
1e-15
1e-15
1e-15
1e-15
1e-15
1.01783e-15
1e-15
1e-15
1e-15
1e-15
1e-15
1.00903e-15
1e-15
1e-15
1e-15
1e-15
1e-15
1e-15
1e-15
1e-15
1e-15
1e-15
1e-15
1e-15
1.00261e-15
1e-15
1e-15
1e-15
1e-15
1e-15
1.00927e-15
1e-15
1e-15
1e-15
1e-15
1e-15
1e-15
1e-15
1e-15
1e-15
1e-15
1e-15
1e-15
1e-15
1.00342e-15
1e-15
1e-15
1e-15
1e-15
1e-15
1.00934e-15
1e-15
1e-15
1e-15
1e-15
1e-15
1e-15
1e-15
1e-15
1.00175e-15
1e-15
1e-15
1e-15
1e-15
1e-15
1.00563e-15
1e-15
1e-15
1e-15
1e-15
1e-15
1.00952e-15
1e-15
1e-15
1e-15
1e-15
1e-15
1e-15
1e-15
1e-15
1e-15
1e-15
1e-15
1e-15
1e-15
1e-15
1.01754e-15
1e-15
1e-15
1e-15
1e-15
1e-15
1.0091e-15
1e-15
1e-15
1e-15
1e-15
1e-15
1e-15
1e-15
1e-15
1e-15
1e-15
1.01772e-15
1e-15
1e-15
1.00625e-15
1e-15
1e-15
1e-15
1e-15
1e-15
1.00982e-15
1e-15
1e-15
1e-15
1e-15
1e-15
1e-15
1e-15
1e-15
1e-15
1.01692e-15
1e-15
1e-15
1e-15
1e-15
1e-15
1.00832e-15
1e-15
1e-15
1e-15
1e-15
1e-15
1e-15
1e-15
1e-15
1e-15
1e-15
1e-15
1e-15
1e-15
1e-15
1.01773e-15
1e-15
1e-15
1e-15
1.01491e-15
1e-15
1e-15
1e-15
1e-15
1e-15
1.00958e-15
1e-15
1e-15
1e-15
1e-15
1e-15
1e-15
1e-15
1e-15
1.00971e-15
1e-15
1e-15
1e-15
1e-15
1e-15
1e-15
1e-15
1e-15
1e-15
1.00739e-15
1e-15
1e-15
1e-15
1e-15
1e-15
1e-15
1e-15
1e-15
1e-15
1e-15
1e-15
1e-15
1e-15
1e-15
1.01754e-15
1e-15
1e-15
1e-15
1e-15
1e-15
1.00917e-15
1e-15
1e-15
1e-15
1e-15
1e-15
1e-15
1e-15
1e-15
1.01692e-15
1e-15
1e-15
1e-15
1e-15
1e-15
1.00833e-15
1e-15
1e-15
1e-15
1e-15
1e-15
1e-15
1e-15
1e-15
1e-15
1e-15
1e-15
1e-15
1.01488e-15
1e-15
1e-15
1e-15
1e-15
1e-15
1.01353e-15
1e-15
1e-15
1e-15
1e-15
1e-15
1.00984e-15
1e-15
1e-15
1e-15
1e-15
1e-15
1e-15
1.01051e-15
1e-15
1e-15
1e-15
1e-15
1e-15
1.00697e-15
1e-15
1e-15
1e-15
1e-15
1e-15
1.0096e-15
1e-15
1e-15
1e-15
1e-15
1e-15
1e-15
1.00175e-15
1e-15
1e-15
1e-15
1e-15
1e-15
1.00563e-15
1e-15
1e-15
1e-15
1e-15
1e-15
1.00951e-15
1e-15
1e-15
1e-15
1e-15
1e-15
1e-15
1e-15
1e-15
1e-15
1e-15
1e-15
1e-15
1.00339e-15
1e-15
1e-15
1e-15
1e-15
1e-15
1.00932e-15
1e-15
1e-15
1e-15
1e-15
1e-15
1e-15
1e-15
1e-15
1.00175e-15
1e-15
1e-15
1e-15
1e-15
1e-15
1.00563e-15
1e-15
1e-15
1e-15
1e-15
1e-15
1.00955e-15
1e-15
1e-15
1e-15
1e-15
1e-15
1e-15
1e-15
1e-15
1e-15
1e-15
1e-15
1e-15
1e-15
1.01782e-15
1e-15
1e-15
1e-15
1e-15
1e-15
1.00905e-15
1e-15
1e-15
1e-15
1e-15
1e-15
1e-15
1e-15
1e-15
1.01052e-15
1e-15
1e-15
1e-15
1e-15
1e-15
1.00697e-15
1e-15
1e-15
1e-15
1e-15
1e-15
1.00961e-15
1e-15
1e-15
1e-15
1e-15
1e-15
1e-15
1e-15
1e-15
1.01488e-15
1e-15
1e-15
1e-15
1e-15
1e-15
1.01353e-15
1e-15
1e-15
1e-15
1e-15
1e-15
1.00985e-15
1e-15
1e-15
1e-15
1e-15
1e-15
1e-15
1e-15
1e-15
1.01623e-15
1e-15
1e-15
1e-15
1e-15
1e-15
1.00827e-15
1e-15
1e-15
1e-15
1e-15
1e-15
1e-15
1e-15
1e-15
1e-15
1e-15
1e-15
1e-15
1e-15
1e-15
1e-15
1e-15
1e-15
1e-15
1e-15
1e-15
1.00898e-15
1e-15
1e-15
1e-15
1e-15
1e-15
1e-15
1e-15
1e-15
1e-15
1e-15
1e-15
1e-15
1.01691e-15
1e-15
1e-15
1e-15
1e-15
1e-15
1.00833e-15
1e-15
1e-15
1e-15
1e-15
1e-15
1e-15
1e-15
1e-15
1e-15
1e-15
1e-15
1e-15
1e-15
1e-15
1e-15
1e-15
1e-15
1e-15
1e-15
1e-15
1.00894e-15
1e-15
1e-15
1e-15
1.01466e-15
1e-15
1e-15
1e-15
1e-15
1e-15
1e-15
1e-15
1e-15
1.01691e-15
1e-15
1e-15
1e-15
1e-15
1e-15
1.00833e-15
1e-15
1e-15
1e-15
1e-15
1e-15
1e-15
1e-15
1e-15
1e-15
1e-15
1e-15
1e-15
1.01488e-15
1e-15
1e-15
1e-15
1e-15
1e-15
1.01784e-15
1e-15
1e-15
1e-15
1e-15
1e-15
1.00928e-15
1e-15
1e-15
1e-15
1e-15
1e-15
1e-15
1.01051e-15
1e-15
1e-15
1e-15
1e-15
1e-15
1.00697e-15
1e-15
1e-15
1e-15
1e-15
1e-15
1.0096e-15
1e-15
0.00790758
0.00792195
0.00689317
0.00615088
0.00588327
0.00575519
0.00570509
0.00565168
0.00560465
0.00553428
0.0054678
0.00539467
0.00532921
0.00526007
0.00520232
0.00514146
0.00509287
0.00503924
0.00499724
0.00494924
0.00491233
0.00486956
0.00483737
0.00479906
0.0047705
0.00473538
0.00470977
0.00467749
0.00465458
0.00462479
0.00460431
0.00457671
0.00455816
0.00453221
0.00451525
0.00449084
0.00447541
0.0044524
0.00443836
0.00441662
0.0044038
0.00438307
0.00437128
0.00435144
0.0043406
0.00432162
0.00431165
0.00429347
0.00428432
0.0042668
0.00425836
0.00424145
0.00423359
0.00421734
0.00420999
0.00419434
0.00418751
0.00417242
0.00416604
0.00415141
0.00414546
0.00413125
0.0041257
0.00411188
0.00410673
0.00409327
0.00408849
0.00407538
0.00407096
0.00405815
0.00405407
0.00404147
0.00403772
0.00402532
0.00402189
0.00400972
0.00400663
0.00399458
0.00399195
0.00397931
0.000736847
0.00161295
0.00338301
0.00520292
0.00605303
0.00639536
0.00653976
0.00652162
0.00646877
0.00636515
0.00628254
0.00619552
0.0061219
0.00605019
0.00599434
0.00593664
0.00589098
0.00583784
0.00579756
0.00574873
0.00571353
0.00567041
0.00563989
0.0056003
0.00557189
0.00553487
0.00550924
0.005475
0.00545202
0.00542043
0.00539986
0.00537002
0.00535085
0.00532239
0.00530484
0.00527803
0.00526208
0.00523678
0.00522228
0.00519821
0.00518473
0.00516154
0.00514908
0.00512681
0.00511536
0.00509402
0.00508352
0.00506309
0.00505332
0.00503357
0.00502431
0.00500543
0.00499661
0.0049786
0.0049702
0.00495302
0.00494502
0.00492855
0.0049209
0.00490496
0.00489767
0.00488224
0.00487533
0.00486041
0.00485389
0.00483944
0.00483328
0.00481923
0.00481341
0.00479964
0.00479444
0.00478048
0.00477595
0.00476204
0.0047579
0.00474436
0.00474052
0.00472736
0.0047235
0.00471024
3.48507e-05
0.000218092
0.000470648
0.00121887
0.00233738
0.0034346
0.0041729
0.00456338
0.00477857
0.00485987
0.00490994
0.00492288
0.00492533
0.00492029
0.00491623
0.00490505
0.00489729
0.00487988
0.00486982
0.00484951
0.00483905
0.00481988
0.00480925
0.00478962
0.00477749
0.00475771
0.00474587
0.00472665
0.00471554
0.0046972
0.00468678
0.00466849
0.00465804
0.00463985
0.00462995
0.00461246
0.00460324
0.00458647
0.00457791
0.00456161
0.00455332
0.00453726
0.00452939
0.00451376
0.00450634
0.00449129
0.00448431
0.00446988
0.00446315
0.00444904
0.00444252
0.00442885
0.00442258
0.00440942
0.0044034
0.00439078
0.00438498
0.00437278
0.00436714
0.00435523
0.00434978
0.00433819
0.00433296
0.00432172
0.00431673
0.00430583
0.00430106
0.00429043
0.00428585
0.00427541
0.0042711
0.00426067
0.00425674
0.00424635
0.00424271
0.00423258
0.00422911
0.0042193
0.00421582
0.00420576
8.883e-06
2.52019e-05
3.81373e-05
0.000192879
0.000421015
0.000971336
0.0019357
0.0027405
0.00327901
0.0036266
0.00385706
0.0039873
0.00407877
0.00414182
0.00419248
0.00422482
0.00425679
0.00427302
0.00429258
0.00429889
0.00431165
0.00431405
0.00432088
0.00431935
0.0043213
0.00431722
0.00431706
0.0043114
0.00431012
0.00430347
0.00430118
0.00429304
0.00428953
0.00428029
0.00427646
0.00426698
0.00426301
0.0042535
0.00424945
0.00423973
0.00423532
0.00422526
0.00422079
0.0042107
0.00420628
0.00419632
0.00419203
0.00418227
0.00417791
0.0041681
0.00416374
0.00415403
0.00414974
0.00414025
0.00413607
0.00412684
0.00412274
0.00411369
0.0041096
0.00410061
0.00409659
0.00408775
0.00408384
0.0040752
0.00407142
0.004063
0.00405933
0.00405106
0.00404747
0.00403928
0.00403579
0.00402764
0.00402437
0.00401624
0.00401316
0.00400519
0.00400224
0.00399447
0.00399155
0.00398348
3.47537e-09
5.00277e-07
4.52761e-06
1.6252e-05
2.71632e-05
0.000161057
0.000374491
0.000883276
0.00161066
0.00222822
0.00267107
0.00298619
0.00322142
0.0033867
0.00351637
0.00361178
0.00369217
0.00374697
0.00379983
0.00383551
0.00387358
0.00389765
0.00392472
0.00394054
0.00396021
0.00396988
0.00398447
0.00399004
0.00400131
0.00400442
0.00401215
0.00401282
0.00401743
0.00401654
0.00401944
0.0040175
0.00401922
0.00401653
0.00401728
0.0040137
0.00401338
0.00400906
0.00400811
0.00400326
0.00400194
0.00399677
0.00399524
0.00398981
0.00398788
0.00398206
0.0039799
0.00397388
0.00397158
0.00396552
0.00396316
0.00395709
0.00395465
0.00394848
0.00394591
0.0039396
0.00393699
0.00393065
0.00392805
0.00392176
0.00391919
0.00391299
0.00391042
0.00390422
0.00390164
0.00389541
0.00389282
0.00388658
0.0038841
0.00387782
0.00387547
0.00386924
0.00386698
0.00386083
0.00385861
0.00385224
9.31619e-11
1.25102e-07
4.81834e-08
8.68166e-07
2.9003e-06
1.17026e-05
2.26621e-05
0.000138676
0.000328741
0.000731491
0.00129394
0.00178873
0.0021749
0.00247202
0.00271875
0.00290659
0.00306064
0.00317504
0.00327751
0.00335441
0.00342635
0.00347941
0.00353183
0.00356879
0.00360799
0.00363387
0.00366441
0.0036832
0.00370782
0.00372147
0.00374079
0.0037504
0.00376566
0.00377221
0.00378439
0.00378881
0.00379844
0.00380145
0.00380896
0.0038105
0.00381597
0.00381651
0.00382052
0.00382033
0.00382318
0.00382238
0.00382446
0.00382301
0.00382423
0.0038222
0.00382278
0.00382035
0.00382046
0.00381779
0.00381756
0.00381464
0.00381409
0.00381081
0.00380996
0.00380637
0.00380532
0.00380155
0.00380037
0.00379649
0.00379523
0.00379128
0.00378989
0.00378582
0.00378431
0.00378008
0.00377849
0.00377415
0.00377257
0.00376812
0.0037666
0.00376209
0.00376061
0.00375606
0.00375459
0.00374998
3.9449e-10
4.28879e-11
5.15226e-09
4.2406e-08
1.75074e-07
6.00083e-07
1.93118e-06
9.2476e-06
1.98622e-05
0.000110623
0.000251585
0.000561003
0.000977441
0.00139195
0.00174858
0.00202919
0.00227672
0.00247742
0.00264956
0.00278423
0.00290471
0.00299982
0.00308864
0.0031563
0.00322194
0.00327066
0.00332206
0.0033586
0.00339959
0.00342706
0.00345968
0.00348013
0.00350694
0.0035224
0.00354445
0.0035563
0.00357468
0.0035839
0.00359925
0.00360611
0.00361883
0.00362397
0.00363455
0.00363845
0.00364709
0.00364997
0.0036571
0.00365904
0.00366471
0.00366594
0.00367044
0.0036711
0.00367465
0.0036749
0.00367771
0.00367757
0.00367965
0.00367902
0.00368051
0.00367948
0.00368053
0.00367921
0.0036799
0.00367836
0.00367876
0.00367704
0.00367712
0.00367519
0.00367497
0.00367279
0.00367239
0.00367001
0.00366951
0.00366694
0.0036664
0.00366367
0.0036631
0.00366023
0.00365956
0.00365685
1.0555e-10
2.55183e-12
1.29101e-09
1.30172e-09
8.84549e-09
2.88394e-08
1.24622e-07
4.34386e-07
1.50779e-06
7.12411e-06
1.45057e-05
7.62172e-05
0.000170187
0.000383887
0.000684261
0.00103321
0.00136063
0.00163406
0.00187056
0.00207382
0.00225909
0.00241136
0.00254874
0.002659
0.00276224
0.00284395
0.00292414
0.00298544
0.0030483
0.00309506
0.00314587
0.00318148
0.00322286
0.0032503
0.00328454
0.00330631
0.0033351
0.00335249
0.00337656
0.00338996
0.0034105
0.00342124
0.00343891
0.0034475
0.0034626
0.00346944
0.00348248
0.00348795
0.0034991
0.00350349
0.00351293
0.00351647
0.00352449
0.00352736
0.00353422
0.00353648
0.00354221
0.00354386
0.0035486
0.0035498
0.00355377
0.0035546
0.0035579
0.00355842
0.00356116
0.00356139
0.00356356
0.00356351
0.00356515
0.00356483
0.00356612
0.00356555
0.00356657
0.00356577
0.00356658
0.00356556
0.00356618
0.00356498
0.00356524
0.00356463
9.06162e-12
7.18698e-12
1.65248e-13
3.22895e-10
2.20446e-09
1.19912e-09
3.1165e-08
2.6678e-08
8.42779e-08
3.07048e-07
1.06807e-06
4.61288e-06
9.34064e-06
4.59946e-05
9.76856e-05
0.000225502
0.000444484
0.000703752
0.000997816
0.00126128
0.00149658
0.0016951
0.0018817
0.00204255
0.00219485
0.00231842
0.00243604
0.00253101
0.00262434
0.00269833
0.00277406
0.00283092
0.00289192
0.00293621
0.00298672
0.00302211
0.00306426
0.00309266
0.00312801
0.00315055
0.00318075
0.00319907
0.00322512
0.00324
0.00326256
0.00327478
0.00329445
0.0033043
0.00332143
0.00332953
0.00334452
0.00335122
0.0033644
0.00337005
0.00338159
0.00338635
0.00339638
0.00340037
0.00340908
0.00341247
0.00342006
0.00342291
0.00342951
0.00343192
0.00343767
0.00343966
0.0034446
0.00344621
0.00345043
0.00345171
0.00345533
0.00345634
0.00345945
0.0034602
0.00346289
0.00346341
0.00346564
0.0034661
0.00346742
0.00346921
6.23906e-13
1.61423e-12
4.37352e-13
6.97122e-14
2.38e-13
2.61239e-11
5.32767e-11
1.77892e-09
7.73751e-09
1.45125e-08
6.06363e-08
1.97336e-07
3.45484e-07
2.69418e-06
4.3197e-06
2.17249e-05
4.82617e-05
0.000119419
0.00024459
0.000434133
0.000664801
0.000902013
0.00113864
0.00133669
0.00152356
0.00168165
0.00183863
0.00197261
0.00210363
0.00221028
0.0023168
0.00240166
0.00248903
0.00255675
0.00262924
0.00268344
0.00274359
0.00278728
0.00283787
0.00287326
0.00291614
0.00294488
0.0029816
0.00300509
0.003037
0.0030565
0.0030844
0.00310036
0.00312465
0.00313787
0.00315933
0.00317043
0.00318948
0.00319887
0.00321578
0.00322367
0.0032386
0.00324523
0.00325852
0.00326427
0.00327604
0.00328103
0.00329146
0.00329581
0.00330508
0.0033089
0.00331712
0.00332045
0.00332772
0.00333062
0.00333705
0.00333959
0.00334528
0.00334751
0.0033525
0.00335456
0.0033587
0.00336107
0.00336345
0.00336803
8.42481e-15
1.22629e-13
2.40617e-13
2.77386e-13
9.27348e-15
5.8939e-13
9.69e-12
1.0315e-10
5.32847e-10
8.57433e-10
1.39744e-09
6.82788e-09
8.66313e-08
1.21451e-07
2.66547e-07
9.43083e-07
1.55209e-06
9.4785e-06
1.89915e-05
5.44302e-05
0.000114097
0.000220379
0.000388917
0.000578988
0.000786109
0.000987548
0.00117692
0.00133666
0.00149386
0.00162661
0.00176379
0.00187955
0.00199757
0.0020925
0.002191
0.00226874
0.00235202
0.00241606
0.00248669
0.00253943
0.00259913
0.00264225
0.00269322
0.00272882
0.0027731
0.00280265
0.00284121
0.00286563
0.0028991
0.00291946
0.00294902
0.00296617
0.00299238
0.00300688
0.00303021
0.00304248
0.00306327
0.00307366
0.00309225
0.00310122
0.00311786
0.00312562
0.00314057
0.00314734
0.00316081
0.00316672
0.00317874
0.00318395
0.00319473
0.00319936
0.00320903
0.00321319
0.00322185
0.00322567
0.00323327
0.00323713
0.0032432
0.0032479
0.00325145
0.0032591
2.88993e-15
6.90076e-15
2.0042e-14
2.54991e-14
1.42107e-15
1.82416e-14
8.21311e-13
1.00909e-11
3.79459e-11
5.66446e-11
8.71812e-11
4.20398e-10
2.07047e-10
2.02623e-09
1.63461e-09
2.97383e-08
4.23863e-08
3.25359e-07
3.67497e-07
3.22447e-06
6.00125e-06
1.99982e-05
4.28988e-05
9.1123e-05
0.000181376
0.000309504
0.000477668
0.000648171
0.000830456
0.000997828
0.00115794
0.00129294
0.00143061
0.00154626
0.00166852
0.00177081
0.00187944
0.00196635
0.0020592
0.00213225
0.00221241
0.00227384
0.00234311
0.00239464
0.00245485
0.0024978
0.00255017
0.00258616
0.00263177
0.00266213
0.00270224
0.00272779
0.00276321
0.00278479
0.00281628
0.0028347
0.00286282
0.00287849
0.0029036
0.00291703
0.00293953
0.00295116
0.00297146
0.00298161
0.00300001
0.00300886
0.00302539
0.00303313
0.00304805
0.00305494
0.00306843
0.00307469
0.00308676
0.00309269
0.00310312
0.00310923
0.00311751
0.00312475
0.00312979
0.00314083
1e-15
1.01221e-15
1.77002e-15
1e-15
1e-15
1.2777e-14
6.93146e-14
4.3461e-13
2.28343e-12
3.9366e-12
8.34955e-12
1.72676e-11
6.18818e-12
4.99534e-10
7.66308e-11
7.58462e-10
1.05647e-08
1.23356e-08
9.38484e-09
1.32811e-07
2.9501e-07
8.00516e-07
1.47013e-06
6.00582e-06
1.21481e-05
3.25446e-05
6.71935e-05
0.000127867
0.000228291
0.000355043
0.000510579
0.000660334
0.000819772
0.000962128
0.00110348
0.00122144
0.00134463
0.00144802
0.00155833
0.00165058
0.00175162
0.00183268
0.00192161
0.00199062
0.00206887
0.00212797
0.0021971
0.0022477
0.00230855
0.00235179
0.00240527
0.00244196
0.00248923
0.00252046
0.00256256
0.00258939
0.00262692
0.00264988
0.0026833
0.00270298
0.00273292
0.00274999
0.00277699
0.00279187
0.00281629
0.0028293
0.00285127
0.00286266
0.00288248
0.00289266
0.00291053
0.00291984
0.00293575
0.00294464
0.00295829
0.00296747
0.00297823
0.00298882
0.00299557
0.00301074
1e-15
1e-15
1e-15
1e-15
1e-15
1.07922e-15
3.85154e-15
1.78168e-14
9.59262e-14
2.67316e-13
1.18811e-13
8.16275e-13
1.35532e-12
1.18225e-12
3.44187e-12
1.95481e-11
3.36949e-12
2.8091e-10
2.77344e-10
4.0869e-09
8.78419e-09
2.44395e-08
6.78148e-08
1.98893e-07
2.68715e-07
1.66707e-06
2.91749e-06
8.99904e-06
1.83182e-05
4.11514e-05
8.36493e-05
0.000145171
0.000243913
0.000358466
0.000498674
0.000630987
0.000772177
0.000895842
0.00102493
0.00113028
0.00124274
0.00133603
0.0014384
0.00152142
0.00161612
0.00169168
0.0017779
0.0018439
0.0019207
0.0019781
0.00204685
0.00209688
0.00215844
0.00220178
0.00225689
0.00229441
0.0023436
0.00237607
0.00242002
0.00244814
0.00248761
0.00251212
0.00254761
0.00256901
0.00260094
0.00261975
0.00264846
0.00266509
0.00269092
0.00270586
0.00272897
0.00274271
0.00276307
0.00277623
0.00279355
0.00280706
0.00282067
0.00283573
0.00284461
0.00286492
1e-15
1e-15
1e-15
1e-15
1e-15
1e-15
1.03132e-15
1.98648e-15
4.96014e-15
1.52793e-14
3.06602e-14
5.66352e-14
7.62075e-14
1.5147e-13
1.50555e-13
2.77084e-13
6.7557e-14
5.35729e-12
1.03139e-11
6.47284e-11
9.73906e-11
1.00394e-09
4.15932e-09
8.09393e-09
2.90256e-08
6.19003e-08
3.92993e-08
3.51638e-07
5.40456e-07
2.05759e-06
3.98411e-06
1.0199e-05
2.11699e-05
4.29558e-05
8.61961e-05
0.000140069
0.000231583
0.000328302
0.000454704
0.000571496
0.000699557
0.000808893
0.000927353
0.00102445
0.00112886
0.00121378
0.00130984
0.0013865
0.00147492
0.00154482
0.00162799
0.00169146
0.00176741
0.00182319
0.00189191
0.00194117
0.00200352
0.00204722
0.00210359
0.00214208
0.00219299
0.00222686
0.00227264
0.00230255
0.00234371
0.00237031
0.00240732
0.0024312
0.00246433
0.00248598
0.00251534
0.00253542
0.00256098
0.00258029
0.00260187
0.00262145
0.00263843
0.00265942
0.00267106
0.00269797
1e-15
1e-15
1e-15
1e-15
1.0094e-15
1e-15
1e-15
1.04161e-15
1.12139e-15
1.47202e-15
1e-15
2.83766e-15
5.19605e-15
7.35454e-15
1.43902e-15
4.47839e-15
1.78473e-15
6.05343e-14
3.19677e-13
1.35667e-12
2.42108e-11
3.37764e-11
5.35076e-11
2.2499e-10
6.99421e-10
1.68415e-09
5.0967e-09
1.12299e-08
2.09193e-08
5.71057e-08
7.91932e-08
3.7373e-07
6.34176e-07
2.06235e-06
4.1129e-06
9.72738e-06
2.01341e-05
3.8834e-05
7.59358e-05
0.000119275
0.000197637
0.000277892
0.000386681
0.000490271
0.00060757
0.000706603
0.000816028
0.000905134
0.00100516
0.0010836
0.00117424
0.00124545
0.00133015
0.00139453
0.00147372
0.00153364
0.00160835
0.00166319
0.00173165
0.00178071
0.00184315
0.0018873
0.00194427
0.00198429
0.00203589
0.00207214
0.00211861
0.00215171
0.00219315
0.00222364
0.00226017
0.00228886
0.00232044
0.00234821
0.00237474
0.00240251
0.00242357
0.00245224
0.00246745
0.00250284
1e-15
1e-15
1.01384e-15
1e-15
1e-15
1e-15
1e-15
1e-15
1e-15
1e-15
1e-15
1e-15
1e-15
1.12547e-15
1.04227e-15
1e-15
1.01469e-15
2.11912e-15
1.0696e-14
1.66085e-13
5.68864e-15
3.90471e-14
2.03592e-12
8.83779e-13
1.80918e-11
5.23712e-11
1.31628e-10
1.4825e-10
3.13088e-10
1.39073e-09
2.12957e-09
5.05482e-09
3.37743e-09
5.84336e-08
9.27181e-08
2.92893e-07
6.33504e-07
1.21571e-06
3.68742e-06
6.79571e-06
1.62287e-05
2.7885e-05
5.8842e-05
8.93054e-05
0.000152761
0.000214157
0.000306599
0.000391988
0.000499994
0.000590771
0.000694205
0.0007765
0.00087131
0.000945981
0.00103279
0.00109968
0.00118012
0.00124193
0.00131725
0.00137391
0.00144464
0.00149843
0.00156513
0.0016155
0.00167646
0.00172296
0.00177808
0.00182151
0.00187108
0.00191226
0.00195614
0.00199557
0.00203349
0.0020719
0.00210378
0.00214178
0.00216753
0.00220579
0.00222542
0.00227138
1e-15
1e-15
1e-15
1e-15
1e-15
1e-15
1.01059e-15
1e-15
1e-15
1e-15
1e-15
1e-15
1e-15
1.00257e-15
1e-15
1e-15
1e-15
1e-15
1.06436e-15
9.97971e-15
9.78258e-15
1.4375e-14
4.9503e-13
2.15237e-13
4.40645e-12
1.09266e-12
2.93414e-12
1.95534e-12
9.26502e-12
3.08637e-11
1.11032e-10
1.92153e-10
2.60096e-10
1.13401e-09
3.01153e-10
9.56125e-09
1.86554e-08
2.3833e-08
1.09536e-07
1.66349e-07
5.58099e-07
9.18438e-07
2.62207e-06
4.50407e-06
1.07536e-05
1.84854e-05
3.85869e-05
5.86532e-05
0.000105373
0.000147836
0.000221855
0.000289912
0.000381827
0.000463561
0.000560878
0.000639922
0.000730112
0.000801255
0.000883979
0.000949791
0.00102568
0.0010864