/*--------------------------------*- C++ -*----------------------------------*\
| =========                 |                                                 |
| \\      /  F ield         | OpenFOAM: The Open Source CFD Toolbox           |
|  \\    /   O peration     | Version:  v1912                                 |
|   \\  /    A nd           | Website:  www.openfoam.com                      |
|    \\/     M anipulation  |                                                 |
\*---------------------------------------------------------------------------*/
FoamFile
{
    version     2.0;
    format      ascii;
    class       volScalarField;
    location    "700";
    object      p;
}
// * * * * * * * * * * * * * * * * * * * * * * * * * * * * * * * * * * * * * //

dimensions      [0 2 -2 0 0 0 0];


internalField   nonuniform List<scalar> 
10000
(
0.001424
0.00264613
0.0023726
0.002229
0.00222068
0.00225832
0.00226931
0.00230768
0.00232727
0.00238628
0.00241947
0.00250295
0.00255255
0.00267545
0.002752
0.00294975
0.00308154
0.00347391
0.00377989
0.00510168
0.00143995
0.00262977
0.00237034
0.00222838
0.00222033
0.00225817
0.00226916
0.00230766
0.00232715
0.00238633
0.00241933
0.00250307
0.00255233
0.00267568
0.00275163
0.00295017
0.0030809
0.00347442
0.00377961
0.00507932
0.00146106
0.00260763
0.00236941
0.00222861
0.0022206
0.00225823
0.00226939
0.0023076
0.00232738
0.00238616
0.00241961
0.00250278
0.00255273
0.00267519
0.00275223
0.0029493
0.00308194
0.00347233
0.00378262
0.00503456
0.00148366
0.00258565
0.00236907
0.00222908
0.00222048
0.00225831
0.00226918
0.00230773
0.00232711
0.00238634
0.00241927
0.00250305
0.00255229
0.00267555
0.00275166
0.00294971
0.00308124
0.00347211
0.00378187
0.00498658
0.00150713
0.00256313
0.00236835
0.00222901
0.00222045
0.00225805
0.00226931
0.00230751
0.00232731
0.00238609
0.00241952
0.00250273
0.00255257
0.00267517
0.00275193
0.00294922
0.00308138
0.00347092
0.00378013
0.00493964
0.00153122
0.00254024
0.00236711
0.00222933
0.00222029
0.00225817
0.0022692
0.00230765
0.00232717
0.0023862
0.00241935
0.00250279
0.00255241
0.00267511
0.00275185
0.00294882
0.0030815
0.00346887
0.00377868
0.00489149
0.00155605
0.00251675
0.0023658
0.00222954
0.00222029
0.00225799
0.00226925
0.0023075
0.00232721
0.00238604
0.00241938
0.00250263
0.0025524
0.00267491
0.00275177
0.0029484
0.00308144
0.00346653
0.00377689
0.00484168
0.00158148
0.00249303
0.00236404
0.00222991
0.00222011
0.00225794
0.00226918
0.00230749
0.00232716
0.00238599
0.00241934
0.0025025
0.00255238
0.00267465
0.00275174
0.00294779
0.0030814
0.00346371
0.00377449
0.00479063
0.00160757
0.00246892
0.00236201
0.00223025
0.00222001
0.00225779
0.00226917
0.00230741
0.00232714
0.00238588
0.0024193
0.00250234
0.00255231
0.00267434
0.00275167
0.00294703
0.00308136
0.00346024
0.00377154
0.00473845
0.00163409
0.00244471
0.00235957
0.00223068
0.00221985
0.00225765
0.00226912
0.00230732
0.0023271
0.00238575
0.00241925
0.00250213
0.00255225
0.00267396
0.00275159
0.00294613
0.00308127
0.00345614
0.00376799
0.00468514
0.00166106
0.00242039
0.00235677
0.00223115
0.00221968
0.00225747
0.00226907
0.00230721
0.00232706
0.00238559
0.00241919
0.00250187
0.00255218
0.0026735
0.00275148
0.00294504
0.00308112
0.00345137
0.00376375
0.00463078
0.00168843
0.00239606
0.00235354
0.00223166
0.0022195
0.00225725
0.00226901
0.00230708
0.002327
0.0023854
0.00241912
0.00250158
0.00255209
0.00267296
0.00275136
0.00294374
0.0030809
0.00344586
0.00375873
0.00457545
0.00171611
0.00237181
0.00234987
0.00223221
0.00221929
0.00225699
0.00226894
0.00230693
0.00232694
0.00238518
0.00241904
0.00250122
0.00255198
0.00267231
0.0027512
0.00294222
0.00308058
0.00343958
0.00375286
0.00451924
0.00174398
0.00234776
0.00234576
0.00223279
0.00221907
0.00225669
0.00226885
0.00230675
0.00232686
0.00238491
0.00241894
0.0025008
0.00255185
0.00267156
0.00275101
0.00294044
0.00308015
0.00343246
0.00374605
0.00446224
0.00177195
0.00232406
0.00234119
0.00223339
0.00221884
0.00225635
0.00226874
0.00230654
0.00232677
0.0023846
0.00241882
0.00250032
0.00255169
0.00267067
0.00275077
0.00293839
0.00307957
0.00342448
0.00373819
0.00440456
0.00179988
0.00230081
0.00233616
0.002234
0.00221859
0.00225595
0.00226862
0.00230629
0.00232667
0.00238424
0.00241868
0.00249975
0.0025515
0.00266965
0.00275048
0.00293603
0.0030788
0.00341559
0.0037292
0.0043463
0.0018277
0.00227813
0.00233066
0.00223459
0.00221834
0.00225549
0.00226847
0.002306
0.00232654
0.00238383
0.00241852
0.0024991
0.00255128
0.00266847
0.00275013
0.00293333
0.00307782
0.00340574
0.00371896
0.00428759
0.00185526
0.00225616
0.0023247
0.00223516
0.00221808
0.00225498
0.0022683
0.00230566
0.0023264
0.00238335
0.00241833
0.00249835
0.00255102
0.00266712
0.0027497
0.00293027
0.00307657
0.00339491
0.00370737
0.00422853
0.00188241
0.00223503
0.0023183
0.00223568
0.00221781
0.0022544
0.00226809
0.00230527
0.00232623
0.00238279
0.00241811
0.00249749
0.00255071
0.00266558
0.00274917
0.00292681
0.00307499
0.00338305
0.00369432
0.00416924
0.00190894
0.00221493
0.00231149
0.00223612
0.00221754
0.00225374
0.00226785
0.00230482
0.00232603
0.00238216
0.00241786
0.00249651
0.00255035
0.00266383
0.00274853
0.00292292
0.00307304
0.00337016
0.00367971
0.00410984
0.00193464
0.0021961
0.0023043
0.00223647
0.00221727
0.002253
0.00226757
0.00230431
0.0023258
0.00238144
0.00241755
0.00249539
0.00254992
0.00266185
0.00274776
0.00291856
0.00307065
0.00335619
0.00366344
0.00405043
0.00195905
0.00217888
0.00229674
0.00223668
0.00221701
0.00225219
0.00226726
0.00230372
0.00232554
0.00238062
0.00241721
0.00249412
0.00254941
0.00265961
0.00274682
0.00291371
0.00306773
0.00334115
0.0036454
0.00399114
0.00198165
0.00216401
0.00228886
0.00223669
0.00221673
0.00225129
0.00226688
0.00230305
0.00232522
0.00237968
0.00241679
0.00249269
0.0025488
0.0026571
0.00274569
0.00290832
0.00306423
0.00332501
0.0036255
0.00393204
0.00200084
0.00215257
0.00228093
0.00223653
0.00221647
0.00225029
0.00226645
0.00230228
0.00232487
0.00237863
0.00241632
0.00249107
0.00254809
0.00265429
0.00274433
0.00290238
0.00306004
0.00330778
0.00360366
0.00387324
0.0020163
0.00214481
0.00227306
0.00223619
0.00221623
0.00224921
0.00226596
0.00230142
0.00232445
0.00237744
0.00241576
0.00248926
0.00254725
0.00265116
0.00274269
0.00289585
0.00305507
0.00328947
0.00357979
0.00381485
0.00202932
0.00213973
0.00226509
0.00223555
0.00221597
0.00224801
0.00226538
0.00230043
0.00232397
0.0023761
0.00241512
0.00248724
0.00254625
0.00264768
0.00274074
0.0028887
0.00304922
0.00327009
0.00355382
0.00375695
0.0020411
0.00213612
0.002257
0.0022346
0.00221569
0.00224672
0.00226473
0.00229933
0.00232341
0.0023746
0.00241436
0.00248498
0.00254507
0.00264384
0.0027384
0.00288091
0.00304239
0.00324966
0.00352572
0.00369957
0.00205208
0.00213337
0.00224889
0.00223336
0.00221539
0.00224531
0.00226398
0.00229809
0.00232277
0.00237293
0.00241347
0.00248247
0.00254368
0.0026396
0.00273563
0.00287246
0.00303447
0.00322817
0.00349548
0.00364273
0.00206235
0.00213131
0.00224089
0.00223181
0.00221506
0.00224379
0.00226314
0.0022967
0.00232201
0.00237106
0.00241244
0.00247968
0.00254205
0.00263494
0.00273236
0.0028633
0.00302537
0.00320566
0.00346309
0.00358645
0.00207189
0.00212988
0.00223304
0.00222994
0.00221466
0.00224214
0.00226217
0.00229513
0.00232115
0.00236899
0.00241124
0.00247661
0.00254012
0.00262984
0.00272851
0.00285343
0.00301496
0.00318214
0.00342859
0.00353072
0.00208071
0.00212901
0.0022254
0.00222772
0.00221419
0.00224036
0.00226108
0.00229339
0.00232014
0.00236668
0.00240983
0.00247322
0.00253786
0.00262427
0.002724
0.00284282
0.00300316
0.00315763
0.00339203
0.00347553
0.00208876
0.00212865
0.00221801
0.00222517
0.00221362
0.00223845
0.00225984
0.00229144
0.00231897
0.00236413
0.00240819
0.0024695
0.00253522
0.00261822
0.00271876
0.00283145
0.00298987
0.00313213
0.00335349
0.00342085
0.00209607
0.00212871
0.00221094
0.00222228
0.00221292
0.00223639
0.00225844
0.00228929
0.00231762
0.00236132
0.00240628
0.00246542
0.00253212
0.00261164
0.00271269
0.00281929
0.00297502
0.00310567
0.00331308
0.00336662
0.0021026
0.00212912
0.0022042
0.00221906
0.00221206
0.00223417
0.00225686
0.00228689
0.00231605
0.00235823
0.00240407
0.00246096
0.00252853
0.00260453
0.00270571
0.00280632
0.00295851
0.00307825
0.00327094
0.00331279
0.00210839
0.00212977
0.00219782
0.00221551
0.00221103
0.00223179
0.00225508
0.00228425
0.00231424
0.00235484
0.00240149
0.0024561
0.00252436
0.00259684
0.00269773
0.00279251
0.00294032
0.00304986
0.00322723
0.00325929
0.00211342
0.00213058
0.00219183
0.00221166
0.00220976
0.00222922
0.00225308
0.00228133
0.00231214
0.00235113
0.00239851
0.00245082
0.00251955
0.00258856
0.00268867
0.00277783
0.0029204
0.00302049
0.00318212
0.00320607
0.00211772
0.00213144
0.00218623
0.00220753
0.00220825
0.00222645
0.00225083
0.00227813
0.00230972
0.00234707
0.00239507
0.00244509
0.00251403
0.00257965
0.00267844
0.00276225
0.00289875
0.00299014
0.00313583
0.00315308
0.00212128
0.00213227
0.00218099
0.00220312
0.00220645
0.00222347
0.00224829
0.00227461
0.00230693
0.00234265
0.00239111
0.00243887
0.00250772
0.00257008
0.00266697
0.00274572
0.00287537
0.00295878
0.00308855
0.00310025
0.00212416
0.00213296
0.00217609
0.00219848
0.00220432
0.00222025
0.00224546
0.00227077
0.00230372
0.00233783
0.00238657
0.00243215
0.00250055
0.00255979
0.0026542
0.00272819
0.0028503
0.0029264
0.0030405
0.00304755
0.00212631
0.00213342
0.0021715
0.00219361
0.00220183
0.00221676
0.00224227
0.00226656
0.00230005
0.00233259
0.0023814
0.00242488
0.00249245
0.00254874
0.00264008
0.00270962
0.00282359
0.00289297
0.00299188
0.00299498
0.00212781
0.00213358
0.00216715
0.00218854
0.00219894
0.00221299
0.0022387
0.00226198
0.00229585
0.0023269
0.00237551
0.00241701
0.00248334
0.00253689
0.00262457
0.00268994
0.00279533
0.0028585
0.00294289
0.00294253
0.0021286
0.00213335
0.00216297
0.00218328
0.00219562
0.00220889
0.00223469
0.00225698
0.00229107
0.00232072
0.00236886
0.00240852
0.00247319
0.00252416
0.00260766
0.00266911
0.00276559
0.00282296
0.00289371
0.00289023
0.00212874
0.00213268
0.00215887
0.00217784
0.00219183
0.00220444
0.00223022
0.00225155
0.00228565
0.00231401
0.00236137
0.00239933
0.00246191
0.00251049
0.00258933
0.00264707
0.0027345
0.00278639
0.0028445
0.00283812
0.00212819
0.00213149
0.00215477
0.00217221
0.00218754
0.00219959
0.00222521
0.00224564
0.00227954
0.00230673
0.002353
0.00238939
0.00244949
0.00249582
0.0025696
0.00262376
0.00270215
0.00274879
0.0027954
0.00278626
0.00212697
0.00212975
0.00215055
0.00216638
0.00218271
0.00219432
0.00221964
0.00223922
0.00227268
0.0022988
0.00234367
0.00237862
0.00243586
0.00248005
0.00254848
0.00259915
0.00266867
0.00271021
0.0027465
0.00273472
0.00212502
0.0021274
0.00214612
0.00216033
0.00217731
0.00218857
0.00221343
0.00223225
0.00226501
0.00229019
0.00233336
0.00236697
0.00242103
0.00246313
0.00252601
0.00257321
0.00263416
0.00267073
0.0026979
0.00268359
0.00212238
0.0021244
0.00214136
0.00215402
0.0021713
0.00218229
0.00220654
0.00222467
0.00225648
0.00228081
0.00232201
0.00235434
0.00240496
0.00244498
0.00250222
0.00254591
0.00259874
0.00263042
0.00264965
0.00263293
0.00211895
0.00212072
0.00213616
0.00214738
0.00216465
0.00217544
0.00219891
0.00221641
0.00224704
0.00227059
0.00230959
0.00234066
0.00238766
0.00242555
0.00247718
0.00251729
0.00256249
0.00258938
0.00260177
0.00258283
0.00211476
0.00211632
0.00213043
0.00214037
0.00215731
0.00216795
0.00219048
0.00220743
0.00223665
0.00225946
0.00229605
0.00232585
0.0023691
0.00240478
0.0024509
0.00248735
0.00252552
0.00254771
0.00255429
0.00253335
0.00210971
0.00211115
0.00212407
0.00213289
0.00214925
0.00215975
0.00218121
0.00219763
0.00222526
0.00224733
0.00228139
0.00230984
0.0023493
0.00238264
0.00242345
0.00245616
0.00248788
0.00250554
0.00250722
0.00248452
0.00210381
0.00210516
0.00211697
0.00212487
0.00214041
0.00215078
0.00217105
0.00218696
0.00221283
0.00223413
0.00226555
0.00229255
0.00232825
0.00235911
0.00239485
0.00242376
0.00244964
0.00246297
0.00246055
0.00243639
0.00209695
0.0020983
0.00210906
0.00211618
0.00213075
0.00214096
0.00215992
0.00217531
0.00219934
0.00221977
0.00224853
0.00227395
0.00230596
0.0023342
0.00236517
0.00239025
0.00241087
0.00242012
0.00241427
0.00238895
0.00208912
0.00209051
0.00210026
0.00210675
0.00212021
0.00213022
0.0021478
0.00216261
0.00218472
0.00220419
0.00223028
0.00225399
0.00228243
0.00230791
0.00233442
0.0023557
0.00237161
0.00237708
0.00236838
0.0023422
0.00208022
0.00208172
0.00209048
0.00209645
0.00210873
0.00211846
0.00213462
0.00214878
0.00216895
0.00218732
0.0022108
0.00223263
0.00225766
0.00228029
0.00230265
0.00232022
0.00233192
0.00233393
0.00232288
0.00229611
0.00207024
0.00207184
0.00207966
0.00208518
0.00209624
0.00210562
0.00212033
0.00213375
0.00215198
0.00216911
0.00219005
0.00220988
0.00223165
0.00225138
0.00226989
0.00228389
0.00229183
0.00229075
0.00227775
0.00225066
0.00205905
0.0020608
0.00206771
0.00207282
0.00208267
0.00209159
0.00210486
0.00211743
0.00213376
0.00214952
0.002168
0.00218572
0.00220441
0.00222124
0.0022362
0.00224681
0.00225141
0.00224759
0.00223299
0.0022058
0.00204664
0.00204852
0.00205457
0.00205927
0.00206795
0.00207632
0.00208816
0.00209977
0.00211425
0.00212852
0.00214464
0.00216018
0.00217595
0.00218992
0.0022016
0.00220905
0.00221069
0.00220448
0.00218859
0.00216148
0.0020329
0.0020349
0.00204016
0.00204444
0.00205199
0.0020597
0.00207017
0.00208072
0.0020934
0.00210608
0.00211994
0.00213326
0.00214629
0.00215749
0.00216616
0.0021707
0.00216971
0.00216146
0.00214454
0.00211765
0.00201777
0.00201987
0.0020244
0.00202823
0.00203471
0.00204169
0.00205082
0.00206021
0.00207116
0.00208219
0.00209389
0.002105
0.00211545
0.002124
0.00212992
0.00213181
0.00212851
0.00211853
0.0021008
0.00207427
0.00200116
0.00200335
0.00200721
0.00201056
0.00201604
0.00202221
0.00203004
0.00203823
0.00204751
0.00205685
0.00206648
0.00207543
0.00208346
0.00208952
0.00209292
0.00209244
0.00208713
0.00207569
0.00205737
0.00203128
0.00198303
0.00198525
0.00198851
0.00199135
0.00199589
0.0020012
0.00200779
0.00201472
0.0020224
0.00203006
0.00203771
0.00204459
0.00205035
0.0020541
0.00205522
0.00205263
0.00204557
0.00203295
0.00201421
0.00198863
0.00196327
0.00196551
0.00196823
0.00197053
0.00197419
0.00197861
0.001984
0.00198967
0.00199581
0.00200182
0.0020076
0.00201249
0.00201616
0.00201779
0.00201685
0.00201241
0.00200387
0.00199029
0.00197128
0.00194626
0.00194183
0.00194405
0.0019463
0.00194804
0.00195086
0.0019544
0.00195864
0.00196305
0.00196772
0.00197213
0.00197616
0.00197919
0.00198092
0.00198063
0.00197787
0.00197183
0.00196202
0.00194769
0.00192855
0.00190414
0.00191863
0.00192083
0.00192264
0.00192382
0.00192586
0.00192851
0.00193166
0.00193485
0.00193812
0.00194102
0.0019434
0.00194471
0.00194468
0.00194266
0.0019383
0.00193088
0.00192004
0.00190513
0.00188598
0.0018622
0.00189363
0.0018958
0.0018972
0.00189784
0.00189914
0.00190093
0.00190303
0.00190506
0.00190701
0.00190849
0.00190934
0.00190908
0.00190746
0.00190393
0.00189817
0.00188958
0.0018779
0.00186258
0.00184351
0.00182039
0.00186678
0.0018689
0.00186994
0.00187004
0.00187065
0.00187163
0.00187275
0.00187368
0.0018744
0.00187457
0.00187403
0.00187235
0.00186932
0.00186445
0.00185749
0.00184795
0.00183559
0.00182001
0.00180111
0.00177867
0.00183804
0.00184011
0.00184081
0.00184041
0.00184038
0.00184059
0.0018408
0.00184071
0.00184031
0.00183927
0.00183747
0.00183453
0.00183026
0.00182425
0.00181628
0.00180596
0.0017931
0.00177738
0.00175872
0.00173697
0.00180738
0.00180941
0.00180979
0.00180894
0.0018083
0.00180781
0.00180718
0.00180616
0.00180473
0.00180263
0.00179971
0.00179566
0.00179032
0.00178334
0.00177455
0.00176361
0.0017504
0.00173464
0.0017163
0.00169524
0.0017748
0.00177678
0.00177689
0.00177561
0.00177443
0.00177329
0.0017719
0.00177005
0.00176771
0.00176465
0.00176076
0.00175576
0.00174951
0.00174174
0.00173228
0.00172089
0.00170745
0.00169176
0.00167378
0.00165344
0.00174029
0.00174223
0.00174209
0.00174042
0.00173876
0.00173705
0.00173499
0.0017324
0.00172926
0.00172538
0.00172066
0.00171486
0.00170786
0.00169945
0.00168949
0.00167778
0.00166423
0.00164868
0.00163113
0.00161149
0.00170388
0.00170578
0.00170541
0.00170342
0.00170132
0.00169911
0.00169647
0.00169325
0.00168942
0.00168485
0.00167943
0.00167297
0.00166538
0.00165647
0.00164615
0.00163424
0.00162069
0.00160537
0.00158828
0.00156936
0.00166559
0.00166746
0.0016669
0.00166461
0.00166215
0.00165951
0.00165638
0.00165262
0.00164822
0.00164308
0.00163709
0.00163012
0.00162207
0.00161281
0.00160225
0.00159026
0.0015768
0.00156178
0.00154518
0.00152699
0.00162547
0.00162732
0.00162659
0.00162406
0.0016213
0.0016183
0.00161475
0.00161056
0.0016057
0.0016001
0.00159368
0.00158632
0.00157795
0.00156846
0.00155777
0.00154581
0.00153252
0.00151785
0.00150179
0.00148432
0.00158358
0.0015854
0.00158454
0.00158182
0.00157881
0.00157552
0.00157165
0.00156711
0.0015619
0.00155596
0.00154922
0.00154159
0.00153301
0.0015234
0.0015127
0.00150085
0.00148782
0.00147355
0.00145805
0.00144131
0.00153999
0.00154179
0.00154083
0.00153795
0.00153475
0.00153124
0.00152713
0.00152233
0.00151687
0.00151069
0.00150374
0.00149595
0.00148727
0.00147764
0.00146703
0.00145537
0.00144264
0.00142882
0.00141391
0.00139791
0.00149477
0.00149655
0.00149551
0.00149252
0.00148918
0.00148553
0.00148124
0.00147628
0.00147065
0.00146433
0.00145726
0.00144941
0.00144073
0.00143118
0.00142072
0.00140932
0.00139696
0.00138364
0.00136933
0.00135406
0.001448
0.00144977
0.00144868
0.00144562
0.0014422
0.00143844
0.00143406
0.001429
0.00142328
0.00141691
0.00140982
0.00140199
0.0013934
0.00138399
0.00137377
0.00136269
0.00135075
0.00133794
0.00132426
0.00130973
0.00139979
0.00140154
0.00140042
0.00139733
0.00139386
0.00139007
0.00138564
0.00138055
0.00137483
0.00136847
0.00136144
0.00135372
0.00134527
0.00133609
0.00132616
0.00131545
0.00130397
0.00129171
0.00127867
0.00126487
0.00135022
0.00135195
0.00135083
0.00134773
0.00134426
0.00134047
0.00133606
0.001331
0.00132533
0.00131906
0.00131215
0.00130459
0.00129637
0.00128747
0.00127788
0.00126759
0.0012566
0.0012449
0.00123252
0.00121944
0.00129938
0.0013011
0.00129998
0.00129691
0.00129348
0.00128973
0.00128538
0.0012804
0.00127485
0.00126871
0.00126199
0.00125465
0.0012467
0.00123812
0.00122892
0.00121908
0.0012086
0.00119749
0.00118576
0.00117342
0.00124737
0.00124907
0.00124798
0.00124496
0.00124159
0.00123792
0.00123367
0.00122882
0.00122342
0.00121747
0.00121097
0.00120391
0.00119627
0.00118806
0.00117927
0.00116991
0.00115997
0.00114946
0.00113838
0.00112676
0.00119427
0.00119596
0.0011949
0.00119195
0.00118867
0.00118511
0.001181
0.00117631
0.0011711
0.00116538
0.00115914
0.00115238
0.00114509
0.00113727
0.00112893
0.00112006
0.00111067
0.00110077
0.00109035
0.00107944
0.00114018
0.00114184
0.00114082
0.00113797
0.0011348
0.00113137
0.00112741
0.00112291
0.00111793
0.00111247
0.00110652
0.00110009
0.00109318
0.00108578
0.0010779
0.00106954
0.00106071
0.00105141
0.00104165
0.00103144
0.00108516
0.00108679
0.00108582
0.00108307
0.00108003
0.00107675
0.00107298
0.00106869
0.00106395
0.00105877
0.00105314
0.00104706
0.00104054
0.00103357
0.00102617
0.00101833
0.00101005
0.00100136
0.000992249
0.000982731
0.00102928
0.00103088
0.00102997
0.00102733
0.00102443
0.00102131
0.00101774
0.00101368
0.0010092
0.00100432
0.000999017
0.000993306
0.000987186
0.000980662
0.000973737
0.000966416
0.000958705
0.000950609
0.000942136
0.000933296
0.000972595
0.000974153
0.000973299
0.000970793
0.00096804
0.000965097
0.000961727
0.000957912
0.000953707
0.000949127
0.000944169
0.000938833
0.000933124
0.000927046
0.000920604
0.000913801
0.000906644
0.00089914
0.000891294
0.000883114
0.000915137
0.000916651
0.00091586
0.000913488
0.000910894
0.000908132
0.000904977
0.000901411
0.000897486
0.000893219
0.000888607
0.00088365
0.000878353
0.000872721
0.000866758
0.000860469
0.000853859
0.000846934
0.000839701
0.000832166
0.000856951
0.000858407
0.000857675
0.000855443
0.000853012
0.000850437
0.000847501
0.000844188
0.000840547
0.000836596
0.000832331
0.000827753
0.000822867
0.000817677
0.000812188
0.000806404
0.00080033
0.000793972
0.000787336
0.000780427
0.000798007
0.000799408
0.000798741
0.000796657
0.000794395
0.000792011
0.000789297
0.000786238
0.000782883
0.000779247
0.000775328
0.000771126
0.000766646
0.000761893
0.00075687
0.000751581
0.000746032
0.000740226
0.00073417
0.000727869
0.000738351
0.000739673
0.000739061
0.000737124
0.000735033
0.00073284
0.000730349
0.000727546
0.000724475
0.000721153
0.000717576
0.000713746
0.000709665
0.00070534
0.000700773
0.000695968
0.000690929
0.000685661
0.000680168
0.000674455
0.000677857
0.000679116
0.000678573
0.000676796
0.000674882
0.000672882
0.000670615
0.000668066
0.000665279
0.000662267
0.000659028
0.000655563
0.000651875
0.000647969
0.000643848
0.000639515
0.000634973
0.000630227
0.000625281
0.000620138
0.000616598
0.000617753
0.000617258
0.000615633
0.000613893
0.000612085
0.00061004
0.000607744
0.000605237
0.000602532
0.000599625
0.000596518
0.000593215
0.000589719
0.000586031
0.000582157
0.000578098
0.000573858
0.000569441
0.000564851
0.000554304
0.000555387
0.000554966
0.000553513
0.000551958
0.000550347
0.000548525
0.000546481
0.000544252
0.000541849
0.00053927
0.000536517
0.00053359
0.000530495
0.000527233
0.000523807
0.00052022
0.000516474
0.000512572
0.000508519
0.000491078
0.000492035
0.000491655
0.000490357
0.000488978
0.000487556
0.000485953
0.000484158
0.000482202
0.000480097
0.000477839
0.00047543
0.000472872
0.000470168
0.000467319
0.000464329
0.000461199
0.000457932
0.00045453
0.000450996
0.0004265
0.000427365
0.000427053
0.000425932
0.000424742
0.000423517
0.000422137
0.000420592
0.00041891
0.000417102
0.000415164
0.000413098
0.000410905
0.000408589
0.00040615
0.000403591
0.000400912
0.000398118
0.000395209
0.000392188
0.000360549
0.000361277
0.000361006
0.000360051
0.000359041
0.000358006
0.000356843
0.000355542
0.000354128
0.000352609
0.000350983
0.000349251
0.000347413
0.000345474
0.000343433
0.000341292
0.000339052
0.000336717
0.000334285
0.000331761
0.000292893
0.000293504
0.000293294
0.000292519
0.000291702
0.000290868
0.00028993
0.000288883
0.000287745
0.000286524
0.000285218
0.000283828
0.000282354
0.000280798
0.000279161
0.000277445
0.00027565
0.000273778
0.00027183
0.000269808
0.000223191
0.000223647
0.000223475
0.000222875
0.000222243
0.000221598
0.000220876
0.00022007
0.000219197
0.000218262
0.000217263
0.000216201
0.000215076
0.00021389
0.000212644
0.000211338
0.000209973
0.000208551
0.000207072
0.000205537
0.000151175
0.000151501
0.000151399
0.000150998
0.000150576
0.000150148
0.000149669
0.000149135
0.000148555
0.000147933
0.000147269
0.000146562
0.000145813
0.000145024
0.000144193
0.000143322
0.000142412
0.000141463
0.000140475
0.00013945
7.59297e-05
7.60652e-05
7.59829e-05
7.57637e-05
7.55353e-05
7.53016e-05
7.50409e-05
7.4753e-05
7.44428e-05
7.41124e-05
7.3761e-05
7.33895e-05
7.29974e-05
7.25859e-05
7.21546e-05
7.17044e-05
7.12348e-05
7.0747e-05
7.02403e-05
6.9716e-05
0.0055435
0.00318029
0.00205713
0.00181891
0.00179266
0.00174441
0.00170209
0.0016631
0.00160218
0.00152941
0.00145537
0.00138768
0.00131984
0.00125796
0.00120066
0.00114948
0.00110353
0.00105869
0.00101683
0.000978229
0.000940302
0.000905038
0.00087282
0.000841923
0.000810733
0.000782011
0.000754695
0.00072766
0.000701166
0.00067705
0.000653841
0.000630461
0.000607316
0.00058568
0.000564673
0.000544042
0.000523574
0.000504402
0.000486014
0.000468177
0.000449884
0.000432404
0.000415261
0.000398971
0.000382465
0.000366333
0.000350515
0.000335319
0.000320324
0.000305818
0.00029109
0.000276859
0.000262679
0.000249218
0.000236
0.000223114
0.000210169
0.000197713
0.000185342
0.000173611
0.000161809
0.000150312
0.000138842
0.000127628
0.00011648
0.00010575
9.55195e-05
8.53531e-05
7.54825e-05
6.55506e-05
5.6435e-05
4.6789e-05
3.84985e-05
2.92857e-05
2.21952e-05
1.30829e-05
7.37686e-06
-1.54299e-06
-4.14301e-06
-1.16041e-05
0.00552083
0.00319991
0.00208594
0.00184603
0.00181277
0.00175892
0.00171237
0.00167093
0.00160837
0.00153458
0.00145999
0.0013919
0.00132375
0.00126158
0.00120401
0.00115258
0.00110642
0.00106139
0.00101935
0.000980591
0.000942522
0.000907125
0.000874786
0.000843775
0.000812488
0.000783678
0.000756281
0.000729168
0.000702606
0.000678423
0.000655153
0.000631714
0.000608519
0.000586836
0.000565786
0.000545111
0.000524606
0.000505395
0.000486974
0.000469101
0.000450779
0.000433268
0.000416101
0.000399783
0.000383255
0.000367097
0.00035126
0.000336039
0.000321029
0.0003065
0.000291758
0.000277505
0.000263314
0.000249832
0.000236605
0.000223699
0.000210746
0.000198271
0.000185893
0.000174143
0.000162336
0.000150822
0.000139347
0.000128116
0.000116965
0.000106219
9.59864e-05
8.58033e-05
7.59321e-05
6.5983e-05
5.68671e-05
4.72067e-05
3.89158e-05
2.96904e-05
2.25988e-05
1.34731e-05
7.76724e-06
-1.16425e-06
-3.77946e-06
-1.12289e-05
0.00546977
0.00320787
0.00210702
0.00186847
0.00183349
0.00177696
0.00172657
0.00168135
0.00161653
0.0015415
0.00146618
0.00139753
0.00132896
0.00126643
0.00120852
0.00115679
0.00111036
0.00106507
0.0010228
0.000983833
0.000945583
0.000910007
0.000877512
0.00084635
0.000814933
0.000786003
0.000758498
0.00073128
0.000704626
0.000680354
0.000657
0.00063348
0.000610216
0.000588468
0.000567359
0.000546624
0.000526067
0.000506803
0.000488335
0.000470412
0.000452049
0.000434495
0.000417293
0.000400936
0.000384378
0.000368184
0.000352321
0.000337065
0.000322032
0.000307471
0.000292708
0.000278427
0.000264219
0.00025071
0.000237468
0.000224534
0.000211568
0.000199067
0.000186678
0.000174904
0.000163089
0.00015155
0.000140069
0.000128814
0.000117659
0.00010689
9.6654e-05
8.64475e-05
7.65751e-05
6.66012e-05
5.74847e-05
4.78037e-05
3.95123e-05
3.02693e-05
2.3176e-05
1.40308e-05
8.32539e-06
-6.23254e-07
-3.25879e-06
-1.06898e-05
0.00542472
0.00321678
0.00211757
0.00187515
0.00184008
0.00178666
0.00173737
0.00168926
0.00162348
0.00154755
0.00147129
0.00140202
0.0013332
0.00127047
0.00121239
0.00116047
0.00111381
0.00106832
0.00102587
0.00098674
0.000948348
0.000912624
0.000880012
0.000848721
0.000817192
0.000788161
0.000760563
0.000733255
0.000706517
0.000682168
0.000658741
0.00063515
0.00061182
0.000590016
0.000568852
0.000548064
0.000527459
0.000508147
0.000489636
0.000471669
0.000453266
0.000435673
0.000418437
0.000402046
0.000385459
0.000369232
0.000353343
0.000338055
0.000322999
0.000308412
0.000293626
0.000279319
0.000265093
0.000251562
0.000238302
0.000225346
0.000212365
0.000199841
0.000187439
0.000175644
0.000163818
0.000152259
0.000140768
0.000129493
0.000118332
0.000107544
9.73025e-05
8.70754e-05
7.72001e-05
6.72033e-05
5.80847e-05
4.83851e-05
4.00918e-05
3.08337e-05
2.37369e-05
1.45738e-05
8.86716e-06
-9.61865e-08
-2.75385e-06
-1.01825e-05
0.00537895
0.00322421
0.00212906
0.00188395
0.00184384
0.00178877
0.00174001
0.001694
0.00162976
0.00155271
0.00147594
0.001406
0.00133692
0.00127415
0.00121606
0.00116385
0.00111687
0.00107126
0.00102872
0.000989474
0.000950995
0.000915166
0.000882462
0.000851049
0.00081942
0.0007903
0.000762622
0.00073523
0.000708419
0.000683998
0.00066051
0.000636846
0.000613456
0.000591595
0.00057038
0.000549539
0.000528888
0.00050953
0.000490978
0.000472967
0.000454524
0.000436893
0.000419622
0.000403196
0.00038658
0.000370321
0.000354404
0.000339088
0.000324006
0.000309394
0.000294583
0.000280252
0.000266005
0.000252454
0.000239175
0.000226196
0.000213198
0.000200654
0.000188235
0.00017642
0.000164582
0.000153004
0.000141501
0.000130207
0.000119039
0.000108233
9.79832e-05
8.77369e-05
7.78562e-05
6.78379e-05
5.87146e-05
4.89976e-05
4.07006e-05
3.14283e-05
2.43258e-05
1.51458e-05
9.43541e-06
4.59977e-07
-2.22663e-06
-9.67044e-06
0.00533003
0.00323101
0.00214169
0.00189337
0.00184921
0.00179197
0.00174005
0.00169365
0.00163087
0.0015563
0.00148084
0.00140984
0.00134069
0.00127789
0.00121957
0.00116697
0.00111981
0.00107416
0.00103151
0.00099221
0.00095371
0.000917795
0.000884922
0.000853362
0.000821664
0.000792486
0.000764751
0.00073729
0.000710424
0.000685939
0.00066239
0.00063865
0.000615204
0.000593285
0.000572024
0.000551127
0.000530432
0.000511026
0.000492438
0.000474378
0.000455896
0.000438222
0.000420916
0.000404453
0.000387806
0.000371513
0.000355568
0.00034022
0.000325113
0.000310474
0.000295636
0.000281279
0.000267011
0.000253438
0.000240137
0.000227136
0.000214119
0.000201553
0.000189115
0.00017728
0.000165428
0.00015383
0.000142312
0.000130998
0.00011982
0.000108998
9.87373e-05
8.84719e-05
7.85831e-05
6.8544e-05
5.94129e-05
4.96783e-05
4.13758e-05
3.20895e-05
2.49788e-05
1.57821e-05
1.00655e-05
1.07891e-06
-1.64372e-06
-9.11533e-06
0.00527905
0.00323807
0.00215487
0.00190309
0.00185501
0.00179508
0.00174148
0.00169408
0.00163007
0.00155612
0.00148164
0.00141235
0.0013447
0.00128147
0.00122254
0.00116997
0.00112283
0.00107702
0.00103417
0.000994891
0.000956409
0.000920369
0.000887305
0.000855642
0.00082392
0.000794703
0.000766921
0.000739404
0.000712507
0.00068794
0.000664278
0.000640475
0.00061699
0.000595029
0.000573736
0.000552791
0.000532062
0.000512609
0.000493983
0.000475873
0.000457355
0.000439635
0.000422298
0.000405794
0.00038912
0.000372792
0.000356822
0.000341441
0.00032631
0.000311639
0.000296775
0.000282389
0.000268101
0.000254503
0.000241182
0.000228155
0.000215119
0.00020253
0.000190071
0.000178215
0.000166348
0.00015473
0.000143196
0.000131861
0.000120673
0.000109832
9.95603e-05
8.92754e-05
7.93762e-05
6.9317e-05
6.01752e-05
5.04232e-05
4.21135e-05
3.28133e-05
2.56922e-05
1.64788e-05
1.07539e-05
1.75663e-06
-1.00788e-06
-8.51928e-06
0.00522624
0.00324487
0.00216831
0.00191315
0.00186086
0.00179849
0.0017432
0.00169462
0.00163047
0.00155642
0.00148113
0.00141221
0.00134534
0.00128309
0.00122562
0.00117349
0.00112554
0.00107939
0.00103665
0.000997452
0.000958899
0.000922692
0.000889587
0.000857958
0.000826209
0.000796888
0.000769065
0.000741503
0.000714595
0.000689937
0.000666154
0.0006423
0.000618794
0.000596815
0.000575502
0.000554518
0.000533758
0.00051424
0.00049554
0.00047739
0.000458846
0.000441088
0.000423727
0.000407191