/*--------------------------------*- C++ -*----------------------------------*\
| =========                 |                                                 |
| \\      /  F ield         | OpenFOAM: The Open Source CFD Toolbox           |
|  \\    /   O peration     | Version:  v1912                                 |
|   \\  /    A nd           | Website:  www.openfoam.com                      |
|    \\/     M anipulation  |                                                 |
\*---------------------------------------------------------------------------*/
FoamFile
{
    version     2.0;
    format      ascii;
    class       volVectorField;
    location    "700";
    object      U;
}
// * * * * * * * * * * * * * * * * * * * * * * * * * * * * * * * * * * * * * //

dimensions      [0 1 -1 0 0 0 0];


internalField   nonuniform List<vector> 
10000
(
(0.934899 -0.000807547 0)
(1.06049 -8.48057e-05 0)
(0.932602 -0.000107011 0)
(1.06245 2.35167e-05 0)
(0.931268 -8.39716e-05 0)
(1.06402 4.86542e-05 0)
(0.929642 -8.35958e-05 0)
(1.06565 6.55165e-05 0)
(0.927913 -9.0776e-05 0)
(1.06734 8.2123e-05 0)
(0.926052 -0.000103013 0)
(1.06908 0.000101402 0)
(0.924043 -0.000120822 0)
(1.07086 0.000126091 0)
(0.921854 -0.000146428 0)
(1.07265 0.000160482 0)
(0.919412 -0.000184439 0)
(1.07431 0.000211853 0)
(0.916471 -0.000233102 0)
(1.07508 0.000256325 0)
(0.986066 -0.00157559 0)
(1.01525 -0.000149913 0)
(0.986016 1.35095e-05 0)
(1.01454 -2.00301e-05 0)
(0.987176 3.31161e-05 0)
(1.01332 -2.09325e-05 0)
(0.988245 4.08692e-05 0)
(1.01199 -2.92307e-05 0)
(0.989421 4.86042e-05 0)
(1.01053 -3.95258e-05 0)
(0.990686 5.88738e-05 0)
(1.00891 -5.19315e-05 0)
(0.992043 7.26759e-05 0)
(1.00711 -6.716e-05 0)
(0.993477 9.16068e-05 0)
(1.00507 -8.62369e-05 0)
(0.994937 0.000119557 0)
(1.00261 -0.000113416 0)
(0.996198 0.000195533 0)
(0.998819 -0.000238955 0)
(0.999313 -0.00171365 0)
(1.00021 -1.25548e-05 0)
(0.998722 7.14374e-06 0)
(1.00029 3.84344e-05 0)
(0.999195 -2.31943e-05 0)
(0.999965 3.42753e-05 0)
(0.999456 -3.12674e-05 0)
(0.999639 3.63123e-05 0)
(0.999689 -3.6564e-05 0)
(0.9993 4.10539e-05 0)
(0.999865 -4.05498e-05 0)
(0.998944 4.67737e-05 0)
(0.999973 -4.31209e-05 0)
(0.998557 5.22333e-05 0)
(0.999984 -4.17575e-05 0)
(0.998097 5.48894e-05 0)
(0.999828 -2.78234e-05 0)
(0.997423 4.50614e-05 0)
(0.999259 6.041e-05 0)
(0.995748 -4.34029e-05 0)
(1.00035 -0.00161906 0)
(0.998565 -7.19825e-05 0)
(0.9995 2.93328e-05 0)
(0.998895 -3.41464e-05 0)
(0.999686 1.68369e-05 0)
(0.998843 -2.95272e-05 0)
(0.999669 2.56252e-05 0)
(0.998779 -2.7638e-05 0)
(0.999638 3.14411e-05 0)
(0.998689 -2.66851e-05 0)
(0.999568 3.59277e-05 0)
(0.998567 -2.51995e-05 0)
(0.999451 3.92145e-05 0)
(0.998392 -2.12003e-05 0)
(0.999263 4.14822e-05 0)
(0.99812 -1.14727e-05 0)
(0.998941 4.50614e-05 0)
(0.997603 8.68331e-06 0)
(0.998242 9.74766e-05 0)
(0.996098 9.99153e-05 0)
(1 -0.00159193 0)
(0.998926 -5.90351e-05 0)
(0.999134 -2.62996e-06 0)
(0.999266 1.07957e-05 0)
(0.999274 -1.22007e-05 0)
(0.999243 1.89063e-05 0)
(0.999216 -7.99119e-06 0)
(0.999202 1.94344e-05 0)
(0.999149 -6.07326e-06 0)
(0.999131 1.84551e-05 0)
(0.999048 -2.04608e-06 0)
(0.999024 1.62356e-05 0)
(0.998905 5.82157e-06 0)
(0.998861 1.22472e-05 0)
(0.998694 2.08367e-05 0)
(0.998597 5.85821e-06 0)
(0.998352 5.17158e-05 0)
(0.998085 -3.83738e-06 0)
(0.997639 0.000165422 0)
(0.996626 0.000106245 0)
(0.999964 -0.00150977 0)
(0.999026 -9.91211e-05 0)
(0.999125 2.78959e-05 0)
(0.999336 -1.51775e-05 0)
(0.999269 1.12332e-05 0)
(0.999306 -1.01515e-05 0)
(0.999217 1.40737e-05 0)
(0.999256 -8.26658e-06 0)
(0.999157 1.52688e-05 0)
(0.999176 -5.04661e-06 0)
(0.999063 1.71923e-05 0)
(0.999058 -6.28708e-07 0)
(0.998929 2.05256e-05 0)
(0.998884 4.82476e-06 0)
(0.998727 2.88649e-05 0)
(0.998607 1.01744e-05 0)
(0.998395 5.54878e-05 0)
(0.998084 8.00454e-06 0)
(0.997694 0.000200906 0)
(0.996654 0.000114333 0)
(0.999972 -0.00146607 0)
(0.999072 -9.86226e-05 0)
(0.999159 1.47724e-05 0)
(0.999358 -2.12839e-06 0)
(0.999302 -3.33893e-06 0)
(0.999329 3.77898e-06 0)
(0.99925 4.16503e-06 0)
(0.999279 4.9537e-06 0)
(0.999189 9.53984e-06 0)
(0.9992 5.34216e-06 0)
(0.999095 1.61151e-05 0)
(0.999083 5.5222e-06 0)
(0.998959 2.49496e-05 0)
(0.99891 6.46942e-06 0)
(0.998756 3.92211e-05 0)
(0.998634 9.50996e-06 0)
(0.998423 7.10098e-05 0)
(0.998113 1.25553e-05 0)
(0.997722 0.000233052 0)
(0.996732 0.000143601 0)
(1.00005 -0.00139464 0)
(0.999051 -0.000123318 0)
(0.999261 2.51472e-05 0)
(0.999313 -1.07088e-05 0)
(0.999402 4.39556e-06 0)
(0.999284 -2.03044e-06 0)
(0.99935 1.08528e-05 0)
(0.999234 8.92974e-07 0)
(0.999289 1.40606e-05 0)
(0.999155 3.27781e-06 0)
(0.999194 1.89646e-05 0)
(0.999038 5.6022e-06 0)
(0.999058 2.74837e-05 0)
(0.998865 7.97146e-06 0)
(0.998855 4.43897e-05 0)
(0.99859 1.05795e-05 0)
(0.998521 8.47214e-05 0)
(0.998071 1.2792e-05 0)
(0.997823 0.00027163 0)
(0.996737 0.000171258 0)
(1.0002 -0.00133365 0)
(0.998945 -0.00013363 0)
(0.999441 2.36517e-05 0)
(0.99918 -8.06983e-06 0)
(0.999583 2.20573e-06 0)
(0.999148 -1.93578e-07 0)
(0.999535 1.08002e-05 0)
(0.999095 1.91556e-06 0)
(0.999477 1.59891e-05 0)
(0.999012 3.90757e-06 0)
(0.999386 2.28678e-05 0)
(0.998892 6.39832e-06 0)
(0.999254 3.30986e-05 0)
(0.998715 9.72901e-06 0)
(0.999055 5.20533e-05 0)
(0.998437 1.39052e-05 0)
(0.998725 9.82041e-05 0)
(0.997917 1.74932e-05 0)
(0.998034 0.000310695 0)
(0.996628 0.000199501 0)
(1.00018 -0.00126303 0)
(0.999005 -0.000149173 0)
(0.999456 2.72926e-05 0)
(0.999217 -9.85106e-06 0)
(0.999594 3.57755e-06 0)
(0.999188 -7.99189e-07 0)
(0.999543 1.28409e-05 0)
(0.999137 2.26257e-06 0)
(0.999483 1.84469e-05 0)
(0.999057 4.72675e-06 0)
(0.99939 2.62105e-05 0)
(0.998939 7.31181e-06 0)
(0.999255 3.81283e-05 0)
(0.998766 1.06615e-05 0)
(0.999053 6.00626e-05 0)
(0.998491 1.54552e-05 0)
(0.998721 0.000112418 0)
(0.997977 2.18236e-05 0)
(0.99803 0.000348359 0)
(0.996743 0.000228307 0)
(1.00017 -0.00119576 0)
(0.99907 -0.000162234 0)
(0.999473 2.82865e-05 0)
(0.999258 -1.03517e-05 0)
(0.999608 3.97945e-06 0)
(0.99923 -9.59486e-07 0)
(0.999556 1.46646e-05 0)
(0.99918 2.42721e-06 0)
(0.999496 2.10188e-05 0)
(0.9991 5.25437e-06 0)
(0.999402 2.97333e-05 0)
(0.998983 8.37897e-06 0)
(0.999267 4.32208e-05 0)
(0.998809 1.23399e-05 0)
(0.999065 6.82674e-05 0)
(0.998535 1.78426e-05 0)
(0.998732 0.000127702 0)
(0.998026 2.70702e-05 0)
(0.998045 0.000386463 0)
(0.996841 0.000259305 0)
(1.00021 -0.00112728 0)
(0.999088 -0.000175035 0)
(0.999539 2.95681e-05 0)
(0.999251 -1.07671e-05 0)
(0.999671 4.66289e-06 0)
(0.999223 -9.53509e-07 0)
(0.999619 1.6544e-05 0)
(0.999172 2.84332e-06 0)
(0.99956 2.37337e-05 0)
(0.999092 5.98315e-06 0)
(0.999466 3.36061e-05 0)
(0.998974 9.52017e-06 0)
(0.999332 4.87656e-05 0)
(0.998801 1.41078e-05 0)
(0.99913 7.67837e-05 0)
(0.998527 2.05973e-05 0)
(0.998798 0.000143193 0)
(0.998021 3.317e-05 0)
(0.998116 0.000424021 0)
(0.996885 0.00029169 0)
(1.00025 -0.00105783 0)
(0.999093 -0.000186565 0)
(0.999617 3.05523e-05 0)
(0.999231 -1.12376e-05 0)
(0.999746 5.49084e-06 0)
(0.999204 -1.19202e-06 0)
(0.999694 1.86068e-05 0)
(0.999153 3.10075e-06 0)
(0.999635 2.66327e-05 0)
(0.999072 6.61368e-06 0)
(0.999542 3.76888e-05 0)
(0.998954 1.05551e-05 0)
(0.999407 5.46795e-05 0)
(0.998781 1.5713e-05 0)
(0.999206 8.59474e-05 0)
(0.998508 2.32827e-05 0)
(0.998874 0.00015956 0)
(0.998007 3.99187e-05 0)
(0.998198 0.000461588 0)
(0.99692 0.000325063 0)
(1.00029 -0.000987372 0)
(0.999107 -0.000196653 0)
(0.999687 3.09891e-05 0)
(0.99922 -1.14442e-05 0)
(0.999812 6.25556e-06 0)
(0.999194 -1.25292e-06 0)
(0.99976 2.06593e-05 0)
(0.999142 3.56633e-06 0)
(0.999701 2.95641e-05 0)
(0.999062 7.49745e-06 0)
(0.999608 4.18184e-05 0)
(0.998944 1.1946e-05 0)
(0.999473 6.06619e-05 0)
(0.998771 1.77996e-05 0)
(0.999272 9.52688e-05 0)
(0.998499 2.66105e-05 0)
(0.99894 0.000176205 0)
(0.998003 4.80159e-05 0)
(0.998271 0.0004982 0)
(0.996967 0.000360166 0)
(1.00031 -0.000916494 0)
(0.99914 -0.000205586 0)
(0.999737 3.12153e-05 0)
(0.999229 -1.17052e-05 0)
(0.999858 7.32533e-06 0)
(0.999204 -1.49032e-06 0)
(0.999806 2.30189e-05 0)
(0.999152 3.85949e-06 0)
(0.999747 3.28561e-05 0)
(0.999072 8.19532e-06 0)
(0.999653 4.64048e-05 0)
(0.998955 1.31546e-05 0)
(0.999519 6.72078e-05 0)
(0.998782 1.97557e-05 0)
(0.999318 0.000105276 0)
(0.998511 2.99782e-05 0)
(0.998986 0.000193674 0)
(0.998021 5.68527e-05 0)
(0.998324 0.000534391 0)
(0.997035 0.000396255 0)
(1.00032 -0.000846511 0)
(0.999184 -0.000212954 0)
(0.999777 3.07886e-05 0)
(0.999249 -1.16723e-05 0)
(0.999893 8.27351e-06 0)
(0.999225 -1.52865e-06 0)
(0.999841 2.52505e-05 0)
(0.999174 4.4127e-06 0)
(0.999782 3.6055e-05 0)
(0.999094 9.20284e-06 0)
(0.999688 5.09385e-05 0)
(0.998977 1.47241e-05 0)
(0.999554 7.37735e-05 0)
(0.998805 2.21553e-05 0)
(0.999352 0.000115405 0)
(0.998535 3.40109e-05 0)
(0.999021 0.000211325 0)
(0.998052 6.7119e-05 0)
(0.998367 0.000569386 0)
(0.997116 0.000433826 0)
(1.00034 -0.00077719 0)
(0.999213 -0.000218961 0)
(0.999832 3.01928e-05 0)
(0.999255 -1.1736e-05 0)
(0.999943 9.59495e-06 0)
(0.999232 -1.77729e-06 0)
(0.999891 2.7863e-05 0)
(0.99918 4.79639e-06 0)
(0.999831 3.96959e-05 0)
(0.9991 1.00791e-05 0)
(0.999738 5.59846e-05 0)
(0.998983 1.62201e-05 0)
(0.999604 8.09358e-05 0)
(0.998812 2.4577e-05 0)
(0.999403 0.000126234 0)
(0.998544 3.83043e-05 0)
(0.999072 0.000229703 0)
(0.998068 7.8441e-05 0)
(0.998428 0.000603609 0)
(0.99718 0.000472318 0)
(1.00036 -0.000708738 0)
(0.999237 -0.000222998 0)
(0.999891 2.89405e-05 0)
(0.999257 -1.14707e-05 0)
(0.999996 1.07908e-05 0)
(0.999235 -1.80772e-06 0)
(0.999944 3.03022e-05 0)
(0.999183 5.4087e-06 0)
(0.999884 4.31931e-05 0)
(0.999103 1.11994e-05 0)
(0.999791 6.09388e-05 0)
(0.998987 1.80042e-05 0)
(0.999656 8.80891e-05 0)
(0.998816 2.73861e-05 0)
(0.999456 0.000137155 0)
(0.998549 4.32511e-05 0)
(0.999126 0.000248166 0)
(0.998081 9.12319e-05 0)
(0.998492 0.000636333 0)
(0.997242 0.000511949 0)
(1.00041 -0.000640174 0)
(0.999241 -0.0002254 0)
(0.999969 2.75839e-05 0)
(0.999239 -1.13396e-05 0)
(1.00007 1.24745e-05 0)
(0.999218 -1.9817e-06 0)
(1.00002 3.32609e-05 0)
(0.999166 5.95652e-06 0)
(0.999956 4.72655e-05 0)
(0.999086 1.23006e-05 0)
(0.999863 6.65179e-05 0)
(0.99897 1.98318e-05 0)
(0.999729 9.59192e-05 0)
(0.998799 3.03581e-05 0)
(0.999528 0.0001488 0)
(0.998535 4.86666e-05 0)
(0.9992 0.000267256 0)
(0.998075 0.000105326 0)
(0.998577 0.000667975 0)
(0.997283 0.000552332 0)
(1.00045 -0.000571403 0)
(0.999241 -0.0002257 0)
(1.00005 2.54987e-05 0)
(0.999218 -1.10171e-05 0)
(1.00014 1.37908e-05 0)
(0.999199 -2.10621e-06 0)
(1.00009 3.58085e-05 0)
(0.999147 6.62324e-06 0)
(1.00003 5.10162e-05 0)
(0.999067 1.36023e-05 0)
(0.999936 7.187e-05 0)
(0.998951 2.19594e-05 0)
(0.999802 0.000103628 0)
(0.998782 3.37823e-05 0)
(0.999601 0.00016042 0)
(0.998519 5.48734e-05 0)
(0.999274 0.000286236 0)
(0.998069 0.000121035 0)
(0.998664 0.000697797 0)
(0.997322 0.000593534 0)
(1.00057 -0.000499614 0)
(0.999171 -0.000224391 0)
(1.0002 2.38209e-05 0)
(0.999129 -1.03903e-05 0)
(1.00028 1.60624e-05 0)
(0.99911 -2.12238e-06 0)
(1.00023 3.91276e-05 0)
(0.999058 7.31614e-06 0)
(1.00017 5.54981e-05 0)
(0.998978 1.48977e-05 0)
(1.00008 7.7958e-05 0)
(0.998862 2.41091e-05 0)
(0.999943 0.000112103 0)
(0.998693 3.73487e-05 0)
(0.999743 0.00017282 0)
(0.998433 6.15762e-05 0)
(0.999418 0.000305782 0)
(0.997991 0.000138071 0)
(0.998823 0.000726333 0)
(0.997289 0.00063504 0)
(1.00069 -0.00042105 0)
(0.99909 -0.000222151 0)
(1.00035 2.03744e-05 0)
(0.999031 -1.00897e-05 0)
(1.00043 1.77422e-05 0)
(0.999014 -2.08093e-06 0)
(1.00038 4.20198e-05 0)
(0.998962 8.26381e-06 0)
(1.00032 5.96833e-05 0)
(0.998883 1.65789e-05 0)
(1.00022 8.38278e-05 0)
(0.998768 2.67847e-05 0)
(1.00009 0.00012042 0)
(0.9986 4.16545e-05 0)
(0.999888 0.000185072 0)
(0.998342 6.9457e-05 0)
(0.999564 0.000324932 0)
(0.99791 0.000157096 0)
(0.998983 0.000752684 0)
(0.997251 0.000677145 0)
(1.00105 -0.000325792 0)
(0.998769 -0.000215641 0)
(1.00074 1.74406e-05 0)
(0.998693 -9.99833e-06 0)
(1.00081 1.9876e-05 0)
(0.998675 -2.35666e-06 0)
(1.00076 4.53064e-05 0)
(0.998621 8.93499e-06 0)
(1.0007 6.43439e-05 0)
(0.99854 1.80376e-05 0)
(1.00061 9.02609e-05 0)
(0.998424 2.93236e-05 0)
(1.00048 0.000129389 0)
(0.998256 4.59849e-05 0)
(1.00028 0.000198029 0)
(0.997999 7.7736e-05 0)
(0.99996 0.000344585 0)
(0.997577 0.000177164 0)
(0.999398 0.000777852 0)
(0.99696 0.000718553 0)
(1.00097 -0.000221621 0)
(0.998872 -0.000203389 0)
(1.00069 1.59591e-05 0)
(0.998786 -8.79602e-06 0)
(1.00076 2.26632e-05 0)
(0.998769 -1.965e-06 0)
(1.00071 4.88736e-05 0)
(0.998716 1.01548e-05 0)
(1.00065 6.91947e-05 0)
(0.998636 2.00445e-05 0)
(1.00055 9.6838e-05 0)
(0.998522 3.24973e-05 0)
(1.00042 0.000138464 0)
(0.998357 5.11642e-05 0)
(1.00022 0.00021098 0)
(0.998106 8.73497e-05 0)
(0.999906 0.00036376 0)
(0.997699 0.00019934 0)
(0.999359 0.000800467 0)
(0.997133 0.000760515 0)
(1.00052 -0.000137464 0)
(0.999348 -0.000193147 0)
(1.00027 1.32104e-05 0)
(0.999255 -8.64094e-06 0)
(1.00032 2.51207e-05 0)
(0.999241 -2.09621e-06 0)
(1.00027 5.22891e-05 0)
(0.999188 1.10684e-05 0)
(1.00021 7.40541e-05 0)
(0.999111 2.19135e-05 0)
(1.00012 0.000103521 0)
(0.998999 3.5722e-05 0)
(0.999981 0.000147689 0)
(0.998836 5.66824e-05 0)
(0.999783 0.000224009 0)
(0.998591 9.78439e-05 0)
(0.999467 0.000382538 0)
(0.998198 0.000223116 0)
(0.998937 0.000820685 0)
(0.997677 0.000802269 0)
(1.00018 -8.69821e-05 0)
(0.99971 -0.000185515 0)
(0.999944 9.78386e-06 0)
(0.999613 -8.40933e-06 0)
(0.999991 2.76974e-05 0)
(0.999599 -1.74059e-06 0)
(0.999939 5.5832e-05 0)
(0.999546 1.25247e-05 0)
(0.999878 7.90751e-05 0)
(0.999469 2.43847e-05 0)
(0.999785 0.000110377 0)
(0.999357 3.96565e-05 0)
(0.999652 0.000157086 0)
(0.999196 6.31281e-05 0)
(0.999454 0.000237128 0)
(0.998954 0.000109704 0)
(0.999142 0.000400997 0)
(0.998572 0.000248655 0)
(0.998633 0.000839006 0)
(0.998087 0.000843238 0)
(1.00004 -5.95661e-05 0)
(0.999864 -0.000177148 0)
(0.999825 7.60818e-06 0)
(0.999764 -8.0234e-06 0)
(0.999864 3.08315e-05 0)
(0.99975 -1.3604e-06 0)
(0.999813 5.96778e-05 0)
(0.999696 1.39393e-05 0)
(0.999753 8.43726e-05 0)
(0.999619 2.68736e-05 0)
(0.99966 0.00011751 0)
(0.999508 4.37597e-05 0)
(0.999527 0.000166746 0)
(0.999347 7.00262e-05 0)
(0.999332 0.000250401 0)
(0.999108 0.000122518 0)
(0.999025 0.000419161 0)
(0.998738 0.00027547 0)
(0.998537 0.000855584 0)
(0.998286 0.000882663 0)
(1.00001 -4.23164e-05 0)
(0.999914 -0.000166902 0)
(0.999807 5.95455e-06 0)
(0.999812 -7.684e-06 0)
(0.999839 3.38595e-05 0)
(0.999799 -8.12116e-07 0)
(0.999788 6.34246e-05 0)
(0.999745 1.56364e-05 0)
(0.999728 8.96717e-05 0)
(0.999668 2.9796e-05 0)
(0.999635 0.000124701 0)
(0.999557 4.84913e-05 0)
(0.999503 0.000176466 0)
(0.999398 7.78604e-05 0)
(0.999309 0.000263608 0)
(0.999162 0.000136767 0)
(0.999008 0.000436761 0)
(0.998805 0.000303921 0)
(0.998544 0.000870173 0)
(0.998387 0.000920825 0)
(0.999998 -2.86457e-05 0)
(0.999934 -0.000156003 0)
(0.999818 4.78529e-06 0)
(0.999831 -7.66606e-06 0)
(0.999842 3.71789e-05 0)
(0.999817 -2.07025e-07 0)
(0.999792 6.74652e-05 0)
(0.999763 1.74499e-05 0)
(0.999732 9.52877e-05 0)
(0.999687 3.29333e-05 0)
(0.99964 0.000132195 0)
(0.999577 5.36025e-05 0)
(0.999508 0.000186437 0)
(0.99942 8.63624e-05 0)
(0.999316 0.000276901 0)
(0.999189 0.000152128 0)
(0.99902 0.000453938 0)
(0.998844 0.000333468 0)
(0.99858 0.000883068 0)
(0.99846 0.000957004 0)
(0.999997 -1.71542e-05 0)
(0.999946 -0.000144741 0)
(0.999834 3.96041e-06 0)
(0.999844 -7.54477e-06 0)
(0.999851 4.05397e-05 0)
(0.99983 7.48429e-07 0)
(0.999802 7.14644e-05 0)
(0.999776 1.96361e-05 0)
(0.999741 0.000100866 0)
(0.9997 3.65687e-05 0)
(0.999649 0.000139643 0)
(0.99959 5.94195e-05 0)
(0.999519 0.000196311 0)
(0.999435 9.59025e-05 0)
(0.999328 0.000289918 0)
(0.999209 0.000168971 0)
(0.999039 0.000470327 0)
(0.998878 0.000364309 0)
(0.998623 0.000894076 0)
(0.998526 0.000991265 0)
(0.999997 -7.2494e-06 0)
(0.999955 -0.00013355 0)
(0.999851 3.83453e-06 0)
(0.999855 -7.56649e-06 0)
(0.99986 4.41398e-05 0)
(0.999841 1.7903e-06 0)
(0.999812 7.5664e-05 0)
(0.999786 2.1964e-05 0)
(0.999751 0.000106678 0)
(0.999711 4.04931e-05 0)
(0.999659 0.000147317 0)
(0.999603 6.57383e-05 0)
(0.99953 0.000206347 0)
(0.99945 0.000106262 0)
(0.999341 0.000302903 0)
(0.999228 0.000187006 0)
(0.99906 0.000486179 0)
(0.998911 0.00039593 0)
(0.998668 0.000903618 0)
(0.99859 0.00102299 0)
(0.999997 9.72174e-07 0)
(0.999964 -0.000122299 0)
(0.999866 4.17162e-06 0)
(0.999866 -7.46679e-06 0)
(0.999869 4.77062e-05 0)
(0.999851 3.21243e-06 0)
(0.999821 7.98142e-05 0)
(0.999796 2.47334e-05 0)
(0.99976 0.000112443 0)
(0.999721 4.50087e-05 0)
(0.999669 0.000154915 0)
(0.999614 7.28665e-05 0)
(0.99954 0.000216222 0)
(0.999464 0.000117747 0)
(0.999354 0.000315527 0)
(0.999248 0.000206472 0)
(0.999081 0.0005012 0)
(0.998945 0.000428353 0)
(0.998714 0.000911589 0)
(0.998653 0.00105219 0)
(0.999997 7.87072e-06 0)
(0.999971 -0.000111335 0)
(0.99988 5.1958e-06 0)
(0.999876 -7.4229e-06 0)
(0.999877 5.14455e-05 0)
(0.99986 4.82194e-06 0)
(0.999829 8.4126e-05 0)
(0.999806 2.77425e-05 0)
(0.999768 0.000118369 0)
(0.999732 4.99222e-05 0)
(0.999678 0.000162638 0)
(0.999626 8.06199e-05 0)
(0.999551 0.000226137 0)
(0.999478 0.000130162 0)
(0.999368 0.000327993 0)
(0.999267 0.000227087 0)
(0.999103 0.000515633 0)
(0.998979 0.000461066 0)
(0.998762 0.000918417 0)
(0.998715 0.00107837 0)
(0.999997 1.3385e-05 0)
(0.999977 -0.000100565 0)
(0.999894 6.69488e-06 0)
(0.999886 -7.17657e-06 0)
(0.999884 5.51219e-05 0)
(0.999869 6.85495e-06 0)
(0.999838 8.83754e-05 0)
(0.999815 3.12375e-05 0)
(0.999777 0.000124219 0)
(0.999741 5.54909e-05 0)
(0.999687 0.000170247 0)
(0.999637 8.92551e-05 0)
(0.999561 0.000235845 0)
(0.999491 0.000143735 0)
(0.999381 0.000340065 0)
(0.999287 0.000248971 0)
(0.999126 0.000529297 0)
(0.999013 0.000493968 0)
(0.998811 0.000924086 0)
(0.998775 0.00110154 0)
(0.999997 1.78397e-05 0)
(0.999982 -9.02628e-05 0)
(0.999906 8.82086e-06 0)
(0.999895 -6.85065e-06 0)
(0.999891 5.88801e-05 0)
(0.999877 9.16656e-06 0)
(0.999845 9.27226e-05 0)
(0.999823 3.50767e-05 0)
(0.999784 0.000130151 0)
(0.99975 6.15783e-05 0)
(0.999695 0.000177888 0)
(0.999647 9.86324e-05 0)
(0.99957 0.000245493 0)
(0.999505 0.000158291 0)
(0.999395 0.000351906 0)
(0.999306 0.000271831 0)
(0.99915 0.000542408 0)
(0.999047 0.000526562 0)
(0.99886 0.000928966 0)
(0.998834 0.00112137 0)
(0.999997 2.12333e-05 0)
(0.999987 -8.03546e-05 0)
(0.999917 1.13766e-05 0)
(0.999904 -6.23013e-06 0)
(0.999897 6.25364e-05 0)
(0.999885 1.19433e-05 0)
(0.999852 9.69984e-05 0)
(0.999831 3.94538e-05 0)
(0.999791 0.00013598 0)
(0.999759 6.83767e-05 0)
(0.999703 0.000185381 0)
(0.999658 0.00010893 0)
(0.99958 0.000254908 0)
(0.999518 0.000173959 0)
(0.999409 0.000363373 0)
(0.999326 0.00029566 0)
(0.999175 0.000554894 0)
(0.999081 0.000558656 0)
(0.998911 0.000933103 0)
(0.998893 0.00113792 0)
(0.999997 2.3845e-05 0)
(0.99999 -7.10319e-05 0)
(0.999927 1.44318e-05 0)
(0.999912 -5.37937e-06 0)
(0.999903 6.61871e-05 0)
(0.999892 1.50909e-05 0)
(0.999859 0.000101309 0)
(0.999839 4.42803e-05 0)
(0.999798 0.000141807 0)
(0.999767 7.57945e-05 0)
(0.999711 0.000192823 0)
(0.999668 0.000120039 0)
(0.99959 0.000264199 0)
(0.999531 0.00019057 0)
(0.999423 0.000374605 0)
(0.999346 0.000320151 0)
(0.999201 0.000566952 0)
(0.999116 0.000589798 0)
(0.998961 0.000936781 0)
(0.99895 0.00115104 0)
(0.999997 2.5708e-05 0)
(0.999993 -6.22289e-05 0)
(0.999936 1.78071e-05 0)
(0.99992 -4.13044e-06 0)
(0.999908 6.96984e-05 0)
(0.999898 1.87397e-05 0)
(0.999865 0.000105534 0)
(0.999846 4.96922e-05 0)
(0.999804 0.000147507 0)
(0.999775 8.39595e-05 0)
(0.999718 0.000200102 0)
(0.999677 0.000132055 0)
(0.9996 0.000273272 0)
(0.999544 0.000208147 0)
(0.999438 0.000385549 0)
(0.999366 0.00034518 0)
(0.999228 0.000578587 0)
(0.999151 0.000619752 0)
(0.999012 0.000940054 0)
(0.999007 0.00116087 0)
(0.999997 2.70371e-05 0)
(0.999995 -5.40504e-05 0)
(0.999943 2.15017e-05 0)
(0.999928 -2.50769e-06 0)
(0.999913 7.3127e-05 0)
(0.999904 2.28317e-05 0)
(0.999871 0.000109735 0)
(0.999852 5.56366e-05 0)
(0.99981 0.000153145 0)
(0.999783 9.28074e-05 0)
(0.999726 0.000207285 0)
(0.999687 0.000144881 0)
(0.99961 0.000282218 0)
(0.999557 0.00022651 0)
(0.999454 0.000396333 0)
(0.999386 0.000370433 0)
(0.999256 0.000589962 0)
(0.999186 0.000648143 0)
(0.999063 0.000943097 0)
(0.999062 0.00116742 0)
(0.999997 2.7877e-05 0)
(0.999997 -4.64249e-05 0)
(0.99995 2.53549e-05 0)
(0.999935 -3.91898e-07 0)
(0.999918 7.63875e-05 0)
(0.99991 2.74486e-05 0)
(0.999876 0.00011384 0)
(0.999859 6.21964e-05 0)
(0.999816 0.000158646 0)
(0.99979 0.000102398 0)
(0.999733 0.000214322 0)
(0.999696 0.000158529 0)
(0.99962 0.000291013 0)
(0.99957 0.000245583 0)
(0.99947 0.000406971 0)
(0.999407 0.000395703 0)
(0.999284 0.000601118 0)
(0.999222 0.000674754 0)
(0.999114 0.000945928 0)
(0.999117 0.00117092 0)
(0.999997 2.83751e-05 0)
(0.999998 -3.93796e-05 0)
(0.999956 2.932e-05 0)
(0.999942 2.21073e-06 0)
(0.999922 7.95148e-05 0)
(0.999915 3.25527e-05 0)
(0.999881 0.000117884 0)
(0.999865 6.93347e-05 0)
(0.999822 0.000164059 0)
(0.999798 0.00011267 0)
(0.99974 0.000221272 0)
(0.999706 0.000172886 0)
(0.999631 0.000299746 0)
(0.999584 0.000265164 0)
(0.999487 0.000417577 0)
(0.999428 0.00042068 0)
(0.999314 0.000612167 0)
(0.999258 0.000699323 0)
(0.999164 0.000948605 0)
(0.999171 0.00117155 0)
(0.999997 2.85658e-05 0)
(0.999999 -3.28325e-05 0)
(0.999961 3.32608e-05 0)
(0.999948 5.369e-06 0)
(0.999927 8.2466e-05 0)
(0.99992 3.81818e-05 0)
(0.999886 0.000121834 0)
(0.99987 7.70833e-05 0)
(0.999827 0.000169357 0)
(0.999805 0.000123618 0)
(0.999748 0.000228137 0)
(0.999715 0.000187891 0)
(0.999641 0.000308447 0)
(0.999597 0.000285099 0)
(0.999505 0.000428201 0)
(0.99945 0.000445125 0)
(0.999345 0.000623141 0)
(0.999294 0.000721703 0)
(0.999214 0.00095108 0)
(0.999224 0.00116957 0)
(0.999997 2.85334e-05 0)
(1 -2.67547e-05 0)
(0.999965 3.71138e-05 0)
(0.999953 9.07102e-06 0)
(0.99993 8.52691e-05 0)
(0.999925 4.42998e-05 0)
(0.99989 0.000125715 0)
(0.999876 8.53993e-05 0)
(0.999833 0.00017459 0)
(0.999811 0.000135165 0)
(0.999755 0.000234984 0)
(0.999724 0.000203404 0)
(0.999653 0.000317205 0)
(0.999611 0.000305169 0)
(0.999523 0.000438935 0)
(0.999472 0.000468762 0)
(0.999376 0.000634077 0)
(0.999331 0.00074176 0)
(0.999264 0.000953308 0)
(0.999276 0.00116526 0)
(0.999997 2.82962e-05 0)
(1 -2.10602e-05 0)
(0.999969 4.07783e-05 0)
(0.999958 1.33347e-05 0)
(0.999934 8.79183e-05 0)
(0.999929 5.09054e-05 0)
(0.999895 0.000129528 0)
(0.999881 9.42655e-05 0)
(0.999838 0.00017977 0)
(0.999818 0.000147248 0)
(0.999763 0.000241855 0)
(0.999734 0.000219303 0)
(0.999665 0.000326077 0)
(0.999625 0.000325178 0)
(0.999542 0.00044982 0)
(0.999495 0.000491373 0)
(0.999408 0.000644956 0)
(0.999368 0.000759455 0)
(0.999312 0.00095518 0)
(0.999328 0.00115893 0)
(0.999997 2.78921e-05 0)
(1 -1.56925e-05 0)
(0.999972 4.42037e-05 0)
(0.999963 1.81251e-05 0)
(0.999938 9.0447e-05 0)
(0.999933 5.79503e-05 0)
(0.999899 0.000133306 0)
(0.999887 0.000103617 0)
(0.999844 0.000184961 0)
(0.999825 0.000159761 0)
(0.999771 0.000248824 0)
(0.999743 0.000235424 0)
(0.999677 0.000335142 0)
(0.99964 0.000344909 0)
(0.999562 0.000460899 0)
(0.999518 0.00051275 0)
(0.99944 0.000655731 0)
(0.999405 0.000774781 0)
(0.99936 0.000956582 0)
(0.999378 0.00115087 0)
(0.999997 2.73288e-05 0)
(1 -1.05764e-05 0)
(0.999974 4.73357e-05 0)
(0.999967 2.34112e-05 0)
(0.999941 9.28801e-05 0)
(0.999937 6.53974e-05 0)
(0.999903 0.000137077 0)
(0.999892 0.000113392 0)
(0.99985 0.000190204 0)
(0.999831 0.000172595 0)
(0.999779 0.00025595 0)
(0.999753 0.00025161 0)
(0.99969 0.00034445 0)
(0.999655 0.000364165 0)
(0.999583 0.000472166 0)
(0.999542 0.000532738 0)
(0.999472 0.000666313 0)
(0.999443 0.0007878 0)
(0.999406 0.000957374 0)
(0.999427 0.00114136 0)
(0.999997 2.66213e-05 0)
(1 -5.65808e-06 0)
(0.999976 5.01585e-05 0)
(0.999971 2.91266e-05 0)
(0.999944 9.52619e-05 0)
(0.999941 7.31785e-05 0)
(0.999907 0.000140886 0)
(0.999896 0.000123497 0)
(0.999855 0.000195571 0)
(0.999838 0.00018562 0)
(0.999788 0.000263302 0)
(0.999763 0.00026769 0)
(0.999703 0.000354043 0)
(0.99967 0.000382762 0)
(0.999604 0.000483594 0)
(0.999567 0.000551218 0)
(0.999505 0.000676583 0)
(0.99948 0.000798605 0)
(0.999452 0.000957422 0)
(0.999475 0.00113068 0)
(0.999996 2.57802e-05 0)
(1 -8.9026e-07 0)
(0.999978 5.2669e-05 0)
(0.999974 3.5199e-05 0)
(0.999948 9.7638e-05 0)
(0.999944 8.12257e-05 0)
(0.999912 0.000144781 0)
(0.999901 0.000133839 0)
(0.999861 0.000201114 0)
(0.999845 0.000198703 0)
(0.999797 0.000270928 0)
(0.999773 0.000283506 0)
(0.999717 0.000363928 0)
(0.999686 0.000400544 0)
(0.999625 0.00049511 0)
(0.999592 0.00056812 0)
(0.999538 0.000686396 0)
(0.999518 0.000807326 0)
(0.999496 0.000956602 0)
(0.999522 0.00111903 0)
(0.999996 2.48207e-05 0)
(1 3.75514e-06 0)
(0.999979 5.48931e-05 0)
(0.999977 4.15344e-05 0)
(0.999951 0.00010006 0)
(0.999947 8.94511e-05 0)
(0.999916 0.000148812 0)
(0.999906 0.000144302 0)
(0.999867 0.000206898 0)
(0.999852 0.000211709 0)
(0.999806 0.000278865 0)
(0.999784 0.000298907 0)
(0.999731 0.000374089 0)
(0.999703 0.000417384 0)
(0.999647 0.000506612 0)
(0.999618 0.000583412 0)
(0.99957 0.000695589 0)
(0.999555 0.000814104 0)
(0.999539 0.000954809 0)
(0.999568 0.0011066 0)
(0.999996 2.37685e-05 0)
(1 8.28764e-06 0)
(0.999981 5.68722e-05 0)
(0.999979 4.8034e-05 0)
(0.999954 0.000102581 0)
(0.999951 9.77666e-05 0)
(0.99992 0.00015303 0)
(0.999911 0.000154776 0)
(0.999874 0.000212958 0)
(0.999859 0.000224506 0)
(0.999816 0.000287121 0)
(0.999794 0.000313764 0)
(0.999746 0.000384466 0)
(0.99972 0.000433185 0)
(0.999669 0.00051796 0)
(0.999644 0.000597094 0)
(0.999603 0.000704003 0)
(0.999593 0.00081909 0)
(0.999581 0.000951969 0)
(0.999611 0.00109353 0)
(0.999996 2.26523e-05 0)
(1 1.27015e-05 0)
(0.999982 5.86642e-05 0)
(0.999982 5.45907e-05 0)
(0.999957 0.000105247 0)
(0.999954 0.000106076 0)
(0.999924 0.000157475 0)
(0.999916 0.000165145 0)
(0.99988 0.000219328 0)
(0.999866 0.00023698 0)
(0.999825 0.000295678 0)
(0.999806 0.00032797 0)
(0.999761 0.000394974 0)
(0.999737 0.000447884 0)
(0.999692 0.000528998 0)
(0.99967 0.000609197 0)
(0.999635 0.000711479 0)
(0.999629 0.000822423 0)
(0.999622 0.000948037 0)
(0.999654 0.00107993 0)
(0.999996 2.15161e-05 0)
(1 1.69723e-05 0)
(0.999983 6.03344e-05 0)
(0.999983 6.11015e-05 0)
(0.999959 0.000108102 0)
(0.999957 0.000114287 0)
(0.999928 0.000162176 0)
(0.99992 0.000175308 0)
(0.999887 0.000226003 0)
(0.999874 0.000249027 0)
(0.999835 0.000304482 0)
(0.999818 0.000341441 0)
(0.999776 0.000405488 0)
(0.999755 0.000461442 0)
(0.999715 0.000539554 0)
(0.999697 0.00061976 0)
(0.999667 0.000717883 0)
(0.999665 0.000824231 0)
(0.999661 0.000943 0)
(0.999694 0.00106586 0)
(0.999996 2.04004e-05 0)
(1 2.10695e-05 0)
(0.999984 6.195e-05 0)
(0.999985 6.74679e-05 0)
(0.999962 0.000111169 0)
(0.99996 0.000122311 0)
(0.999932 0.000167142 0)
(0.999925 0.000185169 0)
(0.999893 0.000232961 0)
(0.999882 0.000260568 0)
(0.999846 0.000313454 0)
(0.99983 0.000354119 0)
(0.999792 0.000415868 0)
(0.999774 0.000473842 0)
(0.999737 0.000549459 0)
(0.999724 0.000628834 0)
(0.999698 0.000723103 0)
(0.9997 0.000824623 0)
(0.999699 0.000936873 0)
(0.999733 0.00105137 0)
(0.999996 1.93565e-05 0)
(1 2.49528e-05 0)
(0.999985 6.35718e-05 0)
(0.999987 7.36052e-05 0)
(0.999964 0.000114463 0)
(0.999963 0.000130075 0)
(0.999937 0.000172363 0)
(0.99993 0.000194653 0)
(0.9999 0.000240143 0)
(0.99989 0.000271536 0)
(0.999856 0.00032248 0)
(0.999842 0.00036596 0)
(0.999807 0.000425954 0)
(0.999792 0.000485077 0)
(0.99976 0.000558547 0)
(0.99975 0.000636465 0)
(0.999729 0.00072706 0)
(0.999735 0.000823688 0)
(0.999736 0.000929692 0)
(0.99977 0.00103648 0)
(0.999996 1.84229e-05 0)
(1 2.85876e-05 0)
(0.999985 6.52483e-05 0)
(0.999988 7.94437e-05 0)
(0.999967 0.000117974 0)
(0.999965 0.000137512 0)
(0.999941 0.000177798 0)
(0.999935 0.000203699 0)
(0.999907 0.000247471 0)
(0.999898 0.00028189 0)
(0.999867 0.000331432 0)
(0.999855 0.000376938 0)
(0.999823 0.000435583 0)
(0.999811 0.000495147 0)
(0.999783 0.000566679 0)
(0.999777 0.000642692 0)
(0.999759 0.000729705 0)
(0.999768 0.000821497 0)
(0.999771 0.000921504 0)
(0.999806 0.00102122 0)
(0.999996 1.76392e-05 0)
(1 3.19404e-05 0)
(0.999986 6.70104e-05 0)
(0.999989 8.49332e-05 0)
(0.999969 0.000121672 0)
(0.999968 0.000144576 0)
(0.999945 0.00018339 0)
(0.99994 0.000212263 0)
(0.999914 0.000254836 0)
(0.999906 0.000291591 0)
(0.999878 0.000340165 0)
(0.999868 0.000387028 0)
(0.999839 0.000444597 0)
(0.99983 0.000504047 0)
(0.999805 0.000573733 0)
(0.999803 0.000647547 0)
(0.999788 0.000731015 0)
(0.9998 0.000818108 0)
(0.999804 0.000912369 0)
(0.99984 0.00100558 0)
(0.999996 1.70239e-05 0)
(1 3.49931e-05 0)
(0.999987 6.88692e-05 0)
(0.99999 9.00411e-05 0)
(0.999971 0.00012551 0)
(0.999971 0.000151231 0)
(0.999949 0.000189056 0)
(0.999946 0.000220312 0)
(0.999921 0.00026212 0)
(0.999915 0.000300616 0)
(0.999888 0.000348533 0)
(0.999881 0.000396209 0)
(0.999855 0.000452851 0)
(0.999849 0.000511771 0)
(0.999827 0.000579618 0)
(0.999828 0.000651053 0)
(0.999816 0.000730992 0)
(0.999831 0.000813568 0)
(0.999836 0.000902344 0)
(0.999872 0.000989583 0)
(0.999996 1.65899e-05 0)
(1 3.7735e-05 0)
(0.999987 7.08147e-05 0)
(0.999991 9.47526e-05 0)
(0.999974 0.000129423 0)
(0.999974 0.000157455 0)
(0.999953 0.000194698 0)
(0.999951 0.000227821 0)
(0.999928 0.000269194 0)
(0.999923 0.000308936 0)
(0.999899 0.000356392 0)
(0.999894 0.000404456 0)
(0.999871 0.000460219 0)
(0.999868 0.000518306 0)
(0.999849 0.000584267 0)
(0.999853 0.000653227 0)
(0.999843 0.000729657 0)
(0.99986 0.000807919 0)
(0.999866 0.000891484 0)
(0.999902 0.000973228 0)
(0.999996 1.6327e-05 0)
(1 4.01725e-05 0)
(0.999988 7.28192e-05 0)
(0.999992 9.9065e-05 0)
(0.999976 0.000133332 0)
(0.999977 0.00016323 0)
(0.999957 0.000200211 0)
(0.999956 0.000234767 0)
(0.999935 0.000275928 0)
(0.999932 0.000316522 0)
(0.99991 0.000363612 0)
(0.999907 0.000411737 0)
(0.999886 0.000466596 0)
(0.999886 0.000523634 0)
(0.99987 0.000587639 0)
(0.999876 0.000654084 0)
(0.999869 0.00072704 0)
(0.999888 0.000801204 0)