/*--------------------------------*- C++ -*----------------------------------*\
| =========                 |                                                 |
| \\      /  F ield         | OpenFOAM: The Open Source CFD Toolbox           |
|  \\    /   O peration     | Version:  v1912                                 |
|   \\  /    A nd           | Website:  www.openfoam.com                      |
|    \\/     M anipulation  |                                                 |
\*---------------------------------------------------------------------------*/
FoamFile
{
    version     2.0;
    format      ascii;
    class       volScalarField;
    location    "490";
    object      epsilon;
}
// * * * * * * * * * * * * * * * * * * * * * * * * * * * * * * * * * * * * * //

dimensions      [0 2 -3 0 0 0 0];


internalField   nonuniform List<scalar> 
12441
(
0.0102964
0.00908496
0.00832707
0.00770259
0.00718361
0.00674891
0.00638217
0.00607079
0.00580478
0.00557643
0.00537875
0.00520343
0.00505271
0.00490964
0.00479994
0.00468695
0.00488763
0.0204535
0.27736
3.04869
20.9525
39.25
0.0101189
0.00892012
0.00818397
0.00757685
0.00707187
0.0066486
0.00629129
0.00598778
0.00572842
0.00550578
0.00531296
0.00514152
0.00499455
0.0048551
0.00474907
0.0046412
0.00480802
0.0201941
0.261159
3.04098
21.2432
40.2318
0.00989688
0.00871735
0.00800028
0.00740905
0.00691743
0.00650547
0.00615786
0.00586274
0.00561075
0.00539469
0.00520784
0.00504184
0.00490013
0.00476444
0.00466399
0.00455983
0.00464534
0.0182845
0.220914
3.00969
21.6227
41.3784
0.0096733
0.00851371
0.00781492
0.00723882
0.00675986
0.00635861
0.00602012
0.00573291
0.00548783
0.00527791
0.00509659
0.00493596
0.00479915
0.00467036
0.00457372
0.00447699
0.00449971
0.0159954
0.181759
2.98642
22.0904
42.5504
0.00942907
0.00828908
0.00760902
0.00704855
0.00658277
0.00619276
0.00586397
0.00558522
0.00534764
0.00514449
0.00496943
0.0048147
0.00468364
0.00455914
0.0044691
0.00437784
0.00434832
0.0139371
0.161652
2.99265
22.6084
43.6698
0.0092231
0.00809947
0.00743462
0.00688677
0.00643156
0.00605047
0.00572927
0.00545706
0.00522517
0.00502702
0.0048564
0.00470597
0.00457876
0.00446058
0.0043733
0.0042885
0.00427488
0.0140315
0.181006
3.09922
23.2402
44.7472
0.00900243
0.00789586
0.00724746
0.00671334
0.0062697
0.00589847
0.00558577
0.00532098
0.00509564
0.00490339
0.00473819
0.0045929
0.0044706
0.00435613
0.00427292
0.00419458
0.00602576
0.0230621
0.286807
3.40136
24.0874
45.7945
0.00882398
0.00773122
0.00709565
0.00657214
0.00613733
0.00577351
0.00546707
0.00520761
0.00498685
0.00479854
0.0046368
0.00449473
0.00437542
0.00426653
0.00418985
0.0051561
0.0342234
0.0791697
0.601345
4.04082
25.2761
46.8732
0.00862983
0.007552
0.00693096
0.00641956
0.00599496
0.00563984
0.0053409
0.00508797
0.00487297
0.00468983
0.00453279
0.00439527
0.00428095
0.00413449
0.00539162
0.0267519
0.172388
0.29412
1.29003
5.17165
26.9407
48.0153
0.00847515
0.00740912
0.00679907
0.00629672
0.00587963
0.0055308
0.00523712
0.00498865
0.00477744
0.00459753
0.00444329
0.00430848
0.00419691
0.00426712
0.0250339
0.145091
0.50184
0.770345
2.37249
6.85378
29.179
49.2846
0.0083057
0.00725265
0.00665533
0.0061636
0.00575548
0.00541427
0.00512717
0.00488441
0.00467823
0.00450281
0.00435263
0.00422279
0.00408563
0.00946465
0.110302
0.404314
0.95753
1.4401
3.62581
8.97921
32.0176
50.6975
0.00817069
0.00712796
0.0065402
0.00605632
0.00565469
0.00531889
0.0050363
0.00479733
0.00459435
0.00442164
0.00427379
0.00414751
0.00415977
0.0474295
0.297945
0.724131
1.37365
2.09546
4.79029
11.3246
35.4005
52.295
0.00802154
0.00699028
0.00641387
0.00593947
0.00554581
0.00521679
0.00494004
0.00470614
0.00450761
0.00433884
0.00419454
0.00403418
0.00831837
0.15554
0.526176
0.990763
1.67725
2.61058
5.7536
13.6704
39.2139
54.0597
0.00790066
0.00687866
0.00631081
0.00584342
0.00545557
0.00513139
0.00485868
0.00462818
0.00443252
0.00426619
0.00412399
0.00387838
0.0361084
0.308344
0.712511
1.17524
1.88189
2.9803
6.51924
15.8688
43.3172
56.0037
0.00776925
0.00675728
0.00619946
0.00574044
0.00535962
0.00504142
0.00477384
0.00454778
0.00435601
0.00419309
0.00405396
0.00425694
0.106082
0.44911
0.843323
1.29888
2.02045
3.24273
7.12854
17.8489
47.5746
58.0812
0.0076602
0.00665663
0.00610653
0.00565384
0.00527827
0.00496443
0.0047005
0.00447751
0.00428834
0.00412764
0.00399049
0.00939135
0.200262
0.555545
0.932587
1.38401
2.11777
3.43435
7.6233
19.5917
51.8685
60.2902
0.00754424
0.00654954
0.00600836
0.00556309
0.00519374
0.00488516
0.00462573
0.00440661
0.00422079
0.00406301
0.0039289
0.0313355
0.28953
0.631746
0.995368
1.44524
2.18936
3.58061
8.03603
21.1067
56.1108
62.571
0.00744273
0.00645597
0.00592208
0.00548281
0.00511845
0.00481404
0.00455813
0.00434199
0.00415873
0.00400315
0.00387363
0.076068
0.36106
0.686745
1.04153
1.49136
2.2446
3.6979
8.39004
22.4149
60.2388
64.9213
0.0073401
0.00636105
0.005835
0.00540223
0.0050433
0.00474347
0.00449145
0.00427864
0.00409824
0.00394517
0.00380976
0.130316
0.415071
0.727919
1.07705
1.52767
2.28931
3.79661
8.70133
23.5407
64.2172
67.2818
0.00724548
0.00627392
0.00575472
0.0053276
0.00497339
0.00467753
0.00442887
0.00421894
0.00404102
0.00389009
0.0042745
0.180704
0.455795
0.760079
1.10557
1.55748
2.32718
3.88337
8.98076
24.5072
68.0298
69.6617
0.00715524
0.0061904
0.00567807
0.00525661
0.00490708
0.00461514
0.00436977
0.00416262
0.00398707
0.00383824
0.00982072
0.222802
0.487384
0.786234
1.12938
1.58295
2.36071
3.9624
9.23548
25.3359
71.6802
72.0102
0.00706447
0.00610699
0.00560139
0.00518554
0.00484073
0.0045528
0.00431085
0.00410666
0.00393368
0.00378758
0.0273349
0.2568
0.512813
0.808281
1.14996
1.60553
2.39164
4.03627
9.47012
26.0452
75.1856
74.3523
0.00698516
0.00603336
0.00553365
0.00512261
0.00478175
0.00449708
0.00425785
0.00405593
0.00388488
0.00374252
0.055231
0.284284
0.534044
0.827453
1.16834
1.62627
2.42118
4.10638
9.68757
26.6517
78.5784
76.6493
0.00689868
0.00595399
0.00546078
0.0050552
0.00471896
0.00443824
0.00420242
0.00400346
0.00383499
0.0037027
0.0850243
0.306847
0.552352
0.844591
1.18527
1.64591
2.45016
4.17343
9.88972
27.1699
81.9017
78.9445
0.00683039
0.00589047
0.00540224
0.00500064
0.0046676
0.00438947
0.00415574
0.00395848
0.00379144
0.00368413
0.111621
0.325825
0.568575
0.860288
1.20127
1.665
2.47903
4.23769
10.0778
27.6125
85.2116
81.212
0.00674472
0.00581211
0.00533061
0.00493472
0.00460657
0.00433266
0.00410261
0.00390856
0.00374434
0.00364481
0.134072
0.34222
0.58328
0.874976
1.21672
1.68389
2.50799
4.29932
10.2528
27.991
88.572
83.5114
0.00668555
0.00575676
0.00527931
0.00488658
0.00456093
0.00428898
0.00406049
0.00386768
0.00370453
0.00383633
0.153066
0.356742
0.596863
0.888973
1.23192
1.7028
2.537
4.35843
10.4153
28.3151
92.0562
85.8273
0.00660184
0.00568035
0.00520963
0.00482266
0.00450197
0.00423435
0.00400963
0.00382013
0.00365997
0.00575088
0.169513
0.369888
0.609609
0.902509
1.24702
1.72184
2.56595
4.41517
10.5663
28.5931
95.74
88.2307
0.00655215
0.0056336
0.00516604
0.00478143
0.0044625
0.00419617
0.0039724
0.00378359
0.00362439
0.0109714
0.184134
0.382001
0.621727
0.91575
1.26215
1.74101
2.59469
4.46967
10.7063
28.8322
99.7003
90.7106
0.00646808
0.00555719
0.00509671
0.00471823
0.00440463
0.00414296
0.00392327
0.00373804
0.00358296
0.0202543
0.197417
0.393325
0.633371
0.928811
1.27733
1.76027
2.62313
4.52208
10.836
29.0382
104.007
93.3406
0.00642583
0.00551702
0.00505885
0.00468199
0.00436949
0.00410856
0.00388936
0.00370445
0.00355183
0.0333086
0.209675
0.404036
0.644656
0.94176
1.29259
1.77954
2.65115
4.57254
10.9562
29.2161
108.721
96.1058
0.00634338
0.00544222
0.00499115
0.00462046
0.00431337
0.00405719
0.00384215
0.00366089
0.00351592
0.0489223
0.22111
0.414261
0.655662
0.954637
1.30788
1.79877
2.67871
4.62114
11.0677
29.3704
113.89
99.0732
0.00630968
0.00540983
0.00496025
0.00459042
0.00428373
0.00402762
0.00381249
0.00363102
0.00349481
0.0657022
0.231854
0.424094
0.666446
0.967453
1.32317
1.81787
2.70576
4.66796
11.171
29.5053
119.547
102.217
0.00622522
0.00533358
0.00489165
0.00452854
0.00422777
0.0039769
0.00376635
0.00358889
0.00347368
0.082513
0.242004
0.433605
0.677042
0.980205
1.33841
1.8368
2.73226
4.71304
11.267
29.625
125.713
105.592
0.00619836
0.00530726
0.004866
0.004503
0.00420197
0.00395061
0.00373947
0.00356142
0.00347832
0.0986385
0.251624
0.442844
0.68747
0.992877
1.35355
1.8555
2.7582
4.7564
11.3563
29.7336
132.402
109.157
0.00611139
0.00522917
0.00479617
0.00444045
0.00414585
0.00390016
0.00369399
0.00352026
0.00354752
0.113665
0.260763
0.451844
0.697734
1.00544
1.36854
1.87393
2.78352
4.79803
11.4395
29.8346
139.619
112.957
0.00608782
0.00520579
0.00477304
0.00441703
0.0041218
0.00387531
0.00366831
0.00349382
0.00618465
0.127361
0.269449
0.460626
0.707831
1.01787
1.38335
1.89205
2.80822
4.83786
11.5176
29.9309
147.365
116.938
0.00599585
0.00512381
0.00470023
0.00435228
0.00406416
0.00382391
0.00362234
0.00345255
0.0252399
0.139532
0.277695
0.469198
0.717745
1.03013
1.39792
1.90982
2.83224
4.87586
11.591
30.0244
155.623
121.137
0.00596752
0.00509631
0.00467352
0.00432571
0.00403732
0.0037966
0.00359454
0.00342482
0.0464228
0.149856
0.285507
0.47756
0.727459
1.04218
1.41221
1.92719
2.85553
4.91191
11.6607
30.1156
164.342
125.495
0.00586286
0.00500342
0.00459139
0.00425304
0.00397296
0.00373954
0.00354383
0.00338447
0.0579833
0.158321
0.292884
0.485705
0.736947
1.05399
1.42618
1.94414
2.87805
4.94593
11.7272
30.2035
173.389
130.045
0.00582125
0.00496395
0.00455384
0.00421659
0.00393713
0.00370407
0.00350867
0.00334153
0.0642637
0.165197
0.299825
0.493618
0.746182
1.0655
1.43977
1.96059
2.89973
4.97783
11.7912
30.287
182.493
134.727
0.00569964
0.00485643
0.0044588
0.00413225
0.00386206
0.00363711
0.0034488
0.0033873
0.0680128
0.170797
0.306335
0.50128
0.755136
1.07667
1.45295
1.97652
2.92049
5.00753
11.8529
30.3647
191.177
139.588
0.00561732
0.00478988
0.00440429
0.00408608
0.00382151
0.00360021
0.00341406
0.00369562
0.0704353
0.175387
0.31242
0.508666
0.76378
1.08745
1.46565
1.99184
2.94024
5.03496
11.9121
30.4369
198.746
144.654
0.00525491
0.00446063
0.00411237
0.00382683
0.0035896
0.0033911
0.0032238
0.00383273
0.0720842
0.179167
0.318089
0.515747
0.772086
1.09777
1.47783
2.0065
2.9589
5.06015
11.9679
30.5052
204.396
150.447
95.0235
43.847
28.2566
22.5797
23.0319
19.9737
19.3982
17.3099
16.1936
15.5709
14.8901
14.1293
15.0039
17.2363
20.373
23.1635
25.4917
28.4703
31.9473
34.7812
36.4257
37.3075
37.5813
37.6197
37.9044
38.0858
37.9111
37.2183
35.9419
33.7932
33.18
33.8729
20.8109
4.1389
2.91841
94.6475
43.864
28.2811
22.7767
23.4472
20.3015
19.7291
17.5667
16.4249
15.7672
14.9829
14.2057
15.1121
17.3868
20.5566
23.3606
25.5862
28.5113
32.1084
35.2123
37.1724
38.239
38.4904
38.3822
38.5252
38.6186
38.4121
37.7145
36.4153
34.1792
33.5066
34.1468
21.2537
4.14657
2.91563
93.9266
43.8842
28.3285
23.176
24.275
20.9594
20.3757
18.0647
16.876
16.1474
15.1734
14.3667
15.3255
17.6832
20.9524
23.7722
25.7878
28.5967
32.3854
36.0006
38.661
40.1854
40.4492
40.0509
39.8749
39.7486
39.4478
38.7283
37.3855
34.9745
34.1751
34.7126
21.5957
4.16025
2.91006
92.8104
43.8974
28.403
23.7948
25.5029
21.9465
21.3112
18.7852
17.5365
16.706
15.4876
14.6372
15.6666
18.1731
21.6364
24.5014
26.2123
28.7913
32.8116
37.194
40.9718
43.3154
43.7169
42.8953
42.164
41.6133
41.1028
40.3204
38.9129
36.2337
35.2174
35.6391
21.9389
4.18063
2.90173
91.3035
43.8934
28.5109
24.6459
27.1115
23.2554
22.5111
19.7182
18.3998
17.439
15.954
15.0471
16.1645
18.8986
22.6907
25.6972
27.0511
29.238
33.4807
38.8921
44.2351
47.8795
48.6943
47.3578
45.7512
44.4484
43.5204
42.5886
41.0882
38.038
36.6852
37.0118
22.368
4.20877
2.89068
89.3553
43.8629
28.6614
25.7453
29.0945
24.8882
23.9675
20.8678
19.4707
18.352
16.6008
15.6257
16.8402
19.8801
24.179
27.5217
28.5691
30.193
34.5763
41.2659
48.6447
54.2122
55.9485
54.1233
51.2249
48.6464
46.9343
45.6843
44.0424
40.5027
38.6538
38.9399
22.9531
4.24603
2.87693
87.0012
43.7966
28.8677
27.1187
31.4643
26.8625
25.6933
22.2526
20.7681
19.4657
17.4607
16.4039
17.7109
21.1268
26.1584
30.1613
31.1068
32.0481
36.4154
44.593
54.4855
62.7362
66.2254
64.2037
59.5279
54.8522
51.7209
49.8374
47.9605
43.7869
41.2288
41.5652
23.7572
4.29396
2.86053
84.2135
43.6857
29.1479
28.8015
34.244
29.2087
27.718
23.9041
22.3247
20.8165
18.579
17.4233
18.8027
22.6554
28.7042
33.8699
35.1265
35.3565
39.4923
49.3032
62.172
73.9583
80.4043
78.9841
72.1211
64.1106
58.4797
55.3954
53.1025
48.1086
44.553
45.0726
24.8436
4.35432
2.84151
81.0699
43.5215
29.527
30.8336
37.4559
31.9622
30.082
25.8643
24.1842
22.4562
20.0199
18.7446
20.163
24.5035
31.9108
38.9893
41.304
40.9005
44.5199
56.022
72.275
88.4181
99.2919
100.048
91.0803
78.0527
68.1455
62.8748
59.8286
53.7609
48.8159
49.6994
26.2848
4.429
2.81991
77.574
43.2948
30.0385
33.2502
41.1121
35.1561
32.8313
28.1824
26.3996
24.4505
21.8706
20.4551
21.8693
26.7341
35.8689
45.8798
50.5625
49.7826
52.4572
65.5572
85.4518
106.479
123.058
128.316
118.673
98.9483
82.0886
73.0141
68.6257
61.1288
54.2606
55.7391
28.1722
4.51999
2.79577
73.8369
42.9956
30.7257
36.0718
45.2073
38.8158
36.0114
30.912
29.0281
26.8761
24.2408
22.6755
24.0412
29.4535
40.6318
54.7053
63.7587
63.2621
64.3587
78.6802
102.117
127.804
150.214
161.982
155.258
128.919
101.987
86.7624
80.1039
70.6892
61.1841
63.5249
30.626
4.62928
2.76911
69.8857
42.613
31.6434
39.296
49.7167
42.9545
39.6624
34.1067
32.1266
29.8153
27.2597
25.564
26.8534
32.8219
46.19
65.0556
80.5342
81.5953
80.5729
95.4012
121.675
150.61
176.896
194.529
194.942
166.777
128.817
105.012
94.8924
82.954
69.9107
73.3643
33.8053
4.75861
2.73998
65.8489
42.1353
32.8574
42.8954
54.5971
47.573
43.812
37.8144
35.7429
33.3446
31.0599
29.3151
30.5522
37.0754
52.458
75.6289
97.5508
101.459
98.9631
113.8
141.738
171.582
198.188
217.408
224.789
203.126
160.092
127.695
113.273
98.2664
80.7048
85.3761
37.9136
4.90906
2.70838
61.7626
41.5498
34.4406
46.8242
59.793
52.662
48.4759
42.0705
39.9093
37.5196
35.7485
34.1399
35.4576
42.5188
59.2572
84.4895
109.075
115.519
114.21
129.913
158.698
187.417
211.225
226.937
235.305
223.331
187.259
152.14
134.391
116.32
93.5642
99.189
43.1878
5.08024
2.67433
57.7502
40.8436
36.4635
51.032
65.2421
58.2091
53.651
46.8931
44.6364
42.3591
41.3609
40.2125
41.9301
49.4702
66.3268
90.1431
111.805
118.804
121.681
140.411
170.165
196.9
216.496
225.922
229.065
221.829
200.09
172.422
155.332
135.414
107.855
113.572
49.8454
5.26894
2.63782
53.8399
40.0063
38.9807
55.4779
70.8889
64.1881
59.3184
52.2847
49.9139
47.8353
47.8294
47.5777
50.2337
58.0601
73.3496
92.5319
107.815
113.776
121.893
145.326
176.523
201.139
216.229
218.97
214.516
206.161
196.418
182.586
171.413
152.063
121.924
126.329
57.9446
5.46712
2.59882
50.1273
39.0334
42.0157
60.1315
76.684
70.5574
65.4446
58.2347
55.7192
53.8778
54.9616
56.0407
60.2403
67.9553
80.0554
92.8875
101.434
106.095
118.835
147.23
179.855
202.05
212.426
209.048
197.762
186.221
182.717
181.459
178.716
162.131
133.17
134.931
67.1119
5.65946
2.55728
46.6135
37.935
45.5498
64.9462
82.5921
77.2555
71.9796
64.7199
62.0295
60.4025
62.4978
65.1211
71.1447
78.1081
86.2636
92.7758
95.8369
99.6136
116.026
148.696
182.019
201.004
206.175
197.337
181.27
167.405
166.339
172.668
176.71
163.351
139.067
137.758
76.192
5.82167
2.51314
43.349
36.7474
49.5133
69.8784
88.5676
84.1908
78.8522
71.6999
68.8194
67.3408
70.2022
74.1901
81.5993
87.1496
91.9295
93.4067
92.4316
95.7869
115.198
151.142
183.855
198.466
197.871
184.243
165.626
151.281
151.248
160.726
167.911
156.672
138.618
134.91
83.167
5.92216
2.46636
40.3033
35.5451
53.7566
74.9005
94.5495
91.2392
85.9644
79.1078
76.0664
74.6672
77.9835
82.7741
90.4789
94.2607
97.1203
95.4748
91.6881
94.9199
116.884
154.874
185.281
194.309
187.659
170.111
150.907
137.775
138.572
148.495
155.563
145.054
132.815
127.84
85.8626
5.92959
2.41695
37.4893
34.4372
58.1062
79.9627
100.463
98.2533
93.1931
86.842
83.7342
82.3895
85.9092
90.8366
97.7151
99.8465
102.142
99.2967
93.6803
96.9503
121.031
159.555
185.775
188.239
175.762
155.47
137.205
126.404
128.142
137.09
142.046
131.464
123.721
118.337
83.2511
5.8249
2.365
34.8769
33.5344
62.4006
84.9947
106.224
105.081
100.399
94.7682
91.763
90.5407
94.1642
98.7843
104.256
105.18
107.564
104.975
98.4039
101.791
127.342
164.475
184.697
180.12
162.606
140.958
124.679
116.701
119.402
126.648
128.657
117.874
113.295
107.795
76.1018
5.61006
2.31074
32.4767
32.9461
66.5022
89.9114
111.75
111.584
107.444
102.732
100.06
99.1111
102.919
107.244
111.472
111.852
114.292
112.593
105.774
109.302
135.313
168.836
181.594
170.1
148.793
127.169
113.46
108.302
111.789
116.943
115.973
105.268
102.82
97.0466
66.3138
5.30691
2.25448
30.2708
32.7731
70.3141
94.6186
116.964
117.654
114.202
110.579
108.512
108.046
112.277
116.741
120.509
121.246
123.441
122.381
115.713
119.288
144.311
171.876
176.272
158.604
134.983
114.535
103.592
100.926
104.845
107.715
104.215
93.9856
92.9187
86.5024
55.7963
4.94779
2.19662
28.2673
33.1034
73.7855
99.0224
121.801
123.215
120.571
118.176
116.998
117.274
122.252
127.605
132.111
134.561
136.369
134.903
128.148
131.405
153.615
173.091
168.884
146.23
121.764
103.291
95.0183
94.3471
98.2434
98.8016
93.4495
84.0345
83.7783
76.3552
45.8529
4.56505
2.1376
26.4614
34.0107
76.9063
103.041
126.21
128.226
126.483
125.427
125.414
126.726
132.842
139.952
146.637
152.674
154.52
151.089
143.204
145.278
162.617
172.271
159.816
133.627
109.573
93.4957
87.6077
88.3712
91.7755
90.1599
83.6834
75.2791
75.3686
66.719
37.1362
4.18456
2.07786
24.8623
35.5523
79.6938
106.619
130.167
132.679
131.904
132.277
133.689
136.359
144.016
153.871
164.344
176.358
179.378
172.115
161.125
160.487
170.86
169.574
149.664
121.377
98.6602
85.0807
81.1884
82.8345
85.3392
81.8406
74.8882
67.5387
67.5836
57.6952
29.8426
3.82359
2.01778
23.4808
37.7675
82.1791
109.734
133.673
136.603
136.84
138.721
141.804
146.177
155.834
169.433
185.516
206.221
211.97
198.925
182.15
176.621
178.086
165.354
139.036
109.923
89.1096
77.9013
75.5774
77.6024
78.9187
73.9432
67.0118
60.6358
60.3196
49.3846
23.9153
3.49174
1.95772
22.3333
40.6729
84.3943
112.401
136.751
140.052
141.331
144.797
149.785
156.233
168.413
186.843
210.564
242.823
252.413
231.501
205.896
192.978
184.023
160.082
128.501
99.5379
80.8803
71.78
70.602
72.5758
72.5628
66.5702
59.9812
54.4162
53.5092
41.8735
19.1849
3.19282
1.89796
21.4546
44.2563
86.3662
114.655
139.445
143.094
145.445
150.577
157.707
166.637
181.939
206.373
239.924
286.16
299.039
267.967
230.971
208.496
188.368
154.129
118.449
90.334
73.8534
66.5332
66.1104
67.6917
66.3593
59.7996
53.7116
48.7573
47.1282
35.2161
15.4499
2.92694
1.83875
20.8892
48.4658
88.1135
116.547
141.808
145.805
149.263
156.161
165.684
177.542
196.643
228.36
274.011
335.325
348.052
304.315
254.651
221.64
190.69
147.743
109.124
82.2996
67.8705
61.9901
61.9783
62.9246
60.4096
53.6699
48.1131
43.5689
41.1869
29.4242
12.517
2.69205
1.78028
20.7351
53.1993
89.6508
118.133
143.9
148.264
152.878
161.667
173.873
189.167
212.831
253.202
313.109
387.957
393.689
335.203
273.688
230.935
190.643
140.987
100.594
75.3435
62.763
57.9988
58.1103
58.2799
54.807
48.1815
43.0988
38.79
35.7138
24.4682
10.218
2.48508
1.72268
21.1259
58.3029
90.9923
119.472
145.782
150.546
156.391
167.241
182.476
201.803
230.911
281.432
357.419
440.476
429.965
355.899
285.297
235.298
187.999
133.857
92.8449
69.3334
58.3686
54.4314
54.4392
53.7864
49.6221
43.3039
38.5895
34.3835
30.7393
20.2863
8.41358
2.30261
1.66608
22.2957
63.5822
92.1552
120.619
147.516
152.73
159.918
173.061
191.771
215.879
251.493
313.844
406.973
488.247
452.406
364.012
288.426
234.567
182.847
126.322
85.7937
64.1253
54.5417
51.1825
50.9226
49.4843
44.8966
38.9867
34.5177
30.3294
26.2831
16.7964
6.99266
2.1413
1.61056
24.5223
68.8297
93.1605
121.624
149.167
154.898
163.596
179.368
202.161
232.047
275.548
351.744
461.42
526.316
459.283
359.974
283.64
229.228
175.449
118.424
79.3624
59.5806
51.1558
48.1693
47.5391
45.4157
40.6431
35.1692
30.8281
26.6183
22.3475
13.9081
5.868
1.99809
1.55618
28.1637
73.8557
94.0315
122.534
150.802
157.149
167.603
186.506
214.27
251.378
304.723
397.241
518.932
549.53
450.987
346.004
272.673
220.266
166.239
110.251
73.4674
55.5759
48.106
45.3281
44.2822
41.6155
36.8505
31.7891
27.4771
23.2446
18.9169
11.5313
4.97211
1.87027
1.50301
33.4954
78.5151
94.7909
123.391
152.497
159.602
172.191
195.002
229.115
275.68
341.795
453.291
574.261
553.511
429.373
324.837
257.33
208.605
155.626
101.943
68.0514
52.0045
45.3074
42.6136
41.1553
38.1062
33.4904
28.7867
24.4314
20.2029
15.9605
9.58243
4.25317
1.75549
1.45109
40.701
82.7213
95.4597
124.237
154.343
162.427
177.74
205.718
248.441
308.08
391.249
522.231
616.59
535.627
397.016
298.919
239.211
195.065
144.004
93.6311
63.0562
48.7784
42.6953
39.9954
38.166
34.8961
30.5238
26.1089
21.6657
17.4844
13.4371
7.98707
3.67152
1.6518
1.40045
49.6321
86.4499
96.056
125.117
156.465
165.873
184.862
220.123
275.334
353.877
459.008
599.989
631.419
497.019
357.359
270.335
219.403
180.157
131.662
85.439
58.44
45.8269
40.2234
37.4575
35.3231
31.9803
27.9067
23.7099
19.1602
15.0759
11.2999
6.68134
3.1968
1.55753
1.35113
59.8743
89.7383
96.5968
126.084
159.043
170.343
194.593
240.849
315.319
421.071
547.617
665.384
608.129
442.802
314.229
240.882
198.792
164.288
118.868
77.4606
54.1585
43.0962
37.8631
34.9952
32.6335
29.3428
25.5945
21.5514
16.899
12.96
9.50084
5.61156
2.80582
1.47132
1.30317
70.5911
92.6593
97.0995
127.217
162.364
176.524
208.799
272.772
377.758
516.358
639.414
681.581
548.245
380.924
271.389
212.172
178.066
147.723
105.841
69.7827
50.1797
40.5479
35.6011
32.6146
30.1023
26.9602
23.544
19.6021
14.8681
11.1158
7.99333
4.73338
2.48075
1.39202
1.25659
80.9187
95.3034
97.5848
128.635
166.926
185.687
231.048
324.92
473.817
624.033
682.098
628.16
465.355
319.012
231.634
185.524
157.958
130.771
92.8231
62.4736
46.473
38.1564
33.4362
30.3295
27.7332
24.8051
21.715
17.8363
13.0541
9.51972
6.73437
4.01058
2.20785
1.31871
1.21144
89.3733
97.7744
98.0829
130.544
173.673
200.386
268.519
411.038
592.497
677.324
632.549
524.664
377.241
262.525
196.65
161.921
139.15
113.74
80.0441
55.5943
43.018
35.906
31.3759
28.1608
25.5303
22.8494
20.0711
16.2327
11.4432
8.14743
5.6854
3.41377
1.9765
1.25061
1.16774
95.1437
100.204
98.6449
133.334
184.595
226.202
334.792
528.417
650.528
616.372
515.146
409.488
297.152
213.963
166.904
141.777
122.249
97.0822
67.7838
49.1886
39.7947
33.7864
29.4317
26.1322
23.4994
21.0676
18.5798
14.7731
10.0212
6.97433
4.8127
2.91924
1.77843
1.18707
1.12555
0.00337792
0.00250586
0.00227979
0.00216933
0.00212935
0.00213315
0.00216513
0.00387631
0.0729565
0.18151
0.322028
0.520745
0.777911
1.10492
1.48623
2.01658
2.97158
5.07704
12.006
30.5569
206.64
160.177
0.0033445
0.00224273
0.00184322
0.00160817
0.00148795
0.00145092
0.00148349
0.00390103
0.073386
0.18278
0.324289
0.523504
0.780928
1.10846
1.49027
2.02138
2.97766
5.0856
12.0284
30.5957
207.557
170.319
0.00354055
0.00237582
0.00188224
0.00154495
0.00132372
0.00119373
0.0011635
0.00391896
0.0736676
0.183712
0.326053
0.525504
0.782853
1.11049
1.49241
2.02382
2.98079
5.09055
12.0442
30.6357
207.625
180
0.00367091
0.00251741
0.00200373
0.00162961
0.00135803
0.00116711
0.00103234
0.00393149
0.0738225
0.184327
0.327318
0.526731
0.783663
1.111
1.49262
2.02386
2.98088
5.09172
12.0519
30.6774
206.906
189.09
0.00392266
0.00276386
0.00222607
0.00182158
0.00151362
0.0012795
0.000997705
0.00393964
0.073863
0.18464
0.32808
0.527174
0.783343
1.10996
1.49086
2.02146
2.97784
5.08896
12.05
30.7212
205.446
198.047
0.00406032
0.0029297
0.0023982
0.00199151
0.00167444
0.00142435
0.000986228
0.00394409
0.073796
0.18466
0.328334
0.526827
0.781885
1.10737
1.48715
2.01661
2.97163
5.08212
12.037
30.7672
203.278
207.042
0.00434056
0.00320789
0.0026591
0.00223272
0.00189508
0.00162352
0.00105495
0.00394525
0.0736259
0.184391
0.32808
0.525689
0.77929
1.10325
1.48147
2.0093
2.96219
5.07106
12.0116
30.8151
200.44
216.072
0.00447869
0.00337926
0.0028436
0.00242285
0.00208561
0.00181029
0.00118142
0.0039432
0.0733547
0.18384
0.32732
0.523763
0.775568
1.09759
1.47385
1.99951
2.94947
5.05567
11.9727
30.864
196.983
225.077
0.00478411
0.00368454
0.00313418
0.00269613
0.00234097
0.00204774
0.00130595
0.00393775
0.0729838
0.183009
0.326062
0.52106
0.770737
1.09043
1.46432
1.98727
2.93343
5.03582
11.9193
30.9124
192.962
233.985
0.00490881
0.00384886
0.00331922
0.00289404
0.002546
0.00225529
0.00139643
0.00392854
0.0725133
0.181903
0.324319
0.5176
0.764828
1.08181
1.45292
1.9726
2.91405
5.01143
11.8506
30.9582
188.438
242.711
0.00522946
0.00417114
0.0036296
0.00318967
0.00282602
0.00251964
0.00151043
0.00391516
0.0719429
0.180529
0.322105
0.513404
0.757878
1.07177
1.43971
1.95554
2.8913
4.98236
11.7661
30.998
183.476
251.146
0.00533941
0.00432472
0.0038096
0.00338847
0.00303772
0.00273942
0.00163014
0.00389697
0.0712712
0.178892
0.319441
0.508505
0.749932
1.06036
1.42475
1.93615
2.86516
4.94853
11.6653
31.0277
178.144
259.155
0.00567214
0.00466081
0.00413629
0.00370256
0.00333802
0.00302575
0.00183448
0.00387331
0.0704953
0.176998
0.316348
0.502938
0.741045
1.04765
1.40813
1.9145
2.83563
4.9098
11.548
31.0422
172.511
266.589
0.00575637
0.00479293
0.00430091
0.00389237
0.00354705
0.00324895
0.0021122
0.00384307
0.0696101
0.174853
0.312848
0.496745
0.731275
1.03372
1.38993
1.89068
2.80273
4.86606
11.414
31.0351
166.643
273.296
0.00609212
0.00513319
0.00463387
0.00421477
0.00385759
0.00354747
0.00251651
0.00380505
0.0686071
0.17246
0.308964
0.489971
0.720686
1.01864
1.37025
1.86479
2.76649
4.81717
11.2633
30.9993
160.605
279.128
0.00615228
0.005243
0.00477995
0.00439051
0.00405733
0.00376633
0.0029826
0.00375703
0.0674731
0.169821
0.304718
0.482664
0.709348
1.00249
1.34919
1.83696
2.72699
4.76297
11.0961
30.9268
154.457
283.952
0.00648676
0.00558295
0.00511437
0.00471596
0.00437236
0.00407071
0.00349475
0.00369655
0.0661871
0.166931
0.300127
0.474874
0.697332
0.985368
1.32687
1.80731
2.68431
4.7033
10.9126
30.8089
148.255
287.66
0.00651846
0.0056655
0.00523633
0.00487147
0.00455615
0.00427811
0.00389143
0.00361852
0.0647181
0.163776
0.295205
0.466649
0.684713
0.967363
1.3034
1.77599
2.63858
4.63803
10.7132
30.6366
142.045
290.167
0.006839
0.00599232
0.0055594
0.00518741
0.0048635
0.00457663
0.00426808
0.00352273
0.0630197
0.160334
0.289956
0.458038
0.671569
0.948568
1.2789
1.74315
2.58995
4.56698
10.4985
30.4009
135.869
291.417
0.00685359
0.00605579
0.00566216
0.00532456
0.00503046
0.00476926
0.00452368
0.00341786
0.0610242
0.156561
0.284373
0.449083
0.657974
0.929077
1.25347
1.70895
2.53859
4.49003
10.2691
30.0928
129.761
291.379
0.00716008
0.00636928
0.0059734
0.00563007
0.00532859
0.00505962
0.00481874
0.00336712
0.0586336
0.152391
0.278434
0.439815
0.644006
0.908987
1.22724
1.67353
2.48471
4.40708
10.0257
29.7043
123.749
290.04
0.00715672
0.00641256
0.00605542
0.00574688
0.0054763
0.00523455
0.00501952
0.00354164
0.0557099
0.147723
0.272092
0.430253
0.629735
0.888393
1.20032
1.63707
2.42853
4.31805
9.76943
29.2282
117.852
287.408
0.00744654
0.00670954
0.00635108
0.00603777
0.00576073
0.00551205
0.00528857
0.00402891
0.0520648
0.142408
0.265267
0.420396
0.615226
0.867391
1.17283
1.59972
2.3703
4.22293
9.50107
28.6591
112.087
283.497
0.00743064
0.00673707
0.00641562
0.00613624
0.00588991
0.00566879
0.00546794
0.00463381
0.047456
0.13623
0.257832
0.410208
0.600526
0.846076
1.14487
1.56164
2.31029
4.12179
9.22171
27.9934
106.461
278.335
0.00770414
0.00701766
0.00669552
0.00641204
0.00615984
0.00593225
0.00572396
0.00523137
0.0416214
0.128889
0.249593
0.39961
0.585664
0.824536
1.11655
1.52298
2.24876
4.01474
8.93239
27.2299
100.981
271.955
0.00767679
0.00703045
0.00674333
0.00649253
0.00627044
0.0060703
0.00588611
0.00561349
0.0344055
0.119977
0.240266
0.388458
0.570627
0.802851
1.08797
1.4839
2.18601
3.90202
8.6342
26.37
95.6452
264.402
0.00793326
0.00729365
0.00700611
0.00675161
0.00652402
0.00631773
0.00612738
0.00592144
0.0260676
0.108988
0.229442
0.376516
0.555349
0.78108
1.05925
1.44453
2.12235
3.78396
8.32814
25.4181
90.4524
255.725
0.00789957
0.00729641
0.0070413
0.00681752
0.00661864
0.00643886
0.0062726
0.00610875
0.0176413
0.0954079
0.216546
0.363422
0.53968
0.759246
1.03045
1.40502
2.05809
3.66103
8.01525
24.381
85.3954
245.991
0.00814114
0.00754421
0.00728874
0.00706146
0.00685726
0.00667141
0.00649925
0.00633522
0.0109878
0.0789822
0.200808
0.348637
0.523348
0.737308
1.00166
1.36551
1.99358
3.53381
7.69646
23.2686
80.4657
235.275
0.00810338
0.00753941
0.00731377
0.00711514
0.00693806
0.00677757
0.00662876
0.00648672
0.00745917
0.0602616
0.181278
0.331386
0.505916
0.715125
0.972895
1.32612
1.92915
3.40306
7.37272
22.0931
75.6516
223.676
0.00833019
0.00777187
0.00754587
0.00734387
0.00716164
0.0069952
0.00684056
0.00669418
0.00652965
0.0411595
0.157014
0.310583
0.486714
0.6924
0.944119
1.28695
1.86516
3.26967
7.045
20.8686
70.9407
211.307
0.00829267
0.0077638
0.00756481
0.0073891
0.00723201
0.00708929
0.00695671
0.00683037
0.0065844
0.0247382
0.127631
0.284785
0.464751
0.668619
0.915166
1.24803
1.80196
3.13472
6.7144
19.6104
66.3189
198.303
0.00850597
0.00798223
0.00778287
0.00760393
0.00744189
0.00729338
0.00715501
0.00702397
0.0068409
0.0138371
0.0943849
0.252308
0.4386
0.642963
0.885686
1.20933
1.73988
2.99945
6.38221
18.335
61.7744
184.815
0.00847102
0.00797347
0.00779841
0.00764339
0.00750444
0.00737792
0.00726013
0.00714778
0.00701977
0.0086945
0.0612581
0.211798
0.406276
0.614201
0.855058
1.17066
1.67917
2.86523
6.05007
17.0585
57.2976
171.01
0.00867161
0.00817869
0.00800325
0.00784518
0.00770151
0.00756941
0.00744598
0.00732883
0.00720961
0.00712662
0.0342517
0.163659
0.365258
0.580534
0.822284
1.1316
1.61994
2.73347
5.72002
15.7972
52.886
157.065
0.00864158
0.00817179
0.00801802
0.00788149
0.00775881
0.00764683
0.00754237
0.00744254
0.00734236
0.00695612
0.0175781
0.112152
0.313004
0.539416
0.785851
1.09142
1.56208
2.60553
5.39458
14.5661
48.5449
143.161
0.00883156
0.00836591
0.00821169
0.00807224
0.00794503
0.00782767
0.00771767
0.00761297
0.00751029
0.00720337
0.0102445
0.065983
0.248724
0.48751
0.743539
1.04897
1.50517
2.48256
5.07665
13.3792
44.291
129.476
0.00880914
0.00836382
0.00822881
0.00810858
0.00800027