/*--------------------------------*- C++ -*----------------------------------*\
| =========                 |                                                 |
| \\      /  F ield         | OpenFOAM: The Open Source CFD Toolbox           |
|  \\    /   O peration     | Version:  v1912                                 |
|   \\  /    A nd           | Website:  www.openfoam.com                      |
|    \\/     M anipulation  |                                                 |
\*---------------------------------------------------------------------------*/
FoamFile
{
    version     2.0;
    format      ascii;
    class       volScalarField;
    location    "490";
    object      nut;
}
// * * * * * * * * * * * * * * * * * * * * * * * * * * * * * * * * * * * * * //

dimensions      [0 2 -1 0 0 0 0];


internalField   nonuniform List<scalar> 
12441
(
5.82186e-24
1.79048e-20
8.10473e-20
3.32534e-19
1.06829e-18
3.8883e-18
1.01057e-17
2.50054e-17
6.13855e-17
1.27532e-16
3.05678e-16
7.72138e-16
2.17775e-15
7.41352e-15
1.03614e-13
1.8971e-11
0.000193669
0.000931645
0.00299973
0.00261148
0.00364697
0.00775321
6.34182e-24
3.03337e-20
1.11727e-19
4.23932e-19
1.30206e-18
4.8072e-18
1.21984e-17
3.00101e-17
7.36107e-17
1.54452e-16
3.79827e-16
1.0302e-15
2.82364e-15
9.38883e-15
1.13025e-13
3.90416e-11
5.76841e-05
0.00112944
0.00343588
0.00284325
0.00400946
0.00781733
6.36458e-24
3.5894e-20
1.20773e-19
4.48113e-19
1.37769e-18
4.9066e-18
1.29287e-17
3.20408e-17
8.05144e-17
1.71768e-16
4.17909e-16
1.11856e-15
2.77989e-15
7.6777e-15
5.35032e-14
6.58242e-12
1.11037e-05
0.000829942
0.00137207
0.00268281
0.00416257
0.0078909
6.31904e-24
3.769e-20
1.18528e-19
4.2929e-19
1.32529e-18
4.71339e-18
1.25131e-17
3.13263e-17
7.84937e-17
1.73669e-16
4.23778e-16
1.1551e-15
2.60614e-15
8.48637e-15
3.84914e-14
1.54459e-12
1.6264e-06
0.000579874
0.00102436
0.00260711
0.00432524
0.0079647
6.28501e-24
4.38812e-20
1.29773e-19
4.58293e-19
1.40263e-18
4.77914e-18
1.30904e-17
3.27939e-17
8.42963e-17
1.87517e-16
4.54179e-16
1.28589e-15
3.01336e-15
4.07852e-14
2.47121e-13
2.30063e-12
1.39807e-07
0.000410371
0.00100703
0.00259516
0.00446549
0.00803394
6.23482e-24
4.12862e-20
1.20533e-19
4.29167e-19
1.34265e-18
4.62186e-18
1.27498e-17
3.23919e-17
8.28921e-17
1.92679e-16
4.76964e-16
1.44691e-15
4.52529e-15
1.3308e-12
1.18942e-11
5.10822e-11
4.59014e-07
0.000378996
0.00107629
0.00265215
0.00459143
0.00809948
6.19994e-24
5.02617e-20
1.37789e-19
4.75745e-19
1.46007e-18
4.79221e-18
1.35925e-17
3.44523e-17
9.06998e-17
2.11114e-16
5.20855e-16
2.00192e-15
2.49755e-14
4.15223e-11
6.57675e-10
9.38637e-09
1.87749e-05
0.000401534
0.00126583
0.0028348
0.00473543
0.00816218
6.15015e-24
4.34502e-20
1.23165e-19
4.40134e-19
1.40808e-18
4.72253e-18
1.35116e-17
3.48434e-17
9.13164e-17
2.23837e-16
5.72527e-16
5.44101e-15
6.08802e-13
2.25658e-09
8.41538e-08
4.98867e-06
0.000196928
0.000467018
0.00171781
0.00320506
0.0049227
0.00822577
6.11737e-24
5.57018e-20
1.46124e-19
4.99651e-19
1.55403e-18
4.95837e-18
1.4611e-17
3.75688e-17
1.0207e-16
2.50932e-16
6.45357e-16
6.14043e-14
2.58529e-11
7.43841e-08
1.04433e-05
0.000156256
0.00082178
0.000844683
0.00265133
0.00383359
0.00518475
0.00829204
6.0705e-24
4.43476e-20
1.25429e-19
4.56606e-19
1.50745e-18
4.95333e-18
1.47466e-17
3.87234e-17
1.04874e-16
2.75106e-16
7.48638e-16
1.68349e-12
1.08142e-09
4.44174e-06
0.00019375
0.000640243
0.00180067
0.00163185
0.00438313
0.00479744
0.00553427
0.00836448
6.04136e-24
6.02576e-20
1.53427e-19
5.25879e-19
1.67262e-18
5.20563e-18
1.60241e-17
4.20324e-17
1.19289e-16
3.1735e-16
8.92082e-16
5.23524e-11
5.49122e-08
8.26454e-05
0.000753451
0.00186137
0.00412351
0.00334435
0.00739631
0.00619927
0.00598444
0.00844366
5.99592e-24
4.46269e-20
1.27729e-19
4.76916e-19
1.63359e-18
5.28062e-18
1.64012e-17
4.40625e-17
1.25494e-16
3.64608e-16
1.15862e-15
1.45798e-09
3.24311e-06
0.000357687
0.00173972
0.00441462
0.00899271
0.00688582
0.0121926
0.00808787
0.00652481
0.00853143
5.97034e-24
6.41468e-20
1.60443e-19
5.53779e-19
1.81485e-18
5.54156e-18
1.79073e-17
4.82192e-17
1.46697e-16
4.44697e-16
1.69455e-15
3.52497e-08
7.31659e-05
0.00117219
0.00455182
0.0102612
0.0185195
0.0135079
0.0189626
0.0104493
0.0071471
0.00862633
5.92634e-24
4.43233e-20
1.29663e-19
4.99285e-19
1.78309e-18
5.69154e-18
1.85312e-17
5.13807e-17
1.59844e-16
5.59118e-16
3.60138e-15
7.97372e-07
0.000358809
0.00321036
0.0106192
0.0212653
0.0346141
0.0242863
0.027396
0.0131619
0.00782027
0.00872852
5.904e-24
6.7513e-20
1.66647e-19
5.82589e-19
1.97788e-18
5.93974e-18
2.02678e-17
5.67791e-17
1.96046e-16
7.78653e-16
1.65168e-14
1.52254e-05
0.00122613
0.00797336
0.0219144
0.039043
0.0581571
0.0393741
0.0366749
0.0160712
0.00852517
0.00883515
5.86028e-24
4.3957e-20
1.31991e-19
5.24776e-19
1.95768e-18
6.18513e-18
2.12007e-17
6.16752e-17
2.28156e-16
1.21619e-15
3.02158e-13
0.000139505
0.00322213
0.0170741
0.0399925
0.0641588
0.0882905
0.0574753
0.0457856
0.01898
0.00922613
0.00894576
5.84123e-24
7.05377e-20
1.73497e-19
6.1509e-19
2.17048e-18
6.43913e-18
2.33092e-17
6.93741e-17
3.08217e-16
2.30477e-15
1.26021e-11
0.000548615
0.00771787
0.0319536
0.064995
0.0958161
0.122086
0.0760774
0.0538283
0.0217498
0.00990896
0.00905718
5.79724e-24
4.35004e-20
1.34487e-19
5.53109e-19
2.16054e-18
6.77116e-18
2.46168e-17
7.72252e-17
4.08446e-16
5.44526e-15
5.47981e-10
0.00147523
0.016073
0.0533361
0.0963034
0.131568
0.15501
0.0923441
0.0603364
0.0242577
0.0105469
0.00916919
5.78092e-24
7.32615e-20
1.80281e-19
6.49104e-19
2.38789e-18
7.01126e-18
2.7181e-17
8.90662e-17
6.61696e-16
1.69219e-14
4.40872e-08
0.00377519
0.0296452
0.0803881
0.13144
0.167763
0.182182
0.104321
0.0652511
0.0264699
0.0111396
0.00927899
5.73636e-24
4.30516e-20
1.36865e-19
5.82377e-19
2.38676e-18
7.43773e-18
2.90056e-17
1.0231e-16
1.08037e-15
7.52666e-14
8.57204e-06
0.00837009
0.0488081
0.111783
0.16769
0.200141
0.199906
0.111552
0.0688663
0.0283552
0.0116734
0.00938714
5.72333e-24
7.57275e-20
1.86796e-19
6.83154e-19
2.62915e-18
7.67268e-18
3.23026e-17
1.2224e-16
2.19367e-15
7.80139e-13
0.000170862
0.0165938
0.0728872
0.14503
0.201208
0.225117
0.2069
0.115003
0.0715598
0.029949
0.0121612
0.00949146
5.67794e-24
4.24329e-20
1.38567e-19
6.10901e-19
2.635e-18
8.19285e-18
3.49379e-17
1.46456e-16
4.33995e-15
1.3405e-11
0.000695188
0.0293313
0.100382
0.178034
0.229238
0.240535
0.204531
0.116248
0.0737095
0.0312626
0.0126004
0.00959327
5.66761e-24
7.8021e-20
1.92465e-19
7.15461e-19
2.88977e-18
8.41796e-18
3.94315e-17
1.83575e-16
1.02753e-14
1.66091e-10
0.00192666
0.0466806
0.12943
0.208183
0.249286
0.246341
0.196029
0.116708
0.0755551
0.0323566
0.0130151
0.00969106
5.62167e-24
4.19631e-20
1.39787e-19
6.37979e-19
2.90248e-18
9.03715e-18
4.34988e-17
2.3148e-16
2.24192e-14
1.55796e-09
0.00464415
0.0680273
0.15822
0.233875
0.261006
0.244174
0.185043
0.117188
0.0772547
0.0332607
0.0134124
0.00978684
5.61487e-24
8.0274e-20
1.97574e-19
7.45797e-19
3.1711e-18
9.26705e-18
5.02626e-17
3.06416e-16
5.64382e-14
1.37799e-08
0.0097076
0.0919955
0.185231
0.253659
0.264884
0.23678
0.174403
0.117943
0.0788603
0.0340506
0.013825
0.00987966
5.56714e-24
4.17911e-20
1.40759e-19
6.63846e-19
3.1919e-18
9.992e-18
5.71493e-17
4.08438e-16
1.30474e-13
3.18994e-07
0.0178903
0.117212
0.209317
0.267438
0.262942
0.226929
0.165594
0.118891
0.0803975
0.0347713
0.0142665
0.00997203
5.56285e-24
8.24829e-20
2.02094e-19
7.74001e-19
3.47281e-18
1.0232e-17
6.84582e-17
5.73338e-16
3.92525e-13
1.87674e-05
0.0293481
0.142229
0.229734
0.27542
0.257081
0.216828
0.158965
0.119868
0.0818465
0.0355056
0.0147732
0.0100634
5.51397e-24
4.18587e-20
1.41218e-19
6.87502e-19
3.5014e-18
1.10684e-17
8.13247e-17
8.10349e-16
1.82985e-12
0.000214977
0.043842
0.166051
0.246132
0.278773
0.249434
0.207761
0.15423
0.120717
0.0831941
0.036296
0.0153577
0.0101564
5.51306e-24
8.46748e-20
2.05795e-19
7.99206e-19
3.79619e-18
1.1344e-17
1.02511e-16
1.20436e-15
1.2801e-11
0.000739004
0.0606066
0.187849
0.258534
0.278526
0.241295
0.200272
0.150909
0.121353
0.0844063
0.0372066
0.0160499
0.0102507
5.46192e-24
4.20338e-20
1.40963e-19
7.08394e-19
3.83348e-18
1.23042e-17
1.28822e-16
1.79565e-15
7.40878e-11
0.00155104
0.0789425
0.20718
0.267248
0.27601
0.233693
0.194375
0.148552
0.121738
0.0854637
0.0382496
0.01685
0.0103488
5.46303e-24
8.68061e-20
2.08976e-19
8.21793e-19
4.14315e-18
1.2653e-17
1.72474e-16
2.80952e-15
3.56393e-10
0.00283749
0.0980197
0.223724
0.272783
0.272083
0.226953
0.189863
0.146826
0.121876
0.0863339
0.0394479
0.0177711
0.01045
5.41084e-24
4.2246e-20
1.39897e-19
7.26589e-19
4.19071e-18
1.3741e-17
2.30122e-16
4.38941e-15
1.38682e-09
0.00482472
0.11725
0.237456
0.275731
0.2676
0.221293
0.186444
0.145507
0.12179
0.0869998
0.0407722
0.0187926
0.0105565
5.41506e-24
8.8918e-20
2.11413e-19
8.42378e-19
4.52262e-18
1.41931e-17
3.26395e-16
7.08345e-15
4.74643e-09
0.00782715
0.136013
0.24843
0.276697
0.262953
0.216582
0.183857
0.14446
0.121516
0.087434
0.0422091
0.0199068
0.010667
5.35939e-24
4.22785e-20
1.37807e-19
7.42858e-19
4.58479e-18
1.54531e-17
4.58236e-16
1.12952e-14
1.44521e-08
0.0121714
0.153962
0.256897
0.276225
0.258535
0.212765
0.181882
0.14361
0.121091
0.087624
0.043706
0.021073
0.0107831
5.36555e-24
8.84576e-20
2.10338e-19
8.57234e-19
4.93658e-18
1.60479e-17
6.77975e-16
1.8507e-14
4.28092e-08
0.0182035
0.17079
0.263128
0.274782
0.254427
0.209637
0.180359
0.14292
0.120555
0.0875485
0.0452425
0.0222705
0.0109032
5.30584e-24
4.14858e-20
1.32573e-19
7.51603e-19
5.00997e-18
1.7462e-17
9.80435e-16
2.99173e-14
2.19875e-07
0.0263726
0.186471
0.267501
0.272737
0.250781
0.207117
0.179172
0.142377
0.119941
0.0872013
0.0467774
0.0234514
0.0110282
5.31238e-24
8.52636e-20
2.03826e-19
8.62067e-19
5.38109e-18
1.81866e-17
1.4747e-15
5.74584e-14
1.1715e-05
0.0372644
0.20102
0.270347
0.270377
0.24755
0.205044
0.178247
0.141985
0.11929
0.08657
0.0483176
0.0245968
0.0111563
5.2459e-24
4.16148e-20
1.27323e-19
7.57678e-19
5.48249e-18
1.98563e-17
2.14227e-15
4.65014e-13
0.000246526
0.0517784
0.214644
0.272046
0.267909
0.244808
0.203384
0.177536
0.141756
0.118634
0.0856595
0.0498598
0.0256693
0.0112883
5.24934e-24
5.37903e-20
1.54723e-19
7.99488e-19
5.76885e-18
2.0639e-17
3.20151e-15
2.3129e-11
0.00212747
0.0710095
0.22749
0.272892
0.265482
0.242489
0.20203
0.17702
0.141711
0.118011
0.0844728
0.051451
0.0266717
0.011422
5.1725e-24
4.32804e-20
1.14471e-19
7.24253e-19
5.94013e-18
2.35437e-17
4.66242e-15
1.03289e-09
0.00936159
0.0956934
0.239741
0.273196
0.263186
0.240666
0.200996
0.176691
0.141873
0.117449
0.0830348
0.0531161
0.0275955
0.0115584
5.16592e-24
1.93953e-21
1.12092e-20
4.00649e-19
5.44906e-18
2.44376e-17
7.20701e-15
1.84836e-07
0.0269115
0.125838
0.25139
0.273181
0.261071
0.239289
0.200218
0.176564
0.142269
0.116979
0.0813738
0.0548945
0.0284788
0.0116955
5.07774e-24
1.71165e-20
4.47725e-20
4.17368e-19
5.46201e-18
3.62052e-17
1.80046e-14
5.6106e-05
0.0591691
0.16092
0.26239
0.273086
0.259141
0.238465
0.199755
0.176658
0.142922
0.116619
0.0795459
0.0567292
0.0293352
0.0118345
5.03898e-24
6.72025e-22
8.45923e-23
2.35242e-19
5.06623e-18
8.28153e-17
3.70773e-13
0.00147117
0.109194
0.199981
0.272491
0.27307
0.257367
0.238146
0.199566
0.177015
0.143855
0.116379
0.0776141
0.0584471
0.030165
0.011976
4.83818e-24
2.10323e-19
4.58129e-19
1.0295e-18
7.26027e-18
9.13515e-16
7.182e-12
0.00981185
0.178302
0.242427
0.28186
0.273438
0.255715
0.238435
0.199708
0.177657
0.145067
0.116192
0.0756567
0.0596061
0.030663
0.0121338
0.00987657
0.0337434
0.0372677
0.0139478
0.0102056
0.00990327
0.00994767
0.0103913
0.0104178
0.0110834
0.0161889
0.015623
0.014535
0.0144231
0.0152724
0.0171744
0.0192883
0.0199581
0.0182607
0.0145222
0.0122417
0.0118659
0.0121231
0.0124918
0.0128711
0.0132229
0.0135953
0.014094
0.0147236
0.0156214
0.0159272
0.0155948
0.0254347
0.127746
0.181495
0.00986353
0.0343511
0.0362838
0.0136073
0.0101233
0.00979924
0.0100481
0.01052
0.0104603
0.0111184
0.0158658
0.015238
0.0141671
0.0140175
0.0148547
0.0167746
0.0191461
0.0201503
0.0185315
0.0145387
0.0120221
0.01156
0.0118142
0.012215
0.0126329
0.0130081
0.0133863
0.0138785
0.0145071
0.0154151
0.0157437
0.0154404
0.0248626
0.127283
0.181383
0.00983842
0.0349106
0.0345704
0.0130226
0.0101083
0.00970443
0.0103045
0.0107985
0.010594
0.0112255
0.0147215
0.0139477
0.0131023
0.0128702
0.0132621
0.0145795
0.0166838
0.017943
0.0170072
0.0136447
0.011359
0.010891
0.0111623
0.0116313
0.0121318
0.0125633
0.0129627
0.0134475
0.0140744
0.0149986
0.0153732
0.0151241
0.024376
0.126363
0.181099
0.00979929
0.0354118
0.0323903
0.0124986
0.0102156
0.00971389
0.0106835
0.0111035
0.0107985
0.0114195
0.0134913
0.0125329
0.0118882
0.0116813
0.0116889
0.0122621
0.0137278
0.0149178
0.0146323
0.0122243
0.0103809
0.00993086
0.0102042
0.0107473
0.0113632
0.0118881
0.012333
0.0128154
0.013438
0.0143788
0.014824
0.0146333
0.0238527
0.124976
0.180642
0.00974597
0.0357162
0.0298938
0.0120099
0.0103302
0.00974239
0.0110475
0.0113215
0.0109674
0.0115856
0.012458
0.0113453
0.0108943
0.0108021
0.0105448
0.0104543
0.0111828
0.0120451
0.0121241
0.0105989
0.00921999
0.00877724
0.00901115
0.009597
0.0103371
0.0109902
0.0115128
0.0120059
0.0126209
0.0135717
0.0141104
0.0139653
0.0232094
0.12312
0.180027
0.00967615
0.0357028
0.0271984
0.0114724
0.0103604
0.00970668
0.0112827
0.0113833
0.0110101
0.0116
0.0115931
0.0103995
0.0101244
0.0101421
0.00972339
0.00915114
0.00925094
0.00971096
0.00988669
0.0089937
0.00799492
0.00753886
0.00768502
0.00825079
0.00908617
0.00988762
0.0105238
0.0110489
0.0116546
0.0126027
0.0132518
0.0131278
0.0223957
0.120799
0.179277
0.00959042
0.0352908
0.0244279
0.0108577
0.0102843
0.00958194
0.0113416
0.0112711
0.0108879
0.0114002
0.010789
0.00958303
0.00943249
0.00948425
0.0089691
0.00811009
0.00778118
0.00791346
0.0080488
0.00752858
0.00679503
0.00631628
0.00634266
0.00681462
0.00767573
0.00861365
0.00939327
0.00997787
0.0105764
0.0115047
0.0122723
0.0121402
0.0213888
0.118026
0.178423
0.00948687
0.0344187
0.021709
0.0101956
0.0101308
0.00938816
0.0112348
0.0110063
0.0106089
0.0109887
0.00997119
0.00880358
0.00870929
0.00870658
0.00812119
0.00711844
0.00654709
0.00648376
0.00656395
0.00623846
0.00567712
0.00518662
0.00509252
0.00541529
0.0062074
0.00722559
0.00815687
0.00882891
0.00942744
0.0103176
0.0112006
0.0110327
0.020188
0.11482
0.1775
0.00936733
0.0330746
0.0191498
0.00954247
0.00994859
0.00916521
0.0110048
0.0106304
0.0102073
0.0104093
0.00912292
0.00802394
0.00792871
0.00781617
0.00716731
0.0060986
0.00540405
0.00525706
0.00532704
0.00511364
0.00467243
0.0041986
0.00401455
0.00417289
0.0048093
0.00581102
0.00686386
0.00764088
0.00824993
0.00908546
0.0100691
0.00984621
0.0188097
0.111211
0.176544
0.0092307
0.0312661
0.016831
0.00895508
0.00978605
0.00895596
0.0107068
0.0101929
0.00972974
0.00972329
0.00826248
0.0072438
0.00711361
0.00688164
0.00617843
0.00508382
0.00432462
0.0041542
0.00425844
0.00413777
0.00379913
0.00337671
0.00315172
0.00317285
0.00360856
0.00448446
0.00558249
0.00645767
0.0070864
0.00785507
0.00891384
0.00862953
0.0172822
0.107237
0.175594
0.00908003
0.0290483
0.0148028
0.00847861
0.00968379
0.00879864
0.0103956
0.00974272
0.00922429
0.00899437
0.00742271
0.00647766
0.00629752
0.00597195
0.00524208
0.00415853
0.0033695
0.00319153
0.00334063
0.00331142
0.00307193
0.00272903
0.00251256
0.00245028
0.00269577
0.00336609
0.00440032
0.00533084
0.00597915
0.00667304
0.00777287
0.00743611
0.015643
0.102946
0.174686
0.00891508
0.0264909
0.0130931
0.00814483
0.0096748
0.0087247
0.0101215
0.00932491
0.00873635
0.00828008
0.00663751
0.00574365
0.00550649
0.00512889
0.00441871
0.00339774
0.00262158
0.00243514
0.00260523
0.00265248
0.00250355
0.00225105
0.00207771
0.0019895
0.00209871
0.00254486
0.00341156
0.00431974
0.00497031
0.0055839
0.00668546
0.0063194
0.0139371
0.0984
0.173856
0.00874002
0.0237044
0.0117134
0.0079745
0.0097872
0.00875956
0.00992797
0.00897812
0.00830552
0.00762875
0.00593699
0.00506082
0.00475781
0.00436802
0.00373377
0.00283656
0.00212668
0.00193523
0.00208944
0.00217737
0.00209628
0.00192516
0.00180795
0.00173689
0.00178002
0.0020444
0.00268881
0.0034845
0.0041006
0.00462802
0.00569003
0.00532755
0.0122168
0.0936766
0.173141
0.00855535
0.0208064
0.0106662
0.00798092
0.0100477
0.00892485
0.00985047
0.00873436
0.00796482
0.00707802
0.00534554
0.0044488
0.00406612
0.00369172
0.003186
0.00246678
0.00186946
0.00168313
0.00179284
0.00187824
0.0018331
0.00172132
0.00165609
0.0016251
0.00166441
0.00182057
0.00225272
0.00286964
0.00340471
0.00383877
0.00482188
0.0044981
0.0105418
0.0888765
0.172572
0.00836592
0.0179383
0.00994487
0.00817364
0.010485
0.00924169
0.00991934
0.00861905
0.00773988
0.00665467
0.00488163
0.00392739
0.00344846
0.0031022
0.00276023
0.00225235
0.0017945
0.00162272
0.00167136
0.00171792
0.00167905
0.00160382
0.00157983
0.00159615
0.00167515
0.00179611
0.00206746
0.00248574
0.00290294
0.00323839
0.00411003
0.00385352
0.00897805
0.0841303
0.172182
0.00817267
0.0152328
0.00953668
0.00856282
0.011132
0.00973841
0.010163
0.00865339
0.00765038
0.0063761
0.00455688
0.00351449
0.00292593
0.00260855
0.00243655
0.00214551
0.00183405
0.00168167
0.00165981
0.00164493
0.00159366
0.00154011
0.00154905
0.00161235
0.00175451
0.00189568
0.002067
0.00230583
0.00259372
0.00283322
0.00357329
0.0033989
0.00759258
0.0796068
0.172001
0.00798033
0.0128189
0.00942879
0.0091648
0.0120306
0.010456
0.0106136
0.00885921
0.00771251
0.00625377
0.0043794
0.00322447
0.00252086
0.00222221
0.00219455
0.00209919
0.00192569
0.00179158
0.0016951
0.00161165
0.00154308
0.00150679
0.00154655
0.00165574
0.00186886
0.00206067
0.00218259
0.00228069
0.00245422
0.00261188
0.00321652
0.00312304
0.00644636
0.0755177
0.172058
0.00778933
0.0108035
0.00962495
0.01001
0.0132333
0.0114532
0.0113131
0.00926518
0.00794354
0.00629709
0.00435576
0.00306787
0.00224908
0.00195086
0.00201679
0.00207457
0.00201905
0.00189763
0.00172908
0.00158536
0.00150645
0.00149101
0.00156517
0.00172188
0.00200446
0.00225313
0.00235704
0.00235777
0.0024501
0.00254952
0.00302969
0.00300332
0.00558562
0.0721137
0.172381
0.00760307
0.00925343
0.0101612
0.0111422
0.0148079
0.0128099
0.0123172
0.00991195
0.00836725
0.00651863
0.00449576
0.00305288
0.00211562
0.00179046
0.00188973
0.00204574
0.00208131
0.00196554
0.00173453
0.00155022
0.00147516
0.0014886
0.0016041
0.00181281
0.00215914
0.00245318
0.00255074
0.00249355
0.00254678
0.00261586
0.00299125
0.00301239
0.00503593
0.0696607
0.172999
0.00742066
0.00817749
0.0111251
0.0126172
0.0168378
0.0146261
0.0136966
0.0108546
0.00901613
0.0069374
0.00481473
0.00318839
0.00211732
0.00172743
0.00180443
0.00200099
0.00209579
0.00197991
0.0017027
0.00150367
0.00144902
0.00150057
0.00166568
0.00193224
0.00233476
0.00265289
0.00274179
0.0026589
0.00271672
0.00278212
0.0030741
0.00312433
0.00480263
0.0683959
0.173932
0.00724378
0.00753349
0.0126512
0.01451
0.0194201
0.0170155
0.0155328
0.0121609
0.00993242
0.00758117
0.0053372
0.00348707
0.0022488
0.00174408
0.00175412
0.00194104
0.00206208
0.00194182
0.0016385
0.0014504
0.00143137
0.0015302
0.00175334
0.00208297
0.00253245
0.00285035
0.00292228
0.00283936
0.00294203
0.00302462
0.00325128
0.00331907
0.00487931
0.0684781
0.1752
0.00707145
0.00725948
0.014913
0.0169213
0.0226669
0.0201012
0.0179146
0.0139054
0.0111654
0.00848308
0.00609483
0.00396807
0.00251069
0.00182782
0.00173414
0.00187478
0.00199103
0.00186298
0.00155375
0.0013977
0.00142651
0.00158112
0.00187034
0.00226582
0.00275089
0.00304594
0.00309335
0.00303199
0.0032136
0.00332584
0.00349996
0.00358505
0.00526055
0.0699621
0.17681
0.00690537
0.00729329
0.0181051
0.0199944
0.0267156
0.0240185
0.0209372
0.0161642
0.0127666
0.00967921
0.0071212
0.00465511
0.00291264
0.00197532
0.00174146
0.00181403
0.00190172
0.00176236
0.00146321
0.00135233
0.00143793
0.00165656
0.00201903
0.00247936
0.00298633
0.00324067
0.00326117
0.00324133
0.00352879
0.00367389
0.00380368
0.00392027
0.00595264
0.0728085
0.178763
0.00674534
0.00758651
0.0224179
0.0239386
0.0317453
0.0289253
0.0247064
0.0190098
0.0147832
0.0111982
0.00843644
0.00556934
0.00347148
0.0021973
0.00177754
0.00176933
0.00181368
0.00165988
0.00138032
0.00131964
0.00146845
0.00175903
0.00220038
0.00272014
0.00323374
0.00343604
0.00343426
0.00347566
0.00388869
0.00406171
0.00415344
0.00433212
0.006979
0.0769133
0.18105
0.00659312
0.00810072
0.0280057
0.0290493
0.0379856
0.0350054
0.0293363
0.0225047
0.0172479
0.0130473
0.0100308
0.00671001
0.00419475
0.00251217
0.00184886
0.0017481
0.00174332
0.00157312
0.00131598
0.00130325
0.00151982
0.00189026
0.00241372
0.00298309
0.00348815
0.00363432
0.00362203
0.00374456
0.0042961
0.00448626
0.00454789
0.00483655
0.00838103
0.0821362
0.183656
0.00644962
0.00880905
0.0349578
0.0357046
0.0456995
0.0424375
0.0349243
0.0266804
0.0201617
0.0151979
0.0118473
0.00803687
0.00505808
0.00293127
0.00196721
0.00175537
0.00169987
0.00151333
0.00127718
0.00130578
0.00159342
0.00205101
0.00265663
0.00326242
0.00374584
0.00383901
0.00383399
0.00405708
0.00475422
0.00494815
0.004993
0.00545709
0.0102163
0.0883196
0.186565
0.00631698
0.0096898
0.0432786
0.0443259
0.0551271
0.0513193
0.0414928
0.0314987
0.023468
0.0175708
0.0137804
0.00945618
0.00598669
0.00342921
0.00214099
0.00179522
0.00168812
0.00148679
0.00126851
0.00132928
0.00168978
0.00224096
0.00292523
0.00355242
0.00400504
0.00405488
0.00407932
0.00442095
0.00526622
0.00545151
0.00550139
0.00622401
0.0125549
0.0953003
0.189755
0.00619775
0.0107349
0.0529291
0.0553132
0.0664023
0.0615647
0.0489132
0.0368053
0.0270251
0.020025
0.0156733
0.0108323
0.00686515
0.00393516
0.00236284
0.00187115
0.00170966
0.00149556
0.00129265
0.00137639
0.00180947
0.00245869
0.00321469
0.0038485
0.00426628
0.00428801
0.00436658
0.00484198
0.00583528
0.00600403
0.00609175
0.00717378
0.0154752
0.102917
0.193206
0.00609509
0.0119495
0.0639074
0.0689765
0.0794644
0.0728168
0.0568436
0.0422976
0.0305934
0.0223607
0.0173387
0.0120044
0.00756608
0.00435567
0.00260169
0.00198354
0.00176692
0.00154132
0.0013524
0.00145078
0.00195293
0.00270215
0.00352016
0.0041478
0.00453226
0.00454534
0.00470339
0.00532401
0.0064652
0.00661706
0.00678811
0.00834878
0.0190584
0.111015
0.196896
0.00601408
0.013368
0.0763312
0.0854555
0.093974
0.0844109
0.0647142
0.0475292
0.0338475
0.0243375
0.0185842
0.0128213
0.00798755
0.00462071
0.002819
0.00212753
0.00186152
0.00162508
0.00145022
0.001558
0.00212202
0.00296919
0.00383752
0.00444961
0.00480759
0.00483434
0.00509606
0.00586896
0.00716098
0.00730566
0.00761957
0.00979711
0.0233826
0.119454
0.200807
0.00596079
0.0150527
0.0904161
0.10456
0.109221
0.0953917
0.0717685
0.0519531
0.0364143
0.0257086
0.0192452
0.0131708
0.00807561
0.00470621
0.00299076
0.00229477
0.00199463
0.00174797
0.00158854
0.00170539
0.00232022
0.00325857
0.00416426
0.00475531
0.0050982
0.00516243
0.00554926
0.00647726
0.00792971
0.00808864
0.00862
0.0115724
0.0285164
0.128111
0.204918
0.00594609
0.017106
0.106356
0.125517
0.12405
0.104594
0.0771624
0.0550017
0.0379341
0.0262625
0.0192117
0.0129994
0.00783144
0.00463142
0.00311528
0.00247715
0.00216275
0.00190743
0.00176715
0.00190158
0.00255429
0.00357054
0.00449979
0.00506824
0.00541091
0.00553652
0.00606572
0.00714825
0.00878101
0.00898865
0.00982814
0.0137337
0.0345129
0.136882
0.209212
0.00598322
0.0196543
0.124064
0.146733
0.136892
0.110807
0.0801089
0.0561898
0.0381283
0.0258658
0.0184518
0.0123191
0.00730042
0.0044366
0.0032014
0.00266762
0.00235884
0.00209705
0.00198243
0.00215435
0.00283354
0.00390743
0.00484561
0.00539306
0.00575283
0.0059624
0.00664601
0.00788094
0.00972775
0.0100321
0.0112878
0.0163448
0.0414058
0.145684
0.213676
0.00609167
0.0228516
0.142914
0.165846
0.146
0.113033
0.0800545
0.0552257
0.0368651
0.024495
0.0170186
0.011201
0.00655818
0.00416686
0.00325749
0.00285712
0.00256908
0.00230376
0.0022248
0.00246768
0.0031698
0.00427334
0.00520486
0.00573536
0.00613095
0.00644433
0.00728853
0.00867453
0.0107862
0.0112496
0.0130482
0.0194744
0.0492067
0.154459
0.218299
0.00628805
0.0268442
0.161596
0.180215
0.149878
0.110749
0.076827
0.052091
0.0341972
0.0222488
0.0150443
0.00976062
0.00569546
0.00386226
0.00328733
0.00303362
0.00277695
0.00251192
0.00248114
0.00283838
0.00357387
0.00467356
0.00558177
0.00610086
0.00655163
0.00698459
0.00798967
0.00952908
0.0119763
0.0126758
0.0151646
0.0231948
0.0579054
0.163167
0.223074
0.00658505
0.0317728
0.178364
0.187728
0.147741
0.104091
0.0707019
0.0470638
0.0303614
0.019331
0.0127149
0.00813979
0.00480908
0.00355786
0.00329421
0.0031842
0.0029635
0.00270403
0.0027359
0.00325467
0.00405228
0.00511279
0.00598069
0.00649494
0.00702028
0.00758333
0.00874414
0.0104459
0.0133218
0.0143501
0.017699
0.0275824
0.0674736
0.171795
0.228003
0.00697682
0.0376888
0.191461
0.187431
0.139743
0.0938159
0.06234
0.0406573
0.025728
0.0160121
0.0102407
0.00649061
0.00398982
0.00328212
0.003284
0.00330018
0.0031152
0.00286766
0.00297685
0.00369797
0.00460149
0.0055931
0.00640505
0.00692191
0.0075411
0.00823852
0.00954554
0.011428
0.0148509
0.0163168
0.0207206
0.0327175
0.0778702
0.180349
0.233095
0.00744499
0.044496
0.199525
0.179658
0.126877
0.0810952
0.0526228
0.0335041
0.0207261
0.0125813
0.00782848
0.00496439
0.00330818
0.00305608
0.00326527
0.00337869
0.00322357
0.00299548
0.00319629
0.00414718
0.00520538
0.00611095
0.00685608
0.00738467
0.008117
0.00894635
0.0103871
0.01248
0.0165953
0.0186264
0.0243073
0.0386848
0.0890496
0.188855
0.238369
0.00795396
0.0516947
0.20162
0.165634
0.110616
0.067207
0.0424499
0.0262258
0.0157683
0.00931232
0.0056692
0.00369753
0.00279801
0.00288949
0.0032447
0.00342197
0.00328951
0.00308949
0.00339506
0.00458465
0.00583466
0.00665524
0.00733187
0.00788422
0.00874966
0.00970192
0.0112627
0.0136087
0.0185917
0.0213355
0.0285464
0.0455747
0.100971
0.197362
0.243854
0.00846726
0.0582841
0.19716
0.146959
0.092509
0.0532826
0.0325848
0.0193466
0.0112121
0.00644986
0.00392733
0.00277779
0.00245582
0.00278073
0.00322333
0.00343262
0.00331721
0.00315678
0.00358034
0.00499907
0.00645256
0.00720624
0.00782674
0.00841971
0.00943989
0.0105004
0.0121676
0.0148229
0.020881
0.0245084
0.0335358
0.0534855
0.113605
0.205935
0.249587
0.00894498
0.0626916
0.185788
0.12522
0.0739036
0.0401667
0.0235823
0.0132651
0.00735337
0.00420076
0.00270663
0.00220408
0.00225318
0.0027168
0.00319477
0.00341096
0.0033143
0.00321084
0.00376717
0.00538847
0.00702186
0.0077382
0.00833159
0.0089883
0.0101878
0.0113382
0.0131
0.0161337
0.023509
0.0282173
0.0393852
0.062525
0.126948
0.214656
0.255618
0.0093615
0.063281
0.167485
0.101888
0.0558685
0.0284221
0.0158104
0.00827926
0.00442913
0.0026837
0.00198609
0.00189771
0.00215135
0.00267733
0.00314732
0.00335226
0.00328426
0.00326629
0.00397492
0.00575834
0.00751352
0.00822349
0.00883489
0.00958544
0.0109932
0.0122145
0.0140618
0.017555
0.0265258
0.0325429
0.0462174
0.0728137
0.141023
0.223622
0.262001
0.0096768
0.0586299
0.142619
0.0783526
0.0392883
0.0184367
0.00953163
0.00461672
0.00255535
0.0018356
0.00162595
0.00175922
0.00210739
0.00263839
0.00306782
0.00324836
0.0032273
0.00334086
0.00423044
0.00612284
0.0079119
0.00863947
0.00932477
0.0102046
0.0118547
0.0131321
0.0150597
0.0191037
0.0299864
0.0375742
0.0541675
0.0844865
0.155888
0.232939
0.268797
0.00988074
0.0485625
0.112372
0.0558985
0.0249174
0.0104838
0.00493911
0.00235971
0.00157891
0.00142222
0.00145761
0.00169416
0.00207262
0.00257293
0.00294283
0.00308834
0.00313407
0.00344687
0.00456366
0.006502
0.00821784
0.00897236
0.00979078
0.0108375
0.0127688
0.014097
0.0161064
0.0208007
0.0339497
0.043407
0.0633825
0.0976946
0.171637
0.242722
0.276066
4.88225e-24
3.15075e-19
1.14006e-18
4.30255e-18
2.49355e-17
3.14586e-14
9.01455e-11
0.036963
0.243824
0.275513
0.288123
0.274047
0.254572
0.239138
0.200097
0.178454
0.146283
0.115947
0.0742097
0.0598146
0.0302891
0.0121391
4.99589e-24
7.39283e-20
8.34651e-20
6.23526e-18
6.22732e-17
2.45049e-13
9.20689e-10
0.0703242
0.28859
0.295571
0.291023
0.274283
0.253873
0.239854
0.20065
0.179222
0.147401
0.115833
0.0735148
0.059593
0.0298639
0.0121868
5.10207e-24
2.7661e-19
8.777e-19
8.89457e-18
1.22066e-16
9.26027e-13
9.29586e-09
0.110228
0.328626
0.312036
0.292907
0.274394
0.253329
0.240715
0.201434
0.180167
0.148743
0.115816
0.0732062
0.0589931
0.0293375
0.0123444
5.06178e-24
5.72572e-20
2.14769e-20
6.84915e-18
1.9218e-16
2.27584e-12
1.69493e-07
0.152344
0.3631
0.325321
0.294365
0.274534
0.253038
0.241783
0.202501
0.181265
0.150264
0.115905
0.0732728
0.0580475
0.0287441
0.0126008
5.16572e-24
2.21309e-19
6.3226e-19
7.23112e-18
2.88184e-16
3.60891e-12
6.5589e-06
0.190107
0.391847
0.335871
0.295817
0.274821
0.253089
0.243035
0.203819
0.1825
0.151914
0.116102
0.0736814
0.0568285
0.0281295
0.0129473
5.11386e-24
4.59226e-20
1.20677e-20
4.61567e-18
4.09757e-16
4.87104e-12
1.86704e-05
0.216388
0.414995
0.344193
0.297612
0.275385
0.253557
0.244546
0.205442
0.183853
0.153639
0.116403
0.0743955
0.055395
0.0275038
0.0134012
5.22925e-24
1.78691e-19
4.73402e-19
4.63737e-18
5.80424e-16
5.0616e-12
3.4533e-05
0.227751
0.432884
0.35071
0.299943
0.276313
0.254503
0.246295
0.207336
0.185329
0.15539
0.116802
0.075359
0.053831
0.0268926
0.0139762
5.17006e-24
3.80398e-20
7.88082e-21
2.78012e-18
7.72218e-16
4.37606e-12
2.58311e-05
0.225192
0.4458
0.35582
0.302964
0.277703
0.255971
0.248362
0.209564
0.186928
0.157124
0.117289
0.076522
0.0521934
0.0262938
0.0146901
5.29796e-24
1.4666e-19
3.69579e-19
2.86168e-18
9.85985e-16
2.88052e-12
2.74489e-05
0.21233
0.453997
0.359782
0.306703
0.279604
0.257992
0.250723
0.212093
0.188675
0.158815
0.117852
0.0778218
0.050557
0.0257267
0.0155466
5.2234e-24
3.24408e-20
5.88766e-21
1.68691e-18
1.14785e-15
1.68884e-12
3.53272e-05
0.192588
0.457502
0.36279
0.311183
0.282082
0.260578
0.253453
0.214988
0.190594
0.160454
0.118475
0.079212
0.0489637
0.0251822
0.0165495
5.35776e-24
1.21933e-19
2.97407e-19
1.84236e-18
1.25229e-15
8.52461e-13
4.01682e-05
0.168221
0.456207
0.364874
0.31632
0.285152
0.263739
0.256516
0.218216
0.192727
0.162055
0.11915
0.0806383
0.0474721
0.024676
0.0176843
5.27105e-24
2.8427e-20
4.69192e-21
1.08055e-18
1.23874e-15
4.1644e-13
4.1121e-05
0.141306
0.449746
0.365984
0.322037
0.288851
0.267468
0.259972
0.221838
0.195106
0.16365
0.119863
0.0820695
0.0461065
0.0241948
0.0189359