/*--------------------------------*- C++ -*----------------------------------*\
| =========                 |                                                 |
| \\      /  F ield         | OpenFOAM: The Open Source CFD Toolbox           |
|  \\    /   O peration     | Version:  v1912                                 |
|   \\  /    A nd           | Website:  www.openfoam.com                      |
|    \\/     M anipulation  |                                                 |
\*---------------------------------------------------------------------------*/
FoamFile
{
    version     2.0;
    format      ascii;
    class       volScalarField;
    location    "490";
    object      p;
}
// * * * * * * * * * * * * * * * * * * * * * * * * * * * * * * * * * * * * * //

dimensions      [0 2 -2 0 0 0 0];


internalField   nonuniform List<scalar> 
12441
(
9.02832
9.33182
10.1979
11.5415
13.2808
15.463
18.1823
21.5378
25.7079
30.86
37.2059
45.0091
54.6439
66.4467
82.0004
101.651
129.729
165.239
222.915
285.697
376.507
438.527
9.02831
9.33181
10.1979
11.5415
13.2808
15.463
18.1823
21.5377
25.7078
30.8597
37.2055
45.0085
54.643
66.445
81.9974
101.644
129.713
165.215
222.834
285.622
376.46
438.335
9.0283
9.33179
10.1979
11.5415
13.2808
15.4629
18.1822
21.5375
25.7075
30.8593
37.2048
45.0073
54.6411
66.4417
81.9913
101.629
129.687
165.158
222.666
285.442
376.332
437.987
9.02827
9.33177
10.1978
11.5414
13.2807
15.4628
18.182
21.5372
25.707
30.8586
37.2037
45.0055
54.6382
66.4366
81.9823
101.608
129.653
165.071
222.489
285.166
376.097
437.447
9.02824
9.33173
10.1978
11.5413
13.2806
15.4626
18.1817
21.5368
25.7064
30.8576
37.2022
45.0031
54.6344
66.4299
81.9703
101.58
129.609
164.962
222.324
284.82
375.766
436.709
9.0282
9.33168
10.1977
11.5413
13.2804
15.4624
18.1814
21.5363
25.7057
30.8564
37.2004
45.0001
54.6296
66.4216
81.9554
101.545
129.555
164.834
222.139
284.401
375.344
435.775
9.02815
9.33163
10.1977
11.5412
13.2803
15.4622
18.1811
21.5357
25.7048
30.855
37.1982
44.9965
54.6239
66.4115
81.9375
101.504
129.49
164.683
221.921
283.913
374.835
434.644
9.0281
9.33157
10.1976
11.541
13.2801
15.4619
18.1807
21.535
25.7037
30.8534
37.1956
44.9923
54.6172
66.3998
81.9167
101.457
129.419
164.512
221.685
283.368
374.244
433.313
9.02804
9.33149
10.1975
11.5409
13.2799
15.4616
18.1802
21.5342
25.7025
30.8515
37.1927
44.9875
54.6095
66.3865
81.8934
101.405
129.347
164.329
221.448
282.776
373.575
431.779
9.02796
9.33141
10.1974
11.5407
13.2796
15.4612
18.1797
21.5334
25.7012
30.8494
37.1894
44.9821
54.6009
66.3717
81.8689
101.353
129.28
164.145
221.238
282.149
372.827
430.035
9.02789
9.33132
10.1973
11.5406
13.2794
15.4608
18.1791
21.5324
25.6997
30.847
37.1857
44.9761
54.5914
66.3556
81.8446
101.307
129.237
163.982
221.087
281.496
371.999
428.075
9.0278
9.33122
10.1971
11.5404
13.2791
15.4604
18.1784
21.5313
25.698
30.8444
37.1816
44.9695
54.5809
66.3393
81.8248
101.281
129.255
163.878
221.026
280.822
371.084
425.888
9.0277
9.33112
10.197
11.5401
13.2788
15.4599
18.1777
21.5301
25.6962
30.8416
37.1772
44.9623
54.5698
66.3254
81.8206
101.3
129.385
163.886
221.066
280.119
370.073
423.464
9.0276
9.331
10.1968
11.5399
13.2784
15.4594
18.1769
21.5288
25.6943
30.8385
37.1725
44.9545
54.5589
66.3194
81.851
101.4
129.68
164.048
221.176
279.368
368.957
420.789
9.02749
9.33087
10.1967
11.5397
13.2781
15.4589
18.1761
21.5274
25.6922
30.8352
37.1673
44.9462
54.5498
66.3319
81.9379
101.608
130.164
164.369
221.292
278.545
367.726
417.85
9.02737
9.33074
10.1965
11.5394
13.2777
15.4583
18.1752
21.5259
25.6899
30.8317
37.1618
44.9375
54.5461
66.3761
82.0992
101.935
130.815
164.791
221.336
277.623
366.371
414.633
9.02724
9.33059
10.1963
11.5391
13.2772
15.4576
18.1742
21.5244
25.6875
30.8279
37.1559
44.9292
54.5543
66.463
82.3387
102.366
131.552
165.205
221.248
276.582
364.886
411.124
9.02711
9.33044
10.1961
11.5388
13.2768
15.4569
18.1732
21.5227
25.685
30.8239
37.1495
44.9224
54.5826
66.5976
82.6469
102.86
132.253
165.493
220.997
275.412
363.264
407.306
9.02697
9.33028
10.1959
11.5385
13.2763
15.4562
18.1721
21.5209
25.6823
30.8196
37.1427
44.9198
54.638
66.7752
82.9977
103.358
132.79
165.577
220.585
274.11
361.501
403.166
9.02682
9.33011
10.1957
11.5382
13.2758
15.4555
18.171
21.519
25.6794
30.8151
37.1356
44.9255
54.7226
66.9839
83.3576
103.788
133.064
165.439
220.038
272.68
359.595
398.687
9.02666
9.32993
10.1954
11.5378
13.2753
15.4547
18.1698
21.517
25.6764
30.8103
37.1284
44.9443
54.8328
67.2062
83.6848
104.09
133.042
165.123
219.387
271.127
357.545
393.854
9.02649
9.32974
10.1952
11.5374
13.2747
15.4538
18.1685
21.515
25.6733
30.8053
37.1218
44.98
54.9607
67.4244
83.946
104.229
132.76
164.697
218.66
269.461
355.352
388.648
9.02632
9.32954
10.1949
11.5371
13.2741
15.453
18.1672
21.5128
25.67
30.7999
37.1168
45.0331
55.096
67.6198
84.1141
104.203
132.304
164.219
217.876
267.689
353.016
383.053
9.02614
9.32933
10.1946
11.5367
13.2735
15.4521
18.1658
21.5105
25.6665
30.7943
37.1153
45.1007
55.229
67.7792
84.1843
104.037
131.77
163.725
217.046
265.822
350.54
377.05
9.02595
9.32912
10.1944
11.5362
13.2729
15.4511
18.1644
21.5081
25.6629
30.7884
37.1198
45.1778
55.3515
67.8922
84.1619
103.778
131.234
163.228
216.174
263.868
347.926
370.62
9.02575
9.32889
10.1941
11.5358
13.2723
15.4501
18.1629
21.5057
25.6591
30.7822
37.1323
45.2588
55.4572
67.9576
84.0697
103.471
130.736
162.725
215.262
261.838
345.177
363.74
9.02555
9.32866
10.1938
11.5353
13.2716
15.4491
18.1614
21.5031
25.6551
30.7759
37.1537
45.3386
55.5421
67.977
83.9288
103.153
130.287
162.209
214.309
259.74
342.295
356.388
9.02533
9.32841
10.1934
11.5349
13.2709
15.448
18.1597
21.5004
25.651
30.7697
37.1835
45.413
55.6045
67.9592
83.7643
102.846
129.879
161.675
213.314
257.584
339.282
348.54
9.02511
9.32816
10.1931
11.5344
13.2701
15.4469
18.1581
21.4977
25.6467
30.7637
37.2195
45.4791
55.6443
67.9119
83.5901
102.561
129.501
161.118
212.277
255.375
336.138
340.17
9.02488
9.3279
10.1928
11.5339
13.2694
15.4457
18.1563
21.4948
25.6422
30.7582
37.2594
45.5352
55.6633
67.8456
83.4193
102.297
129.139
160.538
211.198
253.119
332.86
331.249
9.02464
9.32763
10.1924
11.5333
13.2686
15.4445
18.1545
21.4918
25.6376
30.7534
37.3009
45.5801
55.664
67.7664
83.2545
102.051
128.784
159.935
210.076
250.818
329.444
321.746
9.0244
9.32735
10.192
11.5328
13.2677
15.4433
18.1527
21.4887
25.6328
30.7497
37.3423
45.6138
55.65
67.6816
83.0997
101.818
128.43
159.31
208.912
248.471
325.884
311.629
9.02415
9.32707
10.1917
11.5322
13.2669
15.442
18.1508
21.4856
25.6278
30.7479
37.3822
45.6364
55.6241
67.5934
82.9519
101.595
128.074
158.665
207.705
246.079
322.17
300.861
9.02389
9.32677
10.1913
11.5316
13.266
15.4407
18.1488
21.4823
25.6226
30.7484
37.4194
45.6489
55.5896
67.5058
82.8122
101.375
127.713
158.001
206.457
243.641
318.291
289.406
9.02362
9.32646
10.1909
11.531
13.2651
15.4394
18.1468
21.4789
25.6173
30.752
37.4533
45.6523
55.5487
67.4185
82.6765
101.16
127.347
157.32
205.167
241.156
314.236
277.225
9.02334
9.32615
10.1904
11.5304
13.2642
15.438
18.1447
21.4754
25.6117
30.7595
37.4836
45.648
55.5037
67.3336
82.5457
100.944
126.974
156.623
203.836
238.627
309.992
264.275
9.02306
9.32582
10.19
11.5298
13.2633
15.4365
18.1425
21.4718
25.6061
30.7722
37.5105
45.6374
55.456
67.2498
82.4162
100.728
126.597
155.912
202.466
236.055
305.549
250.512
9.02277
9.32549
10.1896
11.5291
13.2623
15.4351
18.1403
21.4681
25.6009
30.7924
37.5344
45.6218
55.4068
67.1687
82.2895
100.51
126.213
155.187
201.056
233.445
300.895
235.89
9.02247
9.32515
10.1891
11.5285
13.2613
15.4336
18.138
21.4642
25.5975
30.8216
37.5558
45.6023
55.3568
67.0888
82.1625
100.291
125.825
154.449
199.611
230.802
296.024
220.359
9.02216
9.3248
10.1887
11.5278
13.2603
15.432
18.1357
21.4602
25.6007
30.8605
37.575
45.5802
55.3067
67.0115
82.0372
100.07
125.432
153.7
198.131
228.133
290.929
203.867
9.02184
9.32444
10.1882
11.5271
13.2592
15.4304
18.1333
21.4562
25.6175
30.9094
37.5921
45.5562
55.2565
66.9356
81.911
99.8478
125.035
152.94
196.622
225.441
285.61
186.36
9.02152
9.32407
10.1877
11.5264
13.2581
15.4288
18.1309
21.4523
25.6548
30.9676
37.6069
45.5313
55.2064
66.8628
81.7867
99.6243
124.636
152.168
195.087
222.729
280.063
167.789
9.02119
9.32369
10.1872
11.5256
13.257
15.4271
18.1283
21.4496
25.7167
31.0334
37.6191
45.5063
55.1562
66.7917
81.6615
99.4011
124.234
151.384
193.531
219.993
274.264
148.069
9.02085
9.32331
10.1867
11.5249
13.2559
15.4254
18.1257
21.4531
25.8025
31.104
37.6283
45.4818
55.1059
66.7243
81.5387
99.1775
123.83
150.584
191.961
217.222
268.132
126.453
-19.8388
-21.1817
-20.0559
-20.8324
-17.9623
-17.0562
-14.8917
-13.8803
-12.2882
-11.8619
-11.8482
-13.0655
-12.1309
-6.0857
3.17044
8.52024
7.07261
3.06497
3.4775
8.72335
12.1076
11.8862
11.3767
9.32006
7.67779
6.69351
5.75601
4.38243
3.03249
1.54674
-0.113206
-0.211054
-3.37488
-4.82832
2.69767
-19.8374
-21.1608
-20.0797
-20.8358
-17.9631
-17.0548
-14.8923
-13.8806
-12.2886
-11.8612
-11.8485
-13.062
-12.1273
-6.08334
3.17237
8.5251
7.08145
3.07434
3.48305
8.72617
12.1106
11.8895
11.38
9.32298
7.68009
6.69527
5.75742
4.38372
3.03366
1.54738
-0.112311
-0.207798
-3.36996
-4.85824
2.69363
-19.8343
-21.1403
-20.1145
-20.8421
-17.9644
-17.0537
-14.893
-13.8807
-12.2884
-11.8598
-11.8482
-13.06
-12.124
-6.07981
3.17844
8.53745
7.10148
3.09818
3.50148
8.73648
12.1176
11.896
11.3858
9.3278
7.68392
6.69836
5.76002
4.38611
3.03585
1.5487
-0.110896
-0.203267
-3.36423
-4.8868
2.68979
-19.8298
-21.1279
-20.1594
-20.8502
-17.9668
-17.053
-14.8936
-13.8808
-12.2879
-11.8582
-11.8482
-13.0591
-12.1207
-6.07575
3.18593
8.55236
7.12678
3.13233
3.5322
8.75462
12.129
11.9058
11.3944
9.33504
7.68969
6.703
5.76391
4.38967
3.03917
1.55098
-0.109243
-0.196562
-3.357
-4.90706
2.68628
-19.8241
-21.1278
-20.2117
-20.8594
-17.9697
-17.0522
-14.8937
-13.8806
-12.2871
-11.8563
-11.8488
-13.0592
-12.119
-6.07304
3.19213
8.56507
7.14861
3.16431
3.56487
8.77597
12.1431
11.9181
11.4055
9.34449
7.69729
6.70909
5.76897
4.39425
3.04349
1.55413
-0.107234
-0.187772
-3.34773
-4.91824
2.6833
-19.8171
-21.1445
-20.2685
-20.8692
-17.9722
-17.0507
-14.893
-13.8802
-12.2862
-11.8546
-11.8497
-13.0603
-12.1189
-6.07171
3.19693
8.57487
7.16456
3.18868
3.59298
8.79688
12.1583
11.9318
11.4181
9.35565
7.70649
6.71647
5.77499
4.39964
3.04861
1.55805
-0.104847
-0.177165
-3.3357
-4.92084
2.68088
-19.809
-21.1822
-20.3275
-20.8791
-17.9738
-17.0484
-14.8913
-13.8796
-12.285
-11.8532
-11.8512
-13.0622
-12.1201
-6.07071
3.20179
8.58328
7.17614
3.2057
3.61472
8.81554
12.1732
11.9454
11.431
9.36772
7.71686
6.72489
5.78178
4.40562
3.05431
1.56258
-0.10214
-0.165008
-3.32038
-4.91527
2.67903
-19.8
-21.2437
-20.3862
-20.8888
-17.9747
-17.0454
-14.8887
-13.8788
-12.2837
-11.8522
-11.8533
-13.0648
-12.1222
-6.06895
3.20801
8.59169
7.18532
3.21761
3.63094
8.83144
12.1868
11.9577
11.443
9.37962
7.7277
6.73399
5.78911
4.41196
3.06035
1.56753
-0.0991839
-0.151598
-3.30175
-4.90174
2.67773
-19.7903
-21.3303
-20.4423
-20.8979
-17.975
-17.042
-14.8856
-13.8779
-12.2824
-11.8516
-11.856
-13.0681
-12.125
-6.06622
3.21605
8.60077
7.19337
3.22647
3.64318
8.84462
12.1983
11.9677
11.4529
9.39017
7.73811
6.74325
5.79669
4.41843
3.06648
1.57268
-0.096054
-0.137257
-3.28011
-4.8805
2.677
-19.78
-21.4422
-20.4941
-20.9066
-17.975
-17.0388
-14.8822
-13.877
-12.2811
-11.8516
-11.8593
-13.072
-12.1282
-6.06291
3.22535
8.61021
7.20057
3.23353
3.65279
8.85521
12.2071
11.9746
11.4597
9.39832
7.74711
6.75199
5.80417
4.42479
3.07248
1.5778
-0.092832
-0.122355
-3.25599
-4.85176
2.67685
-19.7694
-21.5776
-20.5406
-20.9148
-17.975
-17.0361
-14.8791
-13.8763
-12.28
-11.852
-11.863
-13.0766
-12.1322
-6.05975
3.23481
8.61922
7.20671
3.23931
3.66042
8.86316
12.213
11.9781
11.4632
9.40345
7.75385
6.75949
5.81111
4.43081
3.07809
1.58264
-0.0896112
-0.107256
-3.23003
-4.81582
2.67729
-19.7589
-21.7335
-20.581
-20.9225
-17.975
-17.0342
-14.8765
-13.876
-12.2791
-11.8528
-11.867
-13.0817
-12.1367
-6.05724
3.2432
8.62667
7.21135
3.24389
3.66626
8.86832
12.2156
11.9783
11.4634
9.40543
7.75791
6.76513
5.81704
4.4362
3.08309
1.58695
-0.0864888
-0.0922903
-3.20298
-4.77298
2.67836
-19.7487
-21.9047
-20.615
-20.9299
-17.9753
-17.0333
-14.8748
-13.8761
-12.2784
-11.854
-11.8712
-13.0873
-12.1418
-6.0557
3.24964
8.63175
7.21428
3.24724
3.67021
8.87063
12.2152
11.9756
11.4608
9.40466
7.75934
6.76863
5.82156
4.44069
3.08729
1.59049
-0.0835617
-0.077699
-3.17567
-4.72367
2.68012
-19.7392
-22.0847
-20.6429
-20.9372
-17.9761
-17.0337
-14.8742
-13.8768
-12.2783
-11.8557
-11.8756
-13.0932
-12.1472
-6.05506
3.25371
8.634
7.21547
3.2494
3.67237
8.87033
12.2121
11.9705
11.4559
9.40179
7.7586
6.77007
5.82446
4.44405
3.09052
1.5931
-0.0809235
-0.0636103
-3.14902
-4.66835
2.68263
-19.7306
-22.2658
-20.6651
-20.9443
-17.9774
-17.0355
-14.875
-13.8783
-12.2787
-11.8578
-11.8801
-13.0995
-12.1527
-6.05515
3.25554
8.63367
7.21516
3.2505
3.673
8.86787
12.2066
11.9634
11.4495
9.39756
7.75637
6.76987
5.82577
4.44617
3.09268
1.59466
-0.0786528
-0.0500246
-3.12403
-4.60772
2.686
-19.7234
-22.44
-20.6826
-20.9513
-17.9796
-17.0389
-14.8774
-13.8809
-12.2798
-11.8606
-11.885
-13.106
-12.1581
-6.05565
3.25557
8.63124
7.21358
3.25069
3.67261
8.86384
12.1991
11.9546
11.4418
9.3925
7.7533
6.76855
5.82578
4.44712
3.09378
1.59517
-0.076809
-0.0368285
-3.10165
-4.54271
2.69035
-19.7176
-22.6002
-20.6962
-20.9582
-17.9828
-17.0442
-14.8816
-13.8846
-12.2818
-11.8641
-11.8903
-13.113
-12.1633
-6.05638
3.2545
8.62751
7.21109
3.25016
3.67163
8.8588
12.19
11.9442
11.4329
9.3869
7.74987
6.76662
5.82489
4.44712
3.09394
1.5947
-0.0754069
-0.0238565
-3.08257
-4.47472
2.69581
-19.7134
-22.7409
-20.7067
-20.9648
-17.9873
-17.0517
-14.888
-13.8898
-12.2849
-11.8685
-11.8965
-13.1204
-12.1682
-6.05712
3.25286
8.62303
7.20794
3.24906
3.67059
8.85319
12.1794
11.9322
11.4227
9.38078
7.7463
6.76441
5.82344
4.44645
3.09336
1.59341
-0.0744097
-0.0109537
-3.06708
-4.40562
2.70248
-19.7109
-22.8597
-20.7152
-20.9713
-17.9934
-17.0616
-14.8968
-13.8968
-12.2892
-11.8739
-11.9036
-13.1287
-12.1731
-6.05787
3.25108
8.61842
7.20445
3.24754
3.66985
8.84727
12.1675
11.9186
11.4113
9.37409
7.74262
6.76208
5.82169
4.44538
3.09224
1.59147
-0.0737356
0.00198281
-3.05496
-4.33781
2.71042
-19.7098
-22.9579
-20.7224
-20.9783
-18.001
-17.0744
-14.9087
-13.9061
-12.2953
-11.8806
-11.9123
-13.1379
-12.1781
-6.05862
3.24924
8.61373
7.2006
3.24577
3.66981
8.84119
12.1541
11.9032
11.3985
9.36676
7.73876
6.75965
5.8198
4.44411
3.09076
1.58901
-0.0732862
0.0150113
-3.04562
-4.27377
2.71961
-19.7098
-23.04
-20.7285
-20.9863
-18.0102
-17.0905
-14.9243
-13.9185
-12.3034
-11.8889
-11.9229
-13.149
-12.1841
-6.0596
3.24731
8.60894
7.19632
3.24389
3.67064
8.83491
12.1391
11.8862
11.3843
9.35875
7.73465
6.7571
5.81784
4.44276
3.08907
1.58617
-0.0729726
0.0281826
-3.03837
-4.21553
2.72993
-19.7103
-23.111
-20.7348
-20.9965
-18.0209
-17.1103
-14.9442
-13.9346
-12.3141
-11.8991
-11.9362
-13.1626
-12.1917
-6.06113
3.24492
8.60349
7.19119
3.24199
3.67252
8.82842
12.1225
11.8674
11.3688
9.35011
7.73024
6.75438
5.81586
4.44141
3.08723
1.58303
-0.0727192
0.0415479
-3.03256
-4.16398
2.74121
-19.7108
-23.1747
-20.743
-21.0103
-18.0333
-17.1344
-14.9694
-13.9553
-12.3281
-11.9115
-11.9527
-13.1803
-12.2025
-6.06404
3.2417
8.59695
7.18486
3.24011
3.67541
8.82161
12.104
11.8469
11.3521
9.34088
7.7255
6.75147
5.81386
4.44007
3.08532
1.57967
-0.0724708
0.0551562
-3.02771
-4.11884
2.75321
-19.7109
-23.2346
-20.7548
-21.0294
-18.0475
-17.1635
-15.0008
-13.9817
-12.3458
-11.9265
-11.9732
-13.203
-12.218
-6.0694
3.23696
8.58858
7.1768
3.23829
3.67933
8.81441
12.0838
11.8247
11.3343
9.33114
7.72044
6.74837
5.81184
4.43873
3.08334
1.57611
-0.0721774
0.0690142
-3.02348
-4.07879
2.76574
-19.7101
-23.2935
-20.7705
-21.0553
-18.0641
-17.1985
-15.0395
-14.0145
-12.3679
-11.9444
-11.9979
-13.2323
-12.2402
-6.07877
3.23003
8.57803
7.16673
3.23648
3.68404
8.80673
12.0617
11.801
11.3154
9.32093
7.71508
6.74511
5.80979
4.43737
3.08131
1.5724
-0.0718069
0.0830914
-3.01967
-4.04216
2.77862
-19.7083
-23.3539
-20.7892
-21.0898
-18.0836
-17.2405
-15.0868
-14.0545
-12.3948
-11.9651
-12.0266
-13.2684
-12.2698
-6.09332
3.21996
8.56466
7.15431
3.23463
3.68946
8.79847
12.0378
11.7757
11.2957
9.31035
7.70946
6.7417
5.80768
4.43595
3.07921
1.56855
-0.0713259
0.0972997
-3.01617
-4.00722
2.79174
-19.705
-23.418
-20.8088
-21.1337
-18.1068
-17.2901
-15.1433
-14.1019
-12.426
-11.9879
-12.0583
-13.3114
-12.307
-6.11353
3.20628
8.54824
7.13945
3.23267
3.69526
8.78946
12.0123
11.7493
11.2752
9.29943
7.70361
6.73819
5.8055
4.43444
3.07703
1.5646
-0.0707212
0.111533
-3.01293
-3.97262
2.80506
-19.7001
-23.4876
-20.8266
-21.1872
-18.1342
-17.3476
-15.2091
-14.1559
-12.4607
-12.0116
-12.0915
-13.3591
-12.3498
-6.13786
3.18886
8.5282
7.12192
3.23052
3.70129
8.77952
11.9851
11.7216
11.254
9.28824
7.69759
6.73459
5.8032
4.43281
3.07477
1.56056
-0.0699742
0.125644
-3.00991
-3.93722
2.81856
-19.6935
-23.5649
-20.8408
-21.2495
-18.1662
-17.4121
-15.2823
-14.2139
-12.4966
-12.0341
-12.1233
-13.4096
-12.3952
-6.16345
3.16889
8.50453
7.10173
3.22803
3.70717
8.7683
11.9563
11.6931
11.2323
9.27682
7.69144
6.73093
5.80076
4.43101
3.07241
1.55648
-0.0690909
0.139487
-3.00712
-3.90029
2.83228
-19.6849
-23.6524
-20.8512
-21.3186
-18.2027
-17.4815
-15.3597
-14.272
-12.5305
-12.0528
-12.1515
-13.4591
-12.4389
-6.18641
3.14789
8.47703
7.07871
3.22511
3.71276
8.75552
11.926
11.6637
11.2102
9.26525
7.68522
6.7272
5.79813
4.42901
3.06995
1.55238
-0.0680633
0.152876
-3.00457
-3.86119
2.84624
-19.6741
-23.7541
-20.8595
-21.3914
-18.2432
-17.5522
-15.4357
-14.3248
-12.5579
-12.0645
-12.1728
-13.5049
-12.4771
-6.20398
3.12757
8.44621
7.05308
3.22162
3.71774
8.74078
11.8939
11.6336
11.1878
9.25358
7.67897
6.7234
5.79525
4.4268
3.06741
1.54832
-0.0669079
0.165637
-3.00229
-3.81956
2.86049
-19.6608
-23.8756
-20.868
-21.4628
-18.2865
-17.6192
-15.5038
-14.3661
-12.5746
-12.0664
-12.1853
-13.5433
-12.506
-6.2148
3.1082
8.41218
7.02493
3.2176
3.72216
8.72386
11.8602
11.6029
11.1651
9.24187
7.67275
6.71952
5.79209
4.42432
3.06478
1.54432
-0.0656141
0.177537
-3.00034
-3.77504
2.87508
-19.6446
-24.0252
-20.8784
-21.5264
-18.3309
-17.6768
-15.5567
-14.3897
-12.5766
-12.0564
-12.1875
-13.5725
-12.524
-6.21962
3.08942
8.37545
6.99467
3.21313
3.72594
8.70462
11.8245
11.5715
11.1422
9.23019
7.66658
6.71553
5.78859
4.42158
3.06209
1.54044
-0.0642003
0.188361
-2.99878
-3.72749
2.89006
-19.625
-24.214
-20.8904
-21.5748
-18.3737
-17.7196
-15.5886
-14.3913
-12.5614
-12.0338
-12.1796
-13.5902
-12.5302
-6.21988
3.07014
8.33583
6.96245
3.20849
3.72946
8.68322
11.7871
11.5397
11.1192
9.21863
7.66051
6.7114
5.7847
4.41852
3.05934
1.53673
-0.0626441
0.197806
-2.99768
-3.67668
2.90546
-19.6012
-24.4553
-20.9007
-21.6025
-18.4125
-17.7436
-15.5958
-14.3691
-12.5285
-11.9994
-12.1628
-13.5962
-12.5264
-6.21731
3.04996
8.2936
6.92859
3.20385
3.73282
8.65991
11.748
11.5074
11.0963
9.20723
7.65457
6.70711
5.7804
4.41517
3.05656
1.53323
-0.0609598
0.205603
-2.99715
-3.62259
2.92133
-19.5723
-24.7649
-20.9044
-21.6071
-18.4453
-17.7474
-15.5781
-14.3243
-12.48
-11.9558
-12.1393
-13.59
-12.5147
-6.21239
3.02871
8.24853
6.89307
3.19944
3.73649
8.63523
11.7077
11.4749
11.0734
9.1961
7.64879
6.70261
5.77562
4.41147
3.05376
1.53
-0.0591047
0.211364
-2.99727
-3.56506
2.93769
-19.537
-25.1581
-20.8954
-21.5904
-18.4713
-17.7324
-15.5387
-14.2611
-12.4195
-11.9069
-12.1111
-13.5741
-12.4984
-6.20523
3.00679
8.20089
6.85605
3.19525
3.74047
8.60964
11.6665
11.4423
11.0507
9.18528
7.64317
6.69788
5.77034
4.40746
3.05099
1.5271
-0.0570941
0.21475
-2.99814
-3.50417
2.95458
-19.4937
-25.6445
-20.8679
-21.5575
-18.4907
-17.7024
-15.4829
-14.1855
-12.3525
-11.8565
-12.0803
-13.552
-12.4792
-6.19519
2.98409
8.15023
6.81723
3.19139
3.74518
8.58376
11.6251
11.4098
11.0284
9.17487
7.63775
6.69287
5.76452
4.40308
3.04824
1.52461
-0.0548641
0.215258
-2.99988
-3.43973
2.97203
-19.4408
-26.2163
-20.8149
-21.5142
-18.5043
-17.6622
-15.4173
-14.1039
-12.284
-11.8078
-12.0497
-13.5292
-12.4576
-6.18243
2.96016
8.09627
6.77665
3.18798
3.75062
8.55793
11.5839
11.3777
11.0065
9.16486
7.63248
6.68754
5.75817
4.39839
3.04559
1.52261
-0.0524379
0.212438
-3.0026
-3.37172
2.99009
-19.3768
-26.8333
-20.7286
-21.4656
-18.5132
-17.6164
-15.3477
-14.0223
-12.2187
-11.7637
-12.0234
-13.5085
-12.4328
-6.16748
2.93352
8.03795
6.73434
3.18573
3.75741
8.53244
11.5432
11.3461
10.9849
9.1553
7.6274
6.68189
5.7513
4.39336
3.04303
1.52118
-0.0497629
0.205609
-3.00634
-3.29979
3.00879
-19.2942
-27.4078
-20.6003
-21.4149
-18.518
-17.5686
-15.2786
-13.9453
-12.1599
-11.7275
-12.0049
-13.4904
-12.4049
-6.15239
2.90239
7.9753
6.69172
3.18579
3.76525
8.50667
11.5026
11.3148
10.9637
9.1462
7.62258
6.67603
5.74397
4.38802
3.04058
1.52038
-0.0469288
0.194361
-3.01105
-3.22426
3.02807
-19.1662
-27.8035
-20.4226
-21.3632
-18.5181
-17.5204
-15.2132
-13.8763
-12.1116
-11.7025
-11.9946
-13.4732
-12.3749
-6.13982
2.86541
7.90962
6.65127
3.18916
3.77301
8.47899
11.4612
11.2837
10.9431
9.1379
7.61838
6.67014
5.7362
4.3822
3.03809
1.52026
-0.0437252
0.178765
-3.0169
-3.14697
3.04751
-19.0008
-27.857
-20.189
-21.3106
-18.512
-17.4724
-15.1531
-13.819
-12.0781
-11.689
-11.9899
-13.4566
-12.3467
-6.13289
2.82446
7.84653
6.61681
3.19443
3.77593
8.44616
11.418
11.2531
10.924
9.13115
7.61523
6.66423
5.72775
4.37568
3.03548
1.52096
-0.0398416
0.159427
-3.0246
-3.07037
3.06698
-19.0839
-27.4371
-19.8926
-21.2594
-18.5021
-17.4273
-15.0995
-13.7767
-12.0595
-11.6838
-11.989
-13.4422
-12.3227
-6.13048
2.78484
7.79094
6.58812
3.1958
3.76758
8.40581
11.3751
11.2263
10.9091
9.12745
7.6132
6.65711
5.71725
4.36772
3.03315
1.5236
-0.0351918
0.129256
-3.03502
-2.97879
3.09035
9.02058
9.323
10.1863
11.5243
13.255
15.4241
18.1236
21.4732
25.8838
31.1585
37.632
45.4628
55.0668
66.6736
81.4442
99.0054
123.517
149.949
190.74
215.028
263.065
104.723
9.02038
9.32277
10.186
11.5238
13.2543
15.423
18.122
21.5039
25.9434
31.1924
37.6309
45.4481
55.0387
66.6396
81.3797
98.8809
123.29
149.481
189.857
213.434
259.195
101.769
9.02017
9.32254
10.1857
11.5234
13.2536
15.422
18.1204
21.5419
25.995
31.2183
37.6262
45.432
55.0101
66.6035
81.3123
98.7535
123.056
148.995
188.952
211.779
255.166
103.431
9.01995
9.32228
10.1853
11.5229
13.2529
15.4209
18.1186
21.5801
26.0376
31.2372
37.6196
45.4151
54.9816
66.5677
81.2455
98.6204
122.811
148.488
188.024
210.056
251.022
103.303
9.01972
9.32202
10.185
11.5224
13.2521
15.4197
18.1168
21.6133
26.0721
31.2504
37.6124
45.3979
54.9533
66.5296
81.1751
98.4826
122.555
147.96
187.068
208.264
246.754
101.492
9.01947
9.32174
10.1846
11.5218
13.2513
15.4184
18.1149
21.6358
26.0988
31.2591
37.6056
45.3809
54.926
66.4919
81.105
98.3378
122.284
147.409
186.077
206.405
242.357
99.4277
9.01921
9.32144
10.1842
11.5212
13.2504
15.4171
18.1129
21.6441
26.1183
31.2639
37.5996
45.3643
54.8993
66.4522
81.0311
98.1873
121.998
146.835
185.046
204.481
237.836
97.5055
9.01894
9.32113
10.1838
11.5206
13.2495
15.4157
18.1107
21.6386
26.1308
31.2656
37.5948
45.3484
54.874
66.413
80.9571
98.029
121.694
146.236
183.968
202.492
233.196
95.5623
9.01865
9.3208
10.1834
11.52
13.2486
15.4142
18.1084
21.6229
26.1367
31.2646
37.5912
45.3333
54.8495
66.372
80.8792
97.8642
121.371
145.611
182.836
200.438
228.441
93.5001
9.01835
9.32046
10.1829
11.5193
13.2475
15.4126
18.106
21.6002
26.1359
31.2614
37.5889
45.3192
54.8263
66.3314
80.8008
97.6912
121.028
144.958
181.644
198.32
223.576
91.3428
9.01803
9.32009
10.1824
11.5186
13.2465
15.411
18.1035
21.5727
26.1283
31.2559
37.5876
45.3061
54.8039
66.289
80.7181
97.5115
120.664
144.275
180.388
196.136
218.606
89.1256
9.01769
9.3197
10.1819
11.5178
13.2453
15.4092
18.1008
21.5421
26.1134
31.248
37.587
45.2941
54.7825
66.2468
80.6343
97.3233
120.278
143.561
179.06
193.885
213.535
86.8594
9.01733
9.31929
10.1814
11.517
13.2441
15.4073
18.0979
21.5102
26.0906
31.2373
37.5866
45.283
54.7617
66.2025
80.5459
97.128
119.871
142.814
177.658
191.567
208.368
84.548
9.01695
9.31886
10.1808
11.5162
13.2429
15.4053
18.0949
21.4789
26.0589
31.2232
37.5858
45.2728
54.7415
66.1579
80.4556
96.924
119.442
142.033
176.177
189.179
203.111
82.2002
9.01655
9.3184
10.1802
11.5153
13.2415
15.4032
18.0917
21.4498
26.0178
31.2046
37.5838
45.2634
54.7215
66.1107
80.36
96.7122
118.992
141.217
174.614
186.721
197.769
79.8282
9.01612
9.31792
10.1795
11.5144
13.2401
15.401
18.0883
21.4243
25.9668
31.1804
37.5795
45.2544
54.7018
66.0626
80.2616
96.4908
118.519
140.363
172.967
184.19
192.346
77.445
9.01567
9.3174
10.1789
11.5134
13.2386
15.3986
18.0847
21.4029
25.9064
31.1491
37.5715
45.2456
54.682
66.0112
80.1569
96.2606
118.024
139.471
171.235
181.586
186.846
75.0646
9.0152
9.31686
10.1781
11.5123
13.237
15.3961
18.0809
21.3859
25.838
31.1093
37.558
45.2363
54.6623
65.9581
80.0483
96.0195
117.506
138.538
169.416
178.906
181.274
72.7009
9.01469
9.31628
10.1774
11.5112
13.2353
15.3935
18.0768
21.3727
25.7641
31.0593
37.5368
45.2256
54.6421
65.9009
79.9321
95.7681
116.964
137.565
167.509
176.149
175.633
70.3667
9.01416
9.31567
10.1766
11.51
13.2335
15.3907
18.0725
21.3623
25.6884
30.998
37.505
45.2122
54.6216
65.8413
79.8106
95.504
116.396
136.549
165.515
173.314
169.928
68.0725
9.01359
9.31503
10.1757
11.5087
13.2316
15.3877
18.0679
21.3536
25.6151
30.9252
37.4596
45.1938
54.5998
65.7768
79.6801
95.2278
115.801
135.489
163.432
170.399
164.164
65.8253
9.01299
9.31434
10.1748
11.5074
13.2296
15.3845
18.0629
21.3457
25.5479
30.8419
37.3968
45.1675
54.5763
65.7091
79.5427
94.937
115.178
134.382
161.261
167.403
158.345
63.6281
9.01235
9.31361
10.1738
11.506
13.2275
15.3812
18.0577
21.3379
25.49
30.7511
37.3138
45.1287
54.5493
65.636
79.3947
94.6319
114.525
133.229
159
164.324
152.477
61.4792
9.01167
9.31284
10.1728
11.5045
13.2252
15.3776
18.0521
21.3299
25.4426
30.657
37.2086
45.0714
54.5162
65.5586
79.2381
94.3101
113.84
132.026
156.65
161.161
146.568
59.3716
9.01095
9.31202
10.1717
11.5029
13.2228
15.3738
18.0462
21.3214
25.4052
30.5648
37.0824
44.9882
54.4722
65.4742
79.0694
93.9718
113.122
130.772
154.21
157.911
140.626
57.2936
9.01019
9.31114
10.1705
11.5012
13.2203
15.3698
18.0399
21.3123
25.3758
30.4792
36.9394
44.8715
54.4102
65.3828
78.8902
93.6147
112.369
129.465
151.68
154.574
134.66
55.2288
9.00938
9.31022
10.1693
11.4994
13.2176
15.3655
18.0333
21.3026
25.3518
30.4033
36.7874
44.7158
54.3188
65.2791
78.6968
93.2389
111.58
128.102
149.059
151.147
128.68
53.1575
9.00851
9.30923
10.168
11.4974
13.2147
15.361
18.0262
21.2921
25.3308
30.3384
36.6356
44.5207
54.1837
65.1582
78.4898
92.842
110.754
126.683
146.349
147.629
122.7
51.0574
9.00759
9.30819
10.1666
11.4954
13.2116
15.3562
18.0187
21.281
25.311
30.2835
36.4928
44.2936
53.9895
65.0072
78.2626
92.4237
109.89
125.206
143.549
144.018
116.731
48.9049
9.00662
9.30707
10.1651
11.4932
13.2084
15.3511
18.0106
21.269
25.2912
30.2367
36.365
44.049
53.7255
64.8106
78.0107
91.9807
108.987
123.667
140.659
140.313
110.787
46.6768
9.00557
9.30589
10.1635
11.4909
13.2049
15.3457
18.0021
21.2563
25.2707
30.1949
36.2545
43.8047
53.3927
64.5449
77.7191
91.5099
108.044
122.067
137.682
136.512
104.883
44.3513
9.00447
9.30463
10.1618
11.4885
13.2012
15.3399
17.9931
21.2427
25.249
30.1556
36.1599
43.5767
53.0082
64.1909
77.3701
91.0033
107.059
120.404
134.617
132.617
99.0328
41.9094
9.00329
9.30328
10.16
11.4858
13.1973
15.3338
17.9835
21.2282
25.226
30.1165
36.0774
43.3743
52.6016
63.738
76.9346
90.4495
106.029
118.676
131.468
128.626
93.2519
39.3357
9.00203
9.30185
10.1581
11.4831
13.1931
15.3273
17.9733
21.2128
25.2016
30.0764
36.0023
43.1994
52.2056
63.1989
76.3865
89.8282
104.949
116.883
128.235
124.542
87.5547
36.6197
9.00069
9.30033
10.1561
11.4801
13.1886
15.3203
17.9624
21.1964
25.1755
30.0345
35.9299
43.0473
51.8446
62.6068
75.7077
89.1144
103.809
115.022
124.921
120.367
81.9555
33.7561
8.99926
9.2987
10.1539
11.4769
13.1839
15.3129
17.9509
21.179
25.1477
29.9901
35.8569
42.9103
51.5283
62.0081
74.9079
88.2803
102.593
113.091
121.53
116.105
76.4683
30.7457
8.99773
9.29697
10.1516
11.4735
13.1788
15.305
17.9386
21.1603
25.1182
29.9429
35.7811
42.7801
51.2531
61.4429
74.0246
87.3087
101.281
111.089
118.067
111.763
71.1065
27.595
8.9961
9.29512
10.1491
11.4699
13.1734
15.2967
17.9255
21.1405
25.0867
29.8928
35.7013
42.65
51.0062
60.9327
73.1168
86.2033
99.854
109.013
114.541
107.348
65.8833
24.3168
8.99436
9.29314
10.1465
11.4661
13.1676
15.2877
17.9116
21.1193
25.0532
29.8396
35.6168
42.5154
50.7731
60.4771
72.2397
84.9971
98.2995
106.862
110.964
102.872
60.8123
20.929
8.99251
9.29104
10.1437
11.462
13.1615
15.2782
17.8967
21.0968
25.0176
29.783
35.5272
42.3739
50.5408
60.0601
71.4259
83.7431
96.6217
104.636
107.355
98.3497
55.9073
17.455
8.99053
9.28879
10.1407
11.4576
13.1549
15.268
17.8809
21.0727
24.9796
29.7228
35.432
42.2242
50.3008
59.6599
70.6771
82.4956
94.8459
102.342
103.74
93.8031
51.184
13.9223
8.98841
9.28639
10.1375
11.4529
13.1479
15.2572
17.8641
21.0471
24.9392
29.6588
35.3309
42.0656
50.0486
59.2572
69.9717
81.2882
93.0117
99.9911
100.151
89.2606
46.6598
10.3629
8.98615
9.28382
10.1341
11.4479
13.1404
15.2457
17.8462
21.0198
24.8961
29.5907
35.2236
41.8975
49.782
58.839
69.2795
80.1256
91.1582
97.5968
96.6259
84.7585
42.3549
6.81214
8.98373
9.28108
10.1304
11.4426
13.1324
15.2333
17.827
20.9906
24.8502
29.5183
35.1095
41.7191
49.5002
58.3987
68.5734
78.9884
89.31
95.1686
93.1929
80.34
38.2914
3.30892
8.98114
9.27815
10.1265
11.4369
13.1239
15.2202
17.8066
20.9594
24.8013
29.4412
34.9882
41.5298
49.2022
57.9339
67.8359
77.8464
87.4722
92.7046
89.8644
76.0504
34.492
-0.105192
8.97837
9.27501
10.1223
11.4308
13.1148
15.2061
17.7849
20.9262
24.7492
29.3591
34.8594
41.329
48.8868
57.4435
67.0591
76.6707
85.6321
90.1938
86.6217
71.9274
30.9772
-3.38715
8.97541
9.27166
10.1178
11.4243
13.105
15.1911
17.7617
20.8908
24.6936
29.2718
34.7225
41.1159
48.5531
56.9264
66.2414
75.4426
83.7651
87.6269
83.4147
67.9883
27.7602
-6.49429
8.97224
9.26807
10.113
11.4173
13.0946
15.1751
17.7369
20.8529
24.6344
29.1789
34.5771
40.8899
48.1999
56.3811
65.3834
74.1549
81.8445
85.001
80.1792
64.2162
24.8407
-9.3874
8.96885
9.26424
10.1079
11.4099
13.0834
15.158
17.7105
20.8125
24.5713
29.08
34.4226
40.6502
47.8265
55.8061
64.4849