/*--------------------------------*- C++ -*----------------------------------*\
| =========                 |                                                 |
| \\      /  F ield         | OpenFOAM: The Open Source CFD Toolbox           |
|  \\    /   O peration     | Version:  v1912                                 |
|   \\  /    A nd           | Website:  www.openfoam.com                      |
|    \\/     M anipulation  |                                                 |
\*---------------------------------------------------------------------------*/
FoamFile
{
    version     2.0;
    format      ascii;
    class       surfaceScalarField;
    location    "490";
    object      phi;
}
// * * * * * * * * * * * * * * * * * * * * * * * * * * * * * * * * * * * * * //

dimensions      [0 3 -1 0 0 0 0];
oriented        oriented;


internalField   nonuniform List<scalar> 
24588
(
6.81682e-05
1.99511e-08
6.8114e-05
5.48221e-08
6.80286e-05
8.49546e-08
6.79125e-05
1.16077e-07
6.77615e-05
1.50537e-07
6.75714e-05
1.90163e-07
6.73358e-05
2.35179e-07
6.7041e-05
2.94648e-07
6.66762e-05
3.65033e-07
6.62173e-05
4.56906e-07
6.56583e-05
5.60761e-07
6.49845e-05
6.99633e-07
6.40374e-05
8.79213e-07
6.29596e-05
1.15757e-06
6.14622e-05
1.41484e-06
5.91876e-05
2.33662e-06
5.62463e-05
2.93503e-06
5.14153e-05
4.83266e-06
4.46853e-05
6.72963e-06
3.34732e-05
1.12111e-05
1.98597e-05
1.36136e-05
1.98596e-05
6.81685e-05
4.03872e-08
6.81138e-05
1.10237e-07
6.80285e-05
1.69742e-07
6.79126e-05
2.3195e-07
6.77616e-05
3.00856e-07
6.75716e-05
3.80267e-07
6.73359e-05
4.70312e-07
6.70414e-05
5.88993e-07
6.66767e-05
7.30001e-07
6.62175e-05
9.13828e-07
6.56608e-05
1.11971e-06
6.49887e-05
1.40097e-06
6.40252e-05
1.76844e-06
6.29813e-05
2.28204e-06
6.14573e-05
2.85252e-06
5.92567e-05
4.59605e-06
5.62597e-05
5.92083e-06
5.13861e-05
9.70818e-06
4.47333e-05
1.33815e-05
3.33763e-05
2.25666e-05
1.98231e-05
2.7167e-05
3.96825e-05
6.81685e-05
6.08266e-08
6.81138e-05
1.65658e-07
6.80285e-05
2.54565e-07
6.79125e-05
3.47864e-07
6.77616e-05
4.51218e-07
6.75715e-05
5.70403e-07
6.73358e-05
7.05528e-07
6.70413e-05
8.83372e-07
6.66767e-05
1.09489e-06
6.62171e-05
1.37102e-06
6.56603e-05
1.67855e-06
6.49893e-05
2.10225e-06
6.40187e-05
2.66002e-06
6.29693e-05
3.42356e-06
6.14514e-05
4.27664e-06
5.92902e-05
6.82814e-06
5.62565e-05
8.94087e-06
5.1407e-05
1.45615e-05
4.47108e-05
2.00765e-05
3.3399e-05
3.38765e-05
1.9844e-05
4.07222e-05
5.95263e-05
6.81685e-05
8.12641e-08
6.81138e-05
2.21034e-07
6.80285e-05
3.39343e-07
6.79126e-05
4.63734e-07
6.77617e-05
6.01517e-07
6.75716e-05
7.60485e-07
6.73359e-05
9.40658e-07
6.70414e-05
1.17775e-06
6.66767e-05
1.4599e-06
6.62174e-05
1.82805e-06
6.56602e-05
2.23805e-06
6.49881e-05
2.80359e-06
6.40271e-05
3.54773e-06
6.29787e-05
4.54984e-06
6.14508e-05
5.72212e-06
5.93085e-05
9.02637e-06
5.62795e-05
1.19575e-05
5.14223e-05
1.9421e-05
4.47017e-05
2.67953e-05
3.34293e-05
4.51472e-05
1.98784e-05
5.42731e-05
7.94046e-05
6.81685e-05
1.017e-07
6.81138e-05
2.7641e-07
6.80285e-05
4.24163e-07
6.79125e-05
5.79656e-07
6.77616e-05
7.51871e-07
6.75716e-05
9.50609e-07
6.73358e-05
1.1759e-06
6.70413e-05
1.47214e-06
6.66766e-05
1.82481e-06
6.62171e-05
2.28527e-06
6.56601e-05
2.79699e-06
6.49892e-05
3.50421e-06
6.402e-05
4.43726e-06
6.2967e-05
5.69444e-06
6.14476e-05
7.14724e-06
5.93175e-05
1.12274e-05
5.63043e-05
1.49571e-05
5.14243e-05
2.43056e-05
4.47202e-05
3.34982e-05
3.3476e-05
5.63896e-05
1.99275e-05
6.78218e-05
9.93319e-05
6.81685e-05
1.22137e-07
6.81139e-05
3.31745e-07
6.80285e-05
5.08921e-07
6.79126e-05
6.95516e-07
6.77617e-05
9.02133e-07
6.75717e-05
1.14066e-06
6.7336e-05
1.41102e-06
6.70415e-05
1.76653e-06
6.66767e-05
2.18986e-06
6.62175e-05
2.74227e-06
6.56598e-05
3.35695e-06
6.49871e-05
4.20589e-06
6.40293e-05
5.32424e-06
6.29783e-05
6.81954e-06
6.14481e-05
8.60008e-06
5.93158e-05
1.34128e-05
5.63196e-05
1.7941e-05
5.14356e-05
2.91917e-05
4.47517e-05
4.018e-05
3.35425e-05
6.7597e-05
1.99933e-05
8.13711e-05
0.000119325
6.81685e-05
1.42573e-07
6.81138e-05
3.87082e-07
6.80285e-05
5.93731e-07
6.79126e-05
8.11443e-07
6.77616e-05
1.05246e-06
6.75716e-05
1.33076e-06
6.73358e-05
1.64626e-06
6.70414e-05
2.06092e-06
6.66767e-05
2.55478e-06
6.62173e-05
3.19941e-06
6.56605e-05
3.9157e-06
6.49892e-05
4.90584e-06
6.40207e-05
6.213e-06
6.29654e-05
7.96624e-06
6.14458e-05
1.00259e-05
5.93102e-05
1.56167e-05
5.63344e-05
2.09058e-05
5.14567e-05
3.40742e-05
4.47999e-05
4.68359e-05
3.36364e-05
7.87592e-05
2.00789e-05
9.49288e-05
0.000139404
6.81685e-05
1.6301e-07
6.81139e-05
4.42378e-07
6.80286e-05
6.78469e-07
6.79126e-05
9.27288e-07
6.77617e-05
1.20268e-06
6.75718e-05
1.52077e-06
6.73361e-05
1.88134e-06
6.70416e-05
2.35529e-06
6.66768e-05
2.91984e-06
6.62178e-05
3.65629e-06
6.56597e-05
4.4761e-06
6.49856e-05
5.60848e-06
6.40309e-05
7.1007e-06
6.29777e-05
9.08858e-06
6.14401e-05
1.14913e-05
5.92937e-05
1.781e-05
5.63525e-05
2.38373e-05
5.15065e-05
3.89213e-05
4.48837e-05
5.34567e-05
3.37699e-05
8.98715e-05
2.01884e-05
0.00010851
0.000159592
6.81685e-05
1.83445e-07
6.81139e-05
4.97679e-07
6.80285e-05
7.63271e-07
6.79126e-05
1.04321e-06
6.77617e-05
1.35297e-06
6.75717e-05
1.71085e-06
6.73359e-05
2.11658e-06
6.70415e-05
2.64966e-06
6.66767e-05
3.28477e-06
6.62175e-05
4.11327e-06
6.56611e-05
5.03445e-06
6.49899e-05
6.30703e-06
6.40214e-05
7.98842e-06
6.29547e-05
1.0243e-05
6.14145e-05
1.29532e-05
5.92873e-05
1.99843e-05
5.63609e-05
2.67592e-05
5.16156e-05
4.36704e-05
4.5026e-05
6.00464e-05
3.39559e-05
0.000100941
2.03264e-05
0.00012214
0.000179918
6.81685e-05
2.03881e-07
6.81139e-05
5.52936e-07
6.80286e-05
8.47994e-07
6.79127e-05
1.15904e-06
6.77618e-05
1.50314e-06
6.75719e-05
1.90082e-06
6.73362e-05
2.35163e-06
6.70417e-05
2.94401e-06
6.66769e-05
3.64985e-06
6.62182e-05
4.56991e-06
6.56596e-05
5.59534e-06
6.49821e-05
7.0125e-06
6.40259e-05
8.88405e-06
6.29466e-05
1.13835e-05
6.13933e-05
1.44607e-05
5.93068e-05
2.20933e-05
5.63793e-05
2.96815e-05
5.17902e-05
4.82591e-05
4.52319e-05
6.66032e-05
3.41992e-05
0.000111973
2.04966e-05
0.000135843
0.000200415
6.81685e-05
2.24314e-07
6.81139e-05
6.08204e-07
6.80285e-05
9.32795e-07
6.79126e-05
1.27497e-06
6.77617e-05
1.65341e-06
6.75717e-05
2.09087e-06
6.7336e-05
2.58685e-06
6.70416e-05
3.23835e-06
6.66768e-05
4.0148e-06
6.62182e-05
5.02635e-06
6.56614e-05
6.154e-06
6.4988e-05
7.71133e-06
6.40285e-05
9.76575e-06
6.29228e-05
1.25569e-05
6.13779e-05
1.59675e-05
5.93364e-05
2.41543e-05
5.64212e-05
3.25962e-05
5.19966e-05
5.26865e-05
4.54753e-05
7.31251e-05
3.44916e-05
0.000122956
2.07004e-05
0.000149634
0.000221115
6.81685e-05
2.44747e-07
6.81139e-05
6.63424e-07
6.80286e-05
1.01751e-06
6.79127e-05
1.39078e-06
6.77619e-05
1.80354e-06
6.7572e-05
2.2808e-06
6.73363e-05
2.82185e-06
6.70419e-05
3.53266e-06
6.66769e-05
4.37998e-06
6.6219e-05
5.48226e-06
6.56595e-05
6.71581e-06
6.49734e-05
8.423e-06
6.40268e-05
1.06628e-05
6.29164e-05
1.37032e-05
6.13747e-05
1.74953e-05
5.93663e-05
2.61672e-05
5.6474e-05
3.5486e-05
5.21872e-05
5.69721e-05
4.57212e-05
7.95901e-05
3.48162e-05
0.00013386
2.09365e-05
0.000163514
0.000242052
6.81685e-05
2.65177e-07
6.81139e-05
7.18657e-07
6.80286e-05
1.10232e-06
6.79126e-05
1.5067e-06
6.77618e-05
1.95378e-06
6.75718e-05
2.47081e-06
6.73361e-05
3.05706e-06
6.70417e-05
3.82696e-06
6.66768e-05
4.74513e-06
6.62196e-05
5.9373e-06
6.56586e-05
7.27855e-06
6.49657e-05
9.13788e-06
6.40251e-05
1.15431e-05
6.29074e-05
1.4848e-05
6.1375e-05
1.90145e-05
5.93897e-05
2.81594e-05
5.65219e-05
3.83546e-05
5.23381e-05
6.11577e-05
4.59483e-05
8.59807e-05
3.51556e-05
0.000144653
2.12015e-05
0.000177468
0.000263253
6.81685e-05
2.85606e-07
6.81139e-05
7.73839e-07
6.80286e-05
1.18703e-06
6.79127e-05
1.6225e-06
6.77619e-05
2.10386e-06
6.7572e-05
2.6607e-06
6.73364e-05
3.29201e-06
6.7042e-05
4.12122e-06
6.66769e-05
5.11051e-06
6.62205e-05
6.3918e-06
6.56544e-05
7.84679e-06
6.49405e-05
9.87166e-06
6.40219e-05
1.24378e-05
6.2901e-05
1.59782e-05
6.13766e-05
2.05376e-05
5.94056e-05
3.01298e-05
5.65592e-05
4.11995e-05
5.24514e-05
6.52643e-05
4.61497e-05
9.22818e-05
3.54973e-05
0.000155304
2.14907e-05
0.000191475
0.000284744
6.81685e-05
3.0603e-07
6.81139e-05
8.29038e-07
6.80286e-05
1.27185e-06
6.79126e-05
1.73842e-06
6.77618e-05
2.25408e-06
6.75719e-05
2.85068e-06
6.73362e-05
3.52718e-06
6.70419e-05
4.41544e-06
6.66768e-05
5.47582e-06
6.6221e-05
6.84538e-06
6.56513e-05
8.41808e-06
6.49253e-05
1.06129e-05
6.40263e-05
1.33114e-05
6.28957e-05
1.71172e-05
6.13782e-05
2.20498e-05
5.94159e-05
3.20958e-05
5.65863e-05
4.403e-05
5.25366e-05
6.93154e-05
4.63262e-05
9.84929e-05
3.58338e-05
0.000165797
2.17995e-05
0.000205509
0.000306543
6.81685e-05
3.26453e-07
6.81139e-05
8.84183e-07
6.80286e-05
1.35656e-06
6.79127e-05
1.8542e-06
6.7762e-05
2.40412e-06
6.75721e-05
3.04052e-06
6.73366e-05
3.76207e-06
6.70423e-05
4.70961e-06
6.6677e-05
5.84129e-06
6.62221e-05
7.29852e-06
6.56465e-05
8.99556e-06
6.49184e-05
1.13525e-05
6.40264e-05
1.41996e-05
6.28926e-05
1.82524e-05
6.13798e-05
2.35637e-05
5.94224e-05
3.4052e-05
5.66054e-05
4.68458e-05
5.26026e-05
7.33172e-05
4.64812e-05
0.000104614
3.61613e-05
0.000176116
2.21239e-05
0.000219546
0.000328667
6.81685e-05
3.46871e-07
6.81139e-05
9.39348e-07
6.80286e-05
1.4414e-06
6.79126e-05
1.97012e-06
6.77619e-05
2.55431e-06
6.7572e-05
3.23048e-06
6.73364e-05
3.99722e-06
6.70422e-05
5.0037e-06
6.66769e-05
6.20677e-06
6.62234e-05
7.74986e-06
6.56372e-05
9.58317e-06
6.49198e-05
1.20757e-05
6.40249e-05
1.50837e-05
6.28906e-05
1.93901e-05
6.13812e-05
2.50698e-05
5.94263e-05
3.60094e-05
5.6619e-05
4.9654e-05
5.26559e-05
7.72815e-05
4.66188e-05
0.000110651
3.64786e-05
0.000186256
2.24606e-05
0.000233565
0.000351127
6.81685e-05
3.67287e-07
6.81139e-05
9.94454e-07
6.80286e-05
1.52612e-06
6.79128e-05
2.08588e-06
6.7762e-05
2.70432e-06
6.75722e-05
3.42028e-06
6.73367e-05
4.23205e-06
6.70426e-05
5.29769e-06
6.66771e-05
6.5725e-06
6.62249e-05
8.20032e-06
6.56271e-05
1.01826e-05
6.49213e-05
1.2785e-05
6.40229e-05
1.59835e-05
6.28896e-05
2.05231e-05
6.13824e-05
2.65785e-05
5.94287e-05
3.79616e-05
5.66288e-05
5.2453e-05
5.2701e-05
8.12084e-05
4.67429e-05
0.000116609
3.67861e-05
0.000196213
2.28074e-05
0.000247543
0.000373935
6.81685e-05
3.87698e-07
6.81139e-05
1.04958e-06
6.80286e-05
1.61097e-06
6.79127e-05
2.2018e-06
6.77619e-05
2.85449e-06
6.7572e-05
3.61019e-06
6.73365e-05
4.46718e-06
6.70425e-05
5.59159e-06
6.6677e-05
6.93818e-06
6.62251e-05
8.65005e-06
6.56206e-05
1.07882e-05
6.4921e-05
1.34855e-05
6.40214e-05
1.68774e-05
6.2889e-05
2.16577e-05
6.13835e-05
2.80814e-05
5.94302e-05
3.99169e-05
5.66363e-05
5.52476e-05
5.27412e-05
8.51046e-05
4.68571e-05
0.000122494
3.70849e-05
0.000205985
2.31628e-05
0.000261465
0.000397097
6.81685e-05
4.08107e-07
6.81139e-05
1.10465e-06
6.80287e-05
1.6957e-06
6.79128e-05
2.31754e-06
6.77621e-05
3.00445e-06
6.75723e-05
3.79993e-06
6.73369e-05
4.70197e-06
6.70429e-05
5.88544e-06
6.66774e-05
7.30394e-06
6.62216e-05
9.10424e-06
6.56192e-05
1.13917e-05
6.49197e-05
1.41861e-05
6.40204e-05
1.77792e-05
6.28887e-05
2.27886e-05
6.13846e-05
2.95871e-05
5.94313e-05
4.18689e-05
5.66427e-05
5.80354e-05
5.27789e-05
8.89676e-05
4.69645e-05
0.000128308
3.73769e-05
0.000215573
2.35263e-05
0.000275316
0.000420624
6.81685e-05
4.28509e-07
6.81139e-05
1.15975e-06
6.80286e-05
1.78058e-06
6.79127e-05
2.43346e-06
6.7762e-05
3.1546e-06
6.75721e-05
3.98982e-06
6.73366e-05
4.93707e-06
6.70427e-05
6.17925e-06
6.66776e-05
7.66921e-06
6.6212e-05
9.56769e-06
6.56219e-05
1.19822e-05
6.49183e-05
1.48897e-05
6.40199e-05
1.86735e-05
6.28887e-05
2.39213e-05
6.13859e-05
3.10878e-05
5.94325e-05
4.3824e-05
5.6649e-05
6.08195e-05
5.2816e-05
9.28016e-05
4.70676e-05
0.000134057
3.76642e-05
0.000224976
2.38975e-05
0.000289083
0.000444521
6.81685e-05
4.48909e-07
6.81139e-05
1.21478e-06
6.80287e-05
1.86531e-06
6.79129e-05
2.54918e-06
6.77622e-05
3.30452e-06
6.75724e-05
4.17951e-06
6.73371e-05
5.17179e-06
6.70431e-05
6.47312e-06
6.66785e-05
8.03402e-06
6.62013e-05
1.00434e-05
6.56252e-05
1.25587e-05
6.49173e-05
1.55982e-05
6.40196e-05
1.95738e-05
6.2889e-05
2.50511e-05
6.13873e-05
3.2591e-05
5.94341e-05
4.5776e-05
5.66559e-05
6.3597e-05
5.28537e-05
9.66029e-05
4.71685e-05
0.000139741
3.7949e-05
0.000234195
2.42768e-05
0.000302755
0.000468798
6.81685e-05
4.69303e-07
6.81139e-05
1.26984e-06
6.80286e-05
1.9502e-06
6.79127e-05
2.66509e-06
6.7762e-05
3.45464e-06
6.75722e-05
4.36937e-06
6.73368e-05
5.40679e-06
6.70428e-05
6.76702e-06
6.6679e-05
8.398e-06
6.61932e-05
1.05271e-05
6.56269e-05
1.3125e-05
6.49166e-05
1.63083e-05
6.40196e-05
2.04675e-05
6.28896e-05
2.61825e-05
6.13892e-05
3.40895e-05
5.94366e-05
4.77302e-05
5.6664e-05
6.63702e-05
5.28929e-05
0.000100375
4.72689e-05
0.000145366
3.82337e-05
0.00024323
2.46649e-05
0.000316324
0.000493463
6.81685e-05
4.89693e-07
6.8114e-05
1.32483e-06
6.80287e-05
2.03495e-06
6.79129e-05
2.78078e-06
6.77623e-05
3.6045e-06
6.75726e-05
4.55902e-06
6.73373e-05
5.6414e-06
6.70433e-05
7.06094e-06
6.66798e-05
8.76172e-06
6.61887e-05
1.10168e-05
6.56272e-05
1.36867e-05
6.49163e-05
1.70196e-05
6.40199e-05
2.13664e-05
6.28904e-05
2.73112e-05
6.13915e-05
3.55897e-05
5.94404e-05
4.968e-05
5.6674e-05
6.91359e-05
5.2934e-05
0.000104114
4.73699e-05
0.00015093
3.85206e-05
0.00025208
2.50629e-05
0.000329782
0.000518525
6.81685e-05
5.10078e-07
6.81139e-05
1.37986e-06
6.80287e-05
2.11986e-06
6.79127e-05
2.89668e-06
6.77621e-05
3.7546e-06
6.75723e-05
4.74884e-06
6.7337e-05
5.87636e-06
6.70431e-05
7.35474e-06
6.66799e-05
9.12511e-06
6.61861e-05
1.15084e-05
6.56271e-05
1.42456e-05
6.49162e-05
1.77304e-05
6.40203e-05
2.22594e-05
6.28915e-05
2.84412e-05
6.13945e-05
3.7085e-05
5.94458e-05
5.16303e-05
5.66861e-05
7.18962e-05
5.29772e-05
0.000107824
4.74723e-05
0.000156435
3.8812e-05
0.00026074
2.5472e-05
0.000343122
0.000543997
6.81685e-05
5.30459e-07
6.8114e-05
1.43481e-06
6.80287e-05
2.20462e-06
6.79129e-05
3.01236e-06
6.77623e-05
3.90443e-06
6.75727e-05
4.93842e-06
6.73375e-05
6.11094e-06
6.70437e-05
7.64837e-06
6.66788e-05
9.49022e-06
6.61855e-05
1.20007e-05
6.56269e-05
1.48044e-05
6.49162e-05
1.84413e-05
6.40209e-05
2.31572e-05
6.28929e-05
2.95683e-05
6.13981e-05
3.85811e-05
5.94528e-05
5.35744e-05
5.67006e-05
7.46477e-05
5.30227e-05
0.000111501
4.75768e-05
0.00016188
3.91102e-05
0.000269206
2.58937e-05
0.000356338
0.000569891
6.81685e-05
5.50835e-07
6.81139e-05
1.4898e-06
6.80287e-05
2.28955e-06
6.79128e-05
3.12825e-06
6.77622e-05
4.0545e-06
6.75725e-05
5.12816e-06
6.73371e-05
6.34594e-06
6.70438e-05
7.94162e-06
6.66733e-05
9.86084e-06
6.61879e-05
1.24843e-05
6.56268e-05
1.53654e-05
6.49165e-05
1.91514e-05
6.40216e-05
2.40493e-05
6.28947e-05
3.06963e-05
6.14026e-05
4.00715e-05
5.94616e-05
5.5517e-05
5.67174e-05
7.73925e-05
5.30704e-05
0.000115149
4.76839e-05
0.000167267
3.94172e-05
0.000277473
2.63295e-05
0.000369426
0.00059622
6.81685e-05
5.71206e-07
6.8114e-05
1.54471e-06
6.80288e-05
2.37431e-06
6.7913e-05
3.24389e-06
6.77624e-05
4.20429e-06
6.75729e-05
5.31764e-06
6.73376e-05
6.5806e-06
6.70447e-05
8.2344e-06
6.66656e-05
1.02401e-05
6.61923e-05
1.29573e-05
6.56268e-05
1.5931e-05
6.49168e-05
1.98617e-05
6.40225e-05
2.49459e-05
6.28969e-05
3.18212e-05
6.14078e-05
4.15619e-05
5.94721e-05
5.74514e-05
5.67368e-05
8.0127e-05
5.31202e-05
0.000118765
4.77936e-05
0.000172594
3.97349e-05
0.000285531
2.67809e-05
0.00038238
0.000623001
6.81685e-05
5.91572e-07
6.8114e-05
1.59967e-06
6.80287e-05
2.45926e-06
6.79128e-05
3.35976e-06
6.77622e-05
4.35435e-06
6.75726e-05
5.50728e-06
6.73372e-05
6.81575e-06
6.70449e-05
8.52665e-06
6.6659e-05
1.06261e-05
6.61955e-05
1.34197e-05
6.5627e-05
1.64994e-05
6.49173e-05
2.05712e-05
6.40236e-05
2.58371e-05
6.28994e-05
3.29466e-05
6.14138e-05
4.30458e-05
5.94843e-05
5.93827e-05
5.67587e-05
8.28532e-05
5.31723e-05
0.000122352
4.79059e-05
0.00017786
4.00645e-05
0.000293373
2.72494e-05
0.000395195
0.000650251
6.81685e-05
6.11934e-07
6.8114e-05
1.65454e-06
6.80288e-05
2.54403e-06
6.7913e-05
3.47537e-06
6.77625e-05
4.50409e-06
6.75731e-05
5.69663e-06
6.73377e-05
7.05052e-06
6.70457e-05
8.8185e-06
6.66549e-05
1.1017e-05
6.61975e-05
1.3877e-05
6.56273e-05
1.70696e-05
6.49179e-05
2.12809e-05
6.40248e-05
2.67324e-05
6.29022e-05
3.40684e-05
6.14206e-05
4.45287e-05
5.94979e-05
6.13041e-05
5.6783e-05
8.55674e-05
5.32266e-05
0.000125908
4.80209e-05
0.000183066
4.0407e-05
0.000300987
2.77362e-05
0.000407866
0.000677987
6.81685e-05
6.3229e-07
6.8114e-05
1.70946e-06
6.80287e-05
2.62899e-06
6.79129e-05
3.59123e-06
6.77623e-05
4.65413e-06
6.75728e-05
5.88617e-06
6.73374e-05
7.28573e-06
6.70458e-05
9.11002e-06
6.6652e-05
1.14108e-05
6.61988e-05
1.43295e-05
6.56277e-05
1.76406e-05
6.49185e-05
2.19899e-05
6.40262e-05
2.76222e-05
6.29054e-05
3.51902e-05
6.14281e-05
4.60043e-05
5.9513e-05
6.32209e-05
5.68098e-05
8.82713e-05
5.32833e-05
0.000129435
4.81383e-05
0.000188211
4.07628e-05
0.000308362
2.82422e-05
0.000420387
0.000706229
6.81685e-05
6.52642e-07
6.8114e-05
1.76429e-06
6.80288e-05
2.71376e-06
6.79131e-05
3.7068e-06
6.77626e-05
4.80383e-06
6.75733e-05
6.07543e-06
6.73379e-05
7.52047e-06
6.70464e-05
9.40138e-06
6.66506e-05
1.18066e-05
6.61998e-05
1.47804e-05
6.56281e-05
1.82124e-05
6.49192e-05
2.26991e-05
6.40277e-05
2.8516e-05
6.2909e-05
3.63081e-05
6.14362e-05
4.74784e-05
5.95295e-05
6.51263e-05
5.68391e-05
9.09609e-05
5.33425e-05
0.000132931
4.8258e-05
0.000193295
4.11318e-05
0.000315488
2.8768e-05
0.00043275
0.000734997
6.81685e-05
6.72989e-07
6.8114e-05
1.81919e-06
6.80288e-05
2.79873e-06
6.79129e-05
3.82264e-06
6.77624e-05
4.95383e-06
6.7573e-05
6.26491e-06
6.73376e-05
7.75559e-06
6.70463e-05
9.69265e-06
6.66496e-05
1.22034e-05
6.62007e-05
1.52287e-05
6.56287e-05
1.87843e-05
6.492e-05
2.34077e-05
6.40293e-05
2.94043e-05
6.29128e-05
3.74257e-05
6.14449e-05
4.89446e-05
5.95472e-05
6.70258e-05
5.68709e-05
9.36379e-05
5.34043e-05
0.000136398
4.83801e-05
0.00019832
4.15137e-05
0.000322355
2.93141e-05
0.00044495
0.000764311
6.81685e-05
6.93332e-07
6.8114e-05
1.87398e-06
6.80289e-05
2.88351e-06
6.79132e-05
3.93818e-06
6.77627e-05
5.10347e-06
6.75734e-05
6.45411e-06
6.73383e-05
7.99012e-06
6.70468e-05
9.98404e-06
6.66493e-05
1.2601e-05
6.62016e-05
1.56764e-05
6.56293e-05
1.93566e-05
6.49209e-05
2.41164e-05
6.4031e-05
3.02963e-05
6.29169e-05
3.85391e-05
6.14541e-05
5.04086e-05
5.95661e-05
6.89125e-05
5.69051e-05
9.62981e-05
5.34688e-05
0.000139834
4.85045e-05
0.000203284
4.19081e-05
0.000328951
2.98806e-05
0.000456978
0.000794191
6.81685e-05
7.13671e-07
6.8114e-05
1.92884e-06
6.80288e-05
2.96849e-06
6.7913e-05
4.054e-06
6.77625e-05
5.25342e-06
6.75731e-05
6.64356e-06
6.73381e-05
8.22497e-06
6.70465e-05
1.02756e-05
6.66488e-05
1.29987e-05
6.62024e-05
1.61224e-05
6.563e-05
1.99289e-05
6.49218e-05
2.48245e-05
6.40329e-05
3.11829e-05
6.29212e-05
3.96519e-05
6.14638e-05
5.18643e-05
5.95861e-05
7.0792e-05
5.69419e-05
9.89429e-05
5.35364e-05
0.00014324
4.86316e-05
0.000208189
4.23148e-05
0.000335268
3.04675e-05
0.000468825
0.000824659
6.81685e-05
7.34006e-07
6.8114e-05
1.9836e-06
6.80289e-05
3.05325e-06
6.79132e-05
4.1695e-06
6.77629e-05
5.40298e-06
6.75736e-05
6.83274e-06
6.73389e-05
8.45912e-06
6.70466e-05
1.05678e-05
6.66489e-05
1.33964e-05
6.62033e-05
1.6568e-05
6.56307e-05
2.05015e-05
6.49227e-05
2.55327e-05
6.40348e-05
3.2073e-05
6.29257e-05
4.07602e-05
6.1474e-05
5.33173e-05
5.96073e-05
7.26573e-05
5.69811e-05
0.000101568
5.3607e-05
0.000146614
4.87617e-05
0.000213034
4.27335e-05
0.000341296
3.10751e-05
0.000480483
0.000855734
6.81685e-05
7.54337e-07
6.8114e-05
2.03843e-06
6.80288e-05
3.13824e-06
6.7913e-05
4.28531e-06
6.77627e-05
5.55286e-06
6.75732e-05
7.0222e-06
6.73387e-05
8.69344e-06
6.70426e-05
1.08639e-05
6.66509e-05
1.37882e-05
6.62041e-05
1.70144e-05
6.56315e-05
2.10741e-05
6.49237e-05
2.62403e-05
6.40368e-05
3.29576e-05
6.29304e-05
4.18676e-05
6.14845e-05
5.47616e-05
5.96295e-05
7.45142e-05
5.70227e-05
0.000104176
5.3681e-05
0.000149956
4.88953e-05
0.00021782
4.31645e-05
0.000347026
3.17037e-05
0.000491944
0.000887438
6.81685e-05
7.74663e-07
6.81141e-05
2.09316e-06
6.80289e-05
3.22299e-06
6.79133e-05
4.40078e-06
6.77631e-05
5.70229e-06
6.75736e-05
7.21149e-06
6.73399e-05
8.92664e-06
6.70308e-05
1.11728e-05
6.66586e-05
1.41604e-05
6.6205e-05
1.74682e-05
6.56323e-05
2.16468e-05
6.49248e-05
2.6948e-05
6.40389e-05
3.38457e-05
6.29353e-05
4.29704e-05
6.14955e-05
5.62028e-05
5.96527e-05
7.63555e-05
5.70666e-05
0.000106761
5.37587e-05
0.000153263
4.90328e-05
0.000222546
4.36082e-05
0.000352451
3.23539e-05
0.000503198
0.000919792
6.81685e-05
7.94986e-07
6.8114e-05
2.14795e-06
6.80289e-05
3.30797e-06
6.79131e-05
4.51658e-06
6.77628e-05
5.85205e-06
6.75732e-05
7.40111e-06
6.73398e-05
9.15994e-06
6.70231e-05
1.14895e-05
6.66631e-05
1.45204e-05
6.62058e-05
1.79253e-05
6.56331e-05
2.22194e-05
6.49259e-05
2.76552e-05
6.4041e-05
3.47281e-05
6.29404e-05
4.40721e-05
6.15068e-05
5.76347e-05
5.96768e-05
7.81874e-05
5.71128e-05
0.000109326
5.38402e-05
0.000156537
4.91746e-05
0.000227212
4.4065e-05
0.000357561
3.30263e-05
0.000514237
0.000952818
6.81685e-05
8.15304e-07
6.81141e-05
2.20264e-06
6.8029e-05
3.39271e-06
6.79134e-05
4.63202e-06
6.77632e-05
6.00139e-06
6.75738e-05
7.5904e-06
6.73406e-05
9.39261e-06
6.7021e-05
1.1809e-05
6.66643e-05
1.48771e-05
6.62065e-05
1.83832e-05
6.56339e-05
2.2792e-05
6.49269e-05
2.83624e-05
6.40432e-05
3.56141e-05
6.29456e-05
4.51689e-05
6.15185e-05
5.90632e-05
5.97018e-05
8.00025e-05
5.7161e-05
0.000111866
5.39259e-05
0.000159771
4.93207e-05
0.000231816
4.45348e-05
0.000362346
3.37214e-05
0.000525051
0.000986539
6.81685e-05
8.35623e-07
6.8114e-05
2.25741e-06
6.80289e-05
3.47767e-06
6.79132e-05
4.74776e-06
6.7763e-05
6.15112e-06
6.75737e-05
7.77972e-06
6.73384e-05
9.62775e-06
6.702e-05
1.21274e-05
6.66646e-05
1.52325e-05
6.62072e-05
1.88405e-05
6.56348e-05
2.33644e-05
6.4928e-05
2.9069e-05
6.40454e-05
3.64939e-05
6.29509e-05
4.62647e-05
6.15305e-05
6.04817e-05
5.97276e-05
8.18074e-05
5.72112e-05
0.000114383
5.40161e-05
0.000162967
4.9471e-05
0.000236362
4.50163e-05
0.000366801
3.44385e-05
0.000535629
0.00102098
6.81685e-05
8.55935e-07
6.81141e-05
2.31206e-06
6.8029e-05
3.56244e-06
6.79135e-05
4.86312e-06
6.77631e-05
6.30074e-06
6.75751e-05
7.96759e-06
6.73259e-05
9.87646e-06
6.70232e-05
1.243e-05
6.66647e-05
1.55911e-05
6.62078e-05
1.92975e-05
6.56356e-05
2.39367e-05
6.49291e-05
2.97756e-05
6.40477e-05
3.73779e-05
6.29563e-05
4.73551e-05
6.15428e-05
6.18968e-05
5.97541e-05
8.35943e-05
5.72631e-05
0.000116873
5.41112e-05
0.000166118
4.96249e-05
0.000240848
4.55049e-05
0.000370921
3.51746e-05
0.000545959
0.00105615
6.81685e-05
8.76244e-07
6.81141e-05
2.36678e-06
6.80289e-05
3.64744e-06
6.79133e-05
4.97872e-06
6.77627e-05
6.45096e-06
6.75756e-05
8.15472e-06
6.73166e-05
1.01354e-05
6.70254e-05
1.27212e-05
6.66647e-05
1.59518e-05
6.62083e-05
1.97537e-05
6.56363e-05
2.45086e-05
6.49302e-05
3.04815e-05
6.40499e-05
3.82553e-05
6.29618e-05
4.84443e-05
6.15553e-05
6.33014e-05
5.97813e-05
8.53703e-05
5.73165e-05
0.000119339
5.42116e-05
0.000169224
4.97822e-05
0.000245278
4.59913e-05
0.000374712
3.5922e-05
0.000556028
0.00109207
6.81684e-05
8.96502e-07
6.81141e-05
2.42137e-06
6.8029e-05
3.73217e-06
6.79137e-05
5.09391e-06
6.7763e-05
6.6007e-06
6.75764e-05
8.34119e-06
6.73144e-05
1.03969e-05
6.70255e-05
1.30101e-05
6.66646e-05
1.63127e-05
6.62087e-05
2.02098e-05
6.5637e-05
2.50803e-05
6.49313e-05
3.11875e-05
6.40521e-05
3.9137e-05
6.29673e-05
4.95282e-05
6.15681e-05
6.47022e-05
5.9809e-05
8.71277e-05
5.7371e-05
0.000121776
5.43183e-05
0.000172276
4.99421e-05
0.000249654
4.64724e-05
0.000378181
3.67602e-05
0.00056574
0.00112883
3.66976e-08
-3.66928e-08
-2.36721e-06
2.40391e-06
-3.31329e-06
9.46083e-07
-3.21695e-06
-9.63109e-08
-2.55142e-06
-6.65357e-07
-1.88013e-06
-6.71331e-07
-1.53624e-06
-3.43906e-07
-1.47168e-06
-6.48383e-08
-1.52692e-06
5.35036e-08
-1.66141e-06
1.31864e-07
-1.88158e-06
1.95747e-07
-1.84695e-06
-1.40613e-08
-1.36115e-06
-4.83736e-07
-4.73969e-07
-8.80638e-07
5.60972e-07
-1.03047e-06
1.75643e-06
-1.1955e-06
3.45318e-06
-1.70141e-06
5.95741e-06
-2.50613e-06
9.14159e-06
-3.19178e-06
1.26444e-05
-3.49446e-06
1.61761e-05
-3.523e-06
1.95687e-05
-3.3987e-06
2.28198e-05
-3.25171e-06
2.5982e-05
-3.16159e-06
2.90615e-05
-3.07835e-06
3.20524e-05
-2.99026e-06
3.49372e-05
-2.88402e-06
3.77517e-05
-2.81642e-06
4.05931e-05
-2.84791e-06
4.3126e-05
-2.53031e-06
4.48341e-05
-1.7044e-06
5.19797e-05
-7.14825e-06
6.30704e-05
-1.10893e-05
6.76316e-05
-4.56109e-06
-2.02475e-07
7.86494e-08
-1.15335e-07
-2.32767e-06
4.81024e-06
-3.2622e-06
1.88062e-06
-3.17437e-06
-1.84096e-07
-2.50664e-06
-1.33277e-06
-1.84712e-06
-1.33093e-06
-1.49994e-06
-6.91146e-07
-1.43048e-06
-1.34867e-07
-1.47264e-06
9.23745e-08
-1.60775e-06
2.61795e-07
-1.84769e-06
3.95673e-07
-1.86066e-06
3.16734e-08
-1.43587e-06
-9.04412e-07
-5.4089e-07
-1.76237e-06
5.83147e-07
-2.14535e-06
1.85146e-06
-2.46382e-06
3.52561e-06
-3.38515e-06
5.93958e-06
-4.92408e-06
9.04443e-06
-6.31117e-06
1.25516e-05
-6.98541e-06
1.61322e-05
-7.0867e-06
1.95664e-05
-6.84468e-06
2.28306e-05
-6.51692e-06
2.5982e-05
-6.31191e-06
2.90451e-05
-6.13918e-06
3.20232e-05
-5.9671e-06
3.49022e-05
-5.76168e-06
3.7714e-05
-5.63183e-06
4.05559e-05
-5.70185e-06
4.31151e-05
-5.08469e-06
4.4803e-05
-3.38563e-06
5.16904e-05
-1.40405e-05
6.27713e-05
-2.21676e-05
6.76044e-05
-9.39397e-06
-4.42834e-07
1.24085e-07
-2.39411e-07
-2.28061e-06
7.21495e-06
-3.20324e-06
2.80326e-06
-3.10562e-06
-2.81667e-07
-2.43994e-06
-1.99815e-06
-1.78782e-06
-1.98312e-06
-1.44174e-06
-1.03725e-06
-1.36484e-06
-2.12244e-07
-1.40045e-06
1.25023e-07
-1.54621e-06
4.03002e-07
-1.81908e-06
6.27294e-07
-1.89007e-06
1.37744e-07
-1.51011e-06
-1.28031e-06
-5.71812e-07
-2.68761e-06
6.59289e-07
-3.3674e-06
1.98542e-06
-3.7901e-06
3.60862e-06
-5.01842e-06
5.91773e-06
-7.23722e-06
8.95755e-06
-9.36672e-06
1.24848e-05
-1.04962e-05
1.6129e-05
-1.07137e-05
1.96061e-05
-1.0334e-05
2.28794e-05
-9.7913e-06
2.60203e-05
-9.45179e-06
2.90661e-05
-9.18256e-06
3.20292e-05
-8.92894e-06
3.4899e-05
-8.63016e-06
3.77055e-05
-8.44182e-06
4.05436e-05
-8.5523e-06
4.31254e-05
-7.66158e-06
4.48004e-05
-5.05384e-06
5.14388e-05
-2.06838e-05
6.24949e-05
-3.32212e-05
6.75778e-05
-1.44767e-05
-7.19509e-07
1.75961e-07
-4.15365e-07
-2.22777e-06
9.61868e-06
-3.1316e-06
3.7071e-06
-3.01518e-06
-3.98042e-07
-2.34908e-06
-2.66395e-06
-1.70724e-06
-2.62504e-06
-1.36548e-06
-1.37909e-06
-1.28363e-06
-2.94653e-07
-1.31568e-06
1.5393e-07
-1.47456e-06
5.56758e-07
-1.78173e-06
8.98117e-07
-1.91066e-06
2.96433e-07
-1.56927e-06
-1.61686e-06
-5.78187e-07
-3.66294e-06
7.67458e-07
-4.70195e-06
2.15345e-06
-5.17614e-06
3.71913e-06
-6.59706e-06
5.91417e-06
-9.43771e-06
8.88849e-06
-1.23593e-05
1.24455e-05
-1.40335e-05
1.61624e-05
-1.44111e-05
1.96881e-05
-1.38736e-05
2.29723e-05
-1.30768e-05
2.61018e-05
-1.25801e-05
2.91282e-05
-1.22064e-05
3.20728e-05
-1.18722e-05
3.49293e-05
-1.14852e-05
3.77269e-05
-1.12434e-05
4.05585e-05
-1.13968e-05
4.3159e-05
-1.02568e-05
4.48257e-05
-6.71346e-06
5.12247e-05
-2.70882e-05
6.224e-05
-4.42338e-05
6.75516e-05
-1.97881e-05
-1.03137e-06
2.34307e-07
-6.49663e-07
-2.16896e-06
1.2022e-05
-3.04629e-06
4.58444e-06
-2.90301e-06
-5.41276e-07
-2.23504e-06
-3.33164e-06
-1.60682e-06
-3.25332e-06
-1.27267e-06
-1.71326e-06
-1.18768e-06
-3.8008e-07
-1.21832e-06
1.81853e-07
-1.39089e-06
7.25029e-07
-1.73225e-06
1.20512e-06
-1.91922e-06
5.12929e-07
-1.61111e-06
-1.92037e-06
-5.57899e-07
-4.70114e-06
9.12869e-07
-6.16231e-06
2.36669e-06
-6.63023e-06
3.87111e-06
-8.11531e-06
5.93894e-06
-1.15113e-05
8.84262e-06
-1.52842e-05
1.24384e-05
-1.76079e-05
1.62398e-05
-1.81919e-05
1.98218e-05
-1.74712e-05
2.31193e-05
-1.63754e-05
2.62353e-05
-1.56948e-05
2.92385e-05
-1.52068e-05
3.21598e-05
-1.4792e-05
3.49975e-05
-1.43213e-05
3.7782e-05
-1.4032e-05
4.06034e-05
-1.42316e-05
4.32184e-05
-1.28661e-05
4.48804e-05
-8.3683e-06
5.10476e-05
-3.32608e-05
6.20052e-05
-5.51888e-05
6.75257e-05
-2.53083e-05
-1.37729e-06
2.99104e-07
-9.48761e-07
-2.10386e-06
1.44249e-05
-2.94593e-06
5.42652e-06
-2.76844e-06
-7.18709e-07
-2.09793e-06
-4.00187e-06
-1.48706e-06
-3.86428e-06
-1.16368e-06
-2.03673e-06
-1.07671e-06
-4.67637e-07
-1.10735e-06
2.09412e-07
-1.29303e-06
9.05464e-07
-1.66723e-06
1.54836e-06
-1.91167e-06
7.82257e-07
-1.63258e-06
-2.19377e-06
-5.1048e-07
-5.80466e-06
1.09583e-06
-7.75566e-06
2.63131e-06
-8.16587e-06
4.07839e-06
-9.58045e-06
6.00723e-06
-1.34482e-05
8.83197e-06
-1.81348e-05
1.24746e-05
-2.12238e-05
1.6374e-05
-2.20664e-05
2.00234e-05
-2.11392e-05
2.33371e-05
-1.96908e-05
2.64354e-05
-1.87916e-05
2.94087e-05
-1.81769e-05
3.22992e-05
-1.76808e-05
3.51107e-05
-1.71311e-05
3.78763e-05
-1.68024e-05
4.06831e-05
-1.70532e-05
4.33072e-05
-1.54839e-05
4.49677e-05
-1.00211e-05
5.09078e-05
-3.9207e-05
6.17895e-05
-6.60678e-05
6.75001e-05
-3.10187e-05
-1.75609e-06
3.70223e-07
-1.31897e-06
-2.03193e-06
1.68271e-05
-2.82853e-06
6.22313e-06
-2.60968e-06
-9.3751e-07
-1.93686e-06
-4.67442e-06
-1.34727e-06
-4.45394e-06
-1.03768e-06
-2.34633e-06
-9.4936e-07
-5.56405e-07
-9.80672e-07
2.38102e-07
-1.17812e-06
1.09849e-06
-1.58284e-06
1.92539e-06
-1.88364e-06
1.10656e-06
-1.63116e-06
-2.44104e-06
-4.36755e-07
-6.98155e-06
1.31437e-06
-9.49504e-06
2.95038e-06
-9.80231e-06
4.35425e-06
-1.10025e-05
6.13891e-06
-1.52413e-05
8.87569e-06
-2.09018e-05
1.25715e-05
-2.48897e-05
1.65854e-05
-2.60532e-05
2.0318e-05
-2.48937e-05
2.36534e-05
-2.30279e-05
2.6727e-05
-2.18634e-05
2.96581e-05
-2.11043e-05
3.25052e-05
-2.0526e-05
3.52795e-05
-1.99035e-05
3.80182e-05
-1.95463e-05
4.08044e-05
-1.98553e-05
4.34308e-05
-1.81034e-05
4.50921e-05
-1.16742e-05
5.08072e-05
-4.49286e-05
6.15923e-05
-7.68501e-05
6.74749e-05
-3.69011e-05
-2.16649e-06
4.47373e-07
-1.76634e-06
-1.9524e-06
1.92269e-05
-2.69161e-06
6.96234e-06
-2.42422e-06
-1.20483e-06
-1.75034e-06
-5.34803e-06
-1.186e-06
-5.01837e-06
-8.93023e-07
-2.63942e-06
-8.03473e-07
-6.466e-07
-8.35288e-07
2.6672e-07
-1.04235e-06
1.29981e-06
-1.47448e-06
2.33124e-06
-1.83038e-06
1.48257e-06
-1.60396e-06
-2.66073e-06
-3.35821e-07
-8.22711e-06
1.56962e-06
-1.13851e-05
3.32933e-06
-1.15624e-05
4.71377e-06
-1.24112e-05
6.35828e-06
-1.68976e-05
9.0002e-06
-2.35806e-05
1.27551e-05
-2.86068e-05
1.69039e-05
-3.0168e-05
2.07433e-05
-2.87599e-05
2.41109e-05