/*--------------------------------*- C++ -*----------------------------------*\
| =========                 |                                                 |
| \\      /  F ield         | OpenFOAM: The Open Source CFD Toolbox           |
|  \\    /   O peration     | Version:  v1912                                 |
|   \\  /    A nd           | Website:  www.openfoam.com                      |
|    \\/     M anipulation  |                                                 |
\*---------------------------------------------------------------------------*/
FoamFile
{
    version     2.0;
    format      ascii;
    class       volVectorField;
    location    "490";
    object      U;
}
// * * * * * * * * * * * * * * * * * * * * * * * * * * * * * * * * * * * * * //

dimensions      [0 1 -1 0 0 0 0];


internalField   nonuniform List<vector> 
12441
(
(29.9988 1.71283e-05 0)
(29.9853 5.20254e-05 0)
(29.9559 9.03494e-05 0)
(29.9112 0.000138777 0)
(29.8528 0.000202232 0)
(29.7783 0.00028723 0)
(29.6859 0.000398663 0)
(29.5709 0.000561818 0)
(29.4273 0.000782309 0)
(29.2504 0.00110023 0)
(29.0252 0.00151686 0)
(28.7532 0.00213499 0)
(28.4276 0.00299906 0)
(27.9525 0.00444273 0)
(27.4182 0.006087 0)
(26.6354 0.0113228 0)
(25.5916 0.0151442 0)
(23.9217 0.0315654 0)
(21.5673 0.0529435 0)
(17.8743 0.0913356 0)
(12.0919 0.122068 0)
(5.79963 0.196241 0)
(29.9988 5.08935e-05 0)
(29.9853 0.000155453 0)
(29.9559 0.000269376 0)
(29.9112 0.000413961 0)
(29.8528 0.000603633 0)
(29.7783 0.000857213 0)
(29.6859 0.00119233 0)
(29.571 0.00167896 0)
(29.4273 0.0023391 0)
(29.2507 0.00329328 0)
(29.0255 0.00453863 0)
(28.7534 0.00637852 0)
(28.4276 0.00903666 0)
(27.9549 0.0132102 0)
(27.4222 0.0183832 0)
(26.6367 0.0337573 0)
(25.5938 0.0480538 0)
(23.9222 0.0905738 0)
(21.5684 0.13829 0)
(17.8732 0.264272 0)
(12.0928 0.358664 0)
(5.80335 0.586107 0)
(29.9988 8.45231e-05 0)
(29.9853 0.000258801 0)
(29.9559 0.000447674 0)
(29.9112 0.000687985 0)
(29.8528 0.00100352 0)
(29.7783 0.00142649 0)
(29.6859 0.00198415 0)
(29.5709 0.00279402 0)
(29.4273 0.00389438 0)
(29.2508 0.00548284 0)
(29.0252 0.00755118 0)
(28.7535 0.0106299 0)
(28.4284 0.0151112 0)
(27.9487 0.0218852 0)
(27.4197 0.0307486 0)
(26.6374 0.0552861 0)
(25.5959 0.0816999 0)
(23.9269 0.147747 0)
(21.5722 0.221128 0)
(17.8733 0.434912 0)
(12.0992 0.591774 0)
(5.81167 0.974037 0)
(29.9988 0.000118579 0)
(29.9853 0.000362904 0)
(29.9559 0.000626869 0)
(29.9112 0.000963319 0)
(29.8529 0.00140515 0)
(29.7783 0.00199768 0)
(29.686 0.0027787 0)
(29.571 0.00391231 0)
(29.4274 0.0054532 0)
(29.2508 0.00767869 0)
(29.0255 0.0105719 0)
(28.7534 0.0148896 0)
(28.428 0.0211874 0)
(27.9562 0.0306048 0)
(27.4225 0.0431431 0)
(26.6374 0.0768788 0)
(25.5975 0.114601 0)
(23.9317 0.207904 0)
(21.5812 0.328684 0)
(17.8781 0.613582 0)
(12.1118 0.828852 0)
(5.82472 1.36363 0)
(29.9988 0.000152698 0)
(29.9853 0.000466888 0)
(29.9559 0.000805872 0)
(29.9112 0.00123842 0)
(29.8528 0.00180642 0)
(29.7783 0.00256832 0)
(29.6859 0.00357258 0)
(29.571 0.00502979 0)
(29.4274 0.0070112 0)
(29.2508 0.00987337 0)
(29.0253 0.0135904 0)
(28.7538 0.0191459 0)
(28.429 0.0272548 0)
(27.9494 0.0393141 0)
(27.4207 0.055528 0)
(26.6389 0.098239 0)
(25.6003 0.147002 0)
(23.9363 0.26881 0)
(21.5922 0.41907 0)
(17.8885 0.788441 0)
(12.1321 1.06572 0)
(5.8428 1.7545 0)
(29.9988 0.000186815 0)
(29.9853 0.000570797 0)
(29.9559 0.000984847 0)
(29.9112 0.00151352 0)
(29.8529 0.00220768 0)
(29.7784 0.00313897 0)
(29.686 0.00436655 0)
(29.5711 0.00614747 0)
(29.4275 0.00856944 0)
(29.2509 0.0120678 0)
(29.0258 0.0166115 0)
(28.7534 0.0234026 0)
(28.428 0.0333193 0)
(27.9582 0.0480376 0)
(27.4239 0.0679481 0)
(26.639 0.119504 0)
(25.6025 0.179146 0)
(23.9406 0.329193 0)
(21.6048 0.507904 0)
(17.9056 0.961979 0)
(12.1618 1.30229 0)
(5.86629 2.14649 0)
(29.9988 0.000220929 0)
(29.9853 0.00067467 0)
(29.9559 0.00116382 0)
(29.9112 0.00178865 0)
(29.8529 0.00260891 0)
(29.7783 0.00370961 0)
(29.686 0.00516052 0)
(29.571 0.00726511 0)
(29.4275 0.0101277 0)
(29.2509 0.0142626 0)
(29.0256 0.0196309 0)
(28.7543 0.027659 0)
(28.4293 0.0393825 0)
(27.9498 0.0567206 0)
(27.4226 0.0803221 0)
(26.6412 0.140617 0)
(25.606 0.210559 0)
(23.9447 0.387029 0)
(21.6219 0.598872 0)
(17.9327 1.13561 0)
(12.2034 1.53895 0)
(5.89571 2.53989 0)
(29.9988 0.000255042 0)
(29.9853 0.000778508 0)
(29.9559 0.00134278 0)
(29.9112 0.00206375 0)
(29.8529 0.00301006 0)
(29.7784 0.00428017 0)
(29.6861 0.00595443 0)
(29.5712 0.00838274 0)
(29.4276 0.011686 0)
(29.251 0.0164564 0)
(29.0261 0.0226528 0)
(28.7534 0.031914 0)
(28.4275 0.0454458 0)
(27.9602 0.0654149 0)
(27.4264 0.0925691 0)
(26.6413 0.161362 0)
(25.6106 0.243564 0)
(23.9506 0.446795 0)
(21.6531 0.69089 0)
(17.9771 1.30872 0)
(12.2602 1.77593 0)
(5.93167 2.93518 0)
(29.9988 0.000289155 0)
(29.9853 0.000882312 0)
(29.9559 0.00152172 0)
(29.9112 0.00233885 0)
(29.8529 0.00341119 0)
(29.7784 0.0048507 0)
(29.686 0.00674833 0)
(29.5711 0.00950032 0)
(29.4276 0.0132443 0)
(29.251 0.0186506 0)
(29.0259 0.0256723 0)
(28.755 0.0361731 0)
(28.4301 0.0514983 0)
(27.951 0.0741755 0)
(27.4238 0.104911 0)
(26.6396 0.18238 0)
(25.6178 0.27499 0)
(23.9623 0.505938 0)
(21.711 0.782586 0)
(18.0473 1.48103 0)
(12.336 2.01353 0)
(5.97482 3.33289 0)
(29.9988 0.000323267 0)
(29.9853 0.00098608 0)
(29.9559 0.00170065 0)
(29.9113 0.00261393 0)
(29.8529 0.00381225 0)
(29.7784 0.00542116 0)
(29.6862 0.00754218 0)
(29.5713 0.0106178 0)
(29.4277 0.0148026 0)
(29.2511 0.0208438 0)
(29.0265 0.0286931 0)
(28.7534 0.04043 0)
(28.4255 0.0575605 0)
(27.9613 0.0827878 0)
(27.4261 0.117967 0)
(26.6374 0.203704 0)
(25.6317 0.306967 0)
(23.9911 0.563143 0)
(21.7983 0.87403 0)
(18.1462 1.65287 0)
(12.4333 2.25219 0)
(6.02586 3.73361 0)
(29.9988 0.000357377 0)
(29.9853 0.00108982 0)
(29.9559 0.00187958 0)
(29.9112 0.00288901 0)
(29.8529 0.00421327 0)
(29.7784 0.00599159 0)
(29.6861 0.00833598 0)
(29.5712 0.0117353 0)
(29.4277 0.0163609 0)
(29.2511 0.0230361 0)
(29.0265 0.031715 0)
(28.7551 0.044691 0)
(28.4305 0.0636223 0)
(27.9628 0.0913803 0)
(27.4242 0.130439 0)
(26.6354 0.223963 0)
(25.6504 0.339805 0)
(24.0372 0.619507 0)
(21.8983 0.965305 0)
(18.2668 1.82425 0)
(12.5526 2.49227 0)
(6.08546 4.138 0)
(29.9988 0.000391485 0)
(29.9853 0.00119352 0)
(29.9559 0.0020585 0)
(29.9113 0.00316407 0)
(29.853 0.00461423 0)
(29.7785 0.00656194 0)
(29.6862 0.00912974 0)
(29.5713 0.0128527 0)
(29.4279 0.0179195 0)
(29.2511 0.0252261 0)
(29.0273 0.034741 0)
(28.7531 0.0489432 0)
(28.4241 0.0695635 0)
(27.9728 0.100264 0)
(27.4215 0.144042 0)
(26.6364 0.244416 0)
(25.6687 0.372206 0)
(24.0864 0.674009 0)
(21.991 1.05556 0)
(18.3969 1.9946 0)
(12.6921 2.73394 0)
(6.15416 4.5467 0)
(29.9988 0.00042559 0)
(29.9853 0.00129719 0)
(29.9559 0.00223743 0)
(29.9113 0.00343913 0)
(29.8529 0.00501516 0)
(29.7785 0.00713226 0)
(29.6862 0.00992344 0)
(29.5713 0.0139701 0)
(29.4278 0.0194785 0)
(29.2511 0.0274131 0)
(29.0279 0.0377729 0)
(28.7529 0.0532913 0)
(28.4253 0.0753741 0)
(27.9729 0.109336 0)
(27.4174 0.157846 0)
(26.639 0.264308 0)
(25.6827 0.403937 0)
(24.1272 0.726489 0)
(22.0676 1.14439 0)
(18.5253 2.16328 0)
(12.8481 2.97704 0)
(6.23224 4.96034 0)
(29.9988 0.000459692 0)
(29.9853 0.00140082 0)
(29.9559 0.00241636 0)
(29.9113 0.00371417 0)
(29.853 0.00541603 0)
(29.7785 0.0077025 0)
(29.6863 0.0107171 0)
(29.5715 0.0150873 0)
(29.428 0.0210378 0)
(29.2511 0.0295981 0)
(29.0287 0.0408284 0)
(28.7512 0.0576791 0)
(28.4182 0.0815794 0)
(27.9701 0.118457 0)
(27.4149 0.171146 0)
(26.6418 0.283516 0)
(25.6922 0.435066 0)
(24.1573 0.777387 0)
(22.1285 1.23179 0)
(18.6452 2.32982 0)
(13.016 3.22127 0)
(6.31972 5.37943 0)
(29.9988 0.000493789 0)
(29.9853 0.00150442 0)
(29.9559 0.00259529 0)
(29.9113 0.0039892 0)
(29.853 0.00581686 0)
(29.7785 0.0082727 0)
(29.6862 0.0115106 0)
(29.5714 0.0162043 0)
(29.428 0.022598 0)
(29.2511 0.0317767 0)
(29.0293 0.0439134 0)
(28.7521 0.0619854 0)
(28.4154 0.08776 0)
(27.9666 0.127331 0)
(27.4136 0.184223 0)
(26.6441 0.302507 0)
(25.6981 0.465898 0)
(24.1786 0.827237 0)
(22.177 1.31789 0)
(18.754 2.49394 0)
(13.1918 3.4662 0)
(6.41634 5.80442 0)
(29.9988 0.000527882 0)
(29.9853 0.00160799 0)
(29.956 0.00277423 0)
(29.9113 0.00426422 0)
(29.853 0.00621764 0)
(29.7786 0.00884284 0)
(29.6864 0.0123041 0)
(29.5716 0.0173213 0)
(29.4282 0.0241574 0)
(29.2512 0.0339565 0)
(29.0302 0.0470018 0)
(28.7538 0.0664253 0)
(28.411 0.0939897 0)
(27.9644 0.13603 0)
(27.413 0.197193 0)
(26.6459 0.321431 0)
(25.7017 0.49657 0)
(24.1936 0.876378 0)
(22.2167 1.40277 0)
(18.8516 2.65546 0)
(13.372 3.7114 0)
(6.52167 6.23563 0)
(29.9988 0.000561969 0)
(29.9853 0.00171153 0)
(29.9559 0.00295319 0)
(29.9113 0.00453924 0)
(29.853 0.00661839 0)
(29.7786 0.00941294 0)
(29.6863 0.0130975 0)
(29.5715 0.018438 0)
(29.4282 0.0257179 0)
(29.2511 0.0361268 0)
(29.0314 0.0501514 0)
(28.754 0.0709146 0)
(28.4078 0.100123 0)
(27.9629 0.144706 0)
(27.4127 0.210145 0)
(26.6473 0.340351 0)
(25.7036 0.527145 0)
(24.2045 0.925012 0)
(22.2504 1.48654 0)
(18.939 2.81426 0)
(13.5544 3.95644 0)
(6.63517 6.67336 0)
(29.9988 0.00059605 0)
(29.9853 0.00181502 0)
(29.956 0.00313216 0)
(29.9113 0.00481423 0)
(29.8531 0.00701909 0)
(29.7786 0.00998295 0)
(29.6864 0.0138909 0)
(29.5717 0.0195543 0)
(29.4285 0.0272792 0)
(29.2511 0.038286 0)
(29.0328 0.0533239 0)
(28.7523 0.0754526 0)
(28.4053 0.106225 0)
(27.9621 0.153357 0)
(27.4126 0.223104 0)
(26.6484 0.359266 0)
(25.7045 0.557643 0)
(24.2125 0.973239 0)
(22.2802 1.56925 0)
(19.0179 2.97028 0)
(13.7373 4.20096 0)
(6.75629 7.1178 0)
(29.9988 0.000630125 0)
(29.9853 0.00191849 0)
(29.956 0.00331114 0)
(29.9113 0.00508922 0)
(29.853 0.00741976 0)
(29.7786 0.0105529 0)
(29.6863 0.0146841 0)
(29.5716 0.0206703 0)
(29.4285 0.0288405 0)
(29.2511 0.0404508 0)
(29.0336 0.0564901 0)
(28.75 0.079836 0)
(28.4038 0.112309 0)
(27.9616 0.162019 0)
(27.4126 0.236064 0)
(26.6494 0.378188 0)
(25.7048 0.588085 0)
(24.2188 1.02112 0)
(22.3077 1.65098 0)
(19.09 3.12346 0)
(13.92 4.44464 0)
(6.8845 7.56915 0)
(29.9988 0.000664193 0)
(29.9853 0.00202192 0)
(29.956 0.00349013 0)
(29.9113 0.00536419 0)
(29.8531 0.00782038 0)
(29.7787 0.0111228 0)
(29.6865 0.0154774 0)
(29.5718 0.021786 0)
(29.4287 0.0304033 0)
(29.2513 0.0426238 0)
(29.0337 0.059713 0)
(28.7481 0.0841137 0)
(28.4028 0.118405 0)
(27.9614 0.170683 0)
(27.4126 0.249025 0)
(26.6503 0.397113 0)
(25.7048 0.61848 0)
(24.2243 1.06869 0)
(22.3342 1.73176 0)
(19.157 3.27378 0)
(14.1024 4.6872 0)
(7.01935 8.02756 0)
(29.9988 0.000698255 0)
(29.9853 0.00212532 0)
(29.956 0.00366914 0)
(29.9113 0.00563915 0)
(29.853 0.00822096 0)
(29.7787 0.0116926 0)
(29.6864 0.0162706 0)
(29.5717 0.0229012 0)
(29.4287 0.0319657 0)
(29.2515 0.0448144 0)
(29.0322 0.0629516 0)
(28.7467 0.0883702 0)
(28.4023 0.124499 0)
(27.9613 0.179356 0)
(27.4128 0.26198 0)
(26.6512 0.416047 0)
(25.7049 0.648841 0)
(24.2295 1.11596 0)
(22.3604 1.81163 0)
(19.2202 3.42124 0)
(14.2848 4.92839 0)
(7.16048 8.49318 0)
(29.9988 0.00073231 0)
(29.9853 0.00222868 0)
(29.956 0.00384816 0)
(29.9114 0.00591409 0)
(29.8531 0.00862149 0)
(29.7788 0.0122624 0)
(29.6866 0.0170636 0)
(29.572 0.0240169 0)
(29.4288 0.0335237 0)
(29.2522 0.0470685 0)
(29.0297 0.0661722 0)
(28.7458 0.0926313 0)
(28.4019 0.130607 0)
(27.9614 0.188028 0)
(27.413 0.274931 0)
(26.6522 0.434988 0)
(25.7053 0.679177 0)
(24.235 1.16289 0)
(22.387 1.8906 0)
(19.2811 3.56585 0)
(14.4678 5.16802 0)
(7.30761 8.96617 0)
(29.9988 0.000766357 0)
(29.9853 0.00233201 0)
(29.956 0.0040272 0)
(29.9113 0.00618902 0)
(29.853 0.00902197 0)
(29.7787 0.0128321 0)
(29.6865 0.0178565 0)
(29.5719 0.0251325 0)
(29.4287 0.035079 0)
(29.2527 0.0493707 0)
(29.0273 0.0693699 0)
(28.7452 0.0969128 0)
(28.4017 0.136714 0)
(27.9615 0.196701 0)
(27.4133 0.287874 0)
(26.6535 0.453936 0)
(25.7062 0.709489 0)
(24.2411 1.20945 0)
(22.4143 1.96871 0)
(19.3407 3.7076 0)
(14.6523 5.40591 0)
(7.46059 9.4467 0)
(29.9988 0.000800397 0)
(29.9853 0.0024353 0)
(29.956 0.00420626 0)
(29.9114 0.00646392 0)
(29.8531 0.0094224 0)
(29.7788 0.0134018 0)
(29.6867 0.0186493 0)
(29.5721 0.0262485 0)
(29.4289 0.0366303 0)
(29.2532 0.0517065 0)
(29.0256 0.0724651 0)
(28.7449 0.101209 0)
(28.4016 0.142828 0)
(27.9617 0.20537 0)
(27.4138 0.300811 0)
(26.655 0.472885 0)
(25.708 0.739765 0)
(24.2479 1.25561 0)
(22.4425 2.04597 0)
(19.3998 3.84647 0)
(14.8393 5.64193 0)
(7.61934 9.93494 0)
(29.9988 0.000834429 0)
(29.9853 0.00253856 0)
(29.956 0.00438533 0)
(29.9113 0.00673882 0)
(29.8531 0.00982277 0)
(29.7788 0.0139714 0)
(29.6865 0.0194417 0)
(29.572 0.0273646 0)
(29.4289 0.0381778 0)
(29.2532 0.054025 0)
(29.0245 0.0754879 0)
(28.7447 0.105512 0)
(28.4017 0.148939 0)
(27.962 0.214037 0)
(27.4144 0.313739 0)
(26.6568 0.491827 0)
(25.7107 0.769981 0)
(24.2556 1.30136 0)
(22.4717 2.1224 0)
(19.4592 3.98244 0)
(15.03 5.87595 0)
(7.7839 10.4311 0)
(29.9988 0.000868453 0)
(29.9854 0.00264178 0)
(29.956 0.00456441 0)
(29.9114 0.00701369 0)
(29.8532 0.0102231 0)
(29.7789 0.0145409 0)
(29.6868 0.0202344 0)
(29.5722 0.0284792 0)
(29.4293 0.0397405 0)
(29.253 0.0563244 0)
(29.0239 0.0784816 0)
(28.7447 0.10982 0)
(28.4017 0.15505 0)
(27.9624 0.222699 0)
(27.4153 0.326655 0)
(26.6591 0.510749 0)
(25.7145 0.800112 0)
(24.2644 1.34672 0)
(22.5018 2.19801 0)
(19.5195 4.11545 0)
(15.2256 6.10786 0)
(7.95439 10.9354 0)
(29.9988 0.000902469 0)
(29.9854 0.00274497 0)
(29.956 0.00474351 0)
(29.9114 0.00728854 0)
(29.8531 0.0106234 0)
(29.7788 0.0151103 0)
(29.6866 0.0210271 0)
(29.5721 0.0295945 0)
(29.4295 0.0413125 0)
(29.2521 0.0587225 0)
(29.0235 0.0814823 0)
(28.7447 0.114129 0)
(28.4019 0.161158 0)
(27.9629 0.231356 0)
(27.4163 0.339554 0)
(26.6618 0.529636 0)
(25.7194 0.830141 0)
(24.2742 1.39168 0)
(22.5328 2.27281 0)
(19.5812 4.24542 0)
(15.4275 6.33757 0)
(8.131 11.4481 0)
(29.9988 0.000936478 0)
(29.9854 0.00284813 0)
(29.956 0.00492262 0)
(29.9114 0.00756336 0)
(29.8532 0.0110237 0)
(29.779 0.0156795 0)
(29.6869 0.0218196 0)
(29.5723 0.0307087 0)
(29.4301 0.0428951 0)
(29.2508 0.0610897 0)
(29.0233 0.0845074 0)
(28.7448 0.118438 0)
(28.4021 0.167264 0)
(27.9635 0.240006 0)
(27.4176 0.35243 0)
(26.6651 0.548474 0)
(25.7253 0.860063 0)
(24.2851 1.43628 0)
(22.5646 2.34678 0)
(19.6443 4.37222 0)
(15.6367 6.565 0)
(8.314 11.9696 0)
(29.9988 0.000970478 0)
(29.9854 0.00295125 0)
(29.956 0.00510174 0)
(29.9114 0.00783815 0)
(29.8531 0.0114239 0)
(29.7789 0.0162486 0)
(29.6868 0.0226128 0)
(29.5721 0.0318179 0)
(29.4305 0.0445338 0)
(29.2494 0.0633165 0)
(29.0233 0.087558 0)
(28.7449 0.122747 0)
(28.4024 0.173366 0)
(27.9641 0.248647 0)
(27.4191 0.365277 0)
(26.6687 0.567251 0)
(25.7321 0.889876 0)
(24.2973 1.4805 0)
(22.5972 2.41992 0)
(19.709 4.49573 0)
(15.8544 6.79005 0)
(8.50371 12.5 0)
(29.9988 0.00100447 0)
(29.9854 0.00305433 0)
(29.956 0.00528088 0)
(29.9114 0.00811291 0)
(29.8533 0.0118241 0)
(29.779 0.0168174 0)
(29.687 0.0234061 0)
(29.5723 0.0329258 0)
(29.4311 0.0461977 0)
(29.2484 0.065521 0)
(29.0233 0.0906268 0)
(28.7451 0.127054 0)
(28.4026 0.179465 0)
(27.9649 0.257276 0)
(27.4208 0.378091 0)
(26.6728 0.585962 0)
(25.7399 0.919577 0)
(24.3107 1.52435 0)
(22.6305 2.49222 0)
(19.7753 4.61578 0)
(16.0812 7.01263 0)
(8.70046 13.0398 0)
(29.9988 0.00103845 0)
(29.9854 0.00315738 0)
(29.956 0.00546002 0)
(29.9114 0.00838764 0)
(29.8532 0.0122242 0)
(29.779 0.0173862 0)
(29.6869 0.0241993 0)
(29.5721 0.0340331 0)
(29.4312 0.0478725 0)
(29.2477 0.0677162 0)
(29.0234 0.0937053 0)
(28.7453 0.131361 0)
(28.403 0.18556 0)
(27.9657 0.265891 0)
(27.4227 0.390867 0)
(26.6773 0.604598 0)
(25.7484 0.949157 0)
(24.3254 1.56784 0)
(22.6647 2.56369 0)
(19.843 4.73222 0)
(16.3177 7.23263 0)
(8.90461 13.5894 0)
(29.9988 0.00107243 0)
(29.9854 0.0032604 0)
(29.956 0.00563917 0)
(29.9115 0.00866234 0)
(29.8533 0.0126243 0)
(29.7791 0.0179547 0)
(29.6872 0.0249927 0)
(29.5724 0.0351393 0)
(29.4316 0.0495581 0)
(29.2473 0.0698917 0)
(29.0235 0.0967888 0)
(28.7456 0.135666 0)
(28.4034 0.191649 0)
(27.9666 0.274492 0)
(27.4249 0.403604 0)
(26.6822 0.623157 0)
(25.7578 0.978604 0)
(24.3414 1.61096 0)
(22.6997 2.63432 0)
(19.9119 4.84486 0)
(16.564 7.44996 0)
(9.1165 14.1491 0)
(29.9988 0.0011064 0)
(29.9854 0.00336338 0)
(29.956 0.00581833 0)
(29.9114 0.00893701 0)
(29.8532 0.0130243 0)
(29.779 0.0185232 0)
(29.687 0.0257858 0)
(29.5723 0.0362452 0)
(29.4315 0.05125 0)
(29.2472 0.0720526 0)
(29.0237 0.099875 0)
(28.7458 0.139969 0)
(28.4038 0.197733 0)
(27.9676 0.283076 0)
(27.4272 0.416299 0)
(26.6873 0.64163 0)
(25.7679 1.0079 0)
(24.3588 1.65371 0)
(22.7356 2.70412 0)
(19.9819 4.95354 0)
(16.82 7.66447 0)
(9.33647 14.7193 0)
(29.9988 0.00114036 0)
(29.9854 0.00346633 0)
(29.956 0.0059975 0)
(29.9115 0.00921165 0)
(29.8533 0.0134243 0)
(29.7792 0.0190917 0)
(29.6873 0.0265784 0)
(29.5727 0.0373514 0)
(29.4316 0.0529462 0)
(29.2473 0.0742018 0)
(29.024 0.102963 0)
(28.7461 0.144272 0)
(28.4042 0.203812 0)
(27.9686 0.291642 0)
(27.4296 0.42895 0)
(26.6928 0.660012 0)
(25.7788 1.03705 0)
(24.3777 1.69609 0)
(22.7726 2.77308 0)
(20.053 5.05811 0)
(17.0854 7.87605 0)
(9.56479 15.3005 0)
(29.9988 0.00117432 0)
(29.9854 0.00356925 0)
(29.956 0.00617667 0)
(29.9114 0.00948627 0)
(29.8532 0.0138241 0)
(29.7791 0.0196602 0)
(29.6871 0.0273705 0)
(29.5727 0.0384531 0)
(29.4312 0.054644 0)
(29.2475 0.0763423 0)
(29.0242 0.106053 0)
(28.7465 0.148573 0)
(28.4047 0.209884 0)
(27.9697 0.300189 0)
(27.4322 0.441556 0)
(26.6986 0.678298 0)
(25.7904 1.06601 0)
(24.398 1.7381 0)
(22.8108 2.84122 0)
(20.1253 5.1584 0)
(17.3601 8.08455 0)
(9.80172 15.8929 0)
(29.9988 0.00120826 0)
(29.9854 0.00367214 0)
(29.9561 0.00635584 0)
(29.9115 0.00976081 0)
(29.8534 0.0142241 0)
(29.7793 0.0202278 0)
(29.6874 0.0281661 0)
(29.5731 0.0395504 0)
(29.431 0.0562587 0)
(29.2478 0.0784757 0)
(29.0245 0.109143 0)
(28.7468 0.152873 0)
(28.4052 0.21595 0)
(27.9709 0.308717 0)
(27.435 0.454114 0)
(26.7046 0.69648 0)
(25.8026 1.09479 0)
(24.4197 1.77973 0)
(22.8503 2.90854 0)
(20.1989 5.25428 0)
(17.6438 8.28982 0)
(10.0475 16.4971 0)
(29.9988 0.0012422 0)
(29.9854 0.003775 0)
(29.956 0.006535 0)
(29.9115 0.0100354 0)
(29.8533 0.0146235 0)
(29.7792 0.0207972 0)
(29.6871 0.0289511 0)
(29.5732 0.0407104 0)
(29.4301 0.0576235 0)
(29.2481 0.0806121 0)
(29.0248 0.112235 0)
(28.7472 0.157171 0)
(28.4057 0.222009 0)
(27.9721 0.317224 0)
(27.4378 0.466623 0)
(26.7108 0.714552 0)
(25.8156 1.12336 0)
(24.4428 1.82097 0)
(22.8914 2.97504 0)
(20.274 5.34561 0)
(17.9366 8.49171 0)
(10.3024 17.1135 0)
(29.9988 0.00127614 0)
(29.9854 0.00387782 0)
(29.9561 0.00671416 0)
(29.9115 0.0103099 0)
(29.8534 0.0150232 0)
(29.7794 0.0213648 0)
(29.6873 0.0297459 0)
(29.574 0.0418246 0)
(29.4283 0.0595667 0)
(29.2485 0.0827788 0)
(29.0251 0.115327 0)
(28.7475 0.161468 0)
(28.4062 0.228062 0)
(27.9733 0.325709 0)
(27.4408 0.479081 0)
(26.7173 0.732508 0)
(25.8291 1.15172 0)
(24.4673 1.8618 0)
(22.9343 3.04071 0)
(20.3508 5.43225 0)
(18.2387 8.69008 0)
(10.5665 17.7424 0)
(29.9988 0.00131006 0)
(29.9854 0.00398062 0)
(29.956 0.00689332 0)
(29.9115 0.0105843 0)
(29.8533 0.0154229 0)
(29.7794 0.0219327 0)
(29.6871 0.0305326 0)
(29.5742 0.043 0)
(29.427 0.0613866 0)
(29.2488 0.0849708 0)
(29.0255 0.118419 0)
(28.7479 0.165763 0)
(28.4068 0.234106 0)
(27.9746 0.334173 0)
(27.4438 0.491485 0)
(26.724 0.750342 0)
(25.8432 1.17984 0)
(24.4931 1.90221 0)
(22.9791 3.10555 0)
(20.4294 5.51408 0)
(18.5504 8.88475 0)
(10.8402 18.3842 0)
(29.9988 0.00134398 0)
(29.9854 0.00408338 0)
(29.9561 0.00707242 0)
(29.9116 0.010859 0)
(29.8535 0.0158212 0)
(29.7795 0.0225064 0)
(29.6874 0.0312965 0)
(29.5745 0.0441981 0)
(29.4264 0.0629036 0)
(29.2491 0.0871696 0)
(29.0258 0.121511 0)
(28.7483 0.170057 0)
(28.4073 0.240144 0)
(27.9759 0.342613 0)
(27.447 0.503834 0)
(26.7309 0.768049 0)
(25.8579 1.20771 0)
(24.5202 1.94218 0)
(23.0264 3.16956 0)
(20.5095 5.59096 0)
(18.8718 9.07558 0)
(11.1236 19.0395 0)
(29.9988 0.0013779 0)
(29.9854 0.00418611 0)
(29.9561 0.00725155 0)
(29.9115 0.0111332 0)
(29.8534 0.0162212 0)
(29.7794 0.0230694 0)
(29.6874 0.0321298 0)
(29.5735 0.0450635 0)
(29.426 0.0643606 0)
(29.2493 0.0893656 0)
(29.0261 0.124602 0)
(28.7487 0.174349 0)
(28.4079 0.246172 0)
(27.9773 0.351031 0)
(27.4502 0.516126 0)
(26.738 0.785626 0)
(25.873 1.23533 0)
(24.5485 1.98167 0)
(23.0764 3.23273 0)
(20.5907 5.66275 0)
(19.2023 9.26244 0)
(11.4171 19.7086 0)
(29.9988 0.00141181 0)
(29.9854 0.00428887 0)
(29.9561 0.00743071 0)
(29.9116 0.0114076 0)
(29.8536 0.0166204 0)
(29.7794 0.0236387 0)
(29.6887 0.0329329 0)
(29.5695 0.0464479 0)
(29.4258 0.0658489 0)
(29.2495 0.0915586 0)
(29.0264 0.127692 0)
(28.7491 0.178639 0)
(28.4085 0.252193 0)
(27.9786 0.359424 0)
(27.4535 0.52836 0)
(26.7453 0.803065 0)
(25.8886 1.26267 0)
(24.5778 2.02065 0)
(23.1295 3.29509 0)
(20.6721 5.72935 0)
(19.5386 9.44532 0)
(11.7206 20.3927 0)
(29.9988 0.00144555 0)
(29.9854 0.00439156 0)
(29.9561 0.00761002 0)
(29.9115 0.011682 0)
(29.8535 0.0170209 0)
(29.7791 0.0242036 0)
(29.6893 0.0337589 0)
(29.5665 0.0478772 0)
(29.4256 0.0673711 0)
(29.2496 0.0937518 0)
(29.0267 0.130781 0)
(28.7495 0.182928 0)
(28.409 0.258206 0)
(27.98 0.367794 0)
(27.4569 0.540531 0)
(26.7527 0.820364 0)
(25.9046 1.28973 0)
(24.608 2.05909 0)
(23.1861 3.35662 0)
(20.7532 5.79077 0)
(19.8738 9.62392 0)
(12.034 21.0993 0)
(29.9988 0.00147878 0)
(29.9854 0.00449353 0)
(29.9561 0.00778827 0)
(29.9116 0.0119549 0)
(29.8537 0.0174206 0)
(29.7792 0.0247571 0)
(29.6898 0.0346476 0)
(29.5654 0.0490142 0)
(29.4254 0.0689001 0)
(29.2497 0.095942 0)
(29.027 0.133869 0)
(28.7498 0.187213 0)
(28.4096 0.264213 0)
(27.9813 0.37615 0)
(27.4603 0.552642 0)
(26.7603 0.837518 0)
(25.9209 1.31649 0)
(24.639 2.09689 0)
(23.2468 3.41738 0)
(20.834 5.84706 0)
(20.1967 9.7962 0)
(12.4434 21.8497 0)
(0.666051 -0.000219079 0)
(-0.690396 0.0227499 0)
(-1.42031 0.00827319 0)
(-1.50179 -0.000787923 0)
(-1.3171 -0.00494589 0)
(-0.915203 -0.00460691 0)
(-0.729871 -0.00216974 0)
(-0.619039 -0.000365409 0)
(-0.677181 0.000284224 0)
(-0.666698 0.000628012 0)
(-0.800498 0.000820601 0)
(-0.858782 -0.000143653 0)
(-0.763655 -0.00193 0)
(-0.419604 -0.00308353 0)
(0.0222302 -0.00333195 0)
(0.490407 -0.00372974 0)
(1.07743 -0.00506705 0)
(1.99671 -0.00688371 0)
(3.29753 -0.00798059 0)
(4.80845 -0.00793782 0)
(6.38151 -0.00732336 0)
(7.91372 -0.00653534 0)
(9.36465 -0.00577191 0)
(10.7724 -0.00517819 0)
(12.1463 -0.00465646 0)
(13.481 -0.00417689 0)
(14.7768 -0.0037198 0)
(16.0173 -0.00335633 0)
(17.2535 -0.0031349 0)
(18.5188 -0.00255624 0)
(19.4698 -0.00161316 0)
(20.0059 -0.00626214 0)
(25.9735 -0.00884126 0)
(29.6758 -0.00330214 0)
(29.8469 -0.000131512 0)
(0.683678 -0.00133127 0)
(-0.673442 0.0681396 0)
(-1.40089 0.024664 0)
(-1.47932 -0.0022649 0)
(-1.29775 -0.0148225 0)
(-0.898357 -0.0137477 0)
(-0.715954 -0.00655252 0)
(-0.602419 -0.00114466 0)
(-0.65558 0.000830916 0)
(-0.639839 0.00197071 0)
(-0.779619 0.00272297 0)
(-0.850767 -1.63699e-05 0)
(-0.789808 -0.00556508 0)
(-0.463189 -0.00960553 0)
(0.0114562 -0.0105415 0)
(0.52873 -0.0112548 0)
(1.12533 -0.0146 0)
(2.00834 -0.0197951 0)
(3.26333 -0.0233456 0)
(4.75772 -0.0236463 0)
(6.35168 -0.0220051 0)
(7.90806 -0.0196068 0)
(9.36904 -0.0173119 0)
(10.7761 -0.0155333 0)
(12.1424 -0.0139605 0)
(13.4702 -0.0125197 0)
(14.7618 -0.0111489 0)
(16.0014 -0.0100533 0)
(17.2365 -0.00939166 0)
(18.5026 -0.00771975 0)
(19.4769 -0.00476952 0)
(19.9708 -0.0184541 0)
(25.7456 -0.0265305 0)
(29.6486 -0.0102268 0)
(29.8515 -0.000427021 0)
(0.704625 -0.00336842 0)
(-0.654379 0.113461 0)
(-1.37848 0.0408533 0)
(-1.44973 -0.00370028 0)
(-1.2666 -0.0247437 0)
(-0.870973 -0.022766 0)
(-0.691295 -0.0109619 0)
(-0.575709 -0.00201883 0)
(-0.624402 0.00118398 0)
(-0.607429 0.00328514 0)
(-0.758129 0.00462441 0)
(-0.847898 0.000589824 0)
(-0.820293 -0.00862392 0)
(-0.498435 -0.0159746 0)
(0.0216492 -0.0181689 0)
(0.588218 -0.0191298 0)
(1.1838 -0.0239333 0)
(2.02058 -0.0320451 0)
(3.22959 -0.0381182 0)
(4.71484 -0.039217 0)
(6.33697 -0.0368746 0)
(7.92108 -0.0328853 0)
(9.39128 -0.0288627 0)
(10.7967 -0.0257875 0)
(12.1553 -0.0231563 0)
(13.4755 -0.0207889 0)
(14.7616 -0.0185426 0)
(15.9988 -0.0167404 0)
(17.2315 -0.0156551 0)
(18.4967 -0.012916 0)
(19.4927 -0.00791083 0)
(19.9513 -0.0301279 0)
(25.5361 -0.0442577 0)
(29.6222 -0.0175192 0)
(29.8558 -0.000780022 0)
(0.729298 -0.00640442 0)
(-0.633489 0.158821 0)
(-1.35271 0.0567889 0)
(-1.41219 -0.00538472 0)
(-1.2242 -0.0346496 0)
(-0.833587 -0.031668 0)
(-0.65799 -0.0153358 0)
(-0.541792 -0.00295693 0)
(-0.586767 0.00150988 0)
(-0.570483 0.00475441 0)
(-0.732206 0.00692913 0)
(-0.841862 0.00171618 0)
(-0.846302 -0.0114309 0)
(-0.524739 -0.0228849 0)
(0.0447672 -0.0267599 0)
(0.663454 -0.0275468 0)
(1.25666 -0.033151 0)
(2.04203 -0.043994 0)
(3.20217 -0.0528498 0)
(4.68171 -0.0550517 0)
(6.33686 -0.0520662 0)
(7.95204 -0.0463425 0)
(9.43297 -0.0404605 0)
(10.8365 -0.0360256 0)
(12.1869 -0.0323145 0)
(13.4982 -0.0290251 0)
(14.777 -0.025916 0)
(16.0098 -0.023415 0)
(17.2393 -0.0219092 0)
(18.502 -0.0181612 0)
(19.5178 -0.0110239 0)
(19.9473 -0.0414065 0)
(25.3442 -0.0618889 0)
(29.5964 -0.0251861 0)
(29.8598 -0.00118065 0)
(0.757884 -0.0105625 0)
(-0.610966 0.204162 0)
(-1.32321 0.0723382 0)
(-1.36618 -0.00744271 0)
(-1.17106 -0.044543 0)
(-0.786565 -0.040386 0)
(-0.616939 -0.0196229 0)
(-0.501118 -0.00394057 0)
(-0.542919 0.00181304 0)
(-0.528725 0.00635944 0)
(-0.700473 0.00959665 0)
(-0.830995 0.00331848 0)
(-0.866566 -0.0139566 0)
(-0.541344 -0.0302263 0)
(0.0818016 -0.03618 0)
(0.757856 -0.0363928 0)
(1.35046 -0.042084 0)
(2.07858 -0.0553833 0)
(3.18391 -0.067341 0)
(4.66014 -0.0710718 0)
(6.35389 -0.0675976 0)
(8.00471 -0.0600224 0)
(9.49859 -0.0521093 0)
(10.8999 -0.0462245 0)
(12.2406 -0.0414073 0)
(13.5412 -0.0372031 0)
(14.8102 -0.0332493 0)
(16.0363 -0.0300664 0)
(17.261 -0.0281483 0)
(18.5196 -0.0234412 0)
(19.5531 -0.0141245 0)
(19.9593 -0.0522828 0)
(25.1688 -0.0794359 0)
(29.5711 -0.0331812 0)
(29.8633 -0.00162884 0)
(0.790463 -0.015977 0)
(-0.586938 0.249493 0)
(-1.2895 0.0873528 0)
(-1.31097 -0.00999234 0)
(-1.10729 -0.0544657 0)
(-0.729963 -0.0488866 0)
(-0.568503 -0.0237913 0)
(-0.453643 -0.00495337 0)
(-0.492636 0.00211156 0)
(-0.481468 0.00810031 0)
(-0.661717 0.0126031 0)
(-0.813485 0.00539645 0)
(-0.879239 -0.0162201 0)
(-0.547476 -0.0380092 0)
(0.132331 -0.0464328 0)
(0.872024 -0.0456622 0)
(1.47017 -0.0506388 0)
(2.13765 -0.0660354 0)
(3.18072 -0.0814788 0)
(4.65474 -0.0872703 0)
(6.393 -0.0834984 0)
(8.08566 -0.0739515 0)
(9.59574 -0.0638152 0)
(10.9939 -0.0563727 0)
(12.3223 -0.0504168 0)
(13.6088 -0.0453037 0)
(14.8647 -0.0405246 0)
(16.081 -0.0366813 0)
(17.2991 -0.0343628 0)
(18.5513 -0.0287445 0)
(19.6001 -0.0172205 0)
(19.9886 -0.0627627 0)
(25.009 -0.0968745 0)
(29.5465 -0.0414706 0)
(29.8666 -0.00212277 0)
(0.826958 -0.0227808 0)
(-0.561462 0.294815 0)
(-1.25103 0.101672 0)
(-1.24541 -0.0131486 0)
(-1.03248 -0.0644344 0)
(-0.663405 -0.0571276 0)
(-0.512455 -0.0278058 0)
(-0.398871 -0.00598449 0)
(-0.435205 0.00241632 0)
(-0.42755 0.00996748 0)
(-0.614549 0.0159289 0)
(-0.787353 0.00792865 0)
(-0.882508 -0.0182572 0)
(-0.542861 -0.0462683 0)
(0.195398 -0.0575699 0)
(1.00527 -0.0554419 0)
(1.61924 -0.0588594 0)
(2.22771 -0.0758882 0)
(3.20171 -0.0952076 0)
(4.6732 -0.103668 0)
(6.46206 -0.09982 0)
(8.20507 -0.0881771 0)
(9.73664 -0.0755924 0)
(11.1306 -0.0664557 0)
(12.4415 -0.0593159 0)
(13.7083 -0.0532987 0)
(14.9459 -0.0477181 0)
(16.1479 -0.043244 0)
(17.3568 -0.040542 0)
(18.5999 -0.0340588 0)
(19.6607 -0.0203155 0)
(20.037 -0.0728522 0)
(24.8642 -0.114178 0)
(29.5226 -0.0500263 0)
(29.8694 -0.00266068 0)
(0.86709 -0.0311014 0)
(-0.534522 0.340114 0)
(-1.20709 0.115104 0)
(-1.16798 -0.0170274 0)
(-0.945957 -0.0744385 0)
(-0.586258 -0.0650544 0)
(-0.448148 -0.0316293 0)
(-0.335981 -0.0070297 0)
(-0.369532 0.00272913 0)
(-0.365409 0.0119423 0)
(-0.557162 0.0195428 0)
(-0.750342 0.0109081 0)
(-0.874545 -0.0200893 0)
(-0.526925 -0.0550387 0)
(0.27131 -0.0696748 0)
(1.15852 -0.0658729 0)
(1.80164 -0.0668721 0)
(2.35815 -0.0849505 0)
(3.25892 -0.108488 0)
(4.72669 -0.120281 0)
(6.57262 -0.116625 0)
(8.37772 -0.102767 0)
(9.93976 -0.087463 0)
(11.3292 -0.0764501 0)
(12.6143 -0.068061 0)
(13.8511 -0.0611434 0)
(15.0615 -0.0547941 0)
(16.2428 -0.0497319 0)
(17.439 -0.0466716 0)
(18.6693 -0.0393685 0)
(19.7379 -0.0234119 0)
(20.1077 -0.0825539 0)
(24.7347 -0.131311 0)
(29.4995 -0.0588222 0)
(29.8718 -0.00324072 0)
(0.910331 -0.0410576 0)
(-0.506029 0.385346 0)
(-1.15682 0.127427 0)
(-1.07708 -0.0217446 0)
(-0.847121 -0.0844475 0)
(-0.497892 -0.0726109 0)
(-0.374719 -0.0352267 0)
(-0.263941 -0.0080904 0)
(-0.294253 0.00304322 0)
(-0.29316 0.013998 0)
(-0.487235 0.0234165 0)
(-0.69977 0.0143261 0)
(-0.853087 -0.0217167 0)
(-0.497902 -0.0643414 0)
(0.362711 -0.0828429 0)
(1.33632 -0.0771296 0)
(2.02466 -0.0748553 0)
(2.54068 -0.0932901 0)
(3.36744 -0.121301 0)
(4.83051 -0.137122 0)
(6.74082 -0.133994 0)
(8.62366 -0.117826 0)
(10.231 -0.0994727 0)
(11.6191 -0.0863233 0)
(12.8664 -0.0765805 0)
(14.0556 -0.0687638 0)
(15.2236 -0.0616958 0)
(16.374 -0.0561117 0)
(17.5522 -0.0527316 0)
(18.7649 -0.0446519 0)
(19.8352 -0.0265108 0)
(20.2051 -0.0918651 0)
(24.6215 -0.148231 0)
(29.4774 -0.0678308 0)
(29.8738 -0.00386084 0)
(0.955871 -0.0527562 0)
(-0.475816 0.430435 0)
(-1.09919 0.138385 0)
(-0.971303 -0.02741 0)
(-0.735713 -0.0944123 0)
(-0.397939 -0.0797492 0)
(-0.291272 -0.0385713 0)
(-0.181638 -0.00917569 0)
(-0.207848 0.00334032 0)
(-0.208661 0.0160947 0)
(-0.401939 0.0275003 0)
(-0.632402 0.018181 0)
(-0.815026 -0.0231296 0)
(-0.452302 -0.0741909 0)
(0.474924 -0.0971837 0)
(1.54752 -0.0894307 0)
(2.30144 -0.0830364 0)
(2.7919 -0.10102 0)
(3.54641 -0.133658 0)
(5.00493 -0.154221 0)
(6.98801 -0.152043 0)
(8.96755 -0.133518 0)
(10.6419 -0.111722 0)
(12.0402 -0.0960503 0)
(13.2375 -0.0847641 0)
(14.3507 -0.0760375 0)
(15.4503 -0.0683307 0)
(16.5534 -0.0623315 0)
(17.7056 -0.0586934 0)
(18.8944 -0.0498799 0)
(19.958 -0.0296096 0)
(20.3351 -0.100777 0)
(24.5269 -0.164885 0)
(29.4564 -0.0770216 0)
(29.8754 -0.00451864 0)
(1.00259 -0.0662852 0)
(-0.443633 0.475263 0)
(-1.03304 0.147707 0)
(-0.849886 -0.0341163 0)