/*--------------------------------*- C++ -*----------------------------------*\
| =========                 |                                                 |
| \\      /  F ield         | OpenFOAM: The Open Source CFD Toolbox           |
|  \\    /   O peration     | Version:  v1912                                 |
|   \\  /    A nd           | Website:  www.openfoam.com                      |
|    \\/     M anipulation  |                                                 |
\*---------------------------------------------------------------------------*/
FoamFile
{
    version     2.0;
    format      ascii;
    class       volScalarField;
    location    "490";
    object      yPlus;
}
// * * * * * * * * * * * * * * * * * * * * * * * * * * * * * * * * * * * * * //

dimensions      [0 0 0 0 0 0 0];


internalField   uniform 0;

boundaryField
{
    inlet
    {
        type            calculated;
        value           uniform 0;
    }
    outlet
    {
        type            calculated;
        value           uniform 0;
    }
    lowerSymmetry
    {
        type            symmetryPlane;
    }
    obstical
    {
        type            calculated;
        value           nonuniform List<scalar> 
88
(
478.438
480.639
485.039
491.609
500.283
510.973
523.591
538.047
554.258
572.144
591.63
612.642
635.1
658.914
683.991
710.237
737.56
765.88
795.124
825.232
856.155
887.853
920.3
953.476
987.37
1021.98
1057.31
1093.37
1130.17
1167.73
1206.07
1245.22
1285.19
1326
1367.68
1410.25
1453.73
1498.14
1543.51
1589.85
1637.19
1685.6
1735.47
1790.75
69.635
71.1963
73.0465
75.2191
77.7281
80.5779
83.7596
87.2473
90.9944
94.9317
98.966
102.981
106.836
110.376
113.432
115.835
117.423
118.061
117.645
116.117
113.468
109.738
105.015
99.4351
93.187
86.5247
79.7886
73.4401
68.0964
64.5172
63.4527
65.3394
70.0851
77.1954
86.0889
96.3148
107.624
119.966
133.448
148.443
165.367
184.555
206.311
231.457
)
;
    }
    obsticalTop
    {
        type            calculated;
        value           nonuniform List<scalar> 
20
(
53.4043
38.8241
47.1669
53.2465
56.0842
57.7129
58.3103
57.9959
57.0392
55.571
53.5656
50.911
47.5102
43.1725
37.8675
30.9546
24.5373
14.988
13.4897
11.3215
)
;
    }
    top
    {
        type            calculated;
        value           uniform 0;
    }
    defaultFaces
    {
        type            empty;
    }
}


// ************************************************************************* //
