/*--------------------------------*- C++ -*----------------------------------*\
| =========                 |                                                 |
| \\      /  F ield         | OpenFOAM: The Open Source CFD Toolbox           |
|  \\    /   O peration     | Version:  v1912                                 |
|   \\  /    A nd           | Website:  www.openfoam.com                      |
|    \\/     M anipulation  |                                                 |
\*---------------------------------------------------------------------------*/
FoamFile
{
    version     2.0;
    format      ascii;
    class       volScalarField;
    location    "400";
    object      alphat;
}
// * * * * * * * * * * * * * * * * * * * * * * * * * * * * * * * * * * * * * //

dimensions      [0 2 -1 0 0 0 0];


internalField   nonuniform List<scalar> 
4000
(
0.000400598
0.000340339
0.000227106
0.000143559
0.000128068
0.000118478
0.000107726
0.000112234
0.000125049
8.1295e-05
0.000173137
0.000121858
0.000105787
0.000110595
0.000121471
0.000130597
0.000149696
0.000290916
0.000372713
0.000418547
0.000446215
0.000408139
0.000346732
0.000303445
0.000243565
0.000155955
0.000151155
0.000152573
0.000151851
0.00015352
0.000158625
0.000157169
0.000154093
0.000151605
0.000159144
0.000249822
0.000305548
0.000354614
0.000420433
0.000455991
0.000470671
0.000445947
0.000408063
0.000359154
0.000305228
0.000241217
0.000168911
0.00017085
0.000176847
0.000183473
0.000179866
0.000175243
0.000170909
0.000173066
0.00025924
0.000314072
0.000364716
0.000414242
0.000454238
0.000478214
0.000485335
0.000468935
0.000433493
0.000379858
0.000327975
0.000278567
0.000233113
0.00018367
0.000188903
0.000197976
0.000194839
0.000185958
0.000190508
0.000242795
0.00028983
0.000337232
0.000390021
0.000440988
0.000476427
0.000492027
0.000495996
0.000488583
0.00046467
0.00042255
0.000369135
0.000321556
0.000279613
0.000245258
0.000218001
0.000191804
0.000191103
0.000219259
0.000250599
0.000291368
0.000334345
0.000382812
0.000433383
0.000472726
0.000495781
0.000502335
0.00050523
0.000507272
0.000498066
0.000480009
0.000459063
0.0004367
0.000412685
0.000380856
0.0003496
0.000327288
0.000330969
0.000359692
0.000392765
0.000422869
0.000446902
0.000468957
0.000489138
0.000506008
0.000514325
0.000511402
0.000514811
0.000527339
0.000532822
0.000532365
0.000529108
0.000522632
0.000512526
0.000498642
0.000481851
0.000462249
0.000464947
0.000486399
0.000504384
0.000519238
0.000530085
0.000536985
0.000540298
0.000540375
0.00053431
0.00052089
0.000525673
0.000548926
0.000567023
0.000579093
0.000586978
0.000589955
0.000587646
0.000579839
0.000566317
0.000545324
0.000546974
0.000568871
0.00058386
0.000592864
0.000596124
0.000593798
0.000586262
0.000574192
0.000555757
0.000531655
0.000539065
0.000574469
0.000603593
0.000625327
0.000641443
0.000651185
0.000654148
0.000650214
0.000638154
0.000614787
0.000615824
0.000639795
0.00065356
0.000658937
0.000657035
0.000647964
0.000632215
0.00061056
0.000581169
0.00054495
0.000557791
0.000604666
0.000642425
0.000670367
0.000691879
0.0007074
0.000717144
0.000720411
0.00071493
0.000693276
0.000693929
0.000716012
0.000722921
0.000720887
0.000712124
0.000697349
0.000676361
0.000648708
0.000610929
0.000563519
0.000340488
0.000305749
0.000191706
0.000178136
0.000176299
0.000157165
0.00012169
0.00013153
0.000337593
0.00017253
0.000233536
0.000119338
0.000116043
0.000135839
0.00016794
0.000180768
0.000181855
0.00025017
0.000338644
0.000374589
0.000408202
0.000472865
0.000419126
0.000411644
0.000416433
0.000355015
0.000340008
0.000391068
0.000441893
0.000468351
0.000464279
0.000421391
0.000380884
0.000334058
0.000359648
0.00041342
0.000400496
0.000424757
0.000514151
0.000421741
0.000445931
0.000645367
0.000609518
0.000522438
0.00046442
0.000422623
0.000402427
0.000419115
0.000463921
0.000519321
0.00051062
0.000450078
0.00041714
0.000408594
0.00043258
0.000474045
0.000537228
0.000637463
0.000678804
0.000455325
0.000468916
0.00066017
0.000669517
0.000588738
0.00050132
0.000438645
0.000403525
0.000406627
0.000451683
0.000505403
0.000498522
0.000442163
0.000400279
0.000406827
0.000446885
0.000512442
0.000603732
0.000685838
0.000679916
0.000477207
0.00048856
0.000683593
0.000706436
0.000642498
0.000535419
0.000455815
0.000401111
0.000370999
0.000374683
0.000466257
0.000461375
0.000368302
0.000369383
0.000404559
0.000461633
0.00054336
0.000651954
0.000718843
0.000698644
0.000496211
0.000507257
0.00071258
0.000747695
0.000702626
0.000610579
0.00051817
0.000453156
0.000401346
0.000365749
0.000364743
0.000363757
0.000366316
0.000404707
0.000459471
0.00052707
0.000627314
0.00071964
0.000763562
0.000727582
0.00051444
0.00052733
0.000740003
0.000791593
0.000789298
0.000751009
0.000676109
0.000576146
0.000498399
0.000448655
0.000423406
0.000426237
0.000454358
0.000506478
0.000593206
0.000696929
0.000771008
0.000809087
0.000809333
0.000755378
0.000534096
0.000548919
0.000760482
0.000830672
0.000878141
0.000909438
0.00090897
0.000872481
0.000797171
0.000704541
0.000616614
0.000624018
0.000717556
0.000815802
0.000890654
0.000929622
0.000931382
0.000899135
0.000848718
0.000775798
0.000555367
0.000574462
0.000757313
0.00085672
0.000933936
0.00099005
0.0010132
0.00099675
0.00094774
0.000863911
0.00075144
0.00075518
0.000869266
0.000960033
0.00101383
0.00103271
0.00100958
0.000952194
0.000872609
0.00076987
0.000580788
0.00060466
0.000657828
0.00070246
0.000737221
0.000765281
0.000786667
0.000801075
0.000807517
0.00080345
0.000783203
0.000783474
0.000804419
0.000810104
0.000805058
0.000791732
0.000771127
0.000743588
0.000709074
0.000664331
0.000610484
0.000229014
0.000195131
0.000188649
0.000202119
0.000211869
0.000187859
0.000144324
0.00011903
0.000115746
0.000110126
0.000116152
0.000119211
0.000138697
0.00016088
0.000199692
0.000214675
0.00020219
0.000197177
0.00025993
0.000299964
0.000346615
0.000418729
0.000440788
0.000473395
0.00048433
0.000421368
0.000400055
0.000444954
0.000498957
0.00054382
0.000531688
0.000478392
0.000424009
0.000394235
0.000430291
0.000479989
0.000459121
0.000427403
0.000423021
0.000357498
0.00040795
0.000609331
0.000599187
0.000554925
0.000522631
0.00050418
0.000489007
0.000488661
0.000537552
0.000601424
0.000586605
0.000515409
0.000476038
0.00049128
0.000511004
0.00053346
0.000571879
0.000627747
0.000639737
0.000415861
0.000433379
0.000669468
0.000717891
0.000649023
0.000574237
0.000522932
0.000499821
0.000508972
0.000538385
0.000596473
0.00058391
0.000522801
0.000497586
0.000500142
0.000532804
0.000589454
0.000667006
0.000733387
0.000688286
0.000442675
0.000464577
0.000706403
0.000772722
0.000725838
0.000626896
0.000547335
0.000495602
0.000474101
0.000501375
0.000605062
0.000594357
0.000487597
0.000468829
0.000497491
0.000554047
0.000637177
0.000738833
0.000783932
0.00072053
0.000473766
0.000498016
0.000747669
0.000824659
0.00078866
0.000680662
0.000581357
0.000508447
0.000456988
0.000429884
0.000447734
0.000441812
0.000423996
0.000455761
0.000511746
0.000588952
0.000695371
0.000808117
0.000843945
0.000764916
0.000506361
0.0005328
0.000791567
0.000892104
0.000888435
0.000798085
0.000691739
0.000591531
0.000508608
0.00044635
0.000416945
0.000416242
0.000447775
0.000514158
0.000603427
0.000708559
0.000820294
0.00091372
0.000915141
0.000810399
0.000540232
0.000567013
0.000830648
0.000976451
0.00105035
0.00105895
0.000992731
0.000904694
0.000798523
0.000685434
0.000585542
0.000588146
0.000695618
0.000816338
0.000927289
0.00101975
0.00109025
0.00107863
0.00100084
0.000849626
0.000573812
0.000603587
0.000856711
0.0010893
0.00129587
0.0014346
0.00149883
0.00148224
0.00140844
0.00127135
0.00108413
0.00109069
0.00128344
0.00142983
0.00150904
0.00152735
0.00146162
0.00132083
0.00111107
0.000873436
0.000610147
0.000642422
0.000702462
0.000753358
0.000794308
0.000828114
0.000854671
0.000873095
0.000882209
0.00087934
0.000858129
0.000858038
0.000880209
0.000884825
0.000877162
0.000859818
0.00083401
0.000800696
0.000759971
0.000708941
0.000648208
0.000143496
0.000177896
0.000204035
0.000219009
0.000221447
0.000197871
0.000176374
0.000158855
0.00014983
0.00014938
0.000149273
0.000154299
0.000167471
0.000184286
0.000207418
0.000225918
0.000222894
0.000202417
0.000183093
0.000152785
0.000303558
0.000411716
0.000473508
0.000507883
0.00050152
0.000451939
0.000447521
0.000488978
0.000551271
0.000607386
0.000589677
0.000521858
0.000466828
0.000441942
0.000461213
0.000501543
0.000496008
0.00045752
0.000397622
0.000307715
0.000359104
0.00052223
0.000554836
0.00055164
0.000544989
0.000548913
0.000533799
0.000537094
0.000593365
0.000664168
0.000643931
0.000564222
0.000521868
0.000533908
0.000553253
0.000553517
0.000564465
0.00057249
0.000539069
0.000366864
0.000379679
0.000588494
0.000648849
0.00062515
0.000587525
0.000562671
0.000558311
0.000571756
0.000603456
0.000665344
0.000648622
0.00058333
0.000556748
0.000555002
0.000571733
0.000603766
0.000645677
0.000669207
0.000608287
0.000393064
0.000422353
0.000642332
0.000725681
0.000706704
0.000646479
0.000591555
0.000555798
0.000548463
0.000591341
0.000679435
0.000663596
0.000572903
0.000541286
0.000558299
0.000601093
0.000661074
0.000723934
0.000741783
0.000655716
0.000435161
0.000479904
0.000702508
0.000788557
0.00077719
0.000707588
0.000631051
0.000569157
0.000526994
0.000512987
0.000555368
0.000547234
0.000506229
0.000526786
0.000574875
0.000642356
0.00072552
0.000800256
0.000811087
0.000723029
0.000489585
0.00053232
0.000789226
0.00088837
0.000893167
0.000833936
0.000747146
0.000660298
0.000582276
0.000517005
0.000487935
0.000485473
0.000518654
0.000590505
0.000674657
0.000766957
0.000859918
0.000921868
0.000916194
0.000811448
0.000540185
0.000579077
0.000878088
0.00105031
0.00114132
0.0011544
0.00110188
0.00101597
0.000903883
0.000773412
0.000651962
0.00065301
0.000786038
0.000926037
0.00104366
0.00113327
0.00119008
0.00117765
0.00108009
0.000900255
0.000585926
0.000625322
0.000933912
0.00129585
0.00164341
0.00184105
0.00191057
0.00188836
0.00178705
0.00159931
0.00134447
0.00134352
0.00161623
0.00181402
0.00192026
0.00194268
0.00187226
0.0016728
0.00132246
0.000953627
0.000631856
0.000670367
0.000737225
0.000794311
0.000841665
0.000881793
0.000914551
0.000938208
0.000951009
0.000950245
0.000932488
0.000931613
0.000950913
0.000953511
0.00094218
0.000919575
0.000887548
0.000847855
0.000800686
0.000743439
0.000675901
0.000127814
0.000177019
0.00021025
0.000221154
0.000217273
0.00019959
0.000184495
0.000173115
0.000168308
0.000171802
0.000170538
0.0001716
0.00018065
0.000194095
0.00020969
0.000224595
0.000225916
0.00021513
0.00018217
0.000132192
0.000244389
0.000417001
0.000484651
0.00050159
0.00048449
0.000467138
0.000483441
0.000529616
0.000606096
0.000680319
0.0006555
0.00057103
0.000505472
0.000474368
0.000473786
0.000493317
0.000500976
0.000478741
0.000412359
0.000256243
0.00030539
0.000464416
0.000522581
0.000544971
0.000562784
0.000565522
0.000551529
0.000571487
0.000643222
0.000725425
0.000700201
0.000608727
0.000551251
0.000550846
0.000570451
0.000566919
0.000554044
0.000534179
0.000475204
0.000317478
0.000327825
0.000501057
0.000573976
0.000587394
0.000584494
0.000583733
0.000590366
0.000602426
0.000645528
0.000717121
0.000697419
0.000620415
0.000588157
0.000585443
0.000588723
0.000597189
0.000604956
0.000592107
0.000516209
0.000340281
0.000368966
0.000535128
0.000626589
0.000646302
0.000628849
0.000604839
0.000590123
0.000599585
0.000648208
0.000725765
0.000709021
0.00062866
0.000590419
0.000591764
0.000614292
0.000643358
0.000662773
0.000640783
0.000547121
0.000384954
0.000458908
0.000610337
0.000680407
0.000707423
0.000687593
0.000648147
0.000609896
0.000586029
0.00059387
0.000665367
0.000657455
0.000588561
0.000588351
0.000618588
0.00066219
0.000706111
0.000727771
0.000699589
0.000630722
0.000469231
0.000529027
0.000750897
0.000797933
0.000833813
0.000829254
0.000786791
0.000728168
0.000667486
0.00061549
0.000607593
0.000607595
0.000622227
0.000681443
0.0007476
0.000810751
0.000857136
0.000862345
0.00082454
0.000773988
0.000536854
0.000586953
0.000909363
0.00105886
0.00115432
0.00119869
0.00117851
0.00111596
0.00101535
0.000881257
0.000749176
0.000752241
0.000898878
0.00104362
0.00114938
0.00121363
0.00123574
0.00119183
0.0010933
0.000933667
0.000593543
0.000641439
0.000990012
0.00143456
0.00184103
0.00205657
0.00216869
0.00218887
0.00210322
0.00189535
0.00158435
0.00158126
0.00190754
0.00213063
0.00222388
0.00220366
0.00209052
0.0018741
0.00146466
0.0010117
0.000647718
0.000691882
0.000765286
0.000828119
0.000881797
0.000930298
0.000969922
0.000999541
0.00101784
0.00102247
0.00101215
0.00101071
0.00102251
0.00101982
0.00100307
0.000974592
0.000935729
0.000887624
0.000834056
0.000771026
0.000696973
0.000119295
0.000163731
0.000185778
0.000196744
0.000198945
0.000193183
0.000186159
0.000180883
0.000181003
0.000188454
0.000186841
0.000184086
0.000188556
0.000196252
0.000204141
0.000209587
0.000206886
0.000196588
0.000169305
0.000121842
0.000154732
0.00035402
0.000420484
0.000451006
0.000466727
0.00048302
0.000511746
0.000564003
0.000648726
0.000726094
0.000698562
0.00060864
0.000536947
0.000499025
0.000481838
0.000473753
0.00046044
0.000428271
0.000357564
0.000160181
0.000241242
0.000422442
0.000503746
0.000548536
0.000565263
0.000560758
0.000561141
0.000595131
0.000674851
0.000748037
0.000722474
0.000636131
0.000572146
0.000556433
0.000566765
0.00057132
0.000554219
0.000511474
0.000433124
0.00026394
0.000278363
0.000438318
0.000522485
0.000562298
0.000583498
0.000597053
0.00060297
0.000616475
0.000666357
0.000726686
0.00070966
0.000641786
0.00060265
0.000597892
0.000597548
0.000589695
0.000573444
0.00053506
0.000449543
0.000293275
0.000321543
0.000455495
0.000546909
0.000591201
0.000604639
0.000606035
0.000610453
0.000632105
0.000681478
0.000743543
0.000731727
0.000663673
0.00062142
0.000609104
0.000612075
0.000615227
0.000603132
0.000556855
0.000464004
0.000335638
0.000436514
0.000517917
0.000581028
0.000630755
0.000647981
0.000642616
0.000630999
0.000629698
0.000660866
0.000742564
0.00073753
0.000657055
0.00063306
0.000640192
0.000655873
0.000663134
0.000644691
0.000591825
0.000528624
0.000446918
0.000522507
0.000675936
0.000691542
0.000746933
0.000786658
0.000788934
0.000764811
0.000731206
0.000707511
0.000733602
0.000739156
0.000720952
0.00075015
0.000787217
0.000813452
0.000811632
0.000769472
0.000711707
0.000699023
0.000529916
0.000589916
0.000908876
0.000992603
0.00110175
0.00117843
0.00120026
0.00117278
0.00109273
0.000964579
0.000833652
0.000840818
0.0009875
0.00112608
0.00121044
0.00123764
0.00121434
0.00113564
0.00102366
0.000933619
0.000595977
0.000651179
0.00101316
0.00149878
0.00191056
0.00216869
0.00232911
0.00237661
0.0022857
0.00202635
0.00163441
0.00163281
0.00203635
0.00231149
0.00241209
0.00236611
0.00220514
0.0019455
0.00153161
0.00103581
0.000656941
0.000707406
0.000786675
0.000854679
0.000914558
0.000969927
0.00101583
0.00105165
0.00107615
0.00108779
0.0010872
0.00108536
0.00108729
0.00107748
0.00105449
0.00101982
0.000974749
0.000919786
0.00085996
0.000791711
0.00071185
0.000109551
0.000146673
0.000151965
0.000175108
0.000183636
0.000185728
0.000185961
0.000187585
0.000193833
0.000207626
0.000205341
0.000196162
0.000194502
0.000195361
0.000196209
0.000193868
0.000183179
0.000162195
0.000140929
0.000112515
0.000147725
0.000338173
0.000399264
0.000446522
0.000482748
0.00051135
0.000546071
0.000602064
0.000679473
0.000738091
0.000714718
0.000642464
0.000573287
0.000527569
0.000499563
0.000474476
0.00044079
0.000393508
0.000332623
0.000150977
0.000168077
0.000401333
0.000488234
0.000532996
0.000550928
0.000560827
0.000578259
0.000620299
0.000679059
0.000675637
0.00066321
0.000648485
0.000595666
0.000565765
0.000557572
0.000552608
0.000535501
0.000491805
0.000409168
0.000178877
0.000232892
0.000402851
0.000499087
0.000557649
0.000589855
0.0006027
0.000607803
0.0006272
0.000661537
0.000618367
0.000618652
0.000644832
0.000613269
0.000601
0.000599382
0.000587569
0.000556927
0.000501689
0.000408436
0.000245715
0.000279844
0.000400714
0.000495036
0.000555264
0.000589721
0.000610241
0.000627659
0.000653452
0.000685027
0.000628309
0.000635024
0.000674343
0.000642426
0.000621947
0.000610067
0.000593321
0.000560342
0.000499643
0.000406323
0.00029243
0.000412395
0.000452843
0.000508039
0.00056875
0.000609585
0.000630835
0.000643769
0.000662994
0.000697271
0.00066704
0.000675747
0.000696895
0.00066527
0.000650886
0.000640608
0.000619706
0.000576716
0.000513456
0.000459985
0.000422684
0.000512341
0.000575893
0.000591289
0.000660026
0.000727936
0.000764686
0.000773116
0.000771772
0.000778461
0.000767818
0.000784565
0.000798678
0.000793772
0.000795951
0.000787137
0.000748339
0.000676498
0.000605219
0.00059345
0.000519009
0.000587586
0.000872354
0.000904539
0.00101582
0.00111585
0.00117273
0.00117395
0.00111017
0.000990418
0.000858728
0.000871822
0.00101706
0.00114611
0.00121329
0.00121069
0.00115043
0.00104642
0.000931674
0.000895858
0.000592806
0.000654139
0.000996707
0.00148217
0.00188834
0.00218888
0.00237663
0.00242578
0.00229001
0.0019217
0.00134303
0.00135529
0.00192386
0.00231306
0.00246035
0.00241445
0.00222761
0.00192509
0.00151517
0.00101814
0.000658995
0.000717152
0.000801084
0.000873104
0.000938217
0.000999548
0.00105165
0.00109401
0.00112604
0.00114845
0.00116489
0.00116246
0.00114732
0.0011266
0.00109596
0.00105472
0.00100344
0.000942552
0.000877401
0.000805107
0.000720708
9.72868e-05
0.000165906
0.000147266
0.000161656
0.000172619
0.000180115
0.000187129
0.000196543
0.000209264
0.000227608
0.000224517
0.000210222
0.000201629
0.000194537
0.000188501
0.000180358
0.00016664
0.000148922
0.000135186
0.000108936
0.000147447
0.00039145
0.000445025
0.000487352
0.000528406
0.000563074
0.000601499
0.000646477
0.000665396
0.000568719
0.000547184
0.000636344
0.000618438
0.000575679
0.000539864
0.000507786
0.000467981
0.000423623
0.000381029
0.000151822
0.000167978
0.000417508
0.000487223
0.00053578
0.000570562
0.000594503
0.000619967
0.000643885
0.000586959
0.000406996
0.000393982
0.000574593
0.000623794
0.000598822
0.000576159
0.000555164
0.00052489
0.00047791
0.000419569
0.000171648
0.000182052
0.000405797
0.00050786
0.000570688
0.000601605
0.000615932
0.000626936
0.000632746
0.000531295
0.000388419
0.000376134
0.000533449
0.000623804
0.000616051
0.000606508
0.000592336
0.00055997
0.000498758
0.000398701
0.000193908
0.000245565
0.000370643
0.000473416
0.000547752
0.000598977
0.000631677
0.00065324
0.000659311
0.00053457
0.000458991
0.00043355
0.000542682
0.000653748
0.00064464
0.000624287
0.000593228
0.000543767
0.00047061
0.000370219
0.000251529
0.000380699
0.000401105
0.000456558
0.000526504
0.000585595
0.000629384
0.000662832
0.00068155
0.000563795
0.000556169
0.00053604
0.000576261
0.000684767
0.00066603
0.000633979
0.000589649
0.000528452
0.000457116
0.000405027
0.000392182
0.000498396
0.000498132
0.000508324
0.000581951
0.000667179
0.00073098
0.000771657
0.000801422
0.000732837
0.000682544
0.000680409
0.000765179
0.0008258
0.000793282
0.000749981
0.00068245
0.000592605
0.000515974
0.000506803
0.000504002
0.000579757
0.000796936
0.000798295
0.000903685
0.00101521
0.00109266
0.00111013
0.00105763
0.00094339
0.000842385
0.000847081
0.000972925
0.00109343
0.00114749
0.00112818
0.00104659
0.000930343
0.000821262
0.000819386
0.000583793
0.0006502
0.000947698
0.00140833
0.00178697
0.00210322
0.00228572
0.00229002
0.00203925
0.00153984
0.00130577
0.0013007
0.00155766
0.00206239
0.00231881
0.00231908
0.00213817
0.00182199
0.00143837
0.000965477
0.000653701
0.000720424
0.000807528
0.000882216
0.000951015
0.00101785
0.00107615
0.00112604
0.00116932
0.00121293
0.00127172
0.00126721
0.00121117
0.00116898
0.00112675
0.00107784
0.00102029
0.000953936
0.000885035
0.000810106
0.000722773
8.31344e-05
0.000124151
0.000155542
0.000159606
0.000169731
0.000180345
0.000192966
0.000208774
0.000220394
0.000236807
0.00023394
0.000220309
0.000210571
0.000196479
0.000184262
0.000171783
0.000156617
0.000139776
0.000149696
0.000102236
0.000150884
0.000432037
0.00050094
0.00054949
0.00060456
0.000647397
0.000678368
0.000664767
0.000509236
0.000569862
0.000547437
0.000486257
0.000641013
0.000649389
0.000616097
0.000577655
0.000525967
0.000480926
0.000422465
0.000151307
0.000172632
0.000462034
0.000534992
0.000591408
0.000641983
0.000673946
0.000678409
0.000586603
0.00038558
0.00071569
0.000680733
0.000370457
0.000579335
0.000657225
0.000645914
0.000618069
0.000570548
0.000518323
0.000449313
0.000175175
0.00018544
0.000449933
0.000536589
0.000602077
0.000644493
0.000665612
0.000661064
0.000531084
0.000404944
0.000993924
0.000948734
0.000386342
0.000537179
0.000652017
0.0006497
0.000627995
0.000589466
0.000525855
0.000439394
0.000185119
0.00021703
0.000373756
0.000500299
0.00059033
0.000647367
0.000680851
0.000684643
0.000534423
0.000517154
0.00134546
0.00128581
0.000477954
0.000545685
0.000679886
0.000669564
0.000634256
0.000577277
0.000489742
0.000367789
0.00022029
0.00034805
0.000364908
0.000429186
0.000512331
0.000593285
0.000660398
0.000696971
0.000563687
0.000631144
0.00167755
0.00160735
0.000589672
0.000577935
0.000699202
0.000658807
0.000590072
0.000507825
0.000425414
0.000366825
0.000359225
0.000481527
0.000448241
0.000445967
0.000516604
0.000615106
0.000707191
0.000778243
0.000732751
0.00078185
0.00189555
0.00182436
0.000759346
0.000764426
0.000797401
0.000720665
0.000623756
0.000521287
0.000449547
0.00045417
0.00048586
0.000566222
0.000704276
0.000685168
0.00077316
0.000881073
0.000964461
0.000990345
0.000943351
0.000974689
0.00198384
0.00192058
0.000966487
0.000975187
0.00102106
0.000992747
0.000904917
0.000792167
0.000700713
0.000720053
0.000568593
0.000638145
0.000863904
0.00127126
0.00159919
0.00189531
0.00202637
0.00192175
0.00153987
0.00139089
0.00189375
0.00185161
0.00138052
0.0015651
0.00193995
0.00205148
0.00192056
0.00162426
0.00129155
0.000874032
0.000639671
0.000714953
0.000803467
0.000879347
0.000950246
0.00102247
0.00108778
0.00114843
0.00121291
0.0012987
0.00140837
0.00140275
0.00129435
0.00121072
0.00114716
0.00108739
0.00102269
0.00095091
0.000879941
0.000803967
0.000715611
0.000136937
9.51232e-05
0.000138085
0.000158987
0.000173758
0.000187843
0.000206391
0.000226621
0.000236219
0.000245064
0.000242673
0.000234433
0.000225062
0.000205668
0.000187095
0.000171531
0.00015645
0.000143825
8.64506e-05
0.00017798
0.000166411
0.000463223
0.000546148
0.000606373
0.0006791
0.000724907
0.000736892
0.000567853
0.000569299
0.000374728
0.000366648
0.000551346
0.000554359
0.000721256
0.000704857
0.000661004
0.000591504
0.000534733
0.000450306
0.000174856
0.000179101
0.000519315
0.000598786
0.000662011
0.000724094
0.000747088
0.000674914
0.00040654
0.000715319
0.000547554
0.000536366
0.000685663
0.00039922
0.000670681
0.000730786
0.000708202
0.000648191
0.000586848
0.000508011
0.000182581
0.000194509
0.000503707
0.000594566
0.000663862
0.000716098
0.000725913
0.000617871
0.000388125
0.000993551
0.000733163
0.000722704
0.00095339
0.000380123
0.000623795
0.000716223
0.000704111
0.000653482
0.000585424
0.000495918
0.00019503
0.000191521
0.000464136
0.000603601
0.000678314
0.00072486
0.000742845
0.000627894
0.000458693
0.00134503
0.000946183
0.000939469
0.00128926
0.000438306
0.000638203
0.000736045
0.000713708
0.000668048
0.000594968
0.000450163
0.000192234
0.000323531
0.000362491
0.000446436
0.000554472
0.000664642
0.000741973
0.000666687
0.000555907
0.00167707
0.00118047
0.00117994
0.00160823
0.000537209
0.00067646
0.000736493
0.000654973
0.000544337
0.000439859
0.000362376
0.000332553
0.000461823
0.000422806
0.00041644
0.000487474
0.000607157
0.000733207
0.000767563
0.000682315
0.00189507
0.00141271
0.00142049
0.00182201
0.000678134
0.000783629
0.000737132
0.000606637
0.000485653
0.000416717
0.000426328
0.000464102
0.000545226
0.000616457
0.000585353
0.000651753
0.000748994
0.000833505
0.000858617
0.000842196
0.00198338
0.00158228
0.00159675
0.0019147
0.000847322
0.000878138
0.000847866
0.000758687
0.000658051
0.000590745
0.000623428
0.000545187
0.000614787
0.000751514
0.00108411
0.00134446
0.00158437
0.0016345
0.00134312
0.00130559
0.0018934
0.00170598
0.00171778
0.00184459
0.00129777
0.00136304
0.00164724
0.00159022
0.0013472
0.00108827
0.000752041
0.00061351
0.000693313
0.000783226
0.000858133
0.000932487
0.00101214
0.00108719
0.00116485
0.00127165
0.0014083
0.00143151
0.00144468
0.00140085
0.00126507
0.00116058
0.00108406
0.00100948
0.000930038
0.000855885
0.000781092
0.000691337
0.000190166
0.000107669
0.00014295
0.00015833
0.000172294
0.000186177
0.000204334
0.0002238
0.000233503
0.000242453
0.000241823
0.000233274
0.000224137
0.00020458
0.000185788
0.000169729
0.000154009
0.000145519
0.000211613
7.58576e-05
0.000172803
0.00045777
0.000535603
0.000589362
0.000654874
0.000697942
0.000714103
0.000546837
0.00054702
0.000366442
0.000368591
0.000556945
0.000561532
0.000726978
0.000711097
0.000665971
0.000593788
0.00053448
0.000464749
0.000139923
0.000179519
0.000509696
0.000584882
0.000642555
0.000699451
0.000721966
0.000662923
0.000393808
0.00068034
0.000536164
0.000538692
0.000691266
0.000401082
0.000671516
0.000734042
0.000710333
0.000649097
0.000586583
0.000508464
0.000179745
0.000193747
0.000497255
0.000582715
0.000647688
0.000696773
0.000709143
0.00061843
0.000375865
0.000948046
0.000722508
0.000723071
0.000956854
0.000378747
0.000619249
0.000714888
0.000702713
0.000651419
0.000582351
0.000492895
0.000194362
0.000190211
0.000459389
0.000593298
0.000662745
0.000708336
0.000731167
0.000634784
0.000433105
0.00128477
0.000939294
0.000936254
0.00129307
0.000438147
0.000631061
0.000732211
0.000710708
0.000664362
0.000588234
0.000440447
0.000193386
0.000329156
0.000362353
0.000440766
0.00054639
0.000656748
0.000736928
0.000675452
0.000535446
0.00160603
0.00117981
0.00117194
0.00161159
0.00053308
0.000668692
0.000730969
0.000650536
0.000540704
0.000436929
0.00036114
0.000335279
0.000464789
0.000426002
0.000415995
0.000485185
0.000607267
0.000738782
0.000784276
0.000679907
0.00182299
0.00142044
0.00140717
0.00182407
0.000669841
0.000773627
0.000730643
0.000601981
0.00048258
0.000415556
0.000426863
0.000464062
0.00054695
0.000624215
0.000588287
0.000653104
0.000752278
0.000840768
0.000871713
0.000846763
0.00191939
0.00159681
0.0015794
0.00191417
0.000837801
0.00086829
0.000839399
0.000751481
0.000652869
0.000588081
0.000623373
0.000544072
0.000615848
0.000755363
0.00109095
0.0013437
0.00158134
0.0016328
0.00135526
0.00130035
0.00185087
0.00171793
0.00169982
0.00184378
0.00129118
0.00135637
0.00164093
0.00158086
0.00133828
0.00108298
0.000748079
0.000611618
0.000693963
0.000783485
0.000858022
0.00093157
0.00101063
0.00108524
0.00116229
0.00126698
0.00140248
0.00144459
0.00143056
0.00139383
0.00125917
0.00115539
0.00107944
0.00100522
0.000926123
0.000852498
0.000778089
0.000688742
9.56169e-05
0.000149591
0.000142666
0.000158558
0.000171334
0.000183077
0.000195453
0.000209853
0.000220105
0.000234329
0.000233289
0.000217651
0.000207266
0.000192761
0.000180532
0.000168373
0.000154043
0.000136583
0.000123663
0.000130731
0.00015147
0.000422588
0.000479354
0.000521091
0.000570509
0.000608146
0.000642009
0.000636119
0.000486229
0.000551206
0.000557012
0.000496306
0.000648885
0.000656923
0.000623673
0.000583543
0.000529975
0.000482696
0.000421051
0.000153633
0.000173621
0.000448993
0.000514335
0.000563517
0.000608408
0.000635863
0.000648285
0.000574614
0.000370414
0.000685489
0.000691364
0.000374448
0.000580542
0.000660864
0.00065083
0.000620897
0.000572425
0.000518244
0.000448613
0.000173928
0.000185236
0.000441943
0.00052236
0.000582934
0.000620109
0.000641513
0.000644636
0.00053346
0.000386111
0.000952979
0.000956935
0.00038807
0.00053194
0.000649534
0.000648724
0.000627098
0.000587784
0.00052324
0.000438325
0.000184196
0.000218885
0.000367863
0.000487134
0.00057246
0.000628285
0.000663338
0.000674078
0.000542615
0.000477491
0.00128853
0.00129308
0.000485354
0.000537901
0.000675072
0.00066627
0.000631375
0.000574074
0.000485837
0.000364483
0.000220257
0.000359344
0.000366066
0.000423675
0.00050589
0.000588217
0.000656704
0.000696569
0.000576117
0.000588999
0.00160718
0.0016115
0.000593074
0.000569559
0.000692135
0.000652846
0.00058518
0.000504231
0.000423205
0.000366405
0.000360357
0.000486349
0.000454432
0.000447794
0.000518574
0.000622055
0.000720671
0.000798289
0.00076483
0.000758654
0.00182084
0.00182393
0.00075405
0.00074865
0.000785415
0.000711382
0.000616547
0.000516302
0.00044697
0.0004533
0.000484046
0.000568869
0.000717882
0.000695895
0.000786201
0.000898903
0.00098738
0.00101683
0.000972669
0.000965959
0.00191357
0.00191402
0.000957517
0.000960569
0.0010061
0.000977957
0.000891545
0.000781366
0.000692491
0.000714354
0.000565646
0.000639803
0.000869431
0.00128365
0.00161632
0.0019075
0.0020362
0.0019237
0.00155754
0.00138005
0.00184386
0.00184364
0.00137282
0.00156206
0.00193627
0.00203741
0.00190319
0.00160649
0.00127396
0.000863574
0.000635946
0.00071601
0.000804406
0.000880179
0.000950862
0.00102243
0.00108718
0.00114718
0.00121099
0.00129412
0.00140059
0.0013938
0.00128681
0.00120429
0.00114151
0.00108196
0.00101741
0.00094582
0.00087524
0.00079968
0.000711668
0.000107661
0.000140685
0.000148478
0.000166769
0.000179373
0.000187699
0.000194086
0.000201445
0.000210462
0.000224979
0.000224181
0.000207331
0.000197055
0.000189269
0.000183147
0.000175378
0.000162433
0.000144957
0.000124227
0.000114166
0.000150912
0.000380838
0.000423669
0.000466015
0.000505079
0.000536611
0.000572969
0.000618211
0.000640933
0.000554425
0.000561666
0.000649006
0.000626765
0.000581278
0.000543928
0.000511151
0.0004704
0.000426833
0.00038041
0.000152362
0.000170162
0.000416234
0.00047551
0.000521606
0.000551127
0.000572039
0.000595552
0.000623712
0.00057937
0.000399218
0.000401201
0.000580672
0.000629402
0.000602587
0.000577875
0.000555415
0.000523866
0.000473523
0.000413631
0.000170071
0.000189874
0.000399949
0.000497276
0.00055652
0.000588024
0.000602555
0.000613171
0.000623721
0.000537196
0.000380011
0.000378846
0.00053205
0.000623878
0.000615123
0.000604335
0.000589863
0.000558224
0.000496628
0.000396182
0.000190837