/*--------------------------------*- C++ -*----------------------------------*\
| =========                 |                                                 |
| \\      /  F ield         | OpenFOAM: The Open Source CFD Toolbox           |
|  \\    /   O peration     | Version:  v1912                                 |
|   \\  /    A nd           | Website:  www.openfoam.com                      |
|    \\/     M anipulation  |                                                 |
\*---------------------------------------------------------------------------*/
FoamFile
{
    version     2.0;
    format      ascii;
    class       volScalarField;
    location    "400";
    object      k;
}
// * * * * * * * * * * * * * * * * * * * * * * * * * * * * * * * * * * * * * //

dimensions      [0 2 -2 0 0 0 0];


internalField   nonuniform List<scalar> 
4000
(
3.66085e-05
2.63696e-05
1.1387e-05
4.68904e-06
3.71434e-06
3.23798e-06
2.89072e-06
2.94305e-06
3.01056e-06
2.90243e-06
2.92252e-06
2.95617e-06
2.8869e-06
2.93703e-06
3.37543e-06
3.89011e-06
5.11151e-06
1.90824e-05
3.16374e-05
4.0053e-05
4.55797e-05
3.8064e-05
2.76016e-05
2.11478e-05
1.35995e-05
5.51756e-06
5.12717e-06
5.25808e-06
5.41309e-06
5.59086e-06
5.50362e-06
5.35237e-06
5.30507e-06
5.22154e-06
5.7845e-06
1.42541e-05
2.13842e-05
2.87785e-05
4.04792e-05
4.76242e-05
5.07509e-05
4.55497e-05
3.8144e-05
2.95341e-05
2.13087e-05
1.32828e-05
6.55581e-06
6.63935e-06
7.07232e-06
7.61134e-06
7.40984e-06
6.97308e-06
6.67796e-06
6.8545e-06
1.53182e-05
2.25701e-05
3.04878e-05
3.93385e-05
4.72793e-05
5.24067e-05
5.3973e-05
5.03804e-05
4.30464e-05
3.30256e-05
2.4618e-05
1.77561e-05
1.24629e-05
7.68549e-06
8.03464e-06
8.8447e-06
8.68343e-06
7.91136e-06
8.28042e-06
1.34964e-05
1.92026e-05
2.60329e-05
3.48434e-05
4.45873e-05
5.20312e-05
5.5493e-05
5.63798e-05
5.47047e-05
4.94694e-05
4.08805e-05
3.12007e-05
2.37024e-05
1.79575e-05
1.38371e-05
1.08538e-05
8.44898e-06
8.32621e-06
1.10149e-05
1.44136e-05
1.94432e-05
2.55866e-05
3.35486e-05
4.30409e-05
5.12387e-05
5.6356e-05
5.78523e-05
5.85069e-05
5.89811e-05
5.68515e-05
5.27853e-05
4.82646e-05
4.36671e-05
3.89819e-05
3.32168e-05
2.78647e-05
2.40606e-05
2.4855e-05
2.95241e-05
3.52818e-05
4.0949e-05
4.57629e-05
5.04104e-05
5.48551e-05
5.87134e-05
6.06585e-05
5.99657e-05
6.07534e-05
6.37484e-05
6.50781e-05
6.49601e-05
6.41586e-05
6.25891e-05
6.01805e-05
5.69543e-05
5.31628e-05
4.88783e-05
4.94805e-05
5.41893e-05
5.82972e-05
6.18005e-05
6.44242e-05
6.61206e-05
6.69447e-05
6.69668e-05
6.54695e-05
6.22162e-05
6.33493e-05
6.90814e-05
7.37138e-05
7.6886e-05
7.89934e-05
7.97956e-05
7.91686e-05
7.70743e-05
7.35154e-05
6.81598e-05
6.85775e-05
7.41909e-05
7.81644e-05
8.06047e-05
8.15023e-05
8.08712e-05
7.88322e-05
7.56183e-05
7.08357e-05
6.48181e-05
6.66223e-05
7.56649e-05
8.35384e-05
8.96683e-05
9.43547e-05
9.72451e-05
9.81306e-05
9.69518e-05
9.33871e-05
8.66738e-05
8.69758e-05
9.38856e-05
9.79744e-05
9.95987e-05
9.90305e-05
9.6315e-05
9.16866e-05
8.55083e-05
7.74668e-05
6.8104e-05
7.13336e-05
8.38348e-05
9.46444e-05
0.000103066
0.000109794
0.000114781
0.000117967
0.000119045
0.000117241
0.000110244
0.000110466
0.000117617
0.0001199
0.000119227
0.000116346
0.000111565
0.000104946
9.65338e-05
8.56088e-05
7.28286e-05
2.63941e-05
2.1247e-05
8.36166e-06
7.23594e-06
7.1098e-06
6.00272e-06
4.4866e-06
4.44905e-06
4.83724e-06
4.56569e-06
4.44255e-06
4.28121e-06
4.12989e-06
4.5278e-06
6.44094e-06
7.42397e-06
7.53784e-06
1.39729e-05
2.60954e-05
3.19737e-05
3.80775e-05
4.17579e-05
3.24825e-05
2.86769e-05
2.56456e-05
1.36675e-05
9.27695e-06
8.76343e-06
9.02658e-06
9.32557e-06
9.21011e-06
8.86023e-06
8.90884e-06
9.65475e-06
1.53465e-05
2.56545e-05
2.77523e-05
3.31666e-05
4.65596e-05
4.0718e-05
4.55488e-05
6.04877e-05
5.09606e-05
3.84749e-05
2.99327e-05
2.34446e-05
1.73162e-05
1.16176e-05
1.13143e-05
1.18134e-05
1.15966e-05
1.12472e-05
1.21777e-05
1.95889e-05
2.51695e-05
3.15672e-05
4.07777e-05
5.5005e-05
6.51053e-05
4.74968e-05
5.03793e-05
5.98026e-05
5.53269e-05
4.32892e-05
3.24348e-05
2.47766e-05
1.9635e-05
1.67039e-05
1.43527e-05
1.37033e-05
1.35498e-05
1.45873e-05
1.7224e-05
2.05698e-05
2.61009e-05
3.40497e-05
4.54442e-05
5.7655e-05
6.25405e-05
5.21928e-05
5.47035e-05
6.25646e-05
6.00669e-05
5.06399e-05
3.71912e-05
2.79289e-05
2.16849e-05
1.77203e-05
1.59161e-05
1.69504e-05
1.68349e-05
1.59116e-05
1.8049e-05
2.24941e-05
2.90439e-05
3.86125e-05
5.21643e-05
6.18101e-05
6.47056e-05
5.64453e-05
5.89801e-05
6.7119e-05
6.6393e-05
6.00135e-05
5.0129e-05
3.99418e-05
3.28076e-05
2.67761e-05
2.21788e-05
2.01738e-05
2.04116e-05
2.27483e-05
2.76759e-05
3.39812e-05
4.14256e-05
5.23867e-05
6.21166e-05
6.84464e-05
6.92352e-05
6.06781e-05
6.37468e-05
7.25725e-05
7.40068e-05
7.20089e-05
6.80782e-05
6.06052e-05
5.01811e-05
4.19939e-05
3.66282e-05
3.34187e-05
3.38494e-05
3.74074e-05
4.30247e-05
5.21064e-05
6.29067e-05
7.02926e-05
7.43276e-05
7.62769e-05
7.47645e-05
6.54112e-05
6.90793e-05
7.96135e-05
8.42102e-05
8.73677e-05
9.01244e-05
9.00397e-05
8.57977e-05
7.71584e-05
6.68614e-05
5.64022e-05
5.73214e-05
6.83676e-05
7.92197e-05
8.77869e-05
9.23613e-05
9.26752e-05
9.00036e-05
8.67316e-05
8.19393e-05
7.07325e-05
7.56628e-05
9.05396e-05
0.000102313
0.000111758
0.000119423
0.000123405
0.000122142
0.000116188
0.000105309
8.93642e-05
8.98084e-05
0.000106047
0.000117998
0.00012472
0.000126408
0.000122496
0.000114761
0.000105113
9.29433e-05
7.73627e-05
8.38326e-05
9.92384e-05
0.000113177
0.000124667
0.000134347
0.000141967
0.000147216
0.000149594
0.000148093
0.000140726
0.000140841
0.000148476
0.000150585
0.000148717
0.000143836
0.000136444
0.000126867
0.000115354
0.000101244
8.54871e-05
1.15914e-05
8.6058e-06
8.09916e-06
9.39432e-06
1.00171e-05
7.71179e-06
5.31128e-06
4.84148e-06
4.94705e-06
4.97472e-06
4.98926e-06
4.65631e-06
4.82752e-06
5.77792e-06
8.83541e-06
1.04698e-05
9.36758e-06
8.88888e-06
1.52573e-05
2.03544e-05
2.76016e-05
3.24054e-05
3.1272e-05
3.0889e-05
2.76706e-05
1.58997e-05
1.15749e-05
1.05404e-05
1.05768e-05
1.10251e-05
1.09309e-05
1.04681e-05
1.09407e-05
1.22585e-05
1.81853e-05
2.78531e-05
2.99163e-05
3.02377e-05
3.30064e-05
2.92269e-05
3.81331e-05
5.09448e-05
4.49563e-05
3.70745e-05
3.08514e-05
2.61035e-05
2.04941e-05
1.46702e-05
1.34692e-05
1.39054e-05
1.37439e-05
1.35114e-05
1.61035e-05
2.2513e-05
2.78186e-05
3.27826e-05
3.96228e-05
4.88593e-05
5.54447e-05
3.96338e-05
4.30377e-05
5.53262e-05
5.3761e-05
4.35192e-05
3.41797e-05
2.74879e-05
2.30284e-05
2.02215e-05
1.75723e-05
1.69005e-05
1.68028e-05
1.78389e-05
2.06267e-05
2.39197e-05
2.89843e-05
3.60674e-05
4.56968e-05
5.58182e-05
5.79758e-05
4.49129e-05
4.94646e-05
6.00686e-05
5.91771e-05
5.07349e-05
3.90622e-05
3.03538e-05
2.44949e-05
2.09888e-05
1.99817e-05
2.15948e-05
2.13489e-05
1.97027e-05
2.11381e-05
2.51037e-05
3.12958e-05
4.026e-05
5.21086e-05
6.04263e-05
6.19911e-05
5.14481e-05
5.6849e-05
6.63937e-05
6.55109e-05
5.79327e-05
4.65466e-05
3.68596e-05
2.99948e-05
2.48685e-05
2.1286e-05
2.01827e-05
2.00604e-05
2.13145e-05
2.52215e-05
3.06524e-05
3.78448e-05
4.80996e-05
5.97689e-05
6.75359e-05
6.8575e-05
5.87823e-05
6.50753e-05
7.40056e-05
7.51837e-05
6.9305e-05
5.88246e-05
4.93999e-05
4.07135e-05
3.35472e-05
2.81725e-05
2.51104e-05
2.52247e-05
2.84911e-05
3.41308e-05
4.17594e-05
5.0781e-05
6.05983e-05
7.16375e-05
7.76619e-05
7.63882e-05
6.69218e-05
7.37106e-05
8.42082e-05
9.21557e-05
9.31522e-05
8.76486e-05
7.86164e-05
7.09203e-05
6.13897e-05
5.11202e-05
4.14399e-05
4.17327e-05
5.2036e-05
6.28985e-05
7.27239e-05
8.06785e-05
9.04982e-05
9.61576e-05
9.51529e-05
8.68245e-05
7.55116e-05
8.35352e-05
0.000102312
0.000127997
0.00015183
0.000169272
0.000178767
0.000176374
0.00016422
0.000141131
0.000107788
0.000108596
0.000143326
0.000167916
0.000180777
0.000183313
0.000173391
0.000155677
0.000131496
0.000105204
8.53895e-05
9.46414e-05
0.000113175
0.000130186
0.000144737
0.000157331
0.00016759
0.000174893
0.000178564
0.000177405
0.000168955
0.000168941
0.000177789
0.000179663
0.000176569
0.000169661
0.000159628
0.000147123
0.000132526
0.000115312
9.63882e-05
4.72393e-06
7.26557e-06
9.40409e-06
1.12009e-05
1.1193e-05
8.83594e-06
6.90822e-06
5.80891e-06
5.47146e-06
5.48324e-06
5.52967e-06
5.57906e-06
6.28773e-06
7.64526e-06
9.79767e-06
1.16904e-05
1.14039e-05
9.41559e-06
7.68952e-06
5.33422e-06
2.11785e-05
2.86618e-05
3.08802e-05
2.99772e-05
2.50849e-05
1.61419e-05
1.31692e-05
1.21113e-05
1.23015e-05
1.31298e-05
1.29603e-05
1.22991e-05
1.26068e-05
1.41554e-05
1.8011e-05
2.58301e-05
2.94714e-05
2.97698e-05
2.75191e-05
2.16814e-05
2.95307e-05
3.84513e-05
3.70631e-05
3.31091e-05
2.90959e-05
2.60588e-05
2.05461e-05
1.62496e-05
1.53752e-05
1.60702e-05
1.5909e-05
1.55268e-05
1.73544e-05
2.26194e-05
2.78036e-05
3.09739e-05
3.53062e-05
3.97417e-05
4.11376e-05
3.0843e-05
3.30068e-05
4.32666e-05
4.35037e-05
3.78677e-05
3.19047e-05
2.73027e-05
2.42059e-05
2.15294e-05
1.94162e-05
1.92246e-05
1.91142e-05
1.95327e-05
2.18837e-05
2.49518e-05
2.88109e-05
3.38836e-05
4.02083e-05
4.59353e-05
4.60029e-05
3.5388e-05
4.08677e-05
5.06298e-05
5.07238e-05
4.46912e-05
3.67693e-05
3.02394e-05
2.55932e-05
2.29835e-05
2.25636e-05
2.3621e-05
2.32588e-05
2.21157e-05
2.30235e-05
2.61875e-05
3.12574e-05
3.81187e-05
4.62515e-05
5.23711e-05
5.2552e-05
4.33818e-05
5.27801e-05
6.00081e-05
5.79274e-05
5.12722e-05
4.27319e-05
3.50742e-05
2.92778e-05
2.51022e-05
2.25178e-05
2.2312e-05
2.20724e-05
2.24284e-05
2.53669e-05
2.98744e-05
3.60176e-05
4.41372e-05
5.30881e-05
6.00061e-05
6.24001e-05
5.49385e-05
6.49555e-05
7.20049e-05
6.93018e-05
6.16989e-05
5.33869e-05
4.55077e-05
3.85302e-05
3.24542e-05
2.72692e-05
2.41082e-05
2.40837e-05
2.7519e-05
3.30647e-05
3.94904e-05
4.67792e-05
5.50974e-05
6.3833e-05
7.18559e-05
7.44894e-05
6.69056e-05
7.68818e-05
8.73638e-05
9.31508e-05
8.85543e-05
8.62324e-05
8.20273e-05
7.60849e-05
6.69936e-05
5.50825e-05
4.27843e-05
4.28036e-05
5.62544e-05
6.9096e-05
7.8634e-05
8.47218e-05
8.91971e-05
9.18729e-05
9.63369e-05
9.00624e-05
7.87344e-05
8.96643e-05
0.000111755
0.000151831
0.000193599
0.000218917
0.000235372
0.000239625
0.00022842
0.000198867
0.000155794
0.000155141
0.000201649
0.000233315
0.000245455
0.000241114
0.000224229
0.00019815
0.000155871
0.000114904
9.15792e-05
0.000103062
0.000124665
0.000144736
0.000162523
0.000178402
0.000191906
0.000201964
0.000207513
0.000207183
0.000199513
0.000199169
0.000207514
0.000208654
0.000203731
0.000194077
0.000180797
0.00016498
0.00014712
0.000126818
0.000104806
3.74367e-06
7.18567e-06
1.00835e-05
1.11895e-05
1.08226e-05
9.09707e-06
7.74307e-06
6.81897e-06
6.5039e-06
6.72375e-06
6.70016e-06
6.73115e-06
7.42502e-06
8.59092e-06
1.00591e-05
1.15682e-05
1.17126e-05
1.06129e-05
7.62547e-06
4.00346e-06
1.36694e-05
2.56992e-05
2.76975e-05
2.51009e-05
1.99388e-05
1.55453e-05
1.38201e-05
1.34222e-05
1.44258e-05
1.63377e-05
1.59175e-05
1.42989e-05
1.38508e-05
1.48255e-05
1.71006e-05
2.15415e-05
2.57863e-05
2.7766e-05
2.56463e-05
1.50159e-05
2.13114e-05
2.99264e-05
3.08449e-05
2.90959e-05
2.71492e-05
2.39448e-05
1.91199e-05
1.66055e-05
1.68245e-05
1.8327e-05
1.80143e-05
1.67615e-05
1.73802e-05
2.10437e-05
2.59257e-05
2.88365e-05
3.10604e-05
3.29434e-05
3.1847e-05
2.30742e-05
2.45984e-05
3.24108e-05
3.4159e-05
3.18962e-05
2.87869e-05
2.60197e-05
2.3695e-05
2.11895e-05
2.00698e-05
2.07626e-05
2.05409e-05
2.00103e-05
2.16494e-05
2.44751e-05
2.73037e-05
3.05493e-05
3.40013e-05
3.63509e-05
3.45098e-05
2.65167e-05
3.11779e-05
3.71659e-05
3.90396e-05
3.67577e-05
3.25609e-05
2.84859e-05
2.53704e-05
2.374e-05
2.36806e-05
2.452e-05
2.41902e-05
2.3247e-05
2.36982e-05
2.58772e-05
2.94573e-05
3.38663e-05
3.82563e-05
4.05773e-05
3.90133e-05
3.39214e-05
4.82573e-05
5.0112e-05
4.65297e-05
4.27217e-05
3.7728e-05
3.26764e-05
2.84716e-05
2.55161e-05
2.41727e-05
2.5442e-05
2.52194e-05
2.41116e-05
2.58119e-05
2.91003e-05
3.36268e-05
3.90114e-05
4.42833e-05
4.83945e-05
5.26419e-05
5.04518e-05
6.41522e-05
6.80705e-05
5.88161e-05
5.33804e-05
4.86191e-05
4.36301e-05
3.87884e-05
3.42523e-05
3.01057e-05
2.81166e-05
2.82112e-05
3.06346e-05
3.51725e-05
3.99818e-05
4.50502e-05
5.02981e-05
5.52479e-05
6.08873e-05
7.04886e-05
6.60775e-05
7.89884e-05
9.01191e-05
8.76477e-05
8.62298e-05
8.97937e-05
9.11675e-05
8.87802e-05
8.12627e-05
6.8253e-05
5.30483e-05
5.31248e-05
6.99035e-05
8.41804e-05
9.22142e-05
9.46129e-05
9.31189e-05
8.93302e-05
9.07878e-05
9.2812e-05
8.07944e-05
9.43504e-05
0.00011942
0.000169273
0.000218919
0.000261559
0.000294741
0.000310718
0.000304164
0.000269387
0.0002107
0.000209521
0.000271276
0.000309445
0.000317284
0.000301368
0.000267727
0.000224486
0.000173726
0.000122692
9.62379e-05
0.000109791
0.000134344
0.000157329
0.000178401
0.000198573
0.000215855
0.00022924
0.000237712
0.000239883
0.00023507
0.000234441
0.00023995
0.000238689
0.000230923
0.000218002
0.000200964
0.000180828
0.000159646
0.00013641
0.000111446
3.26854e-06
6.0551e-06
7.81861e-06
8.84538e-06
9.09046e-06
8.54887e-06
7.92637e-06
7.48028e-06
7.50469e-06
8.10069e-06
7.99888e-06
7.75472e-06
8.12777e-06
8.80782e-06
9.53944e-06
1.00679e-05
9.81307e-06
8.85306e-06
6.58608e-06
3.41587e-06
5.52356e-06
1.36763e-05
1.59049e-05
1.61313e-05
1.55224e-05
1.44572e-05
1.38611e-05
1.4219e-05
1.61571e-05
1.91936e-05
1.83843e-05
1.56905e-05
1.45077e-05
1.47363e-05
1.57466e-05
1.71008e-05
1.79932e-05
1.82176e-05
1.57463e-05
5.88397e-06
1.32134e-05
2.34492e-05
2.60987e-05
2.60425e-05
2.39298e-05
2.04039e-05
1.74517e-05
1.64704e-05
1.77018e-05
2.01061e-05
1.94574e-05
1.73229e-05
1.69731e-05
1.89725e-05
2.26022e-05
2.60304e-05
2.7973e-05
2.80122e-05
2.54311e-05
1.59198e-05
1.77111e-05
2.47496e-05
2.74593e-05
2.72811e-05
2.6007e-05
2.43302e-05
2.20726e-05
2.01328e-05
2.00115e-05
2.15605e-05
2.11918e-05
1.9882e-05
2.05783e-05
2.29261e-05
2.54062e-05
2.73906e-05
2.89883e-05
2.92553e-05
2.64711e-05
1.96783e-05
2.36744e-05
2.78988e-05
3.03244e-05
3.02181e-05
2.84748e-05
2.62881e-05
2.44977e-05
2.35687e-05
2.37697e-05
2.5135e-05
2.48665e-05
2.34417e-05
2.34725e-05
2.48253e-05
2.70308e-05
2.95242e-05
3.14168e-05
3.15391e-05
2.92931e-05
2.57808e-05
4.36576e-05
3.99221e-05
3.68386e-05
3.50571e-05
3.26674e-05
2.9836e-05
2.72668e-05
2.56286e-05
2.55782e-05
2.84076e-05
2.82373e-05
2.555e-05
2.59063e-05
2.78356e-05
3.06561e-05
3.36708e-05
3.61386e-05
3.79972e-05
4.14999e-05
4.57532e-05
6.25809e-05
6.05923e-05
4.93888e-05
4.54969e-05
4.36236e-05
4.15575e-05
3.91421e-05
3.6628e-05
3.44409e-05
3.53171e-05
3.57688e-05
3.54153e-05
3.78862e-05
4.0536e-05
4.30081e-05
4.50785e-05
4.68915e-05
5.09356e-05
6.30228e-05
6.43736e-05
7.97901e-05
9.00326e-05
7.8614e-05
8.20236e-05
9.11648e-05
9.79983e-05
9.97606e-05
9.42305e-05
8.03306e-05
6.33523e-05
6.37652e-05
8.25016e-05
9.77617e-05
0.00010379
0.000101901
9.46624e-05
8.48891e-05
8.09762e-05
9.26607e-05
8.14558e-05
9.72408e-05
0.000123401
0.00017877
0.000235379
0.000294748
0.000340748
0.000365218
0.000359711
0.000312499
0.000237638
0.000236737
0.000314094
0.000364903
0.000372034
0.000347842
0.00030168
0.00024155
0.000183796
0.000126703
9.89967e-05
0.000114778
0.000141964
0.000167588
0.000191905
0.000215855
0.000236773
0.000253768
0.000265731
0.000271519
0.000271241
0.000270367
0.000271326
0.000266445
0.000255201
0.000238699
0.000218071
0.000194165
0.000169715
0.000143827
0.000116255
2.87239e-06
4.32877e-06
5.60052e-06
6.9819e-06
7.74828e-06
7.92108e-06
7.92803e-06
8.06211e-06
8.61168e-06
9.86451e-06
9.66941e-06
8.82257e-06
8.66698e-06
8.73943e-06
8.81563e-06
8.60975e-06
7.68287e-06
6.00639e-06
4.5641e-06
2.95042e-06
5.16007e-06
9.2459e-06
1.15959e-05
1.31651e-05
1.37948e-05
1.38465e-05
1.41116e-05
1.53477e-05
1.84496e-05
2.37794e-05
2.25292e-05
1.7657e-05
1.54076e-05
1.46981e-05
1.47468e-05
1.48437e-05
1.41662e-05
1.23225e-05
9.67768e-06
5.25338e-06
6.50269e-06
1.71824e-05
2.04542e-05
2.05129e-05
1.90922e-05
1.7438e-05
1.64086e-05
1.66843e-05
1.89608e-05
2.29223e-05
2.19615e-05
1.83216e-05
1.6866e-05
1.73263e-05
1.90251e-05
2.12014e-05
2.28884e-05
2.2842e-05
2.00517e-05
7.2519e-06
1.23904e-05
1.95888e-05
2.29899e-05
2.41754e-05
2.36729e-05
2.20617e-05
2.01991e-05
1.92721e-05
2.04558e-05
2.41638e-05
2.34415e-05
2.01265e-05
1.95493e-05
2.09308e-05
2.30112e-05
2.46337e-05
2.5143e-05
2.41479e-05
2.08446e-05
1.38081e-05
1.79176e-05
2.16455e-05
2.44585e-05
2.55642e-05
2.53504e-05
2.44878e-05
2.34942e-05
2.29972e-05
2.39689e-05
2.81308e-05
2.7472e-05
2.36325e-05
2.28809e-05
2.36094e-05
2.48762e-05
2.59718e-05
2.63332e-05
2.52809e-05
2.26626e-05
1.95591e-05
3.89651e-05
3.2783e-05
2.99703e-05
2.92561e-05
2.84559e-05
2.7259e-05
2.61231e-05
2.56324e-05
2.70773e-05
3.36366e-05
3.31828e-05
2.69867e-05
2.58043e-05
2.65346e-05
2.78431e-05
2.91329e-05
2.99344e-05
3.06966e-05
3.39597e-05
4.091e-05
6.01693e-05
5.01594e-05
4.06982e-05
3.85164e-05
3.87774e-05
3.91363e-05
3.90296e-05
3.87729e-05
3.93931e-05
4.59733e-05
4.67225e-05
4.07766e-05
4.02669e-05
4.05045e-05
4.05089e-05
3.99769e-05
3.953e-05
4.17904e-05
5.20396e-05
6.17396e-05
7.91623e-05
8.57858e-05
7.09131e-05
7.60792e-05
8.87762e-05
9.97589e-05
0.000104746
0.00010016
8.48676e-05
6.976e-05
7.06272e-05
8.7321e-05
0.000103948
0.000109026
0.000103861
9.23266e-05
7.88429e-05
7.3026e-05
8.81867e-05
8.0585e-05
9.81265e-05
0.000122136
0.000176371
0.000239632
0.00031073
0.000365223
0.000394474
0.000381547
0.000308811
0.000216658
0.000217696
0.000309079
0.000386092
0.000401291
0.000372766
0.000318186
0.000246299
0.000181502
0.000125136
9.961e-05
0.000117964
0.000147213
0.000174891
0.000201963
0.000229239
0.000253767
0.000274625
0.000290948
0.000302654
0.000311396
0.000310155
0.000302123
0.000291297
0.000275665
0.000255307
0.000231084
0.000203887
0.000176661
0.000148731
0.000119164
2.90532e-06
3.71707e-06
4.85239e-06
5.9297e-06
6.8369e-06
7.46663e-06
8.04928e-06
8.86936e-06
1.00501e-05
1.18777e-05
1.15716e-05
1.01458e-05
9.3271e-06
8.67705e-06
8.14524e-06
7.45836e-06
6.36545e-06
5.02854e-06
4.04134e-06
2.86779e-06
5.33252e-06
8.73127e-06
1.05639e-05
1.20869e-05
1.33755e-05
1.41887e-05
1.53303e-05
1.76574e-05
2.18541e-05
2.63606e-05
2.45809e-05
2.04941e-05
1.72712e-05
1.54468e-05
1.45437e-05
1.38766e-05
1.26473e-05
1.1006e-05
8.95722e-06
5.33265e-06
6.56931e-06
1.15239e-05
1.45866e-05
1.6197e-05
1.65693e-05
1.64482e-05
1.66732e-05
1.82414e-05
2.1811e-05
2.96135e-05
2.78776e-05
2.06539e-05
1.79701e-05
1.69384e-05
1.70649e-05
1.75118e-05
1.75514e-05
1.64094e-05
1.23576e-05
6.74421e-06
7.59528e-06
1.66529e-05
2.0159e-05
2.14814e-05
2.11565e-05
2.0112e-05
1.92619e-05
1.9797e-05
2.36458e-05
4.00346e-05
3.7641e-05
2.25937e-05
1.97183e-05
1.96396e-05
2.07243e-05
2.18608e-05
2.21204e-05
2.08221e-05
1.7306e-05
8.58872e-06
1.381e-05
1.76884e-05
2.09509e-05
2.29494e-05
2.37125e-05
2.35501e-05
2.29882e-05
2.31869e-05
2.79984e-05
5.89954e-05
5.3745e-05
2.67386e-05
2.29841e-05
2.2975e-05
2.3601e-05
2.38385e-05
2.31617e-05
2.12634e-05
1.8139e-05
1.45065e-05
3.31828e-05
2.67465e-05
2.48423e-05
2.50774e-05
2.54954e-05
2.56143e-05
2.56253e-05
2.64628e-05
3.31525e-05
8.06279e-05
7.53543e-05
3.21314e-05
2.64483e-05
2.58318e-05
2.59269e-05
2.5837e-05
2.54044e-05
2.52457e-05
2.76499e-05
3.51909e-05
5.69392e-05
4.19685e-05
3.35285e-05
3.24375e-05
3.42378e-05
3.66176e-05
3.87678e-05
4.15285e-05
4.98497e-05
0.000101409
9.78881e-05
5.08402e-05
4.31367e-05
4.02306e-05
3.78494e-05
3.51837e-05
3.31228e-05
3.41666e-05
4.29678e-05
5.82111e-05
7.70672e-05
7.71385e-05
6.13748e-05
6.69818e-05
8.12551e-05
9.42266e-05
0.000100158
9.46375e-05
8.37165e-05
0.000120354
0.000117927
8.6014e-05
9.83633e-05
0.000104184
9.80702e-05
8.45127e-05
6.94614e-05
6.32077e-05
7.9374e-05
7.81471e-05
9.69484e-05
0.000116181
0.000164206
0.000228413
0.000304169
0.000359717
0.000381549
0.000341625
0.000249809
0.000272375
0.000268207
0.000253653
0.000346374
0.000387438
0.000366589
0.000311029
0.00023472
0.000168883
0.000118504
9.80113e-05
0.000119044
0.000149592
0.000178561
0.000207511
0.00023771
0.000265729
0.000290945
0.000313754
0.000337603
0.000371123
0.000368571
0.000336694
0.000313634
0.000291372
0.000266621
0.000238904
0.000208833
0.000179743
0.000150581
0.000119845
3.35583e-06
3.72598e-06
4.56371e-06
5.54055e-06
6.51399e-06
7.47413e-06
8.57608e-06
1.00273e-05
1.11614e-05
1.28691e-05
1.2567e-05
1.1148e-05
1.0182e-05
8.86273e-06
7.79499e-06
6.78402e-06
5.68309e-06
4.68297e-06
3.82494e-06
3.01348e-06
5.50009e-06
8.91281e-06
1.05425e-05
1.22587e-05
1.43598e-05
1.61137e-05
1.84135e-05
2.18289e-05
2.4617e-05
6.74778e-05
6.30108e-05
2.30277e-05
2.06912e-05
1.78534e-05
1.58427e-05
1.44018e-05
1.23698e-05
1.05583e-05
8.94138e-06
5.40725e-06
6.99852e-06
1.12098e-05
1.33922e-05
1.52996e-05
1.67783e-05
1.76729e-05
1.89395e-05
2.17949e-05
3.19956e-05
0.000146245
0.000137655
3.00686e-05
2.08859e-05
1.86016e-05
1.75651e-05
1.69934e-05
1.57159e-05
1.36746e-05
1.13516e-05
7.02858e-06
7.95967e-06
1.4199e-05
1.74648e-05
1.93519e-05
2.00284e-05
1.9984e-05
2.04373e-05
2.36341e-05
4.77751e-05
0.000248915
0.000235816
4.4399e-05
2.28395e-05
2.0398e-05
2.01271e-05
2.02651e-05
1.97922e-05
1.80576e-05
1.46884e-05
7.87215e-06
1.0804e-05
1.58586e-05
1.99239e-05
2.25165e-05
2.3644e-05
2.37434e-05
2.39522e-05
2.79886e-05
7.67895e-05
0.000381244
0.000361848
6.87315e-05
2.69862e-05
2.38888e-05
2.36822e-05
2.34902e-05
2.23306e-05
1.98459e-05
1.59538e-05
1.11341e-05
2.77972e-05
2.21236e-05
2.12476e-05
2.24857e-05
2.41454e-05
2.55574e-05
2.70638e-05
3.31444e-05
0.000105331
0.000508234
0.00048231
9.54355e-05
3.22668e-05
2.71061e-05
2.56202e-05
2.41643e-05
2.24888e-05
2.13935e-05
2.27996e-05
2.95103e-05
5.31475e-05
3.65965e-05
2.81472e-05
2.7248e-05
3.00872e-05
3.44262e-05
3.93829e-05
4.98423e-05
0.000133944
0.000586238
0.000556823
0.000125193
5.07108e-05
4.06706e-05
3.53842e-05
3.07006e-05
2.76281e-05
2.85319e-05
3.73089e-05
5.40848e-05
7.35093e-05
6.68368e-05
5.11001e-05
5.50656e-05
6.82402e-05
8.03232e-05
8.48641e-05
8.37131e-05
0.00015763
0.000584849
0.000557275
0.000150464
8.6224e-05
8.78918e-05
8.31612e-05
7.05318e-05
5.67375e-05
5.23185e-05
6.83749e-05
7.41269e-05
9.33862e-05
0.000105306
0.000141105
0.000198859
0.000269386
0.000312508
0.000308827
0.000249816
0.000275018
0.000507742
0.000491048
0.00026969
0.00025435
0.000312044
0.000316948
0.000273543
0.000202785
0.000144187
0.000106416
9.38487e-05
0.000117242
0.000148093
0.000177404
0.00020718
0.00023988
0.000271514
0.000302645
0.000337592
0.000387038
0.000455167
0.000451634
0.000384546
0.000336453
0.00030204
0.000271373
0.000240032
0.000207513
0.000177682
0.000148309
0.000117483
2.45377e-06
4.7814e-06
4.81266e-06
5.63754e-06
6.76452e-06
8.06559e-06
9.80397e-06
1.18227e-05
1.28331e-05
1.37953e-05
1.35222e-05
1.26206e-05
1.16341e-05
9.71524e-06
8.03169e-06
6.72781e-06
5.56499e-06
4.68951e-06
4.78934e-06
2.93347e-06
5.38264e-06
9.43997e-06
1.101e-05
1.31115e-05
1.62741e-05
1.91542e-05
2.37353e-05
2.63181e-05
6.74207e-05
6.57011e-05
6.36327e-05
6.37175e-05
2.49482e-05
2.28191e-05
1.85847e-05
1.60583e-05
1.3006e-05
1.08551e-05
9.29321e-06
5.41399e-06
7.42361e-06
1.17002e-05
1.38308e-05
1.5988e-05
1.82729e-05
2.00734e-05
2.28926e-05
2.95785e-05
0.000146161
0.000118111
0.000115622
0.000138497
2.82257e-05
2.23111e-05
1.97192e-05
1.82575e-05
1.60694e-05
1.3866e-05
1.16289e-05
7.53396e-06
8.7232e-06
1.35821e-05
1.68047e-05
1.91595e-05
2.07202e-05
2.15293e-05
2.41371e-05
4.00033e-05
0.000248815
0.000180049
0.000178636
0.000236468
3.80539e-05
2.37579e-05
2.14174e-05
2.07743e-05
1.93344e-05
1.69705e-05
1.36146e-05
8.73617e-06
8.38308e-06
1.68113e-05
2.15125e-05
2.35667e-05
2.44794e-05
2.51039e-05
2.81043e-05
5.89537e-05
0.00038112
0.000255167
0.000256414
0.000361916
5.44001e-05
2.77211e-05
2.50508e-05
2.44146e-05
2.35219e-05
2.15157e-05
1.66133e-05
8.45403e-06
2.40458e-05
2.01243e-05
2.01322e-05
2.22726e-05
2.54089e-05
2.838e-05
3.36123e-05
8.05849e-05
0.000508086
0.000339201
0.000344384
0.000481479
7.54435e-05
3.32225e-05
2.82068e-05
2.51618e-05
2.20532e-05
2.01296e-05
2.05653e-05
2.52672e-05
4.88715e-05
3.3397e-05
2.5084e-05
2.40846e-05
2.80954e-05
3.52984e-05
4.59559e-05
0.000101365
0.000586075
0.000421159
0.000431324
0.000554818
9.72789e-05
4.64664e-05
3.56449e-05
2.81929e-05
2.41226e-05
2.52574e-05
3.38344e-05
4.93308e-05
6.81571e-05
5.63871e-05
4.14268e-05
4.2772e-05
5.30372e-05
6.33442e-05
6.97508e-05
0.000120312
0.000584685
0.000470399
0.000484472
0.000554189
0.000117343
7.11486e-05
6.45001e-05
5.37147e-05
4.31428e-05
4.17649e-05
5.70061e-05
6.81489e-05
8.66761e-05
8.93692e-05
0.000107791
0.000155803
0.000210714
0.000237662
0.000216664
0.000272323
0.000507625
0.000496565
0.00050895
0.000488197
0.000266867
0.000218068
0.000238631
0.000210632
0.000155376
0.00010786
8.90804e-05
8.63398e-05
0.00011025
0.000140729
0.000168956
0.000199513
0.000235066
0.000271232
0.000311375
0.000371086
0.000455118
0.000470328
0.000479123
0.000450451
0.000367366
0.000309183
0.00026974
0.00023389
0.00019852
0.000168119
0.000140004
0.000109658
2.52297e-06
4.39325e-06
4.79941e-06
5.62204e-06
6.71209e-06
7.96256e-06
9.62319e-06
1.15327e-05
1.25396e-05
1.35065e-05
1.3436e-05
1.25042e-05
1.15457e-05
9.62068e-06
7.93983e-06
6.6472e-06
5.51451e-06
4.66585e-06
3.69406e-06
3.79406e-06
5.37828e-06
9.38892e-06
1.09228e-05
1.29561e-05
1.58822e-05
1.83664e-05
2.25079e-05
2.45542e-05
6.29561e-05
6.35897e-05
6.39956e-05
6.46309e-05
2.53488e-05
2.30063e-05
1.86473e-05
1.60055e-05
1.29056e-05
1.09054e-05
9.06867e-06
5.77703e-06
7.36091e-06
1.15598e-05
1.37039e-05
1.58579e-05
1.79833e-05
1.94382e-05
2.19419e-05
2.78491e-05
0.000137549
0.000115563
0.000115563
0.000139378
2.83445e-05
2.22602e-05
1.96285e-05
1.80726e-05
1.58879e-05
1.37175e-05
1.15688e-05
7.51235e-06
8.62849e-06
1.34759e-05
1.67487e-05
1.90751e-05
2.05137e-05
2.11675e-05
2.34157e-05
3.75926e-05
0.00023561
0.000178567
0.000177264
0.000236859
3.79483e-05
2.35051e-05
2.11641e-05
2.04979e-05
1.90591e-05
1.67214e-05
1.34767e-05
8.65418e-06
8.30062e-06
1.67312e-05
2.12963e-05
2.32207e-05
2.41594e-05
2.48381e-05
2.74396e-05
5.36577e-05
0.000361499
0.000256344
0.000252854
0.000362436
5.45804e-05
2.73461e-05
2.4716e-05
2.41315e-05
2.32518e-05
2.11789e-05
1.62693e-05
8.56151e-06
2.48544e-05
2.03848e-05
2.00295e-05
2.2042e-05
2.51886e-05
2.82055e-05
3.31432e-05
7.52267e-05
0.000481818
0.000344324
0.000337988
0.000482413
7.50415e-05
3.27253e-05
2.78475e-05
2.49091e-05
2.18956e-05
2.00505e-05
2.0629e-05
2.56354e-05
4.9495e-05
3.38528e-05
2.52189e-05
2.40747e-05
2.81975e-05
3.57469e-05
4.66852e-05
9.77596e-05
0.000556262
0.000431287
0.000421749
0.000556187
9.64472e-05
4.56225e-05
3.51068e-05
2.78565e-05
2.39452e-05
2.52165e-05
3.39023e-05
4.93094e-05
6.85867e-05
5.73429e-05
4.17456e-05
4.28139e-05
5.31305e-05
6.3763e-05
7.06113e-05
0.000117822
0.000556759
0.000484476
0.000472652
0.000555064
0.000116237
7.00432e-05
6.3525e-05
5.2903e-05
4.26105e-05
4.15406e-05
5.6999e-05
6.78658e-05
8.69831e-05
8.98246e-05
0.000108625
0.000155165
0.000209533
0.00023673
0.000217661
0.000268065
0.000490723
0.000508975
0.000497012
0.000487674
0.00026518
0.000216169
0.000236713
0.000208443
0.000153511
0.000106917
8.84097e-05
8.58101e-05
0.000110471
0.000140842
0.000168937
0.000199155
0.000234414
0.000270322
0.000310087
0.000368471
0.000451509
0.000479137
0.000469724
0.000446049
0.000364023
0.000306472
0.00026749
0.000231953
0.000196878
0.000166809
0.000138943
0.000108844
3.07218e-06
3.91215e-06
4.66684e-06
5.64869e-06
6.72093e-06
7.72483e-06
8.79729e-06
1.01282e-05
1.11343e-05
1.26126e-05
1.25055e-05
1.08863e-05
9.86877e-06
8.53025e-06
7.47836e-06
6.50644e-06
5.47452e-06
4.58833e-06
3.97669e-06
2.78261e-06
5.40629e-06
8.90918e-06
1.05078e-05
1.22807e-05
1.42737e-05
1.56748e-05
1.76406e-05
2.04784e-05
2.30134e-05
6.36924e-05
6.46484e-05
2.33959e-05
2.0845e-05
1.77756e-05
1.56696e-05
1.41488e-05
1.21031e-05
1.03561e-05
8.83694e-06
5.35428e-06
6.93783e-06
1.12336e-05
1.34872e-05
1.55018e-05
1.67492e-05
1.73128e-05
1.83106e-05
2.06428e-05
3.00487e-05
0.000138447
0.000139406
3.02701e-05
2.08989e-05
1.84107e-05
1.72972e-05
1.66091e-05
1.52902e-05
1.33455e-05
1.11587e-05
6.95176e-06
7.87153e-06
1.45565e-05
1.78183e-05
1.95157e-05
1.99973e-05
1.98693e-05
2.01127e-05
2.25764e-05
4.43504e-05
0.000236342
0.00023689
4.45315e-05
2.26974e-05
2.00419e-05
1.97214e-05
1.98269e-05
1.93129e-05
1.75726e-05
1.43766e-05
7.7723e-06
1.1e-05
1.58877e-05
1.96796e-05
2.20941e-05
2.32275e-05
2.34236e-05
2.36141e-05
2.67121e-05
6.86321e-05
0.00036166
0.000362448
7.00497e-05
2.68101e-05
2.3507e-05
2.33267e-05
2.31651e-05
2.20196e-05
1.95381e-05
1.57291e-05
1.11191e-05
2.95421e-05
2.27498e-05
2.13082e-05
2.24151e-05
2.40946e-05
2.55309e-05
2.69644e-05
3.20953e-05
9.52784e-05
0.000481074
0.000482395
9.62151e-05
3.19457e-05
2.66986e-05
2.5275e-05
2.38913e-05
2.22997e-05
2.12959e-05
2.28232e-05
2.96582e-05
5.42038e-05
3.742e-05
2.84985e-05
2.75196e-05
3.06267e-05
3.53971e-05
4.07455e-05
5.07862e-05
0.000125015
0.000554324
0.000556143
0.000124973
4.95789e-05
3.9766e-05
3.47061e-05
3.02062e-05
2.72972e-05
2.83315e-05
3.71523e-05
5.36655e-05
7.41985e-05
6.84e-05
5.20597e-05
5.62705e-05
6.99066e-05
8.24904e-05
8.7299e-05
8.59766e-05
0.000150303
0.000553698
0.000555004
0.000149554
8.46519e-05
8.62256e-05
8.14204e-05
6.90134e-05
5.55899e-05
5.1529e-05
6.76667e-05
7.33559e-05
9.38883e-05
0.000106062
0.000143358
0.000201662
0.00027126
0.00031406
0.000309041
0.000253603
0.000269512
0.000487883
0.00048762
0.000266617
0.000252285
0.000310341
0.00031322
0.000269625
0.000199098
0.000141387
0.000104752
9.2766e-05
0.000117613
0.000148469
0.000177776
0.000207494
0.000239919
0.000271282
0.000302066
0.000336619
0.000384443
0.00045033
0.000446024
0.000380161
0.00033294
0.00029911
0.000268704
0.000237589
0.000205322
0.000175809
0.000146748
0.000116204
2.93008e-06
4.09104e-06
4.97007e-06
6.30361e-06
7.40173e-06
8.10765e-06
8.65418e-06
9.31794e-06
1.01732e-05
1.16276e-05
1.15482e-05
9.87395e-06
8.90926e-06
8.2091e-06
7.679e-06
7.03457e-06
6.02677e-06
4.83306e-06
4.04345e-06
2.80035e-06
5.3352e-06
8.92004e-06
1.09497e-05
1.25905e-05
1.38393e-05
1.44976e-05
1.53966e-05
1.72601e-05
2.06801e-05
2.49408e-05
2.53567e-05
2.0852e-05
1.71541e-05
1.51091e-05
1.41196e-05
1.34263e-05
1.21659e-05
1.06105e-05
8.76304e-06
5.25579e-06
6.63589e-06
1.21504e-05
1.60949e-05
1.73536e-05
1.73798e-05
1.69706e-05
1.68616e-05
1.79632e-05