/*--------------------------------*- C++ -*----------------------------------*\
| =========                 |                                                 |
| \\      /  F ield         | OpenFOAM: The Open Source CFD Toolbox           |
|  \\    /   O peration     | Version:  v1912                                 |
|   \\  /    A nd           | Website:  www.openfoam.com                      |
|    \\/     M anipulation  |                                                 |
\*---------------------------------------------------------------------------*/
FoamFile
{
    version     2.0;
    format      ascii;
    class       volScalarField;
    location    "400";
    object      nut;
}
// * * * * * * * * * * * * * * * * * * * * * * * * * * * * * * * * * * * * * //

dimensions      [0 2 -1 0 0 0 0];


internalField   nonuniform List<scalar> 
4000
(
0.000340883
0.000289811
0.000194879
0.00012153
0.000107349
9.99635e-05
9.75231e-05
0.000101231
9.34516e-05
7.80066e-05
7.74321e-05
0.000100318
0.000100384
9.6603e-05
0.000103078
0.000111048
0.000127472
0.000248125
0.000317254
0.000356005
0.000379461
0.000347254
0.000294847
0.000257914
0.00020705
0.000131532
0.000125565
0.000126706
0.000129449
0.000119587
0.000128295
0.000126714
0.000128304
0.000128062
0.000135113
0.000212533
0.000259841
0.000301673
0.000357538
0.000387701
0.000400175
0.00037913
0.000346867
0.000305363
0.000259717
0.000206109
0.000143862
0.000143931
0.000146911
0.000149257
0.000150885
0.000147335
0.000145063
0.000147046
0.000220737
0.000267017
0.000310041
0.000352125
0.000386163
0.000406521
0.000412574
0.000398626
0.00036847
0.000323004
0.000278943
0.000237151
0.000198793
0.000155594
0.000157598
0.000164988
0.000164756
0.000157515
0.000161871
0.00020662
0.000246464
0.000286684
0.000331568
0.000374848
0.000404986
0.000418235
0.00042162
0.00041532
0.000394948
0.000359156
0.000314014
0.000273859
0.000238665
0.000209151
0.000184823
0.000163333
0.000161889
0.00018616
0.000213153
0.000247932
0.000284312
0.000325507
0.000368415
0.000401818
0.000421419
0.000426985
0.000429466
0.000431201
0.000423342
0.000407945
0.000390119
0.000371157
0.000350841
0.000324283
0.000296771
0.000274928
0.000280406
0.000305987
0.000334101
0.000359462
0.000379891
0.000398644
0.000415781
0.000430099
0.000437165
0.000434679
0.000437607
0.000448253
0.000452894
0.000452486
0.000449687
0.000444168
0.000435571
0.000423775
0.00040945
0.000392611
0.00039507
0.000413395
0.000428713
0.000441342
0.000450563
0.000456422
0.000459234
0.000459292
0.000454139
0.000442731
0.000446832
0.000466586
0.000481954
0.000492197
0.000498884
0.000501411
0.000499452
0.000492815
0.000481318
0.000463478
0.000464881
0.000483488
0.00049623
0.000503885
0.000506652
0.000504672
0.000498268
0.000488013
0.00047235
0.000451866
0.000458203
0.000488271
0.000513016
0.000531478
0.000545168
0.000553447
0.00055597
0.000552626
0.000542374
0.000522514
0.000523395
0.000543766
0.000555463
0.000560026
0.000558399
0.000550684
0.000537299
0.000518901
0.000493928
0.00046315
0.000474094
0.00051391
0.000546003
0.000569746
0.000588026
0.000601218
0.000609499
0.000612275
0.000607621
0.000589229
0.000589775
0.000608525
0.00061439
0.000612656
0.0006052
0.000592637
0.000574801
0.000551304
0.000519203
0.00047892
0.00028999
0.000260184
0.000163403
0.000150774
0.000149051
0.00013869
0.000131942
0.000141181
0.000103882
0.000134798
0.000104891
0.000140465
0.000125217
0.000119983
0.00014256
0.000153618
0.000154615
0.0002138
0.000288436
0.00031888
0.000347321
0.000402403
0.000356364
0.00034973
0.000353705
0.000301003
0.000288468
0.000332153
0.000363208
0.000396038
0.00038766
0.000358508
0.000324225
0.0002839
0.000305723
0.000351277
0.000340214
0.000361163
0.000437782
0.000358662
0.000379127
0.000549085
0.000518482
0.00044433
0.000394946
0.000359322
0.000342003
0.000355456
0.00039334
0.00044221
0.000433559
0.000381688
0.000354315
0.000347367
0.000367795
0.000403031
0.000456858
0.000542322
0.000577627
0.000387112
0.000398628
0.000561369
0.000569169
0.000500583
0.000426294
0.000372996
0.00034305
0.000345313
0.000383659
0.000429283
0.000423364
0.000375445
0.000339973
0.000345768
0.000379889
0.000435641
0.000513289
0.000583171
0.000578203
0.000405665
0.000415328
0.000581186
0.000600506
0.000546096
0.000455138
0.000387522
0.000341084
0.000315335
0.000318079
0.00039538
0.000391301
0.000312682
0.000313778
0.000343774
0.000392258
0.000461706
0.000554003
0.000611004
0.000593962
0.000421792
0.00043121
0.000605809
0.000635628
0.000597286
0.000518975
0.000440395
0.000385161
0.000341222
0.000310683
0.000308576
0.000308575
0.000311278
0.000343902
0.000390388
0.000447825
0.000533092
0.000611613
0.000649004
0.000618494
0.000437262
0.000448251
0.000629086
0.000672928
0.000670962
0.000638372
0.000574665
0.000489702
0.000423633
0.00038133
0.000359726
0.000362266
0.000386209
0.00043045
0.000504097
0.000592238
0.000655232
0.000687631
0.000687877
0.00064207
0.000453948
0.00046658
0.000646442
0.000706087
0.000746436
0.000773041
0.000772663
0.0007417
0.000677704
0.000599001
0.000524307
0.000530629
0.000610089
0.000693506
0.000757048
0.000790078
0.000791535
0.000764125
0.000721291
0.000659371
0.000472005
0.000488266
0.000643683
0.000728163
0.000793771
0.000841434
0.000861099
0.000847183
0.000805583
0.000734374
0.00063878
0.00064195
0.000738878
0.00081595
0.000861573
0.000877519
0.000857867
0.000809136
0.000741544
0.000654275
0.000493592
0.000513905
0.000559086
0.000597013
0.000626547
0.000650389
0.000668564
0.00068081
0.000686285
0.000682831
0.00066563
0.000665845
0.000683634
0.000688456
0.000684157
0.000672819
0.000655302
0.000631901
0.000602578
0.000564563
0.000518828
0.00019673
0.000167368
0.00015988
0.000172808
0.000176585
0.000151256
0.000122375
0.000134825
0.000148833
0.00015281
0.000151152
0.0001326
0.000119926
0.000130619
0.000166767
0.000182461
0.000172448
0.000168143
0.000221927
0.000255864
0.000294809
0.000355761
0.000374393
0.000402133
0.000411537
0.000357656
0.000340223
0.000379392
0.000427694
0.000466954
0.000456978
0.000408274
0.000360214
0.000335106
0.000365755
0.000407814
0.000390047
0.000363189
0.000359898
0.000304192
0.00034684
0.000518315
0.000509699
0.000471912
0.000444383
0.000428457
0.000415484
0.000414741
0.000456258
0.000510533
0.000498008
0.000437521
0.000404174
0.000417426
0.000434495
0.000453583
0.000486343
0.000534003
0.000544309
0.000353552
0.000368472
0.00056915
0.000610254
0.000551822
0.000488271
0.000444591
0.000424758
0.000432387
0.000457437
0.000506701
0.000495989
0.000444037
0.000422619
0.000425038
0.000452976
0.000501171
0.000567101
0.000623515
0.000585303
0.000376325
0.000394984
0.000600507
0.000656799
0.000616963
0.00053287
0.000465229
0.000421209
0.000402797
0.000425778
0.000513726
0.000504743
0.000414045
0.000398223
0.000422687
0.000470785
0.00054143
0.000627828
0.000666234
0.000612507
0.000402727
0.00042337
0.000635626
0.000701042
0.000670389
0.000578511
0.000494041
0.000432044
0.000388276
0.000365108
0.000379889
0.000375004
0.000360058
0.000387087
0.000434682
0.000500315
0.000590833
0.000686737
0.000717289
0.000650214
0.000430408
0.000452894
0.000672914
0.000758349
0.000755155
0.000678265
0.000587814
0.000502654
0.00043218
0.000379265
0.000354225
0.000353651
0.000380414
0.00043675
0.000512551
0.000601884
0.000696923
0.000776436
0.000777769
0.000688833
0.000459168
0.000481945
0.000706071
0.000829957
0.00089266
0.000899767
0.0008435
0.000768781
0.000678632
0.00058259
0.000497705
0.00049991
0.00059116
0.000693579
0.000787699
0.000866136
0.000926047
0.000916444
0.000850516
0.000722107
0.00048768
0.00051301
0.000728158
0.000925818
0.00110133
0.00121913
0.00127359
0.00125957
0.00119696
0.00108054
0.000921224
0.000926774
0.00109068
0.00121493
0.00128206
0.00129749
0.00124177
0.00112229
0.000944143
0.000742279
0.000518546
0.000545999
0.000597014
0.000640255
0.000675043
0.000703765
0.000726332
0.000741991
0.000749737
0.000747296
0.000729267
0.000729169
0.000748009
0.000751926
0.000745402
0.000730652
0.000708718
0.000680415
0.00064582
0.000602472
0.000550885
0.000122634
0.000152048
0.000171863
0.000190061
0.00018876
0.000167798
0.000145658
0.000132293
0.000130454
0.000127811
0.000132395
0.000131392
0.000139778
0.000155445
0.000176068
0.000192261
0.000189998
0.000172653
0.000156083
0.000130051
0.000258238
0.000349684
0.000402087
0.000431619
0.000426339
0.000384036
0.000379742
0.000414893
0.000468253
0.000516027
0.000501206
0.000443071
0.000396297
0.000375426
0.0003921
0.000426128
0.000421453
0.000388779
0.000337967
0.000261768
0.00030544
0.000444134
0.000471815
0.000469048
0.000463355
0.000466625
0.000453507
0.000456177
0.000504032
0.000564273
0.000546924
0.000479077
0.000443256
0.000453807
0.000470396
0.000470655
0.00048
0.000486883
0.000458499
0.000311935
0.000322999
0.000500388
0.000551669
0.000531544
0.000499541
0.000478349
0.000474435
0.000485741
0.000512676
0.000565262
0.000551006
0.000495469
0.000472975
0.000471708
0.000486108
0.000513393
0.00054903
0.000569014
0.000517274
0.000334258
0.000359206
0.000546008
0.000616837
0.000600722
0.000549524
0.000502808
0.000472337
0.000465972
0.000502275
0.000577164
0.000563718
0.000486574
0.000459823
0.000474403
0.000510835
0.000561822
0.000615231
0.00063041
0.000557338
0.000369985
0.000407993
0.000597232
0.000670314
0.000660619
0.000601393
0.000536279
0.000483627
0.000447731
0.000435718
0.000471502
0.000464606
0.000429892
0.000447411
0.000488326
0.000545718
0.000616467
0.000680061
0.000689341
0.000614604
0.00041617
0.000452486
0.000670919
0.000755107
0.000759108
0.000708656
0.000634818
0.000561004
0.000494704
0.000439229
0.000414468
0.000412347
0.000440491
0.000501468
0.000572931
0.000651389
0.000730516
0.000783326
0.00077862
0.000689729
0.000459139
0.000492188
0.000746396
0.000892629
0.00096975
0.000980688
0.000936
0.000863084
0.00076796
0.000657188
0.000554007
0.000554844
0.000667719
0.000786457
0.000886197
0.000962246
0.00101063
0.00100033
0.000917751
0.000765139
0.000497977
0.000531471
0.000793757
0.00110133
0.00139663
0.00156429
0.0016231
0.00160434
0.00151838
0.0013589
0.0011424
0.00114152
0.0013731
0.00154099
0.00163103
0.00164991
0.00159036
0.00142126
0.00112372
0.00081041
0.000536998
0.000569744
0.000626548
0.000675045
0.000715273
0.000749365
0.000777203
0.000797308
0.000808187
0.000807533
0.000792439
0.000791666
0.000808065
0.000810269
0.000800631
0.000781414
0.000754196
0.000720479
0.000680413
0.000631786
0.000574417
0.000109464
0.000153019
0.000179174
0.000188427
0.000185345
0.000170057
0.000156412
0.000146191
0.000142943
0.000143858
0.000145321
0.000145564
0.000153113
0.000164846
0.000178273
0.000191065
0.000192366
0.000183185
0.000155363
0.000112533
0.000208136
0.000354305
0.000411838
0.000426459
0.000412029
0.000397191
0.000410657
0.000449854
0.000514942
0.000578048
0.000556917
0.000484931
0.000429223
0.000403088
0.000402818
0.000419288
0.000425732
0.000406867
0.000350533
0.000218263
0.00025991
0.000394945
0.000444342
0.000463346
0.000478423
0.000480799
0.000468703
0.000485453
0.000546377
0.000616318
0.000594756
0.000516936
0.000468289
0.000468295
0.00048506
0.000482073
0.000471101
0.000454209
0.000404075
0.000270068
0.000278936
0.000426076
0.000488046
0.000499432
0.000496915
0.00049619
0.000501696
0.000511855
0.000548409
0.000609247
0.000592481
0.000527028
0.000499763
0.000497633
0.00050055
0.000507803
0.000514407
0.000503458
0.000438927
0.000289403
0.000313949
0.000454907
0.000532609
0.000549375
0.000534526
0.000514084
0.000501497
0.000509431
0.000550673
0.000616549
0.000602331
0.000534023
0.000501598
0.000502865
0.000522087
0.000546808
0.000563288
0.000544573
0.000465047
0.000327487
0.000390165
0.000518831
0.000578307
0.000601253
0.000584365
0.000550799
0.000518245
0.000497899
0.000504454
0.000565033
0.000558311
0.00049984
0.000499722
0.00052548
0.000562588
0.00059997
0.000618426
0.000594532
0.000536139
0.000398903
0.000449683
0.000638296
0.000678146
0.000708555
0.000704583
0.000668424
0.00061859
0.000567039
0.000522861
0.000516098
0.000516035
0.000528376
0.000578605
0.000634791
0.000688508
0.00072807
0.000732667
0.000700683
0.000657885
0.000456321
0.000498872
0.00077298
0.000899698
0.000980628
0.00101813
0.0010009
0.000947836
0.000862499
0.00074868
0.000636493
0.000639002
0.000763379
0.000886102
0.000975739
0.00103026
0.00104921
0.00101222
0.000928792
0.000793557
0.000504457
0.000545162
0.00084141
0.00121911
0.00156429
0.00174708
0.00184237
0.00185965
0.00178701
0.00161043
0.00134616
0.00134343
0.00162054
0.00180992
0.00188893
0.00187155
0.00177542
0.00159199
0.00124444
0.000859735
0.000550483
0.000588025
0.00065039
0.000703768
0.000749368
0.000790578
0.000824248
0.000849419
0.000864971
0.000868902
0.00086012
0.00085886
0.00086889
0.000866599
0.000852363
0.000828153
0.000795134
0.000754269
0.000708768
0.00065523
0.000592324
0.000102619
0.000140897
0.000158564
0.000168247
0.000169969
0.000164638
0.000158356
0.000153646
0.00015388
0.00015939
0.000158865
0.000156375
0.000160202
0.000166862
0.000173663
0.000178395
0.000176243
0.000167497
0.0001445
0.000103997
0.000132821
0.000300875
0.000357487
0.000383419
0.000396742
0.000410533
0.000434755
0.000479022
0.000551014
0.0006168
0.000593366
0.000516805
0.000455986
0.000424016
0.000409597
0.000402779
0.000391478
0.000364201
0.000304095
0.000136526
0.000205214
0.000359296
0.000428316
0.000466347
0.000480552
0.000476696
0.000476836
0.00050556
0.000573265
0.000635513
0.000613716
0.000540259
0.000486038
0.000472982
0.000481936
0.0004858
0.000471209
0.000434874
0.000368299
0.000224686
0.000236818
0.0003727
0.000444226
0.000478039
0.000495994
0.000507466
0.000512429
0.000523812
0.00056614
0.000617392
0.000602891
0.000545207
0.000512086
0.00050823
0.000508023
0.000501377
0.000487566
0.000454919
0.000382223
0.000249513
0.000273596
0.000387195
0.000464854
0.000502507
0.000513915
0.000515065
0.000518757
0.000537089
0.000578985
0.000631664
0.000621597
0.000563785
0.000527949
0.000517586
0.000520184
0.000522889
0.000512594
0.000473242
0.000394404
0.000285648
0.00037117
0.000440209
0.000493765
0.000536024
0.000550653
0.000546067
0.000536157
0.000535002
0.000561403
0.000630691
0.000626371
0.000558026
0.000537689
0.00054381
0.000557196
0.000563411
0.000547759
0.00050286
0.000449273
0.000379972
0.00044416
0.000574548
0.000587655
0.000634639
0.000668311
0.000670172
0.000649645
0.000621103
0.00060099
0.000623124
0.00062772
0.000612116
0.000636838
0.000668331
0.000690709
0.000689313
0.000653651
0.000604726
0.000594183
0.000450439
0.000501397
0.00077258
0.000843416
0.000935909
0.00100085
0.00101931
0.000996006
0.000928129
0.000819359
0.000708156
0.000714113
0.00083851
0.000955995
0.00102747
0.00105055
0.00103093
0.000964416
0.000869646
0.00079357
0.000506538
0.000553441
0.000861069
0.00127357
0.00162311
0.00184238
0.00197875
0.00201923
0.00194206
0.00172168
0.00138852
0.00138705
0.00172995
0.00196363
0.00204893
0.00200967
0.00187286
0.00165241
0.00130123
0.000880238
0.000558329
0.000601217
0.000668566
0.000726337
0.000777208
0.000824252
0.000863256
0.000893696
0.000914511
0.000924397
0.000923891
0.000922274
0.000923927
0.000915589
0.000896054
0.000866582
0.000828291
0.000781605
0.000730784
0.000672812
0.000604967
9.62644e-05
0.000113865
0.000138169
0.000149951
0.000157055
0.000158329
0.000158192
0.000159404
0.00016471
0.00017618
0.000174524
0.000166693
0.000165332
0.000166139
0.000166923
0.000164992
0.000155946
0.000137768
0.000120232
9.70497e-05
0.000129251
0.000286873
0.000340062
0.000379449
0.000410122
0.000434456
0.000463885
0.000511376
0.000577181
0.000627109
0.000607203
0.000545619
0.000486855
0.000448158
0.000424487
0.000403222
0.000374594
0.000334414
0.000282616
0.000129132
0.000143254
0.00034084
0.000414932
0.00045294
0.000468192
0.000476563
0.000491304
0.000526972
0.000576932
0.000574109
0.000563493
0.000550845
0.000505994
0.000480755
0.000473954
0.000469817
0.000455262
0.000418067
0.000347849
0.000152434
0.000197846
0.000342341
0.000424131
0.000473901
0.000501287
0.000512209
0.000516495
0.000532924
0.000562085
0.00052539
0.000525583
0.000547808
0.000521062
0.000510783
0.000509504
0.000499456
0.000473378
0.00042641
0.000347163
0.000209051
0.000237974
0.000340539
0.000420676
0.000471877
0.000501158
0.000518578
0.00053335
0.000555232
0.000582019
0.000533744
0.000539378
0.000572825
0.000545769
0.000528452
0.000518409
0.000504203
0.000476172
0.000424574
0.000345349
0.000248935
0.000350782
0.000384901
0.00043169
0.00048327
0.000517969
0.000536011
0.000546979
0.000563284
0.000592354
0.000566558
0.000573842
0.000591837
0.000565015
0.000552843
0.000544172
0.000526455
0.000489942
0.000436221
0.000390931
0.000359425
0.000435556
0.000489517
0.000502446
0.000560768
0.00061839
0.000649538
0.000656654
0.000655508
0.00066121
0.000652123
0.000666156
0.000677995
0.000673765
0.000675661
0.000668297
0.000635497
0.000574616
0.000514213
0.000504445
0.000441176
0.000499436
0.000741579
0.000768658
0.00086297
0.000947757
0.000995973
0.000997016
0.000942899
0.000841235
0.000729361
0.000740323
0.000863523
0.00097298
0.00102992
0.00102773
0.000976746
0.000888716
0.0007916
0.000761575
0.000503857
0.000555962
0.000847143
0.00125954
0.00160435
0.00185968
0.00201925
0.00206108
0.00194574
0.00163271
0.00114082
0.00115113
0.0016344
0.00196511
0.00209012
0.00205098
0.00189218
0.00163527
0.00128741
0.000865328
0.000560084
0.000609497
0.00068081
0.000741994
0.000797313
0.000849422
0.000893697
0.00092969
0.000956906
0.000975943
0.000989907
0.000987782
0.000974935
0.000957333
0.0009313
0.000896247
0.000852675
0.000800955
0.00074561
0.000684199
0.000612495
0.000104131
8.7344e-05
0.000125683
0.000138879
0.000148092
0.000153824
0.000159283
0.000167035
0.000177782
0.000193323
0.000190793
0.000178629
0.000171364
0.000165399
0.000160333
0.000153499
0.000141883
0.000125522
0.000111441
9.68953e-05
0.000133593
0.000330318
0.000378394
0.00041421
0.0004489
0.000478387
0.000511007
0.000549188
0.00056534
0.000483311
0.000465
0.00054056
0.000525231
0.000488911
0.000458518
0.000431271
0.000397412
0.00035953
0.000323441
0.000129978
0.000143982
0.000354593
0.000413902
0.000455154
0.000484641
0.000505045
0.00052671
0.000547062
0.000498751
0.000345769
0.000334684
0.000488186
0.000529908
0.000508691
0.000489475
0.000471677
0.000445966
0.000406072
0.000356597
0.000145626
0.000154519
0.000344563
0.000431348
0.000484836
0.000511177
0.000523359
0.000532699
0.000537637
0.000451428
0.000329857
0.000319382
0.000453192
0.000529975
0.000523432
0.000515382
0.000503358
0.000475794
0.000423706
0.000338592
0.000165124
0.000208471
0.000314779
0.000402147
0.000465364
0.000508921
0.000536727
0.000555047
0.000560192
0.000454152
0.000389805
0.000368126
0.000460907
0.00055534
0.000547652
0.000530391
0.000504
0.000461965
0.000399784
0.000314529
0.000214011
0.000323837
0.000340829
0.000387845
0.000447277
0.000497501
0.000534717
0.000563138
0.000579029
0.000478917
0.0004723
0.000455072
0.000489274
0.000581528
0.000565659
0.000538475
0.000500843
0.000448865
0.000388301
0.000344254
0.000333756
0.000423734
0.000423406
0.000431924
0.000494412
0.000566764
0.000620904
0.000655408
0.000680669
0.000622375
0.000579626
0.00057761
0.000649413
0.0007009
0.00067337
0.000636741
0.000579538
0.000503351
0.000438385
0.000430794
0.000428441
0.000492795
0.000677508
0.00067843
0.000767788
0.000862382
0.000928066
0.000942874
0.000898276
0.000801233
0.000715417
0.000719235
0.000825988
0.000928283
0.000974205
0.00095788
0.000888765
0.000790279
0.000697916
0.000696675
0.000496208
0.000552615
0.000805532
0.00119688
0.00151833
0.00178702
0.00194209
0.00194576
0.00173262
0.00130814
0.00110925
0.00110482
0.00132317
0.00175219
0.00197006
0.00197022
0.00181648
0.00154792
0.00122234
0.000820673
0.00055559
0.000612272
0.000686282
0.000749734
0.000808186
0.00086497
0.000914507
0.000956901
0.000993685
0.00103074
0.00108069
0.00107679
0.00102917
0.000993336
0.000957457
0.000915898
0.000867
0.000810629
0.000752099
0.000688449
0.000614248
0.00014884
9.46615e-05
0.000111871
0.000132631
0.000144906
0.000154269
0.000164495
0.000177541
0.000187267
0.0002012
0.000198787
0.000187168
0.000178907
0.000166983
0.000156682
0.00014632
0.000134328
0.000123389
9.8373e-05
0.00010578
0.000136608
0.000367072
0.000423861
0.000466647
0.000513618
0.000550146
0.000576491
0.000564913
0.000432704
0.000484165
0.000465039
0.000413117
0.000544553
0.000551566
0.00052324
0.000490578
0.000446595
0.000408873
0.000356837
0.000131597
0.000149006
0.000392975
0.000454539
0.000502304
0.000545247
0.000572546
0.00057644
0.000498468
0.000327531
0.000607976
0.000578173
0.000314641
0.000492234
0.000558322
0.00054865
0.000524971
0.000484535
0.00044023
0.000381518
0.000148525
0.0001579
0.000382231
0.000455699
0.000511425
0.000547495
0.000565509
0.000561683
0.000451238
0.000343929
0.000844315
0.000805787
0.000328036
0.000456365
0.000553926
0.00055195
0.000533514
0.00050076
0.000446718
0.0003731
0.000157153
0.00018419
0.000317116
0.000424751
0.000501391
0.000549945
0.000578442
0.000581678
0.000454016
0.000439203
0.001143
0.00109217
0.00040583
0.000463456
0.000577528
0.000568776
0.00053877
0.000490299
0.000415888
0.000312317
0.000187334
0.000296275
0.000310053
0.000364477
0.000435093
0.000503904
0.000560974
0.00059208
0.000478815
0.000536042
0.00142521
0.0013654
0.00050063
0.000490691
0.000593777
0.000559485
0.0005011
0.000431251
0.000361321
0.000311836
0.000305942
0.000409446
0.000381032
0.000378915
0.000438851
0.0005225
0.000600696
0.000661013
0.000622296
0.000664032
0.00161051
0.00154983
0.0006446
0.000648787
0.000676927
0.0006119
0.00052972
0.000442787
0.000381979
0.000386111
0.000413054
0.000481299
0.000598776
0.000582339
0.000656951
0.000748504
0.000819247
0.000841168
0.000801197
0.000827858
0.00168557
0.00163162
0.000820608
0.000827948
0.000867007
0.00084308
0.00076864
0.00067305
0.000595593
0.000612304
0.000483301
0.000542364
0.00073434
0.00108045
0.00135881
0.0016104
0.0017217
0.00163276
0.00130816
0.00118158
0.00160899
0.00157305
0.00117259
0.00132955
0.00164824
0.00174296
0.00163172
0.00138002
0.0010977
0.000743005
0.000543666
0.000607619
0.000682827
0.00074729
0.000807527
0.000868894
0.000924385
0.000975926
0.00103072
0.00110362
0.00119682
0.00119195
0.00109984
0.00102878
0.000974784
0.000923995
0.000869025
0.000808048
0.000747762
0.000683226
0.00060816
5.4244e-05
0.000170741
0.000125639
0.000133894
0.000147787
0.00016063
0.000176144
0.000192913
0.000200839
0.000208254
0.000206179
0.000199154
0.00019119
0.000174717
0.00015886
0.000145267
0.000131736
0.00012082
0.000179738
6.80778e-05
0.000116474
0.00040186
0.000464131
0.000515129
0.000577137
0.000616199
0.000626471
0.000482753
0.000483672
0.000318329
0.000311458
0.000468362
0.000471119
0.000612824
0.000598797
0.000561549
0.000502392
0.000452307
0.000392479
0.000118389
0.000151277
0.000441579
0.000508773
0.000562378
0.000615082
0.000634764
0.000573562
0.000345389
0.000607652
0.000465142
0.000455616
0.000582377
0.000339133
0.000569871
0.000620845
0.000601629
0.000550602
0.000498318
0.000431774
0.000152869
0.00016473
0.000427909
0.000504972
0.000563886
0.000608306
0.000616718
0.000524949
0.000329593
0.000844003
0.000622813
0.000613886
0.000809742
0.000322749
0.000529925
0.000608448
0.000598172
0.000555138
0.000497292
0.000421292
0.000165619
0.000162119
0.000393138
0.000512369
0.000576142
0.000615724
0.000631038
0.00053336
0.000389542
0.00114264
0.000803771
0.000798006
0.00109508
0.000372135
0.000542022
0.00062519
0.000606247
0.000567456
0.000505219
0.000381812
0.000163129
0.000276247
0.000308363
0.000379122
0.000470718
0.000564349
0.000630144
0.000566227
0.000472069
0.00142481
0.0010028
0.00100227
0.00136608
0.000456015
0.000574378
0.000625375
0.000556085
0.000462104
0.000373544
0.000308149
0.000283615
0.000392746
0.000359536
0.000353839
0.000414028
0.00051567
0.000622753
0.000651887
0.000579421
0.00161009
0.0012001
0.0012066
0.00154773
0.000575628
0.000665333
0.000625951
0.000515187
0.000412507
0.000354117
0.000362508
0.000394583
0.000463465
0.000524178
0.00049752
0.000553797
0.000636306
0.000708008
0.000729252
0.000715247
0.00168516
0.00134415
0.00135634
0.00162649
0.000719419
0.000745737
0.000720154
0.00064453
0.000559182
0.000502181
0.000530217
0.000463408
0.000522508
0.000638812
0.000921193
0.00114238
0.00134616
0.00138859
0.00114089
0.00110909
0.00160869
0.00144925
0.00145918
0.00156697
0.00110228
0.00115778
0.00139939
0.00135106
0.00114467
0.000924711
0.000639266
0.000521418
0.00058923
0.000665625
0.000729256
0.000792431
0.000860105
0.000923866
0.000989866
0.00108063
0.00119674
0.00121641
0.00122752
0.00119031
0.00107494
0.000986152
0.00092113
0.000857774
0.000790295
0.000727303
0.000663774
0.000587531
4.95107e-05
0.00013913
0.000126171
0.000135116
0.000147603
0.00015946
0.000174309
0.000190395
0.000198438
0.000205969
0.000205423
0.000198168
0.00019043
0.000173889
0.000158089
0.000144879
0.000132224
0.000119491
7.38641e-05
0.000161576
0.000115283
0.000394837
0.000455045
0.000500623
0.000556433
0.000593126
0.000606936
0.000464778
0.000464633
0.000311224
0.000313049
0.000473016
0.000477097
0.000617576
0.000603975
0.000565647
0.000504498
0.000455141
0.000384591
0.000147589
0.000150523
0.000433446
0.000496864
0.000545653
0.000594007
0.000613301
0.000563277
0.00033451
0.000577811
0.000455377
0.000457516
0.000586943
0.000340646
0.000570526
0.000623498
0.000603329
0.000551266
0.000498311
0.000431665
0.000154206
0.000163898
0.000422302
0.000494857
0.000550068
0.000591835
0.000602409
0.000525366
0.000319121
0.000805188
0.000613646
0.000614125
0.000812401
0.000321512
0.000526081
0.00060723
0.000596889
0.000553336
0.000494646
0.000418633
0.00016466
0.000161451
0.00038928
0.000503694
0.000562882
0.00060166
0.000621064
0.000539142
0.00036771
0.00109127
0.000797777
0.000795222
0.0010979
0.000371856
0.000536034
0.00062188
0.000603611
0.000564243
0.000499419
0.00037342
0.000164301
0.000280834
0.00030818
0.000374286
0.000463845
0.000557625
0.000625796
0.000573559
0.000454524
0.00136423
0.00100207
0.000995449
0.0013684
0.000452384
0.000567883
0.000620652
0.00055225
0.00045895
0.000370978
0.000306942
0.000285567
0.000395219
0.000362242
0.000353453
0.00041206
0.000515704
0.000627365
0.000665892
0.000577142
0.00154858
0.00120646
0.00119532
0.00154892
0.000568568
0.000656964
0.000620479
0.000511231
0.000409886
0.000353134
0.000362975
0.000394528
0.000464898
0.000530786
0.000500004
0.0005549
0.000639016
0.00071406
0.000740222
0.000718929
0.00163051
0.00135629
0.00134167
0.00162553
0.000711339
0.000737441
0.000712982
0.000638406
0.000554773
0.000499929
0.000530215
0.000462453
0.000523398
0.000642074
0.000926962
0.00114166
0.0013435
0.00138706
0.00115111
0.00110448
0.00157233
0.00145919
0.00144394
0.00156593
0.0010966
0.00115218
0.00139399
0.00134304
0.00113703
0.000920226
0.000635905
0.000519809
0.000589771
0.000665824
0.00072913
0.000791609
0.000858773
0.00092215
0.000987613
0.00107656
0.00119169
0.00122741
0.00121559
0.00118427
0.00106986
0.000981693
0.000917175
0.000854125
0.000786944
0.00072441
0.000661215
0.000585322
0.000109699
0.000101658
0.000122982
0.000135056
0.00014687
0.000156388
0.000166377
0.000178342
0.000186963
0.000199051
0.000198169
0.000184898
0.000176112
0.000163842
0.000153509
0.000143291
0.000131669
0.000123136
0.000117164
8.23301e-05
0.000130132
0.000357617
0.000407426
0.000442479
0.000484538
0.000516569
0.000545355
0.000540379
0.000413058
0.000468209
0.000473074
0.000421503
0.000551063
0.000557751
0.000529447
0.000495372
0.000449834
0.000410416
0.000358259
0.000129169
0.000146974
0.000381609
0.000436792
0.000478382
0.000516601
0.00054004
0.000550681
0.000488175
0.000314574
0.000582207
0.000587035
0.000317935
0.000493173
0.00056124
0.000552621
0.000527183
0.000486011
0.000440052
0.000380891
0.000147869
0.000156647
0.00037525
0.000443599
0.000495038
0.000526717
0.000544944
0.000547612
0.000453167
0.000327811
0.000809376
0.000812484
0.000329394
0.00045192
0.000551708
0.000550974
0.000532606
0.000499256
0.000444433
0.000372189
0.000156003
0.000185943
0.000312189
0.000413575
0.000486158
0.000533664
0.000563464
0.000572568
0.000460827
0.0004054
0.00109443
0.00109792
0.000411867
0.00045693
0.000573385
0.000565878
0.000536211
0.000487476
0.000412498
0.000309453
0.000187217
0.000305746
0.000310997
0.000359731
0.000429545
0.000499499
0.000557689
0.000591529
0.000489133
0.000500012
0.00136515
0.00136835
0.000503254
0.000483741
0.000587813
0.000554418
0.000496925
0.000428171
0.000359423
0.000311475
0.000306853
0.00041345
0.000386273
0.000380419
0.000440412
0.000528216
0.000611863
0.000677649
0.000649105
0.000643963
0.00154667
0.00154882
0.000639971
0.000635688
0.000666941
0.00060414
0.000523664
0.000438586
0.000379819
0.000385406
0.000411491
0.000483494
0.000610352
0.000591392
0.00066787
0.000763413
0.000838416
0.000863333
0.000825762
0.00082011
0.00162546
0.00162541
0.000812921
0.000815746
0.00085446
0.000830633
0.000757356
0.000663927
0.000588647
0.000607502
0.000480776
0.000543759
0.000739003
0.00109085
0.0013732
0.00162051
0.00172985
0.00163428
0.00132306
0.00117213
0.00156627
0.00156582
0.00116592
0.00132711
0.00164508
0.00173097
0.00161693
0.00136493
0.00108274
0.000734089
0.000540497
0.000608504
0.000683601
0.000747961
0.000808001
0.000868802
0.000923813
0.000974791
0.00102899
0.00109961
0.00119006
0.00118424
0.00109336
0.00102327
0.000969937
0.000919347
0.000864514
0.000803708
0.000743761
0.00067958
0.000604812
9.89674e-05
0.000111525
0.000126209
0.000142346
0.000153433
0.000159982
0.000165076
0.00017118
0.000178783
0.000191125
0.000190431
0.000176153
0.000167489
0.000160942
0.000155788
0.000149193
0.0001381
0.000124036
0.000118714
9.17282e-05
0.000130069
0.000323362
0.000359963
0.000395822
0.000428994
0.0004558
0.000486631
0.000525025
0.000544449
0.000471139
0.000477218
0.000551172
0.000532097
0.000493414
0.000461707
0.000433861
0.000399168
0.000362132
0.000323627
0.000128045
0.00014382
0.000353736
0.000403973
0.000443037
0.000468174
0.000485942
0.000505884
0.000529813
0.000492233
0.000339103
0.000340748
0.000493286
0.000534519
0.000511677
0.000490706
0.00047166
0.000444874
0.00040215
0.000351486
0.000144777
0.000161228
0.00033957
0.000422327
0.000472766
0.000499634
0.000511982
0.000520952
0.000529877
0.000456357
0.000322634
0.0003216
0.000452016