/*--------------------------------*- C++ -*----------------------------------*\
| =========                 |                                                 |
| \\      /  F ield         | OpenFOAM: The Open Source CFD Toolbox           |
|  \\    /   O peration     | Version:  v1912                                 |
|   \\  /    A nd           | Website:  www.openfoam.com                      |
|    \\/     M anipulation  |                                                 |
\*---------------------------------------------------------------------------*/
FoamFile
{
    version     2.0;
    format      ascii;
    class       surfaceScalarField;
    location    "400";
    object      phi;
}
// * * * * * * * * * * * * * * * * * * * * * * * * * * * * * * * * * * * * * //

dimensions      [0 3 -1 0 0 0 0];
oriented        oriented;


internalField   nonuniform List<scalar> 
11200
(
0.00195581
-0.00392481
0.00196337
0.000549847
0.000289288
0.0011166
-0.000816872
0.00137866
-1.17736e-05
-0.00125821
0.000564594
-0.000122438
-0.00118643
2.27915e-05
-9.41504e-05
-0.000872471
-0.000258203
-5.63054e-05
-0.000645331
-0.000206561
-2.15079e-05
-0.000388072
-0.000233677
-2.34407e-05
-0.000117417
-0.000160884
-0.000104927
8.69994e-05
-9.62643e-05
-0.000104569
0.000314812
-0.000104485
-0.000123726
0.000542706
-0.000248443
2.30418e-05
0.000750215
-0.000228138
2.32107e-05
0.000999284
-0.000197522
-5.27969e-05
0.00133132
-0.000264554
-6.92289e-05
0.00139443
5.24123e-05
-0.000115485
0.000604705
0.000789889
7.62269e-07
-0.00161951
0.00187861
0.000346061
-0.00241432
-0.000745502
0.00154044
-0.00485109
0.00243686
0.00191019
-0.00774524
0.00191027
0.00346829
-0.00323825
0.00196985
0.00331356
-0.000383305
0.00191764
0.00150832
0.00100625
0.00136407
-0.000584075
0.00127477
0.000839975
-0.00134513
0.000402485
9.93771e-05
-0.00111365
-0.000296228
-0.000141064
-0.000807821
-0.000264717
-0.000270169
-0.000401576
-0.000260167
-0.000305194
7.54989e-05
-0.000211531
-0.000364755
0.000570295
-0.000264366
-0.000334496
0.000895643
-0.000278115
-0.000294225
0.00121341
-0.000272846
-0.00027461
0.00144491
-0.000321252
-0.000110008
0.000508806
0.00048626
0.000185251
-0.00165306
0.00131076
0.000904769
-0.00335743
0.00113608
0.00135886
-0.00308996
-8.10404e-05
0.00169225
-0.00176948
-0.00380108
0.00173513
-0.00837724
0.00175661
0.00128274
-0.0103102
0.00128211
0.00273189
-0.0062131
0.00152586
0.00342328
-0.00252209
0.00144762
0.00277637
0.000500013
0.00115322
0.00142888
0.00167866
0.000943163
-0.000292642
0.00138319
0.000740041
-0.00116516
0.000387541
0.000187884
-0.00100051
-0.000166466
-0.000263681
-0.000543395
-0.000264337
-0.000451383
0.000101076
-0.000187363
-0.000669456
0.000664393
-0.000198512
-0.000625758
0.00110202
-0.000294423
-0.000421221
0.00117634
-0.000117734
-0.000230938
4.50397e-05
0.000467339
0.000342197
-0.00183622
0.0014808
0.000887584
-0.00311397
0.00155347
0.00103559
-0.00356097
0.000315896
0.00126725
-0.00253501
-0.00260233
0.00149541
-0.00117219
-0.00657868
0.00141475
-0.0107314
0.00118188
0.000709678
-0.0117289
0.000709139
0.00135766
-0.00802187
0.0011608
0.00206048
-0.00445612
0.00123124
0.00245144
-0.0010193
0.00112845
0.00221746
0.000904551
0.00100814
0.00151864
0.00122637
0.000855448
0.000362564
0.000919266
0.000624593
-0.000446637
0.000422972
0.00022116
-0.000462817
0.000133016
-0.000379831
7.0366e-05
9.34537e-05
-0.000812234
0.000563719
8.23896e-05
-0.000775341
0.000427869
0.000150212
-0.000310829
-0.000500676
0.000483617
0.000326563
-0.00167852
0.000936836
0.000708933
-0.00233005
0.00115342
0.000979416
-0.00248093
0.000590155
0.00111442
-0.00199829
-0.00142403
0.00125736
-0.00122316
-0.00468156
0.00130397
-0.000636181
-0.00830698
0.00114113
-0.012041
0.000673292
0.000259024
-0.0122468
0.000258871
0.000186439
-0.00891161
0.000962076
0.000311978
-0.00585837
0.00127669
0.000959732
-0.00317431
0.00150727
0.00169552
-0.00132771
0.00149635
0.00200622
-0.000443473
0.00135878
0.00182178
-5.86891e-05
0.00116165
0.00119022
0.000164208
0.000890406
0.000415591
0.000319134
0.000587684
7.7911e-05
0.000398592
3.06425e-05
-0.000272752
0.000386747
4.42614e-05
-0.00106177
0.000287859
0.000650834
-0.00163522
8.79427e-05
0.000969417
-0.00174011
-0.000213718
0.00125575
-0.00136462
-0.000686423
0.00146452
-0.000694716
-0.00168576
0.00160598
-0.000166464
-0.00353502
0.00158256
-6.62133e-05
-0.00610935
0.00132728
-0.000199884
-0.00914781
0.000974214
-0.0124971
0.000255969
-0.000106671
-0.0120339
-0.000106442
-0.00067508
-0.00917309
0.000829612
-0.00105337
-0.00675848
0.00127845
-0.00102489
-0.00486345
0.001661
-0.000696466
-0.00357244
0.00191666
-0.000341325
-0.00271245
0.00191405
-9.82493e-05
-0.00208519
0.00178308
1.46726e-06
-0.00156393
0.00162818
3.06207e-06
-0.00119492
0.00151182
-1.62646e-05
-0.000995526
0.00141235
1.85355e-05
-0.00107157
0.00142322
0.000116121
-0.00134879
0.00153909
0.000291288
-0.0017486
0.0016615
0.000594266
-0.00232082
0.00180424
0.00095906
-0.00297749
0.00192625
0.00122082
-0.00385735
0.00190964
0.00118289
-0.00514484
0.00164752
0.000773266
-0.00698958
0.00128962
0.000160264
-0.00937634
0.000841284
-0.0122431
-9.38327e-05
-0.000446313
-0.011142
-0.000445809
-0.00135251
-0.00887159
0.000604426
-0.00199881
-0.00714962
0.00103735
-0.00222601
-0.00596314
0.00132691
-0.00213732
-0.00519231
0.00153122
-0.00183332
-0.00467465
0.00165818
-0.00138455
-0.00425244
0.00171822
-0.000838712
-0.00382892
0.00171864
-0.000308168
-0.0034551
0.00172934
3.96527e-05
-0.0031449
0.00180145
0.000404642
-0.00322972
0.00179322
0.000954237
-0.00361191
0.00171358
0.00151831
-0.00400329
0.00169063
0.00197788
-0.00444413
0.0016637
0.00228537
-0.00487885
0.00159378
0.00236291
-0.00540606
0.00147107
0.00210888
-0.00617555
0.00128461
0.00143842
-0.00734061
0.00102136
0.00049745
-0.00904337
0.000607845
-0.0113174
-0.000428413
-0.000850689
-0.00944148
-0.000850008
-0.00206261
-0.00775753
9.7718e-05
-0.00289537
-0.00670341
0.000386485
-0.00321635
-0.00612007
0.000477924
-0.00311333
-0.00579983
0.000504512
-0.00268772
-0.00561691
0.000516614
-0.00203124
-0.00545717
0.000548148
-0.00123673
-0.00525177
0.000628189
-0.000458187
-0.00501116
0.000777436
6.30315e-05
-0.00472172
0.0010556
0.000584359
-0.00477874
0.00102774
0.00135683
-0.00511301
0.000728673
0.00215435
-0.00536541
0.000564621
0.00281426
-0.00558128
0.000477213
0.00323995
-0.00574925
0.000444673
0.00333608
-0.00593785
0.000435625
0.00299918
-0.00626062
0.000421953
0.00214774
-0.00683863
0.000349462
0.000904286
-0.00788719
8.72434e-05
-0.00957679
-0.000836265
-0.00155216
-0.00633804
-0.00155138
-0.00307372
-0.0052899
-0.000945985
-0.00400634
-0.00486479
-0.000905932
-0.00434524
-0.0047625
-0.00101858
-0.00418408
-0.00477302
-0.0011879
-0.00363345
-0.00483752
-0.00132995
-0.0027862
-0.00489497
-0.00140941
-0.00173045
-0.00490019
-0.00140727
-0.000651492
-0.00484241
-0.00124761
6.9707e-05
-0.00471805
-0.000724736
0.000789748
-0.00474494
-0.000753731
0.00185496
-0.00489069
-0.0012875
0.00290744
-0.00495417
-0.00146374
0.00375602
-0.00495408
-0.00147583
0.00430752
-0.00490126
-0.00139952
0.00446476
-0.00484107
-0.001254
0.00411443
-0.00483432
-0.0010759
0.00316358
-0.00493783
-0.000949866
0.00161103
-0.00536391
-0.000970635
-0.0064188
-0.00154684
-0.00316938
-0.00316858
-0.00505136
-0.00340767
-0.00595428
-0.00396173
-0.00622005
-0.00449662
-0.00594957
-0.00504343
-0.00523256
-0.00555449
-0.00411587
-0.00601161
-0.00265705
-0.00635893
-0.00103255
-0.00646681
7.22708e-05
-0.00582273
0.00117813
-0.00585069
0.00279273
-0.00650525
0.00425246
-0.00641392
0.00537322
-0.00607485
0.00609238
-0.00562042
0.00635971
-0.00510833
0.00608213
-0.00455663
0.00515739
-0.00401296
0.00323792
-0.00344428
-0.00318075
0.00110538
0.000282638
0.000575323
4.43931e-06
0.00217724
4.11889e-05
-0.000578135
0.000674914
-0.000102758
-0.00072335
0.000201869
-0.000177673
-0.00069913
-6.74569e-05
-5.12101e-05
-0.000431686
-0.000303168
-2.23393e-05
-0.000217618
-0.000265584
2.93486e-05
-5.71277e-05
-0.000295084
0.000112718
4.82697e-05
-0.000288784
8.03914e-05
4.90335e-06
-0.000249248
0.000186938
6.32548e-05
-0.000210532
2.8536e-05
0.000224984
-0.000268821
0.000133272
0.000388681
-0.000222649
8.07002e-05
0.000575076
-0.000237522
-4.96338e-06
0.000826069
-0.000316127
-4.40244e-06
0.000856532
-7.84588e-05
-6.58812e-05
0.000592043
0.000373678
-0.000107182
-0.000609453
0.00166286
-0.000115017
-0.00149744
0.00159327
0.000835212
-0.000872358
0.00181177
0.00196837
-0.00324049
0.00346525
0.00345265
-0.000784656
0.00344817
0.00314315
0.000221007
0.0026821
0.00181448
0.00108336
0.00181136
0.000170202
0.00125507
0.0011609
-0.000665366
0.000407415
0.000223033
-0.000656313
-0.000229358
-0.000186555
-0.000430805
-0.000425792
-0.000358497
-0.000157571
-0.000440392
-0.000429921
1.89337e-05
-0.000311227
-0.000476658
0.000281433
-0.000333137
-0.00047262
0.000510994
-0.000370575
-0.000424191
0.000745861
-0.000421715
-0.000314102
0.000664172
-0.000173106
-9.36027e-05
-0.000326556
0.000433253
0.000428304
-0.00196958
0.00119693
0.00127364
-0.00320328
0.00107451
0.0018922
-0.00308715
0.000503136
0.00273592
-0.00175239
-0.00102909
0.0030227
-0.00393601
0.00306772
0.00152655
-0.00621373
0.00272897
0.00306082
-0.0038507
0.00305781
0.00357564
-0.00147899
0.00263299
0.00306684
0.000736909
0.00200854
0.0020799
0.00162118
0.00156347
0.000769607
0.00133431
0.00112246
-0.000213116
0.000499126
0.000441543
-0.000440706
-0.000181059
-0.000280743
-0.000242217
-0.000462461
-0.000625466
4.23396e-05
-0.000380222
-0.000883196
0.00030464
-0.000381645
-0.000839998
0.000494334
-0.000445641
-0.000537582
7.70997e-05
-0.000127878
-0.000108542
-0.0010964
0.000612297
0.000731137
-0.0024311
0.00132905
0.00132734
-0.0034017
0.00146963
0.00173374
-0.00377891
0.000514107
0.00220494
-0.00298538
-0.0015836
0.00278859
-0.00142643
-0.00412486
0.00295135
-0.00669504
0.00251428
0.00116174
-0.00802214
0.00135582
0.00213752
-0.0058008
0.00213507
0.00285086
-0.00317258
0.00221158
0.00309405
-0.000332906
0.001955
0.00277498
0.00126695
0.00168115
0.00212828
0.00146051
0.00137534
0.00126873
0.00101982
0.000962888
0.000448592
0.000458309
0.000403227
2.28617e-05
-5.21734e-05
-0.000365139
4.57975e-05
-0.000294854
-0.000922101
2.1655e-05
-0.000265306
-0.00086924
-0.000502556
-4.33101e-06
-0.000228623
-0.00140622
0.000526666
0.000576207
-0.00225873
0.00105928
0.00111511
-0.00289633
0.00142013
0.00152628
-0.00318452
0.00105606
0.00181622
-0.00288771
-0.000645075
0.0021196
-0.00210407
-0.00340049
0.002337
-0.00112814
-0.00607636
0.00211639
-0.00840249
0.00125238
0.000962646
-0.0089118
0.000185615
0.00145254
-0.00677991
0.00145105
0.00175953
-0.0042332
0.00203056
0.0022539
-0.00151357
0.00219401
0.00262622
0.000320067
0.00207118
0.00259229
0.000995395
0.00185774
0.00222123
0.00100635
0.0015455
0.00156415
0.000862982
0.00114279
0.0007536
0.00072444
0.000620896
7.53877e-05
0.000529097
-0.000116373
-0.000641993
0.000558172
-6.22356e-05
-0.00148462
0.000766826
0.000722555
-0.00211561
0.00088371
0.00124368
-0.00244769
0.000996177
0.00165106
-0.0024558
0.000929085
0.00196362
-0.00210469
0.000133152
0.00217755
-0.00167702
-0.00177029
0.00227981
-0.00140534
-0.00443161
0.00208642
-0.000945889
-0.0070122
0.00145027
-0.00922388
0.000131258
0.000829744
-0.00917341
-0.000675015
0.000940621
-0.00700158
0.0009401
0.000782975
-0.00463947
0.00184238
0.000821479
-0.00225276
0.0023619
0.00110442
-0.000620786
0.00257475
0.00128071
0.000272506
0.00246073
0.00115071
0.000692016
0.00222692
0.000796764
0.000916249
0.00192815
0.00037361
0.00103386
0.00162503
1.14251e-05
0.00103215
0.0012712
-0.00031597
0.00101653
0.00129224
-0.000672473
0.00100338
0.00165902
-0.000966543
0.000877622
0.00196166
-0.001047
0.000625394
0.00225542
-0.000844093
0.000168962
0.00248334
-0.000623467
-0.000770384
0.00259235
-0.000681969
-0.00243133
0.00236683
-0.00088356
-0.00479304
0.00185239
-0.000807829
-0.00718968
0.000942789
-0.00943177
-0.000693883
0.000604278
-0.00887192
-0.0013519
0.000415339
-0.00662399
0.000415507
-1.0505e-05
-0.00460943
0.00143305
-0.000236448
-0.00278885
0.00208896
-0.000256293
-0.00154647
0.00247678
-0.000145796
-0.000736568
0.00255671
-6.04388e-05
-0.000181772
0.0025063
-5.15207e-05
0.000247767
0.00237792
-3.90825e-05
0.000506363
0.00224423
4.00569e-05
0.000634663
0.00211972
0.000131664
0.000592983
0.00212514
0.000177625
0.000425339
0.0022457
0.000222141
0.000162576
0.00236119
0.000325521
-0.000273855
0.00245953
0.000426378
-0.000837824
0.0024996
0.000368898
-0.00166185
0.00241992
0.000105566
-0.00292375
0.00204027
-0.000346748
-0.00473455
0.00141508
-0.000571668
-0.0067711
0.000414092
-0.00907926
-0.0013526
9.73961e-05
-0.00775777
-0.0020617
-0.000405144
-0.00561927
-0.000404548
-0.000985906
-0.00412571
0.000483462
-0.00125592
-0.00302972
0.000988809
-0.00127609
-0.00228758
0.00126581
-0.00112325
-0.00177737
0.00140463
-0.000826088
-0.00136392
0.00143302
-0.000474254
-0.000983266
0.00150744
-0.000130188
-0.000687068
0.00162694
7.31121e-05
-0.000316991
0.00180409
0.000279577
-0.000371765
0.00178611
0.000626017
-0.000769844
0.00157741
0.000977066
-0.00105703
0.00143309
0.00126633
-0.00143303
0.00134703
0.00140929
-0.00184831
0.00131213
0.00137915
-0.00236496
0.00116888
0.00108697
-0.00312099
0.000911425
0.000487234
-0.00422368
0.000438395
-4.9762e-05
-0.00572811
-0.000418683
-0.00790679
-0.00205841
-0.000946372
-0.00529003
-0.00307266
-0.0019227
-0.00366682
-0.00192195
-0.0026292
-0.00285662
-0.0014684
-0.00291945
-0.00241539
-0.00134255
-0.0028377
-0.00216245
-0.00139469
-0.00248639
-0.00201244
-0.00144608
-0.00195815
-0.00190237
-0.00139913
-0.00132242
-0.00178831
-0.00123783
-0.000638655
-0.00169553
-0.00092269
0.000113166
-0.00149566
-0.000297608
0.000830476
-0.00150957
-0.000333012
0.00148539
-0.00171998
-0.000992217
0.00210991
-0.00181408
-0.00133125
0.0026338
-0.0019306
-0.00150222
0.00298209
-0.00204463
-0.00155147
0.00305574
-0.00219991
-0.0014926
0.00274804
-0.00246073
-0.00142827
0.00201628
-0.00290946
-0.00153212
0.00100279
-0.00372971
-0.00195531
-0.00537311
-0.00307753
-0.0034081
-0.00505027
-0.00524156
-0.00524082
-0.00616642
-0.00589336
-0.00645576
-0.00662257
-0.00625157
-0.00741
-0.00563576
-0.00818269
-0.00465072
-0.00889895
-0.00331727
-0.00948059
-0.00172864
-0.0097508
9.71996e-05
-0.00914407
0.00191112
-0.00917408
0.00348984
-0.00980394
0.00481923
-0.0095574
0.00580135
-0.00898758
0.00641294
-0.00827658
0.00660879
-0.00750397
0.00630264
-0.00671106
0.00535019
-0.00596981
0.00347408
-0.00529768
-0.00507972
-1.48504e-05
0.0013938
-0.000803549
-0.000120801
0.000709247
-0.000560937
-0.000188611
0.000144809
-0.000178026
-0.000238096
-6.76173e-05
-5.95875e-05
-0.000192117
-0.00020734
0.000110262
9.63252e-06
-0.000345063
0.000120474
5.79581e-05
-0.00021232
0.000192941
8.55406e-05
-0.000226024
0.000315077
6.78342e-05
-0.000236846
0.000333589
7.77628e-05
-0.000231801
0.000413766
-1.16639e-05
-0.000229211
0.000348323
-5.14028e-05
-0.000197827
0.000369175
-7.03252e-05
-0.000182963
0.000277672
-7.92173e-07
-0.000244793
0.000168084
0.000256863
-0.000394504
0.000133848
0.000345462
-0.000232045
7.94869e-05
0.000400045
-4.8729e-05
-0.000112186
0.000193874
0.000415959
-0.000324597
-0.000389623
0.0018854
-0.000466679
0.00192842
-0.000506341
0.00191124
-0.000376499
0.00332476
0.00268531
0.000228396
0.00315565
0.0023662
0.000777356
0.00236946
0.00133769
0.00121806
0.00155425
0.000215406
0.00108015
0.000994783
-0.000346907
0.000225654
0.000212144
-0.000296674
-0.000324489
-0.000127218
-0.000146075
-0.000454534
-0.000280386
-3.86038e-05
-0.000394896
-0.000377882
4.15943e-06
-0.000329026
-0.00042033
4.35165e-05
-0.000337179
-0.000405565
0.0001456
-0.000403402
-0.00032428
0.000299998
-0.000469265
-0.00018399
0.000233798
-0.000286688
1.57816e-05
-0.000456584
0.000271966
0.000454188
-0.0016034
0.00101366
0.00117552
-0.00257641
0.00109713
0.00171965
-0.00277441
0.000793668
0.00255629
-0.00167372
0.000573436
0.00323387
-0.000109622
0.00343196
0.00144849
-0.00251838
0.00342244
0.00263623
-0.00147586
0.00357436
0.00305835
-6.75973e-05
0.00305602
0.00270546
0.0012219
0.00235774
0.00197576
0.00156953
0.00180361
0.000945812
0.00115766
0.00121933
0.00017117
0.000373858
0.000519136
-0.000117383
-0.000314327
-0.000131652
-8.73773e-05
-0.000540901
-0.000508695
-1.72012e-06
-0.00055502
-0.000743604
6.73449e-05
-0.000554604
-0.000692958
3.05302e-05
-0.00052895
-0.000376208
-0.00042065
-0.000251646
0.000125464
-0.00130555
0.00047889
0.000851532
-0.00235996
0.00114726
0.00150697
-0.00310017
0.00142185
0.00206587
-0.00338991
0.000934668
0.00265707
-0.00284123
-0.000338365
0.00337187
-0.001516
-0.00160426
0.00380371
-0.00271226
0.00360077
0.00123234
-0.00445396
0.00205888
0.00221443
-0.0031708
0.00284796
0.00293199
-0.00150153
0.00292835
0.00313524
0.000394339
0.00257956
0.00283407
0.00138545
0.00216641
0.00224948
0.00139782
0.001719
0.00146661
0.000911182
0.00120754
0.00071412
0.000285774
0.000555111
0.000215089
-0.000269803
-0.000138499
-1.75037e-06
-0.000598695
-0.000662543
-0.000269797
-0.000578158
-0.000578036
-0.00086056
-0.00021809
5.16081e-05
-0.00166241
0.000350167
0.000776877
-0.00242629
0.000955385
0.00140289
-0.00302295
0.00136916
0.00190118
-0.00332399
0.0012034
0.00233573
-0.0030928
5.49113e-05
0.00276805
-0.00234683
-0.00184358
0.00309608
-0.00130084
-0.0034494
0.00291537
-0.00478252
0.00202166
0.00127752
-0.00585738
0.000311244
0.00203248
-0.00423235
0.00175753
0.00256598
-0.00256744
0.00256323
0.00299998
-0.000582361
0.00273708
0.00312116
0.000788584
0.00254714
0.00290407
0.00123763
0.00223499
0.00243354
0.0010904
0.0018364
0.00172577
0.000774771
0.00136117
0.000883423
0.000469704
0.000723277
2.03397e-05
0.000184524
-3.67103e-05
-0.000865299
0.000199775
4.55375e-05
-0.0017169
0.000503577
0.000852702
-0.00240103
0.000802757
0.00147543
-0.00284569
0.0011093
0.0019419
-0.00304704
0.00120955
0.00232457
-0.00292685
0.000641656
0.00261901
-0.00254285
-0.000836406
0.00278699
-0.00206273
-0.00280846
0.00257104
-0.0013075
-0.00448532
0.0017308
-0.00618409
0.000225213
0.00127881
-0.00675834
-0.00105322
0.00184335
-0.00463926
0.000782268
0.0020208
-0.00292179
0.00201936
0.00217731
-0.00104769
0.00267091
0.00232852
0.000339163
0.00287314
0.00227873
0.00100702
0.00274123
0.00195993
0.00116822
0.00246774
0.00140723
0.00115262
0.00210282
0.000725002
0.00110595
0.00167088
2.30209e-05
0.00107466
0.00108297
-0.000663732
0.00106917
0.0011096
-0.00130619
0.00109776
0.00170731
-0.00181637
0.0011424
0.00213222
-0.00209429
0.00115464
0.00248796
-0.00212655
0.000976379
0.00274871
-0.00201992
0.000257721
0.00286956
-0.001946
-0.00118576
0.00264218
-0.00181484
-0.00308194
0.00199463
-0.00126642
-0.00484451
0.000753443
-0.00703831
-0.00110614
0.00103742
-0.00714975
-0.00199811
0.0014333
-0.00460953
-1.02914e-05
0.00140705
-0.00286931
0.00140671
0.00131928
-0.00118764
0.00231665
0.0012538
6.49206e-05
0.00281651
0.00116285
0.000749746
0.00290499
0.000967751
0.00104918
0.00282033
0.00065233
0.00120876
0.00263713
0.000311498
0.00127821
0.00241277
3.76635e-05
0.00132933
0.00213884
-0.000223484
0.00131123
0.00214417
-0.000533392
0.00124221
0.00241111
-0.000818572
0.00117472
0.00261397
-0.000992107
0.00101612
0.00277151
-0.00108284
0.000721414
0.00284524
-0.00117934
2.11111e-05
0.00275302
-0.0013111
-0.00127019
0.00225646
-0.00136836
-0.00298136
0.00137177
-0.00100083
-0.00476997
-2.79722e-05
-0.00737
-0.00202175
0.000386435
-0.00670356
-0.0028944
0.000483232
-0.00412582
-0.00098515
0.000335821
-0.00257478
0.000336252
0.0002256
-0.00130502
0.00121637
0.000239525
-0.000358715
0.00167551
0.000289768
0.00018849
0.00191573
0.000299585
0.000505659
0.00196671
0.000283507
0.000739178
0.00199314
0.00023795
0.000905245
0.00204555
6.55799e-05
0.0011871
0.00211875
-0.000107332
0.00115962
0.00211064
-0.000145408
0.000850913
0.00200677
-0.000158562
0.000694186
0.0019267
-0.000145931
0.000470395
0.00188004
-9.28932e-05
0.000159459
0.00182101
-8.57292e-05
-0.000391611
0.0015745
-0.000217961
-0.00136069
0.00113428
-0.000391105
-0.00265581
0.000286095
-0.000333617
-0.00423733
-0.00100873
-0.0068563
-0.00290563
-0.000906078
-0.00486488
-0.0040052
-0.00146885
-0.00285666
-0.00262826
-0.00181293
-0.00188686
-0.0018122
-0.00185625
-0.00129593
-0.00130823
-0.00165043
-0.000927497
-0.00103166
-0.00126915
-0.000671309
-0.000967455
-0.000817602
-0.000463404
-0.000881513
-0.000381969
-0.000265405
-0.000668712
1.51268e-06
-0.000116588
-0.000284071
0.000106594
0.000397729
0.000387003
0.000206672
0.000376892
0.000349866
0.000576908
-0.000135485
-0.000375981
0.000998345
-0.00028355
-0.000774991
0.0014386
-0.000478525
-0.000993617
0.00181191
-0.000685811
-0.0010795
0.00201146
-0.000943056
-0.00114059
0.00194977
-0.00132241
-0.0014047
0.00157497
-0.00192704
-0.00188591
0.000967353
-0.00291381
-0.00267105
-0.00494651
-0.00401987
-0.00396197
-0.00595307
-0.00589388
-0.00616549
-0.00683738
-0.00683663
-0.00711107
-0.00764474
-0.00689946
-0.00854906
-0.00628574
-0.00946765
-0.00529687
-0.0103511
-0.00392294
-0.0111198
-0.00220918
-0.011581
0.000108511
-0.0110639
0.00240336
-0.011092
0.00410815
-0.0116442
0.0054742
-0.011207
0.00645667
-0.0104486
0.00706433
-0.00957001
0.00726873
-0.00865135
0.00697968
-0.00774433
0.00600879
-0.00692587
0.00403274
-0.00623536
-0.00599346
-0.000125767
0.00056016
-0.00123771
-0.000175687
0.000197536
-0.000707587
-5.61125e-05
-6.74706e-05
-0.000229059
4.54292e-05
-0.000206537
4.55946e-05
0.000232029
-0.00035546
0.000277815
0.000415673
-0.000449107
0.00038468
0.000434269
-0.000288374
0.000460841
0.000366187
-0.000203319
0.00058759
0.000198546
-0.000176446
0.000680242
5.15442e-06
-0.000151621
0.000760289
-0.000243984
-0.000168441
0.000764183
-0.000414497
-0.000183495
0.000720122
-0.000487529
-0.000243244
0.000592272
-0.000444516
-0.000334591
0.000460475
-0.000203134
-0.000499321
0.000393592
-1.60078e-05
-0.000372357
0.000265959
8.63333e-05
-0.000228445
1.4313e-05
0.000101905
-5.7359e-05
-0.000283073
1.04904e-05
0.000407268
-0.000782726
0.000838566
-0.00133441
0.00136261
0.00100466
0.00151787
0.00181004
0.00108451
0.00182133
0.00155264
0.00121808
0.00134189
0.000867134
0.00116417
0.00086922
0.000253131
0.000672946
0.000580283
-5.04676e-05
-0.00011781
0.000182322
3.6793e-05
-0.000539698
3.95e-05
0.000117289
-0.000533817
-3.14442e-05
7.79802e-05
-0.00044556
-6.90847e-05
-4.54995e-05
-0.000375774
-7.3932e-05
-0.000176612
-0.000391994
-5.31435e-05
-0.000201729
-0.00048485
1.07818e-06
-0.000109147
-0.000586682
6.75745e-05
-8.56568e-05
-0.000506524
0.000165952
-0.000441299
-6.52793e-05
0.000376881
-0.00109205
0.000667628
0.000786643
-0.0017237
0.00104121
0.00108154
-0.00189363
0.00107617
0.0015926
-0.00134885
0.00106474
0.00203158
0.00111124
0.00181047
0.00115405
0.000502605
0.00277028
0.00201064
0.000739891
0.00306227
0.00236
0.001223
0.00270187
0.002162
0.00156133
0.00215903
0.00162057
0.00136732
0.00165132
0.000845859
0.000817535
0.00105701
0.000292866
4.09063e-05
0.000491236
8.7785e-05
-0.000535797
7.33727e-05
1.07411e-05
-0.000680645
-0.000197697
-5.15184e-05
-0.000676347
-0.00038162
-0.000127259
-0.000694814
-0.000314725
-0.000253581
-0.000704328
-2.99051e-05
-0.000561225
-0.000478429
0.000325961
-0.00119964
0.000163541
0.000820752
-0.0019992
0.000858157
0.00138335
-0.00252509
0.00129065
0.00196876
-0.00267797
0.0013273
0.00252384
-0.00224408
0.000898536
0.00311557
-0.00128828
0.000443838
0.00346876
0.000209157
0.00321449
0.00112982
-0.00101516
0.00244642
0.00195802
-0.000329241
0.00308888
0.00258328
0.000396144
0.00313036
0.00277533
0.00117837
0.00277101
0.00255648
0.00143892
0.00231423
0.00208582
0.0011819
0.00182489
0.00139172
0.000651841
0.00129038
0.000722543
-1.23664e-05
0.000700325
0.000261408
-0.000544408
0.000186012
-5.02724e-05
-0.00079153
-0.000235762
-0.000398796
-0.000791875
-0.000132213
-0.000928862
-0.000512718
0.000390631
-0.00162443
5.40105e-05
0.000940461
-0.00229718
0.00070859
0.00153083
-0.00277139
0.00119202
0.00204158
-0.0029864
0.00132305
0.00251833
-0.00277622
0.000898867
0.00298627
-0.00213423
1.36515e-05
0.00333892
-0.00126261
-0.000733012
0.00322054
-0.00154488
0.00251306
0.00150847
-0.00317204
0.000959398
0.00219645
-0.00151124
0.00225163
0.00274041
-0.000580907
0.00299672
0.0031072
0.000445536
0.00310356
0.00315549
0.00108043
0.00285781
0.00291041
0.00117673
0.00248545
0.00244317
0.000897156
0.00205842
0.00172924
0.000502916
0.00155981
0.000860097
0.000104646
0.000943332
-3.18561e-05
-0.000226624
0.00029033
-0.000935554
-0.00022652
0.000383956
-0.00179851
0.00011836
0.0010847
-0.00248513
0.000527218
0.00168893
-0.00293059
0.000929281
0.0021667
-0.00316172
0.00117673
0.00257097
-0.00311316
0.000979333
0.00291413
-0.00277148
0.000222147
0.00312201
-0.00226165
-0.000873117
0.00294795
-0.00156308
-0.00183947
0.00213861
-0.00360243
0.000719631
0.00166172
-0.00486276
-0.00102437
0.00236335
-0.00225204
0.00082142
0.00267303
-0.0010471
0.00217603
0.00287304
4.57634e-05
0.00287084
0.00295219
0.000809349
0.00306526
0.00280974
0.00112105
0.0029395
0.00242119
0.00108471
0.00266875
0.00179421
0.000932522
0.00230013
0.000965939
0.00078839
0.00181528
2.0817e-05
0.000670768
0.00113053
-0.000923682
0.000661293
0.00116616
-0.00173392
0.000776254
0.00185959
-0.00233321
0.00092858
0.00233012
-0.0026913
0.00109351
0.00268179
-0.00281836
0.00112399
0.00292847
-0.00275782
0.000764076
0.00302427
-0.00260923
-6.86752e-05
0.00278443
-0.00233751
-0.00121185
0.00206165
-0.00162724
-0.00247528
0.000678969
-0.00517958
-0.00115624
0.00132717
-0.00596294
-0.00222519
0.00208962
-0.00278882
-0.000235985
0.00231758
-0.00118757
0.00131915
0.00230721
6.64013e-05
0.00230634
0.00224023
0.000824058
0.00286875
0.00207368
0.00115266
0.0030399
0.00174605
0.00122842
0.00300416
0.00124805
0.00122828
0.00283929
0.000658306
0.00119402
0.0025968
4.33404e-05
0.00119026
0.00223421
-0.000568031
0.00117657
0.00224016
-0.00114349
0.00116819
0.00259454
-0.00162297
0.00120611
0.00281583
-0.00193175
0.00121684
0.00295689
-0.00208889
0.00115139
0.00297493
-0.00217164
0.000811512
0.00278833
-0.00221378
1.39364e-05
0.00221602
-0.00200908
-0.00128682
0.00124207
-0.00127171
-0.00294718
-0.000293445
-0.00619505
-0.00227801
0.000478092
-0.00612004
-0.0032154
0.000988941
-0.0030298
-0.00125508
0.00121641
-0.00130507
0.000226229
0.00125282
-6.58797e-06
0.00125292
0.00124116
0.000673328
0.00183788
0.00121322
0.000962461
0.00213388
0.00109419
0.00107425
0.00223989
0.000876645
0.00117014
0.00226884
0.00057155
0.00124278
0.00230197
7.68366e-05
0.0014841
0.00231972
-0.000431679
0.00148455
0.00231124
-0.000742551
0.00121532
0.00227052
-0.000958297
0.0011356
0.00221289
-0.00107243
0.00104901
0.00216192
-0.00109182
0.000947885
0.00204386
-0.00110428
0.000656302
0.00174222
-0.00108301
-3.8749e-05
0.00116579
-0.000880209
-0.00136769
0.000164274
-0.000412004
-0.00313124
-0.00129279
-0.00627213
-0.00324049
-0.00101852
-0.00476252
-0.00434415
-0.00134268
-0.00241542
-0.00291844
-0.00130862
-0.00129595
-0.00185534
-0.00101399
-0.000595997
-0.00101337
-0.000646855
-0.000109999
-0.000615395
-0.00037044
0.000178598
-0.000459913
-0.000153419
0.000369804
-0.000393981
3.21224e-05
0.000577266
-0.000261194
0.000177258
0.000779597
3.42464e-05
0.00010384
0.00143741
0.000507381
3.56098e-05
0.00141762
0.000485203
0.000175943
0.000750083
-5.10227e-05
0.00034312
0.000562193
-0.000368807
0.000546941
0.000360633
-0.000509136
0.000816709
0.00017238
-0.000573781
0.00117451
-0.000116504
-0.000725524
0.00145108
-0.000607765
-0.00111212
0.00145453
-0.00132397
-0.00193295
0.00108563
-0.00246478
-0.00296851
-0.00484072
-0.0043656
-0.00449669
-0.00621885
-0.00662286
-0.00645471
-0.00764526
-0.00711015
-0.00794335
-0.0079426
-0.00773291
-0.00886946
-0.00711823
-0.00990368
-0.00612731
-0.0109722
-0.00469345
-0.0119763
-0.00278419
-0.0127105
0.000120551
-0.0125311
0.00299552
-0.0125492
0.00488504
-0.0127836
0.00630617
-0.012066
0.00728737
-0.0110692
0.00789394
-0.0100042
0.00809659
-0.00897047
0.00778655
-0.00804201
0.00673971
-0.00720297
0.00457028
-0.00653068
-0.00626389
-9.8647e-05
1.41712e-05
-0.00115309
-4.7958e-05
-7.39485e-05
-0.000684326
0.000115709
-0.000211473
-0.000180413
0.000279255
-0.000354904
0.000238183
0.000542445
-0.00053327
0.000547373
0.000705972
-0.000452389
0.00067265
0.00072637
-0.000343699
0.000784648
0.00061196
-0.000257758
0.000959129
0.000353175
-0.000219
0.00115754
-5.0439e-05
-0.000203227
0.00136558
-0.000467287
-0.000206822
0.00138623
-0.000724737
-0.000230884
0.00120789
-0.000820001
-0.000302171
0.000990248
-0.000761974
-0.000409819
0.000813337
-0.000544672
-0.000524174
0.00070128
-0.00027295
-0.000547745
0.000542332
-9.45991e-05
-0.000375212
0.000211108
6.93313e-05
-0.000242299
-0.000204776
0.000127504
-8.87754e-05
-0.000752131
7.78965e-05
-0.00128483
0.000838433
0.00127071
-0.000577407
0.00116069
0.0012536
0.000170943
0.00099366
0.0010795
0.000217767
0.000580072
0.000672882
0.000254651
0.000293181
4.16267e-05
0.000292171
0.000239143
-0.000457186
0.000238768
0.000332858
-0.000666888
0.000269084
0.00035888
-0.000624277
0.000306961
0.000204277
-0.00052097
0.000386318
-0.000118001
-0.000433771
0.000478026
-0.00041216
-0.000463826
0.000497846
-0.000514708
-0.000589953
0.000463454
-0.000443413
-0.000704536
0.000399845
-0.000366441
-0.000695687
0.000375867
-0.000475562
-0.000414468
0.000376603
-0.000796969
0.000107468
0.000452822
-0.00117536
0.000658769
0.000425882
-0.001275
0.000993216
0.000456746
-0.000926117
0.00118625
0.00040773
0.00134555
-0.000383239
0.000945889
0.0016804
0.00141431
0.00156695
0.00162298
0.00207129
0.00180733
0.00157042
0.00197025
0.00165524
0.00136748
0.00161614
0.00120649
0.000940678
0.00120163
0.000708232
0.000310992
0.000786314
0.000383815
-0.00033996
0.000488927
0.000241806
-0.000729483
0.000320002
9.80962e-05
-0.000816474
0.000241391
-0.000102538
-0.000782287
0.000167755
-0.000287261
-0.000824208
0.00023095
-0.000431789
-0.000871862
0.000397339
-0.000617895
-0.000714662
0.000522855
-0.00101642
-0.000234119
0.000758113
-0.00155564
0.000414674
0.00109355
-0.00197919
0.000957774
0.00154201
-0.00208499
0.00128523
0.00200321
-0.00176245
0.00139458
0.00239169
-0.0010564
0.00142874
0.0025202
0.00152126
0.00198224
0.00101108
0.000908191
0.00220696
0.00168555
0.00127024
0.00276697
0.00217105
0.00138738
0.00282792