/*--------------------------------*- C++ -*----------------------------------*\
| =========                 |                                                 |
| \\      /  F ield         | OpenFOAM: The Open Source CFD Toolbox           |
|  \\    /   O peration     | Version:  v1912                                 |
|   \\  /    A nd           | Website:  www.openfoam.com                      |
|    \\/     M anipulation  |                                                 |
\*---------------------------------------------------------------------------*/
FoamFile
{
    version     2.0;
    format      ascii;
    class       volVectorField;
    location    "400";
    object      U;
}
// * * * * * * * * * * * * * * * * * * * * * * * * * * * * * * * * * * * * * //

dimensions      [0 1 -1 0 0 0 0];


internalField   nonuniform List<vector> 
4000
(
(0.00568821 -0.0104935 0.00570402)
(0.00777513 0.00507909 0.0045964)
(-0.00166975 0.00696071 0.000944116)
(-0.00495577 -0.000468863 -0.000227684)
(-0.005104 -0.00239981 -0.000370228)
(-0.00421845 -0.00109669 -0.000355916)
(-0.00279619 -0.000786688 -0.00021461)
(-0.00232851 -0.00106134 -6.07234e-05)
(-0.00109645 -0.000873753 -0.000649406)
(-0.000772158 -0.00241504 -0.00150552)
(0.00113829 -0.000710933 -0.000415801)
(0.00215578 -0.00113552 -5.9933e-05)
(0.00256409 -0.000908591 -0.000175847)
(0.00324302 -0.000587311 -0.000316776)
(0.00488966 -0.00105896 -0.000373024)
(0.00540189 -0.00264364 -0.000402527)
(0.00668686 -0.000352521 0.000106104)
(-0.00314311 0.0073449 0.00246568)
(-0.0107066 -0.000527854 0.00541606)
(-0.00637975 -0.014963 0.00646767)
(0.00364906 -0.0245192 0.00365055)
(0.0119989 -0.00625704 0.0047015)
(0.014413 0.00324745 0.0049837)
(0.011658 0.00524959 0.00395336)
(0.00184873 0.00369447 0.00231681)
(-0.00642945 -0.000919036 -0.000228484)
(-0.00488661 -0.00118988 -0.000762446)
(-0.00392779 -0.000934876 -0.00106647)
(-0.00289903 -0.000568786 -0.000927317)
(-0.000619384 -0.000774469 -0.00120402)
(0.00198307 -0.000352505 -0.00121555)
(0.00281592 -0.000988057 -0.00120892)
(0.00425326 -0.00103442 -0.00111949)
(0.00532933 -0.00127202 -0.000664443)
(0.00675014 -0.000893574 -5.89456e-05)
(-0.00296612 0.00424619 0.00251523)
(-0.0117822 0.00667066 0.00381309)
(-0.0137714 0.00589022 0.00441993)
(-0.0106228 -0.00864375 0.00388264)
(-0.00349059 -0.0273075 0.00358257)
(0.0023391 -0.0374947 0.00233899)
(0.00806863 -0.0203886 0.00315548)
(0.012941 -0.00673514 0.00330092)
(0.0140941 0.00290122 0.00291913)
(0.00891407 0.00621613 0.00248017)
(0.00252848 0.00430832 0.00184808)
(-0.00490483 -0.00101644 -0.000377143)
(-0.00448378 -0.00138332 -0.00122362)
(-0.00317908 -0.00119617 -0.00180016)
(-0.00101455 -0.000560203 -0.00256377)
(0.00164797 -0.000894279 -0.00232552)
(0.00365183 -0.00125022 -0.00167463)
(0.00481307 -0.00139906 -0.00114831)
(0.00483854 -0.000926325 -0.000101479)
(-0.00445144 0.004965 0.00238808)
(-0.0105036 0.00600782 0.0027575)
(-0.0150888 0.00281583 0.00322354)
(-0.0126623 -0.00664465 0.0034279)
(-0.00723319 -0.022082 0.00292479)
(-0.00217113 -0.0395153 0.00229183)
(0.00134701 -0.0450365 0.00134642)
(0.00433673 -0.0294572 0.00250978)
(0.00611579 -0.0143315 0.00289322)
(0.00992263 0.000185602 0.00297779)
(0.0101847 0.00680692 0.00272718)
(0.00760825 0.00652058 0.00236306)
(0.0043418 0.00385934 0.00172772)
(-0.00114957 0.000109974 0.000103386)
(-0.00231742 -0.00128388 -0.00187751)
(-0.00102078 -0.00113466 -0.00317714)
(0.00145288 -0.00122005 -0.00300587)
(0.00274073 -0.00136101 -0.00170976)
(0.000614658 0.000595823 0.000481027)
(-0.00485002 0.00434292 0.00198505)
(-0.00828874 0.00667113 0.00280532)
(-0.0106336 0.00600344 0.00308584)
(-0.00962503 -0.00137017 0.0033695)
(-0.00572157 -0.0150737 0.00307652)
(-0.00384752 -0.030713 0.00248515)
(-0.00121156 -0.0464307 0.00137122)
(0.000539871 -0.0487171 0.000539846)
(0.00138248 -0.0346074 0.00208979)
(8.60626e-05 -0.0211409 0.00288854)
(0.00205745 -0.00847258 0.00404556)
(0.00576719 0.000410739 0.00448009)
(0.00783637 0.00364449 0.00421041)
(0.00812091 0.0041304 0.0037047)
(0.00633544 0.00371168 0.00294515)
(0.00336916 0.0031346 0.00209008)
(0.000412944 0.00273785 0.000444027)
(0.000268895 0.00283271 0.000306944)
(-0.00289914 0.00334397 0.00224368)
(-0.00574641 0.00371598 0.00318785)
(-0.00718542 0.0037276 0.00401627)
(-0.00670171 0.00278383 0.00455891)
(-0.00430904 -0.00134384 0.00478621)
(-0.00134382 -0.0101091 0.0041563)
(0.000427709 -0.0221457 0.0029784)
(-0.00101 -0.0356315 0.00211739)
(-0.000418187 -0.0498207 0.000605861)
(-0.000218829 -0.0492305 -0.00021809)
(-0.000952837 -0.0366188 0.00157606)
(-0.0043129 -0.0255997 0.00233888)
(-0.00431436 -0.0166538 0.00335331)
(-0.00371726 -0.0107464 0.00423955)
(-0.00198971 -0.0068948 0.00461147)
(-0.000871631 -0.00412302 0.00452648)
(-3.79778e-05 -0.00169778 0.00439965)
(0.000189709 7.58066e-06 0.00441606)
(-0.000112027 0.000775792 0.00448061)
(-1.11136e-05 0.00045992 0.00444723)
(8.64397e-05 -0.000605964 0.00440533)
(0.000731413 -0.00246744 0.00436998)
(0.00175869 -0.00509254 0.00439326)
(0.00307784 -0.00801791 0.00441321)
(0.00466858 -0.0119387 0.00400036)
(0.00494677 -0.017912 0.00317918)
(0.00474935 -0.0265924 0.00228889)
(0.00127339 -0.0374867 0.00157621)
(0.000342819 -0.050132 -0.000138058)
(-0.0011403 -0.0471578 -0.00113888)
(-0.00296086 -0.0368308 0.000522192)
(-0.00759151 -0.0285176 0.000757361)
(-0.00863788 -0.0224128 0.000906872)
(-0.00906808 -0.0183191 0.00100343)
(-0.00808494 -0.0155878 0.00101655)
(-0.0065583 -0.0134986 0.000988142)
(-0.00452677 -0.0116244 0.00104999)
(-0.002132 -0.0100999 0.00139361)
(-0.000378557 -0.00894608 0.00225931)
(0.000711707 -0.00931004 0.00215396)
(0.00255657 -0.0107588 0.00122569)
(0.00502652 -0.0123548 0.000818886)
(0.00712082 -0.0143485 0.000704744)
(0.00867869 -0.0165233 0.000713282)
(0.00965464 -0.019328 0.000731903)
(0.00913988 -0.023405 0.000705927)
(0.00798336 -0.0293783 0.000637102)
(0.00324728 -0.0375923 0.000484877)
(0.00127615 -0.0479346 -0.0010706)
(-0.00252832 -0.0420674 -0.00252638)
(-0.00523266 -0.0342982 -0.00138973)
(-0.0108743 -0.0288704 -0.00182474)
(-0.0125318 -0.0255221 -0.00241157)
(-0.0130827 -0.0235114 -0.0030262)
(-0.011842 -0.0222393 -0.00361561)
(-0.00961641 -0.0211795 -0.00415653)
(-0.00667748 -0.0200343 -0.00453487)
(-0.00316123 -0.0189413 -0.00446436)
(-0.000602532 -0.0178102 -0.00344173)
(0.00111721 -0.0180727 -0.00350517)
(0.00364639 -0.0194318 -0.00455963)
(0.00715467 -0.020604 -0.00469933)
(0.0101174 -0.0218098 -0.00436571)
(0.0123518 -0.0229112 -0.00383733)
(0.0135841 -0.0242099 -0.00324105)
(0.0129859 -0.0262272 -0.00259014)
(0.0112589 -0.029533 -0.00195668)
(0.00552281 -0.0349121 -0.00145861)
(0.00268196 -0.0426956 -0.00248272)
(-0.00506613 -0.0316163 -0.00506384)
(-0.0089377 -0.0266579 -0.00453661)
(-0.0151506 -0.0242538 -0.00547795)
(-0.0171051 -0.0233902 -0.0065162)
(-0.0175223 -0.0232111 -0.00755446)
(-0.0159323 -0.0233723 -0.00849055)
(-0.0130764 -0.0235364 -0.00930227)
(-0.00925188 -0.0234562 -0.00991468)
(-0.00448589 -0.0230635 -0.0100413)
(-0.00105215 -0.0222768 -0.00889569)
(0.00162358 -0.0224258 -0.0089242)
(0.0050038 -0.0233381 -0.0100889)
(0.0097329 -0.0237565 -0.0100291)
(0.0135628 -0.0238637 -0.00945626)
(0.016426 -0.0237251 -0.00865889)
(0.0180146 -0.0235863 -0.0077178)
(0.0175674 -0.0237841 -0.0066609)
(0.0155564 -0.0246508 -0.00559862)
(0.00924747 -0.0270582 -0.00462046)
(0.00524505 -0.032042 -0.00505173)
(-0.0100611 -0.019156 -0.0100585)
(-0.0168829 -0.0152376 -0.0111648)
(-0.0229839 -0.0136639 -0.0131758)
(-0.0248051 -0.0130906 -0.0150229)
(-0.0248225 -0.0127415 -0.0168676)
(-0.0227255 -0.0124086 -0.0185886)
(-0.0190176 -0.0118898 -0.0201517)
(-0.0138466 -0.0110548 -0.0213771)
(-0.00712821 -0.00993651 -0.0218144)
(-0.00213235 -0.00883848 -0.0195322)
(0.00272789 -0.00898579 -0.0196183)
(0.00767639 -0.010137 -0.021914)
(0.0143856 -0.0112433 -0.0215454)
(0.0195724 -0.0120748 -0.0203539)
(0.0232952 -0.0125957 -0.0188018)
(0.025394 -0.0129348 -0.0170774)
(0.0253487 -0.0132921 -0.0152164)
(0.0234653 -0.0138703 -0.0133422)
(0.0172436 -0.0154502 -0.0112853)
(0.0102779 -0.0193987 -0.0100912)
(0.00456283 0.00505245 0.00781041)
(0.00413224 0.0110917 0.00416893)
(-0.00298447 0.00048782 -0.000432172)
(-0.0025579 -0.00294778 -0.000783806)
(-0.00298606 -0.00316271 -0.000429137)
(-0.00242997 -0.00141148 -0.000215038)
(-0.00105092 -0.00084548 -0.000124929)
(-0.00101004 -0.00133912 0.000180743)
(-0.000159577 -0.00234868 9.33374e-05)
(0.000226984 -0.00137292 0.000775926)
(0.000399684 -0.00139782 0.000227112)
(0.000904418 -0.00115201 0.000333417)
(0.00108088 -0.000608989 -1.26078e-06)
(0.00172054 -0.000584107 -0.000235788)
(0.00302564 -0.00155477 -0.000189866)
(0.00332628 -0.00344512 -0.000506557)
(0.00376024 -0.00259413 -0.000248799)
(0.000866717 0.00567611 0.000745734)
(-0.00632048 0.00721142 0.00660703)
(-0.00529985 -0.000932796 0.0109186)
(0.0046973 -0.006275 0.0119904)
(0.0114355 0.00466299 0.011434)
(0.0145134 0.00510349 0.00981117)
(0.0111582 0.00521812 0.00688962)
(0.00421088 0.00383442 0.00448094)
(-0.00294409 -0.000926395 0.000866064)
(-0.00277926 -0.00177372 -0.000659422)
(-0.00223443 -0.00147754 -0.00139446)
(-0.00106824 -0.000834116 -0.00162994)
(-0.00029784 -0.000886312 -0.00146136)
(0.000549967 -0.00073079 -0.00189835)
(0.00143318 -0.00122709 -0.00164621)
(0.00271033 -0.00150174 -0.00131558)
(0.00312604 -0.00178658 -0.000418985)
(0.0025953 -0.000763432 0.00143256)
(-0.00519403 0.0039974 0.0047649)
(-0.011835 0.00598364 0.00691052)
(-0.0131169 0.0071224 0.0091974)
(-0.0106714 0.00358302 0.0104479)
(-0.00384308 -0.0091764 0.0103937)
(0.0031566 -0.0203905 0.00805975)
(0.00942269 -0.0111351 0.00941451)
(0.014194 -0.00310156 0.00844653)
(0.0144047 0.00367042 0.00657855)
(0.0105246 0.00606087 0.00522224)
(0.00595311 0.00433856 0.00395069)
(0.000337497 0.000187975 0.00157866)
(-0.00200797 -0.00207944 -0.00117924)
(-0.0014327 -0.00204828 -0.00229657)
(-0.000445077 -0.00140495 -0.00334321)
(0.000732814 -0.00142284 -0.00320289)
(0.00168242 -0.00192807 -0.00205455)
(0.00220664 -0.00200935 -0.000896446)
(-0.00156157 0.000825611 0.00257767)
(-0.00734367 0.00440046 0.00458254)
(-0.0120455 0.00558818 0.00569379)
(-0.0155965 0.00316322 0.00713705)
(-0.014307 -0.00286168 0.00875912)
(-0.0089303 -0.0120092 0.00879679)
(-0.00289321 -0.0225917 0.00718256)
(0.00251198 -0.0294591 0.00433102)
(0.00694773 -0.0202392 0.00694017)
(0.0098042 -0.0096781 0.00713559)
(0.0127295 0.0015644 0.00623462)
(0.012254 0.00661496 0.00542485)
(0.00999613 0.00627068 0.00453394)
(0.00692743 0.00370292 0.00324886)
(0.00335266 0.000674125 0.00146392)
(0.000336131 -0.00187905 -0.00149629)
(-5.54052e-06 -0.0020812 -0.00369002)
(0.000340041 -0.00204494 -0.00352857)
(-0.00029054 -0.0017893 -0.00106625)
(-0.00385278 0.00105812 0.00198938)
(-0.0074392 0.0039616 0.00372501)
(-0.0105385 0.00616562 0.00506477)
(-0.0127907 0.00580355 0.00590011)
(-0.0129002 0.000168687 0.00683961)
(-0.00979158 -0.0106468 0.00754699)
(-0.00677815 -0.0214319 0.00682069)
(-0.00242559 -0.0311351 0.00398436)
(0.00209137 -0.0346082 0.00137948)
(0.00560051 -0.0260111 0.00559553)
(0.00597901 -0.015575 0.00728096)
(0.0077957 -0.00418546 0.00781037)
(0.0103046 0.00362801 0.00727132)
(0.0107686 0.00558415 0.00652739)
(0.00991737 0.00473443 0.00550138)
(0.00782873 0.00326472 0.00413601)
(0.00475338 0.0018911 0.00249497)
(0.00161547 0.000280839 -0.000132726)
(-0.00103687 0.000506491 -6.47763e-06)
(-0.00444341 0.00222055 0.00282947)
(-0.00747171 0.00346395 0.00450125)
(-0.00941042 0.00478974 0.00591301)
(-0.0101466 0.00533494 0.00698091)
(-0.00960053 0.00274829 0.0077601)
(-0.00730979 -0.00534846 0.00821415)
(-0.00573933 -0.0164468 0.00755291)
(-0.00549733 -0.0270261 0.00565177)
(-0.00204579 -0.0359776 0.00127393)
(0.00157676 -0.0366195 -0.000953206)
(0.004788 -0.0281721 0.00478593)
(0.00288616 -0.0182505 0.00747366)
(0.00307517 -0.00791066 0.00918173)
(0.00359578 -0.000867152 0.0100118)
(0.00517153 0.00271209 0.00952616)
(0.00510288 0.00380892 0.00861929)
(0.00407794 0.00428259 0.00757984)
(0.00237814 0.00458087 0.00666011)
(0.000662353 0.00456233 0.00575064)
(-0.000574651 0.00454272 0.00583052)
(-0.0020148 0.00455228 0.00683854)
(-0.00344066 0.0042071 0.00779086)
(-0.00425759 0.00363266 0.0088365)
(-0.0041817 0.00238922 0.00973073)
(-0.0025017 -0.00153131 0.0101507)
(-0.00257485 -0.00875418 0.0092412)
(-0.00256722 -0.0189598 0.00758033)
(-0.00465938 -0.0290111 0.00486328)
(-0.00151119 -0.0377528 -0.000943504)
(0.000522218 -0.036832 -0.00295903)
(0.00365494 -0.0279854 0.00365516)
(2.6291e-05 -0.0190473 0.00667697)
(-0.000447315 -0.0103869 0.00854898)
(-0.00132094 -0.00468945 0.00972474)
(-0.00084285 -0.00122955 0.0103363)
(-0.000303595 0.000959963 0.0105163)
(-0.000169301 0.0023206 0.0102485)
(-0.000178402 0.00303419 0.00988047)
(-2.25568e-05 0.0031625 0.00959217)
(0.000333814 0.00303256 0.00963709)
(0.000613661 0.00276967 0.00994087)
(0.000747306 0.00202082 0.0102618)
(0.00101204 0.000553648 0.0103831)
(0.00158402 -0.00173192 0.0101384)
(0.00192102 -0.00521634 0.00952434)
(0.000893067 -0.0109996 0.00840481)
(0.000313627 -0.0195675 0.00665539)
(-0.00346409 -0.0286599 0.00370122)
(-0.000427948 -0.037772 -0.00289873)
(-0.00139012 -0.0342993 -0.0052295)
(0.00104441 -0.0250993 0.00104619)
(-0.00373162 -0.0178354 0.00365014)
(-0.00452766 -0.0118576 0.00476693)
(-0.00536457 -0.00755871 0.00531533)
(-0.00490445 -0.00453503 0.00566698)
(-0.00401599 -0.00217853 0.00610751)
(-0.00262127 -6.9351e-05 0.0068259)
(-0.00110356 0.00125157 0.00764771)
(-2.40534e-05 0.00199781 0.00864823)
(0.000611608 0.00182622 0.00853588)
(0.00170569 0.000916333 0.00742358)
(0.00323984 -0.000384408 0.00652887)
(0.00459869 -0.00245456 0.00579812)
(0.0054571 -0.00481883 0.00533789)
(0.00588192 -0.00791068 0.00499748)
(0.00498414 -0.0122936 0.00450399)
(0.00410009 -0.0182975 0.00349143)
(-0.000765699 -0.0255903 0.00102485)
(0.00151107 -0.0350198 -0.00517255)
(-0.00453736 -0.0266585 -0.00893389)
(-0.00475625 -0.019444 -0.00475397)
(-0.0100039 -0.0154134 -0.00357551)
(-0.0113095 -0.0131494 -0.00358599)
(-0.0118788 -0.0119853 -0.00410906)
(-0.0108246 -0.0114665 -0.00459357)
(-0.00902582 -0.0112365 -0.00477972)
(-0.00667971 -0.0110979 -0.00458131)
(-0.00383127 -0.0110005 -0.00377287)
(-0.00141513 -0.00997429 -0.00160193)
(0.00228771 -0.0100893 -0.00172132)
(0.00452231 -0.0111862 -0.00395376)
(0.00729763 -0.0112831 -0.00486621)
(0.00961952 -0.0114351 -0.00512727)
(0.0114087 -0.0116824 -0.00496928)
(0.012446 -0.0122184 -0.00447415)
(0.0118306 -0.0134199 -0.00390132)
(0.0104365 -0.0157165 -0.00380662)
(0.00507559 -0.0197997 -0.00486716)
(0.00468343 -0.0271024 -0.00891988)
(-0.0111659 -0.0152379 -0.0168791)
(-0.0175837 -0.0091267 -0.0175814)
(-0.0238343 -0.00620683 -0.0200442)
(-0.0256599 -0.00446581 -0.0226539)
(-0.0258772 -0.00315476 -0.0254173)
(-0.0241172 -0.0019631 -0.0280823)
(-0.0209042 -0.000669903 -0.0305221)
(-0.0163053 0.000860711 -0.0324577)
(-0.0100192 0.00251874 -0.0332648)
(-0.00432755 0.00438523 -0.0309407)
(0.00510257 0.00423442 -0.0310466)
(0.0107104 0.00237057 -0.0334453)
(0.016987 0.000744485 -0.0327265)
(0.0215727 -0.00077101 -0.0308355)
(0.0247728 -0.00206113 -0.0284138)
(0.0265117 -0.00326027 -0.0257476)
(0.0262476 -0.0045876 -0.0229603)
(0.0243393 -0.00634765 -0.020304)
(0.0179424 -0.00929473 -0.017767)
(0.0113654 -0.0154722 -0.0169587)
(0.000921516 0.007038 -0.00154226)
(-0.000452299 0.000747614 -0.00281177)
(-0.000652962 -0.00301143 -0.000623924)
(-0.00081579 -0.00394974 -0.000464491)
(-0.000853762 -0.00322312 0.000177848)
(-0.000701337 -0.00161825 7.8297e-05)
(0.000677521 -0.000592171 0.000122662)
(0.00060838 -0.000713227 0.000537597)
(0.000443451 -0.00115242 0.00114967)
(0.000241012 -0.00112098 0.000864377)
(-2.15165e-05 -0.00108262 0.00100872)
(-0.00046056 -0.000633453 0.000666019)
(-0.000465787 -0.00030847 0.000410603)
(-0.000401623 -0.000691932 0.000164322)
(0.000878141 -0.00202271 0.000231741)
(0.0010563 -0.00351577 7.24288e-05)
(0.0014635 -0.00426331 -0.000572679)
(0.00208924 -0.00235803 -0.00147434)
(-0.000894496 0.00670519 0.000460956)
(-0.00262112 0.00741259 0.00422366)
(0.00497055 0.00328701 0.0144205)
(0.00980281 0.00514369 0.0145192)
(0.0112862 0.00492089 0.0112866)
(0.00805704 0.00460477 0.00751232)
(0.00307041 0.00279743 0.00474984)
(-0.00155524 -0.00137096 0.000959176)
(-0.00138753 -0.00196634 -0.000695187)
(-0.000978 -0.00158571 -0.00143103)
(-0.000277888 -0.0011609 -0.00191734)
(-2.42398e-05 -0.00100733 -0.00208196)
(4.33344e-05 -0.000986658 -0.00204749)
(0.000323046 -0.00121486 -0.00169788)
(0.00102934 -0.00165538 -0.00109613)
(0.00129238 -0.00209079 -0.000221815)
(0.000749819 -0.00109386 0.00199654)
(-0.00420244 0.00288684 0.00538143)
(-0.00925435 0.00487759 0.00807711)
(-0.0118562 0.00603912 0.0116573)
(-0.00919035 0.00767557 0.0129864)
(-0.004348 0.00606359 0.0139629)
(0.00330415 -0.00671843 0.0129312)
(0.00845657 -0.00308626 0.0141842)
(0.0122915 0.00172525 0.0122803)
(0.0122086 0.00525611 0.00937813)
(0.0095044 0.00574138 0.00718084)
(0.0061714 0.00355483 0.00499212)
(0.00166743 -0.000195629 0.00213032)
(-0.000380525 -0.00235964 -0.000907836)
(-0.000516133 -0.00222415 -0.00252032)
(-0.000182045 -0.00182818 -0.00352747)
(0.000157331 -0.00185405 -0.00335613)
(0.000413516 -0.00227133 -0.00208452)
(-0.000206768 -0.00220614 0.000129354)
(-0.00308167 0.000405574 0.00338458)
(-0.00762271 0.00356903 0.00598496)
(-0.0111551 0.00523144 0.00806104)
(-0.0137749 0.00428681 0.0103656)
(-0.0133273 0.00102198 0.0131405)
(-0.00894375 -0.00280245 0.0142393)
(-0.00341812 -0.0070173 0.0126314)
(0.00289617 -0.0143205 0.00610524)
(0.00714437 -0.00967032 0.00979121)
(0.0104472 -0.00304807 0.0104323)
(0.0128087 0.00410884 0.00936959)
(0.0123176 0.00671627 0.0079909)
(0.0103679 0.00572871 0.00642456)
(0.00758715 0.00319184 0.00447483)
(0.00427136 0.000112164 0.00193903)
(0.00148444 -0.00216417 -0.00114995)
(0.000369666 -0.00281255 -0.00340023)
(-0.000391879 -0.002767 -0.00311461)
(-0.00188942 -0.00197257 -0.000469352)
(-0.00507033 0.00046224 0.00275907)
(-0.00828294 0.00341063 0.00518036)
(-0.0111097 0.0056203 0.00708402)
(-0.0131308 0.00598082 0.00858699)
(-0.0135315 0.00267191 0.0100473)
(-0.0109928 -0.004617 0.010975)
(-0.0075767 -0.0108427 0.0098885)
(-0.00303069 -0.015533 0.00586146)
(0.00289081 -0.021135 8.01149e-05)
(0.00728726 -0.01557 0.00596952)
(0.00902603 -0.00897084 0.00901432)
(0.0112947 -0.000946979 0.00985501)
(0.0126581 0.00432751 0.00933)
(0.0123314 0.0054308 0.00830067)
(0.0108936 0.00414419 0.00684348)
(0.00857468 0.00221014 0.00501543)
(0.00531654 0.000207346 0.0025771)
(0.00201571 -0.00177763 -0.000618496)
(-0.00187472 -0.00166007 -0.000335479)
(-0.00530985 0.000430611 0.00305316)
(-0.00849191 0.00237364 0.00545456)
(-0.0107057 0.0042553 0.00727039)
(-0.0120629 0.00527454 0.00869172)
(-0.0123649 0.00357791 0.00968919)
(-0.0110193 -0.00226415 0.0101472)
(-0.00908086 -0.0101302 0.00920123)
(-0.00747108 -0.0166565 0.00596027)
(-0.00291103 -0.0225071 -0.00016066)
(0.00234023 -0.0255974 -0.00431416)
(0.0074771 -0.0182482 0.00288179)
(0.00753791 -0.0115103 0.00753119)
(0.00837339 -0.00370842 0.0100926)
(0.00907339 0.00212067 0.011022)
(0.00951852 0.00467303 0.0105313)
(0.00872914 0.00487036 0.00948194)
(0.00695705 0.00435839 0.00809934)
(0.0043219 0.00391358 0.00656131)
(0.00158474 0.00366273 0.0046523)
(-0.00140573 0.00367343 0.0047532)
(-0.00400826 0.00395822 0.00670696)
(-0.00646463 0.00440223 0.0082264)
(-0.00806292 0.0048997 0.00958546)
(-0.00872704 0.00459349 0.0106108)
(-0.00824905 0.00170395 0.0110875)
(-0.007956 -0.00440342 0.0100751)
(-0.007335 -0.0122806 0.00752618)
(-0.00745869 -0.019171 0.00284916)
(-0.00223316 -0.0268305 -0.00443856)
(0.000757939 -0.0285172 -0.00758982)
(0.0066782 -0.0190469 2.58064e-05)
(0.0053218 -0.0120127 0.00531938)
(0.00560167 -0.00490854 0.00883753)
(0.00505389 0.000215865 0.0109601)
(0.00493371 0.00298216 0.0112587)
(0.00439588 0.00403954 0.0108942)
(0.00334492 0.00440295 0.0101948)
(0.00188947 0.00448073 0.00941971)
(0.000664425 0.00447462 0.0085831)
(-0.000365755 0.00441119 0.00860678)
(-0.00148151 0.00435443 0.00941213)
(-0.00280261 0.00426399 0.0100955)
(-0.00374398 0.00388761 0.010681)
(-0.00422392 0.00281363 0.0110186)
(-0.00439838 -3.66709e-05 0.0107168)
(-0.00515862 -0.00532234 0.00860489)
(-0.00497156 -0.0125328 0.00521097)
(-0.00651791 -0.0197714 -7.68683e-06)
(-0.000606783 -0.0295287 -0.00764022)
(-0.00182454 -0.0288708 -0.0108711)
(0.00365007 -0.0178358 -0.00372962)
(0.000925176 -0.0108064 0.000925753)
(0.00129585 -0.0041884 0.00398076)
(0.000735059 0.00102182 0.00585531)
(0.00117908 0.00392716 0.00692725)
(0.00119802 0.00541193 0.00706264)
(0.00118513 0.00641444 0.00720559)
(0.00111664 0.00690259 0.00753272)
(0.000714437 0.00721887 0.00803309)
(-0.000193511 0.00716483 0.00798246)
(-0.000584741 0.00680624 0.00734113)
(-0.000621731 0.00634769 0.00690209)
(-0.000626138 0.00536657 0.0066749)
(-0.000613026 0.0039174 0.00651954)
(-0.000130972 0.000967503 0.00539882)
(-0.000795087 -0.00441293 0.00362776)
(-0.000462256 -0.0111771 0.000718084)
(-0.00337284 -0.0183817 -0.00381048)
(0.00197942 -0.0296237 -0.0108938)
(-0.00547808 -0.0242541 -0.0151464)
(-0.0035765 -0.0154136 -0.0100008)
(-0.00745662 -0.0107743 -0.00745467)
(-0.00735948 -0.00790315 -0.00630923)
(-0.00728302 -0.00626164 -0.006119)
(-0.00591531 -0.00537634 -0.00592272)
(-0.00418659 -0.0048925 -0.00514227)
(-0.00238863 -0.00462917 -0.00377372)
(-0.000578524 -0.00459034 -0.00170861)
(0.000373347 -0.00254905 0.00173315)
(0.000477316 -0.00266756 0.00151274)
(0.00138929 -0.0048091 -0.00212873)
(0.00314006 -0.00483831 -0.00425137)
(0.00488269 -0.00506231 -0.00561855)
(0.00657648 -0.00552659 -0.0063789)
(0.00791453 -0.00639844 -0.00652662)
(0.0079588 -0.00807843 -0.00668499)
(0.00795226 -0.0110137 -0.00773885)
(0.00393505 -0.0157378 -0.0101577)
(0.00562682 -0.0246931 -0.0151938)
(-0.0131763 -0.013664 -0.0229795)
(-0.0200456 -0.0062069 -0.0238311)
(-0.0265516 -0.00268138 -0.0265493)
(-0.028308 -0.000445328 -0.0297167)
(-0.0284755 0.00125111 -0.0332128)
(-0.0267061 0.00278682 -0.0366922)
(-0.023518 0.00441527 -0.0399372)
(-0.0188682 0.00629049 -0.0426393)
(-0.0123413 0.00829777 -0.0440412)
(-0.00577005 0.0103443 -0.0414809)
(0.00661996 0.0102242 -0.0416174)
(0.0130774 0.00819589 -0.0442708)
(0.0195942 0.00621746 -0.0429742)
(0.024214 0.00435405 -0.0403214)
(0.0273776 0.0027286 -0.0370999)
(0.0291238 0.00118645 -0.0336229)
(0.0289166 -0.000529424 -0.0301116)
(0.0270835 -0.0027927 -0.0268966)
(0.0204272 -0.00635732 -0.0240966)
(0.0133928 -0.0138882 -0.0231299)
(-0.000244091 -0.000504163 -0.00490558)
(-0.000796679 -0.00298319 -0.00248049)
(-0.000438848 -0.0039474 -0.000747167)
(7.46492e-05 -0.00364175 7.07425e-05)
(0.000480561 -0.00299287 0.0008099)
(0.00116393 -0.00194034 0.000992096)
(0.00185735 -0.000820691 0.00120629)
(0.00171618 -0.000348246 0.0015677)
(0.00122521 -0.000364088 0.00179061)
(0.000508244 -0.000388919 0.0019041)
(-0.000569088 -0.000415522 0.00194084)
(-0.00143515 -0.000291285 0.00194858)
(-0.00189827 -0.000434844 0.0016363)
(-0.00203423 -0.00107952 0.00121351)
(-0.001148 -0.00228541 0.000995866)
(-0.00042355 -0.0032092 0.000696967)
(3.8888e-05 -0.00381961 -0.000129451)
(0.000487543 -0.00427324 -0.0012915)
(0.000273474 -0.0025656 -0.00379416)
(-3.84255e-05 -0.0002241 -0.00669443)
(0.00394774 0.00524203 0.0117078)
(0.00688756 0.00522235 0.0112053)
(0.007506 0.00460431 0.00807527)
(0.00511702 0.00339268 0.00512599)
(0.00199588 0.000831528 0.00327794)
(-0.000165513 -0.00225311 0.00077545)
(-0.000131148 -0.00227221 -0.000214559)
(0.000326836 -0.00161127 -0.000711753)
(0.000494733 -0.00116686 -0.0010296)
(0.00013631 -0.000927937 -0.00116789)
(-0.000526054 -0.000979068 -0.00110326)
(-0.000836599 -0.00130804 -0.000798435)
(-0.000591856 -0.00191871 -0.00030558)
(-0.000325822 -0.00246982 0.000384272)
(-0.000396279 -0.00215199 0.00165)
(-0.00295049 0.00105209 0.0040939)
(-0.00596676 0.00340304 0.0059455)
(-0.00812472 0.00486222 0.00919098)
(-0.00687959 0.00615422 0.0120054)
(-0.00373803 0.00680699 0.0120419)
(0.0029217 0.00290051 0.0140845)
(0.00658611 0.00367715 0.0143953)
(0.00938749 0.00525861 0.0121982)
(0.00947034 0.00589905 0.00946053)
(0.00775394 0.00457219 0.00720698)
(0.00523052 0.00192619 0.00479482)
(0.0017081 -0.00159875 0.00202982)
(0.000591475 -0.00286499 -0.000119272)
(0.000131565 -0.00256009 -0.00151888)
(-6.45706e-05 -0.00216468 -0.00238236)
(-0.000346414 -0.00226834 -0.0021495)
(-0.000646881 -0.00276433 -0.000885459)
(-0.00137795 -0.00283719 0.000946142)
(-0.00307786 -0.000978629 0.00344372)
(-0.00672108 0.00217442 0.00607582)
(-0.00926371 0.00433848 0.00841468)
(-0.0108945 0.00506356 0.0108597)
(-0.0105147 0.00416389 0.0137774)
(-0.00729183 0.00299408 0.0157847)
(-0.00323103 0.00254339 0.0153437)
(0.00298185 0.00020363 0.00991416)
(0.00624484 0.00157912 0.0127157)
(0.00938494 0.00411482 0.0127919)
(0.011191 0.00641959 0.0111747)
(0.010979 0.00638812 0.00930114)
(0.00946755 0.00461542 0.00731672)
(0.00720958 0.00206256 0.0051837)
(0.0040347 -0.00109234 0.00251929)
(0.00178327 -0.00290182 6.67171e-05)
(0.000424995 -0.00334767 -0.00188169)
(-0.000832397 -0.00337906 -0.00149242)
(-0.00247434 -0.0028161 0.000911193)
(-0.00502172 -0.000719007 0.00347339)
(-0.00803922 0.00234566 0.00604495)
(-0.0103328 0.00469 0.00813067)
(-0.0118537 0.00597407 0.010067)
(-0.0120201 0.00531328 0.012007)
(-0.0101019 0.00250355 0.0135607)
(-0.00689875 -0.000237742 0.0129894)
(-0.00335511 -0.00197367 0.00963179)
(0.0040492 -0.00846035 0.0020534)
(0.00781807 -0.00417369 0.00778643)
(0.00986899 -0.000939717 0.0112816)
(0.0119443 0.00300036 0.0119289)
(0.0128511 0.00506039 0.011035)
(0.012381 0.00480629 0.0096032)
(0.0109007 0.00311882 0.00788449)
(0.0086573 0.000978675 0.00591143)
(0.00525645 -0.00133997 0.00326675)
(0.00186677 -0.00301202 0.00041048)
(-0.00214484 -0.00297816 0.000782635)
(-0.00558184 -0.00120616 0.0038168)
(-0.00886793 0.00112496 0.00638787)
(-0.0110194 0.00327402 0.00830675)
(-0.0124261 0.00477304 0.00994148)
(-0.0128672 0.00451964 0.0112724)
(-0.0119891 0.00183821 0.0120397)
(-0.0100686 -0.00243287 0.0111234)
(-0.00815035 -0.00566231 0.00750683)
(-0.00407268 -0.0104722 0.00153719)
(0.00335582 -0.0166489 -0.00431403)
(0.00918675 -0.00790434 0.00307117)
(0.0101016 -0.00370426 0.00836595)
(0.0111779 0.000626974 0.0111674)
(0.0117968 0.00370515 0.0119558)
(0.0117785 0.00477829 0.0114252)
(0.0106989 0.00430171 0.010302)
(0.00868928 0.00334042 0.00878919)
(0.00564579 0.00251488 0.00690499)
(0.00228975 0.00171986 0.00421076)
(-0.00213296 0.00169285 0.00432715)
(-0.00545745 0.0025036 0.00705363)
(-0.00839811 0.00338559 0.00889775)
(-0.0102797 0.00439865 0.010359)
(-0.0112548 0.00480677 0.011409)
(-0.0112489 0.00343813 0.011863)
(-0.0108237 7.4868e-06 0.0109511)
(-0.00993348 -0.00452745 0.00815454)
(-0.00914586 -0.00898528 0.00285384)
(-0.00311868 -0.0180827 -0.00465593)
(0.000908059 -0.0224104 -0.00863542)
(0.00855142 -0.0103852 -0.00044706)
(0.00884213 -0.00490707 0.0055994)
(0.00948221 -0.000605975 0.00947725)
(0.00909952 0.00243371 0.0115132)
(0.00877107 0.00383355 0.0119697)
(0.00781094 0.00398883 0.0116578)
(0.00615453 0.00369182 0.0108991)
(0.00383256 0.00330216 0.00990111)
(0.00150287 0.00302139 0.00855795)
(-0.0011572 0.00296732 0.00857414)
(-0.00345432 0.00320147 0.00988375)
(-0.00569956 0.00360248 0.0107965)
(-0.00727875 0.00395159 0.0114617)
(-0.00816728 0.00382364 0.0117205)
(-0.00849172 0.00233318 0.0112345)
(-0.00902962 -0.000906231 0.00920765)
(-0.00843793 -0.00540281 0.00540872)
(-0.00832706 -0.0111213 -0.000583178)
(-0.000673269 -0.0235078 -0.00879349)
(-0.00241085 -0.0255214 -0.0125284)
(0.00476807 -0.0118577 -0.00452504)
(0.00398211 -0.00418853 0.00129708)
(0.00538084 0.00191531 0.00538008)
(0.00493499 0.00498506 0.00739033)
(0.00498344 0.00631306 0.0083093)
(0.00470885 0.00687541 0.00855422)
(0.00401872 0.00728848 0.00859083)
(0.00300783 0.0075151 0.00868628)
(0.00152602 0.00786957 0.00880366)
(-0.000922322 0.00781482 0.00877524)
(-0.00247976 0.00744562 0.00854933)
(-0.0034778 0.00725063 0.00835018)
(-0.0041602 0.00687095 0.00822819)
(-0.00440423 0.00635818 0.00794223)
(-0.00432737 0.00502147 0.0070164)
(-0.00482004 0.00183659 0.00504984)
(-0.00344921 -0.00447269 0.00108788)
(-0.00443434 -0.0123632 -0.00465059)
(0.00261151 -0.0262873 -0.0126058)
(-0.0065159 -0.02339 -0.0171009)
(-0.00358579 -0.0131493 -0.0113059)
(-0.00630975 -0.00790308 -0.00735648)
(-0.00457799 -0.00443424 -0.00457642)
(-0.00318516 -0.00228967 -0.0024813)
(-0.00192113 -0.00152137 -0.00189973)
(-0.00102922 -0.00153025 -0.00181046)
(-0.000256034 -0.00159847 -0.00134218)
(0.000581444 -0.00177013 -0.000175429)
(0.000670277 0.00030442 0.00186942)
(0.000170254 0.00032649 0.00177673)
(0.000272994 -0.00194577 -0.000530167)
(0.00105365 -0.00177069 -0.00175826)
(0.00175619 -0.0016564 -0.00226204)
(0.00260561 -0.00161249 -0.00235936)
(0.0038667 -0.0023801 -0.0029437)
(0.00518572 -0.00454341 -0.0049578)
(0.00682249 -0.00807721 -0.00766554)
(0.00397468 -0.0134324 -0.0114961)
(0.00668069 -0.0238108 -0.0171773)
(-0.0150229 -0.0130906 -0.0248005)
(-0.0226545 -0.00446585 -0.0256561)
(-0.0297181 -0.00044535 -0.0283048)
(-0.0316202 0.00206212 -0.0316178)
(-0.0318046 0.00390864 -0.0353367)
(-0.0300232 0.00556932 -0.0391533)
(-0.0268753 0.00737956 -0.0429239)
(-0.0221595 0.00948201 -0.0463113)
(-0.0151848 0.0118122 -0.0485119)
(-0.00749183 0.014441 -0.0468383)
(0.00843136 0.0142899 -0.0469316)
(0.0159694 0.0117443 -0.0487986)
(0.022897 0.00942763 -0.0466763)
(0.0275689 0.00732836 -0.0433225)
(0.0306833 0.00551898 -0.0395668)
(0.0324337 0.00385591 -0.035746)
(0.0322148 0.00199695 -0.0320197)
(0.0302525 -0.000535915 -0.0286749)
(0.0230477 -0.00459849 -0.0259537)
(0.0152526 -0.013303 -0.0249775)
(-0.000370162 -0.00244353 -0.00502209)
(-0.000415003 -0.00321679 -0.00294495)
(0.000208693 -0.00326411 -0.000785784)
(0.000812244 -0.0030087 0.000505562)
(0.00155101 -0.00271222 0.0015649)
(0.00254685 -0.00174463 0.00209738)
(0.00300103 -0.000905053 0.00248627)
(0.00280584 -0.000447937 0.00305204)
(0.00206989 -0.000382697 0.00359339)
(0.000811815 -0.000458786 0.00405784)
(-0.00123289 -0.000414139 0.00413756)