/*--------------------------------*- C++ -*----------------------------------*\
| =========                 |                                                 |
| \\      /  F ield         | OpenFOAM: The Open Source CFD Toolbox           |
|  \\    /   O peration     | Version:  v1912                                 |
|   \\  /    A nd           | Website:  www.openfoam.com                      |
|    \\/     M anipulation  |                                                 |
\*---------------------------------------------------------------------------*/
FoamFile
{
    version     2.0;
    format      ascii;
    class       volScalarField;
    location    "550";
    object      epsilon;
}
// * * * * * * * * * * * * * * * * * * * * * * * * * * * * * * * * * * * * * //

dimensions      [0 2 -3 0 0 0 0];


internalField   nonuniform List<scalar> 
12441
(
0.0102964
0.00908504
0.00832714
0.00770267
0.0071837
0.006749
0.00638224
0.00607087
0.00580476
0.00557624
0.00537871
0.00520469
0.00505532
0.00491389
0.00479794
0.00469544
0.00489809
0.0206214
0.279309
3.05782
20.9486
39.25
0.0101189
0.00892023
0.00818408
0.00757697
0.007072
0.00664874
0.0062914
0.00598791
0.00572842
0.0055056
0.00531297
0.005143
0.00499756
0.00486005
0.00474753
0.00464953
0.00481729
0.0203669
0.262979
3.04988
21.2382
40.2318
0.00989692
0.00871746
0.0080004
0.00740918
0.00691756
0.00650562
0.00615798
0.00586288
0.00561077
0.00539451
0.00520786
0.00504332
0.00490307
0.00476916
0.00466192
0.00456925
0.00465462
0.0184368
0.222355
3.01823
21.6167
41.3784
0.00967333
0.00851382
0.00781503
0.00723894
0.00675998
0.00635875
0.00602025
0.00573305
0.00548786
0.00527775
0.00509666
0.00493742
0.004802
0.00467516
0.00457257
0.00448497
0.00450768
0.0161268
0.182922
2.99475
22.0838
42.5504
0.0094291
0.00828919
0.00760914
0.00704868
0.00658291
0.00619291
0.0058641
0.00558536
0.00534768
0.00514433
0.00496949
0.00481611
0.00468631
0.00456353
0.00446711
0.00438677
0.00435641
0.0140453
0.162653
3.00094
22.602
43.6698
0.00922313
0.00809957
0.00743473
0.00688689
0.00643169
0.00605061
0.00572939
0.0054572
0.0052252
0.00502687
0.0048565
0.00470737
0.00458137
0.00446514
0.00437253
0.00429601
0.00428199
0.0141225
0.181964
3.10787
23.2349
44.7472
0.00900246
0.00789596
0.00724757
0.00671347
0.00626983
0.00589862
0.0055859
0.00532112
0.00509569
0.00490324
0.00473829
0.00459423
0.00447301
0.00436013
0.00427122
0.0042024
0.00603251
0.0231306
0.28794
3.41129
24.0849
45.7945
0.00882401
0.00773131
0.00709576
0.00657225
0.00613745
0.00577365
0.00546719
0.00520774
0.00498689
0.0047984
0.00463692
0.00449607
0.00437779
0.00427077
0.00418962
0.00516323
0.0341834
0.0791131
0.603335
4.05415
25.2791
46.8732
0.00862986
0.00755209
0.00693106
0.00641968
0.00599509
0.00563999
0.00534103
0.00508811
0.00487302
0.00468968
0.0045329
0.00439649
0.00428304
0.004138
0.00538398
0.026729
0.1714
0.29292
1.29434
5.19253
26.9536
48.0153
0.00847518
0.00740921
0.00679917
0.00629683
0.00587975
0.00553094
0.00523724
0.00498877
0.00477748
0.0045974
0.00444342
0.00430974
0.00419858
0.00426738
0.0248893
0.143887
0.494933
0.763706
2.37886
6.88727
29.2074
49.2846
0.00830573
0.00725274
0.00665543
0.00616372
0.00575561
0.00541442
0.00512729
0.00488454
0.00467828
0.00450267
0.00435274
0.00422391
0.00408574
0.00942168
0.108792
0.395959
0.934279
1.41956
3.62897
9.02847
32.0678
50.6975
0.00817072
0.00712805
0.0065403
0.00605643
0.00565481
0.00531902
0.00503641
0.00479745
0.0045944
0.00442152
0.00427393
0.00414865
0.00415988
0.0469031
0.290276
0.699279
1.32747
2.05393
4.78318
11.3889
35.4776
52.295
0.00802157
0.00699037
0.00641397
0.00593958
0.00554594
0.00521694
0.00494017
0.00470628
0.00450767
0.00433871
0.00419465
0.00403526
0.00831449
0.15206
0.505297
0.945994
1.60986
2.5476
5.73254
13.7458
39.3216
54.0597
0.00790069
0.00687874
0.0063109
0.00584353
0.00545569
0.00513153
0.00485879
0.0046283
0.00443257
0.00426608
0.00412412
0.00387964
0.0358494
0.297134
0.676455
1.1136
1.79821
2.89945
6.4838
15.9503
43.4567
56.0037
0.00776929
0.00675737
0.00619956
0.00574055
0.00535975
0.00504156
0.00477396
0.00454791
0.00435606
0.00419297
0.00405404
0.00425592
0.103871
0.427348
0.794245
1.22457
1.92488
3.14808
7.07971
17.9317
47.7455
58.0812
0.00766022
0.00665671
0.00610662
0.00565394
0.00527838
0.00496456
0.0047006
0.00447763
0.00428838
0.00412754
0.0039906
0.00935511
0.193157
0.523677
0.87351
1.30034
2.01343
3.32905
7.56234
19.6719
52.0687
60.2902
0.00754427
0.00654962
0.00600846
0.0055632
0.00519387
0.0048853
0.00462585
0.00440674
0.00422084
0.00406291
0.00392896
0.0309448
0.275718
0.59149
0.928701
1.35451
2.07833
3.46686
7.96408
21.1813
56.3372
62.571
0.00744276
0.00645605
0.00592217
0.00548291
0.00511856
0.00481417
0.00455823
0.00434211
0.00415877
0.00400307
0.00387371
0.0741427
0.340512
0.639826
0.968981
1.39513
2.12828
3.57715
8.30793
22.4816
60.4878
64.9213
0.00734013
0.00636113
0.00583509
0.00540234
0.00504342
0.00474361
0.00449156
0.00427876
0.0040983
0.00394508
0.00380962
0.125295
0.388619
0.67567
0.999803
1.42698
2.16859
3.66978
8.60971
23.5978
64.4849
67.2818
0.0072455
0.006274
0.0057548
0.0053277
0.0049735
0.00467766
0.00442897
0.00421905
0.00404107
0.00389003
0.00427019
0.171774
0.424415
0.70346
1.02443
1.45304
2.20266
3.75106
8.88011
24.5537
68.3121
69.6617
0.00715526
0.00619047
0.00567815
0.00525671
0.0049072
0.00461527
0.00436988
0.00416274
0.00398712
0.00383816
0.009755
0.209905
0.451891
0.725925
1.04489
1.47523
2.23275
3.82495
9.12615
25.3708
71.9735
72.0102
0.0070645
0.00610706
0.00560147
0.00518564
0.00484084
0.00455292
0.00431095
0.00410677
0.00393373
0.00378754
0.0268578
0.240245
0.473824
0.744764
1.06252
1.49484
2.26043
3.89388
9.35237
26.068
75.4862
74.3523
0.00698519
0.00603343
0.00553374
0.00512271
0.00478186
0.0044972
0.00425796
0.00405605
0.00388493
0.00374244
0.0535306
0.264463
0.492009
0.761073
1.07821
1.5128
2.2868
3.95917
9.56163
26.6621
78.8832
76.6493
0.0068987
0.00595406
0.00546086
0.00505529
0.00471906
0.00443836
0.00420252
0.00400357
0.00383504
0.00370262
0.081366
0.284129
0.507595
0.775591
1.0926
1.52974
2.31258
4.02147
9.75578
27.1676
82.2077
78.9445
0.00683042
0.00589054
0.00540232
0.00500073
0.00466771
0.00438959
0.00415585
0.00395859
0.00379148
0.00368394
0.105715
0.300516
0.521334
0.788837
1.10616
1.54615
2.3382
4.08104
9.93605
27.5975
85.5162
81.212
0.00674473
0.00581218
0.00533069
0.00493481
0.00460667
0.00433278
0.0041027
0.00390866
0.00374439
0.00364437
0.125929
0.314559
0.533726
0.801187
1.11922
1.56233
2.3638
4.13802
10.1034
27.9631
88.8728
83.5114
0.00668558
0.00575682
0.00527938
0.00488667
0.00456103
0.0042891
0.00406059
0.00386779
0.00370457
0.00383249
0.142798
0.32691
0.545123
0.812912
1.132
1.57848
2.38935
4.19251
10.2585
28.2745
92.3513
85.8273
0.00660186
0.00568041
0.0052097
0.00482275
0.00450207
0.00423447
0.00400972
0.00382023
0.00366002
0.0057219
0.157237
0.33802
0.555772
0.824213
1.14467
1.59467
2.41476
4.24465
10.4021
28.5398
96.0275
88.2307
0.00655218
0.00563367
0.00516611
0.00478152
0.0044626
0.00419628
0.00397249
0.0037837
0.00362442
0.0108321
0.169943
0.348199
0.565856
0.83523
1.15731
1.6109
2.43988
4.29456
10.5349
28.7664
99.9786
90.7106
0.0064681
0.00555725
0.00509679
0.00471832
0.00440473
0.00414307
0.00392336
0.00373814
0.003583
0.0197918
0.181381
0.357665
0.575509
0.846058
1.16995
1.62713
2.4646
4.34237
10.6576
28.96
104.275
93.3406
0.00642585
0.00551708
0.00505892
0.00468207
0.00436959
0.00410866
0.00388945
0.00370455
0.00355185
0.0321615
0.191844
0.366574
0.584828
0.856757
1.1826
1.64332
2.48885
4.3882
10.7709
29.1257
108.977
96.1058
0.0063434
0.00544227
0.00499122
0.00462055
0.00431347
0.0040573
0.00384224
0.003661
0.00351592
0.0466546
0.201523
0.375039
0.593884
0.867358
1.19523
1.65938
2.51257
4.43213
10.8756
29.2681
114.132
99.0732
0.0063097
0.00540988
0.00496031
0.0045905
0.00428382
0.00402773
0.00381258
0.00363112
0.00349476
0.0619054
0.210548
0.383144
0.602723
0.877872
1.20781
1.67526
2.53571
4.47422
10.9722
29.3914
119.775
102.217
0.00622524
0.00533363
0.00489172
0.00452862
0.00422787
0.00397701
0.00376644
0.00358899
0.00347356
0.0768783
0.219011
0.390951
0.611377
0.888295
1.2203
1.69092
2.55823
4.51451
11.0616
29.4997
125.925
105.592
0.00619839
0.00530732
0.00486607
0.00450308
0.00420206
0.0039507
0.00373956
0.00356152
0.00347804
0.0909735
0.226979
0.398503
0.619863
0.898614
1.23266
1.7063
2.58011
4.55299
11.1444
29.5972
132.596
109.157
0.00611141
0.00522923
0.00479624
0.00444054
0.00414595
0.00390028
0.00369408
0.00352036
0.00354619
0.103885
0.234501
0.405832
0.628184
0.908808
1.24484
1.72138
2.60132
4.58964
11.2211
29.6874
139.795
112.957
0.00608785
0.00520584
0.0047731
0.0044171
0.00412189
0.0038754
0.0036684
0.00349392
0.00612731
0.115474
0.24161
0.412955
0.636338
0.918852
1.25682
1.73612
2.62182
4.62439
11.2927
29.7731
147.52
116.938
0.00599587
0.00512386
0.00470029
0.00435237
0.00406426
0.00382403
0.00362243
0.00345265
0.0240615
0.125628
0.248325
0.419882
0.644315
0.928719
1.26855
1.75047
2.64158
4.65718
11.3596
29.856
155.757
121.137
0.00596755
0.00509637
0.00467358
0.00432578
0.00403741
0.0037967
0.00359462
0.00342489
0.0426126
0.13413
0.254657
0.426616
0.6521
0.938379
1.27999
1.76442
2.66055
4.68791
11.4225
29.9367
164.452
125.495
0.00586288
0.00500347
0.00459146
0.00425313
0.00397307
0.00373966
0.00354392
0.00338444
0.0522805
0.14103
0.260612
0.433151
0.659675
0.947799
1.29112
1.77792
2.67868
4.71649
11.4821
30.0142
173.474
130.045
0.00582127
0.004964
0.0045539
0.00421667
0.00393723
0.00370417
0.00350876
0.00333672
0.0574076
0.146589
0.266194
0.439478
0.667017
0.956943
1.30189
1.79094
2.69592
4.74281
11.5389
30.0871
182.552
134.727
0.00569965
0.00485647
0.00445887
0.00413235
0.00386218
0.00363725
0.00344891
0.00330541
0.0604236
0.151088
0.27141
0.445583
0.674106
0.965774
1.31227
1.80342
2.7122
4.7668
11.593
30.1543
191.209
139.588
0.00561734
0.00478993
0.00440436
0.00408616
0.00382162
0.00360033
0.00341416
0.00351574
0.0623537
0.154756
0.276271
0.451447
0.680919
0.974248
1.3222
1.81533
2.72744
4.78841
11.6441
30.2159
198.752
144.654
0.00525494
0.00446066
0.00411241
0.00382687
0.00358963
0.00339115
0.00322369
0.00360897
0.0636582
0.157762
0.280786
0.457048
0.687436
0.982323
1.33166
1.82661
2.74158
4.80765
11.6912
30.2734
204.375
150.447
95.0235
43.7433
25.8682
20.7987
21.7933
19.1745
18.821
16.788
15.6884
15.0786
14.3223
13.4564
14.0573
16.0052
18.9351
21.8023
24.4325
27.4984
30.821
33.3243
34.7256
35.9732
37.3385
38.5417
39.5687
39.925
39.4624
38.3137
36.9133
34.9917
32.868
32.1737
32.1881
14.6114
3.28182
94.6475
43.7298
25.8767
20.9472
22.1467
19.4653
19.1228
17.0211
15.8977
15.2584
14.4104
13.5301
14.1465
16.1135
19.0671
21.9179
24.488
27.5814
31.0472
33.7968
35.3945
36.6579
37.9564
39.1109
40.1438
40.5307
40.0945
38.9251
37.449
35.4157
33.2035
32.4704
32.425
14.8575
3.28522
93.9266
43.694
25.8937
21.2494
22.8518
20.0495
19.7134
17.475
16.3106
15.6116
14.5937
13.6867
14.3317
16.344
19.3458
22.1493
24.6026
27.7318
31.4543
34.7308
36.8126
38.1473
39.3014
40.3262
41.3402
41.7699
41.3847
40.1861
38.5656
36.2986
33.8948
33.0723
32.9002
15.1365
3.29198
92.8104
43.6291
25.9227
21.7197
23.8989
20.9266
20.569
18.1332
16.918
16.1318
14.8958
13.9511
14.6383
16.7334
19.8178
22.5626
24.8364
27.9816
32.0771
36.2099
39.1534
40.677
41.591
42.3484
43.2665
43.719
43.4021
42.1776
40.3512
37.7107
34.9872
34.0013
33.6745
15.4882
3.30247
91.3035
43.5282
25.969
22.3692
25.272
22.0901
21.6669
18.9861
17.7126
16.8133
15.3433
14.3527
15.0962
17.3177
20.5361
23.2446
25.2907
28.4111
32.996
38.373
42.687
44.6376
45.2045
45.4651
46.1196
46.5148
46.2617
45.0245
42.9403
39.7602
36.5499
35.2943
34.8204
15.9475
3.31715
89.3553
43.3848
26.0401
23.2119
26.9674
23.5423
22.9999
20.0367
18.6972
17.6592
15.9614
14.9199
15.7288
18.1215
21.5434
24.2801
26.1026
29.1642
34.355
41.4264
47.7916
50.6284
50.7718
50.1712
50.2386
50.3871
50.1428
48.9073
46.5267
42.6056
38.6839
37.0061
36.428
16.5465
3.33664
87.0012
43.1922
26.1475
24.2704
28.9988
25.3001
24.5801
21.3014
19.8875
18.686
16.779
15.6817
16.5563
19.1681
22.8887
25.7564
27.4286
30.4556
36.3889
45.6686
54.9673
59.5163
59.306
57.3023
56.1969
55.7125
55.3202
54.0811
51.3814
46.4738
41.5339
39.214
38.6117
17.3175
3.36159
84.2135
42.9439
26.3075
25.5769
31.3917
27.3928
26.435
22.8088
21.3117
19.924
17.8352
16.6756
17.6069
20.4966
24.6553
27.7974
29.4476
32.5643
39.4477
51.5272
64.8379
72.4503
72.3578
68.2425
64.9534
63.1007
62.2111
60.9028
57.8747
51.6821
45.3029
42.0232
41.5194
18.2954
3.39271
81.0699
42.6331
26.5427
27.1704
34.1744
29.8564
28.6033
24.5977
23.0094
21.417
19.1851
17.9548
18.9255
22.1669
26.9744
30.6011
32.3975
35.8374
44.016
59.5942
78.0991
90.6757
92.0286
85.1579
78.0662
73.5177
71.4395
69.8656
66.5009
58.6635
50.27
45.5741
45.3407
19.5205
3.43069
77.574
42.2523
26.8848
29.0919
37.3702
32.7277
31.1298
26.715
25.0287
23.2208
20.902
19.5937
20.5796
24.2586
30.0204
34.466
36.6311
40.7216
50.7182
70.5961
95.2898
114.803
120.239
110.889
97.8508
88.4045
83.8946
81.6252
77.8874
67.9823
56.8072
50.0483
50.3146
21.0412
3.47616
73.8369
41.7936
27.3759
31.3782
40.9914
36.0393
34.0608
29.2133
27.4244
25.4012
23.0777
21.6919
22.6663
26.8666
33.9886
39.7898
42.6566
47.7905
60.2618
85.146
116.19
143.248
156.096
147.182
126.862
109.567
100.689
96.961
92.7413
80.3001
65.3768
55.6684
56.7266
22.9175
3.5296
69.8857
41.248
28.0706
34.0544
45.0354
39.8157
37.4388
32.1475
30.2531
28.0309
25.8189
24.3767
25.3201
30.0983
39.043
47.0032
51.1111
57.6646
73.1466
103.056
138.914
170.987
192.124
189.519
165.048
138.132
122.735
116.524
111.614
96.1977
76.4673
62.6804
64.8792
25.2241
3.59119
65.8489
40.6058
29.0364
37.1319
49.4825
44.0713
41.297
35.5709
33.5675
31.1815
29.2349
27.7997
28.723
34.0736
45.2258
56.3412
62.5043
70.6216
88.9492
122.411
159.801
191.776
216.762
223.657
204.197
171.583
149.455
140.118
134.291
115.677
90.377
71.2943
75.0036
28.0505
3.66064
61.7626
39.8567
30.3514
40.6083
54.297
48.8109
45.6572
39.5259
37.4107
34.9147
33.4159
32.1201
33.1055
38.9149
52.3397
67.3852
76.517
85.7508
105.495
139.694
175.306
202.997
225.187
236.821
228.862
200.906
176.81
165.472
158.758
137.237
106.728
81.5461
87.0686
31.496
3.7369
57.7502
38.991
32.0962
44.4702
59.4299
54.0286
50.5231
44.0413
41.8091
39.2692
38.4052
37.4658
38.7101
44.7325
59.8705
78.5906
91.0027
100.262
119.379
152.014
184.393
206.669
222.321
231.127
231.151
215.284
197.4
187.594
180.53
157.063
123.768
93.0585
100.474
35.6481
3.81777
53.8399
38.0019
34.3424
48.6973
64.8261
59.699
55.8804
49.1303
46.7706
44.2522
44.1731
43.868
45.7025
51.5487
67.065
87.5884
102.183
110.574
128.3
159.129
188.56
206.191
215.012
217.046
217.799
212.434
205.437
200.801
194.058
169.946
138.146
104.778
113.767
40.5345
3.89942
50.1273
36.8904
37.1382
53.2475
70.4332
65.7777
61.6961
54.7887
52.2878
49.8383
50.6044
51.1934
54.0107
59.1968
73.2305
92.6278
107.211
115.024
132.638
162.882
190.041
203.81
206.856
201.97
199.428
199.144
201.463
202.609
196.164
172.485
146.21
114.963
124.743
46.0334
3.97581
46.6135
35.6734
40.4944
58.0619
76.1952
72.1931
67.9155
60.9931
58.3442
55.983
57.5329
59.1246
63.1534
67.2235
78.0769
93.8506
106.569
114.941
134.443
165.299
190.355
200.331
198.56
188.276
182.031
183.051
190.455
194.967
187.974
165.446
146.377
121.734
131.244
51.7481
4.03839
43.349
34.3967
44.3592
63.0799
82.0441
78.8412
74.459
67.695
64.9061
62.6392
64.8002
67.2568
72.3002
74.9936
81.83
92.8667
103.031
113.01
135.765
167.579
190.033
195.729
189.673
175.841
167.225
168.196
177.151
181.807
173.33
152.516
140.007
123.985
132.225
56.9031
4.07638
40.3033
33.1451
48.6087
68.2345
87.8992
85.5861
81.2196
74.8142
71.9322
69.7752
72.3313
75.2953
80.681
81.9784
85.0365
91.5101
99.3483
111.48
137.85
170.026
188.915
189.735
179.74
164.014
154.749
155.649
164.064
166.437
156.118
137.509
129.95
121.88
128.158
60.4065
4.07831
37.4893
32.028
53.0738
73.4427
93.6713
92.2733
88.0671
82.2344
79.3636
77.3764
80.1499
83.2211
88.1223
88.1518
88.3268
91.067
97.1497
111.649
141.225
172.422
186.596
182.163
168.694
152.421
143.952
145.146
151.929
150.771
138.941
122.886
118.734
116.532
120.465
61.2217
4.0349
34.8769
31.167
57.5598
78.6093
99.2701
98.7497
94.8609
89.8097
87.1176
85.395
88.3494
91.3017
95.1428
94.0493
92.2867
92.2823
97.2166
114.123
145.903
174.307
182.699
173.052
156.852
141.072
134.322
136.069
140.64
135.698
123.127
109.76
107.858
109.278
110.683
58.9153
3.94239
32.4767
30.6786
61.8838
83.633
104.611
104.884
101.465
97.3806
95.0862
93.7753
97.0104
99.9273
102.647
100.623
97.487
95.5562
99.8673
119.148
151.662
175.228
177.06
162.665
144.717
130.198
125.557
127.839
129.876
121.592
109.165
98.4112
97.9432
101.183
99.9801
53.9272
3.80432
30.2708
30.664
65.9097
88.4114
109.622
110.576
107.764
104.795
103.147
102.44
106.166
109.431
111.45
108.874
104.543
101.211
105.34
126.818
158.139
174.822
169.739
151.438
132.81
120.054
117.495
120.028
119.39
108.622
97.098
88.7209
89.0995
92.8977
89.0947
47.3016
3.6305
28.2673
31.2042
69.5632
92.8495
114.244
115.763
113.667
111.928
111.177
111.298
115.776
119.95
122.075
119.694
114.194
109.611
113.866
137.152
164.985
172.937
161.027
139.882
121.554
110.817
110.033
112.36
109.101
96.8749
86.7688
80.4285
81.211
84.7463
78.4607
40.1591
3.4339
26.4614
32.3594
72.8254
96.8699
118.437
120.413
119.115
118.692
119.077
120.268
125.773
131.517
134.742
133.674
127.297
121.328
125.829
150.109
171.857
169.603
151.351
128.498
111.235
102.545
103.075
104.695
99.0775
86.3841
77.9445
73.2521
74.092
76.8549
68.3424
33.3306
3.22729
24.8623
34.17
75.7151
100.425
122.183
124.531
124.087
125.042
126.782
129.304
136.145
144.169
149.613
151.286
144.808
137.159
141.691
165.544
178.49
165.053
141.23
117.704
101.993
95.2016
96.5223
96.9963
89.4718
77.132
70.3801
66.9401
67.5636
69.2615
58.9169
27.2725
3.02113
23.4808
36.6562
78.2693
103.504
125.49
128.148
128.596
130.983
134.277
138.41
146.95
158.019
166.962
173.075
167.751
158.17
162.038
183.131
184.561
159.603
131.154
107.791
93.8541
88.6844
90.2735
89.3124
80.4582
69.0537
63.8484
61.2858
61.4835
61.9821
50.3082
22.1468
2.82278
22.3333
39.8153
80.5273
106.127
128.389
131.323
132.686
136.559
141.596
147.646
158.319
173.312
187.332
200.028
197.338
185.514
187.27
202.215
189.713
153.608
121.539
98.9169
86.7575
82.862
84.2471
81.745
72.1772
62.0469
58.1507
56.1303
55.7548
55.0422
42.5941
17.9382
2.6367
21.4546
43.6152
82.5227
108.339
130.924
134.122
136.424
141.846
148.822
157.134
170.464
190.425
211.518
233.563
235.011
220.222
217.355
221.671
193.427
147.325
112.655
91.1211
80.5927
77.5948
78.3881
74.4245
64.713
55.9882
53.1214
51.3576
50.3228
48.4839
35.8054
14.5456
2.46504
20.8892
47.9849
84.2806
110.196
133.151
136.621
139.891
146.946
156.082
167.057
183.682
209.881
240.566
275.349
282.015
262.462
251.059
239.797
195.163
140.914
104.64
84.3515
75.2203
72.7552
72.6785
67.4806
58.0878
50.7469
48.6263
46.8889
45.1682
42.3594
29.9284
11.8397
2.30837
20.7351
52.8065
85.8209
111.758
135.126
138.893
143.177
151.984
163.546
177.67
198.374
232.362
275.666
326.51
337.952
310.389
285.473
254.436
194.37
134.384
97.4898
78.4968
70.4973
68.2352
67.1324
61.0214
52.2739
46.1968
44.56
42.6755
40.2958
36.7191
24.9128
9.69281
2.16625
21.1259
57.9166
87.1616
113.082
136.911
141.012
146.381
157.108
171.44
189.329
215.091
258.765
318.069
386.437
398.511
358.474
315.624
263.388
190.745
127.692
91.1241
73.4153
66.2846
63.9541
61.7903
55.1193
47.2086
42.2229
40.8422
38.6919
35.7248
31.6009
20.683
7.99163
2.03767
22.2957
63.1212
88.3232
114.227
138.566
143.052
149.613
162.502
180.071
202.541
234.631
290.315
368.852
451.05
454.032
397.562
335.828
265.122
184.246
120.765
85.4019
68.9557
62.4593
59.8574
56.7037
49.8081
42.811
38.7253
37.4135
34.9291
31.4781
27.0234
17.1495
6.64164
1.92136
24.5223
68.2237
89.3292
115.242
140.152
145.094
153.006
168.409
189.875
218.059
258.194
328.78
428.469
511.989
492.055
418.192
341.901
259.362
175.225
113.595
80.1814
64.9731
58.9151
55.9159
51.9246
45.0862
38.9937
35.6198
34.2314
31.3885
27.5758
22.9843
14.2187
5.56652
1.81596
28.1637
73.054
90.2048
116.175
141.735
147.23
156.729
175.168
201.502
237.066
287.691
376.715
495.389
557.868
503.792
416.272
333.602
247.187
164.232
106.216
75.3269
61.3378
55.5671
52.1186
47.4928
40.9251
35.6722
32.838
31.2665
28.0767
24.0299
19.4629
11.8003
4.70591
1.72016
33.4954
77.4904
90.9741
117.069
143.387
149.578
161.016
183.283
215.974
261.483
326.21
437.433
563.474
578.6
488.977
395.037
314.175
230.479
151.942
98.7255
70.7398
57.9419
52.3497
48.4681
43.4319
37.2786
32.7692
30.3251
28.4994
25.0012
20.8429
16.4246
9.81131
4.01268
1.63275
40.701
81.4765
91.6591
117.966
145.2
152.296
166.212
193.544
234.982
294.524
378.574
513.281
619.032
569.473
454.227
361.953
288.374
211.186
138.944
91.2271
66.3479
54.7024
49.2183
44.9721
39.7459
34.0913
30.218
28.0387
25.9174
22.1676
18.0072
13.8259
8.17857
3.45027
1.55263
49.6321
85.0126
92.279
118.912
147.292
155.619
172.86
207.264
261.429
341.509
450.976
598.976
643.36
532.858
408.141
323.963
260.035
190.8
125.74
83.84
62.1167
51.5629
46.1462
41.6396
36.4222
31.3047
27.9622
25.9466
23.5128
19.5778
15.5071
11.6193
6.83905
2.99043
1.47886
59.8743
88.1433
92.852
119.964
149.837
159.918
181.859
226.737
300.423
410.343
545.513
669.957
623.558
476.467
357.901
285.646
231.578
170.275
112.687
76.6673
58.0326
48.4935
43.1246
38.4762
33.4347
28.862
25.9556
24.0249
21.2805
17.2297
13.3208
9.7567
5.73961
2.61134
1.41061
70.5911
90.9442
93.3971
121.203
153.107
165.822
194.811
256.173
360.663
507.483
641.907
686.389
562.705
410.655
308.549
249.323
204.082
150.13
100.065
69.8098
54.1055
45.4884
40.1599
35.4847
30.7486
26.7099
24.1606
22.2563
19.2173
15.1167
11.4224
8.19203
4.83612
2.29614
1.34717
80.9187
93.5079
93.9374
122.752
157.575
174.479
214.77
303.466
453.291
617.016
684.495
630.082
477.711
344.767
263.197
216.145
178.04
130.663
88.0718
63.3497
50.3536
42.5606
37.2725
32.6654
28.3245
24.7997
22.5466
20.6286
17.3203
13.2291
9.78414
6.88259
4.09223
2.03174
1.28794
89.3733
95.9434
94.5064
124.821
164.128
188.196
247.965
381.717
571.776
672.572
632.523
525.245
388.539
285.084
223.496
186.671
153.645
112.068
76.8684
57.3578
46.8038
39.7368
34.4929
30.0201
26.123
23.0874
21.0881
19.1326
15.5869
11.5545
8.37768
5.78998
3.47827
1.80796
1.23242
95.1437
98.3956
95.1615
127.807
174.64
212.053
307.038
495.336
640.273
614.947
514.857
411.509
308.683
234.166
189.808
161.135
131.171
94.587
66.5749
51.8763
43.4783
37.0482
31.8595
27.5547
24.108
21.5331
19.7627
17.7614
14.0135
10.0784
7.17559
4.88027
2.9701
1.61685
1.18016
0.00337795
0.002506
0.00228051
0.0021705
0.00213087
0.00213498
0.0021659
0.0036403
0.0643449
0.159621
0.283914
0.460987
0.691977
0.98787
1.33812
1.83424
2.75091
4.81998
11.7221
30.3165
206.6
160.19
0.00334454
0.00224282
0.00184357
0.00160887
0.00148906
0.00145252
0.00148439
0.00365983
0.0646828
0.160628
0.285711
0.463153
0.6943
0.990561
1.34112
1.83769
2.75504
4.82565
11.7392
30.3489
207.501
170.338
0.00354058
0.00237589
0.00188234
0.00154519
0.0013242
0.00119458
0.00116398
0.00367463
0.0649043
0.161369
0.287116
0.464713
0.695743
0.992028
1.34257
1.83919
2.75666
4.82809
11.75
30.3823
207.552
180.026
0.00367094
0.00251746
0.00200376
0.00162965
0.00135815
0.00116741
0.00103224
0.00368535
0.0650262
0.161861
0.288127
0.465657
0.696289
0.992256
1.34243
1.8387
2.75567
4.82716
11.7527
30.4174
206.816
189.12
0.00392269
0.00276391
0.00222605
0.00182152
0.00151354
0.00127944
0.000997181
0.00369267
0.0650581
0.162115
0.28874
0.465976
0.695926
0.991232
1.34069
1.83619
2.75203
4.82271
11.7461
30.4544
205.339
198.081
0.00406035
0.00292975
0.0023982
0.00199145
0.00167432
0.00142418
0.000985483
0.0036971
0.0650057
0.162139
0.288953
0.465666
0.694647
0.988953
1.33735
1.83164
2.74568
4.81462
11.7288
30.4935
203.152
207.079
0.00434059
0.00320795
0.00265907
0.00223262
0.00189489
0.00162323
0.00105403
0.00369897
0.064872
0.161936
0.288764
0.464725
0.692452
0.985421
1.33239
1.82505
2.73657
4.80276
11.6993
30.5343
200.296
216.111
0.00447871
0.00337931
0.00284359
0.00242277
0.00208545
0.00181001
0.00118039
0.00369838
0.0646587
0.161509
0.288176
0.463155
0.689348
0.980648
1.32585
1.8164
2.72466
4.78704
11.6568
30.576
196.82
225.114
0.00478414
0.00368459
0.00313415
0.00269601
0.00234075
0.00204739
0.00130487
0.00369519
0.0643665
0.160861
0.287193
0.460963
0.685349
0.974651
1.31774
1.80571
2.70991
4.76735
11.6003
30.6171
192.78
234.019
0.00490883
0.00384891
0.00331922
0.00289397
0.00254583
0.00225499
0.00139542
0.00368912
0.0639954
0.159997
0.285823
0.458163
0.680477
0.967457
1.30809
1.79299
2.69229
4.7436
11.529
30.6553
188.238
242.74
0.00522948
0.00417119
0.00362956
0.00318954
0.00282579
0.00251927
0.00150948
0.00367985
0.0635447
0.158917
0.284078
0.454772
0.674759
0.9591
1.29694
1.77828
2.67178
4.71567
11.4425
30.6876
183.258
251.166
0.00533942
0.00432476
0.0038096
0.0033884
0.00303756
0.00273911
0.00162931
0.00366691
0.0630128
0.157628
0.281972
0.450812
0.66823
0.949623
1.28436
1.76161
2.64835
4.68348
11.3405
30.7098
177.908
259.164
0.00567217
0.00466086
0.00413625
0.00370242
0.00333779
0.00302535
0.00183369
0.00364983
0.062397
0.156132
0.279521
0.446311
0.660931
0.939075
1.27039
1.74305
2.62198
4.64691
11.2225
30.7167
172.257
266.585
0.00575638
0.00479297
0.00430091
0.00389231
0.00354689
0.00324864
0.00211149
0.0036278
0.0616928
0.154432
0.27674
0.441298
0.652906
0.92751
1.25511
1.72265
2.5927
4.60582
11.0886
30.7022
166.372
273.275
0.00609214
0.00513323
0.00463383
0.00421463
0.00385735
0.00354706
0.00251576
0.00360002
0.0608925
0.152531
0.273646
0.435808
0.644204
0.914988
1.23859
1.70051
2.56051
4.56009
10.9388
30.6593
160.318
279.086
0.00615229
0.00524303
0.00477995
0.00439045
0.00405719
0.00376605
0.0029819
0.00356486
0.0599846
0.150428
0.270254
0.429878
0.634877
0.901575
1.22091
1.67671
2.52546
4.50957
10.7732
30.5799
154.155
283.887
0.00648678
0.00558299
0.00511433
0.00471583
0.00437213
0.00407032
0.00349404
0.00352066
0.0589514
0.148116
0.266576
0.423544
0.624981
0.887337
1.20216
1.65135
2.48762
4.45409
10.5922
30.4556
147.938
287.568
0.00651847
0.00566553
0.00523633
0.00487142
0.00455602
0.00427784
0.00389086
0.00346343
0.0577661
0.145585
0.262621
0.416844
0.614575
0.872347
1.18243
1.62456
2.4471
4.39349
10.396
30.2774
141.714
290.047
0.00683901
0.00599236
0.00555936
0.00518729
0.00486328
0.00457626
0.00426754
0.00339387
0.056389
0.142811
0.25839
0.409815
0.603716
0.856675
1.16181
1.59646
2.404
4.32762
10.1853
30.0365
135.526
291.267
0.00685359
0.00605582
0.00566216
0.00532452
0.00503035
0.00476903
0.00452328
0.00332065
0.0547617
0.139758
0.253876
0.402487
0.592466
0.840396
1.14038
1.56715
2.35846
4.25632
9.96067
29.724
129.406
291.198
0.00716009
0.00636931
0.00597336
0.00562996
0.00532839
0.00505927
0.0048183
0.00330355
0.0527994
0.136369
0.249057
0.394885
0.580883
0.823586
1.11825
1.53678
2.31067
4.17947
9.72292
29.332
123.383
289.829
0.00715672
0.00641258
0.00605542
0.00574684
0.00547621
0.00523435
0.0050192
0.00350724
0.0503803
0.132556
0.243892
0.387022
0.569025
0.806319
1.0955
1.50547
2.2608
4.097
9.47291
28.8536
117.477
287.165
0.00744655
0.00670957
0.00635104
0.00603767
0.00576055
0.00551172
0.00528817
0.00401424
0.0473354
0.128188
0.23831
0.378892
0.556941
0.788673
1.07221
1.47336
2.20906
4.00885
9.21157
28.2834
111.702
283.225
0.00743063
0.00673708
0.00641563
0.00613621
0.00588983
0.0056686
0.00546766
0.00462851
0.0434402
0.123078
0.232203
0.370465
0.544669
0.770722
1.04849
1.44056
2.15567
3.91506
8.93989
27.6179
106.069
278.035
0.00770414
0.00701768
0.00669548
0.00641194
0.00615967
0.00593195
0.00572359
0.00522916
0.0384366
0.116956
0.225402
0.361669
0.532229
0.752538
1.02441
1.40721
2.10087
3.81573
8.6589
26.8561
100.582
271.631
0.00767678
0.00703046
0.00674333
0.00649251
0.00627037
0.00607014
0.00588586
0.00561233
0.0321346
0.109451
0.217658
0.352381
0.51961
0.734187
1.00006
1.37343
2.04491
3.71104
8.36962
25.9995
95.242
264.056
0.00793327
0.00729366
0.00700607
0.00675152
0.00652387
0.00631745
0.00612705
0.00592057
0.0246902
0.100089
0.208611
0.342394
0.506751
0.715715
0.975524
1.33934
1.98807
3.60129
8.07302
25.0525
90.0456
255.361
0.00789955
0.00729642
0.00704129
0.0068175
0.00661859
0.00643873
0.00627239
0.00610819
0.0169742
0.0883478
0.197748
0.331393
0.493522
0.697139
0.950867
1.30506
1.93061
3.48689
7.77006
24.0222
84.9864
245.612
0.00814115
0.00754422
0.00728871
0.00706137
0.00685712
0.00667116
0.00649895
0.00633465
0.0107359
0.073891
0.184361
0.318906
0.479686
0.678421
0.926148
1.27071
1.87285
3.36839
7.46164
22.9183
80.0562
234.888
0.00810337
0.00753941
0.00731376
0.00711512
0.00693802
0.00677744
0.00662857
0.00648632
0.0073805
0.0570683
0.167547
0.304243
0.46486
0.659437
0.901389
1.23639
1.81509
3.24649
7.14865
21.753
75.2432
223.283
0.00833019
0.00777188
0.00754583
0.00734378
0.00716151
0.00699496
0.00684029
0.00669369
0.00650801
0.0395076
0.146342
0.28642
0.448455
0.639927
0.876548
1.20219
1.75766
3.12202
6.83203
20.5405
70.5354
210.913
0.00829265
0.0077638
0.00756481
0.00738908
0.00723197
0.00708919
0.00695654
0.00683002
0.00657918
0.0240626
0.12019
0.264098
0.429589
0.619437
0.851482
1.16813
1.70087
2.99601
6.5128
19.2959
65.9188
197.912
0.00850596
0.00798223
0.00778283
0.00760385
0.00744178
0.00729317
0.00715476
0.00702354
0.00683925
0.0136143
0.0899602
0.235642
0.406978
0.597242
0.825877
1.1342
1.64502
2.86963
6.19222
18.0355
61.3818
184.431
0.008471
0.00797346
0.0077984
0.00764337
0.00750441
0.00737782
0.00725998
0.00714748
0.007019
0.00863025
0.0591382
0.199579
0.378794
0.57224
0.799184
1.1002
1.59036
2.74418
5.87186
16.7754
56.9151
170.636
0.00867161
0.00817868
0.00800321
0.0078451
0.00770141
0.00756921
0.00744575
0.00732844
0.00720894
0.00710942
0.0334569
0.155888
0.34264
0.542804
0.770509
1.06579
1.53699
2.62101
5.55371
15.5316
52.5164
156.704
0.00864156
0.00817177
0.00801801
0.00788146
0.00775877
0.00764674
0.00754223
0.00744226
0.00734189
0.00695194
0.0173356
0.108105
0.295933
0.506588
0.738491
1.0303
1.48483
2.50142
5.2402
14.3189
48.1911
142.815
0.00883155
0.0083659
0.00821166
0.00807216
0.00794493
0.00782748
0.00771745
0.00761261
0.00750974
0.00720209
0.0101795
0.0643225
0.237458
0.460433
0.701108
0.992695
1.43351
2.38653
4.93413
13.1511
43.956
129.147
0.00880912