/*--------------------------------*- C++ -*----------------------------------*\
| =========                 |                                                 |
| \\      /  F ield         | OpenFOAM: The Open Source CFD Toolbox           |
|  \\    /   O peration     | Version:  v1912                                 |
|   \\  /    A nd           | Website:  www.openfoam.com                      |
|    \\/     M anipulation  |                                                 |
\*---------------------------------------------------------------------------*/
FoamFile
{
    version     2.0;
    format      ascii;
    class       volScalarField;
    location    "550";
    object      nut;
}
// * * * * * * * * * * * * * * * * * * * * * * * * * * * * * * * * * * * * * //

dimensions      [0 2 -1 0 0 0 0];


internalField   nonuniform List<scalar> 
12441
(
5.82186e-24
1.79046e-20
8.10465e-20
3.32531e-19
1.06827e-18
3.88825e-18
1.01056e-17
2.5005e-17
6.13858e-17
1.27536e-16
3.05681e-16
7.7195e-16
2.17662e-15
7.4071e-15
1.03657e-13
1.89368e-11
0.000193255
0.000924059
0.0029788
0.00260368
0.00364766
0.00775321
6.3418e-24
3.03333e-20
1.11726e-19
4.23925e-19
1.30203e-18
4.80711e-18
1.21982e-17
3.00095e-17
7.36107e-17
1.54457e-16
3.79826e-16
1.0299e-15
2.82194e-15
9.37928e-15
1.13062e-13
3.89716e-11
5.75731e-05
0.00111986
0.0034121
0.00283496
0.0040104
0.00781733
6.36456e-24
3.58935e-20
1.20771e-19
4.48105e-19
1.37766e-18
4.90648e-18
1.29285e-17
3.204e-17
8.05141e-17
1.71774e-16
4.17907e-16
1.11823e-15
2.77822e-15
7.6701e-15
5.35269e-14
6.56885e-12
1.10816e-05
0.000823086
0.00136318
0.00267522
0.00416372
0.0078909
6.31901e-24
3.76895e-20
1.18527e-19
4.29283e-19
1.32527e-18
4.71328e-18
1.25128e-17
3.13256e-17
7.84933e-17
1.73674e-16
4.23773e-16
1.15476e-15
2.6046e-15
8.47765e-15
3.85011e-14
1.54184e-12
1.62352e-06
0.000575152
0.00101785
0.00259986
0.00432653
0.0079647
6.28499e-24
4.38806e-20
1.29771e-19
4.58285e-19
1.4026e-18
4.77902e-18
1.30901e-17
3.2793e-17
8.42957e-17
1.87523e-16
4.54173e-16
1.28551e-15
3.01165e-15
4.0746e-14
2.47231e-13
2.29595e-12
1.39548e-07
0.00040721
0.00100083
0.00258798
0.00446676
0.00803394
6.2348e-24
4.12856e-20
1.20532e-19
4.2916e-19
1.34263e-18
4.62174e-18
1.27496e-17
3.23912e-17
8.28915e-17
1.92685e-16
4.76954e-16
1.44648e-15
4.52271e-15
1.32944e-12
1.18963e-11
5.09929e-11
4.58252e-07
0.000376555
0.00107063
0.00264476
0.00459248
0.00809948
6.19991e-24
5.02611e-20
1.37787e-19
4.75736e-19
1.46004e-18
4.79209e-18
1.35922e-17
3.44513e-17
9.06989e-17
2.11121e-16
5.20845e-16
2.00135e-15
2.49621e-14
4.14842e-11
6.57936e-10
9.3689e-09
1.8754e-05
0.000400345
0.00126084
0.00282655
0.00473592
0.00816218
6.15012e-24
4.34496e-20
1.23164e-19
4.40126e-19
1.40805e-18
4.72241e-18
1.35113e-17
3.48425e-17
9.13156e-17
2.23844e-16
5.72512e-16
5.43939e-15
6.08473e-13
2.25433e-09
8.41584e-08
4.98178e-06
0.000197159
0.000467352
0.00171214
0.00319452
0.00492211
0.00822577
6.11735e-24
5.57011e-20
1.46121e-19
4.99641e-19
1.554e-18
4.95823e-18
1.46106e-17
3.75678e-17
1.02069e-16
2.50939e-16
6.45342e-16
6.13871e-14
2.58403e-11
7.4321e-08
1.04581e-05
0.00015639
0.000826518
0.000848146
0.00264252
0.00381818
0.00518226
0.00829204
6.07048e-24
4.4347e-20
1.25427e-19
4.56597e-19
1.50742e-18
4.9532e-18
1.47463e-17
3.87224e-17
1.04873e-16
2.75114e-16
7.48615e-16
1.683e-12
1.08099e-09
4.44146e-06
0.000194876
0.000645602
0.0018258
0.00164604
0.00437139
0.00477411
0.00552888
0.00836448
6.04133e-24
6.02568e-20
1.53424e-19
5.25869e-19
1.67258e-18
5.20548e-18
1.60237e-17
4.20312e-17
1.19288e-16
3.17359e-16
8.92059e-16
5.23386e-11
5.49108e-08
8.30224e-05
0.000763904
0.00190065
0.00422613
0.00339274
0.00738987
0.00616545
0.00597509
0.00844366
5.9959e-24
4.46264e-20
1.27728e-19
4.76907e-19
1.63356e-18
5.28048e-18
1.64009e-17
4.40614e-17
1.25493e-16
3.64618e-16
1.15859e-15
1.45758e-09
3.24303e-06
0.000361702
0.00178568
0.00457151
0.00930553
0.00702504
0.0122108
0.00804225
0.00651063
0.00853143
5.97032e-24
6.4146e-20
1.6044e-19
5.53768e-19
1.81481e-18
5.54141e-18
1.79069e-17
4.82178e-17
1.46695e-16
4.4471e-16
1.6945e-15
3.52403e-08
7.32e-05
0.00119902
0.0047399
0.0107469
0.0192947
0.0138418
0.0190322
0.010392
0.00712754
0.00862633
5.92632e-24
4.43228e-20
1.29661e-19
4.99276e-19
1.78305e-18
5.69139e-18
1.85308e-17
5.13794e-17
1.59842e-16
5.59132e-16
3.60127e-15
7.97113e-07
0.000361401
0.00333147
0.0111852
0.0224425
0.0362248
0.0249635
0.0275457
0.0130947
0.00779516
0.00872852
5.90397e-24
6.75122e-20
1.66644e-19
5.82578e-19
1.97783e-18
5.93957e-18
2.02672e-17
5.67775e-17
1.96043e-16
7.78674e-16
1.65165e-14
1.5229e-05
0.00125222
0.00837938
0.0232685
0.0414124
0.0610446
0.0405579
0.0369278
0.015997
0.00849466
0.00883515
5.86026e-24
4.39565e-20
1.31989e-19
5.24767e-19
1.95764e-18
6.18497e-18
2.12003e-17
6.16736e-17
2.28154e-16
1.21622e-15
3.0215e-13
0.000140046
0.00334066
0.0181132
0.0426972
0.0682872
0.0928661
0.0592933
0.0461547
0.0189026
0.00919066
0.00894576
5.84121e-24
7.05369e-20
1.73494e-19
6.15078e-19
2.17043e-18
6.43895e-18
2.33086e-17
6.93721e-17
3.08213e-16
2.30483e-15
1.26019e-11
0.000555541
0.00810451
0.0341284
0.0696607
0.102234
0.128608
0.0785735
0.0543146
0.0216732
0.00986914
0.00905718
5.79722e-24
4.34999e-20
1.34485e-19
5.53098e-19
2.16049e-18
6.77098e-18
2.46162e-17
7.72232e-17
4.08441e-16
5.44536e-15
5.4797e-10
0.00151353
0.0170429
0.0572473
0.103513
0.140643
0.163482
0.0954614
0.0609327
0.0241857
0.0105035
0.00916919
5.7809e-24
7.32606e-20
1.80278e-19
6.49092e-19
2.38783e-18
7.01106e-18
2.71803e-17
8.90636e-17
6.61688e-16
1.69223e-14
4.40889e-08
0.00392647
0.031663
0.0866045
0.141596
0.179601
0.192324
0.107926
0.0659454
0.0264058
0.0110934
0.00927899
5.73634e-24
4.30512e-20
1.36863e-19
5.82367e-19
2.3867e-18
7.43753e-18
2.9005e-17
1.02308e-16
1.08036e-15
7.52678e-14
8.58069e-06
0.00880524
0.0524169
0.12078
0.180973
0.214527
0.211207
0.115487
0.0696468
0.0283016
0.0116252
0.00938714
5.72331e-24
7.57266e-20
1.86793e-19
6.83141e-19
2.62909e-18
7.67246e-18
3.23018e-17
1.22237e-16
2.19364e-15
7.80155e-13
0.000172013
0.0176133
0.0786119
0.157079
0.217477
0.241555
0.218758
0.119136
0.0724171
0.0299077
0.0121117
0.00949146
5.67792e-24
4.24324e-20
1.38565e-19
6.1089e-19
2.63494e-18
8.19264e-18
3.49371e-17
1.46452e-16
4.33989e-15
1.34052e-11
0.000707538
0.0313525
0.108642
0.193218
0.248103
0.258347
0.216403
0.120498
0.0746375
0.0312352
0.0125502
0.00959327
5.66758e-24
7.80201e-20
1.92462e-19
7.15447e-19
2.8897e-18
8.41773e-18
3.94305e-17
1.83569e-16
1.02751e-14
1.66094e-10
0.00198785
0.0501792
0.140488
0.226341
0.270126
0.264819
0.207549
0.121048
0.0765503
0.032344
0.0129648
0.00969106
5.62165e-24
4.19627e-20
1.39785e-19
6.37967e-19
2.90242e-18
9.03691e-18
4.34978e-17
2.31473e-16
2.24189e-14
1.55799e-09
0.00485296
0.0734665
0.172171
0.254682
0.283142
0.262717
0.196051
0.121616
0.0783154
0.0332634
0.0133625
0.00978684
5.61485e-24
8.02731e-20
1.97571e-19
7.45783e-19
3.17103e-18
9.26679e-18
5.02613e-17
3.06407e-16
5.64376e-14
1.37806e-08
0.0102499
0.0997432
0.202017
0.276635
0.287658
0.254981
0.184908
0.12247
0.0799854
0.0340691
0.0137758
0.00987966
5.56712e-24
4.17906e-20
1.40757e-19
6.63834e-19
3.19183e-18
9.99173e-18
5.7148e-17
4.08427e-16
1.30473e-13
3.19032e-07
0.0190472
0.12752
0.228751
0.292069
0.28585
0.244584
0.175695
0.123526
0.0815864
0.0348059
0.0142182
0.00997203
5.56283e-24
8.2482e-20
2.02091e-19
7.73987e-19
3.47273e-18
1.02317e-17
6.84565e-17
5.73322e-16
3.92521e-13
1.87862e-05
0.0314585
0.155208
0.251539
0.30119
0.279772
0.233905
0.168788
0.124612
0.0830983
0.0355566
0.014726
0.0100634
5.51396e-24
4.18583e-20
1.41216e-19
6.87489e-19
3.50132e-18
1.10681e-17
8.13227e-17
8.10327e-16
1.82982e-12
0.000216066
0.0472649
0.181706
0.269975
0.305255
0.271738
0.22433
0.163887
0.125567
0.0845076
0.0363638
0.0153117
0.0101564
5.51303e-24
8.46739e-20
2.05792e-19
7.99191e-19
3.7961e-18
1.13437e-17
1.02508e-16
1.20432e-15
1.28009e-11
0.000748506
0.0656674
0.206085
0.284061
0.305377
0.263154
0.216448
0.160484
0.126302
0.0857796
0.0372918
0.0160053
0.0102507
5.46191e-24
4.20334e-20
1.40961e-19
7.08381e-19
3.83339e-18
1.23038e-17
1.28819e-16
1.79561e-15
7.40871e-11
0.00158728
0.0859221
0.227836
0.294118
0.303007
0.255143
0.210279
0.158107
0.126776
0.0868946
0.0383529
0.0168067
0.0103488
5.46301e-24
8.68052e-20
2.08973e-19
8.21779e-19
4.14306e-18
1.26526e-17
1.7247e-16
2.80944e-15
3.56391e-10
0.00293869
0.10713
0.246588
0.300688
0.299078
0.248061
0.205603
0.1564
0.126996
0.0878195
0.0395703
0.0177294
0.01045
5.41082e-24
4.22456e-20
1.39895e-19
7.26575e-19
4.19062e-18
1.37406e-17
2.30117e-16
4.38929e-15
1.38682e-09
0.00505923
0.128646
0.26229
0.304414
0.294527
0.242149
0.202106
0.155128
0.126983
0.0885366
0.0409147
0.0187527
0.0105565
5.41503e-24
8.8917e-20
2.1141e-19
8.42363e-19
4.52252e-18
1.41928e-17
3.26387e-16
7.08326e-15
4.7465e-09
0.0083072
0.149777
0.274981
0.30595
0.289785
0.237267
0.199509
0.154148
0.126778
0.0890181
0.0423726
0.0198689
0.010667
5.35938e-24
4.22781e-20
1.37805e-19
7.42844e-19
4.58469e-18
1.54526e-17
4.58225e-16
1.12949e-14
1.44526e-08
0.0130634
0.170126
0.284926
0.305893
0.285286
0.233357
0.197573
0.15338
0.126416
0.0892509
0.0438916
0.0210376
0.0107831
5.36553e-24
8.84567e-20
2.10336e-19
8.57219e-19
4.93647e-18
1.60475e-17
6.7796e-16
1.85065e-14
4.28127e-08
0.0197372
0.189334
0.292406
0.304752
0.281116
0.230196
0.19613
0.152784
0.125941
0.0892132
0.045451
0.0222378
0.0109032
5.30583e-24
4.14854e-20
1.32572e-19
7.51588e-19
5.00986e-18
1.74615e-17
9.80411e-16
2.99165e-14
2.19958e-07
0.0288553
0.207354
0.297829
0.302934
0.277446
0.227698
0.19505
0.15235
0.125387
0.0888985
0.0470094
0.023422
0.0110282
5.31236e-24
8.52627e-20
2.03823e-19
8.62053e-19
5.38097e-18
1.81862e-17
1.47466e-15
5.74569e-14
1.18247e-05
0.0411005
0.224181
0.301556
0.300754
0.274227
0.225687
0.194257
0.152079
0.124797
0.0882941
0.0485738
0.0245709
0.0111563
5.24589e-24
4.16144e-20
1.27321e-19
7.57663e-19
5.48235e-18
1.98557e-17
2.14222e-15
4.65001e-13
0.0002586
0.0575088
0.240031
0.303998
0.298442
0.27154
0.224126
0.193697
0.151987
0.124205
0.087405
0.0501411
0.0256473
0.0112883
5.24932e-24
5.37897e-20
1.54721e-19
7.99474e-19
5.76872e-18
2.06385e-17
3.20143e-15
2.31285e-11
0.0023177
0.0793351
0.255049
0.305479
0.296162
0.269313
0.222899
0.193351
0.152096
0.123649
0.0862341
0.0517585
0.0266538
0.011422
5.17249e-24
4.328e-20
1.14469e-19
7.24238e-19
5.93997e-18
2.35429e-17
4.66229e-15
1.0329e-09
0.0103828
0.107426
0.269428
0.306343
0.294015
0.26763
0.222021
0.19321
0.152432
0.123162
0.0848071
0.0534513
0.027582
0.0115584
5.1659e-24
1.93951e-21
1.1209e-20
4.00642e-19
5.44892e-18
2.44369e-17
7.20682e-15
1.85103e-07
0.0301254
0.141812
0.283151
0.306835
0.292057
0.266435
0.221423
0.19329
0.153024
0.122776
0.0831528
0.0552591
0.0284695
0.0116955
5.07772e-24
1.71164e-20
4.47718e-20
4.17358e-19
5.46184e-18
3.62038e-17
1.80041e-14
5.7496e-05
0.0666007
0.181912
0.296154
0.307221
0.290291
0.265847
0.221171
0.193614
0.153898
0.122508
0.0813289
0.057125
0.0293302
0.0118345
5.03896e-24
6.72018e-22
8.4591e-23
2.35238e-19
5.06609e-18
8.28126e-17
3.70762e-13
0.00154644
0.123347
0.226641
0.308145
0.307681
0.288686
0.265816
0.221217
0.194227
0.155079
0.122371
0.0794002
0.0588745
0.0301642
0.011976
4.83816e-24
2.10321e-19
4.58125e-19
1.02949e-18
7.26021e-18
9.13504e-16
7.18225e-12
0.0104202
0.201903
0.275318
0.319306
0.308555
0.287204
0.266457
0.221629
0.195153
0.156566
0.122294
0.0774474
0.0600625
0.0306662
0.0121338
0.00987657
0.0338235
0.0407087
0.0151422
0.0107856
0.010316
0.0102528
0.0107143
0.0107533
0.0114453
0.0168308
0.0164043
0.0155138
0.0155324
0.0164321
0.0182467
0.0201245
0.0206635
0.018928
0.0151571
0.012841
0.012306
0.012202
0.012193
0.0123297
0.0126137
0.0130608
0.0136911
0.0143361
0.0150864
0.0160784
0.0164184
0.0164445
0.036186
0.161397
0.00986353
0.0344565
0.0396553
0.0147957
0.0107177
0.0102202
0.0103667
0.0108572
0.0108072
0.0114892
0.0164961
0.0159989
0.0151341
0.0151251
0.0160151
0.0178788
0.0200047
0.0208296
0.019165
0.0151476
0.012626
0.0120585
0.0119804
0.0119874
0.0121236
0.0123944
0.0128246
0.0134468
0.0141066
0.0148769
0.0158875
0.0162375
0.0162968
0.0355233
0.160977
0.00983842
0.0350625
0.037821
0.0142033
0.0107378
0.0101448
0.0106507
0.011163
0.0109613
0.0116108
0.0153063
0.0146406
0.0140109
0.0139247
0.0143635
0.0156478
0.0174875
0.0185026
0.0175106
0.0141435
0.0119294
0.0114729
0.0114882
0.0115519
0.0117018
0.0119554
0.0123561
0.0129597
0.0136437
0.0144515
0.0155004
0.0158742
0.0160004
0.0347309
0.160089
0.00979929
0.0356296
0.0354894
0.0136927
0.0109012
0.0101873
0.0110691
0.0115028
0.0111932
0.011826
0.0140272
0.0131492
0.0127233
0.0126863
0.0127616
0.0133158
0.0144883
0.0153495
0.0149674
0.0125565
0.010863
0.010575
0.0107258
0.0108861
0.0110736
0.0113155
0.0116796
0.0122511
0.012959
0.0138156
0.0149216
0.0153382
0.01554
0.033734
0.158722
0.00974597
0.0360159
0.0328199
0.0132322
0.0110821
0.0102563
0.0114779
0.0117581
0.0113928
0.0120167
0.0129538
0.0118942
0.0116652
0.0117882
0.0116512
0.0115574
0.0119612
0.0123957
0.0123022
0.0107423
0.00955436
0.0094147
0.00970683
0.00999651
0.0102545
0.010502
0.0108306
0.0113564
0.0120765
0.0129839
0.0141626
0.0146449
0.0149093
0.0324931
0.156881
0.00967615
0.0360962
0.0299363
0.0127245
0.0111776
0.0102616
0.0117573
0.0118555
0.0114656
0.0120551
0.0120574
0.0108914
0.0108398
0.0111264
0.0109129
0.0103729
0.0101251
0.0100535
0.00995038
0.00895886
0.00813763
0.00807251
0.00846859
0.00890073
0.00926455
0.00954603
0.00985042
0.0103207
0.0110323
0.0119806
0.0132415
0.0138138
0.0141114
0.0309985
0.154577
0.00959042
0.0357846
0.0269691
0.0121319
0.0111586
0.0101737
0.0118553
0.0117744
0.0113701
0.011876
0.0112273
0.0100243
0.0100903
0.0104534
0.0102504
0.00949707
0.00882463
0.00832724
0.00805467
0.00735127
0.00673548
0.006658
0.00708268
0.00763535
0.0081307
0.00848064
0.00878212
0.00919491
0.00987228
0.0108396
0.0121821
0.0128681
0.0131602
0.0292651
0.151829
0.00948687
0.0350132
0.0240529
0.0114809
0.0110513
0.0100105
0.0117801
0.0115349
0.0111131
0.011481
0.010387
0.00919829
0.0093008
0.00962364
0.00945487
0.00867352
0.00780968
0.00703971
0.00657138
0.0059692
0.0054437
0.00529458
0.00565883
0.00626767
0.0068924
0.00734123
0.00766763
0.00803051
0.00865007
0.00960416
0.0110152
0.0118333
0.0120797
0.0273273
0.148663
0.00936733
0.0337639
0.0213029
0.010829
0.0109039
0.00981164
0.0115738
0.0111778
0.0107284
0.0109143
0.00951992
0.00837688
0.00844713
0.00864006
0.00847895
0.00777031
0.00688969
0.00599977
0.00538802
0.00480711
0.00432399
0.00409406
0.0043314
0.00490251
0.00561104
0.00616948
0.00654737
0.00687634
0.0074222
0.00832617
0.00977788
0.0107375
0.0109043
0.0252327
0.145114
0.0092307
0.0320375
0.0188054
0.0102351
0.0107659
0.00962051
0.011292
0.0107528
0.0102626
0.0102382
0.00864537
0.00756229
0.00755941
0.00758391
0.00738209
0.00676737
0.00596935
0.00507855
0.00440446
0.00384243
0.0034069
0.00313186
0.00322559
0.00367149
0.00437646
0.00501931
0.00546232
0.00577642
0.00624374
0.00706318
0.00851424
0.00961076
0.00967666
0.0230363
0.141224
0.00908003
0.0298837
0.0166141
0.00974686
0.0106797
0.0094765
0.0109909
0.0103093
0.00976371
0.00951661
0.00779679
0.00677138
0.00667952
0.00654697
0.00626665
0.00571738
0.00503637
0.00422475
0.00356774
0.00305996
0.00269986
0.00243479
0.00241788
0.00269666
0.00329918
0.00396061
0.00445705
0.00477013
0.0051644
0.00587436
0.00727439
0.00848558
0.00844546
0.0207949
0.137048
0.00891508
0.0273675
0.0147596
0.00939847
0.0106805
0.0094125
0.0107227
0.00989319
0.00927739
0.00880717
0.00700791
0.00602338
0.00583995
0.005593
0.00522758
0.0047027
0.00413074
0.00344571
0.00286973
0.00245544
0.00219287
0.00198279
0.00191303
0.00204209
0.00247882
0.00307259
0.00358061
0.00389298
0.00422567
0.00481516
0.00611223
0.00739656
0.00726192
0.0185635
0.132647
0.00874002
0.0245973
0.0132548
0.00921228
0.0107988
0.00945556
0.0105326
0.00954436
0.00884376
0.00815797
0.00630762
0.00533669
0.0050608
0.00475283
0.00433085
0.00380762
0.00331912
0.00278026
0.00232467
0.0020242
0.00185933
0.00172244
0.00165304
0.00168837
0.00195953
0.00242024
0.00288016
0.00317554
0.00345881
0.00393145
0.00508108
0.00637983
0.00617546
0.0163942
0.128101
0.00855535
0.0216902
0.0121032
0.00920256
0.0110648
0.00962899
0.0104586
0.00929668
0.00849678
0.00760609
0.00571869
0.00472855
0.00435502
0.00403361
0.00360708
0.00309292
0.00266492
0.00226741
0.00194094
0.00174672
0.00165944
0.00158921
0.00155341
0.00155728
0.00171127
0.00202377
0.00238584
0.00263844
0.00288213
0.00325368
0.00422716
0.00547128
0.00522896
0.0143356
0.123503
0.00836592
0.0187906
0.0112981
0.0093797
0.0115104
0.00995679
0.0105335
0.00917715
0.00826329
0.00717829
0.00525733
0.00421531
0.00373531
0.00343076
0.00305788
0.00258344
0.00220471
0.00192282
0.00170357
0.00158679
0.0015495
0.001528
0.00153845
0.0015602
0.00166004
0.00185072
0.00209563
0.00228471
0.00249776
0.00279202
0.00358159
0.00470297
0.00445402
0.0124348
0.118966
0.00817267
0.0160362
0.0108247
0.00975512
0.0121731
0.0104707
0.0107883
0.00920898
0.00816452
0.00689237
0.00493406
0.00381169
0.00321603
0.00293805
0.00266488
0.0022666
0.00193514
0.00173037
0.00157692
0.00150224
0.00149192
0.00150237
0.00155782
0.00162664
0.00172807
0.0018397
0.00197625
0.00209666
0.00229105
0.00253508
0.00315371
0.00409801
0.00386711
0.010737
0.114632
0.00798033
0.0135635
0.0106671
0.0103497
0.0130983
0.0112157
0.0112585
0.00941641
0.00821864
0.00676066
0.00475647
0.00352977
0.00281161
0.002551
0.00239908
0.00210508
0.00182192
0.00165249
0.0015187
0.00145678
0.00146036
0.00149378
0.00158819
0.00171376
0.00185325
0.00192695
0.0019795
0.00204262
0.00223593
0.00245511
0.00292964
0.0036655
0.00346815
0.00928433
0.110669
0.00778933
0.0114884
0.0108266
0.0111968
0.0143442
0.0122563
0.0119901
0.0098313
0.0084453
0.00679421
0.00473164
0.00337901
0.00253367
0.00226673
0.00222826
0.00205081
0.00181571
0.00164458
0.00149223
0.00142613
0.00144048
0.00149602
0.0016252
0.00180475
0.00199608
0.00206055
0.0020586
0.00208811
0.00230328
0.00251724
0.00287838
0.00339864
0.00324267
0.00811281
0.107275
0.00760307
0.00988582
0.0113418
0.012343
0.0159853
0.0136791
0.013044
0.0104984
0.00887173
0.00700792
0.00487055
0.0033676
0.00238773
0.00208068
0.00212297
0.00205763
0.0018672
0.00166599
0.00147178
0.00139816
0.0014272
0.00150941
0.00167343
0.00189943
0.00213849
0.00220646
0.00217776
0.00220442
0.00246716
0.00268713
0.00296159
0.00327783
0.00316751
0.00724991
0.10467
0.00742066
0.00876962
0.0123033
0.0138498
0.0181118
0.0155921
0.0144967
0.0114776
0.00953432
0.00742378
0.00519096
0.00350508
0.00237445
0.00198624
0.00206085
0.00208768
0.0019342
0.0016858
0.00144374
0.00136967
0.00142115
0.00153674
0.00173907
0.00200407
0.00227679
0.00234824
0.00231577
0.00237227
0.00270707
0.00293475
0.00314188
0.0032771
0.00321765
0.00671384
0.103078
0.00724378
0.00810017
0.0138508
0.0157981
0.0208281
0.0181182
0.0164369
0.0128423
0.0104794
0.00807235
0.00572072
0.00380617
0.00249359
0.00197546
0.00202848
0.00211645
0.00198844
0.00168618
0.00140421
0.00134217
0.00142508
0.00158124
0.00182681
0.00212464
0.00241376
0.0024823
0.00246475
0.00258172
0.00300776
0.00323575
0.00338784
0.00337048
0.00337198
0.0065153
0.102691
0.00707145
0.0078109
0.0161672
0.0182959
0.0242547
0.0213899
0.0189606
0.0146732
0.0117608
0.00899426
0.00649597
0.00429327
0.00275116
0.00204415
0.00202122
0.00213265
0.00201534
0.00166166
0.00135609
0.00131887
0.00144211
0.0016457
0.00193895
0.00226399
0.0025534
0.00261238
0.00262622
0.00282978
0.00335792
0.00357171
0.00367637
0.00353641
0.00361696
0.00666197
0.103633
0.00690537
0.00783235
0.0194563
0.0214954
0.0285387
0.0255528
0.0221709
0.0170524
0.0134344
0.01023
0.00755492
0.00499596
0.00316304
0.00219576
0.00204165
0.00213744
0.0020142
0.00161674
0.00130547
0.001303
0.00147475
0.00173228
0.0020759
0.00242169
0.00269861
0.0027454
0.002807
0.00311738
0.00374889
0.00392987
0.00399308
0.00376003
0.00394821
0.007165
0.105937
0.00674534
0.00810831
0.0239159
0.0256193
0.0338714
0.0307768
0.0261823
0.0200589
0.0155522
0.011811
0.00892203
0.00594138
0.00375363
0.00244698
0.00209886
0.00213941
0.00199228
0.00156133
0.00125962
0.0012974
0.00152497
0.00184227
0.00223638
0.00259509
0.0028511
0.00288921
0.00301587
0.00344663
0.00417372
0.00430273
0.00433148
0.00403389
0.00437066
0.00804519
0.109543
0.00659312
0.00859376
0.0297056
0.0309806
0.0404982
0.037259
0.0311184
0.023761
0.0181509
0.0137478
0.0105919
0.0071382
0.00453959
0.00282421
0.00220787
0.00215148
0.00196199
0.00150721
0.00122529
0.00130441
0.00159397
0.00197605
0.0024179
0.0027805
0.00301217
0.00305169
0.00326156
0.00381903
0.00462688
0.0046874
0.00469166
0.00435766
0.00489793
0.00933675
0.114326
0.00644962
0.00925855
0.0369167
0.0379791
0.0486991
0.0451909
0.0370845
0.0281944
0.0212347
0.0160139
0.0125132
0.0085523
0.00550459
0.00334791
0.00238792
0.00218595
0.00193459
0.00146462
0.00120851
0.00132632
0.00168254
0.00213287
0.00261694
0.00297452
0.00318373
0.00324045
0.00355143
0.00423441
0.00510426
0.00508506
0.00507903
0.00473739
0.00555137
0.0110883
0.120118
0.00631698
0.0100818
0.0455528
0.0470596
0.0587296
0.0546774
0.0441065
0.0333212
0.0247466
0.0185295
0.0145771
0.0100926
0.00657618
0.00399751
0.00265211
0.00225275
0.00191965
0.00144136
0.00121428
0.0013657
0.00179069
0.00231088
0.00282965
0.00317476
0.00336878
0.00346286
0.0038909
0.00469083
0.00560354
0.00550026
0.00550302
0.00518463
0.00635929
0.0133611
0.126735
0.00619775
0.0110603
0.0555731
0.0586429
0.0707319
0.0656267
0.0520488
0.0389796
0.0285401
0.0211487
0.0166208
0.0116147
0.00762804
0.00468879
0.00298567
0.00235328
0.00192185
0.00144239
0.00124729
0.00142599
0.00191822
0.00250733
0.00305218
0.00338057
0.00357175
0.0037258
0.00428304
0.00518482
0.00612439
0.00594036
0.00597643
0.00571574
0.00735651
0.0162261
0.133996
0.00609509
0.0122069
0.0669763
0.0730541
0.0846397
0.0776571
0.0605474
0.0448493
0.0323627
0.0236612
0.0184442
0.0129416
0.00850439
0.00528754
0.00332778
0.00247525
0.00194265
0.00147092
0.00131184
0.00151193
0.0020648
0.00271911
0.00328169
0.00359307
0.0037982
0.00403549
0.00472852
0.00571214
0.00666871
0.00641499
0.00651471
0.00635135
0.00858412
0.0197596
0.141731
0.00601408
0.0135645
0.0798864
0.0904367
0.10009
0.0900573
0.0689935
0.050455
0.0358681
0.0258092
0.0198352
0.0138951
0.00906025
0.00566127
0.00358702
0.0025888
0.00197813
0.00152849
0.00141229
0.00162995
0.00223116
0.00294354
0.00351662
0.00381529
0.00405459
0.004397
0.0052257
0.0062685
0.00724054
0.00693577
0.00713586
0.00711609
0.0100895
0.0240373
0.149788
0.00596079
0.0152035
0.0945281
0.110586
0.116322
0.101804
0.0765767
0.0552109
0.0386545
0.0273223
0.0206032
0.0143303
0.00919833
0.00573132
0.00369107
0.00266071
0.00202316
0.00161562
0.00155213
0.00178803
0.00241966
0.0031793
0.00375737
0.0040517
0.00434761
0.00481389
0.00577106
0.00685035
0.00784602
0.00751591
0.0078602
0.00803857
0.0119265
0.0291292
0.158038
0.00594609
0.0172332
0.111103
0.132677
0.132105
0.111651
0.0823904
0.058506
0.0403294
0.0279619
0.0206118
0.0141652
0.00889517
0.00550301
0.00362907
0.00267518
0.00207347
0.00173125
0.00173326
0.00199501
0.00263561
0.0034271
0.00400612
0.00430792
0.00468372
0.00528779
0.00635965
0.00745535
0.00849306
0.00817024
0.00871059
0.00915159
0.0141554
0.0350943
0.166373
0.00598322
0.0197853
0.129517
0.155024
0.145761
0.118299
0.0855873
0.059814
0.0405827
0.02757
0.0198089
0.0133982
0.0082036
0.00505701
0.00345408
0.00264846
0.00213219
0.00187341
0.00195389
0.00225837
0.00288705
0.00369017
0.00426693
0.00459004
0.00506842
0.00581821
0.00698578
0.0080827
0.00919121
0.00891503
0.00971256
0.0104926
0.0168434
0.0419757
0.17471
0.00609167
0.0230185
0.149114
0.175126
0.15543
0.120679
0.0855685
0.0588143
0.0392604
0.0261081
0.0182417
0.0121087
0.00723597
0.00451049
0.00324582
0.00261601
0.00220645
0.00203826
0.00220791
0.00258122
0.00318435
0.00397398
0.00454507
0.00490416
0.00550588
0.00640243
0.0076436
0.00873307
0.00995132
0.00976821
0.0108948
0.0121043
0.0200639
0.0497983
0.182986
0.00628805
0.0270827
0.168526
0.190194
0.159519
0.118233
0.0821442
0.0554808
0.0364101
0.023676
0.0160556
0.0104424
0.00613347
0.00397033
0.00306839
0.0026113
0.00230375
0.00222008
0.00248431
0.00295904
0.00353737
0.00428568
0.00484664
0.00525565
0.00599828
0.00703564
0.00832763
0.00940853
0.0107856
0.0107494
0.0122895
0.0140354
0.0238973
0.0585686
0.191162
0.00658505
0.0321215
0.185931
0.198003
0.157194
0.111103
0.0756072
0.0501099
0.0322853
0.020498
0.0134677
0.00858332
0.00503762
0.00350469
0.00294892
0.0026467
0.00242225
0.00240953
0.00276934
0.00337828
0.00395225
0.00463251
0.00517766
0.00564872
0.00654569
0.00771126
0.00903298
0.0101122
0.0117073
0.0118804
0.013933
0.0163419
0.0284304
0.0682764
0.19922
0.00697682
0.0381872
0.199494
0.197554
0.148621
0.100103
0.0666666
0.043257
0.0272934
0.0168814
0.01073
0.00672591
0.0040662
0.0031398
0.00288369
0.00271372
0.00255155
0.0025955
0.00304904
0.0038185
0.00442661
0.00501997
0.00554343
0.0060858
0.0071458
0.00842142
0.00975561
0.0108482
0.0127311
0.0131853
0.0158669
0.0190881
0.0337565
0.0789001
0.207161
0.00744499
0.0451758
0.207798
0.18921
0.134867
0.08649
0.0562726
0.0356115
0.0219132
0.0131604
0.00809059
0.00505096
0.00329513
0.00287444
0.00285401
0.00279029
0.002674
0.00276682
0.00331269
0.00425647
0.00494713
0.00544917
0.00594742
0.00656746
0.00779435
0.00915756
0.0104922
0.011621
0.0138729
0.0146913
0.0181383
0.0223478
0.0399761
0.0904135
0.215005
0.00795396
0.0525687
0.209872
0.174277
0.117505
0.0716356
0.0453975
0.0278529
0.016607
0.00964957
0.00577017
0.00370378
0.00274608
0.00269515
0.00284099
0.0028555
0.0027755
0.00291715
0.00355496
0.00467208
0.00548931
0.00591489
0.00639083
0.00709235
0.00848562
0.00991128
0.0112404
0.0124356
0.0151501
0.0164295
0.0208015
0.0262065
0.0471971
0.102794
0.222792
0.00846726
0.0593388
0.205111
0.154456
0.0981931
0.0567559
0.0348665
0.0205508
0.011768
0.0066185
0.00394248
0.00275882
0.00239505
0.00258425
0.00283001
0.00289469
0.00284757
0.00304579
0.00377672
0.0050508
0.00602179
0.00640419
0.00687183
0.00765796
0.00921368
0.0106753
0.0119984
0.0132968
0.0165818
0.0184351
0.0239188
0.0307621
0.0555362
0.116031
0.230577
0.00894498
0.0638739
0.193152
0.131433
0.0783717
0.0427591
0.0252755
0.0141246
0.00770192
0.00427422
0.00269612
0.00218864
0.00219528
0.00252011
0.00281001
0.0029027
0.0028918
0.00315935
0.00398461
0.00538638
0.00651236
0.00689776
0.00738582
0.00826128
0.0099737
0.0114444
0.0127657
0.0142097
0.0181886
0.020749
0.0275615
0.0361272
0.0651198
0.130135
0.238431
0.0093615
0.064496
0.173988
0.106771
0.059184
0.0302479
0.0170087
0.0088646
0.00462969
0.00271422
0.00197914
0.00189193
0.00209571
0.00247732
0.00276989
0.00287735
0.00291382
0.00326899
0.00418936
0.00567871
0.00693447
0.00737252
0.00792558
0.00889999
0.0107637
0.0122172
0.0135431
0.0151787
0.0199921
0.0234179
0.0318111
0.0424296
0.0760854
0.145144
0.246437
0.0096768
0.0597488
0.148016
0.0819453
0.0415733
0.0196309
0.0103217
0.00497135
0.00264795
0.00184857
0.00162602
0.00175727
0.00204612
0.00242961
0.00269931
0.00281767
0.00292282
0.00339072
0.00440521
0.00593459
0.00727193
0.0078066
0.00848211
0.00957261
0.0115857
0.0129967
0.0143335
0.0162081
0.0220147
0.0264948
0.03676
0.0498133
0.0885823
0.16113
0.254691
0.00988074
0.049455
0.116485
0.0583159
0.0263378
0.0111834
0.00538557
0.0025173
0.0016042
0.00142552
0.00145843
0.00168584
0.0019952
0.00235095
0.00258772
0.00271733
0.0029209
0.0035378
0.00464653
0.00616513
0.0075216
0.0081824
0.00904472
0.010278
0.0124465
0.0137923
0.0151424
0.0173011
0.0242777
0.0300379
0.042511
0.0584381
0.102773
0.178203
0.263292
4.88219e-24
3.15058e-19
1.1397e-18
4.30022e-18
2.49178e-17
3.14317e-14
9.01135e-11
0.0393594
0.276456
0.313296
0.326802
0.309572
0.286187
0.267472
0.222246
0.196195
0.158017
0.12213
0.0760073
0.0602888
0.030295
0.0121381
4.99583e-24
7.39252e-20
8.34495e-20
6.23256e-18
6.22269e-17
2.44779e-13
9.20129e-10
0.0749589
0.32742
0.336332
0.330318
0.310023
0.285549
0.268402
0.222965
0.197136
0.159311
0.122072
0.0753254
0.0600777
0.029872
0.0121854
5.10201e-24
2.76603e-19
8.77653e-19
8.8932e-18
1.22022e-16
9.25366e-13
9.29206e-09
0.117557
0.372997
0.355239
0.332629
0.310288
0.285047
0.269459
0.223916
0.198253
0.160836
0.122112
0.0750392
0.0594851
0.0293478
0.0123427
5.06174e-24
5.7256e-20
2.14766e-20
6.84896e-18
1.92162e-16
2.27526e-12
1.69509e-07
0.162519
0.412218
0.370475
0.334405
0.31054
0.284791
0.270716
0.225156
0.199518
0.162544
0.122257
0.0751378
0.0585437
0.0287567
0.0125987
5.16567e-24
2.21304e-19
6.32264e-19
7.23138e-18
2.882e-16
3.60907e-12
6.56234e-06
0.202822
0.444879
0.382538
0.336121
0.310913
0.28488
0.272145
0.226649
0.200914
0.164379
0.122512
0.0755873
0.0573263
0.0281443
0.012945
5.11382e-24
4.59218e-20
1.20677e-20
4.61581e-18
4.09787e-16
4.87164e-12
1.86844e-05
0.230844
0.471113
0.392002
0.338173
0.311554
0.2854
0.273829
0.228454
0.20242
0.166283
0.12287
0.0763507
0.0558923
0.0275208
0.0133988
5.22921e-24
1.78688e-19
4.73407e-19
4.6376e-18
5.80482e-16
5.06249e-12
3.4563e-05
0.242914
0.491298
0.399344
0.340781
0.31256
0.286419
0.275744
0.230534
0.204039
0.168201
0.123327
0.0773706
0.054326
0.026912
0.0139737
5.17003e-24
3.80392e-20
7.88084e-21
2.7802e-18
7.72277e-16
4.37672e-12
2.58535e-05
0.240099
0.505756
0.405017
0.344117
0.314043
0.287986
0.27798
0.232957
0.205772
0.170088
0.12387
0.0785958
0.052685
0.0263156
0.0146876
5.29793e-24
1.46658e-19
3.69583e-19
2.86181e-18
9.86076e-16
2.88101e-12
2.74716e-05
0.226267
0.514777
0.409317
0.348214
0.316057
0.290135
0.280508
0.235686
0.207646
0.171915
0.124488
0.079962
0.0510447
0.0257509
0.0155444
5.22338e-24
3.24404e-20
5.88767e-21
1.68695e-18
1.14792e-15
1.68907e-12
3.53528e-05
0.205087
0.518396
0.412464
0.353095
0.318675
0.292879
0.283412
0.238793
0.209686
0.17367
0.125164
0.0814216
0.0494474
0.025209
0.0165475
5.35773e-24
1.21931e-19
2.9741e-19
1.84243e-18
1.25239e-15
8.5259e-13
4.01935e-05
0.178978
0.516501
0.414494
0.358663
0.321915
0.296227
0.286649
0.242237
0.211938
0.17537
0.125888
0.0829185
0.0479523
0.0247054
0.0176829
5.27103e-24
2.84267e-20
4.69193e-21
1.08058e-18
1.23881e-15
4.16486e-13
4.1142e-05
0.150172
0.508689
0.415355
0.36483
0.325817
0.30017
0.290288
0.246088
0.214437
0.177047
0.126647