/*--------------------------------*- C++ -*----------------------------------*\
| =========                 |                                                 |
| \\      /  F ield         | OpenFOAM: The Open Source CFD Toolbox           |
|  \\    /   O peration     | Version:  v1912                                 |
|   \\  /    A nd           | Website:  www.openfoam.com                      |
|    \\/     M anipulation  |                                                 |
\*---------------------------------------------------------------------------*/
FoamFile
{
    version     2.0;
    format      ascii;
    class       volScalarField;
    location    "550";
    object      p;
}
// * * * * * * * * * * * * * * * * * * * * * * * * * * * * * * * * * * * * * //

dimensions      [0 2 -2 0 0 0 0];


internalField   nonuniform List<scalar> 
12441
(
9.10285
9.40841
10.2799
11.6303
13.378
15.5691
18.3006
21.6548
25.8376
30.9948
37.3607
45.1204
54.76
67.0114
82.1054
101.351
129.671
165.392
223.309
286.208
376.952
438.648
9.10284
9.4084
10.2799
11.6303
13.3779
15.569
18.3006
21.6547
25.8374
30.9946
37.3603
45.1198
54.7591
67.0096
82.1025
101.344
129.655
165.367
223.229
286.133
376.906
438.457
9.10283
9.40838
10.2798
11.6303
13.3779
15.5689
18.3005
21.6545
25.8371
30.9941
37.3595
45.1187
54.7572
67.006
82.0965
101.33
129.629
165.31
223.062
285.953
376.778
438.111
9.10281
9.40835
10.2798
11.6302
13.3778
15.5688
18.3003
21.6542
25.8367
30.9934
37.3584
45.117
54.7543
67.0006
82.0877
101.309
129.595
165.222
222.885
285.678
376.544
437.573
9.10277
9.40831
10.2798
11.6301
13.3777
15.5687
18.3
21.6538
25.8361
30.9924
37.3569
45.1147
54.7505
66.9934
82.076
101.281
129.55
165.113
222.72
285.333
376.216
436.838
9.10273
9.40827
10.2797
11.63
13.3776
15.5685
18.2997
21.6533
25.8353
30.9913
37.3551
45.1119
54.7458
66.9844
82.0613
101.247
129.495
164.984
222.534
284.915
375.796
435.909
9.10269
9.40821
10.2796
11.6299
13.3774
15.5682
18.2994
21.6527
25.8344
30.9898
37.3528
45.1085
54.7401
66.9736
82.0438
101.206
129.43
164.833
222.317
284.428
375.29
434.783
9.10263
9.40815
10.2795
11.6298
13.3772
15.5679
18.299
21.652
25.8334
30.9882
37.3502
45.1046
54.7335
66.961
82.0235
101.159
129.359
164.661
222.081
283.883
374.702
433.459
9.10257
9.40808
10.2794
11.6297
13.377
15.5676
18.2985
21.6512
25.8322
30.9863
37.3472
45.1001
54.7259
66.9467
82.0007
101.108
129.286
164.477
221.844
283.292
374.036
431.931
9.1025
9.408
10.2793
11.6295
13.3768
15.5673
18.298
21.6503
25.8308
30.9842
37.3439
45.095
54.7174
66.9307
81.9768
101.056
129.218
164.292
221.634
282.666
373.293
430.196
9.10242
9.40791
10.2792
11.6293
13.3765
15.5669
18.2974
21.6493
25.8293
30.9818
37.3401
45.0894
54.708
66.9134
81.9533
101.012
129.177
164.129
221.484
282.014
372.468
428.245
9.10233
9.40781
10.2791
11.6291
13.3762
15.5664
18.2967
21.6482
25.8277
30.9792
37.336
45.0832
54.6977
66.8958
81.9346
100.988
129.199
164.028
221.427
281.34
371.557
426.068
9.10223
9.4077
10.2789
11.6289
13.3759
15.566
18.296
21.647
25.8259
30.9763
37.3316
45.0765
54.6867
66.8805
81.9325
101.014
129.339
164.042
221.471
280.636
370.549
423.654
9.10213
9.40758
10.2788
11.6287
13.3755
15.5654
18.2952
21.6457
25.8239
30.9733
37.3267
45.0692
54.676
66.8735
81.9674
101.127
129.655
164.218
221.588
279.885
369.437
420.991
9.10202
9.40745
10.2786
11.6285
13.3752
15.5649
18.2944
21.6443
25.8218
30.97
37.3215
45.0613
54.6672
66.8859
82.0631
101.356
130.172
164.558
221.711
279.062
368.21
418.064
9.1019
9.40732
10.2784
11.6282
13.3748
15.5643
18.2935
21.6428
25.8195
30.9664
37.3159
45.0531
54.6642
66.932
82.2386
101.713
130.864
165.003
221.763
278.139
366.86
414.86
9.10177
9.40717
10.2782
11.6279
13.3744
15.5636
18.2925
21.6412
25.8171
30.9626
37.3098
45.0453
54.6741
67.0244
82.4994
102.184
131.65
165.442
221.681
277.098
365.378
411.363
9.10164
9.40702
10.278
11.6276
13.3739
15.563
18.2915
21.6395
25.8146
30.9586
37.3034
45.0391
54.706
67.1676
82.8338
102.724
132.401
165.753
221.435
275.928
363.76
407.559
9.1015
9.40685
10.2778
11.6273
13.3734
15.5623
18.2904
21.6377
25.8119
30.9543
37.2965
45.0374
54.7673
67.3581
83.2162
103.27
132.98
165.852
221.027
274.625
362.001
403.432
9.10135
9.40668
10.2776
11.6269
13.3729
15.5615
18.2893
21.6358
25.809
30.9497
37.2893
45.0447
54.861
67.5813
83.6074
103.745
133.284
165.724
220.483
273.194
360.099
398.966
9.10119
9.4065
10.2774
11.6266
13.3724
15.5607
18.2881
21.6339
25.806
30.945
37.2821
45.0665
54.9828
67.8212
83.9663
104.085
133.276
165.412
219.833
271.641
358.054
394.146
9.10102
9.40631
10.2771
11.6262
13.3718
15.5599
18.2869
21.6318
25.8029
30.9399
37.2754
45.1067
55.1249
68.0548
84.2524
104.251
132.994
164.986
219.107
269.974
355.864
388.954
9.10085
9.40611
10.2768
11.6258
13.3713
15.559
18.2856
21.6296
25.7996
30.9345
37.2704
45.1662
55.275
68.2665
84.4413
104.241
132.53
164.507
218.324
268.201
353.532
383.372
9.10066
9.4059
10.2766
11.6254
13.3706
15.5581
18.2842
21.6273
25.7961
30.9289
37.2692
45.2419
55.4243
68.4366
84.5222
104.081
131.984
164.013
217.494
266.332
351.059
377.382
9.10047
9.40568
10.2763
11.625
13.37
15.5571
18.2828
21.6249
25.7925
30.923
37.2746
45.3286
55.5614
68.5596
84.5062
103.822
131.435
163.516
216.622
264.377
348.448
370.964
9.10028
9.40546
10.276
11.6246
13.3693
15.5561
18.2813
21.6224
25.7887
30.9168
37.2888
45.4201
55.682
68.6279
84.4124
103.511
130.926
163.013
215.709
262.344
345.702
364.096
9.10007
9.40522
10.2757
11.6241
13.3687
15.5551
18.2797
21.6198
25.7847
30.9104
37.3129
45.5108
55.7789
68.6496
84.2689
103.188
130.47
162.497
214.756
260.244
342.822
356.756
9.09985
9.40498
10.2754
11.6236
13.3679
15.554
18.2781
21.6171
25.7806
30.9041
37.3464
45.5962
55.8528
68.6278
84.0974
102.877
130.058
161.962
213.761
258.085
339.811
348.919
9.09963
9.40472
10.275
11.6231
13.3672
15.5529
18.2765
21.6143
25.7763
30.8981
37.3872
45.6729
55.9008
68.5774
83.9181
102.59
129.677
161.406
212.723
255.874
336.668
340.559
9.0994
9.40446
10.2747
11.6226
13.3664
15.5518
18.2747
21.6114
25.7718
30.8926
37.4325
45.739
55.9276
68.5032
83.7403
102.325
129.314
160.825
211.642
253.615
333.391
331.647
9.09916
9.40419
10.2743
11.6221
13.3656
15.5506
18.2729
21.6084
25.7672
30.8879
37.48
45.7932
55.9329
68.4184
83.5717
102.08
128.959
160.221
210.519
251.31
329.976
322.153
9.09892
9.40391
10.2739
11.6215
13.3648
15.5493
18.2711
21.6053
25.7623
30.8845
37.5278
45.8351
55.9236
68.3244
83.4118
101.849
128.605
159.595
209.353
248.96
326.416
312.043
9.09867
9.40362
10.2736
11.621
13.364
15.5481
18.2692
21.6021
25.7573
30.8831
37.5743
45.865
55.8998
68.2303
83.2621
101.628
128.25
158.949
208.144
246.564
322.702
301.282
9.0984
9.40332
10.2732
11.6204
13.3631
15.5467
18.2672
21.5987
25.7521
30.8845
37.6181
45.8838
55.8681
68.1337
83.1191
101.413
127.89
158.283
206.893
244.122
318.823
289.833
9.09813
9.40301
10.2728
11.6198
13.3622
15.5454
18.2652
21.5953
25.7467
30.8895
37.6586
45.8927
55.8279
68.041
82.9831
101.201
127.525
157.601
205.6
241.633
314.766
277.656
9.09786
9.4027
10.2723
11.6192
13.3613
15.544
18.2631
21.5918
25.7412
30.8989
37.6954
45.8932
55.7847
67.9478
82.8504
100.99
127.154
156.902
204.266
239.099
310.521
264.709
9.09757
9.40237
10.2719
11.6185
13.3603
15.5426
18.261
21.5881
25.7356
30.9144
37.7287
45.8866
55.7371
67.8593
82.7217
100.779
126.778
156.189
202.892
236.522
306.076
250.948
9.09728
9.40204
10.2715
11.6179
13.3593
15.5411
18.2588
21.5844
25.7303
30.9385
37.7588
45.8745
55.6893
67.7706
82.594
100.566
126.396
155.462
201.478
233.907
301.42
236.326
9.09698
9.40169
10.271
11.6172
13.3583
15.5396
18.2565
21.5805
25.7272
30.9728
37.7862
45.8581
55.6393
67.6868
82.4685
100.352
126.01
154.723
200.028
231.26
296.545
220.794
9.09667
9.40134
10.2705
11.6165
13.3573
15.538
18.2542
21.5765
25.7315
31.0186
37.8114
45.8388
55.5905
67.6028
82.3429
100.137
125.62
153.972
198.544
228.585
291.447
204.3
9.09635
9.40098
10.2701
11.6158
13.3562
15.5365
18.2518
21.5724
25.7515
31.0761
37.8343
45.8173
55.5402
67.524
82.2192
99.9202
125.227
153.21
197.029
225.887
286.123
186.788
9.09603
9.40061
10.2696
11.6151
13.3552
15.5348
18.2494
21.5684
25.7947
31.1445
37.8548
45.7949
55.4919
67.4452
82.0949
99.7029
124.831
152.437
195.489
223.169
280.571
168.212
9.09569
9.40023
10.2691
11.6144
13.3541
15.5332
18.2468
21.5658
25.8663
31.2219
37.8724
45.7723
55.4418
67.3723
81.9726
99.4856
124.433
151.651
193.928
220.427
274.767
148.484
9.09535
9.39984
10.2685
11.6136
13.3529
15.5315
18.2442
21.5699
25.9653
31.3052
37.8866
45.7505
55.3932
67.2993
81.8501
99.2689
124.033
150.85
192.354
217.65
268.629
126.857
-19.4582
-20.8916
-18.7557
-20.4526
-17.5035
-17.3515
-15.0271
-14.4974
-12.5573
-11.7659
-10.8341
-11.3311
-9.49177
-4.25628
2.06926
3.09177
-0.331876
-1.75566
3.40374
9.97555
13.5165
12.4168
11.2677
9.79996
8.33216
7.08043
5.63321
4.01613
2.49007
2.01523
1.30088
0.00414311
-1.54953
-4.86611
-2.88484
-19.4564
-20.8741
-18.7789
-20.4559
-17.5049
-17.3502
-15.0277
-14.4972
-12.5575
-11.7654
-10.8347
-11.3287
-9.48953
-4.25504
2.07075
3.09656
-0.323446
-1.74729
3.40847
9.97823
13.5195
12.4199
11.2703
9.80207
8.33393
7.08204
5.63477
4.01761
2.49139
2.0164
1.30142
0.00504309
-1.54755
-4.8601
-2.90996
-19.453
-20.8579
-18.8117
-20.4623
-17.5064
-17.3494
-15.0282
-14.4972
-12.5574
-11.7644
-10.835
-11.3275
-9.48731
-4.25233
2.07603
3.10736
-0.305953
-1.72563
3.42603
9.98868
13.5264
12.4256
11.2748
9.80578
8.33715
7.08504
5.63763
4.02024
2.49369
2.01842
1.30256
0.00652037
-1.54435
-4.85141
-2.93426
-19.4483
-20.8495
-18.8535
-20.4702
-17.5088
-17.3492
-15.0286
-14.4973
-12.5572
-11.7631
-10.8357
-11.327
-9.48491
-4.24909
2.08226
3.11984
-0.284164
-1.69407
3.45616
10.0075
13.538
12.4345
11.2817
9.81132
8.3419
7.08945
5.64183
4.02415
2.49712
2.02147
1.30452
0.00827091
-1.53897
-4.83856
-2.95255
-19.4424
-20.8526
-18.9016
-20.4788
-17.5118
-17.349
-15.0287
-14.4972
-12.5568
-11.7617
-10.8366
-11.3272
-9.48336
-4.24672
2.0873
3.12987
-0.26597
-1.6643
3.48893
10.0304
13.553
12.4463
11.2909
9.81856
8.348
7.09501
5.64714
4.02916
2.50159
2.02548
1.30725
0.0103544
-1.53137
-4.8218
-2.96428
-19.4354
-20.8716
-18.9536
-20.488
-17.5146
-17.3483
-15.0282
-14.4971
-12.5564
-11.7604
-10.8378
-11.3281
-9.48287
-4.24512
2.09118
3.13695
-0.253586
-1.64174
3.51773
10.0534
13.5698
12.4601
11.3019
9.8273
8.35521
7.10144
5.65323
4.03499
2.50692
2.0303
1.31067
0.0127666
-1.52173
-4.80125
-2.96984
-19.4273
-20.91
-19.0069
-20.4972
-17.5171
-17.3468
-15.027
-14.4969
-12.556
-11.7594
-10.8394
-11.3296
-9.48312
-4.24324
2.09528
3.14249
-0.245721
-1.62651
3.54036
10.0744
13.587
12.4749
11.3141
9.83721
8.36328
7.10844
5.65977
4.04132
2.51286
2.03579
1.31467
0.0154552
-1.51027
-4.77705
-2.96949
-19.4184
-20.9705
-19.0591
-20.5063
-17.519
-17.3449
-15.0251
-14.4967
-12.5556
-11.7587
-10.8415
-11.3316
-9.48366
-4.24013
2.10073
3.14776
-0.240491
-1.61666
3.55728
10.0923
13.6031
12.4895
11.3268
9.84781
8.37191
7.11575
5.66646
4.04783
2.51915
2.04173
1.31913
0.0183577
-1.49728
-4.74967
-2.96333
-19.4088
-21.0543
-19.1084
-20.5149
-17.5206
-17.3426
-15.0229
-14.4966
-12.5553
-11.7585
-10.8442
-11.3341
-9.48437
-4.23557
2.10807
3.15354
-0.236583
-1.61018
3.56976
10.1068
13.6166
12.5022
11.3385
9.85833
8.38069
7.12308
5.67301
4.05419
2.52546
2.04789
1.32391
0.0214164
-1.48308
-4.71987
-2.95139
-19.3987
-21.1614
-19.1531
-20.5229
-17.522
-17.3405
-15.0207
-14.4966
-12.5551
-11.7586
-10.8473
-11.3371
-9.48525
-4.22995
2.11702
3.15986
-0.23338
-1.60564
3.57908
10.1178
13.6266
12.5117
11.3482
9.86782
8.38907
7.13011
5.67916
4.06011
2.53147
2.05396
1.32882
0.0245704
-1.46805
-4.68851
-2.93368
-19.3884
-21.2902
-19.1924
-20.5303
-17.5232
-17.3388
-15.0186
-14.4968
-12.5551
-11.7592
-10.8508
-11.3405
-9.48648
-4.22399
2.12694
3.16654
-0.230693
-1.60225
3.58599
10.1252
13.6326
12.5173
11.3547
9.87531
8.3964
7.13647
5.68465
4.06532
2.53687
2.05965
1.33365
0.0277576
-1.45259
-4.65647
-2.91019
-19.3781
-21.4378
-19.2257
-20.5371
-17.5246
-17.3377
-15.017
-14.4975
-12.5553
-11.7602
-10.8545
-11.3442
-9.48812
-4.21837
2.13683
3.17307
-0.228498
-1.59963
3.59088
10.1292
13.6344
12.5187
11.3576
9.8801
8.40204
7.14175
5.68924
4.06961
2.54139
2.06466
1.33818
0.03091
-1.43708
-4.6246
-2.88086
-19.3682
-21.5996
-19.2531
-20.5435
-17.526
-17.3376
-15.0162
-14.4986
-12.556
-11.7616
-10.8584
-11.3484
-9.49025
-4.21358
2.14587
3.17899
-0.226784
-1.59762
3.59382
10.1299
13.6327
12.5165
11.357
9.882
8.40558
7.1456
5.69271
4.07282
2.54484
2.06876
1.34216
0.0339559
-1.42185
-4.59367
-2.84564
-19.3589
-21.7696
-19.2749
-20.5498
-17.5278
-17.3385
-15.0164
-14.5003
-12.5571
-11.7635
-10.8625
-11.3528
-9.49278
-4.20984
2.15328
3.18374
-0.225498
-1.59614
3.59497
10.1279
13.6279
12.5115
11.3536
9.8813
8.40696
7.14782
5.6949
4.07486
2.54714
2.0718
1.34539
0.0368168
-1.40711
-4.56441
-2.80443
-19.3505
-21.9409
-19.2918
-20.556
-17.5302
-17.3406
-15.0178
-14.5029
-12.5588
-11.766
-10.8667
-11.3576
-9.49566
-4.20719
2.15871
3.18705
-0.224585
-1.59513
3.59455
10.1236
13.6208
12.5044
11.3483
9.87861
8.40649
7.14848
5.69581
4.07577
2.54832
2.07376
1.34773
0.0394112
-1.39296
-4.5375
-2.75721
-19.3433
-22.1063
-19.3048
-20.5623
-17.5332
-17.3441
-15.0206
-14.5064
-12.5613
-11.7691
-10.8714
-11.3627
-9.49873
-4.20549
2.16204
3.18876
-0.224033
-1.59447
3.59302
10.1175
13.6118
12.4959
11.3417
9.87466
8.40468
7.14782
5.69557
4.07568
2.54852
2.07472
1.34913
0.0416673
-1.37937
-4.51358
-2.704
-19.3373
-22.2589
-19.3146
-20.5689
-17.5373
-17.3493
-15.0251
-14.5111
-12.5647
-11.7731
-10.8766
-11.3684
-9.502
-4.20451
2.1636
3.18902
-0.223892
-1.59404
3.59079
10.11
13.6009
12.4862
11.3343
9.87003
8.40205
7.14621
5.69441
4.07479
2.54796
2.07487
1.34965
0.0435481
-1.36619
-4.49319
-2.64509
-19.3326
-22.3937
-19.3222
-20.5759
-17.5427
-17.3565
-15.0316
-14.5173
-12.5694
-11.7781
-10.8827
-11.3746
-9.50546
-4.20401
2.1638
3.18799
-0.224236
-1.59361
3.58836
10.1012
13.5883
12.4752
11.3262
9.86503
8.39901
7.14402
5.69261
4.07329
2.54686
2.07439
1.34943
0.0450742
-1.35325
-4.47665
-2.58113
-19.3292
-22.5085
-19.3286
-20.5836
-17.5496
-17.366
-15.0404
-14.5253
-12.5755
-11.7842
-10.8899
-11.3819
-9.50929
-4.20385
2.1632
3.18604
-0.225099
-1.59302
3.58599
10.0914
13.5736
12.4627
11.3174
9.85974
8.39576
7.14151
5.69039
4.07138
2.5454
2.07347
1.34863
0.0463218
-1.34038
-4.46394
-2.51335
-19.3268
-22.6047
-19.3341
-20.5926
-17.5583
-17.3783
-15.0522
-14.5359
-12.5835
-11.7919
-10.8987
-11.3904
-9.51377
-4.204
2.16212
3.18335
-0.226463
-1.59201
3.584
10.0805
13.5569
12.4486
11.3077
9.8541
8.39238
7.13885
5.68793
4.06921
2.54373
2.07225
1.34739
0.047394
-1.32746
-4.45472
-2.44349
-19.325
-22.686
-19.3397
-20.6036
-17.5688
-17.3938
-15.0676
-14.5497
-12.594
-11.8014
-10.9096
-11.4008
-9.51948
-4.20465
2.1608
3.18023
-0.228259
-1.59041
3.58244
10.0684
13.538
12.4328
11.297
9.84801
8.38886
7.13613
5.68536
4.06687
2.54194
2.07081
1.34582
0.0483897
-1.31443
-4.44839
-2.37369
-19.3234
-22.7563
-19.3474
-20.6176
-17.5814
-17.4131
-15.0873
-14.5676
-12.6076
-11.8131
-10.9233
-11.414
-9.52719
-4.20621
2.15907
3.17661
-0.230434
-1.58797
3.58142
10.0551
13.5168
12.4153
11.2852
9.8414
8.38514
7.13337
5.6827
4.06443
2.5401
2.06921
1.34401
0.0493856
-1.30128
-4.44429
-2.30595
-19.3216
-22.8189
-19.3594
-20.6363
-17.5964
-17.4368
-15.1123
-14.5906
-12.6251
-11.8276
-10.9405
-11.4313
-9.53821
-4.20939
2.15668
3.17248
-0.232952
-1.58461
3.5808
10.0405
13.4932
12.3961
11.2725
9.83423
8.38118
7.13055
5.67998
4.06193
2.53822
2.06748
1.34201
0.0504365
-1.28798
-4.44183
-2.24178
-19.3193
-22.877
-19.3778
-20.6615
-17.6142
-17.4658
-15.1436
-14.6199
-12.6474
-11.8454
-10.962
-11.4536
-9.55397
-4.21525
2.15298
3.16742
-0.235845
-1.58024
3.58054
10.0245
13.4672
12.3752
11.2587
9.82651
8.37697
7.12767
5.67717
4.0594
2.53633
2.06566
1.33987
0.0515766
-1.27455
-4.44051
-2.18181
-19.3161
-22.933
-19.4035
-20.6955
-17.6356
-17.5011
-15.1823
-14.6564
-12.6751
-11.8668
-10.9881
-11.4823
-9.57611
-4.2251
2.14741
3.16118
-0.239169
-1.57498
3.58035
10.0069
13.4389
12.3528
11.2441
9.81827
8.37253
7.12468
5.67426
4.05683
2.53443
2.06375
1.33762
0.0528262
-1.26101
-4.43997
-2.12591
-19.3118
-22.9889
-19.4355
-20.7405
-17.6617
-17.5436
-15.2297
-14.7012
-12.7089
-11.8918
-11.0186
-11.5177
-9.60543
-4.24012
2.13907
3.15316
-0.243022
-1.56888
3.58009
9.98778
13.4083
12.329
11.2287
9.80955
8.36787
7.12157
5.67121
4.05422
2.53252
2.06178
1.33529
0.05419
-1.2474
-4.43992
-2.07341
-19.306
-23.0467
-19.4717
-20.7982
-17.6932
-17.5942
-15.2865
-14.7547
-12.7486
-11.9199
-11.0526
-11.5597
-9.64187
-4.26062
2.12757
3.14302
-0.247519
-1.56221
3.57932
9.96686
13.3755
12.3039
11.2125
9.80041
8.36301
7.1183
5.66799
4.05157
2.53061
2.05976
1.33291
0.055664
-1.23379
-4.44018
-2.02343
-19.2986
-23.1079
-19.5088
-20.8698
-17.7311
-17.653
-15.3529
-14.8161
-12.7936
-11.95
-11.0883
-11.6062
-9.68344
-4.28535
2.11272
3.13009
-0.252813
-1.55508
3.57789
9.94397
13.3406
12.2776
11.1957
9.79089
8.35797
7.11482
5.66458
4.04888
2.52872
2.05771
1.33047
0.0572314
-1.22029
-4.44059
-1.97502
-19.2893
-23.1746
-19.5443
-20.955
-17.7757
-17.719
-15.4271
-14.8833
-12.8416
-11.9798
-11.1231
-11.655
-9.72722
-4.31133
2.09571
3.11427
-0.259047
-1.5478
3.57536
9.91893
13.3038
12.2503
11.1783
9.78105
8.35274
7.1111
5.66095
4.04613
2.52685
2.05565
1.32799
0.0588707
-1.20699
-4.44107
-1.9274
-19.2779
-23.2495
-19.5774
-21.0526
-17.8267
-17.7897
-15.5057
-14.9522
-12.8893
-12.0064
-11.1542
-11.7023
-9.7689
-4.33465
2.07815
3.0955
-0.266256
-1.54042
3.57167
9.89154
13.2649
12.2221
11.1603
9.77094
8.34733
7.10708
5.65708
4.04333
2.52504
2.0536
1.32548
0.0605509
-1.19404
-4.44152
-1.87989
-19.264
-23.3363
-19.6092
-21.1589
-17.8828
-17.8609
-15.5835
-15.0172
-12.9321
-12.0265
-11.1783
-11.7448
-9.80462
-4.35176
2.06217
3.07459
-0.274282
-1.53309
3.56657
9.86167
13.2242
12.193
11.142
9.76062
8.34169
7.10272
5.65294
4.04049
2.5233
2.05158
1.32292
0.0622419
-1.18157
-4.4419
-1.83197
-19.2473
-23.4408
-19.6419
-21.2678
-17.9417
-17.9271
-15.6536
-15.0719
-12.9651
-12.0367
-11.193
-11.7789
-9.83068
-4.36074
2.04842
3.05207
-0.282757
-1.52555
3.56035
9.82933
13.1816
12.1633
11.1232
9.75012
8.3358
7.09794
5.64851
4.03761
2.52169
2.0496
1.32034
0.0639064
-1.16976
-4.44218
-1.78321
-19.2274
-23.571
-19.6769
-21.3698
-17.9997
-17.9822
-15.7089
-15.1097
-12.9837
-12.0345
-11.1964
-11.8024
-9.84538
-4.36195
2.03651
3.02862
-0.291263
-1.51759
3.55312
9.79468
13.1373
12.1328
11.1042
9.73946
8.32961
7.09271
5.64377
4.03471
2.52023
2.04769
1.3177
0.0655118
-1.15879
-4.44235
-1.73333
-19.2036
-23.7374
-19.7137
-21.4535
-18.0524
-18.0202
-15.7435
-15.1256
-12.9845
-12.0184
-11.1883
-11.8139
-9.8484
-4.3578
2.02437
3.00383
-0.299462
-1.50868
3.54553
9.7581
13.0913
12.1018
11.085
9.72869
8.32308
7.08695
5.6387
4.03181
2.51896
2.04586
1.31503
0.0670173
-1.14889
-4.44237
-1.68204
-19.1752
-23.9529
-19.7487
-21.5079
-18.0954
-18.037
-15.7535
-15.1171
-12.9665
-11.9891
-11.17
-11.8135
-9.84173
-4.35157
2.0101
2.97732
-0.307245
-1.49862
3.53782
9.72011
13.044
12.0704
11.0656
9.7178
8.31613
7.08063
5.6333
4.02894
2.51794
2.04412
1.31231
0.0683889
-1.14028
-4.4423
-1.62922
-19.1412
-24.232
-19.7766
-21.5266
-18.1257
-18.0316
-15.7386
-15.0848
-12.9309
-11.9487
-11.1438
-11.8022
-9.82845
-4.346
1.99193
2.94817
-0.314671
-1.48707
3.53067
9.68135
12.9957
12.0387
11.0462
9.7068
8.30872
7.07368
5.62755
4.02613
2.51721
2.04251
1.30953
0.0695797
-1.13328
-4.44211
-1.57468
-19.0991
-24.5904
-19.7907
-21.5093
-18.1425
-18.0058
-15.7019
-15.0328
-12.8811
-11.9011
-11.1126
-11.7824
-9.81242
-4.34233
1.96952
2.91617
-0.321936
-1.47416
3.52412
9.64245
12.947
12.0069
11.0268
9.69569
8.30078
7.06609
5.62147
4.0234
2.51681
2.04104
1.3067
0.0705501
-1.12818
-4.44187
-1.51838
-19.0459
-25.039
-19.7843
-21.4612
-18.147
-17.9641
-15.6489
-14.9667
-12.8224
-11.8506
-11.0794
-11.758
-9.79622
-4.34038
1.94286
2.88094
-0.329171
-1.45968
3.51871
9.60398
12.8982
11.9752
11.0074
9.68443
8.29225
7.05781
5.61506
4.0208
2.51681
2.03973
1.3038
0.0712444
-1.12539
-4.44157
-1.46017
-18.9803
-25.5716
-19.7495
-21.3904
-18.1414
-17.9122
-15.5859
-14.893
-12.7598
-11.8012
-11.0473
-11.734
-9.78085
-4.33944
1.91247
2.8428
-0.336279
-1.44361
3.51429
9.56623
12.8498
11.9437
10.9881
9.67302
8.2831
7.04886
5.60837
4.01836
2.51725
2.0386
1.30082
0.071617
-1.12528
-4.44132
-1.39995
-18.9037
-26.1488
-19.678
-21.3047
-18.1287
-17.8553
-15.5189
-14.8178
-12.6983
-11.7562
-11.0201
-11.7139
-9.76546
-4.33931
1.87809
2.80183
-0.342628
-1.42535
3.51114
9.52916
12.802
11.9124
10.9689
9.66148
8.27336
7.03927
5.6014
4.0161
2.51818
2.03767
1.29777
0.0715842
-1.12845
-4.44106
-1.33749
-18.8099
-26.6867
-19.561
-21.2106
-18.1111
-17.7974
-15.4527
-14.7455
-12.6416
-11.719
-11.0018
-11.698
-9.74954
-4.34085
1.83961
2.75927
-0.346981
-1.4048
3.50822
9.49204
12.7544
11.8814
10.95
9.64999
8.26315
7.0291
5.59415
4.01397
2.5196
2.03698
1.29466
0.0710603
-1.13525
-4.44079
-1.27297
-18.6715
-27.0558
-19.3913
-21.1122
-18.0892
-17.7406
-15.3902
-14.6794
-12.5939
-11.693
-10.9928
-11.6844
-9.73352
-4.34542
1.79736
2.71706
-0.347953
-1.38265
3.50396
9.45363
12.7069
11.8512
10.9319
9.63892
8.25257
7.01823
5.58644
4.0119
2.52157
2.03665
1.29151
0.0700133
-1.14572
-4.44071
-1.20787
-18.4969
-27.0998
-19.1625
-21.0121
-18.0629
-17.6856
-15.3324
-14.6226
-12.5595
-11.6787
-10.9905
-11.6722
-9.71953
-4.35366
1.75454
2.67913
-0.345483
-1.36269
3.49456
9.41285
12.6603
11.8228
10.9156
9.62859
8.24135
7.00625
5.57803
4.00986
2.52427
2.03684
1.28833
0.0685431
-1.1595
-4.44158
-1.1439
-18.5778
-26.6901
-18.8686
-20.9151
-18.0354
-17.6354
-15.2802
-14.5787
-12.5397
-11.6726
-10.9922
-11.6619
-9.70865
-4.36386
1.71469
2.64647
-0.343057
-1.35017
3.47824
9.37128
12.6177
11.799
10.9021
9.61827
8.22777
6.9918
5.56866
4.00853
2.52867
2.03779
1.28492
0.065887
-1.18226
-4.44256
-1.06914
9.09508
9.39953
10.2681
11.613
13.352
15.5301
18.2421
21.592
26.0594
31.3699
37.8939
45.7334
55.3531
67.2454
81.7578
99.1032
123.725
150.212
191.129
215.45
263.557
105.117
9.09488
9.3993
10.2678
11.6126
13.3513
15.5291
18.2406
21.626
26.1286
31.4107
37.8947
45.7202
55.3255
67.2017
81.6906
98.9852
123.502
149.744
190.243
213.852
259.683
102.157
9.09467
9.39906
10.2675
11.6121
13.3506
15.528
18.2389
21.6683
26.1889
31.4424
37.8913
45.7052
55.2949
67.1604
81.6242
98.864
123.272
149.256
189.337
212.193
255.649
103.814
9.09445
9.39881
10.2672
11.6116
13.3499
15.5269
18.2372
21.711
26.2389
31.4661
37.8858
45.6894
55.2667
67.1144
81.5546
98.7372
123.032
148.748
188.408
210.466
251.501
103.682
9.09422
9.39854
10.2668
11.6111
13.3491
15.5257
18.2353
21.7487
26.2797
31.4833
37.8796
45.6731
55.2369
67.0715
81.4854
98.6051
122.779
148.218
187.45
208.67
247.228
101.867
9.09397
9.39826
10.2664
11.6105
13.3483
15.5245
18.2334
21.775
26.3116
31.4951
37.8736
45.657
55.21
67.0243
81.413
98.4662
122.513
147.666
186.457
206.806
242.826
99.7981
9.09371
9.39796
10.266
11.6099
13.3474
15.5231
18.2314
21.7861
26.3351
31.5024
37.8686
45.6413
55.1822
66.9802
81.3407
98.3209
122.23
147.09
185.425
204.877
238.3
97.8718
9.09344
9.39765
10.2656
11.6093
13.3465
15.5217
18.2292
21.7822
26.3506
31.5061
37.8648
45.6264
55.1577
66.9321
81.2648
98.168
121.928
146.488
184.345
202.884
233.654
95.9249
9.09315
9.39732
10.2652
11.6087
13.3456
15.5202
18.227
21.7671
26.3584
31.5067
37.8625
45.6124
55.1326
66.8871
81.1888
98.0081
121.608
145.86
183.211
200.825
228.894
93.859
9.09284
9.39697
10.2647
11.608
13.3445
15.5187
18.2246
21.7443
26.3585
31.5045
37.8615
45.5995
55.1107
66.8382
81.1089
97.8402
121.266
145.204
182.017
198.702
224.023
91.6983
9.09252
9.3966
10.2642
11.6073
13.3435
15.517
18.222
21.7161
26.3508
31.4998
37.8616
45.5877
55.0881
66.7921
81.0284
97.6651
120.903
144.519
180.758
196.513
219.047
89.4778
9.09218
9.39621
10.2637
11.6065
13.3423
15.5152
18.2194
21.6844
26.3348
31.4922
37.8624
45.5771
55.0684
66.7421
80.9437
97.4819
120.518
143.802
179.428
194.257
213.97
87.2084
9.09182
9.3958
10.2632
11.6057
13.3411
15.5134
18.2165
21.6511
26.3095
31.4814
37.8635
45.5676
55.0479
66.6944
80.8577
97.2913
120.111
143.052
178.021
191.933
208.797
84.8941
9.09144
9.39536
10.2626
11.6049
13.3398
15.5114
18.2135
21.6182
26.2743
31.4665
37.8641
45.5591
55.0298
66.6425
80.7669
97.0922
119.682
142.267
176.536
189.54
203.533
82.5434
9.09104
9.3949
10.262
11.604
13.3385
15.5093
18.2103
21.5876
26.2283
31.4465
37.8632
45.5515
55.0105
66.5922
80.6741
96.8852
119.231
141.447
174.968
187.077
198.184
80.1686
9.09061
9.39441
10.2613
11.603
13.3371
15.507
18.2069
21.5608
26.1712
31.4202
37.8597
45.5444
54.9932
66.5371
80.5755
96.6689
118.758
140.589
173.316
184.54
192.754
77.7828
9.09016
9.3939
10.2606
11.602
13.3356
15.5047
18.2033
21.5384
26.1034
31.3859
37.852
45.5375
54.9745
66.4827
80.4738
96.4436
118.262
139.693
171.577
181.93
187.247
75.4
9.08968
9.39335
10.2599
11.601
13.334
15.5022
18.1994
21.5207
26.0268
31.3418
37.8381
45.5302
54.9575
66.4229
80.3653
96.2078
117.744
138.757
169.751
179.245
181.668
73.0339
9.08917
9.39277
10.2591
11.5998
13.3323
15.4995
18.1953
21.507
25.9442
31.2864
37.8156
45.5213
54.9387
66.3628
80.2523
95.9614
117.201
137.78
167.837
176.482
176.02
70.6975
9.08864
9.39216
10.2583
11.5986
13.3305
15.4967
18.191
21.4964
25.8599
31.2183
37.7812
45.5095
54.9212
66.2965
80.131
95.7029
116.632
136.76
165.835
173.641
170.308
68.4011
9.08807
9.3915
10.2574
11.5974
13.3286
15.4937
18.1864
21.4875
25.7784
31.1374
37.7314
45.4921
54.9011
66.2291
80.0036
95.4318
116.037
135.696
163.743
170.72
164.537
66.152
9.08746
9.39081
10.2565
11.596
13.3265
15.4905
18.1814
21.4796
25.7042
31.045
37.6625
45.4659
54.8807
66.155
79.8664
95.1466
115.413
134.586
161.563
167.718
158.71
63.9532
9.08682
9.39008
10.2556
11.5946
13.3244
15.4872
18.1761
21.4717
25.6406
30.9445
37.5709
45.4258
54.8552
66.0788
79.7214
94.8468
114.759
133.429
159.293
164.633
152.835
61.8029
9.08614
9.3893
10.2545
11.5931
13.3221
15.4836
18.1705
21.4636
25.589
30.8407
37.455
45.3653
54.8246
65.995
79.565
94.5306
114.074
132.222
156.933
161.464
146.918
59.6942
9.08542
9.38848
10.2534
11.5915
13.3197
15.4798
18.1646
21.455
25.5488
30.7396
37.316
45.2762
54.7809
65.9075
79.3991
94.1975
113.356
130.965
154.483
158.208
140.968
57.6155
9.08465
9.3876
10.2522
11.5898
13.3172
15.4758
18.1583
21.4458
25.5177
30.6463
37.159
45.1502
54.7189
65.8094
79.22
93.846
112.602
129.654
151.943
154.864
134.994
55.5505
9.08384
9.38667
10.251
11.588
13.3144
15.4715
18.1515
21.436
25.4929
30.5644
36.9926
44.9813
54.6236
65.7017
79.0291
93.4754
111.813
128.289
149.312
151.431
129.007
53.4794
9.08297
9.38568
10.2497
11.586
13.3115
15.467
18.1444
21.4255
25.4715
30.4951
36.8274
44.7696
54.4819
65.5729
78.8216
93.0839
110.987
126.867
146.592
147.906
123.018
51.38
9.08205
9.38462
10.2483
11.584
13.3085
15.4622
18.1368
21.4141
25.4514
30.4374
36.6731
44.5233
54.2747
65.4148
78.5962
92.6708
110.123
125.387
143.781
144.289
117.041
49.2287
9.08106
9.3835
10.2468
11.5818
13.3052
15.4571
18.1288
21.4021
25.4315
30.3888
36.5364
44.2589
53.9927
65.2052
78.3425
92.2329
109.22
123.846
140.882
140.577
111.088
47.0023
9.08002
9.38231
10.2452
11.5795
13.3017
15.4516
18.1202
21.3892
25.411
30.3461
36.4194
43.9964
53.6359
64.9241
78.0498
91.7667
108.278
122.244
137.894
136.77
105.176
44.679
9.07891
9.38104
10.2435
11.577
13.298
15.4459
18.1111
21.3754
25.3893
30.3062
36.3207
43.7531
53.2247
64.5464
77.694
91.264
107.294
120.579
134.82
132.867
99.3175
42.2395
9.07772
9.37969
10.2417
11.5744
13.294
15.4397
18.1015
21.3608
25.3662
30.2669
36.2358
43.5395
52.7912
64.0652
77.2487
90.7122
106.265
118.85
131.661
128.87
93.5281
39.6686
9.07646
9.37825
10.2398
11.5716
13.2898
15.4332
18.0912
21.3453
25.3416
30.2265
36.1594
43.3571
52.3719
63.4919
76.6824
90.0903
105.186
117.055
128.418
124.778
87.8224
36.9554
9.07511
9.37672
10.2377
11.5686
13.2854
15.4262
18.0803
21.3287
25.3154
30.1843
36.0864
43.2008
51.9929
62.8654
75.9795
89.3713
104.045
115.193
125.096
120.596
82.2148
34.0948
9.07367
9.37508
10.2355
11.5654
13.2806
15.4188
18.0687
21.3111
25.2875
30.1397
36.013
43.0618
51.6649
62.2347
75.1486
88.5263
102.828
113.262
121.697
116.327
76.7194
31.0871
9.07214
9.37334
10.2332
11.562
13.2755
15.4109
18.0563
21.2923
25.2579
30.0922
35.9368
42.9308
51.3831
61.6441
74.2327
87.5371
101.512
111.26
118.227
111.978
71.3499
27.9389
9.0705
9.37148
10.2307
11.5584
13.2701
15.4025
18.0431
21.2722
25.2263
30.0419
35.8566
42.8005
51.1337
61.1159
73.2943
86.4085
100.077
109.183
114.694
107.556
66.1197
24.6627
9.06876
9.36949
10.228
11.5545
13.2643
15.3936
18.0291
21.2509
25.1927
29.9884
35.7717
42.6658
50.9003
60.6494
72.3933
85.1763
98.5109
107.031
111.112
103.073
61.0424
21.2764
9.06689
9.36737
10.2252
11.5504
13.2581
15.384
18.0142
21.2282
25.1569
29.9315
35.6817
42.5242
50.6688
60.2264
71.5636
83.8978
96.8175
104.804
107.499
98.5453
56.1322
17.8032
9.0649
9.36511
10.2222
11.546
13.2515
15.3738
17.9984
21.2039
25.1187
29.871
35.5861
42.3744
50.4299
59.8234
70.8068
82.6309
95.0244
102.509
103.882
93.9941
51.4048
14.2705
9.06277
9.3627
10.219
11.5413
13.2445
15.363
17.9814
21.1781
25.0782
29.8067
35.4846
42.2157
50.1788
59.4192
70.0991
81.411
93.1739
100.157
100.295
89.4482
46.8782
10.7101
9.0605
9.36011
10.2155
11.5363
13.237
15.3514
17.9634
21.1505
25.0349
29.7383
35.3768
42.0475
49.9132
58.9999
69.4078
80.2426
91.3077
97.7613
96.7736
84.9446
42.5723
7.15763
9.05807
9.35736
10.2118
11.531
13.2289
15.339
17.9442
21.1211
24.9889
29.6656
35.2623
41.869
49.6324
58.5586
68.7039
79.1047
89.4516
95.3331
93.348
80.5271
38.5096
3.65189
9.05547
9.35441
10.2079
11.5252
13.2204
15.3258
17.9237
21.0898
24.9398
29.5882
35.1406
41.6795
49.3353
58.0927
67.9687
77.9648
87.6106
92.8704
90.0299
76.241
34.7128
0.234567
9.05269
9.35126
10.2037
11.5191
13.2112
15.3117
17.9018
21.0563
24.8875
29.5058
35.0114
41.4786
49.0209
57.6013
67.1938
76.7924
85.771
90.3617
86.8
72.1247
31.2023
-3.05111
9.04971
9.34788
10.1992
11.5126
13.2014
15.2967
17.8785
21.0206
24.8317
29.4182
34.8741
41.2653
48.6881
57.0833
66.3778
75.5674
83.9069
87.7971
83.606
68.1952
27.9914
-6.16233
9.04653
9.34428
10.1943
11.5055
13.1909
15.2806
17.8536
20.9825
24.7723
29.3249
34.7282
41.0392
48.3359
56.5371
65.5213
74.2823
81.9899
85.1739
80.3813
64.4348
25.0795
-9.05966
9.04312
9.34042
10.1892
11.4981