/*--------------------------------*- C++ -*----------------------------------*\
| =========                 |                                                 |
| \\      /  F ield         | OpenFOAM: The Open Source CFD Toolbox           |
|  \\    /   O peration     | Version:  v1912                                 |
|   \\  /    A nd           | Website:  www.openfoam.com                      |
|    \\/     M anipulation  |                                                 |
\*---------------------------------------------------------------------------*/
FoamFile
{
    version     2.0;
    format      ascii;
    class       surfaceScalarField;
    location    "550";
    object      phi;
}
// * * * * * * * * * * * * * * * * * * * * * * * * * * * * * * * * * * * * * //

dimensions      [0 3 -1 0 0 0 0];
oriented        oriented;


internalField   nonuniform List<scalar> 
24588
(
6.81682e-05
2.00168e-08
6.81136e-05
5.48594e-08
6.80278e-05
8.53881e-08
6.7911e-05
1.16586e-07
6.77593e-05
1.51103e-07
6.75681e-05
1.91005e-07
6.7333e-05
2.34929e-07
6.70374e-05
2.94705e-07
6.66705e-05
3.67656e-07
6.62159e-05
4.54085e-07
6.56481e-05
5.68594e-07
6.49678e-05
6.97341e-07
6.40408e-05
8.63249e-07
6.29429e-05
1.16583e-06
6.14906e-05
1.44236e-06
5.91714e-05
2.31437e-06
5.62381e-05
2.93165e-06
5.13846e-05
4.85358e-06
4.46343e-05
6.7503e-06
3.34118e-05
1.12223e-05
1.98145e-05
1.35973e-05
1.98145e-05
6.81685e-05
4.04963e-08
6.81135e-05
1.10198e-07
6.80277e-05
1.70601e-07
6.79111e-05
2.32969e-07
6.77594e-05
3.02031e-07
6.75683e-05
3.81869e-07
6.73332e-05
4.69775e-07
6.70379e-05
5.889e-07
6.66713e-05
7.35203e-07
6.62164e-05
9.08423e-07
6.56493e-05
1.13661e-06
6.49699e-05
1.39603e-06
6.40374e-05
1.725e-06
6.29515e-05
2.31846e-06
6.14938e-05
2.88991e-06
5.92424e-05
4.56099e-06
5.62541e-05
5.91711e-06
5.13527e-05
9.75505e-06
4.468e-05
1.34231e-05
3.33151e-05
2.25867e-05
1.97792e-05
2.71332e-05
3.95937e-05
6.81685e-05
6.09786e-08
6.81135e-05
1.65543e-07
6.80277e-05
2.55827e-07
6.79111e-05
3.49365e-07
6.77594e-05
4.52976e-07
6.75683e-05
5.72764e-07
6.73332e-05
7.04616e-07
6.70379e-05
8.83082e-07
6.66712e-05
1.10283e-06
6.62165e-05
1.36254e-06
6.56484e-05
1.70559e-06
6.49709e-05
2.09361e-06
6.40357e-05
2.58632e-06
6.29429e-05
3.49083e-06
6.14821e-05
4.33883e-06
5.92691e-05
6.76887e-06
5.62471e-05
8.93545e-06
5.13723e-05
1.46302e-05
4.46569e-05
2.01386e-05
3.33372e-05
3.39059e-05
1.97996e-05
4.06707e-05
5.93934e-05
6.81685e-05
8.14599e-08
6.81135e-05
2.20854e-07
6.80277e-05
3.41033e-07
6.79111e-05
4.65753e-07
6.77594e-05
6.03886e-07
6.75683e-05
7.63618e-07
6.73332e-05
9.39495e-07
6.70379e-05
1.17735e-06
6.66712e-05
1.47046e-06
6.62162e-05
1.81691e-06
6.56489e-05
2.2739e-06
6.49688e-05
2.79299e-06
6.40378e-05
3.44721e-06
6.29503e-05
4.64254e-06
6.14864e-05
5.79297e-06
5.92945e-05
8.95659e-06
5.62734e-05
1.19536e-05
5.13874e-05
1.95162e-05
4.46474e-05
2.68786e-05
3.3367e-05
4.51858e-05
1.98337e-05
5.4204e-05
7.92271e-05
6.81685e-05
1.01941e-07
6.81135e-05
2.76169e-07
6.80277e-05
4.26246e-07
6.79111e-05
5.82155e-07
6.77594e-05
7.54805e-07
6.75683e-05
9.54506e-07
6.73332e-05
1.17435e-06
6.70379e-05
1.47161e-06
6.66711e-05
1.83816e-06
6.62164e-05
2.27109e-06
6.56482e-05
2.84301e-06
6.49706e-05
3.49029e-06
6.40362e-05
4.30761e-06
6.29415e-05
5.81717e-06
6.14769e-05
7.2454e-06
5.9298e-05
1.11302e-05
5.62956e-05
1.49523e-05
5.13891e-05
2.44231e-05
4.4666e-05
3.36018e-05
3.34136e-05
5.64378e-05
1.98824e-05
6.77351e-05
9.91095e-05
6.81685e-05
1.22423e-07
6.81135e-05
3.31449e-07
6.80277e-05
5.11434e-07
6.79111e-05
6.9854e-07
6.77594e-05
9.05679e-07
6.75684e-05
1.14534e-06
6.73332e-05
1.40924e-06
6.70379e-05
1.76595e-06
6.66712e-05
2.20584e-06
6.62162e-05
2.72553e-06
6.56489e-05
3.41128e-06
6.49678e-05
4.19042e-06
6.40384e-05
5.1689e-06
6.29503e-05
6.96575e-06
6.14825e-05
8.70394e-06
5.93036e-05
1.33051e-05
5.63137e-05
1.79392e-05
5.14018e-05
2.93351e-05
4.46981e-05
4.03053e-05
3.34802e-05
6.76553e-05
1.9948e-05
8.12672e-05
0.000119058
6.81685e-05
1.42904e-07
6.81135e-05
3.86736e-07
6.80277e-05
5.9663e-07
6.79111e-05
8.1494e-07
6.77594e-05
1.05656e-06
6.75684e-05
1.33622e-06
6.73333e-05
1.64409e-06
6.70379e-05
2.06027e-06
6.66711e-05
2.57358e-06
6.62164e-05
3.17976e-06
6.56482e-05
3.98029e-06
6.49708e-05
4.88695e-06
6.40368e-05
6.02941e-06
6.29404e-05
8.14327e-06
6.1473e-05
1.01582e-05
5.92929e-05
1.54801e-05
5.63264e-05
2.09027e-05
5.1424e-05
3.4238e-05
4.47475e-05
4.6982e-05
3.35746e-05
7.88278e-05
2.00336e-05
9.48082e-05
0.000139091
6.81685e-05
1.63386e-07
6.81135e-05
4.41985e-07
6.80277e-05
6.81801e-07
6.79111e-05
9.31317e-07
6.77595e-05
1.20739e-06
6.75684e-05
1.52702e-06
6.73333e-05
1.87898e-06
6.70379e-05
2.35465e-06
6.66712e-05
2.94128e-06
6.62162e-05
3.63425e-06
6.56491e-05
4.54836e-06
6.49668e-05
5.58805e-06
6.40384e-05
6.8929e-06
6.29495e-05
9.28831e-06
6.14716e-05
1.16262e-05
5.92839e-05
1.76635e-05
5.63462e-05
2.38382e-05
5.14758e-05
3.91084e-05
4.48334e-05
5.36242e-05
3.37094e-05
8.99515e-05
2.01434e-05
0.000108374
0.000159235
6.81685e-05
1.83868e-07
6.81135e-05
4.97244e-07
6.80277e-05
7.6698e-07
6.79111e-05
1.04771e-06
6.77595e-05
1.35822e-06
6.75684e-05
1.71788e-06
6.73333e-05
2.11381e-06
6.7038e-05
2.64901e-06
6.66712e-05
3.30904e-06
6.62164e-05
4.08852e-06
6.56485e-05
5.11716e-06
6.49713e-05
6.28348e-06
6.40365e-05
7.75433e-06
6.29327e-05
1.0472e-05
6.14387e-05
1.31089e-05
5.92792e-05
1.98196e-05
5.63551e-05
2.67608e-05
5.15893e-05
4.38746e-05
4.49803e-05
6.02333e-05
3.38978e-05
0.000101034
2.0282e-05
0.00012199
0.000179517
6.81685e-05
2.0435e-07
6.81135e-05
5.52463e-07
6.80277e-05
8.52139e-07
6.79112e-05
1.16408e-06
6.77595e-05
1.50901e-06
6.75685e-05
1.90866e-06
6.73334e-05
2.3487e-06
6.7038e-05
2.94343e-06
6.66713e-05
3.67671e-06
6.62162e-05
4.54308e-06
6.56496e-05
5.68473e-06
6.49651e-05
6.98646e-06
6.40317e-05
8.62883e-06
6.29235e-05
1.16311e-05
6.14132e-05
1.46103e-05
5.93053e-05
2.19248e-05
5.63754e-05
2.96897e-05
5.17711e-05
4.84787e-05
4.5194e-05
6.68103e-05
3.41453e-05
0.000112082
2.04533e-05
0.000135682
0.00019997
6.81685e-05
2.2483e-07
6.81135e-05
6.07696e-07
6.80278e-05
9.37309e-07
6.79112e-05
1.28046e-06
6.77595e-05
1.65981e-06
6.75685e-05
2.0995e-06
6.73334e-05
2.5835e-06
6.7038e-05
3.23783e-06
6.66714e-05
4.04438e-06
6.62165e-05
4.99749e-06
6.56496e-05
6.25241e-06
6.49689e-05
7.68418e-06
6.40331e-05
9.49562e-06
6.29071e-05
1.28215e-05
6.13937e-05
1.61184e-05
5.93409e-05
2.39768e-05
5.64216e-05
3.26085e-05
5.19872e-05
5.29135e-05
4.5447e-05
7.33507e-05
3.44433e-05
0.000123086
2.06587e-05
0.000149466
0.000220629
6.81685e-05
2.45311e-07
6.81135e-05
6.62886e-07
6.80278e-05
1.02246e-06
6.79112e-05
1.39682e-06
6.77595e-05
1.81056e-06
6.75686e-05
2.29025e-06
6.73335e-05
2.81836e-06
6.7038e-05
3.53229e-06
6.66715e-05
4.4119e-06
6.62162e-05
5.45234e-06
6.56514e-05
6.81819e-06
6.49576e-05
8.39477e-06
6.40211e-05
1.03845e-05
6.29021e-05
1.3971e-05
6.13872e-05
1.76288e-05
5.93737e-05
2.5989e-05
5.64787e-05
3.55032e-05
5.21867e-05
5.72053e-05
4.57025e-05
7.98347e-05
3.47743e-05
0.000134014
2.08969e-05
0.000163344
0.000241525
6.81685e-05
2.65789e-07
6.81135e-05
7.18091e-07
6.80278e-05
1.10763e-06
6.79112e-05
1.5132e-06
6.77595e-05
1.96131e-06
6.75686e-05
2.48106e-06
6.73335e-05
3.05312e-06
6.70381e-05
3.82674e-06
6.66717e-05
4.77933e-06
6.62162e-05
5.90737e-06
6.56514e-05
7.38381e-06
6.49502e-05
9.11059e-06
6.40132e-05
1.12705e-05
6.28966e-05
1.51148e-05
6.13846e-05
1.91403e-05
5.9398e-05
2.79757e-05
5.65302e-05
3.8371e-05
5.23444e-05
6.13913e-05
4.5938e-05
8.62413e-05
3.51206e-05
0.000144831
2.11645e-05
0.0001773
0.00026269
6.81685e-05
2.86267e-07
6.81135e-05
7.73251e-07
6.80278e-05
1.19279e-06
6.79112e-05
1.62954e-06
6.77596e-05
2.11203e-06
6.75686e-05
2.67178e-06
6.73336e-05
3.28796e-06
6.70381e-05
4.12126e-06
6.66719e-05
5.14656e-06
6.62158e-05
6.36297e-06
6.56508e-05
7.94971e-06
6.49289e-05
9.84552e-06
6.40058e-05
1.21711e-05
6.28915e-05
1.62358e-05
6.1384e-05
2.06458e-05
5.94141e-05
2.9945e-05
5.65699e-05
4.1215e-05
5.24626e-05
6.54985e-05
4.61466e-05
9.25573e-05
3.54691e-05
0.000155509
2.14566e-05
0.000191312
0.000284147
6.81685e-05
3.06742e-07
6.81136e-05
8.28429e-07
6.80278e-05
1.27795e-06
6.79112e-05
1.74591e-06
6.77596e-05
2.26275e-06
6.75686e-05
2.86257e-06
6.73336e-05
3.52266e-06
6.70382e-05
4.41576e-06
6.66722e-05
5.51363e-06
6.62156e-05
6.81904e-06
6.56488e-05
8.51731e-06
6.49138e-05
1.05907e-05
6.40078e-05
1.30572e-05
6.28873e-05
1.7366e-05
6.13841e-05
2.21495e-05
5.94243e-05
3.19051e-05
5.65988e-05
4.40405e-05
5.25514e-05
6.9546e-05
4.63291e-05
9.87797e-05
3.58121e-05
0.000166026
2.17686e-05
0.000205356
0.000305915
6.81684e-05
3.27216e-07
6.81135e-05
8.83558e-07
6.80278e-05
1.36312e-06
6.79112e-05
1.86223e-06
6.77596e-05
2.41344e-06
6.75687e-05
3.05325e-06
6.73337e-05
3.75745e-06
6.70382e-05
4.71031e-06
6.66724e-05
5.88054e-06
6.62155e-05
7.27545e-06
6.5643e-05
9.09061e-06
6.49071e-05
1.1334e-05
6.40078e-05
1.39522e-05
6.28847e-05
1.8489e-05
6.13845e-05
2.36485e-05
5.94306e-05
3.38586e-05
5.66192e-05
4.68518e-05
5.26201e-05
7.35449e-05
4.64891e-05
0.000104911
3.61458e-05
0.000176369
2.20963e-05
0.000219405
0.000328012
6.81684e-05
3.47686e-07
6.81136e-05
9.38709e-07
6.80278e-05
1.44829e-06
6.79112e-05
1.97859e-06
6.77596e-05
2.56413e-06
6.75687e-05
3.24401e-06
6.73338e-05
3.9921e-06
6.70384e-05
5.00479e-06
6.66725e-05
6.24741e-06
6.6216e-05
7.73152e-06
6.56321e-05
9.67513e-06
6.49078e-05
1.20623e-05
6.40068e-05
1.48457e-05
6.2883e-05
1.96173e-05
6.1385e-05
2.51473e-05
5.94345e-05
3.58093e-05
5.66337e-05
4.96527e-05
5.26755e-05
7.75032e-05
4.6631e-05
0.000110955
3.64689e-05
0.000186531
2.24365e-05
0.000233437
0.000350448
6.81684e-05
3.68156e-07
6.81136e-05
9.93807e-07
6.80278e-05
1.53346e-06
6.79113e-05
2.0949e-06
6.77597e-05
2.71478e-06
6.75688e-05
3.43465e-06
6.73338e-05
4.22685e-06
6.70385e-05
5.29926e-06
6.66725e-05
6.61438e-06
6.62168e-05
8.18675e-06
6.56204e-05
1.02723e-05
6.49081e-05
1.27767e-05
6.40054e-05
1.57489e-05
6.2882e-05
2.07391e-05
6.13854e-05
2.6643e-05
5.94367e-05
3.77577e-05
5.66442e-05
5.24451e-05
5.27224e-05
8.14249e-05
4.67588e-05
0.000116919
3.67817e-05
0.000196508
2.27868e-05
0.000247432
0.000373235
6.81684e-05
3.8862e-07
6.81136e-05
1.04893e-06
6.80278e-05
1.61865e-06
6.79113e-05
2.21125e-06
6.77597e-05
2.86545e-06
6.75688e-05
3.62538e-06
6.73339e-05
4.46146e-06
6.70387e-05
5.5936e-06
6.66726e-05
6.98146e-06
6.62172e-05
8.64172e-06
6.56128e-05
1.08772e-05
6.49069e-05
1.34834e-05
6.40044e-05
1.66476e-05
6.28814e-05
2.18653e-05
6.1386e-05
2.81391e-05
5.94381e-05
3.97058e-05
5.66522e-05
5.5231e-05
5.2764e-05
8.53133e-05
4.68762e-05
0.000122807
3.70855e-05
0.000206299
2.31457e-05
0.000261372
0.000396381
6.81684e-05
4.09084e-07
6.81136e-05
1.104e-06
6.80278e-05
1.70382e-06
6.79113e-05
2.32755e-06
6.77598e-05
3.01607e-06
6.75689e-05
3.81598e-06
6.7334e-05
4.69618e-06
6.70388e-05
5.88795e-06
6.66727e-05
7.34848e-06
6.62137e-05
9.10037e-06
6.56108e-05
1.14806e-05
6.49049e-05
1.41898e-05
6.40039e-05
1.755e-05
6.28811e-05
2.29863e-05
6.13866e-05
2.96329e-05
5.94391e-05
4.1653e-05
5.66591e-05
5.8011e-05
5.2803e-05
8.91692e-05
4.69864e-05
0.000128623
3.73821e-05
0.000215903
2.35126e-05
0.000275242
0.000419893
6.81684e-05
4.29543e-07
6.81136e-05
1.15909e-06
6.80278e-05
1.78902e-06
6.79113e-05
2.44388e-06
6.77598e-05
3.1667e-06
6.75689e-05
4.00668e-06
6.73341e-05
4.93071e-06
6.70388e-05
6.18231e-06
6.66733e-05
7.71497e-06
6.62046e-05
9.5687e-06
6.56131e-05
1.20723e-05
6.49032e-05
1.48998e-05
6.40037e-05
1.84469e-05
6.2881e-05
2.41114e-05
6.13874e-05
3.11271e-05
5.94401e-05
4.36006e-05
5.66657e-05
6.07855e-05
5.28412e-05
9.29938e-05
4.70921e-05
0.000134373
3.76737e-05
0.000225321
2.38871e-05
0.000289028
0.00044378
6.81684e-05
4.5e-07
6.81136e-05
1.21413e-06
6.80278e-05
1.87421e-06
6.79113e-05
2.56015e-06
6.77598e-05
3.31729e-06
6.7569e-05
4.19724e-06
6.73342e-05
5.1653e-06
6.70388e-05
6.47687e-06
6.66742e-05
8.08053e-06
6.61935e-05
1.0049e-05
6.56155e-05
1.26505e-05
6.4902e-05
1.56136e-05
6.40037e-05
1.93467e-05
6.28812e-05
2.52322e-05
6.13886e-05
3.2619e-05
5.94416e-05
4.55473e-05
5.66728e-05
6.35542e-05
5.28799e-05
9.67866e-05
4.71953e-05
0.000140057
3.79624e-05
0.000234554
2.42697e-05
0.000302721
0.00046805
6.81684e-05
4.70452e-07
6.81136e-05
1.26919e-06
6.80279e-05
1.95942e-06
6.79113e-05
2.67647e-06
6.77598e-05
3.46788e-06
6.7569e-05
4.38793e-06
6.73343e-05
5.39966e-06
6.70388e-05
6.77153e-06
6.66752e-05
8.44507e-06
6.61852e-05
1.05386e-05
6.56163e-05
1.32195e-05
6.49012e-05
1.63286e-05
6.40038e-05
2.0242e-05
6.28815e-05
2.63567e-05
6.13901e-05
3.4111e-05
5.9444e-05
4.74936e-05
5.66813e-05
6.6317e-05
5.29199e-05
0.000100548
4.72976e-05
0.000145679
3.82508e-05
0.000243601
2.4661e-05
0.00031631
0.000492711
6.81684e-05
4.90904e-07
6.81136e-05
1.3242e-06
6.80279e-05
2.04461e-06
6.79113e-05
2.79273e-06
6.77599e-05
3.61843e-06
6.75691e-05
4.57846e-06
6.73345e-05
5.6341e-06
6.70389e-05
7.06632e-06
6.66759e-05
8.80897e-06
6.61802e-05
1.1034e-05
6.56158e-05
1.37839e-05
6.49008e-05
1.70437e-05
6.40042e-05
2.11402e-05
6.28822e-05
2.7477e-05
6.13922e-05
3.56004e-05
5.94477e-05
4.94378e-05
5.66914e-05
6.90733e-05
5.29617e-05
0.000104278
4.74003e-05
0.000151241
3.8541e-05
0.00025246
2.50621e-05
0.000329789
0.000517773
6.81684e-05
5.11349e-07
6.81136e-05
1.37923e-06
6.80279e-05
2.12984e-06
6.79114e-05
2.90903e-06
6.77599e-05
3.76899e-06
6.75691e-05
4.76912e-06
6.73346e-05
5.86835e-06
6.7039e-05
7.361e-06
6.66764e-05
9.17261e-06
6.61774e-05
1.15327e-05
6.5615e-05
1.43463e-05
6.49007e-05
1.7758e-05
6.40046e-05
2.20344e-05
6.28831e-05
2.86004e-05
6.13949e-05
3.70892e-05
5.94529e-05
5.138e-05
5.67037e-05
7.18226e-05
5.30056e-05
0.000107976
4.75043e-05
0.000156742
3.88356e-05
0.000261129
2.54741e-05
0.000343151
0.000543247
6.81684e-05
5.31793e-07
6.81136e-05
1.43421e-06
6.80279e-05
2.21504e-06
6.79114e-05
3.02526e-06
6.776e-05
3.9195e-06
6.75692e-05
4.95959e-06
6.73347e-05
6.10274e-06
6.70393e-05
7.65553e-06
6.66751e-05
9.53777e-06
6.61763e-05
1.20312e-05
6.56144e-05
1.49082e-05
6.49007e-05
1.84718e-05
6.40052e-05
2.29314e-05
6.28844e-05
2.97196e-05
6.13982e-05
3.85748e-05
5.94598e-05
5.33182e-05
5.67182e-05
7.45641e-05
5.30516e-05
0.000111642
4.76103e-05
0.000162183
3.91367e-05
0.000269603
2.58987e-05
0.000356389
0.000569146
6.81684e-05
5.52231e-07
6.81136e-05
1.48921e-06
6.80279e-05
2.30027e-06
6.79114e-05
3.14154e-06
6.776e-05
4.07003e-06
6.75693e-05
5.15017e-06
6.73347e-05
6.33701e-06
6.70398e-05
7.94963e-06
6.66696e-05
9.9089e-06
6.61786e-05
1.25219e-05
6.5614e-05
1.54728e-05
6.4901e-05
1.91847e-05
6.40059e-05
2.38247e-05
6.2886e-05
3.08415e-05
6.14024e-05
4.00589e-05
5.94684e-05
5.52525e-05
5.67351e-05
7.72974e-05
5.30997e-05
0.000115278
4.77186e-05
0.000167565
3.94464e-05
0.000277875
2.63372e-05
0.000369498
0.000595483
6.81684e-05
5.72669e-07
6.81136e-05
1.54415e-06
6.80279e-05
2.38548e-06
6.79114e-05
3.25774e-06
6.77601e-05
4.22052e-06
6.75694e-05
5.34053e-06
6.73347e-05
6.5715e-06
6.70404e-05
8.24319e-06
6.66612e-05
1.0289e-05
6.61826e-05
1.30004e-05
6.56137e-05
1.60417e-05
6.49013e-05
1.98973e-05
6.40068e-05
2.47205e-05
6.28879e-05
3.19588e-05
6.14074e-05
4.15388e-05
5.94787e-05
5.71809e-05
5.67545e-05
8.00215e-05
5.31499e-05
0.000118882
4.78294e-05
0.000172885
3.97665e-05
0.000285937
2.67912e-05
0.000382473
0.000622274
6.81684e-05
5.93099e-07
6.81136e-05
1.59913e-06
6.80279e-05
2.47073e-06
6.79114e-05
3.374e-06
6.776e-05
4.37104e-06
6.75695e-05
5.53099e-06
6.73347e-05
6.80592e-06
6.7041e-05
8.53607e-06
6.66543e-05
1.06766e-05
6.61855e-05
1.34691e-05
6.56137e-05
1.66135e-05
6.49017e-05
2.06093e-05
6.40077e-05
2.56129e-05
6.28902e-05
3.30782e-05
6.14131e-05
4.30164e-05
5.94906e-05
5.91036e-05
5.67763e-05
8.27359e-05
5.32022e-05
0.000122457
4.79427e-05
0.000178145
4.00984e-05
0.000293782
2.72622e-05
0.00039531
0.000649537
6.81684e-05
6.1353e-07
6.81136e-05
1.65404e-06
6.80279e-05
2.55594e-06
6.79115e-05
3.49017e-06
6.77601e-05
4.5215e-06
6.75696e-05
5.72123e-06
6.73348e-05
7.04055e-06
6.70416e-05
8.82846e-06
6.66496e-05
1.10695e-05
6.6187e-05
1.39316e-05
6.56139e-05
1.71867e-05
6.49022e-05
2.13211e-05
6.40088e-05
2.65076e-05
6.28928e-05
3.41927e-05
6.14196e-05
4.4489e-05
5.95041e-05
6.10189e-05
5.68006e-05
8.54393e-05
5.32568e-05
0.000126
4.80586e-05
0.000183343
4.0443e-05
0.000301397
2.77514e-05
0.000408001
0.000677288
6.81684e-05
6.33953e-07
6.81136e-05
1.70898e-06
6.8028e-05
2.6412e-06
6.79115e-05
3.6064e-06
6.77601e-05
4.67199e-06
6.75697e-05
5.91159e-06
6.73349e-05
7.27505e-06
6.70421e-05
9.12036e-06
6.66465e-05
1.14659e-05
6.61879e-05
1.43901e-05
6.56141e-05
1.77605e-05
6.49027e-05
2.20325e-05
6.401e-05
2.73987e-05
6.28957e-05
3.53088e-05
6.14268e-05
4.59586e-05
5.95189e-05
6.29271e-05
5.68273e-05
8.81309e-05
5.33136e-05
0.000129514
4.81767e-05
0.00018848
4.08007e-05
0.000308773
2.82597e-05
0.000420542
0.000705548
6.81684e-05
6.54376e-07
6.81136e-05
1.76386e-06
6.8028e-05
2.72642e-06
6.79115e-05
3.72253e-06
6.77602e-05
4.82242e-06
6.75698e-05
6.10172e-06
6.7335e-05
7.50969e-06
6.70425e-05
9.41203e-06
6.66446e-05
1.18647e-05
6.61885e-05
1.48461e-05
6.56145e-05
1.83345e-05
6.49033e-05
2.27437e-05
6.40114e-05
2.8292e-05
6.2899e-05
3.64196e-05
6.14345e-05
4.74224e-05
5.9535e-05
6.48263e-05
5.68564e-05
9.08094e-05
5.33729e-05
0.000132998
4.82971e-05
0.000193556
4.11714e-05
0.000315899
2.87877e-05
0.000432926
0.000734335
6.81684e-05
6.74791e-07
6.81136e-05
1.81877e-06
6.8028e-05
2.81167e-06
6.79115e-05
3.83874e-06
6.77602e-05
4.97287e-06
6.75698e-05
6.29201e-06
6.73351e-05
7.7441e-06
6.70428e-05
9.70351e-06
6.66434e-05
1.22649e-05
6.6189e-05
1.53004e-05
6.56149e-05
1.89086e-05
6.4904e-05
2.34545e-05
6.40128e-05
2.91818e-05
6.29025e-05
3.75318e-05
6.14428e-05
4.88827e-05
5.95524e-05
6.6717e-05
5.6888e-05
9.34738e-05
5.34347e-05
0.000136451
4.84196e-05
0.000198571
4.15549e-05
0.000322764
2.93359e-05
0.000445145
0.000763671
6.81684e-05
6.95208e-07
6.81136e-05
1.87362e-06
6.8028e-05
2.8969e-06
6.79116e-05
3.95484e-06
6.77603e-05
5.12326e-06
6.757e-05
6.48208e-06
6.73353e-05
7.97856e-06
6.70431e-05
9.99503e-06
6.66426e-05
1.26661e-05
6.61895e-05
1.57535e-05
6.56154e-05
1.94827e-05
6.49048e-05
2.41653e-05
6.40143e-05
3.00735e-05
6.29062e-05
3.86382e-05
6.14516e-05
5.03367e-05
5.95709e-05
6.85974e-05
5.69221e-05
9.61226e-05
5.34992e-05
0.000139874
4.85445e-05
0.000203525
4.19507e-05
0.000329357
2.99043e-05
0.000457191
0.000793576
6.81684e-05
7.15616e-07
6.81137e-05
1.92851e-06
6.8028e-05
2.98216e-06
6.79116e-05
4.07101e-06
6.77603e-05
5.27366e-06
6.757e-05
6.67233e-06
6.73355e-05
8.21269e-06
6.70431e-05
1.02867e-05
6.66421e-05
1.30678e-05
6.61901e-05
1.62055e-05
6.5616e-05
2.00568e-05
6.49055e-05
2.48757e-05
6.40159e-05
3.09617e-05
6.29102e-05
3.9746e-05
6.14609e-05
5.17866e-05
5.95905e-05
7.0468e-05
5.69586e-05
9.87547e-05
5.35666e-05
0.000143266
4.86719e-05
0.00020842
4.23587e-05
0.000335671
3.04931e-05
0.000469057
0.000824069
6.81684e-05
7.36026e-07
6.81137e-05
1.98332e-06
6.8028e-05
3.06737e-06
6.79117e-05
4.18708e-06
6.77605e-05
5.42398e-06
6.75701e-05
6.86238e-06
6.73359e-05
8.44677e-06
6.70429e-05
1.05789e-05
6.66418e-05
1.34696e-05
6.61907e-05
1.66565e-05
6.56166e-05
2.06309e-05
6.49063e-05
2.55861e-05
6.40176e-05
3.18517e-05
6.29143e-05
4.08476e-05
6.14705e-05
5.32297e-05
5.96112e-05
7.2327e-05
5.69974e-05
0.000101368
5.36371e-05
0.000146626
4.88023e-05
0.000213255
4.27785e-05
0.000341694
3.11025e-05
0.000480733
0.000855171
6.81684e-05
7.56428e-07
6.81137e-05
2.03818e-06
6.80281e-05
3.15263e-06
6.79117e-05
4.30322e-06
6.77605e-05
5.57429e-06
6.75701e-05
7.05268e-06
6.73363e-05
8.68028e-06
6.70391e-05
1.08753e-05
6.66435e-05
1.38655e-05
6.61913e-05
1.71087e-05
6.56173e-05
2.1205e-05
6.49072e-05
2.62962e-05
6.40193e-05
3.27381e-05
6.29186e-05
4.19504e-05
6.14806e-05
5.46684e-05
5.96329e-05
7.41749e-05
5.70387e-05
0.000103963
5.37109e-05
0.000149954
4.89361e-05
0.00021803
4.32105e-05
0.00034742
3.17327e-05
0.000492211
0.000886904
6.81684e-05
7.7683e-07
6.81137e-05
2.09296e-06
6.80281e-05
3.23784e-06
6.79117e-05
4.41927e-06
6.77607e-05
5.72448e-06
6.75701e-05
7.24293e-06
6.73372e-05
8.913e-06
6.70254e-05
1.11864e-05
6.66497e-05
1.42413e-05
6.6192e-05
1.75664e-05
6.5618e-05
2.1779e-05
6.4908e-05
2.70062e-05
6.40211e-05
3.36263e-05
6.29231e-05
4.30466e-05
6.14909e-05
5.60999e-05
5.96556e-05
7.60099e-05
5.70822e-05
0.000106536
5.37883e-05
0.000153248
4.90738e-05
0.000222744
4.36551e-05
0.000352839
3.23845e-05
0.000503481
0.000919288
6.81684e-05
7.97224e-07
6.81137e-05
2.14779e-06
6.80281e-05
3.32308e-06
6.79117e-05
4.53541e-06
6.77607e-05
5.87466e-06
6.757e-05
7.43354e-06
6.73379e-05
9.14478e-06
6.70173e-05
1.15063e-05
6.66529e-05
1.46058e-05
6.61926e-05
1.80267e-05
6.56187e-05
2.23529e-05
6.49089e-05
2.7716e-05
6.4023e-05
3.45107e-05
6.29277e-05
4.4144e-05
6.15017e-05
5.75266e-05
5.96791e-05
7.78328e-05
5.71278e-05
0.000109087
5.38695e-05
0.000156506
4.92156e-05
0.000227398
4.41126e-05
0.000357942
3.30584e-05
0.000514535
0.000952347
6.81684e-05
8.1762e-07
6.81137e-05
2.20254e-06
6.80281e-05
3.40828e-06
6.79118e-05
4.65142e-06
6.77608e-05
6.02474e-06
6.75702e-05
7.6239e-06
6.73383e-05
9.37653e-06
6.70146e-05
1.18293e-05
6.66533e-05
1.49672e-05
6.61932e-05
1.84869e-05
6.56194e-05
2.29267e-05
6.49098e-05
2.84257e-05
6.40249e-05
3.5397e-05
6.29324e-05
4.52346e-05
6.15127e-05
5.89456e-05
5.97035e-05
7.96416e-05
5.71755e-05
0.000111615
5.39548e-05
0.000159727
4.93617e-05
0.000231991
4.45831e-05
0.00036272
3.37548e-05
0.000525364
0.000986102
6.81684e-05
8.38009e-07
6.81137e-05
2.25734e-06
6.80281e-05
3.49351e-06
6.79118e-05
4.7675e-06
6.77608e-05
6.17488e-06
6.75704e-05
7.81421e-06
6.73364e-05
9.61024e-06
6.70135e-05
1.21517e-05
6.66533e-05
1.53273e-05
6.61938e-05
1.89464e-05
6.56201e-05
2.35004e-05
6.49107e-05
2.9135e-05
6.40268e-05
3.62792e-05
6.29372e-05
4.63265e-05
6.1524e-05
6.03597e-05
5.97286e-05
8.14374e-05
5.72251e-05
0.000114119
5.40446e-05
0.000162907
4.95119e-05
0.000236524
4.5065e-05
0.000367167
3.44733e-05
0.000535955
0.00102057
6.81684e-05
8.58401e-07
6.81137e-05
2.31206e-06
6.80281e-05
3.57871e-06
6.79119e-05
4.88338e-06
6.77606e-05
6.32531e-06
6.75718e-05
8.00273e-06
6.73218e-05
9.8601e-06
6.70152e-05
1.24582e-05
6.66532e-05
1.56893e-05
6.61943e-05
1.94053e-05
6.56207e-05
2.4074e-05
6.49116e-05
2.98443e-05
6.40287e-05
3.71635e-05
6.29421e-05
4.7411e-05
6.15355e-05
6.17655e-05
5.97543e-05
8.32181e-05
5.72763e-05
0.000116597
5.41393e-05
0.000166044
4.96656e-05
0.000240997
4.55541e-05
0.000371279
3.52106e-05
0.000546299
0.00105579
6.81684e-05
8.78783e-07
6.81137e-05
2.36682e-06
6.80281e-05
3.66398e-06
6.7912e-05
4.99928e-06
6.77604e-05
6.4761e-06
6.75729e-05
8.19015e-06
6.73119e-05
1.01208e-05
6.70162e-05
1.27538e-05
6.66531e-05
1.60525e-05
6.61947e-05
1.98637e-05
6.56213e-05
2.46473e-05
6.49124e-05
3.05531e-05
6.40306e-05
3.80436e-05
6.2947e-05
4.8497e-05
6.15472e-05
6.31661e-05
5.97806e-05
8.49851e-05
5.73289e-05
0.000119049
5.42391e-05
0.000169134
4.98227e-05
0.000245414
4.60407e-05
0.000375061
3.59592e-05
0.00055638
0.00109174
6.81683e-05
8.9911e-07
6.81137e-05
2.42144e-06
6.80281e-05
3.74916e-06
6.79121e-05
5.11495e-06
6.77605e-05
6.62674e-06
6.75735e-05
8.37689e-06
6.73092e-05
1.03848e-05
6.70159e-05
1.30471e-05
6.6653e-05
1.64154e-05
6.6195e-05
2.03216e-05
6.56219e-05
2.52204e-05
6.49132e-05
3.12619e-05
6.40325e-05
3.89258e-05
6.29519e-05
4.95755e-05
6.15591e-05
6.45581e-05
5.98074e-05
8.67364e-05
5.73825e-05
0.000121474
5.43451e-05
0.000172172
4.99822e-05
0.000249777
4.65219e-05
0.000378521
3.67984e-05
0.000566104
0.00112854
7.9506e-07
-7.951e-07
-1.44215e-06
2.2372e-06
-2.3281e-06
8.85941e-07
-2.43071e-06
1.02615e-07
-2.02436e-06
-4.06368e-07
-1.49155e-06
-5.32878e-07
-1.23019e-06
-2.61457e-07
-1.17048e-06
-5.99021e-08
-1.22779e-06
5.64768e-08
-1.33888e-06
1.09937e-07
-1.55955e-06
2.03174e-07
-1.52144e-06
-2.26636e-08
-1.11235e-06
-4.05941e-07
-4.10739e-07
-6.97396e-07
3.65795e-07
-7.76415e-07
1.30952e-06
-9.4792e-07
2.7502e-06
-1.44476e-06
5.01269e-06
-2.26257e-06
7.97842e-06
-2.96379e-06
1.12952e-05
-3.31446e-06
1.47137e-05
-3.41235e-06
1.80981e-05
-3.38831e-06
2.13824e-05
-3.28583e-06
2.4553e-05
-3.16934e-06
2.76092e-05
-3.0542e-06
3.05625e-05
-2.95398e-06
3.34372e-05
-2.87592e-06
3.62381e-05
-2.80146e-06
3.89874e-05
-2.7525e-06
4.17856e-05
-2.79522e-06
4.4254e-05
-2.46446e-06
4.60391e-05
-1.78771e-06
5.36666e-05
-7.63289e-06
6.43562e-05
-1.06868e-05
-3.55197e-06
8.21772e-07
-1.61695e-06
-1.41387e-06
4.47283e-06
-2.28672e-06
1.75878e-06
-2.39581e-06
2.11716e-07
-1.98316e-06
-8.19041e-07
-1.46362e-06
-1.05257e-06
-1.19982e-06
-5.25424e-07
-1.14353e-06
-1.16572e-07
-1.19394e-06
1.05286e-07
-1.30412e-06
2.17783e-07
-1.53474e-06
4.05125e-07
-1.52711e-06
-5.46951e-09
-1.14506e-06
-7.81831e-07
-4.15803e-07
-1.41813e-06
4.26123e-07
-1.61798e-06
1.39122e-06
-1.92154e-06
2.77422e-06
-2.8361e-06
4.95913e-06
-4.44764e-06
7.89546e-06
-5.89599e-06
1.12511e-05
-6.66553e-06
1.47204e-05
-6.86988e-06
1.81172e-05
-6.79249e-06
2.13911e-05
-6.56284e-06
2.45453e-05
-6.32119e-06
2.75909e-05
-6.09598e-06
3.05406e-05
-5.90493e-06
3.3416e-05
-5.75366e-06
3.62195e-05
-5.60609e-06
3.89673e-05
-5.50627e-06
4.17604e-05
-5.5826e-06
4.42509e-05
-4.9478e-06
4.60039e-05
-3.54557e-06
5.34296e-05
-1.50685e-05
6.41437e-05
-2.13955e-05
-7.29435e-06
8.48945e-07
-2.46596e-06
-1.37977e-06
6.70153e-06
-2.24115e-06
2.62013e-06
-2.33865e-06
3.09223e-07
-1.92589e-06
-1.23182e-06
-1.4126e-06
-1.566e-06
-1.15318e-06
-7.84996e-07
-1.09616e-06
-1.73925e-07
-1.14275e-06
1.50461e-07
-1.25711e-06
3.30148e-07
-1.50973e-06
6.28135e-07
-1.53782e-06
4.92025e-08
-1.16638e-06
-1.14708e-06
-3.82929e-07
-2.19322e-06
5.26428e-07
-2.52715e-06
1.48806e-06
-2.89215e-06
2.79298e-06
-4.14972e-06
4.90484e-06
-6.55969e-06
7.83434e-06
-8.82161e-06
1.12407e-05
-1.00673e-05
1.47637e-05
-1.03807e-05
1.81756e-05
-1.0212e-05
2.14367e-05
-9.82683e-06
2.45748e-05
-9.45687e-06
2.76092e-05
-9.12646e-06
3.05526e-05
-8.84972e-06
3.34258e-05
-8.62921e-06
3.62301e-05
-8.41147e-06
3.89752e-05
-8.25756e-06
4.17608e-05
-8.36244e-06
4.42698e-05
-7.44947e-06
4.59947e-05
-5.27533e-06
5.32211e-05
-2.23049e-05
6.39444e-05
-3.21133e-05
-1.12139e-05
8.79681e-07
-3.34572e-06
-1.34234e-06
8.92354e-06
-2.18631e-06
3.46408e-06
-2.26422e-06
3.87144e-07
-1.84851e-06
-1.64756e-06
-1.34312e-06
-2.07154e-06
-1.09027e-06
-1.03801e-06
-1.03345e-06
-2.31124e-07
-1.07745e-06
1.92939e-07
-1.19829e-06
4.48676e-07
-1.47422e-06
8.77962e-07
-1.53717e-06
1.3507e-07
-1.17087e-06
-1.50627e-06
-3.26523e-07
-3.0275e-06
6.53203e-07
-3.50646e-06
1.60844e-06
-3.85858e-06
2.82755e-06
-5.38005e-06
4.86159e-06
-8.59396e-06
7.79011e-06
-1.17448e-05
1.12595e-05
-1.3531e-05
1.48449e-05
-1.39525e-05
1.82759e-05
-1.36517e-05
2.15252e-05
-1.30795e-05
2.46457e-05
-1.25748e-05
2.76665e-05
-1.2143e-05
3.06009e-05
-1.17856e-05
3.34692e-05
-1.15e-05
3.62723e-05
-1.12159e-05
3.90134e-05
-1.1005e-05
4.17886e-05
-1.11314e-05
4.43111e-05
-9.96441e-06
4.60113e-05
-6.98077e-06
5.30402e-05
-2.93439e-05
6.37562e-05
-4.28236e-05
-1.52991e-05
9.13955e-07
-4.25974e-06
-1.30153e-06
1.1139e-05
-2.12155e-06
4.28407e-06
-2.1726e-06
4.38205e-07
-1.75185e-06
-2.06833e-06
-1.25639e-06
-2.56714e-06
-1.01231e-06
-1.28222e-06
-9.56239e-07
-2.87495e-07
-9.98523e-07
2.3393e-07
-1.12644e-06
5.74756e-07
-1.42531e-06
1.15203e-06
-1.52255e-06
2.55169e-07
-1.15718e-06
-1.86466e-06
-2.45244e-07
-3.92994e-06
8.10682e-07
-4.56225e-06
1.76043e-06
-4.81987e-06
2.88624e-06
-6.51753e-06
4.83441e-06
-1.05424e-05
7.76662e-06
-1.46717e-05
1.13133e-05
-1.70717e-05
1.49722e-05
-1.75965e-05
1.84269e-05
-1.71159e-05
2.16647e-05
-1.63206e-05
2.47655e-05
-1.56728e-05
2.77692e-05
-1.51424e-05
3.06908e-05
-1.47088e-05
3.35508e-05
-1.43627e-05
3.63504e-05
-1.40167e-05
3.90852e-05
-1.37466e-05
4.18465e-05
-1.3886e-05
4.43771e-05
-1.24872e-05
4.60552e-05
-8.6643e-06
5.28861e-05
-3.61851e-05
6.35781e-05
-5.35098e-05
-1.95395e-05
9.51672e-07
-5.21148e-06
-1.25719e-06
1.33479e-05
-2.04593e-06
5.07278e-06
-2.06337e-06
4.55663e-07
-1.63603e-06
-2.4957e-06
-1.15286e-06
-3.05046e-06
-9.1955e-07
-1.5157e-06
-8.64488e-07
-3.42942e-07
-9.0562e-07
2.73568e-07
-1.04012e-06
7.06888e-07
-1.36025e-06
1.44987e-06
-1.49105e-06
4.05683e-07
-1.12424e-06
-2.22327e-06
-1.40599e-07
-4.90179e-06
9.98071e-07
-5.70049e-06
1.94846e-06
-5.78449e-06
2.97878e-06
-7.563e-06
4.83387e-06
-1.23978e-05
7.77398e-06
-1.76041e-05
1.14143e-05
-2.0704e-05
1.51602e-05
-2.13245e-05
1.86436e-05
-2.06108e-05
2.18688e-05
-1.95501e-05
2.49453e-05
-1.8746e-05
2.79268e-05
-1.81189e-05
3.08308e-05
-1.76146e-05
3.36783e-05
-1.72134e-05
3.64711e-05
-1.68111e-05
3.91966e-05
-1.64796e-05
4.19391e-05
-1.6621e-05
4.44712e-05
-1.50108e-05
4.61289e-05
-1.03281e-05
5.27592e-05
-4.28264e-05
6.34092e-05
-6.41534e-05
-2.39257e-05
9.92602e-07
-6.20415e-06
-1.20905e-06
1.55495e-05
-1.95808e-06
5.82178e-06
-1.93522e-06
4.32811e-07
-1.50033e-06
-2.93062e-06
-1.03199e-06
-3.51894e-06
-8.11307e-07
-1.7365e-06
-7.57224e-07
-3.97336e-07
-7.97369e-07
3.12475e-07
-9.3723e-07
8.4489e-07
-1.27601e-06
1.76851e-06
-1.43966e-06
5.8819e-07
-1.07126e-06
-2.58381e-06
-1.47269e-08
-5.94732e-06
1.21307e-06
-6.92821e-06
2.17498e-06
-6.76035e-06
3.1156e-06
-8.51823e-06
4.87575e-06
-1.41584e-05
7.82927e-06
-2.05503e-05
1.15819e-05
-2.44479e-05
1.54325e-05
-2.51544e-05
1.89509e-05
-2.41429e-05
2.21596e-05
-2.27633e-05
2.52035e-05
-2.17859e-05
2.81542e-05
-2.10641e-05
3.10332e-05
-2.04956e-05
3.38628e-05
-2.00462e-05
3.66445e-05
-1.95944e-05
3.93561e-05
-1.91995e-05
4.20732e-05
-1.93298e-05
4.45983e-05
-1.75268e-05
4.62363e-05
-1.19724e-05
5.2661e-05
-4.92628e-05
6.32492e-05
-7.47348e-05
-2.84487e-05
1.03633e-06
-7.24056e-06
-1.15668e-06
1.77425e-05
-1.85631e-06
6.52137e-06
-1.78626e-06
3.6277e-07
-1.34353e-06
-3.37337e-06
-8.92555e-07
-3.97008e-06
-6.86157e-07
-1.94307e-06
-6.32729e-07
-4.51183e-07
-6.71508e-07
3.4971e-07
-8.14801e-07
9.8561e-07
-1.16883e-06
2.10352e-06
-1.36482e-06
8.00836e-07
-9.96413e-07
-2.94263e-06
1.32711e-07
-7.06217e-06
1.45636e-06
-8.25143e-06
2.44389e-06
-7.76527e-06
3.30815e-06
-9.40145e-06
4.9799e-06
-1.58306e-05
7.95699e-06
-2.35163e-05
1.18458e-05
-2.83249e-05
1.58261e-05
-2.91088e-05
1.93893e-05
-2.77233e-05
2.25737e-05
-2.59539e-05