/*--------------------------------*- C++ -*----------------------------------*\
| =========                 |                                                 |
| \\      /  F ield         | OpenFOAM: The Open Source CFD Toolbox           |
|  \\    /   O peration     | Version:  v1912                                 |
|   \\  /    A nd           | Website:  www.openfoam.com                      |
|    \\/     M anipulation  |                                                 |
\*---------------------------------------------------------------------------*/
FoamFile
{
    version     2.0;
    format      ascii;
    class       volScalarField;
    location    "550";
    object      yPlus;
}
// * * * * * * * * * * * * * * * * * * * * * * * * * * * * * * * * * * * * * //

dimensions      [0 0 0 0 0 0 0];


internalField   uniform 0;

boundaryField
{
    inlet
    {
        type            calculated;
        value           uniform 0;
    }
    outlet
    {
        type            calculated;
        value           uniform 0;
    }
    lowerSymmetry
    {
        type            symmetryPlane;
    }
    obstical
    {
        type            calculated;
        value           nonuniform List<scalar> 
88
(
477.348
479.564
483.96
490.519
499.178
509.85
522.446
536.881
553.07
570.934
590.4
611.395
633.841
657.649
682.725
708.976
736.309
764.644
793.908
824.041
854.991
886.722
919.203
952.416
986.349
1021
1056.37
1092.48
1129.33
1166.94
1205.33
1244.53
1284.55
1325.42
1367.16
1409.79
1453.33
1497.79
1543.22
1589.62
1637.02
1685.49
1735.43
1790.77
93.7168
94.4275
95.3303
96.4466
97.7859
99.3484
101.121
103.074
105.16
107.31
109.436
111.433
113.181
114.55
115.412
115.645
115.146
113.846
111.712
108.762
105.055
100.702
95.8531
90.71
85.5247
80.6097
76.342
73.1491
71.4592
71.6077
73.7401
77.781
83.4956
90.5944
98.8193
107.993
118.037
129.069
141.356
155.261
171.177
189.418
210.276
234.583
)
;
    }
    obsticalTop
    {
        type            calculated;
        value           nonuniform List<scalar> 
20
(
53.4196
38.856
47.1866
53.2585
56.0909
57.7148
58.3079
57.9881
57.0261
55.5524
53.5406
50.878
47.4669
43.1152
37.7921
30.8589
24.4267
14.8828
13.3614
11.305
)
;
    }
    top
    {
        type            calculated;
        value           uniform 0;
    }
    defaultFaces
    {
        type            empty;
    }
}


// ************************************************************************* //
