/*--------------------------------*- C++ -*----------------------------------*\
| =========                 |                                                 |
| \\      /  F ield         | OpenFOAM: The Open Source CFD Toolbox           |
|  \\    /   O peration     | Version:  v1912                                 |
|   \\  /    A nd           | Website:  www.openfoam.com                      |
|    \\/     M anipulation  |                                                 |
\*---------------------------------------------------------------------------*/
FoamFile
{
    version     2.0;
    format      ascii;
    class       volScalarField;
    location    "100";
    object      epsilon;
}
// * * * * * * * * * * * * * * * * * * * * * * * * * * * * * * * * * * * * * //

dimensions      [0 2 -3 0 0 0 0];


internalField   nonuniform List<scalar> 
60000
(
0.413058
0.231892
0.143706
0.0956237
0.0671235
0.049119
0.0371561
0.0288778
0.0229528
0.0185937
0.0153074
0.0127809
0.0108013
0.00922819
0.00795845
0.00692294
0.00606728
0.00535468
0.00475469
0.00424613
0.00381146
0.00343734
0.00311374
0.00283138
0.00258482
0.00236703
0.00217537
0.00200423
0.0018526
0.00171598
0.00159411
0.00148355
0.00138423
0.00129368
0.00121172
0.00113676
0.0010684
0.00100572
0.000948191
0.000895248
0.000846521
0.000801342
0.000759846
0.000720932
0.000685415
0.000651608
0.000621078
0.000591468
0.0005651
0.000538988
0.000516096
0.000492907
0.000472891
0.000452209
0.000434932
0.00041665
0.000400034
0.000375491
0.000350921
0.000348802
0.000699307
0.00267918
0.00623402
0.0104578
0.0142675
0.0166105
0.0171984
0.0173061
0.0171292
0.0160886
0.0147618
0.0133733
0.012037
0.0108059
0.00969877
0.00871793
0.00785607
0.00710295
0.00644663
0.00587588
0.00538099
0.00495158
0.00458191
0.00426331
0.00399024
0.00376303
0.00356538
0.00341331
0.00328817
0.003184
0.00315029
0.00316276
0.00317076
0.00321814
0.00328732
0.00338469
0.00359624
0.00379294
0.00409009
0.00468123
0.413147
0.231987
0.143773
0.0956715
0.0671598
0.0491463
0.0371768
0.0288934
0.022965
0.0186028
0.0153146
0.0127862
0.0108056
0.00923122
0.0079609
0.00692464
0.00606858
0.00535563
0.00475527
0.00424667
0.0038116
0.00343766
0.00311363
0.00283158
0.00258463
0.00236717
0.00217518
0.00200434
0.00185248
0.00171607
0.00159409
0.00148364
0.00138432
0.00129378
0.00121192
0.0011369
0.00106867
0.00100594
0.000948496
0.000895608
0.000846803
0.00080186
0.000760096
0.00072158
0.000685674
0.00065231
0.000621423
0.000592122
0.0005656
0.000539573
0.000516642
0.000493554
0.000473419
0.000452785
0.000435504
0.000417153
0.000400666
0.000376732
0.000351884
0.000346658
0.000570451
0.00226072
0.00587777
0.0103245
0.0143154
0.0167422
0.0173668
0.017453
0.0172235
0.0161488
0.014795
0.0133865
0.0120366
0.0107967
0.00968431
0.00870058
0.00783736
0.00708394
0.00642791
0.00585789
0.00536391
0.00493555
0.00456697
0.00424938
0.00397737
0.00375106
0.00355422
0.00340296
0.00327865
0.00317446
0.00314175
0.003149
0.00316261
0.00320333
0.0032788
0.00337474
0.00358536
0.00378664
0.00408006
0.00467743
0.413236
0.232074
0.143828
0.0957013
0.067172
0.0491485
0.0371734
0.0288866
0.0229568
0.0185936
0.0153056
0.012777
0.0107971
0.00922289
0.00795339
0.00691738
0.0060621
0.00534945
0.00474975
0.00424152
0.00380693
0.00343345
0.00310972
0.00282822
0.00258138
0.00236454
0.00217254
0.00200234
0.00185039
0.0017146
0.00159254
0.00148258
0.00138328
0.00129305
0.00121135
0.00113646
0.00106851
0.00100578
0.000948638
0.000895747
0.000847159
0.000802302
0.000760609
0.0007223
0.000686301
0.000653313
0.00062206
0.000593483
0.000566128
0.000541284
0.000517124
0.000495428
0.000473905
0.000454881
0.000435768
0.000419279
0.000401166
0.000381201
0.000354233
0.000346219
0.000446854
0.00161351
0.00482258
0.00916709
0.0133149
0.0160581
0.016936
0.0171007
0.0169765
0.0160129
0.0147109
0.0133288
0.0119934
0.0107618
0.00965445
0.00867411
0.00781341
0.00706203
0.00640774
0.00583927
0.00534668
0.00491962
0.00455216
0.00423565
0.00396453
0.00373897
0.00354298
0.00339172
0.00326889
0.00316269
0.0031401
0.00312691
0.00315811
0.00318461
0.00326781
0.00336072
0.0035694
0.00377408
0.00406403
0.00466437
0.413324
0.232153
0.14387
0.0957136
0.0671686
0.0491365
0.0371574
0.028869
0.0229391
0.0185763
0.0152892
0.0127616
0.0107829
0.00920967
0.00794133
0.00690622
0.00605202
0.00534013
0.00474142
0.0042338
0.00380014
0.00342713
0.00310425
0.00282314
0.00257704
0.00236057
0.00216916
0.00199937
0.00184784
0.00171249
0.00159071
0.00148124
0.0013821
0.00129237
0.00121074
0.00113632
0.00106843
0.00100609
0.000949062
0.000896394
0.000848072
0.000803193
0.000761965
0.000723402
0.000687995
0.000654658
0.000623943
0.000595135
0.000568036
0.000543292
0.000518971
0.000497653
0.000475836
0.000457067
0.000437632
0.000421503
0.000403358
0.00038414
0.00035662
0.000347054
0.000389704
0.00111179
0.00370158
0.00763626
0.0117791
0.0148082
0.0161827
0.0163941
0.0163807
0.0156778
0.0144767
0.0131623
0.0118703
0.010667
0.00957885
0.00861205
0.00776128
0.00701743
0.0063691
0.00580541
0.00531676
0.00489301
0.00452823
0.00421416
0.00394486
0.00372092
0.00352649
0.00337556
0.00325464
0.00314772
0.00312464
0.00310925
0.00315319
0.00316749
0.00325175
0.00334183
0.00354893
0.0037545
0.00404298
0.00464338
0.413411
0.232222
0.143894
0.0957069
0.0671453
0.0491056
0.037124
0.0288356
0.0229072
0.0185464
0.0152616
0.0127362
0.0107598
0.00918855
0.00792218
0.00688882
0.0060363
0.00532591
0.00472861
0.00422227
0.0037898
0.00341789
0.00309603
0.00281584
0.00257065
0.00235492
0.00216437
0.00199512
0.00184444
0.00170947
0.00158849
0.00147931
0.00138084
0.00129142
0.0012103
0.00113626
0.00106868
0.0010068
0.000949909
0.000897752
0.000849451
0.000805078
0.000763826
0.000725692
0.000690316
0.000657205
0.000626751
0.00059776
0.000571362
0.000545878
0.000522723
0.000500227
0.00047981
0.000459597
0.000441726
0.000423766
0.000407547
0.00038774
0.000363773
0.000344236
0.000359608
0.000776241
0.002686
0.00612988
0.0100826
0.0133127
0.0150364
0.0154501
0.0155118
0.0151242
0.014088
0.0128801
0.0116582
0.0105029
0.00944852
0.00850613
0.00767357
0.00694362
0.00630625
0.00575129
0.00526977
0.00485196
0.00449196
0.00418216
0.00391609
0.00369504
0.00350316
0.00335355
0.00323466
0.00312901
0.00310447
0.00308913
0.00313413
0.00315042
0.00323102
0.00331914
0.00352508
0.00373006
0.00401755
0.0046173
0.413497
0.232282
0.1439
0.0956786
0.0671006
0.0490549
0.0370726
0.0287864
0.0228613
0.0185042
0.0152233
0.0127014
0.0107284
0.0091602
0.00789674
0.00686586
0.00601579
0.00530742
0.00471219
0.00420753
0.0037768
0.00340631
0.00308589
0.00280696
0.00256294
0.00234834
0.00215873
0.00199049
0.0018406
0.0017065
0.00158621
0.00147772
0.00137995
0.00129104
0.00121062
0.00113691
0.00107002
0.00100834
0.000952106
0.000900075
0.000852334
0.000808121
0.000767223
0.000729408
0.000694065
0.000661533
0.000630751
0.000602574
0.000575587
0.00055101
0.000527142
0.000505551
0.000484295
0.000464983
0.000446148
0.000428928
0.000411766
0.000393943
0.000370419
0.000347818
0.000349734
0.000567139
0.00189574
0.00479756
0.00844234
0.0117244
0.0137705
0.0144067
0.0145351
0.0143957
0.0135751
0.012499
0.0113661
0.0102738
0.00926527
0.00835681
0.00755001
0.00683996
0.00621835
0.00567604
0.00520486
0.00479566
0.00444266
0.00413902
0.00387779
0.00366101
0.00347276
0.00332566
0.00320928
0.00310588
0.00308092
0.00306634
0.00310955
0.00312846
0.00320747
0.00329451
0.00349904
0.00370287
0.00398944
0.00458833
0.413583
0.232331
0.143887
0.0956281
0.0670337
0.0489834
0.0370026
0.0287206
0.0228008
0.0184493
0.0151737
0.0126568
0.0106884
0.00912437
0.00786468
0.00683724
0.00599026
0.00528472
0.00469207
0.00418973
0.00376118
0.00339261
0.00307406
0.00279671
0.0025543
0.00234104
0.0021528
0.00198572
0.00183696
0.00170384
0.00158454
0.00147702
0.00137996
0.00129195
0.00121205
0.00113919
0.00107269
0.00101175
0.000955877
0.000904404
0.000857074
0.000813171
0.000772805
0.000735024
0.000700352
0.000667598
0.000637593
0.000608996
0.000582832
0.000557716
0.000534613
0.000512503
0.000491765
0.000472107
0.000453377
0.00043601
0.000418417
0.000401976
0.00037826
0.000353992
0.000349575
0.000451691
0.00132661
0.00371252
0.00699626
0.01023
0.012462
0.0134357
0.0135789
0.0135576
0.0130027
0.0120531
0.0110164
0.00999575
0.00904077
0.00817288
0.00739737
0.00671178
0.00610974
0.00558323
0.00512503
0.00472666
0.0043826
0.00408673
0.00383176
0.00362048
0.00343681
0.0032934
0.00317994
0.0030796
0.00305532
0.00304248
0.00308258
0.00310283
0.00318268
0.00326962
0.00347278
0.00367516
0.00396085
0.00455869
0.413669
0.232367
0.143852
0.0955529
0.0669425
0.0488895
0.0369125
0.0286373
0.0227249
0.018381
0.0151124
0.0126022
0.0106396
0.00908106
0.00782617
0.00680315
0.00596007
0.00525817
0.00466871
0.00416941
0.00374349
0.00337749
0.00306111
0.00278595
0.00254537
0.00233397
0.00214728
0.00198167
0.00183434
0.00170262
0.00158447
0.00147802
0.00138202
0.00129489
0.00121592
0.00114379
0.00107807
0.00101778
0.000962483
0.000911659
0.000864673
0.000821461
0.000781208
0.000744151
0.000709414
0.000677362
0.000647207
0.000619206
0.000592921
0.000568183
0.00054513
0.000523082
0.000502647
0.000482677
0.000464573
0.000446539
0.000429983
0.000412604
0.000391549
0.00036803
0.000361748
0.000411834
0.000975475
0.00293618
0.00587504
0.0089766
0.0113077
0.012458
0.0127011
0.0127255
0.0124024
0.0115821
0.0106414
0.00969369
0.0087947
0.0079701
0.00722852
0.0065698
0.00598943
0.00548056
0.00503695
0.00465079
0.00431691
0.00402983
0.0037821
0.00357715
0.00339865
0.00325991
0.00314933
0.00305319
0.00302907
0.00302131
0.00305368
0.00307805
0.00315915
0.003247
0.00344863
0.0036494
0.00393431
0.00453083
0.413753
0.232389
0.143793
0.0954505
0.066825
0.0487716
0.0368012
0.0285353
0.0226329
0.0182987
0.0150392
0.0125372
0.0105822
0.00903027
0.0077814
0.00676382
0.00592563
0.00522819
0.00464273
0.00414714
0.00372453
0.0033616
0.00304804
0.00277545
0.00253724
0.00232782
0.0021433
0.00197968
0.00183408
0.00170388
0.00158719
0.0014821
0.0013873
0.00130135
0.00122336
0.00115223
0.00108735
0.00102785
0.000973303
0.00092307
0.000876759
0.000833983
0.000794299
0.000757613
0.000723302
0.00069166
0.000661788
0.000634365
0.000608296
0.000584551
0.000562126
0.00054175
0.000523358
0.000506314
0.000491606
0.00047761
0.000465605
0.000452909
0.000435689
0.000424298
0.00042075
0.000481649
0.000926342
0.0025593
0.00521421
0.00812727
0.0104263
0.0116778
0.0119838
0.0120303
0.0118458
0.0111368
0.01028
0.00939855
0.0085521
0.00776914
0.00706077
0.00642871
0.00587004
0.00537898
0.00495022
0.00457652
0.00425314
0.00397504
0.00373487
0.00353645
0.00336319
0.00322972
0.00312143
0.0030312
0.0030002
0.00301336
0.00302392
0.00306433
0.00313921
0.0032298
0.00342935
0.00362838
0.00391262
0.00450746
0.413836
0.232395
0.143707
0.0953181
0.0666788
0.0486276
0.036667
0.0284134
0.0225239
0.0182018
0.0149537
0.0124618
0.010516
0.00897212
0.0077308
0.00671966
0.00588764
0.00519544
0.00461506
0.00412379
0.00370536
0.00334615
0.003036
0.00276631
0.00253112
0.00232475
0.00214263
0.00198126
0.00183767
0.00170945
0.00159446
0.00149105
0.00139766
0.00131313
0.0012363
0.00116635
0.00110246
0.00104387
0.000990251
0.00094064
0.000895266
0.000852921
0.000814257
0.000778036
0.000745066
0.000714559
0.000687171
0.000663545
0.000642746
0.000627838
0.000619356
0.000618133
0.000629415
0.000645921
0.000659058
0.000700273
0.000711912
0.000763834
0.000784392
0.000766807
0.000799382
0.000865582
0.00129368
0.0027864
0.0051709
0.00781779
0.00994861
0.0111666
0.0114925
0.0115459
0.0114071
0.0107664
0.00997116
0.00914245
0.00833983
0.00759269
0.00691351
0.00630523
0.00576615
0.00529131
0.00487617
0.00451393
0.00420031
0.00393049
0.00369737
0.00350501
0.00333646
0.00320825
0.00310137
0.00301694
0.00298686
0.00300771
0.00301365
0.00306381
0.00312809
0.00322101
0.00341858
0.00361513
0.00389875
0.00449144
0.413918
0.232382
0.143591
0.0951522
0.066501
0.0484551
0.0365081
0.0282703
0.0223969
0.0180898
0.0148554
0.0123758
0.0104411
0.00890716
0.00767481
0.00667159
0.00584691
0.00516118
0.00458676
0.00410093
0.00368752
0.0033325
0.00302652
0.00276146
0.00252968
0.0023266
0.00214724
0.00198879
0.00184757
0.00172176
0.0016088
0.00150735
0.00141569
0.00133275
0.00125739
0.00118873
0.00112618
0.00106858
0.00101647
0.000967647
0.000924556
0.000883496
0.000849319
0.000818277
0.000795642
0.000781897
0.000782934
0.000813376
0.000846567
0.000917674
0.00102582
0.00116654
0.00133517
0.00150697
0.00167109
0.00180885
0.00191507
0.0019909
0.00209164
0.00208329
0.00219378
0.00221755
0.00248322
0.00361293
0.00570534
0.00805524
0.00992844
0.0109812
0.0112705
0.011306
0.011132
0.0105091
0.00974781
0.00895393
0.00818255
0.00746217
0.00680541
0.00621573
0.00569222
0.00523043
0.00482637
0.00447343
0.00416782
0.00390471
0.00367725
0.0034898
0.00332485
0.00320127
0.00309441
0.00301659
0.00299219
0.00301219
0.00301789
0.0030736
0.00313092
0.00322422
0.00341976
0.00361276
0.00389573
0.00448566
0.414
0.232346
0.143439
0.0949489
0.0662881
0.0482515
0.0363227
0.0281045
0.022251
0.017962
0.0147442
0.0122796
0.010358
0.00883623
0.00761424
0.00662105
0.00580472
0.00512707
0.00455995
0.00408066
0.00367271
0.00332447
0.0030237
0.0027631
0.00253537
0.00233633
0.00216045
0.00200533
0.00186711
0.00174391
0.00163372
0.00153413
0.00144522
0.00136351
0.00129105
0.00122344
0.00116412
0.00110879
0.00106099
0.00102011
0.000987217
0.000971105
0.000975864
0.00102726
0.00109655
0.00123404
0.00147067
0.00176876
0.00216712
0.00258812
0.00304877
0.00349396
0.00392552
0.00427458
0.00457867
0.00477629
0.00492699
0.00517574
0.00522225
0.00508095
0.00499293
0.00495212
0.00490098
0.00537929
0.00691523
0.00876649
0.0102951
0.0111145
0.0113289
0.011322
0.0110308
0.0103859
0.00963219
0.0088537
0.00809909
0.00739464
0.00675161
0.0061738
0.00566062
0.00520762
0.00481111
0.00446444
0.00416424
0.00390554
0.00368171
0.00349746
0.00333437
0.00321426
0.00310485
0.00304398
0.0030249
0.00303237
0.00303832
0.00309678
0.00315005
0.00324284
0.00343597
0.0036241
0.00390638
0.00449272
0.414083
0.232283
0.143246
0.0947031
0.0660359
0.0480136
0.0361082
0.0279143
0.0220854
0.0178177
0.0146205
0.0121732
0.0102679
0.00876023
0.00755125
0.00656964
0.00576357
0.00509647
0.00453696
0.00406638
0.00366672
0.00332465
0.00302971
0.00277468
0.00255207
0.0023576
0.00218608
0.0020348
0.00190041
0.00178059
0.00167403
0.00157764
0.00149285
0.00141476
0.00134884
0.0012872
0.00124423
0.00120429
0.00120654
0.00125251
0.00132424
0.00152322
0.0018235
0.00228705
0.00289276
0.0035853
0.00434308
0.00511457
0.00587332
0.00654888
0.0071877
0.00766334
0.00812327
0.00836021
0.0087746
0.00877798
0.00874318
0.00865809
0.0085148
0.00828361
0.00805679
0.00782713
0.00766759
0.00775909
0.00866062
0.00997453
0.0110313
0.0115148
0.0116217
0.011528
0.011083
0.0104019
0.00963355
0.00885216
0.00810016
0.00740058
0.0067623
0.00618939
0.00568066
0.00523145
0.00483816
0.00449403
0.00419597
0.00393882
0.00371634
0.00353328
0.00337007
0.00325161
0.00313894
0.0030864
0.00307032
0.00307365
0.00307765
0.00313699
0.00318784
0.00327981
0.00346991
0.00365185
0.00393334
0.00451514
0.414169
0.232185
0.143007
0.0944085
0.0657397
0.0477384
0.035862
0.0276989
0.0218991
0.0176574
0.0144849
0.012058
0.0101729
0.00868156
0.00748873
0.00652067
0.00572838
0.00507162
0.00452385
0.00406298
0.00367095
0.00333682
0.00304866
0.00280049
0.00258368
0.00239566
0.0022296
0.00208513
0.00195656
0.00184488
0.00174599
0.00166082
0.00159037
0.00153524
0.0015023
0.00151109
0.00159594
0.00171827
0.0020366
0.00253338
0.00327177
0.00420508
0.00523937
0.00633457
0.00738649
0.00840485
0.00927958
0.0100807
0.0107367
0.0112876
0.0117601
0.0120294
0.0123905
0.0124718
0.0125831
0.0124397
0.0121884
0.0118973
0.011581
0.0112266
0.0108825
0.0105305
0.0102737
0.0102172
0.010632
0.0114272
0.0120211
0.0122319
0.0121975
0.011881
0.0112826
0.0105411
0.00974222
0.00894479
0.00818437
0.00748021
0.00684064
0.00626694
0.00575749
0.00530741
0.00491316
0.00456783
0.0042685
0.0040099
0.0037857
0.00360132
0.00343553
0.00331642
0.00319987
0.00314949
0.00313476
0.00313633
0.00313847
0.0031988
0.00324599
0.00333745
0.00352368
0.00369817
0.00397887
0.00455571
0.414259
0.23204
0.142717
0.0940562
0.0653965
0.0474216
0.0355826
0.0274576
0.0216917
0.017483
0.0143386
0.0119373
0.0100759
0.00860405
0.00743134
0.00647835
0.00570182
0.00505682
0.00452165
0.00407016
0.00368883
0.00336355
0.00308554
0.00284722
0.00264179
0.00246683
0.00231512
0.00218994
0.00208069
0.00200305
0.00193497
0.00191686
0.00194343
0.00204752
0.00221969
0.0026307
0.00328695
0.00428785
0.00549791
0.00687304
0.00824716
0.0096037
0.0108134
0.0119197
0.0128478
0.013686
0.0143309
0.0148999
0.0152942
0.0156055
0.0158114
0.015904
0.0159761
0.0158499
0.0156378
0.0153522
0.0149918
0.0145924
0.0141719
0.013739
0.0133102
0.0128914
0.0125573
0.0124391
0.0125682
0.0129152
0.0131168
0.0131171
0.0128647
0.0123312
0.011616
0.0108026
0.00995938
0.00913429
0.00835577
0.00763895
0.00698976
0.00640823
0.00589202
0.00543589
0.0050362
0.00468576
0.00438169
0.00411868
0.00388995
0.00370197
0.00353148
0.00340961
0.0032883
0.0032366
0.00322135
0.00322141
0.00322175
0.00328501
0.00332578
0.00341775
0.00359862
0.00376463
0.00404452
0.00461601
0.414349
0.231838
0.142371
0.0936366
0.0650055
0.0470576
0.0352714
0.027189
0.0214659
0.017297
0.0141845
0.0118166
0.00997981
0.00853276
0.00738013
0.00644287
0.00568222
0.00505056
0.00453177
0.00409167
0.0037295
0.00342047
0.00316993
0.0029575
0.00279281
0.002659
0.00257149
0.00250986
0.00251728
0.00258753
0.00268036
0.00298856
0.00338954
0.00415934
0.0052857
0.00671326
0.00829648
0.00994586
0.0115167
0.0129869
0.0142745
0.01542
0.0163644
0.0171662
0.0177696
0.018281
0.018602
0.018853
0.0189693
0.0190188
0.0189669
0.0188151
0.0186094
0.0183172
0.0179565
0.0175485
0.0171011
0.0166352
0.0161669
0.0157022
0.0152471
0.014817
0.014473
0.0142764
0.0142631
0.014286
0.0142583
0.0140211
0.0135285
0.0128375
0.0120163
0.0111339
0.0102454
0.0093896
0.00858908
0.00785558
0.00719296
0.0066002
0.00607418
0.00560919
0.00520139
0.00484337
0.00453219
0.00426262
0.00402727
0.00383386
0.00365697
0.00353039
0.00340409
0.00334629
0.00332907
0.0033286
0.00332716
0.00339652
0.00342809
0.00352299
0.0036953
0.00385249
0.00413144
0.00469778
0.414428
0.231576
0.141961
0.0931426
0.0645662
0.0466412
0.0349332
0.0268913
0.0212288
0.0171004
0.0140285
0.0116965
0.00988277
0.00846427
0.00732167
0.00640741
0.00566931
0.00505919
0.00457182
0.00416728
0.00386229
0.00361727
0.0034655
0.00334789
0.00333993
0.00336329
0.00352592
0.00368475
0.00402624
0.00452902
0.00533953
0.00649087
0.00796072
0.00963569
0.0114011
0.0131476
0.0147859
0.0162859
0.0175911
0.0187162
0.0196233
0.0203596
0.0209049
0.0213125
0.0215495
0.0217385
0.0217285
0.0216756
0.0215313
0.0213227
0.0210632
0.0207334
0.0203595
0.0199376
0.0194797
0.0189987
0.0185068
0.0180192
0.0175487
0.0170985
0.0166706
0.0162809
0.0159757
0.0157768
0.01565
0.0155084
0.0152598
0.0148121
0.014154
0.01334
0.0124332
0.0114931
0.0105655
0.00968207
0.00886097
0.00811115
0.0074348
0.00683001
0.00629311
0.00581804
0.00540083
0.00503388
0.00471425
0.00443677
0.00419354
0.00399339
0.00380913
0.00367629
0.00354544
0.00347535
0.00345385
0.00345662
0.00345304
0.00352981
0.003554
0.00365634
0.00381347
0.00396325
0.00424036
0.00480264
0.414485
0.231259
0.141477
0.0925739
0.0640743
0.046173
0.0345709
0.0265649
0.0209857
0.0168874
0.0138681
0.0115572
0.00976807
0.00836494
0.00726427
0.00639489
0.00570072
0.00517489
0.00479231
0.00454514
0.00443016
0.00447597
0.00457175
0.00481081
0.0051542
0.00565782
0.00630963
0.00715665
0.00825388
0.00960943
0.0111855
0.0128887
0.0146333
0.016334
0.0179284
0.0193686
0.0206158
0.0216654
0.0225011
0.0231541
0.0236101
0.0239153
0.0240703
0.0241099
0.0240316
0.0238808
0.0236307
0.0233418
0.0229937
0.0226061
0.0221929
0.0217411
0.0212645
0.0207671
0.0202606
0.0197548
0.0192631
0.0187963
0.0183646
0.017969
0.0176089
0.0172953
0.0170509
0.0168653
0.0166852
0.016438
0.0160464
0.0154561
0.014684
0.0137856
0.0128201
0.0118403
0.0108856
0.00998274
0.00914666
0.00838432
0.00769685
0.00708173
0.00653499
0.00605042
0.00562405
0.00524817
0.00491992
0.0046342
0.00438282
0.00417539
0.00398356
0.0038437
0.00370967
0.00361106
0.00358028
0.00360465
0.00359689
0.00367852
0.0037039
0.00381919
0.00395344
0.0041001
0.0043716
0.00493218
0.414517
0.230899
0.140896
0.0919357
0.0635194
0.0456593
0.0341774
0.0262096
0.0207163
0.0166344
0.01366
0.0113508
0.00962918
0.00830205
0.00728916
0.00655391
0.00609384
0.00584203
0.00592118
0.00608269
0.00657332
0.00717142
0.0079928
0.00890899
0.00989642
0.0109736
0.012165
0.0134843
0.0149184
0.0164291
0.0179674
0.0194712
0.0208867
0.0221647
0.0232724
0.0241928
0.0249193
0.0254564
0.0258117
0.0260171
0.0260661
0.0260028
0.025823
0.0255602
0.0252252
0.0248494
0.0244148
0.0239601
0.0234779
0.0229787
0.0224727
0.0219535
0.0214289
0.0209061
0.0203973
0.0199086
0.019457
0.0190467
0.0186879
0.0183785
0.0181116
0.0178903
0.0177147
0.017557
0.0173612
0.0170594
0.0165852
0.0159125
0.0150762
0.0141324
0.0131379
0.0121401
0.0111743
0.0102638
0.00942157
0.00865341
0.0079599
0.00733835
0.00678478
0.00629304
0.00585929
0.00547587
0.00514012
0.00484694
0.00458824
0.00437386
0.0041751
0.00402895
0.00388905
0.00378391
0.00373592
0.0037666
0.00376044
0.00384984
0.00387601
0.00400729
0.00411697
0.00426268
0.0045298
0.00508818
0.414536
0.230497
0.140193
0.0912347
0.0628837
0.0450973
0.0337221
0.02579
0.0203471
0.0162724
0.0133595
0.011213
0.00960485
0.0085561
0.00787582
0.00775371
0.00803312
0.008499
0.0095159
0.0108367
0.0122789
0.0136654
0.0149262
0.0160566
0.0171048
0.0181351
0.0191934
0.0202985
0.0214368
0.0225734
0.0236648
0.0246659
0.0255425
0.0262703
0.0268311
0.0272268
0.0274671
0.0275503
0.0275035
0.0273448
0.0270644
0.0267173
0.0262976
0.0258332
0.0253254
0.0248044
0.024263
0.0237197
0.023171
0.0226232
0.0220825
0.0215475
0.0210234
0.0205181
0.0200439
0.0196022
0.0192172
0.0188801
0.0186088
0.0183945
0.0182305
0.0181028
0.0179946
0.0178739
0.0176937
0.0173767
0.0168677
0.0161622
0.0153048
0.0143518
0.0133576
0.0123646
0.0114056
0.0105014
0.00966402
0.00889874
0.00820621
0.0075839
0.00702816
0.00653309
0.0060952
0.00570691
0.00536603
0.00506725
0.0048032
0.00458315
0.00437908
0.0042282
0.00408231
0.0039754
0.00391602
0.00395054
0.00394354
0.00403976
0.0040684
0.00421268
0.00430592
0.00445154
0.00471814
0.00527621
0.414566
0.230025
0.13934
0.0904703
0.0621199
0.0444408
0.0331115
0.0251853
0.0197882
0.0159842
0.0132617
0.0115247
0.0104552
0.0104335
0.0109582
0.0118725
0.0137403
0.0159821
0.0181924
0.0200549
0.021452
0.0224331
0.0231071
0.0236193
0.0240841
0.0245734
0.0251192
0.025709
0.0263178
0.0269118
0.0274504
0.0279007
0.0282403
0.0284589
0.0285405
0.0285034
0.0283602
0.0280924
0.0277429
0.0273236
0.0268428
0.0263232
0.0257635
0.0251851
0.0245887
0.0239921
0.0233916
0.0228032
0.0222278
0.0216686
0.0211292
0.0206124
0.020122
0.0196662
0.0192574
0.0188906
0.0186062
0.0183653
0.0182184
0.0181099
0.0180365
0.0179865
0.0179283
0.017838
0.0177095
0.0174083
0.0169018
0.0162021
0.0153595
0.0144278
0.0134617
0.0124955
0.0115613
0.0106782
0.00985765
0.00910512
0.0084218
0.00780566
0.00725368
0.00676034
0.00632272
0.00593338
0.00559085
0.00528944
0.00502305
0.00479953
0.00459293
0.0044396
0.00428903
0.00418358
0.00412298
0.0041579
0.00414998
0.00425209
0.00428303
0.00443339
0.00452378
0.0046715
0.00494259
0.00550596
0.414646
0.229423
0.138339
0.0895855
0.0610995
0.0435589
0.0321342
0.0246222
0.0195516
0.0162784
0.0143791
0.0141343
0.0150158
0.0164386
0.0193727
0.0227982
0.0258727
0.0281196
0.0295326
0.0301662
0.0302028
0.0300293
0.0296722
0.0293427
0.0290999
0.028967
0.0289534
0.0289861
0.0290558
0.0291364
0.0291785
0.0291563
0.0290666
0.0288847
0.0286114
0.0282741
0.0278698
0.0273963
0.0268684
0.0262983
0.0256858
0.0250571
0.0244153
0.0237763
0.0231418
0.0225256
0.0219239
0.021345
0.0207903
0.0202622
0.019763
0.0192973
0.0188688
0.0184853
0.0181576
0.0178768
0.0177045
0.0175301
0.0175265
0.0175235
0.0175317
0.0175782
0.0175539
0.0175233
0.0174624
0.0172077
0.016731
0.0160648
0.0152615
0.0143716
0.0134485
0.0125256
0.0116334
0.0107858
0.00999407
0.00926447
0.00859916
0.00799681
0.00745532
0.00696965
0.00653765
0.006152
0.00581228
0.00551221
0.00524745
0.00502365
0.00481851
0.00466571
0.00451257
0.00441768
0.00436664
0.00439777
0.00438858
0.00449644
0.00452908
0.00467906
0.00478104
0.00493411
0.00521845
0.00579483
0.414789
0.22861
0.137166
0.0883312
0.0596027
0.0425195
0.0315887
0.0247521
0.0208551
0.0197307
0.0207936
0.0225724
0.0268545
0.0316086
0.0354742
0.0381671
0.0393271
0.0392179
0.0385799
0.0373289
0.0359486
0.0346245
0.0334427
0.032436
0.0316174
0.0309718
0.0304708
0.0300646
0.0297173
0.0293948
0.0290713
0.0287298
0.0283505
0.0279216
0.0274378
0.0269029
0.0263275
0.0257212
0.0250888
0.0244462
0.0237904
0.0231364
0.0224871
0.0218536
0.0212376
0.0206478
0.020083
0.0195479
0.0190439
0.0185731
0.0181376
0.0177423
0.0173917
0.0170919
0.0168535
0.0166658
0.016602
0.0165478
0.016627
0.0167244
0.0168395
0.0169097
0.0169556
0.0169544
0.0169344
0.0167679
0.0163552
0.0157537
0.0150203
0.014201
0.0133403
0.0124712
0.0116285
0.0108286
0.0100766
0.00937949
0.00874083
0.00816003
0.00763618
0.00716459
0.00674421
0.00636772
0.00603612
0.00574236
0.00548401
0.00526438
0.00506599
0.0049173
0.00476523
0.00471306
0.00468468
0.00468701
0.0046783
0.00479095
0.00482632
0.00497253
0.00510261
0.00526462
0.00557943
0.0061765
0.415012
0.227524
0.135555
0.086504
0.0585798
0.0423227
0.0328559
0.0289849
0.0293486
0.0318708
0.0366867
0.0430173
0.0481992
0.0508673
0.0509108
0.0499943
0.0479168
0.0453708
0.0428286
0.0403618
0.0381065
0.0361085
0.0343973
0.0329588
0.0317654
0.0307887
0.0299838
0.0292991
0.0286934
0.028132
0.0275822
0.0270256
0.026458
0.0258736
0.025273
0.0246567
0.0240256
0.0233868
0.0227415
0.0220989
0.0214597
0.0208335
0.0202231
0.019636
0.0190737
0.0185417
0.0180398
0.017571
0.0171368
0.0167392
0.0163805
0.0160656
0.0157991
0.0155873
0.0154354
0.0153445
0.0153794
0.0154457
0.0155844
0.0157599
0.0159468
0.0161067
0.0162019
0.0162158
0.0162174
0.0161375
0.0158281
0.0153074
0.0146611
0.0139287
0.0131501
0.0123557
0.0115742
0.0108291
0.010125
0.00946884
0.00886485
0.00831308
0.00781415
0.00736327
0.00696098
0.00659978
0.00628256
0.00600128
0.00575488
0.00554613
0.00536097
0.0052212
0.00508654
0.00506664
0.0050527
0.00505891
0.00505384
0.00517288
0.00521719
0.00535807
0.00554417
0.00571935
0.00609416
0.00671989
0.415408
0.225915
0.133959
0.0858227
0.0599191
0.0471354
0.0439396
0.0471216
0.0514758
0.0602782
0.0663038
0.0673297
0.0659651
0.0626714
0.0584846
0.0543668
0.0503264
0.0464926
0.0430132
0.0399138
0.037234
0.03495
0.033036
0.0314301
0.0300875
0.0289551
0.0279858
0.0271418
0.0263874
0.0256949
0.0250432
0.0244106
0.0237877
0.0231689
0.0225515
0.0219361
0.0213228
0.0207148
0.0201112
0.019518
0.0189367
0.0183744
0.0178333
0.0173187
0.0168317
0.0163761
0.0159519
0.0155617
0.0152065
0.0148889
0.0146116
0.0143782
0.0141959
0.014067
0.0139967
0.0140235
0.0141129
0.0142594
0.0144618
0.0146995
0.0149452
0.0151662
0.0153247
0.0153897
0.0154208
0.0153973
0.0152134
0.0147947
0.0142507
0.0136174
0.0129323
0.0122228
0.0115152
0.0108336
0.0101854
0.00957715
0.00901515
0.00849943
0.00803288
0.0076094
0.00723246
0.00689386
0.00659883
0.00633834
0.00611084
0.00592467
0.00576039
0.00564395
0.00555531
0.00556296
0.00555528
0.0055849
0.00559044
0.00571689
0.00579679
0.00593648
0.0062332
0.00643137
0.00691085
0.00757939
0.416044
0.224507
0.134887
0.0921301
0.0745046
0.0741032
0.0778327
0.0889364
0.0944728
0.09259
0.0871085
0.0791306
0.071814
0.0649492
0.058624
0.0529538
0.0479817
0.0436695
0.0399703
0.0368169
0.0341538
0.0319026
0.0300143
0.0284209
0.0270814
0.025944
0.024965
0.0241089
0.023345
0.022648
0.0219989
0.0213813
0.0207851
0.0202039
0.0196344
0.0190765
0.0185291
0.0179924
0.0174648
0.0169507
0.0164519
0.0159736
0.0155178
0.0150885
0.0146867
0.0143152
0.013974
0.0136655
0.0133908
0.0131526
0.0129544
0.0127975
0.012694
0.012641
0.0126685
0.0127537
0.0129018
0.0131069
0.0133617
0.0136492
0.0139442
0.0142177
0.0144372
0.0145901
0.0146579
0.0146825
0.014616
0.0143265
0.0138983
0.0133734
0.0127909
0.0121749
0.011547
0.0109355
0.0103511
0.00979801
0.00928545
0.00881324
0.00838813
0.00799946
0.00765791
0.00735241
0.00709126
0.00686552
0.00666804
0.0065303
0.00639886
0.00636742
0.00632788
0.00634647
0.00632647
0.00644788
0.00647437
0.00663137
0.00680713
0.00701181
0.00745048
0.00772242
0.00840955
0.00916389
0.416548
0.227235
0.156554
0.134393
0.137758
0.142795
0.146916
0.139203
0.121014
0.104955
0.0908187
0.078572
0.0683801
0.0599712
0.0530309
0.0472466
0.0424216
0.0383887
0.0350203
0.0321951
0.0298276
0.0278306
0.0261512
0.0247279
0.0235225
0.0224927
0.0216051
0.0208287
0.020138
0.0195115
0.0189326
0.0183879
0.0178684
0.0173682
0.0168838
0.0164144
0.0159579
0.0155127
0.0150768
0.0146542
0.0142466
0.0138584
0.0134914
0.013149
0.0128322
0.0125435
0.0122828
0.0120527
0.011854
0.01169
0.0115648
0.0114703
0.0114481
0.0114756
0.0115603
0.0117024
0.0119023
0.0121566
0.0124576
0.0127905
0.0131331
0.0134598
0.0137446
0.0139756
0.0141374
0.0142237
0.0142406
0.0141179
0.0138185
0.0134089
0.0129291
0.0124066
0.0118698
0.0113391
0.0108264
0.0103357
0.0098862
0.00947138
0.00910464
0.00876212
0.00847769
0.00822543
0.008023
0.00786661
0.00772434
0.00771659
0.00767381
0.00768886
0.00766564
0.00782058
0.00787869
0.00808062
0.00825184
0.00850986
0.00895606
0.00932888
0.0101029
0.0105659
0.0118202
0.012813
0.421849
0.278018
0.28691
0.285367
0.278943
0.23545
0.191159
0.15335
0.122332
0.0992846
0.0820524
0.0689773
0.0589197
0.0510521
0.0448225
0.0398125
0.0357397
0.0323927
0.0296333
0.0273328
0.0254063
0.0237754
0.022396
0.021221
0.0202228
0.0193641
0.0186247
0.0179778
0.0174037
0.0168854
0.0164087
0.0159631
0.0155408
0.0151372
0.0147492
0.014376
0.0140147
0.0136628
0.0133179
0.0129835
0.0126621
0.0123578
0.0120724
0.0118091
0.0115695
0.0113563
0.0111688
0.0110104
0.0108816
0.010787
0.0107227
0.010713
0.0107524
0.010846
0.0109946
0.0111976
0.0114564
0.0117692
0.0121293
0.0125241
0.0129337
0.0133349
0.0137068
0.0140321
0.0142964
0.0144968
0.0146131
0.0146343
0.0144891
0.0142108
0.0138579
0.013453
0.013024
0.0125913
0.0121696