/*--------------------------------*- C++ -*----------------------------------*\
| =========                 |                                                 |
| \\      /  F ield         | OpenFOAM: The Open Source CFD Toolbox           |
|  \\    /   O peration     | Version:  v1912                                 |
|   \\  /    A nd           | Website:  www.openfoam.com                      |
|    \\/     M anipulation  |                                                 |
\*---------------------------------------------------------------------------*/
FoamFile
{
    version     2.0;
    format      ascii;
    class       volScalarField;
    location    "100";
    object      k;
}
// * * * * * * * * * * * * * * * * * * * * * * * * * * * * * * * * * * * * * //

dimensions      [0 2 -2 0 0 0 0];


internalField   nonuniform List<scalar> 
60000
(
0.0133719
0.00972203
0.007497
0.00602356
0.00498777
0.00422649
0.00364698
0.00319361
0.00283038
0.00253436
0.00228861
0.00208255
0.00190688
0.00175645
0.00162554
0.00151161
0.00141086
0.00132195
0.0012424
0.00117128
0.00110717
0.00104905
0.000996521
0.00094814
0.000904501
0.000863596
0.000826895
0.000791864
0.000760636
0.000730335
0.000703457
0.000677052
0.00065365
0.00063052
0.000609898
0.000589586
0.000571177
0.000553332
0.000536698
0.000521007
0.000505849
0.000491998
0.000478123
0.000465834
0.000453079
0.000442125
0.000430373
0.000420525
0.000409706
0.000400763
0.000390786
0.000382603
0.00037337
0.000365921
0.000357473
0.000350449
0.000341026
0.000329935
0.000318526
0.000332748
0.000727211
0.00215985
0.00418225
0.00638799
0.00836135
0.00976083
0.01044
0.0105841
0.0105935
0.0103689
0.00988195
0.0093112
0.00871718
0.00813557
0.00758541
0.00707632
0.00661151
0.00619149
0.00581405
0.00547753
0.00517812
0.00491394
0.00468239
0.00447904
0.00430699
0.00415677
0.00403336
0.0039387
0.00385078
0.00380679
0.00381498
0.00381486
0.00385023
0.00387555
0.00396856
0.00405551
0.00424737
0.00442038
0.00467037
0.00513171
0.0133736
0.00972438
0.00749908
0.00602537
0.00498941
0.00422793
0.00364827
0.00319469
0.00283139
0.00253516
0.00228939
0.00208314
0.00190747
0.00175689
0.00162599
0.00151195
0.00141118
0.00132225
0.00124261
0.00117157
0.00110728
0.00104935
0.000996557
0.000948472
0.0009045
0.000863943
0.000826893
0.00079221
0.000760671
0.000730663
0.000703558
0.00067735
0.00065384
0.000630772
0.000610203
0.000589772
0.000571619
0.000553445
0.000537278
0.000521062
0.000506535
0.000492046
0.000478849
0.000465948
0.000453768
0.000442374
0.00043097
0.000420921
0.000410246
0.000401216
0.000391344
0.000383089
0.000373882
0.000366445
0.00035798
0.000351
0.000341615
0.000330664
0.000319202
0.000327756
0.000657792
0.00201511
0.00405053
0.00632449
0.00835915
0.00978548
0.0104759
0.010622
0.0106212
0.010382
0.00988626
0.0093087
0.0087098
0.00812501
0.00757294
0.0070629
0.00659777
0.00617792
0.0058009
0.005465
0.00516629
0.00490285
0.00467203
0.00446936
0.00429799
0.00414828
0.00402546
0.00393113
0.00384359
0.00380029
0.00380675
0.00380771
0.00384134
0.00386831
0.00396091
0.00404834
0.00423868
0.00441579
0.00466012
0.00512907
0.0133752
0.00972658
0.00750085
0.00602656
0.00499005
0.00422815
0.00364822
0.00319439
0.00283099
0.00253459
0.00228885
0.00208245
0.00190688
0.00175617
0.00162541
0.00151126
0.00141063
0.00132163
0.0012421
0.00117106
0.00110682
0.00104898
0.000996137
0.000948255
0.000904119
0.000863896
0.000826554
0.000792334
0.000760386
0.000730943
0.000703359
0.000677745
0.000653771
0.000631238
0.000610304
0.000590274
0.000571915
0.000553962
0.000537776
0.000521591
0.000507229
0.000492582
0.000479743
0.00046647
0.000454877
0.000442857
0.0004323
0.000421369
0.000411736
0.000401725
0.000392856
0.000383737
0.000375338
0.000367348
0.00035908
0.00035228
0.000343143
0.000332214
0.000320487
0.000322513
0.000556302
0.0016889
0.00361415
0.00588067
0.00798155
0.00950977
0.0102944
0.0104921
0.0105101
0.0103108
0.0098356
0.00926961
0.00867725
0.00809656
0.00754736
0.00703957
0.00657631
0.00615813
0.0057826
0.00544805
0.00515061
0.00488824
0.0046585
0.00445663
0.00428604
0.00413699
0.00401452
0.00392072
0.00383346
0.00378993
0.00379568
0.0037967
0.00382959
0.00385674
0.00394866
0.00403611
0.00422425
0.00440531
0.00464435
0.00511845
0.0133769
0.00972858
0.00750224
0.00602717
0.00499009
0.00422776
0.00364756
0.00319353
0.00283003
0.00253353
0.00228778
0.00208134
0.00190582
0.00175509
0.00162442
0.00151026
0.00140975
0.00132073
0.00124136
0.00117028
0.00110624
0.00104834
0.000995722
0.000947777
0.000903867
0.000863605
0.000826453
0.000792252
0.000760418
0.00073109
0.000703516
0.000678134
0.000654043
0.000631877
0.00061068
0.000591166
0.000572393
0.000555089
0.000538377
0.00052291
0.00050799
0.000494037
0.000480709
0.000467993
0.000456098
0.00044439
0.000433783
0.000422902
0.00041345
0.000403268
0.000394739
0.000385317
0.000377369
0.000368751
0.000361473
0.000353466
0.000345705
0.000334642
0.00032267
0.000320739
0.000476587
0.00137815
0.00310187
0.0052645
0.00738546
0.00902173
0.00994959
0.0102302
0.0102794
0.0101518
0.00972325
0.00918465
0.00860946
0.00804036
0.0074995
0.00699801
0.00653971
0.00612557
0.00575341
0.00542169
0.00512675
0.00486639
0.00463855
0.0044381
0.0042688
0.00412091
0.00399893
0.00390612
0.00381921
0.00377537
0.00378059
0.00378148
0.00381403
0.00384079
0.00393206
0.00401915
0.00420523
0.00438844
0.0046253
0.00510032
0.0133785
0.00973038
0.00750313
0.00602713
0.00498933
0.00422651
0.003646
0.00319175
0.00282816
0.0025316
0.00228586
0.00207943
0.00190398
0.0017533
0.00162272
0.00150864
0.00140825
0.00131933
0.00124009
0.00116912
0.00110521
0.00104743
0.000994966
0.000947129
0.000903397
0.000863208
0.00082629
0.000792089
0.000760588
0.000731159
0.000704007
0.000678448
0.000654829
0.00063246
0.000611725
0.000592046
0.000573652
0.000556294
0.000539809
0.000524453
0.000509569
0.000495914
0.000482418
0.000470187
0.000457927
0.00044688
0.000435709
0.000425689
0.000415436
0.0004063
0.000396862
0.000388413
0.000379694
0.000371809
0.000363989
0.000356214
0.000348933
0.000337901
0.000325701
0.000322105
0.00041229
0.00110369
0.00260581
0.00460969
0.00670092
0.00841821
0.00948691
0.00988252
0.00997171
0.00991733
0.00955566
0.00905565
0.00850609
0.00795514
0.00742766
0.00693641
0.00648617
0.00607856
0.00571179
0.00538457
0.00509352
0.00483631
0.00461138
0.00441317
0.00424583
0.00409976
0.00397866
0.00388733
0.00380105
0.00375713
0.00376207
0.00376292
0.00379532
0.00382151
0.00391227
0.00399873
0.00418295
0.00436682
0.00460263
0.00507745
0.0133802
0.00973198
0.00750347
0.00602633
0.00498771
0.00422434
0.00364349
0.00318907
0.0028254
0.00252882
0.00228314
0.00207677
0.00190145
0.00175086
0.00162046
0.00150649
0.00140631
0.0013175
0.0012385
0.00116764
0.00110398
0.00104634
0.000994101
0.000946442
0.000902896
0.000862927
0.00082616
0.000792233
0.000760837
0.000731703
0.000704655
0.000679365
0.000655895
0.00063372
0.000613217
0.000593623
0.000575567
0.000558173
0.000542126
0.000526624
0.000512266
0.000498362
0.000485465
0.000472912
0.000461264
0.000449906
0.000439252
0.000429053
0.00041908
0.000410036
0.000400555
0.000392398
0.000383526
0.000375873
0.00036772
0.000360639
0.000352511
0.000342925
0.000330254
0.000325213
0.000367594
0.000875064
0.00215622
0.00398034
0.00600649
0.00777468
0.00895944
0.00951019
0.00963353
0.00962239
0.00935181
0.00889185
0.0083729
0.00784471
0.0073345
0.00685669
0.00641712
0.00601821
0.00565865
0.00533744
0.0050516
0.00479865
0.00457759
0.00438244
0.00421779
0.00407415
0.0039545
0.00386506
0.00377975
0.00373624
0.0037413
0.0037422
0.00377456
0.00380032
0.00389066
0.00397634
0.00415886
0.00434225
0.00457726
0.00505153
0.0133818
0.0097333
0.00750331
0.00602479
0.0049852
0.00422122
0.00364002
0.00318543
0.00282171
0.00252517
0.00227957
0.00207334
0.00189818
0.00174779
0.00161759
0.00150383
0.00140388
0.00131531
0.00123656
0.00116594
0.00110257
0.00104516
0.000993223
0.000945764
0.000902557
0.000862805
0.000826375
0.000792652
0.000761588
0.000732676
0.000705924
0.000680899
0.000657653
0.000635812
0.000615443
0.000596257
0.000578251
0.000561315
0.000545263
0.000530232
0.000515845
0.000502393
0.000489474
0.000477307
0.000465714
0.000454567
0.000444179
0.000433879
0.000424463
0.000415021
0.000406252
0.000397594
0.000389396
0.000381194
0.000373634
0.000366029
0.000358383
0.00034913
0.000337179
0.000327938
0.000343794
0.000685563
0.00177302
0.00342721
0.00537266
0.0071599
0.00843872
0.00909883
0.00928237
0.0093026
0.00912158
0.00870643
0.00822059
0.00771748
0.00722672
0.00676432
0.00633716
0.00594845
0.00559741
0.00528333
0.00500367
0.00475583
0.00453939
0.00434798
0.00418658
0.00404586
0.00392821
0.00384086
0.00375694
0.00371435
0.00372002
0.00372102
0.00375342
0.003779
0.00386896
0.00395362
0.00413458
0.00431655
0.0045507
0.005024
0.0133835
0.00973436
0.00750252
0.00602239
0.00498171
0.00421707
0.00363551
0.00318078
0.00281705
0.00252061
0.00227516
0.00206915
0.00189421
0.0017441
0.00161416
0.00150073
0.00140107
0.00131285
0.00123441
0.00116417
0.0011011
0.00104409
0.000992433
0.000945436
0.000902521
0.000863206
0.000827066
0.000793786
0.000763018
0.000734528
0.000708087
0.000683444
0.000660544
0.000639024
0.000619041
0.000600108
0.000582524
0.000565782
0.000550165
0.0005353
0.000521308
0.000508062
0.000495412
0.000483572
0.00047206
0.000461376
0.000450933
0.000441114
0.000431677
0.000422569
0.000413934
0.000405487
0.000397482
0.000389483
0.000382246
0.000374863
0.000367742
0.000358679
0.000348702
0.0003395
0.000343786
0.000560818
0.00149116
0.00301285
0.00487461
0.00665207
0.00798116
0.0087314
0.00896405
0.0090053
0.00888963
0.00851834
0.00806412
0.00758557
0.00711441
0.00666784
0.00625365
0.00587571
0.00553372
0.00522729
0.00495428
0.00471199
0.00450052
0.00431322
0.00415539
0.00401777
0.00390254
0.00381727
0.00373495
0.00369374
0.00370045
0.00370158
0.00373414
0.00375974
0.00384909
0.00393245
0.00411189
0.00429156
0.00452461
0.00499626
0.0133851
0.0097351
0.00750104
0.00601906
0.00497717
0.00421182
0.00362991
0.00317507
0.00281139
0.00251511
0.0022699
0.00206417
0.00188957
0.00173981
0.00161027
0.00149725
0.00139799
0.00131024
0.00123221
0.00116247
0.00109979
0.00104328
0.000992145
0.000945615
0.000903202
0.000864355
0.000828745
0.000795912
0.000765672
0.000737621
0.000711693
0.000687489
0.000665068
0.000643992
0.000624453
0.000605952
0.000588793
0.000572443
0.000557254
0.000542727
0.000529162
0.000516214
0.000503975
0.00049242
0.000481289
0.00047095
0.000460848
0.000451566
0.000442502
0.00043439
0.00042671
0.000420147
0.000414265
0.000409403
0.000405629
0.000402652
0.000399833
0.000394447
0.00039762
0.000398081
0.000403274
0.000567384
0.00139888
0.00282957
0.00459878
0.0063265
0.00765674
0.00844227
0.00871174
0.00876677
0.0086882
0.00834933
0.0079207
0.00746335
0.0070098
0.00657786
0.00617588
0.00580821
0.00547495
0.00517594
0.00490939
0.00467254
0.00446592
0.00428267
0.00412835
0.00399369
0.00388096
0.00379753
0.00371671
0.00367714
0.00368517
0.00368642
0.00371932
0.0037453
0.003833
0.00391479
0.00409263
0.00426907
0.0045007
0.00496975
0.0133868
0.00973546
0.00749879
0.0060147
0.0049715
0.00420537
0.00362314
0.00316824
0.00280469
0.00250864
0.00226379
0.00205843
0.00188432
0.00173498
0.00160603
0.00149346
0.00139486
0.00130759
0.00123023
0.00116095
0.00109904
0.00104315
0.000992648
0.000946768
0.000905007
0.000866832
0.000831841
0.000799695
0.000770052
0.000742692
0.000717328
0.000693815
0.000671918
0.000651521
0.000632479
0.000614608
0.000597963
0.000582144
0.000567526
0.000553434
0.000540494
0.000527984
0.00051644
0.000505538
0.000495332
0.000486626
0.000478494
0.000472905
0.000468173
0.000471612
0.000475229
0.000486126
0.000501818
0.000522684
0.00054888
0.000576106
0.000597869
0.000652457
0.000673024
0.000664403
0.000703839
0.000832778
0.00159044
0.00295151
0.00462073
0.00624727
0.00751495
0.00827893
0.00855723
0.00861458
0.00854267
0.00821931
0.00780721
0.00736542
0.00692566
0.00650564
0.00611386
0.00575494
0.00542922
0.00513662
0.00487567
0.00464358
0.00444115
0.00426144
0.0041101
0.00397792
0.00386735
0.00378533
0.00370544
0.00366753
0.00367691
0.0036782
0.00371181
0.00373834
0.00382268
0.00390269
0.0040786
0.00425077
0.00448052
0.00494574
0.0133885
0.00973541
0.00749568
0.00600919
0.00496457
0.00419761
0.00361513
0.0031602
0.0027969
0.0025012
0.00225682
0.00205199
0.00187848
0.00172977
0.00160153
0.00148961
0.00139185
0.00130519
0.00122863
0.0011603
0.00109917
0.00104415
0.000994475
0.000949535
0.000908538
0.000871352
0.000837091
0.000805951
0.000777014
0.000750634
0.000725969
0.000703383
0.000682182
0.000662646
0.000644317
0.000627204
0.000611407
0.000596148
0.00058277
0.000569107
0.00055813
0.000546777
0.000539142
0.00053202
0.000532862
0.000537838
0.000553376
0.000577732
0.000627202
0.000695545
0.000786745
0.00090312
0.00102711
0.00115507
0.0012667
0.0013619
0.00141993
0.00148887
0.00155081
0.00155677
0.00164211
0.00170272
0.00221248
0.00340693
0.00492106
0.00641058
0.00757374
0.00826583
0.00851981
0.00856507
0.00846935
0.00814344
0.00773754
0.00730435
0.00687333
0.00646143
0.00607694
0.00572441
0.00540429
0.00511637
0.00485957
0.00463104
0.00443166
0.00425452
0.00410522
0.00397469
0.00386547
0.00378425
0.00370436
0.00366779
0.00367819
0.00367935
0.00371421
0.00374067
0.00382032
0.00389805
0.00407137
0.00423805
0.00446539
0.0049253
0.0133902
0.00973485
0.00749158
0.0060024
0.00495624
0.00418842
0.00360579
0.00315089
0.00278801
0.00249277
0.00224903
0.00204495
0.00187215
0.00172442
0.0015969
0.00148614
0.00138895
0.00130364
0.00122818
0.00116091
0.00110088
0.00104702
0.000998448
0.000954686
0.000914806
0.000878815
0.00084565
0.000815693
0.000787848
0.000762575
0.000739079
0.000717428
0.000697598
0.000678791
0.00066214
0.00064579
0.00063219
0.000618368
0.000609254
0.000599531
0.000600523
0.000608508
0.000625377
0.000672176
0.000747191
0.000855349
0.00103787
0.0012369
0.00149956
0.0017573
0.00203502
0.00230726
0.00254174
0.00275533
0.0028971
0.00301954
0.00312328
0.0032643
0.00330088
0.0032501
0.00329832
0.00330093
0.00342941
0.0042864
0.00553956
0.00680573
0.00780005
0.00838565
0.00859347
0.00861546
0.00847189
0.00812969
0.00772041
0.00728867
0.00686094
0.00645292
0.00607228
0.00572332
0.00540638
0.00512107
0.00486656
0.00463993
0.004442
0.0042661
0.00411748
0.00398753
0.00387842
0.00379719
0.00371618
0.00368016
0.003691
0.00369166
0.00372818
0.00375363
0.00382747
0.00390235
0.00407208
0.00423191
0.00445622
0.00490914
0.0133922
0.00973362
0.00748633
0.00599415
0.00494633
0.00417768
0.00359498
0.00314021
0.00277803
0.00248329
0.00224061
0.00203731
0.00186569
0.00171901
0.00159271
0.00148298
0.00138747
0.00130357
0.00122933
0.00116369
0.001105
0.00105273
0.0010056
0.000963378
0.000925017
0.000890501
0.000858922
0.000830424
0.000804217
0.000780523
0.000758713
0.000738996
0.000721204
0.000704951
0.000692176
0.00068071
0.000675954
0.000677893
0.000702079
0.000735202
0.000817877
0.000949878
0.00117935
0.00146247
0.00182275
0.00220459
0.00262393
0.00301317
0.00341054
0.00374226
0.00405923
0.004313
0.00452449
0.00468612
0.00479979
0.00488541
0.00496415
0.00501261
0.00500017
0.00495606
0.00489093
0.00489425
0.00489921
0.00539335
0.00638814
0.00740699
0.00819602
0.00863527
0.00877363
0.0087523
0.00854035
0.00817652
0.00775725
0.00732112
0.00689181
0.00648359
0.00610337
0.00575502
0.00543866
0.00515407
0.00489995
0.00467346
0.00447527
0.00429911
0.00414957
0.00401899
0.00390847
0.00382623
0.00374296
0.00370604
0.00371683
0.00371609
0.00375424
0.00377764
0.00384488
0.00391631
0.00408129
0.00423284
0.0044534
0.00489752
0.0133945
0.00973137
0.00747984
0.00598413
0.00493466
0.00416527
0.00358255
0.00312826
0.00276687
0.00247298
0.00223169
0.00202934
0.00185952
0.00171396
0.00158941
0.00148171
0.00138777
0.00130576
0.00123322
0.00116964
0.0011126
0.00106251
0.00101704
0.000977127
0.0009405
0.000908609
0.000878996
0.000853657
0.000830027
0.000810465
0.000792279
0.000780107
0.000767895
0.00076962
0.000775929
0.000808247
0.000857134
0.000974582
0.00116889
0.00149254
0.00190153
0.00238765
0.00290895
0.00342559
0.00392851
0.00438791
0.00480688
0.00517796
0.00551965
0.00578874
0.00605392
0.00622907
0.00640323
0.00647901
0.00661161
0.00658696
0.00654323
0.00648853
0.00641387
0.00636386
0.00630522
0.006293
0.0062881
0.00659242
0.00733961
0.00811224
0.00869145
0.00897872
0.00904258
0.00895808
0.0086719
0.0082824
0.00784751
0.00740214
0.00696721
0.00655532
0.00617248
0.005822
0.00550375
0.00521734
0.00496128
0.00473287
0.00453247
0.00435438
0.00420221
0.0040697
0.00395617
0.00387175
0.00378547
0.00374527
0.00375598
0.00375226
0.00379127
0.00381202
0.00387239
0.00393976
0.00409896
0.00424062
0.0044567
0.00489015
0.0133972
0.00972757
0.00747219
0.0059718
0.00492132
0.00415087
0.00356854
0.00311506
0.00275455
0.00246225
0.00222236
0.00202176
0.00185406
0.00171006
0.00158846
0.00148209
0.001391
0.0013107
0.00124085
0.00117934
0.00112489
0.00107742
0.00103497
0.000998539
0.000966201
0.000939443
0.000915917
0.000899159
0.000884923
0.000879819
0.000881983
0.000905569
0.000932713
0.00101793
0.00114064
0.00138224
0.00175646
0.00226296
0.00284076
0.00346608
0.00407794
0.00466445
0.00520003
0.00569237
0.00613138
0.00652802
0.00686525
0.00716395
0.00741514
0.00760277
0.00779742
0.00788714
0.00803554
0.00802477
0.00802823
0.00797006
0.00788182
0.00778273
0.0076774
0.00758441
0.00752428
0.00750331
0.00750696
0.00773316
0.00828288
0.00883693
0.00922192
0.00938171
0.00937657
0.00919617
0.00885312
0.00843354
0.00798021
0.00752282
0.00707957
0.00666151
0.00627375
0.00591902
0.00559693
0.00530687
0.00504725
0.00481543
0.00461133
0.00443
0.00427377
0.00413819
0.00402036
0.0039325
0.00384281
0.00379688
0.0038074
0.00379863
0.00383717
0.00385501
0.00390902
0.00397149
0.00412414
0.00425447
0.00446523
0.00488614
0.0134001
0.00972183
0.00746351
0.0059565
0.00490679
0.00413387
0.00355359
0.00310033
0.00274168
0.00245144
0.0022131
0.00201563
0.00184948
0.00170868
0.00158939
0.00148507
0.0013974
0.00131864
0.00125315
0.00119394
0.00114527
0.00110327
0.00106901
0.00104354
0.00102528
0.00101521
0.00101966
0.00102765
0.00106468
0.00110757
0.00119626
0.00134072
0.00159513
0.00198906
0.00252334
0.00315757
0.00383543
0.00452557
0.0051796
0.0058021
0.00636321
0.00687855
0.00732694
0.00772657
0.00806386
0.0083632
0.00859966
0.00881082
0.00896897
0.00907613
0.00920301
0.00923803
0.00927541
0.00922924
0.00916005
0.0090677
0.00895578
0.00883707
0.00872107
0.00862185
0.00855649
0.00853112
0.00854791
0.00874423
0.00914073
0.00951311
0.00973473
0.00979482
0.00971496
0.00944283
0.00905634
0.00860895
0.00813778
0.00766838
0.0072165
0.00679172
0.00639834
0.00603852
0.00571169
0.00541703
0.00515284
0.0049166
0.00470776
0.00452221
0.00436091
0.00422128
0.00409833
0.00400565
0.00391259
0.00385903
0.00386627
0.00385392
0.00389171
0.00390409
0.0039535
0.00400935
0.004155
0.00427273
0.00447756
0.00488391
0.0134026
0.00971438
0.00745371
0.00593795
0.00489152
0.00411362
0.00353883
0.00308334
0.00272993
0.00244002
0.00220544
0.00201055
0.00184602
0.0017091
0.00159049
0.00149135
0.00140569
0.00133282
0.00127551
0.00122504
0.00119685
0.00117096
0.00117218
0.00118556
0.00121008
0.00126137
0.00133635
0.00145164
0.0016235
0.00188141
0.00225874
0.00276557
0.00338413
0.00406914
0.00477968
0.00548558
0.00615994
0.00679542
0.00737037
0.00789255
0.00834416
0.00874479
0.00907911
0.0093691
0.00959993
0.00980069
0.00994223
0.0100716
0.0101465
0.0101882
0.0102383
0.0102174
0.0101754
0.0100985
0.0100017
0.00988961
0.00976803
0.00964664
0.00953554
0.00944673
0.00938958
0.00937661
0.0094138
0.00959161
0.00986673
0.010095
0.0102023
0.0101926
0.0100178
0.00968227
0.00925892
0.00878867
0.00830289
0.00782361
0.00736453
0.00693393
0.00653543
0.00617075
0.00583918
0.00553977
0.00527071
0.00502968
0.00481565
0.00462537
0.00445852
0.00431408
0.00418586
0.00408686
0.00399127
0.00392805
0.003929
0.00391625
0.00394802
0.00395617
0.0040056
0.00405016
0.00418863
0.00429305
0.00449143
0.00488116
0.013404
0.00970627
0.007442
0.00591673
0.00487526
0.00409038
0.00352488
0.00306387
0.00272072
0.00242635
0.00220058
0.00200233
0.00184393
0.00170866
0.00159362
0.00150449
0.00142538
0.00138044
0.00134207
0.00134723
0.00136949
0.00141323
0.0014968
0.00162321
0.00179122
0.00200603
0.00227918
0.00263292
0.00308415
0.00363241
0.00425981
0.00493453
0.00563105
0.00632291
0.00698955
0.00761681
0.00818935
0.00870689
0.00915919
0.00955524
0.00988537
0.0101679
0.0103914
0.010578
0.0107126
0.0108278
0.0108875
0.0109523
0.0109538
0.0109391
0.0109172
0.0108596
0.0107796
0.0106796
0.0105683
0.0104507
0.0103331
0.0102225
0.0101295
0.0100625
0.0100294
0.0100395
0.0101048
0.010257
0.0104374
0.010555
0.0105906
0.0105197
0.0102638
0.00988768
0.00943851
0.00895268
0.00845748
0.00797218
0.0075088
0.00707456
0.0066726
0.00630429
0.00596889
0.00566536
0.0053919
0.00514638
0.00492734
0.00473234
0.00456004
0.0044104
0.00427733
0.00417081
0.00407394
0.00399867
0.00399093
0.00398767
0.00400053
0.0040072
0.00405854
0.00409273
0.00422044
0.00431243
0.00450413
0.00487469
0.013404
0.00969903
0.00742682
0.00589423
0.00485673
0.00406556
0.00351066
0.00304259
0.00271164
0.00240795
0.00219357
0.00198584
0.0018445
0.0017071
0.00162254
0.00155367
0.00153732
0.00156138
0.00161381
0.00173341
0.00191244
0.00215624
0.00244589
0.00277252
0.00313612
0.00354672
0.00401355
0.00453997
0.00512071
0.00574153
0.00638586
0.00703113
0.00766107
0.00825793
0.00881054
0.00931242
0.00975504
0.0101421
0.0104684
0.0107428
0.0109604
0.0111373
0.0112645
0.0113634
0.0114182
0.0114654
0.0114599
0.0114535
0.0114158
0.0113577
0.0112917
0.0112066
0.0111063
0.0109963
0.0108835
0.0107732
0.0106712
0.0105814
0.0105182
0.0104825
0.0104894
0.0105303
0.0106125
0.0107327
0.01084
0.0108912
0.0108856
0.0107483
0.0104425
0.0100393
0.00957549
0.00908247
0.00858425
0.00809792
0.00763422
0.00719958
0.00679675
0.00642689
0.00608938
0.00578315
0.00550645
0.00525736
0.00503416
0.00483498
0.00465793
0.00450318
0.00436603
0.00425164
0.00415419
0.00406541
0.00404668
0.00404394
0.00404972
0.00405238
0.00410471
0.00413144
0.00424608
0.00432735
0.00451225
0.00486063
0.0134035
0.00969357
0.00740605
0.00587232
0.00483384
0.00404033
0.00349264
0.00301727
0.00269378
0.00237857
0.00218228
0.00197789
0.00187112
0.00177075
0.00177383
0.00181933
0.00192287
0.00212843
0.00245445
0.00284644
0.00327788
0.00371333
0.004143
0.00456996
0.00500738
0.00547086
0.00596749
0.00649773
0.00705356
0.00762013
0.00818344
0.00872651
0.00923904
0.00970915
0.0101311
0.0105024
0.0108184
0.0110847
0.0112983
0.0114676
0.0115901
0.0116801
0.011729
0.0117606
0.0117523
0.0117341
0.0116889
0.0116346
0.0115644
0.0114809
0.0113904
0.0112907
0.0111838
0.0110763
0.0109731
0.0108812
0.0108031
0.0107403
0.0107201
0.0107315
0.0107722
0.0108399
0.0109305
0.011022
0.0110726
0.0110921
0.0110588
0.0108686
0.0105363
0.0101206
0.00965331
0.00916176
0.00866741
0.00818565
0.00772634
0.00729531
0.00689491
0.00652628
0.00618904
0.00588214
0.005604
0.00535286
0.00512694
0.00492466
0.00474402
0.00458487
0.0044445
0.0043232
0.00422382
0.00412827
0.00409423
0.00408672
0.00408844
0.00408648
0.00413869
0.00415924
0.00426055
0.00433242
0.0045106
0.00483555
0.0134036
0.0096881
0.00737807
0.00585274
0.00480201
0.00401305
0.00346124
0.00297717
0.00266196
0.00236114
0.00219429
0.0020469
0.00205373
0.00212024
0.0022743
0.00259786
0.00308018
0.00364342
0.00422456
0.00475543
0.00523292
0.00565055
0.00603695
0.0064153
0.00680468
0.0072178
0.00765445
0.00811142
0.00857842
0.00904146
0.00948964
0.00991013
0.0102962
0.0106402
0.0109393
0.0111931
0.011399
0.0115635
0.0116842
0.0117692
0.0118163
0.01184
0.0118297
0.0118023
0.0117524
0.0116952
0.0116223
0.0115425
0.0114538
0.0113579
0.0112584
0.0111568
0.0110548
0.0109591
0.0108732
0.010806
0.0107516
0.0107349
0.0107541
0.0108025
0.0108763
0.0109679
0.0110635
0.0111308
0.0111527
0.0111549
0.0110993
0.0108749
0.0105344
0.0101192
0.00965855
0.00917675
0.00869314
0.00822173
0.00777179
0.00734906
0.00695484
0.0065907
0.00625663
0.00595159
0.00567433
0.00542317
0.00519648
0.00499266
0.00481
0.00464775
0.00450502
0.00437889
0.00427568
0.00417981
0.0041252
0.00411069
0.00411082
0.00410315
0.00415313
0.00416985
0.00425836
0.00432199
0.00449325
0.00479499
0.0134068
0.00967833
0.00734511
0.00583304
0.0047506
0.00397587
0.00339402
0.00294389
0.00265336
0.00241844
0.00238795
0.00247029
0.00267004
0.00308778
0.0037375
0.00448565
0.00519608
0.00582461
0.0063367
0.00673619
0.00707046
0.00735426
0.00762791
0.00790851
0.00820794
0.00853176
0.00887422
0.00923028
0.00958874
0.00993742
0.010268
0.0105709
0.0108413
0.0110747
0.011269
0.0114256
0.0115429
0.0116273
0.0116766
0.0117028
0.0116973
0.0116721
0.0116229
0.0115614
0.0114859
0.0114029
0.0113113
0.0112162
0.011118
0.0110181
0.0109193
0.0108248
0.0107365
0.0106611
0.0106004
0.010564
0.0105575
0.0105816
0.0106329
0.0107124
0.0108126
0.0109216
0.0110206
0.0110755
0.0110845
0.0110794
0.0110113
0.0107757
0.0104392
0.0100347
0.00958854
0.00912265
0.0086548
0.00819788
0.00776082
0.00734971
0.00696541
0.0066093
0.00628164
0.00598138
0.00570769
0.00545895
0.00523392
0.00503053
0.00484768
0.00468421
0.00454
0.00441178
0.00430339
0.00421219
0.00412513
0.00410726
0.00410827
0.00409852
0.00414677
0.00415764
0.00423427
0.00429024
0.00445386
0.00473337
0.0134136
0.00965834
0.00731245
0.00579366
0.00466354
0.00393069
0.00334963
0.00299441
0.00282518
0.00289748
0.00309622
0.00360429
0.00440737
0.00528749
0.00615312
0.00685634
0.0073863
0.00778383
0.00805819
0.00825474
0.00841593
0.00856083
0.00871807
0.00889514
0.00909725
0.00932432
0.0095681
0.0098215
0.0100748
0.0103176
0.0105437
0.0107455
0.0109197
0.0110641
0.0111798
0.011266
0.0113209
0.0113513
0.0113504
0.0113295
0.0112836
0.0112217
0.0111462
0.0110628
0.010972
0.0108782
0.0107808
0.0106834
0.0105869
0.0104929
0.010404
0.0103241
0.0102555
0.0102033
0.0101722
0.0101777
0.0102039
0.0102624
0.0103477
0.0104581
0.0105833
0.0107076
0.0108096
0.010859
0.0108632
0.010855
0.010783
0.0105525
0.0102319
0.00984917
0.00942761
0.0089867
0.00854257
0.00810694
0.00768828
0.0072919
0.00692052
0.00657527
0.00625678
0.00596387
0.00569627
0.00545224
0.00523101
0.00503024
0.00484924
0.00468687
0.00454219
0.0044147
0.00430161
0.004214
0.00411587
0.00408029
0.00407625
0.00407017
0.00411478
0.00411798
0.00418302
0.00423151
0.00438605
0.00464448
0.0134218
0.0096269
0.00727269
0.00568682
0.00460024
0.00392941
0.00345144
0.00346614
0.00364127
0.00413746
0.00502064
0.00609129
0.00709473
0.00781049
0.0083781
0.00872787
0.00893513
0.00905223
0.00910768
0.00913051
0.00915485
0.00919075
0.00925344
0.00934005
0.00945493
0.00959408
0.00974869
0.00991184
0.0100753
0.0102344
0.0103806
0.0105078
0.0106125
0.0106919
0.0107444
0.0107741
0.0107806
0.0107689
0.0107372
0.0106851
0.0106176
0.0105399
0.0104536
0.0103629
0.0102689
0.0101747
0.0100806
0.00998929
0.00990195
0.00982033
0.0097472
0.00968655
0.00964024
0.00961476
0.00962134
0.00965348
0.00970952
0.00979526
0.00990651
0.0100389
0.010181
0.0103156
0.0104232
0.0104763
0.0104841
0.010478
0.0104153
0.0102045
0.00990941
0.00955635
0.00916613
0.00875613
0.00834122
0.00793227
0.00753751
0.0071619
0.00680866
0.0064789
0.00617375
0.0058918
0.00563358
0.00539714
0.00518213
0.00498617
0.00480895
0.00465005
0.00450601
0.0043817
0.00426554
0.00417972
0.00408113
0.00401698
0.00402252
0.00402269
0.00404558
0.00404644
0.00410046
0.00414138
0.00428352
0.0045218
0.0134254
0.00958202
0.00716883
0.00561099
0.00468805
0.00426759
0.00439564
0.00482855
0.00567131
0.00700452
0.00802404
0.00880311
0.00926326
0.00950029
0.00963907
0.00964961
0.0096188
0.00955096
0.00946326
0.00937631
0.00930894
0.0092649
0.00925803
0.00927327
0.00932232
0.00939542
0.00948381
0.00958075
0.00967835
0.00976823
0.00984805
0.00991398
0.0099634
0.00999532
0.0100086
0.0100049
0.00998721
0.00995385
0.00990221
0.00983716
0.00976183
0.00968005
0.00959339
0.00950519
0.0094165
0.00932987
0.00924577
0.00916659
0.00909348
0.00902826
0.00897397
0.00893436
0.00891225
0.00891904
0.00894907
0.00900452
0.00908454
0.00919144
0.00932152
0.00946892
0.00962199
0.00976372
0.00987721
0.00993939
0.00995549
0.00995489
0.00990867
0.00973
0.00946774
0.00915102
0.00879814
0.00842456
0.00804396
0.00766631
0.00729965
0.00694901
0.00661798
0.00630757
0.00601955
0.00575219
0.00550705
0.00528169
0.00507619
0.00488805
0.00471731
0.00456478
0.004423
0.00430437
0.00418725
0.00410233
0.00400868
0.00393226
0.00393032
0.00392132
0.00394132
0.00394512
0.0039836
0.00401681
0.0041406
0.00435872
0.0134176
0.009464
0.00711907
0.00581667
0.00557047
0.00585126
0.00664701
0.0080334
0.00919725
0.00987699
0.0101215
0.0101933
0.0101641
0.0100785
0.00993663
0.00975488
0.00956436
0.00937801
0.00920627
0.00905699
0.00894067
0.0088548
0.00880444
0.0087775
0.00877666
0.0087966
0.00883179
0.00887577
0.00892345
0.00896856
0.00900708
0.00903593
0.00905294
0.00905661
0.00904825
0.00902972
0.00899985
0.00895657
0.00889902
0.00883285
0.00875975
0.0086829
0.00860376
0.00852502
0.00844769
0.00837391
0.00830423
0.00824079
0.00818457
0.00813743
0.00810259
0.00808562
0.00808949
0.00811626
0.00816527
0.00823853
0.00833533
0.00845604
0.00859708
0.00875218
0.00891014
0.00905559
0.00917434
0.00924888
0.00927702
0.00928381
0.00925631
0.00912144
0.00889756
0.0086226
0.00831217
0.00797998
0.00763865
0.00729712
0.00696326
0.00664223
0.00633793
0.00605116
0.00578441
0.00553548
0.00530721
0.0050966
0.00490388
0.00472676
0.00456571
0.00442247
0.00428557
0.00417454
0.00406088
0.00397726
0.00389403
0.0038108
0.00380139
0.00380312
0.00381321
0.00380565
0.00383533
0.0038596
0.00395606
0.00414908
0.0132876
0.00939512
0.00759377
0.0076926
0.00828245
0.00939308
0.0109894
0.0112767
0.0111945
0.011017
0.0106964
0.0103527
0.0100123
0.00968979
0.00939139
0.00911004
0.00885264
0.00862323
0.00842641
0.00826012
0.00812691
0.00802241
0.00794954
0.00790022
0.00787343
0.00786364
0.00786918
0.00788319
0.00790155
0.00791967
0.00793387
0.00794143
0.00794077
0.00793201
0.00791531
0.00789209
0.00785995
0.00781765
0.0077641
0.0077045
0.00764057
0.00757473
0.00750822
0.0074433
0.00738088
0.00732289
0.00726982
0.00722354
0.0071846
0.00715517
0.00714035
0.00714339
0.00716504
0.0072067
0.00726892
0.0073531
0.00745872
0.00758515
0.00772897
0.00788421