/*--------------------------------*- C++ -*----------------------------------*\
| =========                 |                                                 |
| \\      /  F ield         | OpenFOAM: The Open Source CFD Toolbox           |
|  \\    /   O peration     | Version:  v1912                                 |
|   \\  /    A nd           | Website:  www.openfoam.com                      |
|    \\/     M anipulation  |                                                 |
\*---------------------------------------------------------------------------*/
FoamFile
{
    version     2.0;
    format      ascii;
    class       volScalarField;
    location    "100";
    object      nut;
}
// * * * * * * * * * * * * * * * * * * * * * * * * * * * * * * * * * * * * * //

dimensions      [0 2 -1 0 0 0 0];


internalField   nonuniform List<scalar> 
60000
(
3.89599e-05
3.66834e-05
3.52e-05
3.41495e-05
3.33565e-05
3.27304e-05
3.22166e-05
3.17864e-05
3.1412e-05
3.10894e-05
3.07954e-05
3.05402e-05
3.02977e-05
3.00885e-05
2.98822e-05
2.97052e-05
2.95268e-05
2.93724e-05
2.92177e-05
2.90782e-05
2.89456e-05
2.88143e-05
2.87034e-05
2.85752e-05
2.84859e-05
2.8357e-05
2.82885e-05
2.81575e-05
2.8107e-05
2.79753e-05
2.79382e-05
2.78089e-05
2.77795e-05
2.76577e-05
2.76283e-05
2.75213e-05
2.74822e-05
2.73993e-05
2.73405e-05
2.72889e-05
2.72049e-05
2.71864e-05
2.70767e-05
2.70901e-05
2.69548e-05
2.69989e-05
2.68403e-05
2.69088e-05
2.67339e-05
2.68187e-05
2.66311e-05
2.67285e-05
2.65313e-05
2.66489e-05
2.64428e-05
2.6529e-05
2.61649e-05
2.60915e-05
2.6021e-05
2.8569e-05
6.80605e-05
0.000156707
0.00025252
0.000351182
0.00044101
0.000516218
0.000570372
0.000582578
0.000589631
0.000601437
0.000595373
0.000583468
0.000568166
0.000551263
0.00053393
0.000516945
0.000500769
0.000485729
0.000471918
0.000459556
0.00044846
0.000438893
0.000430657
0.000423511
0.000418399
0.000413254
0.00041065
0.000409047
0.00040587
0.000409626
0.000415793
0.000414127
0.000420777
0.000420053
0.000431188
0.000437336
0.000451474
0.000463645
0.000479968
0.0005063
3.89611e-05
3.66861e-05
3.52031e-05
3.41529e-05
3.33604e-05
3.27346e-05
3.22214e-05
3.17909e-05
3.14177e-05
3.10939e-05
3.08018e-05
3.05448e-05
3.03048e-05
3.00934e-05
2.98894e-05
2.97112e-05
2.95336e-05
2.93803e-05
2.92236e-05
2.9089e-05
2.895e-05
2.88286e-05
2.87064e-05
2.85931e-05
2.8488e-05
2.83782e-05
2.82908e-05
2.81807e-05
2.81114e-05
2.7999e-05
2.79465e-05
2.78317e-05
2.77939e-05
2.76775e-05
2.76515e-05
2.75352e-05
2.75176e-05
2.74042e-05
2.73908e-05
2.72837e-05
2.72696e-05
2.71741e-05
2.71501e-05
2.7079e-05
2.70267e-05
2.70002e-05
2.68998e-05
2.69297e-05
2.67807e-05
2.68502e-05
2.6679e-05
2.67614e-05
2.65745e-05
2.66912e-05
2.64831e-05
2.65804e-05
2.62141e-05
2.61206e-05
2.60599e-05
2.78896e-05
6.82655e-05
0.000161656
0.000251219
0.000348677
0.000439303
0.000514746
0.000568736
0.000581818
0.000589479
0.000600714
0.000594553
0.000582578
0.000567227
0.000550299
0.00053297
0.000516013
0.000499882
0.0004849
0.000471154
0.000458861
0.000447835
0.000438333
0.000430156
0.000423066
0.000418
0.00041288
0.000410326
0.000408715
0.000405529
0.000409456
0.000415125
0.000414379
0.000419915
0.00042042
0.000430644
0.000437075
0.000450996
0.000463452
0.000479038
0.000506188
3.89624e-05
3.6689e-05
3.52062e-05
3.41557e-05
3.33629e-05
3.27365e-05
3.22235e-05
3.17923e-05
3.14201e-05
3.10953e-05
3.08052e-05
3.05465e-05
3.03097e-05
3.0096e-05
2.98962e-05
2.97152e-05
2.95423e-05
2.93868e-05
2.92338e-05
2.90989e-05
2.89614e-05
2.88434e-05
2.87183e-05
2.86141e-05
2.84998e-05
2.84065e-05
2.8302e-05
2.82177e-05
2.81221e-05
2.80445e-05
2.7958e-05
2.78841e-05
2.7809e-05
2.7734e-05
2.76736e-05
2.75928e-05
2.75504e-05
2.74599e-05
2.74375e-05
2.73348e-05
2.73329e-05
2.72183e-05
2.72331e-05
2.71127e-05
2.71342e-05
2.70176e-05
2.70384e-05
2.69252e-05
2.69504e-05
2.68334e-05
2.68605e-05
2.67503e-05
2.67544e-05
2.66993e-05
2.66299e-05
2.66388e-05
2.6416e-05
2.60569e-05
2.60961e-05
2.70387e-05
6.23301e-05
0.000159104
0.000243767
0.000339519
0.000430604
0.000506862
0.000563159
0.000579372
0.000585612
0.000597523
0.000591842
0.000580194
0.000565023
0.000548225
0.000531013
0.000514174
0.000498158
0.000483293
0.00046966
0.000457474
0.000446556
0.000437136
0.000429059
0.000422023
0.000417026
0.000411964
0.000409393
0.000407902
0.000404599
0.000408741
0.000412931
0.000414895
0.000417945
0.000420365
0.000429422
0.000436251
0.000449931
0.000462789
0.000477678
0.000505506
3.89637e-05
3.66917e-05
3.52091e-05
3.41582e-05
3.33651e-05
3.27385e-05
3.22257e-05
3.17945e-05
3.14231e-05
3.10983e-05
3.08095e-05
3.05509e-05
3.0316e-05
3.01022e-05
2.9905e-05
2.97238e-05
2.95545e-05
2.9398e-05
2.92503e-05
2.91132e-05
2.89827e-05
2.88614e-05
2.8745e-05
2.86367e-05
2.85319e-05
2.84351e-05
2.83392e-05
2.82538e-05
2.81632e-05
2.80902e-05
2.80026e-05
2.79413e-05
2.78559e-05
2.78049e-05
2.77216e-05
2.76796e-05
2.75985e-05
2.75632e-05
2.74865e-05
2.74535e-05
2.73855e-05
2.7349e-05
2.72943e-05
2.72484e-05
2.72128e-05
2.71491e-05
2.71421e-05
2.70462e-05
2.7084e-05
2.69399e-05
2.70221e-05
2.68505e-05
2.6935e-05
2.67749e-05
2.68711e-05
2.6677e-05
2.66663e-05
2.62371e-05
2.62757e-05
2.66778e-05
5.24557e-05
0.000153749
0.000233938
0.000326645
0.000416758
0.000494674
0.000550555
0.000574544
0.000580561
0.000591622
0.000587753
0.000576814
0.000561997
0.000545446
0.000528437
0.000511783
0.000495936
0.000481235
0.000467751
0.000455701
0.000444918
0.000435592
0.00042764
0.000420655
0.00041574
0.000410752
0.00040812
0.000406807
0.000403355
0.000407536
0.000411681
0.000413915
0.000415203
0.000419149
0.000427923
0.000435037
0.00044846
0.000461647
0.000476234
0.0005042
3.89651e-05
3.66943e-05
3.52115e-05
3.41602e-05
3.33666e-05
3.27397e-05
3.2227e-05
3.1796e-05
3.14252e-05
3.11009e-05
3.08134e-05
3.05555e-05
3.03225e-05
3.01097e-05
2.99149e-05
2.97351e-05
2.95686e-05
2.9414e-05
2.92695e-05
2.91348e-05
2.9008e-05
2.88894e-05
2.87775e-05
2.86717e-05
2.8573e-05
2.84772e-05
2.83907e-05
2.83023e-05
2.82278e-05
2.81452e-05
2.8081e-05
2.80037e-05
2.79483e-05
2.78768e-05
2.78266e-05
2.77635e-05
2.77136e-05
2.76634e-05
2.76084e-05
2.75739e-05
2.75112e-05
2.74927e-05
2.74218e-05
2.74177e-05
2.73393e-05
2.73479e-05
2.72609e-05
2.72835e-05
2.71857e-05
2.7217e-05
2.71176e-05
2.71433e-05
2.70421e-05
2.70711e-05
2.69939e-05
2.69488e-05
2.68873e-05
2.65021e-05
2.62452e-05
2.71257e-05
4.25421e-05
0.000141234
0.000227521
0.000311985
0.000400812
0.000479089
0.000538702
0.000568913
0.000576925
0.000585274
0.000583332
0.000573011
0.000558562
0.000542287
0.000525512
0.000509074
0.000493425
0.000478914
0.000465604
0.00045371
0.000443085
0.000433864
0.000426057
0.000419124
0.0004143
0.000409392
0.000406685
0.000405547
0.000401994
0.00040602
0.000410307
0.00041253
0.00041364
0.000417199
0.000426343
0.000433572
0.000446722
0.000460105
0.000474561
0.000502511
3.89666e-05
3.66969e-05
3.52134e-05
3.41612e-05
3.33671e-05
3.27399e-05
3.22274e-05
3.17967e-05
3.14268e-05
3.11034e-05
3.08175e-05
3.05609e-05
3.03302e-05
3.0119e-05
2.99277e-05
2.97494e-05
2.95877e-05
2.94346e-05
2.9296e-05
2.91632e-05
2.90431e-05
2.89272e-05
2.88219e-05
2.87207e-05
2.86273e-05
2.85384e-05
2.84559e-05
2.83784e-05
2.83053e-05
2.82361e-05
2.81732e-05
2.81098e-05
2.80575e-05
2.79961e-05
2.79553e-05
2.78958e-05
2.7864e-05
2.78083e-05
2.77817e-05
2.7731e-05
2.77092e-05
2.76603e-05
2.76463e-05
2.75951e-05
2.75894e-05
2.75381e-05
2.75304e-05
2.74951e-05
2.74616e-05
2.74617e-05
2.7393e-05
2.74114e-05
2.73352e-05
2.73456e-05
2.72771e-05
2.72901e-05
2.71604e-05
2.68662e-05
2.65e-05
2.73669e-05
3.4773e-05
0.000121516
0.000220724
0.00029721
0.000384611
0.000463998
0.000524632
0.000565011
0.000574638
0.000578861
0.000579817
0.000569315
0.000555117
0.000539094
0.000522547
0.000506326
0.00049088
0.000476567
0.00046344
0.000451713
0.000441257
0.000432147
0.000424495
0.000417616
0.000412883
0.000408052
0.000405276
0.000404274
0.000400647
0.000404508
0.000408891
0.000411033
0.00041236
0.000415482
0.000424743
0.000431935
0.000444879
0.000458283
0.000472652
0.000500535
3.89681e-05
3.66992e-05
3.5215e-05
3.41618e-05
3.33668e-05
3.27393e-05
3.22269e-05
3.17968e-05
3.1428e-05
3.1106e-05
3.08218e-05
3.05675e-05
3.03394e-05
3.01312e-05
2.99432e-05
2.97688e-05
2.96114e-05
2.94629e-05
2.93299e-05
2.9202e-05
2.9089e-05
2.89781e-05
2.88818e-05
2.87846e-05
2.87025e-05
2.86193e-05
2.85491e-05
2.84767e-05
2.84173e-05
2.83555e-05
2.83045e-05
2.82502e-05
2.82078e-05
2.81614e-05
2.81253e-05
2.80875e-05
2.80543e-05
2.80273e-05
2.79932e-05
2.79776e-05
2.79423e-05
2.79349e-05
2.79018e-05
2.78956e-05
2.78717e-05
2.78562e-05
2.78493e-05
2.78205e-05
2.78214e-05
2.77951e-05
2.7784e-05
2.77604e-05
2.77503e-05
2.77009e-05
2.77126e-05
2.76552e-05
2.76266e-05
2.72907e-05
2.70503e-05
2.73421e-05
3.04299e-05
9.36475e-05
0.000213268
0.000284743
0.000371326
0.000451003
0.00051429
0.000554567
0.000571078
0.000574473
0.0005759
0.000566009
0.00055209
0.000536263
0.0005199
0.000503866
0.000488602
0.000474474
0.000461523
0.000449958
0.000439667
0.000430666
0.00042316
0.000416334
0.000411684
0.000406909
0.000404088
0.00040314
0.000399477
0.000403195
0.000407639
0.00040958
0.000411321
0.000414226
0.000423289
0.000430264
0.000443026
0.000456289
0.000470554
0.000498312
3.89697e-05
3.67014e-05
3.5216e-05
3.41614e-05
3.33655e-05
3.27377e-05
3.22255e-05
3.17965e-05
3.14288e-05
3.1109e-05
3.0827e-05
3.05759e-05
3.03509e-05
3.01472e-05
2.99633e-05
2.97948e-05
2.96422e-05
2.95012e-05
2.9374e-05
2.92551e-05
2.91489e-05
2.90482e-05
2.89578e-05
2.88757e-05
2.88009e-05
2.87326e-05
2.86705e-05
2.86167e-05
2.85649e-05
2.85195e-05
2.84794e-05
2.84424e-05
2.84138e-05
2.83821e-05
2.83645e-05
2.83372e-05
2.83285e-05
2.83065e-05
2.83032e-05
2.82881e-05
2.82865e-05
2.82806e-05
2.82754e-05
2.82816e-05
2.82707e-05
2.82834e-05
2.82763e-05
2.82819e-05
2.82855e-05
2.82846e-05
2.82881e-05
2.82895e-05
2.82888e-05
2.82854e-05
2.83057e-05
2.83223e-05
2.8306e-05
2.80621e-05
2.79489e-05
2.81863e-05
2.94045e-05
6.87328e-05
0.00020515
0.000278237
0.000364008
0.000443653
0.00050699
0.000550758
0.000569389
0.000573539
0.000573461
0.00056385
0.000549992
0.000534232
0.000517963
0.000502053
0.000486923
0.000472945
0.000460142
0.000448716
0.000438567
0.000429659
0.000422274
0.000415489
0.000410897
0.00040614
0.000403302
0.000402293
0.00039865
0.000402181
0.000406857
0.000408151
0.00041096
0.000413315
0.000422075
0.000428633
0.000441244
0.000454204
0.000468313
0.000495856
3.89714e-05
3.67034e-05
3.52165e-05
3.41603e-05
3.33633e-05
3.27351e-05
3.22235e-05
3.17957e-05
3.14299e-05
3.11126e-05
3.08339e-05
3.05867e-05
3.03664e-05
3.01681e-05
2.99903e-05
2.98289e-05
2.96837e-05
2.95522e-05
2.94331e-05
2.93264e-05
2.92273e-05
2.91408e-05
2.90651e-05
2.8996e-05
2.89368e-05
2.88853e-05
2.88404e-05
2.8799e-05
2.87681e-05
2.8739e-05
2.87209e-05
2.8701e-05
2.86949e-05
2.86821e-05
2.86871e-05
2.86801e-05
2.86946e-05
2.8693e-05
2.87145e-05
2.87191e-05
2.87435e-05
2.8757e-05
2.8779e-05
2.8805e-05
2.88226e-05
2.88602e-05
2.88828e-05
2.89299e-05
2.89706e-05
2.90523e-05
2.91525e-05
2.93255e-05
2.95122e-05
2.97937e-05
3.01219e-05
3.05512e-05
3.09017e-05
3.09179e-05
3.26591e-05
3.36135e-05
3.47871e-05
6.01542e-05
0.000190121
0.000281555
0.00036504
0.000443225
0.000506057
0.000549287
0.00056998
0.000574971
0.000573508
0.000563362
0.000549257
0.000533396
0.000517107
0.000501232
0.00048617
0.000472284
0.000459581
0.00044825
0.0004382
0.000429352
0.000422042
0.00041527
0.000410695
0.000405905
0.00040306
0.000401865
0.000398295
0.000401466
0.000407386
0.000405883
0.000411717
0.000411984
0.000421211
0.000427055
0.000439578
0.000452062
0.000465945
0.00049315
3.89732e-05
3.67053e-05
3.52165e-05
3.41582e-05
3.33602e-05
3.27316e-05
3.22209e-05
3.17947e-05
3.14317e-05
3.11175e-05
3.08437e-05
3.06008e-05
3.0388e-05
3.01951e-05
3.00278e-05
2.98732e-05
2.97414e-05
2.96186e-05
2.95146e-05
2.94153e-05
2.93387e-05
2.92676e-05
2.921e-05
2.91627e-05
2.91228e-05
2.90895e-05
2.90653e-05
2.90503e-05
2.90412e-05
2.90405e-05
2.90445e-05
2.90561e-05
2.9072e-05
2.90932e-05
2.91212e-05
2.91482e-05
2.91895e-05
2.92185e-05
2.92731e-05
2.93056e-05
2.93678e-05
2.94154e-05
2.94796e-05
2.95631e-05
2.96374e-05
2.98261e-05
2.99868e-05
3.03333e-05
3.06913e-05
3.18834e-05
3.28177e-05
3.44079e-05
3.60079e-05
3.80665e-05
4.11409e-05
4.2656e-05
4.51885e-05
5.01589e-05
5.19721e-05
5.18108e-05
5.57744e-05
7.21096e-05
0.000175974
0.000281376
0.000371618
0.000449303
0.000510896
0.000552422
0.000573449
0.000578473
0.000575776
0.00056473
0.000550159
0.000534042
0.000517615
0.00050168
0.000486604
0.000472741
0.000460078
0.000448781
0.000438764
0.000429927
0.000422623
0.000415823
0.000411202
0.000406317
0.000403443
0.00040196
0.000398445
0.000401256
0.000407374
0.000404834
0.000411453
0.000410524
0.000420435
0.000425576
0.000437946
0.000449835
0.00046342
0.000490139
3.89753e-05
3.6707e-05
3.52159e-05
3.41551e-05
3.33562e-05
3.2727e-05
3.22182e-05
3.17938e-05
3.14347e-05
3.11248e-05
3.08568e-05
3.0621e-05
3.04165e-05
3.02329e-05
3.00777e-05
2.99337e-05
2.98193e-05
2.97058e-05
2.96195e-05
2.95462e-05
2.94876e-05
2.94439e-05
2.94094e-05
2.93851e-05
2.93673e-05
2.93703e-05
2.93702e-05
2.93949e-05
2.94102e-05
2.94528e-05
2.94833e-05
2.95401e-05
2.95853e-05
2.96522e-05
2.97146e-05
2.97836e-05
2.98743e-05
2.99327e-05
3.00705e-05
3.01241e-05
3.03236e-05
3.0455e-05
3.08019e-05
3.11313e-05
3.21185e-05
3.32963e-05
3.52013e-05
3.6932e-05
4.18211e-05
4.74465e-05
5.43049e-05
6.29263e-05
7.11113e-05
7.96808e-05
8.64151e-05
9.22853e-05
9.47521e-05
0.000100208
0.000103484
0.000104698
0.000110626
0.000117667
0.000177413
0.000289142
0.000382013
0.000459154
0.000519974
0.000559971
0.000579644
0.000583974
0.000579923
0.000567926
0.000552766
0.000536281
0.000519623
0.000503542
0.00048838
0.000474474
0.000461783
0.000450431
0.00044037
0.000431479
0.000424098
0.00041721
0.000412469
0.000407426
0.000404459
0.000402606
0.000399108
0.00040136
0.000406932
0.000404485
0.000411407
0.000409725
0.000419536
0.000424143
0.000436242
0.000447441
0.000460653
0.000486723
3.89779e-05
3.67084e-05
3.52146e-05
3.41509e-05
3.33513e-05
3.27214e-05
3.22155e-05
3.1793e-05
3.144e-05
3.11353e-05
3.08753e-05
3.06496e-05
3.04542e-05
3.02872e-05
3.01418e-05
3.00217e-05
2.99114e-05
2.98324e-05
2.97717e-05
2.9724e-05
2.96988e-05
2.96776e-05
2.96725e-05
2.9687e-05
2.9707e-05
2.97511e-05
2.97907e-05
2.98614e-05
2.99197e-05
3.00112e-05
3.00917e-05
3.01951e-05
3.03053e-05
3.04127e-05
3.05633e-05
3.06791e-05
3.08987e-05
3.10375e-05
3.14868e-05
3.17115e-05
3.28768e-05
3.4317e-05
3.60692e-05
3.95846e-05
4.58222e-05
5.33579e-05
6.59191e-05
7.78469e-05
9.33874e-05
0.000107387
0.000122252
0.000137125
0.000148118
0.000159845
0.00016498
0.000171804
0.000178189
0.00018529
0.000187778
0.000187107
0.000196097
0.000198027
0.000215972
0.000307399
0.00039938
0.000475517
0.000531874
0.000569413
0.000586665
0.000590032
0.000585594
0.000572724
0.000556927
0.000540026
0.000523087
0.000506801
0.000491518
0.000477515
0.000464721
0.000453236
0.000443039
0.000434008
0.000426447
0.000419395
0.000414434
0.000409165
0.000406011
0.000403727
0.000400308
0.000400438
0.000405341
0.000404485
0.000411721
0.000409483
0.000418551
0.000422637
0.000434335
0.00044475
0.000457511
0.000482775
3.89815e-05
3.67091e-05
3.52126e-05
3.41455e-05
3.33449e-05
3.27151e-05
3.2213e-05
3.17932e-05
3.14493e-05
3.11492e-05
3.09039e-05
3.06868e-05
3.05099e-05
3.03586e-05
3.0234e-05
3.01279e-05
3.00605e-05
3.00085e-05
2.99786e-05
2.99717e-05
2.99702e-05
3.00004e-05
3.00394e-05
3.01039e-05
3.01752e-05
3.0272e-05
3.03727e-05
3.05015e-05
3.06296e-05
3.07929e-05
3.09482e-05
3.11544e-05
3.13576e-05
3.16138e-05
3.19681e-05
3.23982e-05
3.30502e-05
3.43427e-05
3.67681e-05
3.88396e-05
4.54623e-05
5.33106e-05
6.86472e-05
8.41673e-05
0.000103367
0.000122003
0.000142676
0.000159764
0.00017824
0.000192462
0.00020632
0.000218466
0.000226804
0.000236403
0.000236297
0.000244709
0.000253667
0.000261185
0.000264263
0.000266867
0.000267216
0.00027543
0.000281732
0.000337403
0.000424075
0.000495032
0.000548053
0.000582826
0.000596117
0.000598046
0.000592291
0.000578451
0.000562176
0.000544939
0.000527735
0.000511219
0.000495779
0.000481602
0.000468627
0.000457006
0.000446628
0.000437404
0.000429584
0.000422311
0.000416997
0.000411431
0.000407961
0.000405215
0.000401689
0.000400509
0.000404952
0.000404352
0.000412162
0.000409422
0.000417361
0.000420871
0.000432035
0.000441564
0.000453799
0.000478106
3.89867e-05
3.67077e-05
3.52103e-05
3.41376e-05
3.33372e-05
3.27085e-05
3.22101e-05
3.17969e-05
3.14625e-05
3.11714e-05
3.09452e-05
3.07382e-05
3.05915e-05
3.04541e-05
3.03604e-05
3.03024e-05
3.02583e-05
3.02567e-05
3.02565e-05
3.03042e-05
3.0349e-05
3.0449e-05
3.05357e-05
3.06838e-05
3.08121e-05
3.1015e-05
3.11882e-05
3.14541e-05
3.16908e-05
3.20436e-05
3.23561e-05
3.29783e-05
3.33692e-05
3.47231e-05
3.60687e-05
3.8908e-05
4.14309e-05
4.97495e-05
6.03787e-05
7.91397e-05
9.94642e-05
0.000122014
0.000145357
0.000166723
0.000188045
0.000206171
0.000224099
0.000239369
0.000255384
0.000267183
0.000280481
0.000290298
0.000297819
0.000302923
0.000312657
0.000313908
0.00031614
0.000318483
0.000319694
0.000324667
0.000328787
0.000338461
0.000346382
0.000382823
0.000456009
0.000518302
0.000565564
0.000593168
0.000603332
0.000607883
0.000599877
0.000585693
0.000568917
0.000551299
0.000533795
0.00051703
0.000501263
0.000486779
0.000473507
0.000461591
0.000450888
0.000441349
0.000433148
0.00042556
0.000419809
0.000413909
0.000410014
0.000406807
0.000403043
0.000400839
0.000405029
0.000404022
0.000412185
0.000408852
0.00041577
0.000418569
0.000429134
0.000437638
0.000449273
0.000472423
3.89941e-05
3.67019e-05
3.52097e-05
3.41244e-05
3.33313e-05
3.26998e-05
3.22096e-05
3.18063e-05
3.1481e-05
3.12098e-05
3.10004e-05
3.08175e-05
3.07046e-05
3.05889e-05
3.05582e-05
3.05161e-05
3.05409e-05
3.05754e-05
3.06469e-05
3.07545e-05
3.08727e-05
3.10607e-05
3.12443e-05
3.15174e-05
3.18039e-05
3.21991e-05
3.26124e-05
3.32265e-05
3.38724e-05
3.47806e-05
3.61817e-05
3.8503e-05
4.02873e-05
4.55462e-05
5.27526e-05
6.53636e-05
8.44742e-05
0.000107487
0.000132103
0.000157316
0.000181477
0.000203894
0.000225056
0.00024466
0.000263348
0.00028024
0.000295993
0.000310001
0.000323559
0.000333356
0.000346078
0.000352027
0.00036375
0.000365663
0.000370942
0.000372387
0.000372942
0.000373578
0.000374319
0.000376816
0.000382813
0.000393052
0.0004039
0.00043268
0.000491281
0.000544184
0.000583523
0.000603903
0.000615079
0.000617236
0.000607265
0.000592562
0.000575492
0.000557608
0.000539846
0.000522822
0.000506798
0.000492044
0.000478495
0.000466282
0.00045525
0.000445382
0.00043677
0.000428836
0.000422593
0.000416323
0.000411922
0.000408203
0.000404174
0.000400874
0.000405007
0.000403135
0.000411313
0.000407152
0.000413508
0.000415345
0.000425375
0.000432725
0.000443673
0.000465487
3.90026e-05
3.66905e-05
3.52135e-05
3.4102e-05
3.3334e-05
3.26834e-05
3.22221e-05
3.18173e-05
3.15157e-05
3.1269e-05
3.10763e-05
3.09435e-05
3.08474e-05
3.07947e-05
3.08061e-05
3.08077e-05
3.09292e-05
3.09851e-05
3.11876e-05
3.13549e-05
3.16522e-05
3.20276e-05
3.24458e-05
3.3139e-05
3.38752e-05
3.48846e-05
3.6389e-05
3.78687e-05
4.05271e-05
4.26679e-05
4.80509e-05
5.4132e-05
6.75605e-05
8.56077e-05
0.000108416
0.000133664
0.000159579
0.000185331
0.000209656
0.000233296
0.000255291
0.000276154
0.000295249
0.000312998
0.000329344
0.00034434
0.000357804
0.000370591
0.00038166
0.000389817
0.00040189
0.000408221
0.000416079
0.000418518
0.000420549
0.000421693
0.000422109
0.000422505
0.000423404
0.000426072
0.000432162
0.000442072
0.000454363
0.000482022
0.000527218
0.000570134
0.000598167
0.00061582
0.000627879
0.000625125
0.000614296
0.000599097
0.000581734
0.000563641
0.000545694
0.000528474
0.000512235
0.000497218
0.000483374
0.000470831
0.000459426
0.000449185
0.000440111
0.000431786
0.000424998
0.000418307
0.000413365
0.00040904
0.000404734
0.000400531
0.000404115
0.000401593
0.000409684
0.000403875
0.00041035
0.000410657
0.00042047
0.000426494
0.000436741
0.000456968
3.90098e-05
3.66757e-05
3.52223e-05
3.40696e-05
3.33522e-05
3.26529e-05
3.22645e-05
3.18181e-05
3.15951e-05
3.13344e-05
3.12047e-05
3.11041e-05
3.10338e-05
3.1059e-05
3.10954e-05
3.12405e-05
3.13682e-05
3.16014e-05
3.20273e-05
3.24107e-05
3.33791e-05
3.41148e-05
3.56836e-05
3.77847e-05
3.94579e-05
4.2576e-05
4.55839e-05
5.14699e-05
5.89176e-05
7.03403e-05
8.59947e-05
0.000106049
0.000129474
0.000154656
0.00018034
0.000205988
0.000230966
0.00025519
0.000277926
0.000299544
0.000319327
0.000338043
0.000354879
0.000370685
0.000384894
0.000397673
0.00040943
0.00042118
0.000430332
0.000438122
0.00044789
0.000453164
0.000457696
0.000460348
0.000462176
0.000463316
0.000464008
0.000464794
0.000466324
0.000469728
0.000475974
0.000486021
0.000499245
0.000524814
0.000559853
0.000591413
0.000613883
0.000631248
0.000638134
0.000632471
0.000620552
0.000604854
0.000587233
0.000568969
0.000550873
0.000533481
0.000517037
0.000501761
0.000487619
0.000474732
0.000462934
0.000452294
0.000442731
0.00043398
0.000426621
0.000419446
0.000413986
0.000408895
0.000404385
0.000399575
0.000402257
0.00039933
0.000406255
0.000399063
0.000406312
0.000403775
0.000414063
0.000418526
0.000428163
0.000446487
3.90127e-05
3.66647e-05
3.5232e-05
3.40343e-05
3.33852e-05
3.26123e-05
3.23461e-05
3.18034e-05
3.17458e-05
3.13754e-05
3.14267e-05
3.12219e-05
3.13274e-05
3.14117e-05
3.14646e-05
3.18559e-05
3.20756e-05
3.3142e-05
3.38256e-05
3.594e-05
3.81015e-05
4.01588e-05
4.4105e-05
4.92915e-05
5.60244e-05
6.40129e-05
7.4096e-05
8.7178e-05
0.000103718
0.000123576
0.000146004
0.000170029
0.00019502
0.000220285
0.000245244
0.000269582
0.00029278
0.000314921
0.000335547
0.000354894
0.000372504
0.000389072
0.000403747
0.000417686
0.000429784
0.000441847
0.000451466
0.000462507
0.000469641
0.000476408
0.00048334
0.000488191
0.000491805
0.000494286
0.000496137
0.000497575
0.000498857
0.000500359
0.000502846
0.000507145
0.00051411
0.000524486
0.00053895
0.000561427
0.000587615
0.000609968
0.000629084
0.000644387
0.000645681
0.000638273
0.000625399
0.000609236
0.000591387
0.00057299
0.000554781
0.000537246
0.000520619
0.000505098
0.000490665
0.000477433
0.00046524
0.00045419
0.00044413
0.00043493
0.000426999
0.000419278
0.000413349
0.000407319
0.000402658
0.00039851
0.000400382
0.000397024
0.000400451
0.000392873
0.000400242
0.000394729
0.000405492
0.000408218
0.00041766
0.000433609
3.90096e-05
3.66672e-05
3.5233e-05
3.40105e-05
3.34214e-05
3.25803e-05
3.24549e-05
3.17884e-05
3.19444e-05
3.13712e-05
3.17026e-05
3.12684e-05
3.17989e-05
3.1592e-05
3.25056e-05
3.31482e-05
3.49042e-05
3.75574e-05
3.95859e-05
4.44581e-05
5.00762e-05
5.83489e-05
6.73623e-05
7.76542e-05
8.94436e-05
0.000103169
0.000119175
0.000137568
0.000158191
0.000180586
0.000204266
0.000228507
0.000252901
0.000276901
0.000300197
0.000322613
0.000343689
0.000363667
0.00038211
0.000399228
0.000414783
0.000429318
0.000442242
0.00045467
0.00046516
0.000476108
0.00048412
0.000492756
0.000499566
0.000505236
0.000510633
0.000514858
0.000518059
0.000520552
0.000522644
0.000524672
0.000526731
0.000529066
0.000532797
0.000538101
0.000546749
0.000557833
0.000572197
0.000590488
0.000609145
0.000625788
0.000643023
0.000653408
0.000650974
0.000641849
0.000628115
0.000611545
0.000593509
0.000575018
0.000556735
0.000539101
0.000522321
0.000506578
0.000491873
0.000478312
0.000465737
0.000454281
0.000443735
0.000434075
0.000425581
0.00041727
0.000410913
0.000403797
0.000399367
0.000393107
0.000394497
0.000390753
0.000392513
0.000383902
0.000391222
0.000383349
0.000394132
0.00039537
0.00040453
0.000417892
3.90049e-05
3.66897e-05
3.52119e-05
3.40175e-05
3.34417e-05
3.25782e-05
3.25563e-05
3.17701e-05
3.2097e-05
3.12913e-05
3.20829e-05
3.13997e-05
3.28061e-05
3.29822e-05
3.5956e-05
3.842e-05
4.14246e-05
4.79726e-05
5.69771e-05
6.729e-05
7.87537e-05
9.08124e-05
0.000103496
0.000117061
0.000131931
0.000148537
0.000166984
0.000187198
0.000208881
0.000231511
0.00025469
0.00027786
0.000300768
0.000322953
0.000344285
0.000364609
0.000383489
0.000401389
0.000417713
0.000432823
0.000446705
0.000459559
0.000470815
0.000481861
0.000490829
0.000499593
0.000506813
0.000513615
0.000519447
0.000524372
0.000528779
0.000532463
0.00053545
0.000538134
0.000540653
0.000543617
0.00054657
0.000549888
0.000555802
0.00056348
0.000572867
0.000584185
0.000597561
0.00061171
0.000623625
0.000637243
0.000652535
0.000657793
0.000652815
0.000642322
0.000627868
0.000610968
0.000592793
0.000574251
0.000555945
0.000538272
0.000521383
0.000505454
0.00049051
0.000476644
0.000463715
0.00045187
0.000440866
0.000430747
0.000421702
0.000412793
0.00040598
0.00039783
0.000393321
0.000385831
0.000385251
0.000380484
0.00038148
0.000372037
0.000378917
0.000369584
0.000379409
0.000379484
0.000388097
0.000398852
3.90023e-05
3.67236e-05
3.51602e-05
3.40765e-05
3.34085e-05
3.26144e-05
3.25633e-05
3.16739e-05
3.22285e-05
3.13903e-05
3.26761e-05
3.27194e-05
3.63076e-05
3.87776e-05
4.24811e-05
5.11603e-05
6.21435e-05
7.47526e-05
8.82909e-05
0.000101485
0.000114885
0.000128096
0.000141949
0.000156823
0.000173033
0.000190804
0.000209925
0.00023033
0.000251656
0.000273386
0.000295252
0.000316801
0.000337855
0.000358033
0.000377361
0.000395589
0.000412349
0.000428384
0.000442882
0.000456244
0.000468144
0.000479298
0.000488861
0.000497774
0.000505546
0.000513086
0.000519718
0.000525828
0.000531184
0.000535802
0.000539901
0.000543494
0.000546604
0.000549635
0.000552531
0.00055632
0.000559159
0.000564725
0.000571327
0.000579935
0.000590276
0.000601924
0.000614456
0.000625096
0.000632115
0.000643312
0.000655992
0.000656937
0.000650259
0.00063876
0.000623684
0.000606551
0.000588288
0.000569734
0.000551456
0.000533852
0.000516907
0.000500837
0.000485697
0.000471564
0.000458319
0.000446116
0.000434695
0.000424128
0.000414538
0.000405069
0.000397691
0.000388711
0.000383613
0.000375844
0.000371469
0.000365761
0.000366482
0.000356349
0.000362445
0.000352979
0.000360765
0.000359877
0.000367629
0.000375824
3.90138e-05
3.67457e-05
3.50991e-05
3.41818e-05
3.32431e-05
3.2661e-05
3.2263e-05
3.1678e-05
3.24079e-05
3.23372e-05
3.56912e-05
3.88565e-05
4.27299e-05
5.22e-05
6.48956e-05
7.94316e-05
9.39188e-05
0.000108584
0.000122368
0.000135379
0.000148967
0.000162097
0.000176483
0.000191837
0.000208363
0.00022616
0.000244795
0.000264535
0.000284795
0.000305037
0.0003252
0.000344932
0.000363927
0.000382155
0.000399462
0.000415543
0.000430269
0.000444126
0.000456704
0.000468701
0.000479428
0.000489341
0.00049798
0.000505968
0.000513066
0.000519509
0.000525226
0.000530441
0.000535102
0.000539227
0.000542977
0.000546493
0.000549829
0.000553372
0.000556967
0.000561833
0.000566603
0.00057486
0.000580567
0.00058938
0.00060017
0.000610724
0.000622705
0.000630016
0.000633247
0.000642026
0.000652221
0.000650514
0.000642663
0.000630594
0.000615281
0.000597976
0.000579493
0.000560783
0.000542394
0.000524762
0.000507786
0.000491628
0.000476346
0.000461992
0.000448479
0.000435957
0.00042418
0.000413184
0.000403052
0.000393093
0.000384982
0.00037545
0.000369351
0.000361463
0.000350728
0.000345235
0.000346128
0.000336222
0.000341705
0.000332489
0.000337502
0.000335735
0.000342116
0.00034797
3.90399e-05
3.67242e-05
3.5085e-05
3.42006e-05
3.28404e-05
3.27033e-05
3.19672e-05
3.26027e-05
3.44447e-05
3.82949e-05
4.14932e-05
5.1797e-05
6.51004e-05
7.96042e-05
9.60551e-05
0.000110851
0.000124855
0.000139042
0.00015148
0.000164287
0.000177323
0.000190498
0.000204542
0.000219543
0.000235579
0.000252645
0.000270402
0.000288764
0.000307402
0.000325936
0.00034416
0.00036171
0.000378533
0.00039458
0.000409978
0.000424602
0.000438125
0.000450857
0.000462152
0.000472555
0.000481652
0.000489851
0.000497237
0.000504022
0.000510164
0.000515802
0.000520855
0.000525483
0.000529689
0.000533514
0.000537115
0.000540678
0.000544268
0.000548192
0.000552561
0.000559387
0.000564438
0.000572795
0.000579581
0.000588568
0.000598623
0.000610224
0.000620222
0.000625947
0.000627179
0.000632447
0.000639834
0.000636173
0.000627306
0.000614783
0.000599627
0.00058282
0.000564801
0.000546239
0.000527944
0.000510205
0.000493137
0.000476846
0.00046139
0.000446795
0.000433005
0.000420154
0.000407996
0.000396579
0.000385915
0.000375545
0.00036653
0.000356713
0.000349479
0.000339101
0.000325452
0.00031969
0.000319651
0.000311204
0.000315732
0.000306925
0.000308624
0.000306101
0.000310312
0.000314321
3.90666e-05
3.66597e-05
3.51169e-05
3.3647e-05
3.25129e-05
3.2834e-05
3.2631e-05
3.73045e-05
4.06593e-05
4.83412e-05
6.18374e-05
7.7628e-05
9.39885e-05
0.000107934
0.000124086
0.000137132
0.000149953
0.000162546
0.000174311
0.000185893
0.000197946
0.00021054
0.000224039
0.000238215
0.000253282
0.000269065
0.000285265
0.000301784
0.000318404
0.000335092
0.000351609
0.000367695
0.00038311
0.000397646
0.0004111
0.00042371
0.000435368
0.000446288
0.000456255
0.000464978
0.000472795
0.000479901
0.000486321
0.000492211
0.000497569
0.000502502
0.000506973
0.00051111
0.000514938
0.000518514
0.000522007
0.000525634
0.000529403
0.000533764
0.000539755
0.000546585
0.000551695
0.000559072
0.000566755
0.000575521
0.000584994
0.000594598
0.000603496
0.000609144
0.000609986
0.000612297
0.000616821
0.00061224
0.000602798
0.000590085
0.000575024
0.00055847
0.000541018
0.000522932
0.000505011
0.000487532
0.000470647
0.000454446
0.000438994
0.000424296
0.000410338
0.000397229
0.0003847
0.000372848
0.000361665
0.000350888
0.000340865
0.000330945
0.000321934
0.000310326
0.000296674
0.000287069
0.000288149
0.000281542
0.000282337
0.00027503
0.000272942
0.00026989
0.000270976
0.000273844
3.90502e-05
3.65773e-05
3.45276e-05
3.30157e-05
3.30112e-05
3.47745e-05
3.95759e-05
4.45303e-05
5.62348e-05
7.32553e-05
8.73957e-05
0.000103588
0.000117073
0.000129613
0.000142978
0.000154145
0.000165458
0.000176584
0.00018738
0.000198236
0.000209461
0.000221043
0.000233503
0.000246242
0.000259958
0.000274378
0.000289249
0.000304371
0.000319483
0.000334215
0.00034854
0.000362376
0.000375582
0.000388088
0.000399771
0.000410681
0.000421004
0.000430472
0.000438802
0.000446217
0.000452897
0.000458969
0.000464467
0.000469515
0.000474125
0.000478391
0.000482298
0.000485962
0.00048941
0.000492705
0.000496035
0.000499649