/*--------------------------------*- C++ -*----------------------------------*\
| =========                 |                                                 |
| \\      /  F ield         | OpenFOAM: The Open Source CFD Toolbox           |
|  \\    /   O peration     | Version:  v1912                                 |
|   \\  /    A nd           | Website:  www.openfoam.com                      |
|    \\/     M anipulation  |                                                 |
\*---------------------------------------------------------------------------*/
FoamFile
{
    version     2.0;
    format      ascii;
    class       volScalarField;
    location    "100";
    object      p;
}
// * * * * * * * * * * * * * * * * * * * * * * * * * * * * * * * * * * * * * //

dimensions      [0 2 -2 0 0 0 0];


internalField   nonuniform List<scalar> 
60000
(
0.157462
0.166168
0.18532
0.20759
0.227258
0.244015
0.259057
0.272598
0.284456
0.294766
0.303833
0.311877
0.319029
0.32541
0.331139
0.336312
0.341007
0.345291
0.349224
0.352857
0.356228
0.359372
0.362318
0.365095
0.367721
0.370217
0.372596
0.37487
0.377049
0.379142
0.381155
0.383094
0.384963
0.386764
0.388499
0.390173
0.391784
0.393337
0.39483
0.396268
0.397648
0.398975
0.400246
0.401466
0.402632
0.40375
0.404814
0.405834
0.406805
0.407736
0.408624
0.409483
0.410311
0.411133
0.411957
0.412815
0.413733
0.414767
0.415961
0.417248
0.418409
0.419096
0.41908
0.41851
0.417619
0.416532
0.415351
0.414073
0.412712
0.411246
0.409656
0.407894
0.405938
0.403735
0.401268
0.398483
0.395366
0.391867
0.387968
0.383614
0.378781
0.373408
0.367453
0.360843
0.353508
0.345357
0.336289
0.326176
0.314868
0.302199
0.287933
0.271845
0.253507
0.232829
0.208619
0.182164
0.148262
0.117634
0.0618169
0.0492052
0.15722
0.165971
0.185216
0.207546
0.227225
0.243984
0.259033
0.272577
0.284435
0.294744
0.303812
0.311855
0.319007
0.325389
0.331118
0.336292
0.340988
0.345272
0.349206
0.352839
0.356211
0.359355
0.362303
0.365079
0.367707
0.370203
0.372583
0.374858
0.377038
0.379132
0.381145
0.383086
0.384955
0.386757
0.388493
0.390168
0.39178
0.393334
0.394828
0.396266
0.397647
0.398975
0.400247
0.401468
0.402635
0.403753
0.404818
0.405838
0.406809
0.40774
0.408627
0.409485
0.410313
0.411132
0.411951
0.4128
0.413705
0.414707
0.415846
0.417064
0.418165
0.418872
0.418987
0.418543
0.417714
0.416631
0.41543
0.41414
0.41277
0.41129
0.409691
0.407922
0.405961
0.403755
0.401283
0.398495
0.395374
0.391871
0.387969
0.383612
0.378775
0.373398
0.36744
0.360826
0.353487
0.345333
0.336262
0.326145
0.314836
0.302163
0.287895
0.271807
0.253469
0.23279
0.208591
0.182122
0.148267
0.117549
0.0619406
0.0490027
0.156751
0.16559
0.18505
0.207519
0.227229
0.243999
0.259068
0.272622
0.284478
0.294784
0.303849
0.31189
0.319038
0.325417
0.331143
0.336314
0.341008
0.34529
0.349222
0.352853
0.356223
0.359367
0.362313
0.365089
0.367715
0.370211
0.37259
0.374865
0.377045
0.379138
0.381152
0.383093
0.384962
0.386765
0.388501
0.390176
0.391789
0.393343
0.394837
0.396276
0.397658
0.398986
0.400257
0.401479
0.402646
0.403764
0.404828
0.405848
0.406818
0.407748
0.408633
0.409488
0.410311
0.411124
0.411934
0.412768
0.413653
0.414623
0.415715
0.416886
0.417969
0.418711
0.41891
0.418546
0.417765
0.416696
0.415494
0.414202
0.412828
0.411344
0.409743
0.407972
0.40601
0.403802
0.401329
0.398539
0.395416
0.39191
0.388005
0.383645
0.378806
0.373427
0.367466
0.36085
0.353509
0.345353
0.336281
0.326163
0.314853
0.30218
0.287912
0.271825
0.25349
0.232814
0.208621
0.18215
0.148314
0.117558
0.0620171
0.048936
0.156043
0.16502
0.18482
0.207502
0.227255
0.244042
0.25914
0.272707
0.284557
0.294855
0.303916
0.31195
0.319091
0.325464
0.331185
0.336351
0.341039
0.345318
0.349246
0.352875
0.356242
0.359383
0.362327
0.365101
0.367726
0.370221
0.372599
0.374874
0.377053
0.379147
0.381161
0.383102
0.384971
0.386774
0.388511
0.390187
0.3918
0.393355
0.39485
0.396289
0.397671
0.399
0.400272
0.401493
0.40266
0.403778
0.404843
0.405862
0.406831
0.407758
0.408641
0.409492
0.410308
0.411111
0.411908
0.412723
0.413581
0.414511
0.415547
0.416658
0.417703
0.418463
0.418736
0.418468
0.417761
0.416737
0.415554
0.414269
0.412901
0.411419
0.409818
0.408048
0.406087
0.403878
0.401404
0.398612
0.395486
0.391979
0.388071
0.383708
0.378867
0.373485
0.367522
0.360905
0.353563
0.345406
0.336334
0.326216
0.314908
0.302237
0.287971
0.271888
0.253559
0.232888
0.208705
0.182231
0.148413
0.117617
0.0621152
0.0488954
0.15509
0.164263
0.184531
0.207497
0.227305
0.244115
0.259253
0.272837
0.284679
0.294967
0.30402
0.312045
0.319177
0.325541
0.331254
0.336412
0.341094
0.345367
0.34929
0.352915
0.356278
0.359415
0.362356
0.365128
0.367751
0.370244
0.37262
0.374894
0.377072
0.379165
0.381179
0.38312
0.38499
0.386794
0.388531
0.390207
0.391821
0.393376
0.394871
0.396311
0.397693
0.399022
0.400294
0.401516
0.402683
0.4038
0.404864
0.405882
0.406849
0.407775
0.408654
0.409499
0.410308
0.4111
0.411881
0.412675
0.413504
0.414393
0.415374
0.416428
0.417437
0.418205
0.418536
0.418354
0.417727
0.41676
0.41561
0.414343
0.412988
0.411516
0.409921
0.408154
0.406194
0.403986
0.401511
0.398716
0.395589
0.392078
0.388168
0.383802
0.378958
0.373574
0.36761
0.360991
0.353648
0.345492
0.33642
0.326304
0.314999
0.302332
0.28807
0.271994
0.253674
0.233011
0.208838
0.182364
0.148563
0.117717
0.062247
0.0488569
0.153884
0.163319
0.184188
0.207507
0.227379
0.244219
0.259408
0.273011
0.284842
0.295116
0.304159
0.312172
0.319291
0.325643
0.331345
0.336495
0.341168
0.345433
0.349349
0.352968
0.356326
0.359458
0.362395
0.365163
0.367783
0.370274
0.372648
0.37492
0.377097
0.37919
0.381203
0.383144
0.385014
0.386818
0.388556
0.390232
0.391846
0.393402
0.394898
0.396338
0.397721
0.39905
0.400322
0.401544
0.40271
0.403828
0.404891
0.405908
0.406873
0.407795
0.408669
0.409508
0.410308
0.411088
0.411851
0.412622
0.41342
0.414268
0.415193
0.416191
0.417168
0.417944
0.418326
0.418222
0.417674
0.41677
0.415662
0.414424
0.413091
0.411635
0.41005
0.40829
0.406334
0.404127
0.401651
0.398854
0.395724
0.39221
0.388296
0.383927
0.379081
0.373694
0.367729
0.361109
0.353766
0.345611
0.336541
0.326427
0.315127
0.302466
0.28821
0.272142
0.253834
0.23318
0.209022
0.182547
0.148763
0.117861
0.0624114
0.0488243
0.152415
0.162186
0.183797
0.207536
0.227478
0.244355
0.259605
0.273229
0.285045
0.295303
0.304332
0.312331
0.319434
0.325771
0.33146
0.336598
0.34126
0.345516
0.349424
0.353035
0.356387
0.359514
0.362446
0.365209
0.367826
0.370313
0.372685
0.374955
0.377131
0.379223
0.381235
0.383176
0.385046
0.386851
0.388589
0.390265
0.39188
0.393436
0.394932
0.396373
0.397756
0.399085
0.400357
0.401579
0.402745
0.403862
0.404924
0.405939
0.406902
0.40782
0.40869
0.409521
0.410312
0.411077
0.411822
0.412568
0.413333
0.414139
0.41501
0.415952
0.416899
0.417682
0.418111
0.418077
0.417602
0.416765
0.415711
0.414511
0.413207
0.411775
0.410206
0.408456
0.406505
0.4043
0.401824
0.399025
0.395891
0.392374
0.388456
0.384084
0.379235
0.373846
0.367879
0.36126
0.353917
0.345763
0.336696
0.326586
0.315292
0.302638
0.288391
0.272333
0.254038
0.233397
0.209255
0.182781
0.149014
0.11805
0.0626091
0.0487985
0.150671
0.160866
0.183368
0.207587
0.227602
0.244523
0.259846
0.273491
0.285289
0.295527
0.30454
0.312521
0.319604
0.325924
0.331598
0.336721
0.341371
0.345616
0.349514
0.353117
0.356461
0.359581
0.362507
0.365265
0.367877
0.370361
0.37273
0.374998
0.377172
0.379262
0.381275
0.383215
0.385085
0.38689
0.388628
0.390305
0.39192
0.393476
0.394973
0.396414
0.397797
0.399126
0.400399
0.40162
0.402786
0.403902
0.404963
0.405976
0.406936
0.407851
0.408715
0.409538
0.410318
0.411068
0.411793
0.412513
0.413244
0.414007
0.414825
0.415711
0.416626
0.417417
0.417889
0.417913
0.417508
0.416741
0.41575
0.414599
0.413336
0.411933
0.410386
0.40865
0.406707
0.404505
0.402029
0.399227
0.39609
0.392569
0.388648
0.384272
0.37942
0.374029
0.368061
0.361441
0.3541
0.345948
0.336885
0.326781
0.315494
0.302848
0.288613
0.272567
0.254286
0.23366
0.209539
0.183067
0.149317
0.118284
0.0628415
0.0487799
0.148635
0.159358
0.18291
0.207666
0.227752
0.244726
0.260131
0.273797
0.285572
0.295787
0.304781
0.31274
0.319801
0.326101
0.331757
0.336864
0.3415
0.345731
0.349619
0.353211
0.356546
0.359659
0.362578
0.365331
0.367938
0.370418
0.372783
0.375048
0.377221
0.37931
0.381321
0.383261
0.385132
0.386936
0.388675
0.390352
0.391968
0.393524
0.395021
0.396462
0.397846
0.399175
0.400447
0.401668
0.402834
0.403949
0.405008
0.40602
0.406977
0.407887
0.408745
0.409559
0.410328
0.411062
0.411766
0.412458
0.413154
0.413872
0.414637
0.415465
0.416343
0.417137
0.417648
0.417723
0.417383
0.416692
0.415774
0.414686
0.413473
0.412109
0.410589
0.40887
0.406937
0.404739
0.402264
0.399461
0.39632
0.392795
0.38887
0.384491
0.379635
0.374242
0.368273
0.361654
0.354314
0.346166
0.337107
0.32701
0.315731
0.303097
0.288874
0.272843
0.254581
0.233971
0.209873
0.183405
0.149672
0.118563
0.0631107
0.0487672
0.146291
0.157663
0.182437
0.207777
0.227928
0.244965
0.260462
0.274146
0.285893
0.296082
0.305054
0.312988
0.320024
0.3263
0.331937
0.337026
0.341644
0.345862
0.349737
0.353318
0.356644
0.359747
0.362659
0.365406
0.368007
0.370483
0.372844
0.375106
0.377277
0.379365
0.381375
0.383315
0.385185
0.38699
0.388729
0.390407
0.392023
0.39358
0.395077
0.396518
0.397902
0.399231
0.400503
0.401724
0.402889
0.404003
0.405061
0.40607
0.407024
0.407929
0.408781
0.409586
0.410343
0.411061
0.411744
0.412408
0.413068
0.41374
0.414448
0.415211
0.416036
0.416815
0.417357
0.417487
0.417217
0.416612
0.415781
0.414769
0.413616
0.412298
0.410811
0.409113
0.407193
0.405001
0.402527
0.399722
0.396578
0.393049
0.38912
0.384737
0.379879
0.374484
0.368515
0.361897
0.354559
0.346416
0.337363
0.327274
0.316004
0.303382
0.289175
0.273161
0.254921
0.234331
0.210258
0.183796
0.150081
0.118891
0.0634193
0.0487608
0.143615
0.155786
0.181964
0.207927
0.228131
0.245242
0.260838
0.274537
0.286251
0.29641
0.305357
0.313263
0.32027
0.326521
0.332135
0.337203
0.341804
0.346006
0.349867
0.353436
0.356751
0.359845
0.362749
0.365489
0.368085
0.370555
0.372913
0.375172
0.37734
0.379427
0.381437
0.383376
0.385246
0.387051
0.388791
0.390469
0.392085
0.393643
0.39514
0.396582
0.397966
0.399295
0.400567
0.401788
0.402952
0.404066
0.405123
0.406131
0.407082
0.407985
0.408831
0.409629
0.410375
0.411077
0.41174
0.412378
0.412999
0.413623
0.41427
0.414963
0.415711
0.416446
0.417002
0.417197
0.41701
0.416503
0.41577
0.414847
0.413764
0.412498
0.411049
0.409376
0.40747
0.405286
0.402814
0.400008
0.396862
0.393329
0.389396
0.38501
0.380149
0.374754
0.368785
0.362168
0.354834
0.346696
0.33765
0.327571
0.316313
0.303705
0.289515
0.273522
0.255306
0.234739
0.210694
0.184241
0.150546
0.119268
0.0637714
0.0487595
0.140582
0.153731
0.181509
0.208119
0.228362
0.245558
0.261262
0.27497
0.286645
0.296772
0.30569
0.313564
0.320539
0.326762
0.33235
0.337396
0.341977
0.346162
0.350008
0.353564
0.356867
0.359952
0.362847
0.365579
0.368169
0.370634
0.372988
0.375244
0.37741
0.379495
0.381505
0.383444
0.385315
0.38712
0.38886
0.390539
0.392156
0.393714
0.395212
0.396654
0.398038
0.399368
0.400642
0.401864
0.403031
0.404146
0.405203
0.406208
0.407153
0.408047
0.408882
0.409668
0.410406
0.411096
0.41175
0.412377
0.412973
0.413557
0.414154
0.414784
0.415453
0.416113
0.416641
0.41688
0.416778
0.416376
0.415749
0.414922
0.413915
0.412706
0.411298
0.409653
0.407764
0.40559
0.403122
0.400316
0.397168
0.393632
0.389696
0.385308
0.380445
0.375049
0.369081
0.362467
0.355137
0.347006
0.337968
0.327901
0.316656
0.304063
0.289894
0.273924
0.255736
0.235196
0.211183
0.18474
0.151069
0.119696
0.0641713
0.0487633
0.137161
0.151507
0.181092
0.208361
0.228619
0.245915
0.261734
0.275442
0.287073
0.297164
0.306049
0.313887
0.320827
0.327019
0.332581
0.337602
0.342162
0.346328
0.350159
0.353701
0.356991
0.360065
0.362951
0.365676
0.368259
0.370719
0.373069
0.375322
0.377486
0.37957
0.381579
0.383518
0.38539
0.387196
0.388937
0.390617
0.392235
0.393794
0.395295
0.39674
0.398128
0.399461
0.400737
0.401955
0.403115
0.404217
0.405262
0.406256
0.407193
0.408085
0.408915
0.409701
0.410442
0.411139
0.411787
0.4124
0.412986
0.413553
0.414124
0.414716
0.41532
0.415888
0.416349
0.416589
0.416553
0.41625
0.415729
0.414998
0.414068
0.412919
0.411555
0.409941
0.408071
0.405908
0.403445
0.400642
0.397492
0.393955
0.390017
0.385627
0.380763
0.375368
0.369401
0.362792
0.355467
0.347344
0.338317
0.328262
0.317033
0.304457
0.290312
0.274368
0.256211
0.2357
0.211724
0.185295
0.151653
0.120179
0.064625
0.048771
0.133318
0.149126
0.180738
0.208654
0.228904
0.246317
0.262254
0.275954
0.287533
0.297585
0.306433
0.314231
0.321133
0.327292
0.332824
0.337819
0.342356
0.346502
0.350315
0.353842
0.35712
0.360183
0.36306
0.365777
0.368353
0.370808
0.373154
0.375404
0.377566
0.37965
0.381659
0.3836
0.385472
0.38728
0.389023
0.390707
0.39233
0.393894
0.395398
0.396842
0.398222
0.39954
0.400799
0.402004
0.403154
0.404251
0.405295
0.406288
0.407226
0.408118
0.40895
0.40974
0.410477
0.411172
0.411817
0.412421
0.413008
0.413579
0.414147
0.414716
0.415271
0.415762
0.416143
0.416356
0.416361
0.416142
0.41572
0.415079
0.414221
0.413133
0.411815
0.410234
0.408385
0.406236
0.40378
0.40098
0.397831
0.394294
0.390355
0.385965
0.381101
0.375708
0.369745
0.36314
0.355823
0.347709
0.338694
0.328655
0.317443
0.304888
0.290768
0.274853
0.256731
0.236254
0.21232
0.185907
0.1523
0.120718
0.065139
0.048783
0.129009
0.146606
0.180473
0.209004
0.229216
0.246766
0.262823
0.276501
0.288023
0.298032
0.306839
0.314592
0.321453
0.327576
0.333076
0.338043
0.342555
0.346681
0.350476
0.353987
0.357251
0.360303
0.363171
0.365879
0.368449
0.370899
0.373241
0.375489
0.377651
0.379734
0.381744
0.383688
0.385566
0.387379
0.389129
0.390816
0.392435
0.393987
0.395472
0.396896
0.398262
0.399572
0.400829
0.402034
0.403183
0.40428
0.405322
0.406311
0.40725
0.40814
0.408972
0.409762
0.410497
0.41119
0.411845
0.412463
0.41305
0.413619
0.414179
0.414729
0.415249
0.415687
0.416004
0.416185
0.416216
0.416067
0.415728
0.415163
0.414374
0.413347
0.412075
0.410527
0.408702
0.406568
0.404122
0.401328
0.398181
0.394646
0.390707
0.386319
0.381456
0.376067
0.370109
0.363511
0.356203
0.3481
0.3391
0.329077
0.317886
0.305355
0.291262
0.27538
0.257297
0.236858
0.21297
0.186579
0.153013
0.121318
0.065721
0.0487983
0.124189
0.14397
0.180327
0.209412
0.229555
0.247264
0.263439
0.277082
0.28854
0.298503
0.307264
0.314968
0.321784
0.327868
0.333334
0.338271
0.342757
0.346861
0.350637
0.354132
0.357382
0.360422
0.36328
0.365981
0.368545
0.370989
0.373329
0.375577
0.377741
0.379828
0.381844
0.383793
0.385673
0.387483
0.38922
0.390886
0.392484
0.394022
0.395499
0.39692
0.398285
0.399594
0.400848
0.402048
0.403193
0.404287
0.40533
0.40632
0.407259
0.40815
0.408985
0.409777
0.41052
0.411227
0.411886
0.41251
0.413101
0.413671
0.414224
0.414756
0.415246
0.415643
0.415915
0.416072
0.416124
0.416029
0.415753
0.415251
0.414527
0.413558
0.412331
0.410818
0.409017
0.406902
0.404466
0.40168
0.398538
0.395007
0.391071
0.386686
0.381827
0.376443
0.370492
0.363902
0.356606
0.348516
0.339532
0.329529
0.318361
0.305857
0.291793
0.27595
0.257908
0.237511
0.213677
0.187309
0.153796
0.121982
0.0663794
0.0488175
0.118799
0.141252
0.18033
0.209877
0.229922
0.247815
0.264102
0.277693
0.289081
0.298995
0.307704
0.315355
0.322123
0.328166
0.333595
0.338499
0.342959
0.347039
0.350795
0.354273
0.35751
0.360537
0.363386
0.366081
0.368641
0.371083
0.373423
0.375673
0.377841
0.379931
0.381943
0.383879
0.385738
0.387527
0.38925
0.390908
0.392502
0.394036
0.395509
0.396925
0.398285
0.39959
0.400842
0.402042
0.403189
0.404283
0.405327
0.406321
0.40726
0.408152
0.408998
0.409799
0.41055
0.411263
0.411931
0.412563
0.413161
0.413733
0.414279
0.414794
0.415257
0.415622
0.415865
0.416012
0.416081
0.416024
0.415792
0.415347
0.414682
0.413765
0.412581
0.411103
0.409328
0.407232
0.40481
0.402035
0.3989
0.395375
0.391443
0.387064
0.38221
0.376834
0.370891
0.364313
0.357029
0.348955
0.339989
0.330009
0.318867
0.306392
0.292363
0.276561
0.258566
0.238214
0.214441
0.188102
0.154652
0.122712
0.067124
0.0488404
0.112774
0.138494
0.180517
0.210397
0.230316
0.24842
0.264809
0.278331
0.289643
0.299503
0.308155
0.315748
0.322465
0.328464
0.333854
0.338724
0.343155
0.347213
0.350947
0.354408
0.357633
0.360651
0.363492
0.366181
0.36874
0.371182
0.37352
0.375763
0.377918
0.379991
0.381985
0.383906
0.385757
0.387539
0.389255
0.390905
0.392492
0.39402
0.39549
0.396905
0.398265
0.399572
0.400825
0.402027
0.403175
0.404273
0.405316
0.406314
0.40726
0.408156
0.409011
0.40982
0.41058
0.411301
0.411978
0.412619
0.413224
0.413798
0.414339
0.414839
0.415279
0.415619
0.415848
0.415994
0.416076
0.416043
0.415846
0.415451
0.414837
0.413968
0.412823
0.41138
0.409631
0.407557
0.405151
0.402389
0.399262
0.395746
0.391821
0.38745
0.382604
0.377238
0.371306
0.36474
0.357472
0.349416
0.340471
0.330516
0.319402
0.306961
0.292971
0.277213
0.25927
0.23897
0.215263
0.188957
0.155586
0.123515
0.0679653
0.0488689
0.106039
0.135754
0.180925
0.210968
0.23074
0.249084
0.265558
0.278991
0.290223
0.300024
0.308613
0.316144
0.322807
0.328758
0.33411
0.338944
0.343345
0.347379
0.351096
0.354541
0.357753
0.360763
0.363595
0.366276
0.368823
0.371252
0.373575
0.375802
0.377942
0.380003
0.381988
0.3839
0.385741
0.387515
0.389224
0.390871
0.392457
0.393985
0.395456
0.396873
0.398236
0.399545
0.400801
0.402005
0.403155
0.404256
0.405304
0.406306
0.40726
0.408162
0.409024
0.409841
0.41061
0.411339
0.412026
0.412675
0.413287
0.413863
0.414397
0.414884
0.415307
0.415633
0.415857
0.416009
0.4161
0.416083
0.415916
0.415563
0.414993
0.414165
0.413058
0.411648
0.409926
0.407876
0.405486
0.40274
0.399625
0.39612
0.392204
0.387843
0.383007
0.377653
0.371734
0.365184
0.357933
0.349898
0.340977
0.33105
0.319967
0.307564
0.293618
0.277906
0.260021
0.239778
0.216145
0.189877
0.156601
0.124393
0.068916
0.048905
0.0985028
0.133105
0.181586
0.21158
0.231194
0.249808
0.266344
0.279668
0.290817
0.300553
0.309074
0.316538
0.323147
0.32905
0.33436
0.339159
0.343534
0.347543
0.351239
0.354666
0.357859
0.360851
0.363667
0.36633
0.368861
0.371273
0.373581
0.375796
0.377925
0.379974
0.38195
0.383855
0.385692
0.387464
0.389173
0.39082
0.392409
0.39394
0.395414
0.396835
0.398201
0.399513
0.400772
0.40198
0.403135
0.40424
0.405295
0.406301
0.407261
0.408172
0.40904
0.409864
0.410642
0.411379
0.412074
0.412729
0.413346
0.413921
0.41445
0.414928
0.41534
0.415661
0.415888
0.416048
0.416145
0.416142
0.416
0.415683
0.415148
0.414358
0.413285
0.411908
0.410213
0.408187
0.405816
0.403087
0.399986
0.396494
0.39259
0.388242
0.383419
0.378079
0.372176
0.365643
0.358412
0.350401
0.341506
0.331611
0.320562
0.308201
0.294303
0.278641
0.26082
0.240641
0.217089
0.190867
0.157702
0.125352
0.0699892
0.0489541
0.0900612
0.130642
0.182534
0.212223
0.231682
0.250592
0.267161
0.280358
0.29142
0.301089
0.309538
0.316934
0.323484
0.329341
0.334611
0.339372
0.343714
0.34769
0.351353
0.354754
0.357924
0.360895
0.363693
0.366339
0.368853
0.37125
0.373545
0.375748
0.377868
0.379912
0.381884
0.383788
0.385626
0.387399
0.389111
0.390762
0.392355
0.39389
0.39537
0.396795
0.398165
0.399482
0.400745
0.401957
0.403117
0.404226
0.405286
0.406298
0.407264
0.408182
0.409057
0.409888
0.410675
0.411419
0.412121
0.41278
0.413398
0.413973
0.414498
0.414971
0.415379
0.415701
0.415936
0.416104
0.416207
0.416217
0.416098
0.415809
0.415304
0.414547
0.413507
0.412161
0.410493
0.408491
0.406141
0.403431
0.400345
0.39687
0.392979
0.388647
0.383838
0.378515
0.37263
0.366118
0.35891
0.350924
0.34206
0.332198
0.321189
0.308873
0.295028
0.279423
0.261669
0.24156
0.218099
0.19193
0.158896
0.1264
0.0712012
0.0490231
0.0805951
0.128485
0.183793
0.21288
0.232207
0.251437
0.268003
0.281059
0.292034
0.301633
0.310005
0.317335
0.323827
0.329631
0.334847
0.339555
0.343849
0.347787
0.351421
0.354797
0.357946
0.360897
0.363675
0.366304
0.368803
0.371188
0.373474
0.375671
0.377788
0.379831
0.381804
0.38371
0.385552
0.38733
0.389047
0.390704
0.392302
0.393842
0.395327
0.396756
0.398131
0.399453
0.400721
0.401937
0.403101
0.404215
0.405281
0.406298
0.40727
0.408195
0.409077
0.409915
0.410708
0.411458
0.412165
0.412827
0.413447
0.41402
0.414545
0.415016
0.415423
0.415749
0.415995
0.416172
0.416282
0.416306
0.416206
0.415941
0.415463
0.414736
0.413725
0.412409
0.410767
0.408791
0.406462
0.403773
0.400705
0.397248
0.393373
0.389058
0.384267
0.378964
0.373099
0.366609
0.359428
0.351471
0.342639
0.332815
0.321848
0.309581
0.295795
0.280253
0.262572
0.242539
0.219177
0.193069
0.160188
0.127545
0.0725707
0.0491236
0.0699645
0.126802
0.185387
0.213532
0.232776
0.252344
0.268867
0.281775
0.292664
0.302191
0.310482
0.317734
0.324151
0.329878
0.335024
0.339679
0.343932
0.34784
0.351447
0.354798
0.357926
0.360859
0.363621
0.366237
0.368726
0.371105
0.373387
0.375582
0.3777
0.379745
0.381722
0.383633
0.385479
0.387263
0.388985
0.390649
0.392252
0.393798
0.395287
0.396721
0.398101
0.399427
0.4007
0.40192
0.40309
0.404209
0.40528
0.406303
0.407281
0.408212
0.4091
0.409943
0.410742
0.411496
0.412206
0.412872
0.413495
0.414069
0.414594
0.415064
0.415472
0.415806
0.416063
0.416251
0.416371
0.416408
0.416326
0.416081
0.415628
0.414928
0.413944
0.412657
0.411041
0.40909
0.406784
0.404117
0.401068
0.39763
0.393774
0.389479
0.384707
0.379426
0.373584
0.367121
0.359968
0.352042
0.343248
0.333462
0.322545
0.310332
0.296607
0.281132
0.26353
0.243578
0.220325
0.194288
0.161585
0.128797
0.0741194
0.0492718
0.0579768
0.125781
0.187331
0.214167
0.2334
0.253319
0.269762
0.282511
0.293315
0.302753
0.310932
0.318079
0.324398
0.330048
0.335138
0.339754
0.343972
0.347851
0.351437
0.354767
0.357877
0.360796
0.363548
0.366155
0.368639
0.371015
0.373296
0.375493
0.377613
0.379662
0.381644
0.38356
0.385413
0.387202
0.388931
0.390599
0.392209
0.39376
0.395255
0.396695
0.398079
0.399409
0.400687
0.401911
0.403085
0.404209
0.405285
0.406314
0.407297
0.408234
0.409127
0.409975
0.410778
0.411535
0.412249
0.41292
0.413545
0.414121
0.414647
0.415118
0.41553
0.415872
0.416143
0.416344
0.416476
0.416527
0.416461
0.416236
0.415804
0.415129
0.414171
0.412911
0.411322
0.409396
0.407112
0.404468
0.40144
0.398023
0.394187
0.389914
0.385164
0.379907
0.374091
0.367656
0.360534
0.352644
0.343889
0.334147
0.323284
0.311129
0.297466
0.282062
0.264545
0.24468
0.221546
0.195592
0.163091
0.130167
0.0758679
0.0494922
0.0443768
0.12559
0.189579
0.214778
0.234104
0.254373
0.27069
0.283255
0.293941
0.303243
0.311272
0.318314
0.324564
0.330157
0.3352
0.339786
0.343976
0.347833
0.351403
0.354719
0.357817
0.360726
0.363471
0.366073
0.368555
0.37093
0.373213
0.375413
0.377537
0.379591
0.381577
0.383499
0.385357
0.387153
0.388888
0.390563
0.392177
0.393733
0.395234
0.396678
0.398066
0.3994
0.400682
0.40191
0.403089
0.404217
0.405299
0.406332
0.407321
0.408262
0.409161
0.410012
0.410819
0.41158
0.412299
0.412974
0.413602
0.414181
0.41471
0.415185
0.415601
0.415953
0.416238
0.416455
0.4166
0.416667
0.416618
0.416412
0.416001
0.41535
0.414417
0.413183
0.411619
0.409718
0.407458
0.404836
0.401831
0.398436
0.394621
0.390371
0.385645
0.380414
0.374626
0.368222
0.361134
0.353282
0.34457
0.334878
0.324072
0.311978
0.298378
0.283048
0.26562
0.245848
0.222846
0.196985
0.164712
0.131667
0.0778362
0.0498212
0.0290181
0.126512
0.192033
0.215362
0.234922
0.255488
0.271598
0.283905
0.294424
0.303584
0.311504
0.318464
0.324662
0.330214
0.335225
0.339791
0.343963
0.347805
0.351363
0.35467
0.357761
0.360664
0.363405
0.366006
0.368486
0.370863
0.373148
0.375351
0.377479
0.379538
0.381529
0.383456
0.38532
0.387122
0.388862
0.390541
0.39216
0.393721
0.395226
0.396674
0.398067
0.399404
0.400689
0.401922
0.403105
0.404238
0.405324
0.406363
0.407356
0.408302
0.409205
0.41006
0.410872
0.411639
0.412363
0.413041
0.413674
0.414257
0.414791
0.415272
0.415696
0.416059
0.416358
0.416593
0.416756
0.416841
0.41681
0.416624
0.416235
0.415607
0.414698
0.413488
0.411948
0.410071
0.407834
0.405235
0.402251
0.398879
0.395087
0.390861
0.38616
0.380957
0.3752
0.368828
0.361778
0.353967
0.345302
0.335663
0.324913
0.312879
0.299345
0.284092
0.26676
0.24709
0.224232
0.198477
0.166453
0.133307
0.0800341
0.0503134
0.0119208
0.12933
0.194752
0.215917
0.235832
0.256513
0.272306
0.28436
0.294736
0.303796
0.311652
0.318555
0.324715
0.330242
0.335237
0.339789
0.343953
0.347787
0.351337
0.354639
0.357725
0.360624
0.363363
0.365964
0.368445
0.370823
0.373111
0.375316
0.377449
0.379511
0.381507
0.383439
0.385308
0.387113
0.388858
0.390541
0.392166
0.393731
0.395239
0.396691
0.398087
0.399428
0.400717
0.401954
0.403141
0.404279
0.40537
0.406413
0.407412
0.408363
0.40927
0.410131
0.410949
0.411722
0.412452
0.413136
0.413775
0.414365
0.414907
0.415397
0.415831
0.416208
0.416524
0.416779
0.416964
0.417069
0.417058
0.416894
0.416526
0.41592
0.415033
0.413847
0.412329
0.410474
0.408258
0.40568
0.402718
0.399368
0.395599
0.391398
0.386723
0.381549
0.375824
0.369487
0.362475
0.354707
0.346089
0.3365
0.325804
0.313831
0.300369
0.285197
0.267966
0.248406
0.2257
0.200061
0.168295
0.135079
0.0824181
0.0510277
-0.00810467
0.134681
0.197798
0.216238
0.23653
0.257233
0.272685
0.284627
0.294926
0.303916
0.311732
0.318608
0.324748
0.330264
0.335252
0.339798
0.343959
0.34779
0.351337
0.354636
0.35772
0.360619
0.363357
0.365959
0.368442
0.370821
0.373111
0.37532
0.377456
0.379522
0.381522
0.383457
0.38533
0.387139
0.388888
0.390575
0.392203
0.393772
0.395284
0.396738
0.398137
0.399482
0.400775
0.402017
0.403209
0.404351
0.405447
0.406496
0.4075
0.408456
0.40937
0.410238
0.411064
0.411844
0.412583
0.413276
0.413925
0.414527
0.415081
0.415585
0.416035
0.416431
0.416769
0.417048
0.417258
0.417388
0.417401
0.417261
0.416915
0.416331
0.415466
0.414299
0.4128
0.410963
0.408764
0.406204
0.403261
0.39993
0.396181
0.392001
0.387351
0.382204
0.376508
0.370203
0.363225
0.355496
0.346918
0.337376
0.326732
0.314822
0.301432
0.286339
0.269205
0.249756
0.227191
0.201672
0.170147
0.136917
0.0848173
0.0519775
-0.0344905
0.140604
0.200465
0.216147
0.236764
0.257648
0.272906
0.284775
0.29504
0.303991
0.311782
0.318647
0.324781
0.330295
0.335284
0.339833
0.343998
0.347834
0.351386
0.35469
0.357779
0.360683
0.363427
0.366033
0.368522
0.370907
0.373202
0.375416
0.377557
0.379627
0.381631
0.38357
0.385445
0.387257
0.389008
0.390698
0.392329
0.3939
0.395415
0.396872
0.398274
0.399622
0.400919
0.402164
0.40336
0.404508
0.405611
0.406666
0.407678
0.408644
0.409568
0.410447
0.411286
0.412082
0.412836
0.413547
0.414215
0.414837
0.415414
0.41594
0.416415
0.416835
0.417199
0.417504
0.417739
0.417891
0.417924
0.4178
0.417467
0.416891
0.41603
0.414866
0.413368
0.411532
0.409335
0.406777
0.403838
0.400512
0.396771
0.3926
0.387963
0.382831
0.37715
0.370865
0.363912
0.356211
0.347665
0.338163
0.327564
0.315707
0.302377
0.287352
0.270299
0.250942
0.228497
0.203088
0.171769
0.138602
0.0869417
0.0530435
-0.0608084
0.143971
0.202415
0.216519
0.237225
0.258183
0.273312
0.28508
0.295293
0.304207
0.311973
0.318821
0.324942
0.330448
0.335432
0.339978
0.344144
0.347982
0.351536
0.354845
0.35794
0.360851
0.363601
0.366214
0.368709
0.371099
0.373399
0.375616
0.377759
0.379831
0.381835
0.383773
0.385647
0.387457
0.389206
0.390894
0.392523
0.394093
0.395606
0.397062
0.398463
0.399811
0.401108
0.402354
0.403552
0.404703
0.40581
0.406872
0.407891
0.408866
0.4098
0.410692
0.411545
0.412357
0.413129
0.413858
0.414547
0.415191
0.415789
0.416339
0.416836
0.417279
0.417664
0.41799
0.418244
0.418414
0.418461
0.41835
0.418029
0.417461
0.416607
0.415449
0.413958
0.412128
0.40994
0.407393
0.404466
0.401153
0.397429
0.393278
0.388665
0.383558
0.377909
0.37166
0.364748
0.357093
0.3486
0.339158
0.328628
0.316848
0.303606
0.28868
0.27174
0.252518
0.230227
0.205008
0.173904
0.141061
0.0897168
0.0557965
0.157505
0.166205
0.185335
0.207595
0.227262
0.244016
0.259055
0.272595
0.284454
0.294763
0.303831
0.311875
0.319027
0.325409
0.331137
0.336311
0.341006
0.34529
0.349223
0.352855
0.356226
0.35937
0.362317
0.365093
0.36772
0.370216
0.372594
0.374869
0.377048
0.379141
0.381154
0.383093
0.384961
0.386763
0.388498
0.390172
0.391783
0.393336
0.394829
0.396267
0.397647
0.398974
0.400245
0.401466
0.402632
0.403749
0.404814
0.405834
0.406805
0.407736
0.408624
0.409483
0.410312
0.411133
0.411956
0.412809
0.413722
0.414737
0.415893
0.417136
0.418275
0.419026
0.419134
0.418647
0.417772
0.416657
0.415438
0.41414
0.412763
0.411278
0.409675
0.407905
0.405944
0.403738
0.401268
0.398482
0.395363
0.391864
0.387964
0.38361
0.378777
0.373404
0.367449
0.360838
0.353503
0.345351
0.336283
0.326169
0.314862
0.302191
0.287925
0.271836
0.253498
0.232816
0.208614
0.182138
0.148278
0.117547
0.0619362
0.0489457
0.157262
0.166008
0.185231
0.207552
0.22723
0.243986
0.259031
0.272575
0.284433
0.294742
0.30381
0.311854
0.319006
0.325388
0.331117
0.336291
0.340987
0.345271
0.349205
0.352838
0.356209
0.359354
0.362301
0.365078
0.367705
0.370202
0.372581
0.374857
0.377037
0.37913
0.381144
0.383084
0.384954
0.386756
0.388492
0.390167
0.391779
0.393333
0.394827
0.396266
0.397647
0.398974
0.400246
0.401467
0.402634
0.403752
0.404817
0.405838
0.406809
0.40774
0.408628
0.409486
0.410313
0.411131
0.411948
0.412792
0.413691
0.414678
0.415789
0.416975
0.418067
0.418822
0.419021
0.41864
0.417829
0.416732
0.415507
0.414199
0.412813
0.411319
0.409709
0.407933
0.405968
0.403758
0.401285
0.398495
0.395373
0.39187
0.387967
0.383609
0.378773
0.373395
0.367437
0.360823
0.353484
0.345329
0.336259
0.326141
0.314832
0.302159
0.28789
0.271801
0.253464
0.232781
0.208589
0.182097
0.148289
0.117456
0.0620783
0.0487146
0.156794
0.165628
0.185065
0.207525
0.227233
0.244
0.259065
0.272619
0.284475
0.294781
0.303847
0.311888
0.319037
0.325416
0.331142
0.336313
0.341006
0.345289
0.34922
0.352852
0.356222
0.359365
0.362311
0.365087
0.367714
0.37021
0.372588
0.374864
0.377043
0.379137
0.381151
0.383091
0.384961
0.386763
0.3885
0.390175
0.391788
0.393342
0.394836
0.396276
0.397657
0.398985
0.400257
0.401478
0.402645
0.403763
0.404828
0.405848
0.406818
0.407748
0.408634
0.409489
0.410312
0.411123
0.411931
0.412761
0.413641
0.414599
0.415668
0.416809
0.417875
0.41865
0.418918
0.418617
0.417864
0.416791
0.41557
0.41426
0.412872
0.411374