/*--------------------------------*- C++ -*----------------------------------*\
| =========                 |                                                 |
| \\      /  F ield         | OpenFOAM: The Open Source CFD Toolbox           |
|  \\    /   O peration     | Version:  v1912                                 |
|   \\  /    A nd           | Website:  www.openfoam.com                      |
|    \\/     M anipulation  |                                                 |
\*---------------------------------------------------------------------------*/
FoamFile
{
    version     2.0;
    format      ascii;
    class       surfaceScalarField;
    location    "100";
    object      phi;
}
// * * * * * * * * * * * * * * * * * * * * * * * * * * * * * * * * * * * * * //

dimensions      [0 3 -1 0 0 0 0];
oriented        oriented;


internalField   nonuniform List<scalar> 
174400
(
4.38655e-06
-2.17577e-07
-2.31126e-09
4.55408e-06
-1.60364e-07
-7.16288e-09
4.68738e-06
-1.23131e-07
-1.018e-08
4.80493e-06
-1.0548e-07
-1.20648e-08
4.91485e-06
-9.63549e-08
-1.35717e-08
5.01983e-06
-9.0404e-08
-1.45816e-08
5.12206e-06
-8.71961e-08
-1.50432e-08
5.2232e-06
-8.58799e-08
-1.52549e-08
5.32373e-06
-8.51111e-08
-1.54331e-08
5.42363e-06
-8.43058e-08
-1.55916e-08
5.52275e-06
-8.34012e-08
-1.57242e-08
5.62093e-06
-8.23335e-08
-1.58553e-08
5.71794e-06
-8.10154e-08
-1.60001e-08
5.81352e-06
-7.94303e-08
-1.61543e-08
5.90743e-06
-7.76036e-08
-1.63106e-08
5.99945e-06
-7.55593e-08
-1.64648e-08
6.08936e-06
-7.33108e-08
-1.6605e-08
6.17695e-06
-7.08781e-08
-1.67178e-08
6.26203e-06
-6.82873e-08
-1.67985e-08
6.34444e-06
-6.55666e-08
-1.6853e-08
6.42404e-06
-6.27298e-08
-1.68782e-08
6.50071e-06
-5.9795e-08
-1.68772e-08
6.57432e-06
-5.67735e-08
-1.68452e-08
6.64479e-06
-5.36838e-08
-1.67875e-08
6.71202e-06
-5.05386e-08
-1.67021e-08
6.77597e-06
-4.73558e-08
-1.65999e-08
6.83658e-06
-4.41432e-08
-1.64771e-08
6.89384e-06
-4.09184e-08
-1.63432e-08
6.94771e-06
-3.7687e-08
-1.61924e-08
6.9982e-06
-3.44615e-08
-1.60323e-08
7.04528e-06
-3.12464e-08
-1.58592e-08
7.08902e-06
-2.80575e-08
-1.56823e-08
7.12939e-06
-2.48942e-08
-1.5496e-08
7.16646e-06
-2.17663e-08
-1.53081e-08
7.20022e-06
-1.8666e-08
-1.51139e-08
7.23074e-06
-1.56053e-08
-1.49224e-08
7.25802e-06
-1.25738e-08
-1.4727e-08
7.28214e-06
-9.58369e-09
-1.45356e-08
7.30307e-06
-6.61752e-09
-1.43396e-08
7.32091e-06
-3.69335e-09
-1.41508e-08
7.33564e-06
-7.88313e-10
-1.39605e-08
7.34734e-06
2.07735e-09
-1.37787e-08
7.35597e-06
4.93319e-09
-1.35944e-08
7.36164e-06
7.75174e-09
-1.34233e-08
7.36429e-06
1.05683e-08
-1.32463e-08
7.36403e-06
1.33545e-08
-1.30882e-08
7.36077e-06
1.61583e-08
-1.2926e-08
7.3546e-06
1.89568e-08
-1.27761e-08
7.34539e-06
2.18001e-08
-1.26046e-08
7.33328e-06
2.4656e-08
-1.24964e-08
7.31814e-06
2.76043e-08
-1.24277e-08
7.29971e-06
3.07478e-08
-1.21362e-08
7.27748e-06
3.41022e-08
-1.16937e-08
7.25293e-06
3.73228e-08
-1.23225e-08
7.22548e-06
4.09782e-08
-1.30308e-08
7.18802e-06
4.71433e-08
-8.80156e-09
7.14152e-06
5.3612e-08
-6.03923e-09
7.11437e-06
5.3238e-08
-2.46493e-08
7.08613e-06
5.96507e-08
-2.95601e-08
6.92291e-06
1.08316e-07
5.60214e-08
6.5818e-06
1.71345e-07
1.69992e-07
6.19365e-06
1.8928e-07
1.98688e-07
5.86139e-06
1.70035e-07
1.61942e-07
5.60031e-06
1.42962e-07
1.17867e-07
5.39534e-06
1.20029e-07
8.48256e-08
5.23093e-06
1.02523e-07
6.1811e-08
5.09568e-06
8.91637e-08
4.60792e-08
4.98234e-06
7.82084e-08
3.51132e-08
4.88715e-06
6.84573e-08
2.6744e-08
4.80714e-06
5.97334e-08
2.02762e-08
4.73968e-06
5.19573e-08
1.55176e-08
4.68263e-06
4.50041e-08
1.20428e-08
4.63436e-06
3.87529e-08
9.52278e-09
4.59345e-06
3.31863e-08
7.72571e-09
4.55877e-06
2.82103e-08
6.47717e-09
4.5293e-06
2.38149e-08
5.65133e-09
4.50425e-06
1.99046e-08
5.15002e-09
4.48289e-06
1.64554e-08
4.90023e-09
4.46468e-06
1.33758e-08
4.84129e-09
4.44909e-06
1.06545e-08
4.93715e-09
4.43573e-06
8.21461e-09
5.14867e-09
4.42423e-06
6.04235e-09
5.45447e-09
4.41434e-06
4.07067e-09
5.82252e-09
4.4058e-06
2.29057e-09
6.23997e-09
4.39845e-06
6.62828e-10
6.69256e-09
4.39209e-06
-8.12937e-10
7.17258e-09
4.3866e-06
-2.17567e-09
7.66018e-09
4.3819e-06
-3.44795e-09
8.14875e-09
4.37786e-06
-4.57002e-09
8.61846e-09
4.37429e-06
-5.60314e-09
9.16211e-09
4.37126e-06
-6.60871e-09
9.64279e-09
4.36847e-06
-7.32479e-09
1.01124e-08
4.36624e-06
-8.17813e-09
1.04077e-08
4.36342e-06
-8.31563e-09
1.11372e-08
4.36159e-06
-8.97564e-09
1.08096e-08
4.35566e-06
-6.91866e-09
1.28434e-08
4.35362e-06
-8.03715e-09
1.00687e-08
4.33343e-06
3.18315e-09
1.69743e-08
4.32979e-06
-2.77915e-09
6.40961e-09
3.61335e-08
2.42817e-08
4.38646e-06
-4.35088e-07
-2.2789e-09
4.55289e-06
-3.19613e-07
-7.1876e-09
4.68593e-06
-2.45945e-07
-1.02333e-08
4.80364e-06
-2.11035e-07
-1.21625e-08
4.91347e-06
-1.92471e-07
-1.37223e-08
5.01817e-06
-1.80349e-07
-1.47681e-08
5.12019e-06
-1.7397e-07
-1.52515e-08
5.22116e-06
-1.71376e-07
-1.54804e-08
5.32152e-06
-1.698e-07
-1.56746e-08
5.4212e-06
-1.68147e-07
-1.58468e-08
5.5201e-06
-1.66319e-07
-1.59901e-08
5.61806e-06
-1.64171e-07
-1.61298e-08
5.71484e-06
-1.61521e-07
-1.62826e-08
5.81018e-06
-1.58339e-07
-1.64432e-08
5.90385e-06
-1.54678e-07
-1.66042e-08
5.99563e-06
-1.50581e-07
-1.67631e-08
6.08529e-06
-1.46078e-07
-1.69069e-08
6.17264e-06
-1.41211e-07
-1.7021e-08
6.25747e-06
-1.36032e-07
-1.71018e-08
6.33964e-06
-1.30591e-07
-1.71556e-08
6.419e-06
-1.24922e-07
-1.71787e-08
6.49543e-06
-1.19057e-07
-1.71747e-08
6.56881e-06
-1.13022e-07
-1.7139e-08
6.63904e-06
-1.06851e-07
-1.7075e-08
6.70605e-06
-1.00574e-07
-1.69833e-08
6.76978e-06
-9.42207e-08
-1.68728e-08
6.83017e-06
-8.78124e-08
-1.67413e-08
6.88722e-06
-8.13764e-08
-1.65984e-08
6.94089e-06
-7.49327e-08
-1.64382e-08
6.99119e-06
-6.8499e-08
-1.62665e-08
7.03809e-06
-6.20941e-08
-1.60811e-08
7.08165e-06
-5.57358e-08
-1.58917e-08
7.12186e-06
-4.94339e-08
-1.5694e-08
7.15878e-06
-4.31991e-08
-1.5493e-08
7.1924e-06
-3.70283e-08
-1.52846e-08
7.22279e-06
-3.09272e-08
-1.50812e-08
7.24996e-06
-2.4894e-08
-1.48716e-08
7.27397e-06
-1.89316e-08
-1.46707e-08
7.29481e-06
-1.30319e-08
-1.44594e-08
7.31257e-06
-7.20019e-09
-1.42625e-08
7.32723e-06
-1.42305e-09
-1.40566e-08
7.33888e-06
4.29461e-09
-1.38695e-08
7.34748e-06
9.97328e-09
-1.36719e-08
7.35313e-06
1.5602e-08
-1.35016e-08
7.35577e-06
2.12081e-08
-1.33196e-08
7.35551e-06
2.67822e-08
-1.31713e-08
7.35227e-06
3.23721e-08
-1.30172e-08
7.34617e-06
3.79787e-08
-1.29008e-08
7.33705e-06
4.36746e-08
-1.27779e-08
7.32504e-06
4.94576e-08
-1.27098e-08
7.31002e-06
5.54176e-08
-1.27472e-08
7.292e-06
6.17431e-08
-1.27173e-08
7.27024e-06
6.86202e-08
-1.24963e-08
7.24543e-06
7.57387e-08
-1.29701e-08
7.2182e-06
8.34552e-08
-1.45602e-08
7.18478e-06
9.45571e-08
-1.27686e-08
7.14049e-06
1.08574e-07
-9.1843e-09
7.10149e-06
1.16715e-07
-2.24971e-08
7.07324e-06
1.28179e-07
-3.77071e-08
6.97415e-06
1.8761e-07
2.15668e-08
6.73232e-06
2.79941e-07
1.33719e-07
6.40464e-06
3.25034e-07
1.91631e-07
6.08201e-06
3.1533e-07
1.76739e-07
5.80497e-06
2.81955e-07
1.37507e-07
5.57722e-06
2.45836e-07
1.01653e-07
5.39079e-06
2.14022e-07
7.47369e-08
5.23601e-06
1.87616e-07
5.62936e-08
5.10559e-06
1.6517e-07
4.34208e-08
4.99562e-06
1.44998e-07
3.34488e-08
4.90297e-06
1.26747e-07
2.56248e-08
4.82471e-06
1.10416e-07
1.98265e-08
4.7584e-06
9.58082e-08
1.54992e-08
4.70216e-06
8.27243e-08
1.22937e-08
4.65434e-06
7.10695e-08
9.92401e-09
4.61366e-06
6.06949e-08
8.21902e-09
4.57894e-06
5.15168e-08
7.00344e-09
4.54929e-06
4.33868e-08
6.19386e-09
4.52386e-06
3.62019e-08
5.67122e-09
4.50204e-06
2.98239e-08
5.39907e-09
4.48321e-06
2.41719e-08
5.2982e-09
4.46695e-06
1.9133e-08
5.357e-09
4.45283e-06
1.46354e-08
5.51653e-09
4.44056e-06
1.05754e-08
5.77021e-09
4.42985e-06
6.91297e-09
6.07819e-09
4.4205e-06
3.57044e-09
6.44441e-09
4.41229e-06
5.33511e-10
6.84621e-09
4.4051e-06
-2.24027e-09
7.26477e-09
4.39881e-06
-4.87538e-09
7.71771e-09
4.39329e-06
-7.1624e-09
8.11679e-09
4.38835e-06
-9.28353e-09
8.61173e-09
4.38399e-06
-1.1333e-08
9.08104e-09
4.37998e-06
-1.28378e-08
9.51795e-09
4.37653e-06
-1.45131e-08
9.79206e-09
4.37271e-06
-1.49811e-08
1.04824e-08
4.36955e-06
-1.59779e-08
1.01609e-08
4.36325e-06
-1.29142e-08
1.22774e-08
4.35884e-06
-1.3002e-08
9.344e-09
4.34099e-06
4.31588e-09
1.66325e-08
4.33053e-06
2.29297e-09
5.36654e-09
6.42573e-08
2.4382e-08
4.38596e-06
-6.52083e-07
-2.30055e-09
4.55142e-06
-4.77813e-07
-7.26632e-09
4.68353e-06
-3.67727e-07
-1.0335e-08
4.80056e-06
-3.15788e-07
-1.22817e-08
4.90982e-06
-2.87886e-07
-1.38569e-08
5.01403e-06
-2.69659e-07
-1.49039e-08
5.11561e-06
-2.60173e-07
-1.53818e-08
5.21616e-06
-2.56325e-07
-1.5608e-08
5.31609e-06
-2.53941e-07
-1.58036e-08
5.41535e-06
-2.51433e-07
-1.5981e-08
5.51383e-06
-2.48666e-07
-1.61351e-08
5.61135e-06
-2.45415e-07
-1.629e-08
5.70769e-06
-2.41408e-07
-1.64577e-08
5.80258e-06
-2.36605e-07
-1.66331e-08
5.89579e-06
-2.31087e-07
-1.68106e-08
5.9871e-06
-2.24915e-07
-1.69877e-08
6.0763e-06
-2.18136e-07
-1.71484e-08
6.16318e-06
-2.10818e-07
-1.72761e-08
6.24754e-06
-2.0304e-07
-1.73678e-08
6.32924e-06
-1.94871e-07
-1.74306e-08
6.40814e-06
-1.86365e-07
-1.7462e-08
6.48411e-06
-1.77567e-07
-1.74647e-08
6.55702e-06
-1.68521e-07
-1.74328e-08
6.62681e-06
-1.59277e-07
-1.73684e-08
6.69337e-06
-1.49879e-07
-1.72739e-08
6.75667e-06
-1.40369e-07
-1.71581e-08
6.81665e-06
-1.30782e-07
-1.70193e-08
6.87329e-06
-1.21155e-07
-1.68694e-08
6.92656e-06
-1.1152e-07
-1.67014e-08
6.97648e-06
-1.01906e-07
-1.65164e-08
7.02301e-06
-9.23407e-08
-1.63167e-08
7.06623e-06
-8.28447e-08
-1.61129e-08
7.10611e-06
-7.34371e-08
-1.58998e-08
7.14271e-06
-6.41299e-08
-1.56847e-08
7.17604e-06
-5.49248e-08
-1.5459e-08
7.20616e-06
-4.58226e-08
-1.52386e-08
7.23308e-06
-3.68261e-08
-1.50117e-08
7.25687e-06
-2.79315e-08
-1.47945e-08
7.27751e-06
-1.91381e-08
-1.45654e-08
7.29509e-06
-1.04401e-08
-1.43527e-08
7.3096e-06
-1.83249e-09
-1.41282e-08
7.32112e-06
6.69369e-09
-1.39243e-08
7.32961e-06
1.51496e-08
-1.37041e-08
7.33518e-06
2.35438e-08
-1.35171e-08
7.33777e-06
3.18921e-08
-1.33122e-08
7.3375e-06
4.02095e-08
-1.31498e-08
7.33426e-06
4.85348e-08
-1.29679e-08
7.32819e-06
5.69006e-08
-1.28382e-08
7.31915e-06
6.53855e-08
-1.26868e-08
7.30724e-06
7.40411e-08
-1.25933e-08
7.29232e-06
8.29605e-08
-1.25853e-08
7.27451e-06
9.23793e-08
-1.25727e-08
7.25312e-06
1.02609e-07
-1.23422e-08
7.22846e-06
1.13567e-07
-1.25509e-08
7.20113e-06
1.25391e-07
-1.39392e-08
7.16905e-06
1.40633e-07
-1.28157e-08
7.12722e-06
1.60742e-07
-8.92527e-09
7.08499e-06
1.78197e-07
-1.73755e-08
7.05276e-06
1.95764e-07
-3.29013e-08
6.97688e-06
2.55382e-07
9.95383e-09
6.79149e-06
3.63127e-07
1.02737e-07
6.51904e-06
4.331e-07
1.6415e-07
6.22558e-06
4.41098e-07
1.67117e-07
5.95449e-06
4.11345e-07
1.41168e-07
5.72027e-06
3.69297e-07
1.10445e-07
5.52259e-06
3.27527e-07
8.39704e-08
5.35557e-06
2.90211e-07
6.43784e-08
5.21324e-06
2.56919e-07
5.0545e-08
5.09224e-06
2.26317e-07
3.96879e-08
4.98974e-06
1.98415e-07
3.08254e-08
4.90279e-06
1.73259e-07
2.41278e-08
4.82886e-06
1.5069e-07
1.90434e-08
4.76593e-06
1.30476e-07
1.52025e-08
4.71222e-06
1.12462e-07
1.23053e-08
4.66633e-06
9.64471e-08
1.01584e-08
4.62699e-06
8.22737e-08
8.57536e-09
4.59321e-06
6.97378e-08
7.45597e-09
4.56407e-06
5.86547e-08
6.6732e-09
4.5389e-06
4.88365e-08
6.1786e-09
4.51705e-06
4.01311e-08
5.88898e-09
4.49803e-06
3.23853e-08
5.78486e-09
4.48137e-06
2.54686e-08
5.80487e-09
4.46678e-06
1.92393e-08
5.93444e-09
4.45392e-06
1.36226e-08
6.13637e-09
4.44258e-06
8.50574e-09
6.40481e-09
4.43253e-06
3.8525e-09
6.72301e-09
4.42361e-06
-3.83155e-10
7.07186e-09
4.4157e-06
-4.4074e-09
7.4454e-09
4.40866e-06
-7.92121e-09
7.80068e-09
4.40229e-06
-1.11525e-08
8.22757e-09
4.39658e-06
-1.42453e-08
8.62633e-09
4.39129e-06
-1.66542e-08
9.10087e-09
4.38661e-06
-1.90619e-08
9.23432e-09
4.38165e-06
-2.00005e-08
9.97552e-09
4.3774e-06
-2.13248e-08
9.60065e-09
4.37009e-06
-1.73621e-08
1.17384e-08
4.36474e-06
-1.64088e-08
8.72597e-09
4.34602e-06
6.77534e-09
1.61674e-08
4.33487e-06
8.80494e-09
4.62096e-09
9.33358e-08
2.4096e-08
4.38517e-06
-8.68256e-07
-2.33324e-09
4.54901e-06
-6.34287e-07
-7.3729e-09
4.67968e-06
-4.8791e-07
-1.04906e-08
4.79566e-06
-4.19283e-07
-1.24943e-08
4.90404e-06
-3.8215e-07
-1.41198e-08
5.00745e-06
-3.57888e-07
-1.51943e-08
5.10834e-06
-3.45378e-07
-1.56919e-08
5.20826e-06
-3.40299e-07
-1.59415e-08
5.30755e-06
-3.37085e-07
-1.61625e-08
5.40617e-06
-3.33692e-07
-1.63679e-08
5.504e-06
-3.29951e-07
-1.65534e-08
5.60088e-06
-3.25552e-07
-1.67405e-08
5.69654e-06
-3.20145e-07
-1.69379e-08
5.79075e-06
-3.1368e-07
-1.71423e-08
5.88327e-06
-3.06265e-07
-1.73489e-08
5.97388e-06
-2.97982e-07
-1.75539e-08
6.06237e-06
-2.88898e-07
-1.77384e-08
6.14854e-06
-2.79105e-07
-1.78855e-08
6.23219e-06
-2.68711e-07
-1.79921e-08
6.31318e-06
-2.57805e-07
-1.80669e-08
6.39137e-06
-2.46456e-07
-1.81073e-08
6.46664e-06
-2.34726e-07
-1.81156e-08
6.53886e-06
-2.22678e-07
-1.80844e-08
6.60797e-06
-2.10374e-07
-1.8016e-08
6.67387e-06
-1.97875e-07
-1.79133e-08
6.73651e-06
-1.85236e-07
-1.77867e-08
6.79585e-06
-1.72501e-07
-1.76341e-08
6.85187e-06
-1.59717e-07
-1.7468e-08
6.90455e-06
-1.4693e-07
-1.72807e-08
6.95389e-06
-1.3418e-07
-1.70741e-08
6.99988e-06
-1.21502e-07
-1.68507e-08
7.04257e-06
-1.08921e-07
-1.66192e-08
7.08194e-06
-9.64625e-08
-1.63787e-08
7.11808e-06
-8.41411e-08
-1.61352e-08
7.15097e-06
-7.19603e-08
-1.58809e-08
7.18069e-06
-5.99205e-08
-1.56292e-08
7.20723e-06
-4.80224e-08
-1.53733e-08
7.23068e-06
-3.62626e-08
-1.51237e-08
7.25101e-06
-2.46384e-08
-1.48662e-08
7.26833e-06
-1.31424e-08
-1.46214e-08
7.2826e-06
-1.76929e-09
-1.43682e-08
7.29393e-06
9.49562e-09
-1.41326e-08
7.30226e-06
2.06618e-08
-1.38823e-08
7.30771e-06
3.17503e-08
-1.36635e-08
7.31022e-06
4.27716e-08
-1.34283e-08
7.30991e-06
5.37604e-08
-1.32373e-08
7.30668e-06
6.47477e-08
-1.30216e-08
7.30066e-06
7.57935e-08
-1.28603e-08
7.29171e-06
8.69779e-08
-1.26696e-08
7.27995e-06
9.83988e-08
-1.25224e-08
7.26523e-06
1.10166e-07
-1.24394e-08
7.24768e-06
1.22532e-07
-1.23645e-08
7.22671e-06
1.35893e-07
-1.20813e-08
7.20246e-06
1.50373e-07
-1.19678e-08
7.17534e-06
1.66033e-07
-1.29135e-08
7.14418e-06
1.85029e-07
-1.21473e-08
7.10446e-06
2.09934e-07
-8.18788e-09
7.06172e-06
2.35211e-07
-1.25682e-08
7.02701e-06
2.59116e-07
-2.63751e-08
6.96349e-06
3.16558e-07
4.18387e-09
6.81376e-06
4.3131e-07
8.21505e-08
6.58376e-06
5.22516e-07
1.4045e-07
6.32121e-06
5.50247e-07
1.52899e-07
6.06416e-06
5.3021e-07
1.37674e-07
5.83199e-06
4.88293e-07
1.12861e-07
5.62973e-06
4.40807e-07
8.87506e-08
5.45568e-06
3.94821e-07
6.93919e-08
5.30564e-06
3.51754e-07
5.51523e-08
5.1768e-06
3.11157e-07
4.39962e-08
5.06687e-06
2.73619e-07
3.47191e-08
4.97314e-06
2.39502e-07
2.75018e-08
4.89311e-06
2.08784e-07
2.1928e-08
4.82471e-06
1.81256e-07
1.76422e-08
4.7661e-06
1.56718e-07
1.43473e-08
4.7158e-06
1.34924e-07
1.18495e-08
4.67247e-06
1.15638e-07
9.95897e-09
4.63506e-06
9.85958e-08
8.57159e-09
4.60262e-06
8.35303e-08
7.55457e-09
4.57443e-06
7.01968e-08
6.85573e-09
4.54979e-06
5.83745e-08
6.38714e-09
4.52821e-06
4.78639e-08
6.12642e-09
4.50917e-06
3.84775e-08
6.00927e-09
4.49236e-06
3.0034e-08
6.01563e-09
4.47745e-06
2.2421e-08
6.11151e-09
4.46417e-06
1.54957e-08
6.28117e-09
4.45231e-06
9.19219e-09
6.51333e-09
4.44169e-06
3.45651e-09
6.79472e-09
4.43216e-06
-1.96024e-09
7.07861e-09
4.4236e-06
-6.75805e-09
7.39742e-09
4.4158e-06
-1.11045e-08
7.74976e-09
4.40871e-06
-1.52283e-08
8.0671e-09
4.40214e-06
-1.86368e-08
8.558e-09
4.39622e-06
-2.17807e-08
8.63706e-09
4.39011e-06
-2.3303e-08
9.40364e-09
4.38475e-06
-2.49426e-08
8.97175e-09
4.37645e-06
-2.01602e-08
1.10952e-08
4.37018e-06
-1.82328e-08
8.05549e-09
4.35066e-06
1.06766e-08
1.55325e-08
4.33887e-06
1.66646e-08
3.90863e-09
1.23533e-07
2.35356e-08
4.38405e-06
-1.08327e-06
-2.37157e-09
4.54561e-06
-7.88338e-07
-7.51021e-09
4.67431e-06
-6.05917e-07
-1.07022e-08
4.78888e-06
-5.21068e-07
-1.27864e-08
4.89603e-06
-4.74836e-07
-1.44748e-08
4.99835e-06
-4.44645e-07
-1.55765e-08
5.0983e-06
-4.29243e-07
-1.609e-08
5.19734e-06
-4.2298e-07
-1.63603e-08
5.29577e-06
-4.18917e-07
-1.66053e-08
5.39351e-06
-4.14612e-07
-1.68379e-08
5.49047e-06
-4.0986e-07
-1.70552e-08
5.58646e-06
-4.04264e-07
-1.72764e-08
5.68121e-06
-3.97402e-07
-1.75093e-08
5.7745e-06
-3.89223e-07
-1.77501e-08
5.86608e-06
-3.79861e-07
-1.79938e-08
5.95574e-06
-3.6942e-07
-1.82341e-08
6.04328e-06
-3.57991e-07
-1.84497e-08
6.12848e-06
-3.45692e-07
-1.86235e-08
6.21117e-06
-3.32658e-07
-1.87531e-08
6.2912e-06
-3.18996e-07
-1.88475e-08
6.36843e-06
-3.04795e-07
-1.89031e-08
6.44275e-06
-2.90133e-07
-1.89214e-08
6.51405e-06
-2.75089e-07
-1.88942e-08
6.58223e-06
-2.59743e-07
-1.88244e-08
6.64722e-06
-2.44167e-07
-1.87153e-08
6.70899e-06
-2.28427e-07
-1.85791e-08
6.76747e-06
-2.12581e-07
-1.84123e-08
6.82265e-06
-1.96685e-07
-1.82275e-08
6.87452e-06
-1.80796e-07
-1.80178e-08
6.92309e-06
-1.64966e-07
-1.7787e-08
6.96833e-06
-1.49236e-07
-1.7534e-08
7.01031e-06
-1.33639e-07
-1.72693e-08
7.04902e-06
-1.18202e-07
-1.69942e-08
7.08453e-06
-1.0294e-07
-1.67166e-08
7.11683e-06
-8.78613e-08
-1.64264e-08
7.146e-06
-7.29646e-08
-1.61377e-08
7.17204e-06
-5.82484e-08
-1.58434e-08
7.19503e-06
-4.37084e-08
-1.5555e-08
7.21496e-06
-2.93393e-08
-1.52594e-08
7.23192e-06
-1.51334e-08
-1.49751e-08
7.24588e-06
-1.07994e-09
-1.46864e-08
7.25695e-06
1.28345e-08
-1.44122e-08
7.26508e-06
2.66283e-08
-1.41308e-08
7.27038e-06
4.03217e-08
-1.38747e-08
7.27279e-06
5.39343e-08
-1.36118e-08
7.27243e-06
6.75063e-08
-1.33883e-08
7.26921e-06
8.1076e-08
-1.31493e-08
7.26326e-06
9.47169e-08
-1.29647e-08
7.25445e-06
1.08517e-07
-1.27549e-08
7.24289e-06
1.22618e-07
-1.25969e-08
7.22843e-06
1.37139e-07
-1.24795e-08
7.21123e-06
1.52371e-07
-1.24203e-08
7.19078e-06
1.68731e-07
-1.2171e-08
7.16709e-06
1.86546e-07
-1.19543e-08
7.14043e-06
2.05894e-07
-1.26509e-08
7.11026e-06
2.28518e-07
-1.23358e-08
7.07261e-06
2.57381e-07
-8.6589e-09
7.03016e-06
2.89382e-07
-1.02032e-08
6.99408e-06
3.20192e-07
-2.29302e-08
6.94069e-06
3.75217e-07
-3.43891e-09
6.8181e-06
4.88843e-07
6.57842e-08
6.62093e-06
5.97374e-07
1.22288e-07
6.38557e-06
6.45215e-07
1.39972e-07
6.14398e-06
6.38929e-07
1.32403e-07
5.91739e-06
6.01931e-07
1.1263e-07
5.7145e-06
5.52344e-07
9.11104e-08
5.53687e-06
4.99869e-07
7.25113e-08
5.38221e-06
4.48212e-07
5.81338e-08
5.24821e-06
3.98237e-07
4.69098e-08
5.13303e-06
3.51249e-07
3.75407e-08
5.03436e-06
3.08198e-07
2.9995e-08
4.94973e-06
2.69285e-07
2.41166e-08
4.8771e-06
2.34379e-07
1.95299e-08
4.8146e-06
2.03263e-07
1.59487e-08
4.76072e-06
1.75642e-07
1.31861e-08
4.71409e-06
1.5121e-07
1.10533e-08
4.67363e-06
1.29631e-07
9.44753e-09
4.63836e-06
1.10561e-07
8.23353e-09
4.60753e-06
9.36911e-08
7.35838e-09
4.58043e-06
7.87353e-08
6.73173e-09
4.55654e-06
6.5443e-08
6.32959e-09
4.53534e-06
5.35718e-08
6.08651e-09
4.5165e-06
4.29001e-08
5.97759e-09
4.49967e-06
3.32753e-08
5.97259e-09
4.48458e-06
2.453e-08
6.04828e-09
4.47101e-06
1.65628e-08
6.19522e-09
4.45876e-06
9.30584e-09
6.41071e-09
4.44768e-06
2.50422e-09
6.61107e-09
4.43765e-06
-3.61048e-09
6.88099e-09
4.42845e-06
-9.1071e-09
7.19699e-09
4.42003e-06
-1.42419e-08
7.43492e-09
4.41219e-06
-1.86666e-08
7.87613e-09
4.40507e-06
-2.26514e-08
7.99098e-09
4.39784e-06
-2.48288e-08
8.75498e-09
4.3914e-06
-2.67578e-08
8.24798e-09
4.38211e-06
-2.12331e-08
1.03446e-08
4.37499e-06
-1.84426e-08
7.293e-09
4.35475e-06
1.60548e-08
1.47719e-08
4.34244e-06
2.58032e-08
3.14983e-09
1.54884e-07
2.28131e-08
4.38257e-06
-1.29676e-06
-2.41818e-09
4.54115e-06
-9.39236e-07
-7.68489e-09
4.66735e-06
-7.21154e-07
-1.09714e-08
4.78012e-06
-6.20683e-07
-1.31567e-08
4.8857e-06
-5.65507e-07
-1.49239e-08
4.98663e-06
-5.29522e-07
-1.60606e-08
5.08537e-06
-5.11396e-07
-1.65958e-08
5.18329e-06
-5.04004e-07
-1.68962e-08
5.28061e-06
-4.99066e-07
-1.71773e-08
5.37724e-06
-4.93807e-07
-1.74498e-08
5.47308e-06
-4.87993e-07
-1.77126e-08
5.56793e-06
-4.81132e-07
-1.79836e-08
5.66152e-06
-4.72739e-07
-1.82688e-08
5.75363e-06
-4.62771e-07
-1.8563e-08
5.84401e-06
-4.51391e-07
-1.88599e-08
5.93246e-06
-4.38728e-07
-1.91509e-08
6.01877e-06
-4.24896e-07
-1.94122e-08
6.10274e-06
-4.10045e-07
-1.96264e-08
6.18419e-06
-3.94331e-07
-1.97914e-08
6.26299e-06
-3.77887e-07
-1.9917e-08
6.339e-06
-3.60816e-07
-1.99976e-08
6.41211e-06
-3.43216e-07
-2.00336e-08
6.4822e-06
-3.25181e-07
-2.00167e-08
6.54921e-06
-3.06807e-07
-1.99503e-08
6.61305e-06
-2.8818e-07
-1.98386e-08
6.67368e-06
-2.69373e-07
-1.96944e-08
6.73106e-06
-2.5046e-07
-1.95143e-08
6.78518e-06
-2.31504e-07
-1.93095e-08
6.83602e-06
-2.12576e-07
-1.90743e-08
6.88359e-06
-1.93733e-07
-1.88142e-08
6.92789e-06
-1.75029e-07
-1.85272e-08
6.96897e-06
-1.56501e-07
-1.82236e-08
7.00682e-06
-1.38174e-07
-1.79067e-08
7.04153e-06
-1.20067e-07
-1.75867e-08
7.07308e-06
-1.02189e-07
-1.72521e-08
7.10156e-06
-8.45384e-08
-1.69165e-08
7.12696e-06
-6.71128e-08
-1.65715e-08
7.14938e-06
-4.99024e-08
-1.62333e-08
7.1688e-06
-3.29018e-08
-1.58851e-08
7.18531e-06
-1.60983e-08
-1.55514e-08
7.19889e-06
5.19642e-10
-1.52101e-08
7.20964e-06
1.6971e-08
-1.48886e-08
7.21751e-06
3.32765e-08
-1.45571e-08
7.22262e-06
4.94585e-08
-1.42518e-08
7.22491e-06
6.5545e-08
-1.39404e-08
7.2245e-06
8.15821e-08
-1.36693e-08
7.2213e-06
9.76198e-08
-1.33897e-08
7.21545e-06
1.13736e-07
-1.31617e-08
7.20681e-06
1.30042e-07
-1.29249e-08
7.19552e-06
1.46698e-07
-1.27341e-08
7.18141e-06
1.63857e-07
-1.25835e-08
7.16466e-06
1.81831e-07
-1.25113e-08
7.14483e-06
2.01059e-07
-1.23157e-08
7.12188e-06
2.22018e-07
-1.2035e-08
7.09587e-06
2.44912e-07
-1.25302e-08
7.06682e-06
2.71067e-07
-1.26251e-08
7.03136e-06
3.03442e-07
-9.60074e-09
6.98982e-06
3.41194e-07
-8.93537e-09
6.95274e-06
3.79478e-07
-2.02816e-08
6.90791e-06
4.33611e-07
-1.17582e-08
6.80779e-06
5.40247e-07
4.96171e-08
6.63729e-06
6.61835e-07
1.06144e-07
6.42494e-06
7.2931e-07
1.27919e-07
6.19785e-06
7.39181e-07
1.26401e-07
5.97796e-06
7.1033e-07
1.11164e-07
5.77673e-06
6.61305e-07
9.20178e-08
5.59807e-06
6.04035e-07
7.44025e-08
5.44126e-06
5.44803e-07
6.01338e-08
5.30456e-06
4.86107e-07
4.88188e-08
5.1863e-06
4.30059e-07
3.94275e-08
5.08452e-06
3.78295e-07
3.16987e-08
4.99686e-06
3.31323e-07
2.56131e-08
4.92131e-06
2.89131e-07
2.08204e-08
4.85601e-06
2.51509e-07
1.70371e-08
4.79948e-06
2.1812e-07
1.4081e-08
4.75033e-06
1.88592e-07
1.17654e-08
4.70748e-06
1.62521e-07
9.99001e-09
4.66992e-06
1.39483e-07
8.61889e-09
4.63693e-06
1.19108e-07
7.59951e-09
4.60778e-06
1.01045e-07
6.84117e-09
4.58193e-06
8.49912e-08
6.31849e-09
4.55887e-06
7.06512e-08
5.96671e-09
4.53825e-06
5.77643e-08
5.75655e-09
4.51972e-06
4.61368e-08
5.66121e-09
4.50301e-06
3.55794e-08
5.65338e-09
4.48789e-06
2.59532e-08
5.72195e-09
4.47416e-06
1.71712e-08
5.87567e-09
4.46166e-06
8.9964e-09
6.0066e-09
4.45027e-06
1.556e-09
6.21848e-09
4.43978e-06
-5.13228e-09
6.51986e-09
4.4301e-06
-1.12717e-08
6.7029e-09
4.42106e-06
-1.67055e-08
7.07613e-09
4.41281e-06
-2.16038e-08
7.20391e-09
4.40451e-06
-2.44871e-08
7.95812e-09
4.39706e-06
-2.67215e-08
7.40675e-09
4.38687e-06
-2.05345e-08
9.47805e-09
4.37899e-06
-1.70269e-08
6.42624e-09
4.35814e-06
2.29186e-08
1.3901e-08
4.34547e-06
3.61317e-08
2.31145e-09
1.87402e-07
2.19791e-08
4.38068e-06
-1.5083e-06
-2.47485e-09
4.53554e-06
-1.08621e-06
-7.89792e-09
4.6587e-06
-8.33017e-07
-1.12975e-08
4.76927e-06
-7.17657e-07
-1.36065e-08
4.87293e-06
-6.53708e-07
-1.54703e-08
4.97215e-06
-6.12094e-07
-1.66492e-08
5.06941e-06
-5.91451e-07
-1.72113e-08
5.16594e-06
-5.82995e-07
-1.7549e-08
5.26189e-06
-5.77147e-07
-1.78744e-08
5.35715e-06
-5.70884e-07
-1.81956e-08
5.45161e-06
-5.63943e-07
-1.85143e-08
5.54505e-06
-5.5573e-07
-1.88479e-08
5.63721e-06
-5.45708e-07
-1.91989e-08
5.72785e-06
-5.33858e-07
-1.95604e-08
5.81675e-06
-5.20372e-07
-1.99248e-08
5.9037e-06
-5.05403e-07
-2.0281e-08
5.98849e-06
-4.89094e-07
-2.06028e-08
6.07093e-06
-4.71626e-07
-2.08718e-08
6.15086e-06
-4.53182e-07
-2.10866e-08
6.22813e-06
-4.33914e-07
-2.1256e-08
6.30263e-06
-4.13946e-07
-2.13732e-08
6.37424e-06
-3.93393e-07
-2.14376e-08
6.44285e-06
-3.72367e-07
-2.14403e-08
6.5084e-06
-3.50978e-07
-2.13858e-08
6.57081e-06
-3.29323e-07
-2.12787e-08
6.63005e-06
-3.07488e-07
-2.11314e-08
6.68607e-06
-2.85554e-07
-2.09414e-08
6.73887e-06
-2.63599e-07
-2.07187e-08
6.78844e-06
-2.41701e-07
-2.04584e-08
6.8348e-06
-2.19928e-07
-2.01666e-08
6.87792e-06
-1.98339e-07
-1.98439e-08
6.91789e-06
-1.76978e-07
-1.94989e-08
6.9547e-06
-1.55871e-07
-1.9135e-08
6.98842e-06
-1.35034e-07
-1.8765e-08
7.01906e-06
-1.14476e-07
-1.83779e-08
7.04669e-06
-9.41976e-08
-1.79863e-08
7.07133e-06
-7.41945e-08
-1.75815e-08
7.09305e-06
-5.44499e-08
-1.71815e-08
7.11184e-06
-3.4956e-08
-1.67712e-08
7.1278e-06
-1.56953e-08
-1.63747e-08
7.14092e-06
3.34558e-09
-1.59707e-08
7.15128e-06
2.21907e-08
-1.55868e-08
7.15885e-06
4.08643e-08
-1.51928e-08
7.16374e-06
5.93915e-08
-1.48276e-08
7.16589e-06
7.78044e-08
-1.44531e-08
7.16543e-06
9.61629e-08
-1.41255e-08
7.16227e-06
1.14523e-07
-1.37903e-08
7.15654e-06
1.32976e-07
-1.35159e-08
7.14814e-06
1.51645e-07
-1.32399e-08
7.13718e-06
1.70719e-07
-1.30204e-08
7.1235e-06
1.90371e-07
-1.28345e-08
7.1073e-06
2.10953e-07
-1.27525e-08
7.08821e-06
2.32918e-07
-1.26232e-08
7.06615e-06
2.56842e-07
-1.23385e-08
7.04101e-06
2.83111e-07
-1.26561e-08
7.01316e-06
3.12742e-07
-1.30669e-08
6.98001e-06
3.4839e-07
-1.09406e-08
6.94006e-06
3.91012e-07
-8.68002e-09
6.9022e-06
4.36975e-07
-1.7868e-08
6.8638e-06
4.92856e-07
-1.90606e-08
6.78274e-06
5.90116e-07
3.23095e-08
6.63419e-06
7.19682e-07
9.09484e-08
6.43978e-06
8.06281e-07
1.172e-07
6.22514e-06
8.33241e-07
1.20184e-07
6.01223e-06
8.13976e-07
1.08932e-07
5.81428e-06
7.66899e-07
9.2091e-08
5.6368e-06
7.05934e-07
7.54756e-08
5.48034e-06
6.39827e-07
6.13362e-08
5.34343e-06
5.73075e-07
4.99159e-08
5.2244e-06
5.08574e-07
4.04869e-08
5.12148e-06
4.48552e-07
3.26786e-08
5.03246e-06
3.9388e-07
2.64514e-08
4.95541e-06
3.44686e-07
2.15199e-08
4.88852e-06
3.00783e-07
1.75962e-08
4.83036e-06
2.61811e-07
1.45019e-08
4.77956e-06
2.27337e-07
1.20525e-08
4.73506e-06
1.96896e-07
1.01499e-08
4.69588e-06
1.69992e-07
8.65833e-09
4.6613e-06
1.46198e-07
7.52592e-09
4.63057e-06
1.25098e-07
6.66265e-09
4.6032e-06
1.06342e-07
6.04203e-09
4.57865e-06
8.95814e-08
5.60068e-09
4.55659e-06
7.45199e-08
5.30601e-09
4.53666e-06
6.09231e-08
5.13366e-09
4.5186e-06
4.85818e-08
5.05511e-09
4.50217e-06
3.73191e-08
5.05615e-09
4.48717e-06
2.70267e-08
5.15449e-09
4.47344e-06
1.74959e-08
5.22997e-09
4.46087e-06
8.7375e-09
5.38969e-09
4.44922e-06
8.52855e-10
5.65729e-09
4.43844e-06
-6.28862e-09
5.79819e-09
4.42834e-06
-1.27614e-08
6.15946e-09
4.41906e-06
-1.85531e-08
6.22713e-09
4.40979e-06
-2.21833e-08
6.9701e-09
4.40143e-06
-2.47999e-08
6.4236e-09
4.39045e-06
-1.80499e-08
8.48485e-09
4.38194e-06
-1.40024e-08
5.44882e-09
4.36063e-06
3.12278e-08
1.29097e-08
4.34781e-06
4.75455e-08
1.38621e-09
2.21017e-07
2.10273e-08
4.37832e-06
-1.71741e-06
-2.54238e-09
4.52868e-06
-1.22842e-06
-8.14997e-09
4.64822e-06
-9.40887e-07
-1.16816e-08
4.7562e-06
-8.11503e-07
-1.41384e-08
4.85757e-06
-7.38965e-07
-1.6116e-08
4.95473e-06
-6.91925e-07
-1.73449e-08
5.05022e-06
-6.69006e-07
-1.79395e-08
5.1451e-06
-6.59552e-07
-1.83224e-08
5.23939e-06
-6.52749e-07
-1.8702e-08
5.333e-06
-6.45418e-07
-1.90831e-08
5.42579e-06
-6.37266e-07
-1.94716e-08
5.51753e-06
-6.2759e-07
-1.9884e-08
5.60795e-06
-6.1582e-07
-2.03188e-08
5.69682e-06
-6.01968e-07
-2.07669e-08
5.78392e-06
-5.86261e-07
-2.12191e-08
5.86905e-06
-5.68876e-07
-2.1661e-08
5.952e-06
-5.49992e-07
-2.20639e-08
6.0326e-06
-5.29822e-07
-2.24084e-08
6.11067e-06
-5.08575e-07
-2.26932e-08
6.1861e-06
-4.86425e-07
-2.29257e-08
6.25876e-06
-4.63518e-07
-2.30981e-08
6.32855e-06
-4.39985e-07
-2.32077e-08
6.39537e-06
-4.15957e-07
-2.32459e-08
6.45916e-06
-3.91556e-07
-2.32177e-08
6.51985e-06
-3.66894e-07
-2.3128e-08
6.5774e-06
-3.42062e-07
-2.29886e-08
6.63179e-06
-3.17158e-07
-2.27971e-08
6.68301e-06
-2.92266e-07
-2.25634e-08
6.73105e-06
-2.67476e-07
-2.22828e-08
6.77594e-06
-2.42862e-07
-2.19621e-08
6.81767e-06
-2.1849e-07
-2.16036e-08
6.85631e-06
-1.94411e-07
-2.12165e-08
6.89187e-06
-1.70648e-07
-2.0803e-08
6.92442e-06
-1.47215e-07
-2.03766e-08
6.95396e-06
-1.24121e-07
-1.99285e-08
6.98059e-06
-1.01366e-07
-1.94717e-08
7.00431e-06
-7.89436e-08
-1.89968e-08
7.0252e-06
-5.68291e-08
-1.85223e-08
7.04326e-06
-3.50107e-08
-1.80358e-08
7.05858e-06
-1.34654e-08
-1.75605e-08
7.07115e-06
7.82435e-09
-1.70776e-08
7.08106e-06
2.88833e-08
-1.66109e-08
7.08828e-06
4.97461e-08
-1.61359e-08
7.09291e-06
7.04366e-08
-1.56889e-08
7.09491e-06
9.09959e-08
-1.52353e-08
7.0944e-06
1.11494e-07
-1.48303e-08
7.09129e-06
1.32e-07
-1.44241e-08
7.08573e-06
1.52611e-07
-1.40832e-08
7.0776e-06
1.73482e-07
-1.37589e-08
7.06703e-06
1.94808e-07
-1.34968e-08
7.05387e-06
2.16811e-07
-1.32946e-08
7.03829e-06
2.39884e-07
-1.32215e-08
7.02001e-06
2.6449e-07
-1.319e-08
6.99893e-06
2.91277e-07
-1.30028e-08
6.97478e-06
3.20814e-07
-1.32352e-08
6.94814e-06
3.53994e-07
-1.39719e-08
6.91724e-06
3.92943e-07
-1.29211e-08
6.87938e-06
4.40011e-07
-1.01044e-08
6.84121e-06
4.93522e-07
-1.67603e-08
6.80704e-06
5.54332e-07
-2.55754e-08
6.74064e-06
6.44879e-07
1.2981e-08
6.60808e-06
7.77285e-07
7.53572e-08
6.42571e-06
8.80899e-07
1.07606e-07
6.2214e-06
9.23327e-07
1.13866e-07
6.0161e-06
9.12915e-07
1.06049e-07
5.82373e-06
8.67756e-07
9.12388e-08
5.65026e-06
8.03571e-07
7.57079e-08
5.49687e-06
7.31268e-07
6.18369e-08
5.36242e-06
6.5719e-07
5.02992e-08
5.24507e-06
5.85073e-07
4.08218e-08
5.1431e-06
5.17532e-07
3.2994e-08
5.05451e-06
4.55772e-07
2.66818e-08
4.97749e-06
4.00074e-07
2.16633e-08
4.91032e-06
3.50291e-07
1.76447e-08
4.85165e-06
3.0606e-07
1.44535e-08
4.80017e-06
2.66904e-07
1.19081e-08
4.75487e-06
2.32308e-07
9.91268e-09
4.71481e-06
2.01715e-07
8.33178e-09
4.67927e-06
1.74646e-07
7.11393e-09
4.64757e-06
1.50629e-07
6.17026e-09
4.61918e-06
1.29271e-07
5.47334e-09
4.59361e-06
1.10174e-07
4.96126e-09
4.57052e-06
9.30083e-08
4.59924e-09
4.54957e-06
7.75017e-08
4.36445e-09
4.5305e-06
6.34263e-08
4.22877e-09
4.51306e-06
5.05693e-08
4.17565e-09
4.49707e-06
3.87996e-08
4.22627e-09
4.48236e-06
2.79379e-08
4.26101e-09
4.46884e-06
1.78857e-08
4.38053e-09
4.45625e-06
8.82678e-09
4.60468e-09
4.44457e-06
6.6072e-10
4.74095e-09
4.43357e-06
-6.84595e-09
5.07529e-09
4.42343e-06
-1.35036e-08
5.0913e-09
4.41332e-06