/*--------------------------------*- C++ -*----------------------------------*\
| =========                 |                                                 |
| \\      /  F ield         | OpenFOAM: The Open Source CFD Toolbox           |
|  \\    /   O peration     | Version:  v1912                                 |
|   \\  /    A nd           | Website:  www.openfoam.com                      |
|    \\/     M anipulation  |                                                 |
\*---------------------------------------------------------------------------*/
FoamFile
{
    version     2.0;
    format      ascii;
    class       volVectorField;
    location    "100";
    object      U;
}
// * * * * * * * * * * * * * * * * * * * * * * * * * * * * * * * * * * * * * //

dimensions      [0 1 -1 0 0 0 0];


internalField   nonuniform List<vector> 
60000
(
(0.998764 0.000464451 -5.4233e-05)
(0.988518 0.0012423 -0.000160057)
(0.96986 0.00163788 -0.000217033)
(0.948146 0.00171193 -0.00024203)
(0.927689 0.0016707 -0.000258386)
(0.909288 0.00159916 -0.00026663)
(0.892483 0.00149907 -0.000265015)
(0.877204 0.0013843 -0.000258792)
(0.863564 0.00127632 -0.000252528)
(0.851461 0.00118152 -0.000246804)
(0.840661 0.00109765 -0.000241322)
(0.830975 0.00102375 -0.000236286)
(0.822265 0.00095992 -0.000231884)
(0.814408 0.000905239 -0.000228019)
(0.807287 0.000858244 -0.000224521)
(0.800802 0.000817777 -0.000221299)
(0.794869 0.000782994 -0.000218202)
(0.789413 0.000753119 -0.000215037)
(0.78437 0.00072733 -0.000211712)
(0.779683 0.000704895 -0.00020831)
(0.775307 0.000685343 -0.000204807)
(0.771201 0.000668248 -0.00020124)
(0.767332 0.000653264 -0.000197551)
(0.763668 0.000640019 -0.000193799)
(0.760185 0.00062822 -0.000189951)
(0.75686 0.000617542 -0.000186125)
(0.753677 0.00060783 -0.000182275)
(0.750621 0.000598766 -0.000178522)
(0.747679 0.000590255 -0.000174769)
(0.744843 0.000582093 -0.000171075)
(0.742104 0.000574233 -0.000167404)
(0.739455 0.000566368 -0.000163882)
(0.736892 0.000558529 -0.000160425)
(0.734412 0.00055051 -0.000157107)
(0.732012 0.000542503 -0.00015383)
(0.729689 0.000534241 -0.000150714)
(0.727442 0.000525914 -0.0001477)
(0.725269 0.000517243 -0.000144872)
(0.72317 0.000508551 -0.000142118)
(0.721143 0.000499481 -0.00013954)
(0.719187 0.000490425 -0.000137034)
(0.717302 0.00048101 -0.000134715)
(0.715487 0.00047174 -0.000132479)
(0.713741 0.00046209 -0.000130543)
(0.712064 0.000452594 -0.000128668)
(0.710454 0.000442745 -0.000127203)
(0.70891 0.00043328 -0.000125786)
(0.707431 0.000423898 -0.000124652)
(0.706011 0.000415135 -0.000123559)
(0.704645 0.000406364 -0.000123679)
(0.703341 0.000399192 -0.000123979)
(0.702085 0.000395963 -0.000121351)
(0.700807 0.000394782 -0.000119545)
(0.699513 0.000388181 -0.000130839)
(0.698436 0.00039449 -0.000130897)
(0.697273 0.000456934 -6.86937e-05)
(0.694897 0.000505736 -5.23759e-05)
(0.692599 0.000400462 -0.00024784)
(0.694699 0.000506041 -0.000147592)
(0.693043 0.00151769 0.000953559)
(0.669208 0.0026274 0.00200665)
(0.632613 0.00271972 0.00205475)
(0.599378 0.00219437 0.00157938)
(0.573838 0.00163821 0.00112505)
(0.554786 0.00121235 0.000805086)
(0.540559 0.000896424 0.000583)
(0.529863 0.000654167 0.000429245)
(0.521783 0.000453299 0.000327715)
(0.515871 0.000270067 0.000251491)
(0.511882 0.000100094 0.000190516)
(0.509546 -5.71243e-05 0.000146357)
(0.50866 -0.00020376 0.000114485)
(0.509072 -0.000342071 9.16359e-05)
(0.510662 -0.000472223 7.56988e-05)
(0.513336 -0.000596016 6.49764e-05)
(0.517024 -0.000713471 5.84215e-05)
(0.521671 -0.000826397 5.50695e-05)
(0.52724 -0.000935096 5.43612e-05)
(0.53371 -0.00104135 5.56621e-05)
(0.541074 -0.00114529 5.87807e-05)
(0.549338 -0.00124845 6.32915e-05)
(0.55852 -0.00135115 6.91199e-05)
(0.568652 -0.0014548 7.58859e-05)
(0.579783 -0.00155982 8.35698e-05)
(0.59197 -0.00166713 9.20278e-05)
(0.60529 -0.00177722 0.000101273)
(0.619828 -0.0018911 0.000111098)
(0.635703 -0.00200973 0.000121432)
(0.653037 -0.00213281 0.000132217)
(0.671982 -0.00226178 0.000144849)
(0.692692 -0.00239957 0.000157171)
(0.715452 -0.00254062 0.000170521)
(0.740335 -0.00269573 0.000181384)
(0.768056 -0.00285144 0.000201952)
(0.797903 -0.00302708 0.000202574)
(0.832641 -0.00317773 0.000253195)
(0.866962 -0.00338759 0.00020259)
(0.91407 -0.00343602 0.000372215)
(0.94478 -0.0037349 0.000130048)
(1.02153 -0.00343588 0.000598413)
(0.998743 0.00137474 -5.37706e-05)
(0.988415 0.00377937 -0.000160369)
(0.96965 0.00510873 -0.000218363)
(0.94786 0.00549333 -0.000244317)
(0.927364 0.00550502 -0.000261609)
(0.908936 0.0053903 -0.000270613)
(0.892105 0.00516382 -0.000269476)
(0.876803 0.00486954 -0.000263519)
(0.863144 0.00457168 -0.000257455)
(0.851021 0.0042943 -0.000251868)
(0.840202 0.0040372 -0.000246418)
(0.830497 0.0038016 -0.000241353)
(0.821767 0.00359011 -0.000236931)
(0.813891 0.00340195 -0.000233058)
(0.806752 0.0032345 -0.000229518)
(0.800249 0.00308548 -0.000226209)
(0.794297 0.00295323 -0.00022298)
(0.788824 0.00283593 -0.000219662)
(0.783762 0.00273162 -0.00021621)
(0.779058 0.00263842 -0.000212712)
(0.774665 0.00255503 -0.00020911)
(0.770544 0.00248021 -0.000205429)
(0.766659 0.00241291 -0.000201579)
(0.76298 0.00235203 -0.000197631)
(0.759482 0.00229657 -0.000193605)
(0.756143 0.00224556 -0.000189609)
(0.752947 0.00219827 -0.000185557)
(0.749878 0.00215384 -0.000181663)
(0.746925 0.00211162 -0.000177835)
(0.744077 0.00207109 -0.000174041)
(0.741328 0.00203174 -0.000170147)
(0.738669 0.00199294 -0.000166395)
(0.736098 0.00195437 -0.000162762)
(0.73361 0.0019157 -0.000159332)
(0.731203 0.00187698 -0.000155884)
(0.728874 0.00183792 -0.000152632)
(0.726621 0.0017986 -0.000149439)
(0.724444 0.00175872 -0.000146538)
(0.722342 0.00171866 -0.000143663)
(0.720312 0.00167798 -0.00014107)
(0.718354 0.00163724 -0.000138505)
(0.716469 0.00159592 -0.000136209)
(0.714654 0.00155484 -0.0001339)
(0.712909 0.00151327 -0.000132006)
(0.711234 0.00147218 -0.000130215)
(0.709627 0.00143091 -0.00012899)
(0.708087 0.00139097 -0.000127847)
(0.706614 0.00135201 -0.000127177)
(0.705204 0.00131587 -0.000126481)
(0.70385 0.00128181 -0.000126601)
(0.702553 0.00125237 -0.000127639)
(0.701317 0.00123297 -0.000126787)
(0.700097 0.00122612 -0.000123494)
(0.698836 0.00121845 -0.000128568)
(0.697673 0.00122609 -0.000136127)
(0.696639 0.00134092 -9.33283e-05)
(0.694916 0.00150827 -4.08367e-05)
(0.692398 0.0014177 -0.000154021)
(0.692379 0.00149319 -0.000177687)
(0.692858 0.00324629 0.00058652)
(0.679511 0.00587479 0.00153604)
(0.652154 0.0068388 0.00186355)
(0.621915 0.0061639 0.00166168)
(0.595554 0.00498239 0.00131393)
(0.57439 0.00387597 0.000996959)
(0.55794 0.00296371 0.000741647)
(0.545244 0.00222508 0.000552829)
(0.535408 0.00159763 0.000427978)
(0.527948 0.00102437 0.000333612)
(0.522636 0.00049279 0.000255131)
(0.519166 1.99752e-06 0.000197116)
(0.517307 -0.0004544 0.000154489)
(0.516881 -0.000882273 0.000123146)
(0.517746 -0.00128355 0.000100554)
(0.51979 -0.00166263 8.44504e-05)
(0.522928 -0.0020211 7.35825e-05)
(0.527092 -0.00236338 6.66518e-05)
(0.532235 -0.00269171 6.29829e-05)
(0.538327 -0.00301046 6.17487e-05)
(0.545355 -0.00332146 6.27051e-05)
(0.553316 -0.00362851 6.53391e-05)
(0.562225 -0.00393363 6.95275e-05)
(0.572108 -0.00424052 7.48123e-05)
(0.583011 -0.00455096 8.11583e-05)
(0.594989 -0.004868 8.84034e-05)
(0.608115 -0.00519319 9.65284e-05)
(0.622472 -0.00552955 0.000105397)
(0.638176 -0.00588102 0.000114768)
(0.655351 -0.00624564 0.000124647)
(0.674147 -0.00662961 0.000136456)
(0.694714 -0.00703854 0.000147866)
(0.717333 -0.00746337 0.000160884)
(0.742083 -0.00792726 0.00017058)
(0.769671 -0.00839921 0.000190857)
(0.799399 -0.00892677 0.000190931)
(0.834002 -0.00940632 0.000242392)
(0.868232 -0.0100136 0.000189272)
(0.915183 -0.0102727 0.000364838)
(0.945845 -0.0110151 0.000111552)
(1.02245 -0.0104594 0.000598584)
(0.998704 0.00228162 -5.41981e-05)
(0.988198 0.00631778 -0.000162282)
(0.969197 0.00852003 -0.000220757)
(0.947239 0.00913198 -0.000246822)
(0.926655 0.00913077 -0.000264137)
(0.908164 0.00892012 -0.000272978)
(0.891274 0.00851985 -0.000271569)
(0.875924 0.00800767 -0.000265344)
(0.862227 0.00749411 -0.000259094)
(0.850068 0.00701921 -0.000253457)
(0.839214 0.00658181 -0.000248091)
(0.829473 0.00618336 -0.000243153)
(0.820709 0.00582764 -0.000238822)
(0.812799 0.00551288 -0.000235073)
(0.805625 0.0052342 -0.000231736)
(0.799087 0.00498757 -0.000228657)
(0.793101 0.00476985 -0.000225585)
(0.787594 0.00457765 -0.00022234)
(0.782499 0.00440744 -0.000218935)
(0.777762 0.00425608 -0.000215509)
(0.773337 0.00412122 -0.000212007)
(0.769184 0.00400071 -0.000208409)
(0.765269 0.00389271 -0.000204575)
(0.76156 0.00379533 -0.000200552)
(0.758034 0.00370683 -0.000196415)
(0.754668 0.00362564 -0.000192317)
(0.751445 0.00355047 -0.000188143)
(0.74835 0.00348003 -0.000184147)
(0.745373 0.00341319 -0.000180262)
(0.742503 0.00334902 -0.000176386)
(0.739731 0.00328659 -0.00017233)
(0.737052 0.00322515 -0.000168368)
(0.734462 0.00316404 -0.000164533)
(0.731956 0.00310284 -0.000160941)
(0.729533 0.00304138 -0.000157315)
(0.72719 0.00297955 -0.000153893)
(0.724924 0.00291716 -0.000150523)
(0.722736 0.00285418 -0.00014747)
(0.720624 0.00279061 -0.000144413)
(0.718586 0.00272643 -0.000141681)
(0.716622 0.00266178 -0.000138958)
(0.714731 0.00259675 -0.000136537)
(0.712913 0.00253172 -0.000134013)
(0.711166 0.0024666 -0.000131909)
(0.709491 0.00240196 -0.000129892)
(0.707886 0.0023378 -0.000128492)
(0.706349 0.00227547 -0.000127155)
(0.704881 0.00221535 -0.000126325)
(0.703479 0.00215997 -0.000125486)
(0.702136 0.00210993 -0.000125273)
(0.700849 0.00206822 -0.000126073)
(0.699625 0.00204133 -0.000125659)
(0.698432 0.00203817 -0.000122378)
(0.697213 0.00205213 -0.00012457)
(0.696033 0.00208986 -0.000132365)
(0.694989 0.0022376 -0.000100252)
(0.693531 0.00251685 -4.33194e-05)
(0.691233 0.00266829 -0.000113357)
(0.690356 0.00286114 -0.000165726)
(0.690863 0.0044956 0.000423006)
(0.682055 0.00749536 0.00125265)
(0.661345 0.0091922 0.00165042)
(0.635544 0.00902115 0.00160117)
(0.610734 0.00785112 0.00135752)
(0.589411 0.00643709 0.00108142)
(0.572025 0.0051022 0.000831197)
(0.558185 0.00392968 0.000634897)
(0.547189 0.00288454 0.000498956)
(0.538622 0.00191472 0.000394961)
(0.532306 0.00101054 0.000307453)
(0.527945 0.000171325 0.000240691)
(0.525303 -0.000609919 0.000190702)
(0.524188 -0.00134075 0.000153161)
(0.524447 -0.00202572 0.000125388)
(0.525957 -0.00267085 0.000104904)
(0.52862 -0.00328052 9.03472e-05)
(0.532361 -0.00386088 8.02662e-05)
(0.537124 -0.0044172 7.39016e-05)
(0.542873 -0.00495547 7.03167e-05)
(0.54959 -0.00548035 6.92267e-05)
(0.557268 -0.00599713 7.00525e-05)
(0.565917 -0.00651033 7.26369e-05)
(0.575561 -0.0070253 7.64594e-05)
(0.586242 -0.00754559 8.14866e-05)
(0.598012 -0.00807626 8.74701e-05)
(0.610945 -0.00862033 9.44823e-05)
(0.625119 -0.00918177 0.000102294)
(0.640649 -0.0097693 0.000110537)
(0.657658 -0.0103775 0.000119658)
(0.676298 -0.0110184 0.000130259)
(0.696712 -0.0116987 0.000140715)
(0.719184 -0.012409 0.000153094)
(0.743792 -0.0131775 0.000161333)
(0.771239 -0.0139694 0.00018138)
(0.800839 -0.0148373 0.000180623)
(0.835302 -0.0156653 0.00023211)
(0.86943 -0.0166162 0.000176841)
(0.91624 -0.01719 0.000355678)
(0.946845 -0.0181578 9.45105e-05)
(1.02334 -0.0176629 0.000593459)
(0.998644 0.00322507 -5.49195e-05)
(0.987861 0.00891812 -0.000164844)
(0.968493 0.0119769 -0.000224215)
(0.946278 0.0128063 -0.000251109)
(0.925561 0.0128018 -0.000269168)
(0.906971 0.0125092 -0.000278375)
(0.889991 0.011949 -0.000277164)
(0.874569 0.0112349 -0.000271131)
(0.860814 0.0105223 -0.000265079)
(0.848602 0.00986425 -0.000259736)
(0.837694 0.0092581 -0.000254763)
(0.8279 0.00870594 -0.000250165)
(0.819084 0.0082129 -0.000246039)
(0.811122 0.00777635 -0.000242479)
(0.803896 0.00738955 -0.000239402)
(0.797306 0.00704703 -0.0002366)
(0.791268 0.00674435 -0.0002337)
(0.785709 0.00647674 -0.000230491)
(0.780564 0.0062393 -0.000227041)
(0.775777 0.00602784 -0.000223582)
(0.771303 0.0058391 -0.000220081)
(0.767103 0.00567019 -0.000216472)
(0.763141 0.00551848 -0.000212543)
(0.759388 0.00538132 -0.000208319)
(0.755818 0.00525635 -0.000203906)
(0.75241 0.00514142 -0.000199534)
(0.749147 0.00503477 -0.000195111)
(0.746014 0.00493465 -0.000190863)
(0.743 0.0048395 -0.0001867)
(0.740095 0.00474784 -0.000182554)
(0.737291 0.0046585 -0.000178215)
(0.734581 0.00457044 -0.000173887)
(0.731962 0.00448285 -0.000169655)
(0.72943 0.00439502 -0.000165677)
(0.726982 0.00430676 -0.000161705)
(0.724617 0.00421787 -0.000157942)
(0.722332 0.00412818 -0.000154258)
(0.720126 0.00403765 -0.000150846)
(0.717998 0.0039462 -0.000147469)
(0.715948 0.00385392 -0.000144383)
(0.713973 0.00376082 -0.000141329)
(0.712075 0.00366718 -0.000138545)
(0.710251 0.00357313 -0.00013565)
(0.708501 0.00347909 -0.00013312)
(0.706824 0.00338532 -0.000130637)
(0.705221 0.00329256 -0.000128795)
(0.70369 0.00320175 -0.000126924)
(0.702229 0.00311434 -0.000125577)
(0.700836 0.00303277 -0.000124059)
(0.699508 0.00295936 -0.000122961)
(0.698239 0.0028973 -0.000122557)
(0.697033 0.00285416 -0.000121349)
(0.69587 0.00284197 -0.000117093)
(0.694698 0.00286087 -0.000115507)
(0.693542 0.00291431 -0.000120353)
(0.692506 0.00307628 -9.54332e-05)
(0.691209 0.00342092 -3.7657e-05)
(0.689158 0.00373376 -7.27878e-05)
(0.687921 0.00401112 -0.000136778)
(0.688244 0.0055106 0.000309846)
(0.682053 0.00878976 0.00104836)
(0.665778 0.0111126 0.00144765)
(0.64404 0.0114506 0.00149182)
(0.621444 0.0104254 0.0013353)
(0.600867 0.00886088 0.00110823)
(0.58331 0.0072197 0.000881037)
(0.56888 0.00567781 0.000686919)
(0.5572 0.00424336 0.000545364)
(0.547893 0.00288492 0.000437877)
(0.540846 0.00160816 0.000347287)
(0.53581 0.000415925 0.000275256)
(0.532556 -0.000695998 0.000220437)
(0.530892 -0.00173559 0.000178517)
(0.530659 -0.00270927 0.000146811)
(0.531725 -0.00362479 0.000122832)
(0.533988 -0.00448914 0.000105172)
(0.537366 -0.00531056 9.235e-05)
(0.541798 -0.00609719 8.35393e-05)
(0.547244 -0.00685701 7.77779e-05)
(0.553681 -0.00759731 7.47253e-05)
(0.5611 -0.00832517 7.37931e-05)
(0.569508 -0.00904747 7.4777e-05)
(0.578927 -0.00977137 7.71215e-05)
(0.589396 -0.0105023 8.08026e-05)
(0.600967 -0.0112471 8.54807e-05)
(0.61371 -0.0120106 9.13318e-05)
(0.627704 -0.0127979 9.80465e-05)
(0.64306 -0.0136209 0.000105069)
(0.659903 -0.0144745 0.00011342)
(0.678382 -0.0153712 0.000122833)
(0.698641 -0.0163234 0.000132138)
(0.720962 -0.0173223 0.000143773)
(0.745421 -0.018392 0.000151102)
(0.772724 -0.0195084 0.000170687)
(0.802189 -0.0207178 0.000169017)
(0.83651 -0.0218943 0.00021981)
(0.870529 -0.0231951 0.000163443)
(0.91721 -0.024078 0.000342817)
(0.947757 -0.0252886 7.83785e-05)
(1.02417 -0.0248427 0.000581607)
(0.998559 0.00420059 -5.57885e-05)
(0.987393 0.0115745 -0.00016805)
(0.967523 0.015474 -0.000228814)
(0.944964 0.0165044 -0.000256967)
(0.924067 0.0164898 -0.00027601)
(0.905343 0.0161071 -0.000285521)
(0.88824 0.0153766 -0.000284307)
(0.872721 0.0144525 -0.000278309)
(0.858888 0.013534 -0.000272348)
(0.846603 0.0126863 -0.00026719)
(0.835622 0.0119055 -0.000262503)
(0.825758 0.0111948 -0.000258188)
(0.816871 0.0105607 -0.000254289)
(0.808838 0.00999932 -0.00025096)
(0.801541 0.00950216 -0.000248182)
(0.794881 0.00906215 -0.000245699)
(0.788773 0.00867343 -0.000243032)
(0.783145 0.0083297 -0.000239929)
(0.777931 0.00802464 -0.000236499)
(0.773077 0.00775296 -0.000233062)
(0.768537 0.00751044 -0.000229602)
(0.764272 0.00729334 -0.000226006)
(0.760247 0.00709815 -0.000222007)
(0.756433 0.00692151 -0.000217597)
(0.752804 0.00676033 -0.000212902)
(0.749339 0.00661198 -0.000208249)
(0.746022 0.00647411 -0.000203571)
(0.742837 0.00634459 -0.000199044)
(0.739773 0.00622131 -0.000194549)
(0.736821 0.00610239 -0.000190073)
(0.733972 0.00598627 -0.000185391)
(0.731221 0.00587171 -0.000180636)
(0.728563 0.00575771 -0.00017592)
(0.725995 0.00564342 -0.000171488)
(0.723514 0.00552851 -0.000167112)
(0.721119 0.00541276 -0.000162977)
(0.718808 0.00529606 -0.000158904)
(0.716578 0.00517828 -0.000155091)
(0.71443 0.00505943 -0.000151307)
(0.712363 0.0049395 -0.000147818)
(0.710374 0.00481866 -0.000144384)
(0.708465 0.00469713 -0.000141215)
(0.706634 0.00457526 -0.000138005)
(0.70488 0.00445349 -0.000135103)
(0.703203 0.00433222 -0.000132316)
(0.701603 0.0042124 -0.000130129)
(0.700077 0.00409501 -0.000128018)
(0.698626 0.00398201 -0.000126425)
(0.697248 0.00387589 -0.000124698)
(0.695938 0.00378049 -0.00012335)
(0.694693 0.003699 -0.000122538)
(0.693513 0.00364039 -0.000121449)
(0.692389 0.00361703 -0.000117451)
(0.691269 0.0036374 -0.000114235)
(0.69016 0.00370127 -0.000117751)
(0.689152 0.0038724 -9.97485e-05)
(0.688005 0.00424299 -4.41702e-05)
(0.686195 0.00467827 -5.23275e-05)
(0.684754 0.00506055 -0.000125415)
(0.684948 0.0063534 0.000198633)
(0.680874 0.00960415 0.000894349)
(0.667834 0.0124483 0.00128741)
(0.649417 0.0133441 0.00138461)
(0.629003 0.0126316 0.001292)
(0.609451 0.0110912 0.00110808)
(0.592122 0.00927046 0.000906021)
(0.577469 0.00742866 0.000720994)
(0.565415 0.00564229 0.000576645)
(0.555666 0.00391256 0.000467648)
(0.548121 0.0022655 0.000376638)
(0.54261 0.000717806 0.000301117)
(0.538912 -0.000728808 0.000243248)
(0.536836 -0.00208123 0.000198323)
(0.536224 -0.00334698 0.000163747)
(0.536941 -0.00453562 0.000137093)
(0.538882 -0.00565666 0.000116954)
(0.541962 -0.00672073 0.000101865)
(0.546116 -0.00773877 9.09624e-05)
(0.551304 -0.00872103 8.32856e-05)
(0.557499 -0.00967733 7.84624e-05)
(0.56469 -0.0106167 7.59044e-05)
(0.572883 -0.0115484 7.53812e-05)
(0.582096 -0.0124813 7.62991e-05)
(0.592372 -0.0134229 7.86592e-05)
(0.603756 -0.0143816 8.2049e-05)
(0.616321 -0.0153643 8.67051e-05)
(0.630143 -0.0163774 9.23195e-05)
(0.645332 -0.0174348 9.8101e-05)
(0.662013 -0.018534 0.000105522)
(0.680335 -0.019686 0.000114168)
(0.700439 -0.0209072 0.000122097)
(0.722608 -0.0221963 0.000132766)
(0.74692 -0.0235691 0.000139832)
(0.774079 -0.0250116 0.000158563)
(0.803406 -0.0265608 0.0001556)
(0.837585 -0.0280864 0.000205355)
(0.871496 -0.0297416 0.000148181)
(0.918061 -0.0309327 0.000327132)
(0.948556 -0.0324014 6.12832e-05)
(1.02492 -0.0319946 0.000565546)
(0.998449 0.00521732 -5.68513e-05)
(0.986783 0.014309 -0.000172085)
(0.966272 0.0190284 -0.000234643)
(0.943278 0.0202349 -0.000264375)
(0.922156 0.0202009 -0.000284665)
(0.903263 0.019721 -0.000294559)
(0.886004 0.0188135 -0.000293337)
(0.87036 0.017677 -0.000287471)
(0.856429 0.0165539 -0.000281777)
(0.844051 0.0155187 -0.000276956)
(0.832976 0.0145662 -0.000272683)
(0.82302 0.0137007 -0.000268825)
(0.814043 0.0129294 -0.000265376)
(0.80592 0.0122471 -0.000262485)
(0.798532 0.0116432 -0.00026016)
(0.791781 0.0111092 -0.000258117)
(0.785583 0.0106374 -0.000255805)
(0.779865 0.0102202 -0.000252932)
(0.774563 0.00984978 -0.000249641)
(0.769621 0.00951979 -0.000246314)
(0.764996 0.00922504 -0.000242941)
(0.760648 0.00896094 -0.000239377)
(0.756543 0.00872315 -0.000235306)
(0.75265 0.00850754 -0.000230712)
(0.748946 0.00831044 -0.000225745)
(0.745408 0.0081287 -0.000220777)
(0.74202 0.00795945 -0.000215802)
(0.738769 0.0078001 -0.000210945)
(0.735641 0.00764808 -0.00020604)
(0.732629 0.00750113 -0.000201115)
(0.729723 0.00735729 -0.000195976)
(0.726919 0.00721509 -0.000190709)
(0.724211 0.00707338 -0.000185419)
(0.721598 0.00693133 -0.000180421)
(0.719076 0.00678837 -0.000175532)
(0.716643 0.0066443 -0.000170899)
(0.714297 0.00649894 -0.000166296)
(0.712039 0.00635231 -0.000161928)
(0.709865 0.00620431 -0.000157567)
(0.707776 0.00605504 -0.000153526)
(0.70577 0.00590464 -0.000149521)
(0.703848 0.00575341 -0.000145844)
(0.702008 0.00560173 -0.000142131)
(0.700249 0.00545009 -0.000138731)
(0.698572 0.00529909 -0.000135439)
(0.696975 0.00514985 -0.000132733)
(0.695459 0.00500364 -0.000130206)
(0.694021 0.00486257 -0.000128167)
(0.692661 0.00472976 -0.000126137)
(0.691376 0.0046097 -0.000124436)
(0.690161 0.00450674 -0.000123295)
(0.689017 0.0044302 -0.000122287)
(0.687937 0.00439377 -0.000118966)
(0.686884 0.00441039 -0.000115014)
(0.685836 0.00448426 -0.000117767)
(0.684875 0.00466339 -0.000107294)
(0.683877 0.00504517 -5.83146e-05)
(0.682326 0.00557376 -4.46483e-05)
(0.680783 0.00608242 -0.000122743)
(0.680808 0.00720677 8.05958e-05)
(0.678565 0.0101851 0.000743957)
(0.668125 0.0134073 0.00114962)
(0.652409 0.0148386 0.0012848)
(0.633935 0.0145294 0.00124215)
(0.615428 0.0131382 0.00109636)
(0.598498 0.0112362 0.0009155)
(0.58388 0.00915856 0.000742093)
(0.571682 0.0070542 0.000598931)
(0.561737 0.0049717 0.000487791)
(0.553928 0.00296131 0.000396339)
(0.54814 0.00106075 0.00031916)
(0.544165 -0.000720653 0.000259063)
(0.541821 -0.00238657 0.000212009)
(0.540949 -0.00394499 0.000175358)
(0.541419 -0.00540713 0.000146703)
(0.543124 -0.00678501 0.000124645)
(0.545978 -0.00809171 0.000107744)
(0.549917 -0.00934101 9.51224e-05)
(0.554898 -0.0105455 8.58236e-05)
(0.560895 -0.0117175 7.94724e-05)
(0.567896 -0.0128681 7.54714e-05)
(0.575906 -0.0140088 7.35915e-05)
(0.584944 -0.0151504 7.31967e-05)
(0.595049 -0.0163023 7.43121e-05)
(0.606267 -0.0174744 7.64903e-05)
(0.618671 -0.0186759 7.99732e-05)
(0.632337 -0.0199145 8.4526e-05)
(0.647372 -0.0212052 8.91143e-05)
(0.663901 -0.0225499 9.55348e-05)
(0.682076 -0.0239585 0.000103493)
(0.702033 -0.0254478 0.000110202)
(0.724056 -0.0270244 0.000119803)
(0.748226 -0.0287042 0.00012641)
(0.775244 -0.0304733 0.000144206)
(0.804437 -0.0323602 0.000140001)
(0.838479 -0.0342365 0.000188644)
(0.872287 -0.0362497 0.000130778)
(0.918751 -0.0377534 0.000308977)
(0.949211 -0.039489 4.24935e-05)
(1.02557 -0.0391249 0.000546543)
(0.998308 0.0062874 -5.81503e-05)
(0.986016 0.0171425 -0.000176997)
(0.964718 0.0226513 -0.000241693)
(0.941201 0.0240023 -0.000273349)
(0.919807 0.0239385 -0.000295175)
(0.900706 0.0233533 -0.000305536)
(0.883255 0.0222599 -0.000304305)
(0.867461 0.020907 -0.000298616)
(0.853407 0.0195787 -0.000293281)
(0.840913 0.0183559 -0.000288864)
(0.829724 0.017232 -0.00028507)
(0.819654 0.0162126 -0.000281777)
(0.810565 0.0153054 -0.000278923)
(0.802328 0.0145034 -0.000276615)
(0.794827 0.013794 -0.000274867)
(0.787962 0.013167 -0.00027336)
(0.781652 0.0126133 -0.000271509)
(0.775823 0.0121235 -0.000268993)
(0.770411 0.0116885 -0.000265976)
(0.765361 0.0113009 -0.000262861)
(0.76063 0.0109544 -0.000259645)
(0.756179 0.0106436 -0.000256159)
(0.751973 0.0103633 -0.000252056)
(0.747983 0.0101086 -0.000247321)
(0.744184 0.00987535 -0.000242129)
(0.740556 0.00965982 -0.000236863)
(0.737082 0.00945864 -0.00023157)
(0.733747 0.00926873 -0.000226361)
(0.730541 0.00908708 -0.000221019)
(0.727454 0.00891107 -0.000215562)
(0.724479 0.00873837 -0.000209878)
(0.721609 0.00856724 -0.00020405)
(0.718841 0.00839648 -0.000198143)
(0.716171 0.00822521 -0.000192488)
(0.713598 0.00805278 -0.00018696)
(0.711119 0.00787886 -0.000181702)
(0.708733 0.00770328 -0.000176457)
(0.706438 0.00752619 -0.000171413)
(0.704234 0.00734747 -0.000166355)
(0.702119 0.00716733 -0.000161612)
(0.700093 0.00698589 -0.000156932)
(0.698155 0.00680359 -0.000152598)
(0.696305 0.00662087 -0.000148256)
(0.694542 0.00643826 -0.000144264)
(0.692864 0.00625639 -0.000140346)
(0.691274 0.00607677 -0.00013704)
(0.689768 0.00590073 -0.000133921)
(0.688347 0.00573079 -0.000131386)
(0.68701 0.00557037 -0.000128979)
(0.685756 0.00542483 -0.000126999)
(0.684579 0.00529921 -0.00012555)
(0.683479 0.00520367 -0.00012466)
(0.682455 0.00515242 -0.000122248)
(0.681476 0.00516225 -0.000118211)
(0.680509 0.00524275 -0.000120075)
(0.679612 0.00542888 -0.0001163)
(0.678757 0.00581388 -7.71002e-05)
(0.677488 0.00640569 -4.60661e-05)
(0.675944 0.00705993 -0.000117429)
(0.675743 0.00808714 -2.76634e-05)
(0.674937 0.0106561 0.000573404)
(0.666827 0.0141055 0.00102854)
(0.653116 0.0160584 0.00119614)
(0.636233 0.016205 0.00119104)
(0.618675 0.0150371 0.00107707)
(0.60226 0.0131194 0.000917014)
(0.587854 0.0108463 0.00075446)
(0.575748 0.00844949 0.000612497)
(0.56585 0.00603225 0.000499507)
(0.558021 0.00367139 0.000407356)
(0.552163 0.00142581 0.000329695)
(0.54809 -0.000684935 0.000268067)
(0.545629 -0.00266041 0.000219554)
(0.544627 -0.00450847 0.000181415)
(0.54496 -0.00624165 0.00015127)
(0.546522 -0.00787428 0.000127742)
(0.549231 -0.00942185 0.000109416)
(0.553024 -0.0109009 9.5408e-05)
(0.557859 -0.0123262 8.47646e-05)
(0.563712 -0.0137127 7.71219e-05)
(0.570569 -0.0150735 7.18731e-05)
(0.578437 -0.0164223 6.87966e-05)
(0.587334 -0.0177716 6.72261e-05)
(0.5973 -0.019133 6.71966e-05)
(0.608382 -0.0205179 6.82613e-05)
(0.62065 -0.0219373 7.06282e-05)
(0.634181 -0.023401 7.41653e-05)
(0.649081 -0.0249241 7.76528e-05)
(0.665478 -0.0265138 8.30545e-05)
(0.683519 -0.028179 9.0024e-05)
(0.703343 -0.0299358 9.57802e-05)
(0.725233 -0.0317998 0.000104431)
(0.749272 -0.0337861 0.00010994)
(0.776155 -0.0358823 0.000126858)
(0.805224 -0.0381082 0.00012188)
(0.83914 -0.0403372 0.000169541)
(0.872857 -0.0427134 0.000111103)
(0.919239 -0.0445351 0.00028825)
(0.949683 -0.0465489 2.18009e-05)
(1.02609 -0.0462315 0.000524722)
(0.998133 0.00742438 -5.97069e-05)
(0.985073 0.020096 -0.000182811)
(0.962834 0.026354 -0.000249981)
(0.938704 0.0278118 -0.000283945)
(0.916993 0.0277069 -0.000307582)
(0.897643 0.0270063 -0.000318492)
(0.879964 0.0257162 -0.000317272)
(0.86399 0.0241424 -0.00031181)
(0.849789 0.0226084 -0.000306927)
(0.837155 0.0211986 -0.000303024)
(0.825825 0.0199045 -0.000299851)
(0.815616 0.0187336 -0.000297299)
(0.80639 0.0176933 -0.000295228)
(0.798015 0.0167745 -0.00029371)
(0.790375 0.0159627 -0.000292751)
(0.783373 0.0152458 -0.00029198)
(0.776926 0.0146131 -0.000290777)
(0.770961 0.0140534 -0.000288816)
(0.765414 0.0135563 -0.00028627)
(0.760232 0.0131132 -0.00028354)
(0.755372 0.0127169 -0.000280631)
(0.750795 0.012361 -0.000277339)
(0.746467 0.0120394 -0.000273309)
(0.742359 0.0117467 -0.000268535)
(0.738446 0.011478 -0.000263207)
(0.734709 0.0112291 -0.000257716)
(0.73113 0.0109962 -0.000252135)
(0.727695 0.0107756 -0.000246578)
(0.724395 0.010564 -0.0002408)
(0.721218 0.0103583 -0.000234789)
(0.718159 0.0101559 -0.000228491)
(0.71521 0.0099549 -0.000222039)
(0.71237 0.0097539 -0.000215468)
(0.709634 0.00955207 -0.000209074)
(0.707 0.00934868 -0.000202769)
(0.704466 0.00914332 -0.000196736)
(0.702032 0.00893582 -0.000190709)
(0.699695 0.00872645 -0.000184851)
(0.697455 0.00851521 -0.000178935)
(0.695311 0.00830233 -0.000173314)
(0.693261 0.00808804 -0.00016777)
(0.691306 0.00787272 -0.000162574)
(0.689445 0.00765698 -0.000157392)
(0.687677 0.00744125 -0.000152586)
(0.686001 0.00722642 -0.000147868)
(0.684418 0.00701424 -0.000143777)
(0.682927 0.00680633 -0.000139911)
(0.681527 0.00660533 -0.000136747)
(0.680218 0.00641537 -0.000133857)
(0.679 0.0062422 -0.000131528)
(0.677867 0.00609179 -0.000129873)
(0.676819 0.00597566 -0.000129277)
(0.675855 0.00590802 -0.000128181)
(0.674956 0.00590866 -0.000125211)
(0.674079 0.00599259 -0.000127034)
(0.673256 0.00618898 -0.000129599)
(0.672529 0.00657352 -0.000103676)
(0.671534 0.00720726 -6.42684e-05)
(0.670089 0.00800365 -0.000121187)
(0.66966 0.00904179 -0.000126231)
(0.669823 0.0111904 0.000372501)
(0.663647 0.0146971 0.000910361)
(0.651126 0.0171555 0.00111317)
(0.635437 0.0177611 0.00113716)
(0.618763 0.0168315 0.00105124)
(0.603007 0.0149158 0.000908557)
(0.58909 0.0124689 0.000757631)
(0.577335 0.00979338 0.000618612)
(0.567744 0.00705897 0.000503517)
(0.560151 0.00436645 0.000410811)
(0.554443 0.00179066 0.000333227)
(0.550462 -0.00063736 0.000270711)
(0.548046 -0.00291293 0.00022128)
(0.547053 -0.00504315 0.000182085)
(0.547366 -0.00704139 0.000150819)
(0.548888 -0.00892399 0.000126154)
(0.551541 -0.0107086 0.000106703)
(0.555265 -0.0124141 9.15758e-05)
(0.560023 -0.0140577 7.98225e-05)
(0.565791 -0.0156565 7.10945e-05)
(0.572559 -0.0172257 6.47777e-05)
(0.580333 -0.018781 6.06563e-05)
(0.589132 -0.0203367 5.80443e-05)
(0.598998 -0.0219065 5.69782e-05)
(0.609978 -0.023503 5.70343e-05)
(0.622142 -0.0251395 5.83677e-05)
(0.635568 -0.0268274 6.09349e-05)
(0.65036 -0.0285821 6.34636e-05)
(0.666647 -0.0304162 6.78086e-05)
(0.684577 -0.0323371 7.37228e-05)
(0.704289 -0.0343605 7.86938e-05)
(0.726064 -0.036514 8.63921e-05)
(0.749987 -0.0388039 9.05159e-05)
(0.776749 -0.0412281 0.000106436)
(0.805707 -0.0437954 0.000101132)
(0.839513 -0.0463804 0.000147995)
(0.873155 -0.0491259 8.91195e-05)
(0.91948 -0.0512716 0.00026509)
(0.949931 -0.0535788 -9.40479e-07)
(1.02645 -0.053311 0.00050048)
(0.997917 0.00864371 -6.15394e-05)
(0.98393 0.0231915 -0.000189543)
(0.960586 0.030147 -0.000259529)
(0.935755 0.0316682 -0.000296207)
(0.91368 0.0315095 -0.000321937)
(0.894038 0.0306813 -0.000333466)
(0.876093 0.0291822 -0.000332289)
(0.859907 0.0273825 -0.000327111)
(0.845532 0.0256425 -0.00032276)
(0.83273 0.0240463 -0.000319499)
(0.821231 0.0225836 -0.000317127)
(0.810856 0.0212638 -0.000315524)
(0.801464 0.0200936 -0.00031444)
(0.792923 0.0190614 -0.000313923)
(0.785117 0.0181505 -0.000313984)
(0.777948 0.017347 -0.000314202)
(0.771335 0.0166384 -0.000313897)
(0.765206 0.0160117 -0.000312735)
(0.759498 0.0154551 -0.000310893)
(0.754158 0.0149589 -0.00030877)
(0.749143 0.0145149 -0.000306368)
(0.744416 0.0141156 -0.000303458)
(0.739942 0.0137542 -0.00029967)
(0.735692 0.0134246 -0.000295014)
(0.731644 0.0131212 -0.000289693)
(0.727777 0.0128395 -0.000284103)
(0.724074 0.0125749 -0.000278319)
(0.720521 0.0123236 -0.000272459)
(0.717109 0.0120816 -0.000266271)
(0.713828 0.0118455 -0.000259724)
(0.710669 0.0116126 -0.000252785)
(0.707629 0.0113804 -0.000245646)
(0.704704 0.0111477 -0.000238344)
(0.701891 0.0109136 -0.000231131)
(0.699187 0.0106774 -0.000223919)
(0.696591 0.0104386 -0.000216941)
(0.694101 0.010197 -0.00020995)
(0.691716 0.00995313 -0.000203082)
(0.689436 0.00970695 -0.00019608)
(0.687258 0.00945891 -0.000189339)
(0.685182 0.00920922 -0.000182649)
(0.683209 0.00895838 -0.000176337)
(0.681336 0.0087072 -0.000170052)
(0.679563 0.00845587 -0.000164128)
(0.677889 0.0082056 -0.000158355)
(0.676315 0.00795829 -0.000153281)
(0.674839 0.00771639 -0.000148659)
(0.673459 0.00748232 -0.000144849)
(0.672174 0.00726138 -0.000141661)
(0.670983 0.00705931 -0.00013912)