/*--------------------------------*- C++ -*----------------------------------*\
| =========                 |                                                 |
| \\      /  F ield         | OpenFOAM: The Open Source CFD Toolbox           |
|  \\    /   O peration     | Version:  v1912                                 |
|   \\  /    A nd           | Website:  www.openfoam.com                      |
|    \\/     M anipulation  |                                                 |
\*---------------------------------------------------------------------------*/
FoamFile
{
    version     2.0;
    format      ascii;
    class       volScalarField;
    location    "475";
    object      p;
}
// * * * * * * * * * * * * * * * * * * * * * * * * * * * * * * * * * * * * * //

dimensions      [0 2 -2 0 0 0 0];


internalField   nonuniform List<scalar> 
2000
(
-0.0458722
0.0715391
0.126119
0.119231
0.103403
0.0970964
0.0964906
0.0978402
0.0980584
0.0978368
0.0979747
0.0976424
0.0973753
0.0973178
0.0973717
0.0973805
0.0973294
0.0973119
0.0973117
0.0973197
0.0973278
0.0973266
0.0973126
0.0972869
0.0972551
0.097222
0.0971916
0.0971649
0.0971413
0.097117
0.0970906
0.0970612
0.0970288
0.0969938
0.096957
0.0969201
0.0968847
0.0968525
0.0968254
0.0968041
0.0967889
0.0967797
0.0967759
0.0967764
0.0967791
0.0967816
0.0967814
0.0967767
0.0967671
0.0967516
0.0967204
0.0966328
0.0963742
0.0957098
0.0942885
0.0917304
0.0877544
0.0823124
0.0758627
0.0698175
0.0662814
0.0663716
0.071087
0.080013
0.0921588
0.106489
0.122134
0.138293
0.15406
0.168371
0.180207
0.188713
0.193074
0.192489
0.18617
0.173449
0.153191
0.12519
0.0837308
0.0414927
0.0073742
0.0925508
0.131369
0.118174
0.100432
0.096233
0.0997702
0.102208
0.0994575
0.0962163
0.0957747
0.0970701
0.0975185
0.0973889
0.0975911
0.0974715
0.0973424
0.0972475
0.0972229
0.0972193
0.0972424
0.0972876
0.0973012
0.0972859
0.0972594
0.0972298
0.097201
0.097175
0.0971521
0.0971296
0.0971016
0.0970703
0.0970362
0.0969995
0.0969605
0.0969204
0.0968815
0.096847
0.0968187
0.0967977
0.0967849
0.0967807
0.0967842
0.0967937
0.0968057
0.0968161
0.0968205
0.0968183
0.0968194
0.0968445
0.0968962
0.0968884
0.096549
0.0953372
0.0925003
0.087389
0.0798594
0.0705084
0.0609421
0.0542349
0.0539803
0.0593571
0.0679083
0.0789081
0.0918591
0.106371
0.121851
0.137528
0.152499
0.16578
0.176386
0.183361
0.185825
0.183054
0.174388
0.159283
0.136822
0.107166
0.066314
0.0294072
0.0584412
0.0922393
0.114931
0.113374
0.104175
0.0999989
0.100036
0.0993992
0.0974976
0.0968142
0.0983931
0.0999779
0.0989913
0.0965193
0.0956223
0.0965023
0.0973873
0.0975544
0.0974015
0.0973116
0.097266
0.0972363
0.0972201
0.0972329
0.0972429
0.0972359
0.0972103
0.0971716
0.0971418
0.097113
0.0970918
0.0970696
0.0970431
0.0970123
0.0969771
0.0969372
0.0968941
0.0968521
0.096816
0.09679
0.0967782
0.0967832
0.0968042
0.0968364
0.0968763
0.0969305
0.0970195
0.0971678
0.0974
0.0977225
0.0980747
0.0982397
0.0978198
0.0962218
0.0927979
0.0871547
0.0795309
0.0711222
0.0639372
0.0595372
0.0586139
0.062177
0.06959
0.0797155
0.0917471
0.105184
0.119434
0.133675
0.146968
0.158345
0.166881
0.171745
0.172235
0.167804
0.157973
0.142399
0.120486
0.092759
0.0564968
0.0249788
0.0834277
0.0934415
0.105991
0.110071
0.107378
0.104358
0.102697
0.100966
0.099345
0.0985263
0.0983309
0.0982269
0.0978774
0.0971609
0.0966304
0.0975808
0.0988354
0.0981061
0.0969587
0.0965571
0.0965154
0.0966963
0.0969855
0.0972079
0.097337
0.0974176
0.0974664
0.0974497
0.0973741
0.0972858
0.0972008
0.0971269
0.0970684
0.0970286
0.0969925
0.0969476
0.0968919
0.0968389
0.0967951
0.0967655
0.0967578
0.0967786
0.0968274
0.0968963
0.0969788
0.097088
0.0972624
0.0975165
0.0978887
0.0983665
0.0989139
0.0991787
0.0988076
0.0972938
0.0941642
0.0892168
0.0827383
0.075527
0.068744
0.0642442
0.0631237
0.0660778
0.0726967
0.0819422
0.0929513
0.105092
0.117689
0.129928
0.140942
0.149908
0.156083
0.158832
0.157631
0.152065
0.141778
0.126543
0.105964
0.0806463
0.0486985
0.0207975
0.0957678
0.0993682
0.106888
0.110858
0.109729
0.107399
0.106018
0.104979
0.103676
0.102222
0.100866
0.099773
0.0990392
0.0981876
0.0972196
0.0972539
0.0978089
0.0980193
0.0978682
0.0974297
0.0971031
0.0969981
0.0970596
0.0972447
0.0974401
0.0975552
0.0975083
0.0973274
0.0972065
0.0971234
0.0970661
0.097027
0.0969989
0.0969945
0.0969944
0.0969703
0.0969267
0.0968698
0.0968056
0.0967534
0.0967285
0.0967405
0.0967896
0.0968596
0.0969269
0.0969843
0.0970793
0.0973138
0.0976685
0.0981326
0.0986038
0.0988203
0.0984115
0.0969324
0.0940064
0.0895242
0.0838062
0.0776637
0.0723265
0.069187
0.0690631
0.0721701
0.0781471
0.0862624
0.095772
0.106028
0.116387
0.126164
0.134664
0.141243
0.145329
0.146428
0.14412
0.138057
0.127931
0.113551
0.0945982
0.0716552
0.0432276
0.0181861
0.104208
0.106042
0.109996
0.112166
0.11135
0.109742
0.108782
0.108106
0.107145
0.105952
0.104819
0.103823
0.102803
0.101472
0.100094
0.0993876
0.0992578
0.0991254
0.0985624
0.0976909
0.0970847
0.0968867
0.0969785
0.0971858
0.0973525
0.0974439
0.0974869
0.0974893
0.0974233
0.0973355
0.0972523
0.0971793
0.0971159
0.0970723
0.0970023
0.0968979
0.0967762
0.0966896
0.0966352
0.0965978
0.096595
0.0966438
0.0967448
0.0968849
0.0970483
0.0972359
0.0974791
0.0978189
0.0982382
0.0986877
0.0990499
0.0991048
0.0985545
0.0970991
0.0945437
0.0909256
0.0866043
0.0822594
0.0787626
0.0769604
0.0773931
0.0801978
0.0851498
0.0917518
0.0994092
0.107552
0.115636
0.123113
0.129439
0.134102
0.136634
0.136617
0.133673
0.127473
0.117712
0.104195
0.0866155
0.0655049
0.0395123
0.0165541
0.111019
0.111842
0.113079
0.113416
0.112629
0.111643
0.110983
0.110443
0.109775
0.109016
0.108288
0.107563
0.106698
0.105583
0.104412
0.103557
0.103044
0.102446
0.101482
0.100391
0.0995834
0.0991485
0.0989609
0.09887
0.0987825
0.0986811
0.0985664
0.0984111
0.0982058
0.0980091
0.0978508
0.0977253
0.097618
0.0975478
0.0976524
0.097676
0.0976136
0.0975721
0.0975769
0.0976188
0.0977083
0.0978593
0.0980712
0.0983319
0.0986279
0.0989548
0.0993215
0.0997381
0.100186
0.100606
0.10089
0.100872
0.100349
0.0991405
0.0971607
0.0944897
0.0914185
0.0884315
0.0861204
0.0850522
0.0856162
0.0879247
0.0918222
0.0969543
0.102875
0.109135
0.115296
0.120921
0.125568
0.128807
0.13023
0.129454
0.126122
0.119904
0.11049
0.0976682
0.0811232
0.0613322
0.036984
0.0155202
0.116895
0.116841
0.115925
0.114716
0.113892
0.113374
0.112897
0.112425
0.11198
0.111541
0.111086
0.110584
0.10998
0.109234
0.108425
0.107732
0.107191
0.106564
0.105701
0.104753
0.10396
0.103396
0.103
0.102689
0.102412
0.102152
0.101896
0.101632
0.101367
0.101136
0.100955
0.100821
0.100733
0.100712
0.100773
0.100788
0.100761
0.100761
0.100817
0.100926
0.101087
0.101304
0.101575
0.101889
0.102233
0.1026
0.102985
0.103384
0.103771
0.10409
0.104253
0.104142
0.103625
0.102598
0.101029
0.0990017
0.0967398
0.0945896
0.0929642
0.0922552
0.092736
0.0944948
0.0974342
0.101315
0.105815
0.110586
0.11527
0.119501
0.122902
0.125095
0.12571
0.124389
0.120788
0.114582
0.105452
0.0931671
0.0773917
0.0585446
0.0353258
0.0148477
0.122299
0.12131
0.118345
0.115802
0.115045
0.114956
0.114621
0.114211
0.113944
0.113724
0.113452
0.113122
0.112729
0.112246
0.111707
0.111215
0.110802
0.110331
0.1097
0.108985
0.10834
0.107838
0.107457
0.107145
0.106863
0.106594
0.10633
0.106069
0.105818
0.105595
0.105412
0.105272
0.10518
0.105132
0.105119
0.105126
0.105137
0.105169
0.105242
0.105359
0.105519
0.105722
0.105964
0.106238
0.106532
0.106837
0.107143
0.107438
0.107694
0.107866
0.107885
0.107669
0.107133
0.106214
0.104907
0.103286
0.101518
0.0998572
0.0985989
0.0980254
0.0983407
0.0996241
0.101821
0.104764
0.10821
0.111877
0.115461
0.118647
0.121106
0.122501
0.122497
0.12076
0.116962
0.11078
0.10189
0.0900378
0.0748557
0.0567
0.0342691
0.0143941
0.127529
0.125342
0.120147
0.116503
0.116038
0.116364
0.116135
0.11581
0.115723
0.115689
0.115563
0.115368
0.115123
0.114808
0.114444
0.114104
0.113814
0.113482
0.113033
0.112512
0.112031
0.111653
0.111367
0.111132
0.110916
0.110706
0.110497
0.11029
0.11009
0.109909
0.109758
0.109643
0.109568
0.10953
0.109463
0.109464
0.109485
0.109514
0.109567
0.109654
0.109774
0.109926
0.110107
0.110309
0.110522
0.110738
0.110943
0.111124
0.111256
0.1113
0.111205
0.110911
0.11036
0.109513
0.108375
0.107009
0.105547
0.104179
0.103129
0.102609
0.10278
0.10371
0.105363
0.107614
0.110269
0.113093
0.115826
0.118195
0.11991
0.120673
0.120178
0.118118
0.114178
0.10804
0.0993705
0.0878897
0.0731865
0.0555526
0.0336576
0.014126
0.132767
0.128918
0.121224
0.116833
0.116924
0.117615
0.117442
0.117227
0.117328
0.117463
0.117471
0.117396
0.117271
0.117083
0.116846
0.116615
0.11641
0.11617
0.115841
0.115455
0.115097
0.114817
0.114609
0.114439
0.114284
0.114131
0.113978
0.113826
0.113678
0.113542
0.113428
0.113339
0.113275
0.113224
0.113171
0.113164
0.113175
0.113192
0.113225
0.113284
0.113369
0.113477
0.113605
0.113748
0.113895
0.114038
0.114166
0.114261
0.114303
0.11426
0.114091
0.113751
0.113198
0.11241
0.111395
0.110208
0.108955
0.107785
0.106872
0.106382
0.10644
0.107101
0.108341
0.110059
0.112095
0.11425
0.116303
0.118013
0.119126
0.119378
0.118492
0.116184
0.112151
0.10608
0.0976239
0.0864764
0.0721738
0.0549451
0.0333798
0.0140432
0.138134
0.131965
0.12155
0.116891
0.117757
0.118719
0.118567
0.118489
0.118774
0.119054
0.11918
0.119218
0.119205
0.119128
0.118998
0.118858
0.118725
0.118556
0.118313
0.118023
0.117751
0.117538
0.117381
0.117256
0.117142
0.117031
0.116919
0.116806
0.116696
0.116595
0.116507
0.116438
0.116386
0.116341
0.116305
0.116293
0.116298
0.116308
0.11633
0.116371
0.116431
0.116508
0.116599
0.116698
0.116797
0.116888
0.116958
0.116993
0.116972
0.11687
0.116653
0.116286
0.11574
0.115001
0.114081
0.113026
0.111924
0.110894
0.110076
0.109599
0.109562
0.11001
0.11092
0.11221
0.113746
0.115358
0.116852
0.118021
0.118641
0.118478
0.117282
0.114788
0.110706
0.104723
0.096477
0.0856354
0.0716759
0.0547717
0.0333614
0.01416
0.143706
0.134378
0.121158
0.116795
0.118557
0.119673
0.119538
0.119624
0.120078
0.120477
0.120707
0.120849
0.120936
0.120958
0.120924
0.120867
0.120801
0.120698
0.120529
0.120317
0.120114
0.119954
0.119838
0.119747
0.119666
0.119585
0.119503
0.11942
0.119338
0.119262
0.119195
0.11914
0.119096
0.119068
0.119041
0.119027
0.119027
0.119033
0.119046
0.119073
0.119113
0.119166
0.119228
0.119293
0.119355
0.119405
0.119431
0.11942
0.119353
0.119207
0.118956
0.118573
0.118036
0.117337
0.11649
0.115535
0.114545
0.113617
0.112864
0.112388
0.112268
0.112537
0.113176
0.114113
0.115234
0.116394
0.117427
0.118151
0.11837
0.117877
0.116444
0.113822
0.109727
0.103846
0.0958039
0.0852419
0.071579
0.0549443
0.033546
0.0144812
0.149525
0.13604
0.120145
0.116662
0.119323
0.12048
0.120384
0.120652
0.121252
0.12175
0.122073
0.122307
0.122482
0.122591
0.12264
0.122658
0.122657
0.122615
0.122512
0.122368
0.122225
0.122113
0.122034
0.121975
0.121922
0.121869
0.121812
0.121754
0.121696
0.12164
0.121591
0.121549
0.121517
0.121496
0.121475
0.121461
0.121458
0.121459
0.121465
0.121479
0.121503
0.121536
0.121573
0.121611
0.121642
0.121659
0.121649
0.121601
0.121497
0.121317
0.12104
0.120644
0.120114
0.119446
0.118652
0.117771
0.116862
0.116007
0.115293
0.114806
0.114606
0.114718
0.115125
0.115764
0.116539
0.117326
0.117982
0.118347
0.118252
0.117507
0.115903
0.1132
0.109122
0.10335
0.095497
0.0851854
0.0717781
0.0553781
0.033885
0.0149887
0.155599
0.136843
0.118658
0.116584
0.120036
0.121154
0.121135
0.121587
0.12231
0.122891
0.123297
0.123613
0.123866
0.124049
0.124171
0.124256
0.124314
0.124327
0.124283
0.124197
0.124107
0.124039
0.123995
0.123965
0.123939
0.12391
0.123877
0.123841
0.123804
0.123767
0.123733
0.123704
0.123681
0.123665
0.123649
0.123636
0.12363
0.123627
0.123626
0.12363
0.12364
0.123654
0.123671
0.123685
0.123689
0.123677
0.123637
0.123556
0.12342
0.12321
0.122909
0.1225
0.121971
0.121321
0.120563
0.119731
0.118876
0.118063
0.117366
0.116852
0.116571
0.116541
0.116747
0.117137
0.117629
0.118116
0.118474
0.118565
0.118234
0.117309
0.11559
0.112846
0.108803
0.103139
0.0954554
0.0853624
0.072173
0.0559883
0.0343342
0.0156392
0.161906
0.13671
0.116873
0.116608
0.120674
0.121714
0.121813
0.122439
0.123262
0.123915
0.124396
0.124785
0.125105
0.125354
0.12554
0.125684
0.125794
0.125857
0.125864
0.125831
0.125787
0.125757
0.125744
0.125741
0.125739
0.125733
0.125721
0.125705
0.125687
0.125667
0.125645
0.125627
0.125613
0.125602
0.12559
0.125579
0.12557
0.125562
0.125553
0.125547
0.125542
0.12554
0.125536
0.125526
0.125505
0.125464
0.125393
0.12528
0.125111
0.124871
0.124543
0.124114
0.123576
0.12293
0.122188
0.121381
0.120551
0.119755
0.119052
0.1185
0.118138
0.117983
0.118021
0.11821
0.11848
0.118739
0.118877
0.11877
0.118275
0.11723
0.115443
0.112687
0.108689
0.103124
0.0955874
0.0856812
0.0726757
0.0566957
0.0348557
0.0163785
0.168396
0.135632
0.11497
0.116745
0.121216
0.122183
0.122435
0.123215
0.124117
0.124833
0.125382
0.125836
0.126216
0.126523
0.126765
0.12696
0.127117
0.127225
0.127277
0.127288
0.127285
0.127288
0.127303
0.127323
0.127343
0.127356
0.127362
0.127362
0.127361
0.127354
0.127343
0.127334
0.127325
0.127317
0.127306
0.127292
0.127278
0.127262
0.127242
0.127221
0.127199
0.127175
0.127146
0.127109
0.127058
0.126985
0.12688
0.126731
0.126526
0.126251
0.125891
0.125436
0.12488
0.124224
0.123482
0.12268
0.121855
0.121056
0.120334
0.119739
0.119304
0.119046
0.118954
0.118992
0.1191
0.119197
0.119183
0.118943
0.118343
0.117226
0.115405
0.112656
0.108706
0.10323
0.0958175
0.0860693
0.0732181
0.057435
0.0354162
0.0171564
0.174984
0.133628
0.113108
0.116978
0.121656
0.122586
0.123008
0.123916
0.124882
0.125655
0.126264
0.126773
0.127205
0.127561
0.12785
0.128091
0.128288
0.128433
0.128524
0.128572
0.128602
0.128632
0.128669
0.128708
0.128744
0.128771
0.12879
0.128801
0.128812
0.128811
0.128804
0.128798
0.128789
0.128777
0.12876
0.128738
0.128711
0.128679
0.128642
0.1286
0.128553
0.128502
0.128444
0.128376
0.128291
0.128183
0.128042
0.127857
0.127616
0.127305
0.126913
0.12643
0.125852
0.125181
0.12443
0.123622
0.122792
0.121982
0.121237
0.120603
0.120111
0.119775
0.11959
0.119523
0.119522
0.119512
0.119401
0.119079
0.118417
0.117262
0.11543
0.1127
0.108797
0.103399
0.0960907
0.0864757
0.0737538
0.0581578
0.0359869
0.0179327
0.181578
0.130799
0.1114
0.117262
0.121995
0.122937
0.12353
0.124537
0.12555
0.126369
0.127026
0.127579
0.128051
0.128445
0.128771
0.129046
0.129274
0.129448
0.129567
0.129642
0.129696
0.129745
0.129796
0.129846
0.12989
0.129926
0.12995
0.129968
0.129976
0.129972
0.129964
0.129953
0.129936
0.129913
0.129884
0.129847
0.129802
0.129751
0.129692
0.129626
0.129554
0.129475
0.129388
0.12929
0.129174
0.129035
0.128863
0.128647
0.128375
0.128035
0.127617
0.127111
0.126514
0.125829
0.125068
0.124252
0.123414
0.122592
0.121829
0.121165
0.120632
0.120244
0.119997
0.119863
0.119793
0.119717
0.119548
0.11918
0.118486
0.117316
0.115488
0.112781
0.108924
0.103593
0.0963714
0.0868684
0.074255
0.0588335
0.0365465
0.0186801
0.188087
0.127273
0.109915
0.11755
0.12224
0.123233
0.123975
0.125049
0.126091
0.12694
0.127628
0.128209
0.128706
0.129125
0.129475
0.129771
0.130018
0.13021
0.130346
0.130438
0.130505
0.130564
0.130621
0.130675
0.130722
0.130759
0.130783
0.130797
0.130797
0.130789
0.130775
0.130754
0.130727
0.130692
0.130648
0.130596
0.130535
0.130466
0.130388
0.130301
0.130208
0.130108
0.129999
0.129878
0.12974
0.129578
0.129383
0.129145
0.128852
0.128493
0.128057
0.127536
0.126927
0.126232
0.125464
0.124643
0.123798
0.122967
0.122191
0.121508
0.120948
0.120527
0.120241
0.120066
0.119956
0.119843
0.119643
0.119252
0.118545
0.117374
0.115558
0.112877
0.10906
0.103787
0.0966387
0.08723
0.0747085
0.0594457
0.0370809
0.0193836
0.194432
0.12321
0.108692
0.117804
0.122402
0.123456
0.124303
0.12541
0.126465
0.127329
0.128034
0.12863
0.12914
0.129571
0.129933
0.130241
0.130499
0.130699
0.130844
0.130944
0.131017
0.13108
0.131139
0.131193
0.131239
0.131273
0.131296
0.131303
0.131298
0.131286
0.131266
0.131237
0.131201
0.131156
0.131103
0.13104
0.130967
0.130885
0.130794
0.130695
0.130588
0.130474
0.130351
0.130216
0.130064
0.129889
0.129681
0.12943
0.129125
0.128755
0.128309
0.12778
0.127164
0.126465
0.125693
0.124869
0.12402
0.123184
0.122399
0.121704
0.121127
0.120686
0.120378
0.12018
0.120048
0.119916
0.119702
0.119302
0.118594
0.117429
0.115628
0.112973
0.109193
0.103969
0.0968824
0.0875535
0.0751105
0.0599886
0.0375818
0.0200383
0.200615
0.118876
0.10776
0.117996
0.122485
0.123588
0.124496
0.125616
0.126674
0.127546
0.128258
0.12886
0.129376
0.129814
0.130182
0.130495
0.130757
0.130962
0.13111
0.131214
0.13129
0.131355
0.131414
0.131467
0.131512
0.131545
0.131564
0.13157
0.131562
0.131546
0.131521
0.131488
0.131447
0.131397
0.131337
0.131268
0.131189
0.1311
0.131002
0.130896
0.130782
0.130661
0.130531
0.130388
0.13023
0.130047
0.129833
0.129576
0.129266
0.12889
0.12844
0.127908
0.12729
0.126589
0.125816
0.12499
0.12414
0.123301
0.122511
0.121808
0.121222
0.120769
0.120449
0.120239
0.120096
0.119956
0.119736
0.119336
0.118632
0.117477
0.115693
0.113063
0.109315
0.104134
0.0971
0.087839
0.0754639
0.0604645
0.0380459
0.0206481
0.206779
0.114788
0.107125
0.118113
0.122503
0.123636
0.124575
0.125701
0.126762
0.127637
0.128353
0.128958
0.129477
0.129918
0.130289
0.130604
0.130868
0.131075
0.131225
0.131331
0.131408
0.131473
0.131532
0.131585
0.131629
0.131661
0.131679
0.131685
0.131676
0.131658
0.131631
0.131596
0.131553
0.1315
0.131438
0.131366
0.131284
0.131193
0.131092
0.130983
0.130866
0.130742
0.130608
0.130463
0.130302
0.130117
0.1299
0.129641
0.129329
0.128952
0.128501
0.127968
0.127349
0.126649
0.125876
0.12505
0.1242
0.123358
0.122566
0.121858
0.121267
0.120808
0.120482
0.120266
0.120118
0.119975
0.119756
0.119359
0.118662
0.11752
0.115753
0.113145
0.109427
0.104284
0.097296
0.0880942
0.0757799
0.0608861
0.0384793
0.021232
0.212876
0.111582
0.106729
0.118162
0.122483
0.12363
0.124582
0.125716
0.126779
0.127657
0.128376
0.128983
0.129503
0.129945
0.130318
0.130635
0.1309
0.131107
0.131258
0.131364
0.131443
0.131508
0.131567
0.13162
0.131663
0.131695
0.131713
0.131719
0.13171
0.131692
0.131665
0.131629
0.131585
0.131532
0.131469
0.131397
0.131314
0.131221
0.13112
0.13101
0.130892
0.130767
0.130633
0.130488
0.130326
0.13014
0.129923
0.129664
0.129352
0.128975
0.128525
0.127993
0.127375
0.126676
0.125904
0.125079
0.124228
0.123386
0.122591
0.121881
0.121287
0.120824
0.120494
0.120275
0.120126
0.119984
0.119767
0.119376
0.118688
0.117558
0.115808
0.113222
0.109533
0.104425
0.0974799
0.0883322
0.076075
0.0612759
0.0388934
0.0218231
0.217603
0.109639
0.106504
0.118189
0.12246
0.123605
0.124566
0.125706
0.126772
0.127652
0.128371
0.12898
0.129501
0.129943
0.130316
0.130634
0.130899
0.131106
0.131258
0.131364
0.131443
0.131508
0.131568
0.131621
0.131665
0.131697
0.131716
0.131722
0.131713
0.131694
0.131667
0.131631
0.131587
0.131534
0.131472
0.131399
0.131316
0.131224
0.131123
0.131013
0.130896
0.130771
0.130637
0.130492
0.13033
0.130145
0.129928
0.129669
0.129358
0.128983
0.128533
0.128002
0.127386
0.126688
0.125917
0.125092
0.124242
0.123399
0.122604
0.121892
0.121295
0.12083
0.120498
0.120278
0.120128
0.119988
0.119774
0.119389
0.11871
0.117591
0.115857
0.113291
0.109626
0.10455
0.0976427
0.0885425
0.0763343
0.0616199
0.0392538
0.0223858
)
;

boundaryField
{
    inlet
    {
        type            zeroGradient;
    }
    outlet
    {
        type            fixedValue;
        value           uniform 0;
    }
    fixedWalls
    {
        type            zeroGradient;
    }
    frontAndBack
    {
        type            empty;
    }
}


// ************************************************************************* //
