/*--------------------------------*- C++ -*----------------------------------*\
| =========                 |                                                 |
| \\      /  F ield         | OpenFOAM: The Open Source CFD Toolbox           |
|  \\    /   O peration     | Version:  v1912                                 |
|   \\  /    A nd           | Website:  www.openfoam.com                      |
|    \\/     M anipulation  |                                                 |
\*---------------------------------------------------------------------------*/
FoamFile
{
    version     2.0;
    format      ascii;
    class       surfaceScalarField;
    location    "475";
    object      phi;
}
// * * * * * * * * * * * * * * * * * * * * * * * * * * * * * * * * * * * * * //

dimensions      [0 3 -1 0 0 0 0];
oriented        oriented;


internalField   nonuniform List<scalar> 
3895
(
0.000814745
0.000381431
0.00049936
0.000315385
0.000251563
0.000247797
6.4861e-05
0.000186702
-6.21999e-05
0.000127061
-0.00012734
6.51399e-05
-0.00013766
1.03202e-05
-0.000113647
-2.40133e-05
-9.03166e-05
-2.33301e-05
-8.48781e-05
-5.43856e-06
-6.60022e-05
-1.88759e-05
-4.43863e-05
-2.16159e-05
-3.97211e-05
-4.66518e-06
-4.74067e-05
7.68553e-06
-4.36978e-05
-3.70885e-06
-2.96827e-05
-1.40151e-05
-2.31508e-05
-6.53195e-06
-2.43033e-05
1.15251e-06
-2.74633e-05
3.16e-06
-2.91757e-05
1.71245e-06
-2.81708e-05
-1.00495e-06
-2.44967e-05
-3.67406e-06
-1.89301e-05
-5.56655e-06
-1.3102e-05
-5.8281e-06
-7.98123e-06
-5.1208e-06
-4.10519e-06
-3.87605e-06
-1.54448e-06
-2.56071e-06
6.70256e-08
-1.61151e-06
1.27337e-06
-1.20634e-06
2.42323e-06
-1.14986e-06
3.58072e-06
-1.1575e-06
4.69762e-06
-1.1169e-06
5.7371e-06
-1.03948e-06
6.6533e-06
-9.16205e-07
7.36137e-06
-7.0807e-07
7.80348e-06
-4.42104e-07
7.91432e-06
-1.10841e-07
7.62897e-06
2.85344e-07
6.92885e-06
7.00125e-07
5.81135e-06
1.11749e-06
4.23309e-06
1.57826e-06
2.10527e-06
2.12783e-06
-6.96109e-07
2.80138e-06
-4.30902e-06
3.61291e-06
-8.88277e-06
4.57375e-06
-1.46014e-05
5.71865e-06
-2.18192e-05
7.21773e-06
-3.12494e-05
9.4302e-06
-4.42134e-05
1.2964e-05
-6.28486e-05
1.86352e-05
-9.00265e-05
2.71779e-05
-0.000128735
3.87081e-05
-0.000181259
5.25239e-05
-0.00024853
6.72716e-05
-0.000329247
8.07173e-05
-0.000418983
8.97356e-05
-0.000510378
9.1395e-05
-0.000594539
8.41612e-05
-0.000662652
6.81123e-05
-0.000706013
4.3361e-05
-0.000713568
7.55531e-06
-0.000695741
-1.78265e-05
-0.000656791
-3.89507e-05
-0.000600339
-5.64522e-05
-0.000530367
-6.99719e-05
-0.000449999
-8.03679e-05
-0.000361288
-8.87107e-05
-0.000265815
-9.54728e-05
-0.000165192
-0.000100623
-6.10942e-05
-0.000104098
4.4544e-05
-0.000105638
0.000149804
-0.00010526
0.000253155
-0.000103352
0.000353277
-0.000100122
0.000449301
-9.60239e-05
0.000541157
-9.18568e-05
0.000629095
-8.79376e-05
0.000716241
-8.71457e-05
0.000802916
-8.66748e-05
-0.000107526
0.00108795
0.000349294
0.00104738
0.000355948
0.000933276
0.000361905
0.000775742
0.000344236
0.000598423
0.00030438
0.00041038
0.000253183
0.000221252
0.000199448
5.38781e-05
0.000143361
-6.04622e-05
9.10102e-05
-0.000110278
4.43768e-05
-0.000132087
2.93379e-06
-0.000124425
-2.92781e-05
-0.000106452
-2.26379e-05
-0.000108577
9.81036e-06
-0.000104302
-7.98359e-06
-9.12868e-05
-2.70307e-05
-7.63281e-05
-2.14907e-05
-7.75266e-05
2.35107e-06
-8.52983e-05
1.09316e-05
-9.04147e-05
6.82886e-06
-9.20977e-05
6.78105e-07
-8.82327e-05
-7.53906e-06
-8.19247e-05
-1.18745e-05
-7.51701e-05
-1.25827e-05
-6.87122e-05
-1.15787e-05
-6.32411e-05
-9.34714e-06
-5.93407e-05
-6.46118e-06
-5.74252e-05
-3.52697e-06
-5.73715e-05
-1.2601e-06
-5.86695e-05
1.48198e-07
-6.11021e-05
1.27507e-06
-6.40015e-05
1.78253e-06
-6.70707e-05
2.02971e-06
-7.02347e-05
2.24779e-06
-7.36192e-05
2.67641e-06
-7.737e-05
3.30869e-06
-8.15748e-05
4.094e-06
-8.62766e-05
4.98712e-06
-9.15352e-05
5.95872e-06
-9.74098e-05
6.99213e-06
-0.000103917
8.085e-06
-0.000111047
9.25787e-06
-0.000118784
1.05385e-05
-0.000127106
1.19353e-05
-0.000135962
1.34293e-05
-0.000145269
1.50263e-05
-0.000154968
1.69166e-05
-0.000165098
1.95605e-05
-0.000175796
2.36613e-05
-0.000187209
3.00484e-05
-0.000199546
3.95151e-05
-0.000213099
5.22612e-05
-0.000227843
6.72678e-05
-0.000242852
8.22801e-05
-0.00025589
9.37563e-05
-0.000263134
9.69794e-05
-0.000259809
8.80701e-05
-0.000241847
6.61985e-05
-0.000207973
3.42383e-05
-0.000167028
2.41588e-06
-0.000120365
-3.9107e-05
-6.8233e-05
-6.99588e-05
-1.34181e-05
-9.37655e-05
4.31089e-05
-0.000112979
0.00010289
-0.000129753
0.000167069
-0.000144546
0.000235502
-0.000157144
0.000307145
-0.000167117
0.000380486
-0.000173964
0.00045378
-0.000177391
0.000525533
-0.000177392
0.000594536
-0.000174263
0.000659738
-0.000168554
0.000720581
-0.000160965
0.000776913
-0.000152356
0.000828841
-0.000143785
0.000877227
-0.000136324
0.000922092
-0.000132011
0.000966151
-0.000130733
-0.000142156
0.000975282
0.000305926
0.00102604
0.000305189
0.00106097
0.000326977
0.00105862
0.000346589
0.00101217
0.000350826
0.000925043
0.000340311
0.000805743
0.000318748
0.000661748
0.000287356
0.000504894
0.000247864
0.000345809
0.000203462
0.000190172
0.000158571
4.70696e-05
0.000113824
-4.99707e-05
7.44024e-05
-8.66026e-05
4.64422e-05
-0.00010702
1.24339e-05
-0.000115545
-1.85058e-05
-0.000103853
-3.31824e-05
-9.33229e-05
-8.17936e-06
-0.000100177
1.77855e-05
-0.000109201
1.58535e-05
-0.000115139
6.61529e-06
-0.00011921
-3.46729e-06
-0.000120692
-1.03933e-05
-0.000119122
-1.41526e-05
-0.000117165
-1.35357e-05
-0.000116756
-9.75541e-06
-0.000118503
-4.71508e-06
-0.000122422
3.92744e-07
-0.000126626
2.94342e-06
-0.000131268
4.79074e-06
-0.000135926
5.93313e-06
-0.000140642
6.49847e-06
-0.000145304
6.69099e-06
-0.000149829
6.77344e-06
-0.000154288
7.13523e-06
-0.00015883
7.85088e-06
-0.000163532
8.79607e-06
-0.000168363
9.81819e-06
-0.000173238
1.08332e-05
-0.000178051
1.18051e-05
-0.000182687
1.27206e-05
-0.000187029
1.36004e-05
-0.000190953
1.44623e-05
-0.000194274
1.52567e-05
-0.000196661
1.58162e-05
-0.000197538
1.59033e-05
-0.000195995
1.53733e-05
-0.000191093
1.46582e-05
-0.000181777
1.43459e-05
-0.000166993
1.52641e-05
-0.000145374
1.78957e-05
-0.000116203
2.30902e-05
-7.85953e-05
2.96606e-05
-3.18771e-05
3.55619e-05
2.37684e-05
3.81108e-05
8.58747e-05
3.48731e-05
0.00014992
2.40246e-05
0.000209683
6.43523e-06
0.000264494
-2.0572e-05
0.000316802
-4.9892e-05
0.000359735
-8.20398e-05
0.000401458
-0.000111683
0.000445315
-0.000137623
0.00049281
-0.000160473
0.000543426
-0.00018037
0.000595813
-0.000196934
0.000648291
-0.000209622
0.000699184
-0.00021801
0.000747113
-0.000221893
0.000791077
-0.000221355
0.000830467
-0.000216782
0.000865026
-0.000208821
0.000894789
-0.000198317
0.000920055
-0.000186231
0.000941296
-0.000173597
0.000959013
-0.000161502
0.000973802
-0.000151112
0.000985532
-0.000143742
0.000995272
-0.000140472
-0.000145019
0.000857109
0.000271375
0.000897356
0.000264942
0.000950165
0.000274167
0.00100471
0.000292046
0.00104637
0.000309159
0.0010653
0.00032138
0.00105663
0.00032742
0.00101792
0.000326065
0.000949532
0.000316255
0.000855056
0.000297938
0.000740867
0.00027276
0.000611893
0.000242798
0.000476501
0.000209794
0.000348286
0.000174658
0.000223402
0.000137318
0.000101895
0.000103001
-7.4799e-07
6.94608e-05
-5.29446e-05
4.40173e-05
-6.49337e-05
2.97746e-05
-6.72072e-05
1.8127e-05
-6.98009e-05
9.2089e-06
-7.56302e-05
2.36207e-06
-8.27759e-05
-3.24767e-06
-9.07308e-05
-6.19762e-06
-9.73935e-05
-6.87298e-06
-0.000102246
-4.90287e-06
-0.000106755
-2.05753e-07
-0.000111879
5.51606e-06
-0.000117341
8.40583e-06
-0.000122401
9.85097e-06
-0.000126716
1.02474e-05
-0.000130221
1.00039e-05
-0.000132997
9.46671e-06
-0.000134889
8.66602e-06
-0.000136241
8.48655e-06
-0.000137133
8.74371e-06
-0.000137566
9.22873e-06
-0.000137222
9.47368e-06
-0.000135947
9.55869e-06
-0.000133601
9.45932e-06
-0.000130013
9.13184e-06
-0.000124984
8.57164e-06
-0.000118342
7.82095e-06
-0.000109952
6.86633e-06
-9.96042e-05
5.46841e-06
-8.70911e-05
3.39018e-06
-7.15409e-05
-1.76866e-07
-5.32169e-05
-3.66584e-06
-3.09285e-05
-7.94248e-06
-3.20413e-06
-1.24603e-05
3.12185e-05
-1.6527e-05
7.43719e-05
-2.00632e-05
0.000127073
-2.30402e-05
0.000188737
-2.61025e-05
0.000257329
-3.04814e-05
0.000329923
-3.77204e-05
0.000403207
-4.92594e-05
0.000475604
-6.59623e-05
0.000542853
-8.78213e-05
0.000605564
-0.000112603
0.000662087
-0.000138562
0.000714031
-0.000163627
0.000762649
-0.00018624
0.000807848
-0.000205673
0.000848906
-0.000221427
0.000885001
-0.000233029
0.000915493
-0.000240114
0.000940036
-0.000242553
0.000958639
-0.000240495
0.000971635
-0.000234351
0.000979611
-0.000224758
0.000983308
-0.000212518
0.000983526
-0.000198535
0.000981042
-0.000183747
0.000976537
-0.000169092
0.000970518
-0.000155482
0.000963273
-0.000143868
0.000954635
-0.000135103
0.000944462
-0.0001303
-0.000130475
0.000759397
0.000238011
0.000790536
0.000233804
0.000828352
0.000236352
0.000874986
0.000245412
0.000927003
0.000257142
0.000978873
0.000269511
0.00102441
0.000281879
0.00105755
0.000292931
0.00107318
0.00030062
0.00106785
0.000303269
0.0010404
0.000300208
0.000991541
0.000291661
0.000923223
0.000278112
0.000838846
0.000259034
0.000741512
0.000234652
0.00063661
0.000207903
0.0005321
0.000173971
0.000433808
0.00014231
0.000348663
0.00011492
0.00027554
9.12499e-05
0.000212998
7.17508e-05
0.00015946
5.59001e-05
0.000112897
4.33157e-05
7.3051e-05
3.36479e-05
4.0019e-05
2.6159e-05
1.47881e-05
2.03281e-05
-1.34546e-06
1.59278e-05
-8.75904e-06
1.29296e-05
-1.07341e-05
1.03808e-05
-9.25283e-06
8.36975e-06
-5.70415e-06
6.69874e-06
-9.55313e-07
5.25505e-06
4.57426e-06
3.93714e-06
1.05587e-05
2.68161e-06
1.69961e-05
2.04916e-06
2.43787e-05
1.36103e-06
3.34774e-05
1.30062e-07
4.42437e-05
-1.2926e-06
5.69027e-05
-3.10036e-06
7.17792e-05
-5.41713e-06
8.91503e-05
-8.23923e-06
0.0001093
-1.15783e-05
0.000132519
-1.53975e-05
0.000159054
-1.96687e-05
0.000188943
-2.44212e-05
0.000222057
-2.97238e-05
0.000257497
-3.56169e-05
0.000295694
-4.18625e-05
0.000336173
-4.84215e-05
0.000378791
-5.50781e-05
0.000423835
-6.1571e-05
0.000471542
-6.77709e-05
0.000522289
-7.37871e-05
0.000576207
-8.00199e-05
0.000632913
-8.71879e-05
0.000691368
-9.61747e-05
0.000749877
-0.000107769
0.000806249
-0.000122334
0.000858058
-0.00013963
0.000904101
-0.000158646
0.000943566
-0.000178028
0.000976288
-0.000196349
0.00100237
-0.000212319
0.00102177
-0.000225075
0.00103446
-0.000234121
0.00104061
-0.000239175
0.00104064
-0.000240145
0.00103524
-0.000237156
0.0010253
-0.00023055
0.0010118
-0.000220856
0.000995773
-0.000208728
0.000978159
-0.000194905
0.000959774
-0.000180149
0.000941245
-0.000165218
0.000922992
-0.000150839
0.0009052
-0.00013769
0.000887803
-0.00012647
0.000870426
-0.000117726
0.000852429
-0.000112303
-0.000110371
0.000672434
0.000206414
0.000702275
0.000203962
0.000733372
0.000205255
0.00076784
0.000210944
0.000806616
0.000218367
0.000850039
0.000226088
0.000897304
0.000234614
0.000946035
0.0002442
0.000992646
0.000254009
0.00103306
0.000262857
0.00106349
0.000269772
0.00108117
0.000273981
0.00108445
0.000274839
0.00107207
0.000271408
0.0010437
0.000263029
0.00100103
0.000250566
0.000949044
0.000225959
0.000891683
0.000199671
0.000831927
0.000174675
0.000772178
0.000150999
0.000714622
0.000129307
0.000660548
0.000109974
0.000610767
9.30962e-05
0.000565879
7.85361e-05
0.000526084
6.59539e-05
0.000491353
5.50588e-05
0.00046166
4.56216e-05
0.000437235
3.7354e-05
0.000417703
2.99134e-05
0.000402833
2.32392e-05
0.00039232
1.72123e-05
0.000385854
1.17209e-05
0.000383185
6.60613e-06
0.000384475
1.39098e-06
0.000389518
-2.99345e-06
0.000398414
-7.5351e-06
0.000410819
-1.22745e-05
0.000426623
-1.70967e-05
0.000445633
-2.21108e-05
0.00046761
-2.73936e-05
0.000492313
-3.29427e-05
0.000519473
-3.87378e-05
0.000548824
-4.47489e-05
0.000580103
-5.09478e-05
0.000613005
-5.73233e-05
0.000647154
-6.3873e-05
0.000682113
-7.0575e-05
0.000717585
-7.73348e-05
0.000753208
-8.4045e-05
0.000788712
-9.05816e-05
0.000823961
-9.68201e-05
0.000858915
-0.000102725
0.000893551
-0.000108423
0.000927758
-0.000114227
0.000961187
-0.000120617
0.000993161
-0.000128149
0.00102267
-0.000137278
0.00104852
-0.000148179
0.00106951
-0.000160624
0.00108479
-0.000173928
0.00109386
-0.000187094
0.00109657
-0.000199065
0.00109316
-0.000208906
0.00108405
-0.000215967
0.00106983
-0.000219901
0.00105124
-0.000220586
0.00102917
-0.000218071
0.00100458
-0.000212563
0.000978443
-0.000204415
0.000951675
-0.000194088
0.00092506
-0.000182114
0.000899218
-0.000169063
0.000874581
-0.000155512
0.00085139
-0.000142028
0.000829705
-0.000129154
0.000809405
-0.00011739
0.000790194
-0.000107259
0.000771557
-9.9089e-05
0.000752859
-9.36053e-05
-9.03911e-05
0.000594386
0.000177666
0.00062317
0.000175178
0.000652323
0.000176101
0.000682115
0.000181152
0.000712925
0.000187557
0.000745615
0.000193398
0.000781184
0.000199044
0.000820198
0.000205186
0.000862418
0.000211789
0.000906717
0.000218558
0.00095123
0.000225259
0.000993679
0.000231532
0.00103173
0.000236784
0.001063
0.000240139
0.00108532
0.000240713
0.00109754
0.00023834
0.00109978
0.000223719
0.00109371
0.00020575
0.00108085
0.000187532
0.00106271
0.000169139
0.00104097
0.000151047
0.00101718
0.000133768
0.000992669
0.000117603
0.000968539
0.000102666
0.000945568
8.8925e-05
0.000924333
7.62936e-05
0.000905284
6.46709e-05
0.000888733
5.39051e-05
0.000874806
4.38398e-05
0.000863641
3.44049e-05
0.000855313
2.55398e-05
0.000849871
1.71629e-05
0.000847311
9.16624e-06
0.000847135
1.56731e-06
0.000850003
-5.86222e-06
0.000855491
-1.30229e-05
0.000863357
-2.01399e-05
0.000873461
-2.72007e-05
0.000885556
-3.42063e-05
0.00089934
-4.11773e-05
0.000914506
-4.81089e-05
0.000930743
-5.49747e-05
0.000947737
-6.17432e-05
0.000965178
-6.83884e-05
0.000982749
-7.48943e-05
0.00100013
-8.12496e-05
0.00101698
-8.74329e-05
0.00103304
-9.33929e-05
0.00104806
-9.90616e-05
0.00106185
-0.000104377
0.00107433
-0.000109299
0.00108546
-0.000113857
0.00109523
-0.000118189
0.00110356
-0.000122552
0.00111024
-0.000127298
0.00111489
-0.000132802
0.00111696
-0.00013935
0.00111581
-0.000147025
0.00111081
-0.000155629
0.00110155
-0.000164666
0.00108789
-0.000173434
0.00107001
-0.000181183
0.00104836
-0.000187256
0.00102358
-0.000191184
0.000996386
-0.000192712
0.000967561
-0.000191762
0.00093788
-0.000188389
0.000908076
-0.000182759
0.000878795
-0.000175135
0.00085056
-0.000165853
0.00082375
-0.000155304
0.000798599
-0.000143912
0.000775205
-0.000132118
0.000753544
-0.000120366
0.000733485
-0.000109094
0.000714791
-9.86963e-05
0.000697131
-8.95989e-05
0.000680002
-8.19601e-05
0.000662937
-7.65409e-05
-7.21991e-05
0.000525111
0.000151816
0.000551937
0.000148353
0.000579147
0.000148891
0.000606468
0.00015383
0.000634007
0.000160017
0.000661955
0.000165451
0.00069063
0.000170369
0.000720609
0.000175208
0.00075254
0.000179858
0.000786882
0.000184215
0.000823736
0.000188406
0.000862749
0.000192519
0.000903106
0.000196427
0.000943517
0.000199728
0.000982341
0.000201889
0.00101806
0.000202622
0.00104835
0.000193426
0.0010728
0.000181297
0.00109164
0.000168696
0.00110526
0.000155521
0.0011143
0.000142009
0.00111954
0.000128525
0.0011218
0.000115344
0.00112184
0.00010262
0.00112035
9.04149e-05
0.00111791
7.87355e-05
0.00111502
6.75673e-05
0.00111205
5.68708e-05
0.0011093
4.65943e-05
0.00110699
3.67126e-05
0.00110531
2.72154e-05
0.0011044
1.80796e-05
0.00110428
9.28656e-06
0.00110489
9.50254e-07
0.00110636
-7.32742e-06
0.00110849
-1.516e-05
0.00111117
-2.28105e-05
0.00111425
-3.02879e-05
0.00111761
-3.75679e-05
0.00112108
-4.4643e-05
0.00112447
-5.1502e-05
0.00112762
-5.81196e-05
0.00113034
-6.44685e-05
0.00113248
-7.05283e-05
0.00113388
-7.62886e-05
0.00113437
-8.1744e-05
0.00113382
-8.68859e-05
0.00113213
-9.16936e-05
0.0011292
-9.61399e-05
0.00112503
-0.000100207
0.00111964
-0.000103904
0.00111307
-0.000107292
0.00110539
-0.000110504
0.00109659
-0.000113751
0.00108659
-0.000117297
0.00107519
-0.000121405
0.00106211
-0.000126269
0.00104701
-0.00013193
0.00102962
-0.000138235
0.00100978
-0.00014483
0.000987563
-0.000151214
0.000963223
-0.000156843
0.000937189
-0.000161221
0.000909981
-0.000163976
0.000882147
-0.000164878
0.000854213
-0.000163828
0.000826655
-0.000160831
0.000799877
-0.000155981
0.00077419
-0.000149448
0.000749808
-0.000141471
0.00072685
-0.000132346
0.000705355
-0.000122416
0.000685289
-0.000112052
0.000666562
-0.00010164
0.000649035
-9.15668e-05
0.000632509
-8.21706e-05
0.000616729
-7.38189e-05
0.000601299
-6.65306e-05
0.000585895
-6.11361e-05
-5.57389e-05
0.00046394
0.000128551
0.000488639
0.000123653
0.00051348
0.00012405
0.00053816
0.000129151
0.000563123
0.000135054
0.000588447
0.000140127
0.000613972
0.000144843
0.000639767
0.000149413
0.000666087
0.000153537
0.000693252
0.000157051
0.000721621
0.000160037
0.000751534
0.000162605
0.00078319
0.000164772
0.000816499
0.000166419
0.000851028
0.00016736
0.000886143
0.000167507
0.000919713
0.000159856
0.000950854
0.000150156
0.000979195
0.000140356
0.00100447
0.000130245
0.00102661
0.000119872
0.00104571
0.000109421
0.001062
9.90543e-05
0.00107576
8.88647e-05
0.00108728
7.88931e-05
0.00109686
6.9153e-05
0.00110478
5.96481e-05
0.00111128
5.03726e-05
0.00111656
4.13146e-05
0.0011208
3.24761e-05
0.00112414
2.38734e-05
0.0011267
1.55185e-05
0.00112856
7.41996e-06
0.00112978
-2.60695e-07
0.00113033
-7.88191e-06
0.00113025
-1.50789e-05
0.0011295
-2.20625e-05
0.00112805
-2.8837e-05
0.00112586
-3.53809e-05
0.0011229
-4.16772e-05
0.00111911
-4.77115e-05
0.00111445
-5.34647e-05
0.0011089
-5.89171e-05
0.00110243
-6.40563e-05
0.00109502
-6.88782e-05
0.00108666
-7.33839e-05
0.00107735
-7.7575e-05
0.0010671
-8.14486e-05
0.00105596
-8.50008e-05
0.00104399
-8.82376e-05
0.00103128
-9.11884e-05
0.00101791
-9.39207e-05
0.00100396
-9.65525e-05
0.000989456
-9.92515e-05
0.000974375
-0.000102217
0.00095861
-0.00010564
0.000941996
-0.000109655
0.000924353
-0.000114287
0.000905535
-0.000119417
0.000885483
-0.000124779
0.000864264
-0.000129995
0.000842062
-0.000134641
0.000819154
-0.000138314
0.000795866
-0.000140687
0.000772521
-0.000141533
0.000749417
-0.000140723
0.000726803
-0.000138217
0.000704876
-0.000134054
0.000683774
-0.000128346
0.000663583
-0.00012128
0.000644342
-0.000113105
0.000626054
-0.000104128
0.000608693
-9.46913e-05
0.000592212
-8.51588e-05
0.000576538
-7.58932e-05
0.000561564
-6.71967e-05
0.000547129
-5.93832e-05
0.000532964
-5.23656e-05
0.000518788
-4.69604e-05
-4.06991e-05
0.000410014
0.000107501
0.000432754
0.000100913
0.000455183
0.000101621
0.000477153
0.000107181
0.000499456
0.000112751
0.000522204
0.000117379
0.000545205
0.000121842
0.000568443
0.000126175
0.000591944
0.000130036
0.000615692
0.000133303
0.00063973
0.000135999
0.000664201
0.000138135
0.000689295
0.000139677
0.000715171
0.000140544
0.000741886
0.000140645
0.000769411
0.000139981
0.000796459
0.000132808
0.000822546
0.000124069
0.00084745
0.000115452
0.000870905
0.000106791
0.000892695
9.8081e-05
0.000912697
8.94195e-05
0.000930858
8.08926e-05
0.000947184
7.25396e-05
0.00096171
6.43668e-05
0.000974496
5.6367e-05
0.000985613
4.85309e-05
0.000995137
4.08488e-05
0.00100314
3.33121e-05
0.00100969
2.59239e-05
0.00101486
1.87007e-05
0.00101872
1.16624e-05
0.00102131
4.83131e-06
0.00102278
-1.73064e-06
0.00102306
-8.15887e-06
0.00102229
-1.43176e-05
0.0010205
-2.02639e-05
0.00101768
-2.60181e-05
0.00101386
-3.15671e-05
0.00100908
-3.68931e-05
0.00100335
-4.19824e-05
0.000996707
-4.68218e-05
0.000989189
-5.13984e-05
0.000980837
-5.57045e-05
0.000971697
-5.97387e-05
0.000961818
-6.35044e-05
0.000951249
-6.70062e-05
0.000940048
-7.02478e-05
0.000928282
-7.32345e-05
0.000916025
-7.59806e-05
0.000903356
-7.85196e-05
0.000890349
-8.09139e-05
0.000877059
-8.32622e-05
0.000863505
-8.56978e-05
0.000849661
-8.83729e-05
0.000835453
-9.14313e-05
0.000820769
-9.49703e-05
0.000805485
-9.9003e-05
0.0007895
-0.000103432
0.000772769
-0.000108047
0.000755318
-0.000112544
0.000737248
-0.000116571
0.000718719
-0.000119784
0.000699915
-0.000121883
0.000681023
-0.000122641
0.000662211
-0.000121912
0.00064362
-0.000119627
0.000625361
-0.000115795
0.000607519
-0.000110503
0.000590153
-0.000103914
0.000573308
-9.62606e-05
0.000557018
-8.78377e-05
0.000541309
-7.89818e-05
0.000526197
-7.00465e-05
0.000511681
-6.13777e-05
0.000497736
-5.32517e-05
0.000484273
-4.59197e-05
0.000471135
-3.92279e-05
0.000458008
-3.38333e-05
-2.70234e-05
0.000362528
8.82935e-05
0.000383496
7.99446e-05
0.000403597
8.15206e-05
0.000423064
8.77139e-05
0.000442881
9.29341e-05
0.000463079
9.71809e-05
0.000483526
0.000101395
0.000504299
0.000105401
0.000525423
0.000108912
0.000546811
0.000111916
0.000568374
0.000114436
0.000590068
0.000116441
0.000611877
0.000117867
0.000633799
0.000118623
0.000655831
0.000118613
0.000677989
0.000117823
0.000699366
0.000111431
0.000719768
0.000103666
0.000739206
9.6014e-05
0.000757617
8.83803e-05
0.000774922
8.07761e-05
0.000791059
7.32817e-05
0.000805987
6.59648e-05
0.000819676
5.88513e-05
0.000832105
5.19371e-05
0.000843266
4.52063e-05
0.000853155
3.86415e-05
0.000861778
3.22266e-05
0.000869141
2.59483e-05
0.000875262
1.98037e-05
0.000880161
1.38013e-05
0.000883869
7.95395e-06
0.000886432
2.26832e-06
0.000887924
-3.22228e-06
0.000888353
-8.58749e-06
0.000887807
-1.37715e-05
0.000886316
-1.87734e-05
0.000883908
-2.361e-05
0.000880617
-2.82759e-05
0.00087648
-3.27563e-05
0.000871537
-3.70393e-05
0.00086583
-4.11147e-05
0.000859405
-4.49733e-05
0.000852309
-4.86094e-05
0.000844593
-5.20222e-05
0.000836303
-5.52145e-05
0.000827488
-5.81911e-05
0.000818197
-6.09572e-05
0.000808484
-6.3521e-05
0.000798402
-6.58988e-05
0.000788005
-6.81227e-05
0.00077734
-7.02482e-05
0.000766435
-7.23581e-05
0.000755298
-7.45605e-05
0.000743902
-7.69764e-05
0.000732188
-7.97178e-05
0.000720076
-8.28582e-05
0.000707476
-8.64031e-05
0.000694313
-9.02691e-05
0.000680544
-9.42783e-05
0.000666174
-9.81736e-05
0.000651254
-0.000101652
0.000635872
-0.000104402
0.000620135
-0.000106146
0.000604155
-0.000106661
0.000588035
-0.000105792
0.000571871
-0.000103463
0.000555747
-9.96716e-05
0.000539744
-9.45004e-05
0.00052394
-8.811e-05
0.000508416
-8.07359e-05
0.000493252
-7.26739e-05
0.000478529
-6.42591e-05
0.00046432
-5.58372e-05
0.000450676
-4.77338e-05
0.000437625
-4.02005e-05
0.00042512
-3.34143e-05
0.000413089
-2.71977e-05
0.000401144
-2.18882e-05
-1.49061e-05
0.000320758
7.05688e-05
0.000340087
6.06154e-05
0.000357962
6.36453e-05
0.000375206
7.04698e-05
0.00039282
7.53203e-05
0.000410691
7.93102e-05
0.000428758
8.3328e-05
0.000447164
8.69955e-05
0.000465942
9.01343e-05
0.000485028
9.283e-05
0.000504353
9.51106e-05
0.000523854
9.69395e-05
0.000543456
9.82652e-05
0.000563068
9.90105e-05
0.000582595
9.9087e-05
0.000601959
9.84588e-05
0.000620315
9.30754e-05
0.000637506
8.64748e-05
0.000653597
7.99233e-05
0.000668613
7.33642e-05
0.000682569
6.68207e-05
0.00069548
6.03698e-05
0.000707367
5.40779e-05
0.000718245
4.79733e-05
0.000728127
4.20559e-05
0.00073702
3.63129e-05
0.000744933
3.07289e-05
0.000751871
2.52884e-05
0.000757842
1.99775e-05
0.000762855
1.47907e-05
0.000766924
9.73232e-06
0.000770066
4.811e-06
0.000772321
1.40352e-08
0.000773718
-4.61994e-06
0.000774278
-9.14708e-06
0.000774038
-1.35319e-05
0.00077303
-1.77647e-05
0.000771274
-2.18541e-05
0.000768796
-2.57982e-05
0.000765626
-2.95857e-05
0.000761792
-3.32058e-05
0.000757327
-3.665e-05
0.000752265
-3.99113e-05
0.000746642
-4.29856e-05
0.000740492
-4.58722e-05
0.000733851
-4.85741e-05
0.000726756
-5.10956e-05
0.000719242
-5.3443e-05
0.000711346
-5.56253e-05
0.000703106
-5.7659e-05
0.000694557
-5.95741e-05
0.000685729
-6.14195e-05
0.000676637
-6.32659e-05
0.00066728
-6.52036e-05
0.000657635
-6.73316e-05
0.000647657
-6.97397e-05
0.000637283
-7.24846e-05
0.000626445
-7.55652e-05
0.000615081
-7.89049e-05
0.000603148
-8.23456e-05
0.000590634
-8.56593e-05
0.000577556
-8.8573e-05
0.000563956
-9.08028e-05
0.000549897
-9.20876e-05
0.000535452
-9.22151e-05
0.000520699
-9.10393e-05
0.000505726
-8.84895e-05
0.00049063
-8.45757e-05
0.00047552
-7.93905e-05
0.000460517
-7.31067e-05
0.000445748
-6.59675e-05
0.000431344
-5.82699e-05
0.000417426
-5.0341e-05
0.000404098
-4.25094e-05
0.000391434
-3.50701e-05
0.000379481
-2.82467e-05
0.0003682
-2.21339e-05
0.00035758
-1.65771e-05
0.000347148
-1.14566e-05
-4.67006e-06
0.000284047
5.39952e-05
0.000301804
4.28582e-05
0.000317587
4.78622e-05
0.000332893
5.51637e-05
0.000348559
5.9654e-05
0.000364357
6.35131e-05
0.000380322
6.73628e-05
0.000396613
7.07044e-05
0.000413239
7.35079e-05
0.00043015
7.59191e-05
0.000447307
7.79533e-05
0.000464671
7.95761e-05
0.00048218
8.07563e-05
0.000499751
8.14393e-05
0.000517283
8.1555e-05
0.000534674
8.10679e-05
0.000551117
7.66322e-05
0.000566433
7.11585e-05
0.000580663
6.56938e-05
0.00059383
6.01966e-05
0.000605961
5.46904e-05
0.000617086
4.9244e-05
0.000627245
4.39191e-05
0.000636473
3.87451e-05
0.000644804
3.37258e-05
0.000652264
2.88529e-05
0.000658877
2.41151e-05
0.000664665
1.95006e-05
0.000669646
1.4997e-05
0.000673837
1.05998e-05
0.000677256
6.31307e-06
0.000679926
2.14081e-06
0.000681862
-1.92174e-06
0.000683096
-5.85443e-06
0.000683635
-9.68606e-06
0.000683505
-1.34014e-05
0.000682729
-1.69888e-05
0.000681326
-2.04507e-05
0.000679313
-2.3786e-05
0.000676714
-2.6986e-05
0.000673549
-3.00408e-05
0.000669842
-3.29432e-05
0.000665618
-3.56876e-05
0.000660904
-3.82711e-05
0.000655725
-4.06936e-05
0.000650109
-4.29578e-05
0.000644081
-4.50682e-05
0.000637669
-4.70306e-05
0.000630898
-4.88539e-05
0.000623792
-5.05537e-05
0.000616375
-5.21567e-05
0.000608661
-5.37056e-05
0.000600656
-5.5261e-05
0.000592352
-5.68992e-05
0.000583722
-5.87024e-05
0.000574726
-6.07437e-05
0.000565308
-6.30663e-05
0.000555406
-6.56629e-05
0.000544961
-6.84596e-05
0.000533926
-7.13112e-05
0.000522277
-7.401e-05
0.000510012
-7.63078e-05
0.000497155
-7.79461e-05
0.000483755
-7.86878e-05
0.000469883
-7.83433e-05
0.000455633
-7.67887e-05
0.000441119
-7.3976e-05
0.00042648
-6.99366e-05
0.000411871
-6.47814e-05
0.000397458
-5.86939e-05
0.000383409
-5.19182e-05
0.00036988
-4.47405e-05
0.000357004
-3.74654e-05
0.000344884
-3.03898e-05
0.000333582
-2.37673e-05
0.000323128
-1.77926e-05
0.00031347
-1.24758e-05
0.00030463
-7.73756e-06
0.000296082
-2.9086e-06
3.4005e-06
0.000251798
3.82834e-05
0.000267991
2.66651e-05
0.000281861
3.39924e-05
0.000295501
4.15234e-05
0.000309433
4.5722e-05
0.000323391
4.95552e-05
0.00033752
5.32337e-05
0.000351962
5.6263e-05
0.000366694
5.87752e-05
0.000381673
6.09401e-05
0.000396873
6.27539e-05
0.000412262
6.4187e-05
0.000427794
6.52239e-05
0.000443407
6.58265e-05
0.000459021
6.59409e-05
0.00047455
6.55388e-05
0.000489265
6.19174e-05
0.00050299
5.74336e-05
0.000515747
5.29364e-05
0.00052755
4.83935e-05
0.000538414
4.38263e-05
0.000548363
3.9295e-05
0.000557428
3.48546e-05
0.00056564
3.05329e-05
0.000573031
2.63344e-05
0.000579631
2.22534e-05
0.000585464
1.82814e-05
0.000590556
1.44094e-05
0.000594927
1.06256e-05
0.000598599
6.92755e-06
0.000601592
3.32064e-06
0.000603925
-1.92354e-07
0.000605616
-3.61292e-06
0.000606692
-6.92982e-06
0.000607162
-1.01566e-05
0.000607048
-1.3287e-05
0.000606369
-1.63101e-05
0.000605142
-1.92239e-05
0.000603383
-2.20267e-05
0.000601108
-2.47107e-05
0.000598334
-2.72669e-05
0.000595079
-2.96881e-05
0.00059136
-3.19693e-05
0.000587197
-3.41079e-05
0.000582607
-3.61036e-05
0.000577608
-3.79585e-05
0.000572216
-3.96764e-05
0.000566448
-4.12623e-05
0.000560318
-4.27239e-05
0.000553839
-4.4075e-05
0.000547021
-4.5339e-05
0.000539869
-4.6553e-05
0.000532377
-4.77695e-05
0.000524532
-4.90536e-05
0.000516304
-5.0475e-05
0.000507654
-5.20937e-05
0.000498531
-5.39429e-05
0.000488878
-5.60102e-05
0.000478643
-5.82246e-05
0.000467785
-6.04526e-05
0.000456281
-6.25064e-05
0.000444137
-6.41642e-05
0.000431389
-6.51979e-05
0.000418104
-6.54027e-05
0.000404382
-6.4621e-05
0.000390353
-6.27597e-05
0.000376175
-5.97978e-05
0.000362026
-5.5788e-05
0.000348097
-5.08525e-05
0.000334577
-4.51743e-05
0.000321643
-3.89837e-05
0.000309443
-3.25404e-05
0.00029809
-2.61122e-05
0.000287654
-1.99546e-05
0.000278161
-1.42739e-05
0.000269608
-9.23994e-06
0.000261914
-4.78118e-06
0.000255127
-9.50412e-07
0.000248713
3.50535e-06
9.1973e-06
0.000223468
2.31977e-05
0.000238065
1.20686e-05
0.000250246
2.18114e-05
0.00026246
2.93089e-05
0.000274839
3.33426e-05
0.000287178
3.72171e-05
0.000299708
4.07037e-05
0.000312532
4.34385e-05
0.000325608
4.5699e-05
0.000338899
4.7649e-05
0.000352385
4.92687e-05
0.000366035
5.05369e-05
0.000379808
5.14501e-05
0.000393653
5.19815e-05
0.000407506
5.20885e-05
0.000421295
5.17497e-05
0.000434375
4.88375e-05
0.000446588
4.52202e-05
0.000457954
4.15704e-05
0.000468484
3.78641e-05
0.000478188
3.41221e-05
0.000487084
3.03986e-05
0.000495196
2.67434e-05
0.000502546
2.3182e-05
0.000509162
1.97191e-05
0.000515065
1.63499e-05
0.000520279
1.30681e-05
0.000524822
9.86623e-06
0.000528716
6.73166e-06
0.000531978
3.66499e-06
0.000534628
6.70673e-07
0.000536686
-2.2502e-06
0.000538169
-5.09609e-06
0.000539098
-7.85876e-06
0.000539485
-1.05436e-05
0.000539345
-1.31469e-05
0.000538693
-1.56581e-05
0.000537541
-1.80721e-05
0.0005359
-2.03851e-05
0.000533778
-2.25895e-05
0.000531188
-2.46761e-05
0.000528137
-2.66374e-05
0.000524636
-2.84684e-05
0.000520695
-3.01665e-05
0.000516322
-3.17314e-05
0.000511529
-3.3165e-05
0.000506323
-3.44709e-05
0.000500715
-3.56538e-05
0.000494712
-3.67212e-05
0.000488323
-3.76856e-05
0.000481552
-3.85683e-05
0.000474402
-3.94027e-05
0.000466867
-4.02352e-05
0.000458936
-4.11225e-05
0.000450586
-4.21246e-05
0.000441784
-4.32918e-05
0.000432491
-4.46497e-05
0.000422664
-4.61834e-05
0.000412266
-4.78266e-05
0.000401273
-4.94593e-05
0.000389682
-5.0916e-05
0.000377523
-5.20047e-05
0.000364856
-5.25313e-05
0.00035178
-5.23269e-05
0.000338427
-5.12679e-05
0.000324958
-4.92904e-05
0.000311556
-4.63954e-05
0.000298415
-4.26471e-05
0.000285729
-3.81671e-05
0.000273679
-3.31244e-05
0.000262418
-2.77226e-05
0.000252062
-2.21842e-05
0.000242683
-1.67335e-05
0.000234311
-1.15819e-05
0.000226926
-6.88878e-06
0.000220495
-2.80916e-06
0.000214906
8.07826e-07
0.000210222
3.73337e-06
0.000205983
7.74454e-06
1.28027e-05
0.00019856
8.56678e-06
0.000211521
-8.92458e-07