/*--------------------------------*- C++ -*----------------------------------*\
| =========                 |                                                 |
| \\      /  F ield         | OpenFOAM: The Open Source CFD Toolbox           |
|  \\    /   O peration     | Version:  v1912                                 |
|   \\  /    A nd           | Website:  www.openfoam.com                      |
|    \\/     M anipulation  |                                                 |
\*---------------------------------------------------------------------------*/
FoamFile
{
    version     2.0;
    format      ascii;
    class       volVectorField;
    location    "475";
    object      U;
}
// * * * * * * * * * * * * * * * * * * * * * * * * * * * * * * * * * * * * * //

dimensions      [0 1 -1 0 0 0 0];


internalField   nonuniform List<vector> 
2000
(
(0.84616 0.187394 0)
(0.515132 0.124089 0)
(0.223447 0.0684418 0)
(0.0598053 0.0174441 6.19591e-20)
(-0.00455594 -0.0232197 1.20825e-17)
(-0.0642109 -0.0384744 1.04364e-17)
(-0.0776126 -0.0372446 0)
(-0.0716051 -0.0166932 0)
(-0.0590619 0.011623 0)
(-0.0421165 0.025348 2.36997e-17)
(-0.0415353 0.0108235 -1.45197e-17)
(-0.0273159 -0.000855822 -1.36362e-17)
(-0.0160697 -0.00286601 0)
(-0.0195523 -0.00266262 0)
(-0.0212588 -0.00207562 -1.08373e-17)
(-0.015978 0.000925925 0)
(-0.00953347 0.00364187 9.7579e-18)
(-0.00888633 0.00639049 3.37484e-21)
(-0.0100411 0.00620003 9.42973e-18)
(-0.0108648 0.00497511 -4.65394e-18)
(-0.0108188 0.00292963 9.20156e-18)
(-0.00978736 0.000985772 0)
(-0.0078908 2.92266e-05 0)
(-0.00564496 -0.000376705 -2.42204e-23)
(-0.00361105 -0.000554165 0)
(-0.0019802 -0.000619849 -4.51983e-18)
(-0.000850436 -0.000646179 0)
(-0.000184429 -0.000692116 4.53466e-18)
(0.000237005 -0.000757782 0)
(0.000621255 -0.000803961 0)
(0.000990003 -0.00074892 0)
(0.00135746 -0.000652795 1.152e-18)
(0.00170583 -0.000571538 0)
(0.00202162 -0.000532924 -5.84511e-19)
(0.00229031 -0.000530482 1.95044e-14)
(0.00248042 -0.000544037 1.9488e-14)
(0.00258335 -0.000562464 6.02559e-19)
(0.00257465 -0.0006012 -6.10009e-19)
(0.00241972 -0.000684051 0)
(0.00212875 -0.000808127 2.50935e-18)
(0.00169549 -0.00095236 0)
(0.00109644 -0.00109406 -2.59263e-18)
(0.000299288 -0.00120958 0)
(-0.000764242 -0.00127968 -5.37023e-18)
(-0.0021534 -0.00131095 2.72928e-18)
(-0.00391235 -0.00138216 0)
(-0.00614467 -0.00154076 0)
(-0.00901711 -0.00170685 -2.86476e-18)
(-0.0128547 -0.00158141 0)
(-0.0182696 -0.000582239 2.94094e-18)
(-0.0262332 0.0019808 0)
(-0.0380164 0.00639268 5.91975e-18)
(-0.0549848 0.0121025 -5.86477e-18)
(-0.0782543 0.017758 5.73966e-18)
(-0.108183 0.0215061 -2.73887e-18)
(-0.143891 0.0214552 0)
(-0.183275 0.0163533 2.32794e-18)
(-0.223408 0.00605276 -2.07291e-18)
(-0.260579 -0.00839733 -4.08104e-18)
(-0.289984 -0.0247719 3.30706e-18)
(-0.306723 -0.039827 -3.26494e-18)
(-0.309195 -0.0503317 3.49535e-18)
(-0.302725 -0.0563552 -3.99237e-18)
(-0.287589 -0.0592519 4.80545e-18)
(-0.264923 -0.0600516 -1.0099e-20)
(-0.235606 -0.0594899 7.21703e-18)
(-0.200092 -0.0577755 0)
(-0.158579 -0.0549063 0)
(-0.11134 -0.0508798 7.3866e-20)
(-0.0591121 -0.0457427 0)
(-0.0031471 -0.0394346 1.99317e-17)
(0.0563655 -0.0316229 0)
(0.119724 -0.0221645 1.98813e-17)
(0.186461 -0.0112077 -4.86635e-19)
(0.255845 0.00101412 1.71579e-17)
(0.329208 0.0142053 2.98488e-17)
(0.403056 0.0279951 7.33239e-19)
(0.490608 0.04193 -1.01419e-17)
(0.556437 0.054366 -6.52591e-18)
(0.713025 0.0650413 0)
(1.0153 0.210384 0)
(0.944633 0.194212 0)
(0.804474 0.179984 -3.53235e-18)
(0.654419 0.152315 7.29561e-18)
(0.50922 0.111171 0)
(0.360035 0.0683743 -7.29808e-18)
(0.216489 0.0293316 0)
(0.0821357 -0.00529796 0)
(-0.0282791 -0.0180301 0)
(-0.0562483 -0.0188649 -1.73302e-17)
(-0.066818 -0.0249243 1.5764e-17)
(-0.0720522 -0.0160145 1.44564e-17)
(-0.0640764 0.00616325 0)
(-0.0512945 0.0202449 6.32839e-18)
(-0.0550376 0.00935532 0)
(-0.0487379 -0.00337018 0)
(-0.0376707 -0.00422483 0)
(-0.0324035 -0.00111225 5.27693e-18)
(-0.0359852 0.000829212 -1.03542e-17)
(-0.0380137 0.000836255 -5.10137e-18)
(-0.0385982 0.000126105 0)
(-0.0374136 -0.000892245 0)
(-0.0346235 -0.00197669 0)
(-0.0313535 -0.00251742 -7.43528e-18)
(-0.0282303 -0.0023621 0)
(-0.0254984 -0.00166609 4.96551e-18)
(-0.0233765 -0.00072591 2.48982e-18)
(-0.0220158 4.29324e-05 0)
(-0.0214837 0.000335517 0)
(-0.0216368 0.000314886 0)
(-0.0222915 0.000121729 0)
(-0.0232227 -6.65192e-05 -6.34045e-19)
(-0.0242652 -0.000207202 0)
(-0.0253591 -0.000275286 3.20831e-19)
(-0.0265246 -0.000240363 1.61614e-19)
(-0.027832 -9.01246e-05 0)
(-0.0293196 0.000154886 0)
(-0.0310056 0.00046024 6.63643e-19)
(-0.0329215 0.000801917 0)
(-0.0351089 0.00117476 -1.35443e-18)
(-0.037578 0.00158931 0)
(-0.0403372 0.00206507 -1.38473e-18)
(-0.0433925 0.00262007 0)
(-0.0467518 0.0032602 1.41715e-18)
(-0.0504143 0.00398868 1.43562e-18)
(-0.054369 0.00485453 0)
(-0.0586087 0.00603443 0)
(-0.0631458 0.00787975 -2.9836e-18)
(-0.067984 0.0108905 0)
(-0.0730931 0.0156613 1.60296e-20)
(-0.0784904 0.0227011 0)
(-0.0843686 0.0321089 0)
(-0.0910612 0.0431782 0)
(-0.098832 0.0543085 0)
(-0.107387 0.0632095 6.01737e-18)
(-0.115214 0.0674118 0)
(-0.119883 0.0649215 -5.47215e-18)
(-0.119505 0.0548716 2.65016e-18)
(-0.11275 0.0382658 -2.3075e-18)
(-0.0956946 0.017879 -4.88095e-18)
(-0.0638507 -0.00459932 5.03164e-18)
(-0.0455047 -0.0306452 -5.55618e-18)
(-0.0202703 -0.0514646 6.51195e-18)
(0.00782957 -0.0662465 0)
(0.0389085 -0.0765911 -1.2996e-17)
(0.073485 -0.0839429 -9.69889e-18)
(0.11232 -0.0890451 0)
(0.155583 -0.0919369 5.75983e-18)
(0.202903 -0.0923607 1.2593e-17)
(0.2537 -0.0901316 0)
(0.307332 -0.0851705 0)
(0.363236 -0.077463 0)
(0.420953 -0.0671444 0)
(0.480231 -0.0545406 -1.36138e-17)
(0.540829 -0.0401742 5.93415e-18)
(0.603612 -0.0246954 -1.17596e-17)
(0.667001 -0.00903051 1.01514e-17)
(0.738788 0.00579134 -3.46509e-18)
(0.795706 0.0173471 0)
(0.911462 0.02275 0)
(0.978489 0.201539 0)
(0.978854 0.193007 -2.78925e-18)
(0.969154 0.205113 3.48477e-18)
(0.939082 0.208535 -3.06365e-18)
(0.878032 0.19461 2.88822e-18)
(0.785601 0.168723 2.84631e-18)
(0.669343 0.138084 0)
(0.541003 0.106023 0)
(0.408209 0.0750644 0)
(0.285916 0.0459418 6.87502e-18)
(0.173844 0.0180383 0)
(0.0721968 -0.0063681 0)
(-0.0214435 -0.0140255 0)
(-0.0471401 -0.00384901 -7.19067e-18)
(-0.0512922 -0.0117865 0)
(-0.0594819 -0.0183479 -6.0492e-18)
(-0.0603058 -0.0114808 0)
(-0.0492679 0.00862632 5.87382e-18)
(-0.0470747 0.0161734 2.87403e-18)
(-0.0513788 0.0124161 0)
(-0.0534727 0.00610231 -2.79247e-18)
(-0.0550263 -0.000193677 0)
(-0.0553559 -0.00446259 0)
(-0.0542054 -0.00621603 5.44716e-18)
(-0.052466 -0.00628001 0)
(-0.0511871 -0.00544497 1.36149e-18)
(-0.0509828 -0.00400569 -4.08754e-18)
(-0.0518316 -0.00207803 0)
(-0.0532393 -0.000128324 0)
(-0.0547727 0.00128885 -6.83141e-19)
(-0.0564388 0.00220663 0)
(-0.0582052 0.0027181 2.12638e-22)
(-0.060005 0.0029653 0)
(-0.0617968 0.00310636 6.92167e-19)
(-0.0635898 0.00329479 8.70479e-20)
(-0.0654555 0.00357475 0)
(-0.0674463 0.00392604 1.76538e-19)
(-0.0695702 0.00431136 -3.55898e-19)
(-0.0718041 0.00472364 -3.59022e-19)
(-0.0741106 0.00515967 -7.24965e-19)
(-0.0764437 0.00562283 7.32646e-19)
(-0.0787586 0.00612769 7.41183e-19)
(-0.0810202 0.00669419 0)
(-0.0831873 0.00732969 1.52093e-18)
(-0.0851602 0.00802718 -3.08757e-18)
(-0.0867163 0.00881416 0)
(-0.0874903 0.00985326 -1.60006e-18)
(-0.0870359 0.0115266 3.25906e-18)
(-0.0848172 0.0142856 0)
(-0.0801769 0.0186959 -1.70086e-18)
(-0.0724144 0.0252044 1.78572e-18)
(-0.0610196 0.0340417 -1.84892e-18)
(-0.0456164 0.0443036 -1.91342e-18)
(-0.02612 0.0544509 0)
(-0.00270463 0.062296 -3.93459e-18)
(0.0246613 0.0653641 -1.88168e-18)
(0.0559525 0.0613749 1.63881e-18)
(0.0893385 0.0495422 1.52883e-18)
(0.12324 0.0288129 2.57012e-18)
(0.155134 0.00195857 0)
(0.185489 -0.0245132 0)
(0.21347 -0.0466359 0)
(0.241965 -0.0650574 -1.31712e-18)
(0.273843 -0.0808341 0)
(0.310026 -0.0944693 3.23755e-18)
(0.349976 -0.105922 0)
(0.392773 -0.114871 -1.99848e-18)
(0.437551 -0.120899 -4.48496e-18)
(0.483528 -0.123632 0)
(0.530046 -0.122861 -2.48303e-18)
(0.576634 -0.118607 2.58541e-18)
(0.623042 -0.111138 0)
(0.669222 -0.100962 0)
(0.715363 -0.0887587 0)
(0.761706 -0.0753441 -5.40814e-18)
(0.809127 -0.0616202 0)
(0.85692 -0.0487581 -1.88439e-18)
(0.910029 -0.0378542 3.36606e-18)
(0.95294 -0.0312736 0)
(1.03533 -0.0304338 3.93045e-19)
(0.970611 0.209118 0)
(0.963917 0.194767 1.5271e-18)
(0.96643 0.198516 0)
(0.977153 0.206411 1.69612e-18)
(0.982035 0.208889 -3.00723e-18)
(0.968293 0.204272 -1.34248e-18)
(0.930746 0.193731 0)
(0.87075 0.177882 0)
(0.791118 0.156586 0)
(0.695393 0.131339 1.35241e-18)
(0.589456 0.10542 1.38414e-18)
(0.480034 0.0807081 0)
(0.369243 0.0580179 0)
(0.26664 0.0376361 0)
(0.179607 0.0185628 0)
(0.100314 0.00268475 6.40567e-18)
(0.0296634 -0.0099232 -3.38904e-18)
(-0.0313912 -0.00948034 0)
(-0.0339791 0.000676075 -3.28311e-18)
(-0.0359176 0.00219118 1.61795e-18)
(-0.0360504 0.00106817 3.20988e-18)
(-0.0373428 -0.00155512 0)
(-0.0404602 -0.00417116 0)
(-0.0445601 -0.00534522 -3.11959e-18)
(-0.0479121 -0.00435814 0)
(-0.0498393 -0.00155053 -1.54502e-18)
(-0.0512312 0.00192195 1.54525e-18)
(-0.0535841 0.00442403 0)
(-0.0556475 0.00556253 0)
(-0.0578508 0.0060582 7.68199e-19)
(-0.0597707 0.00609316 0)
(-0.0613879 0.00581575 -7.71398e-19)
(-0.0626583 0.00539183 0)
(-0.0635731 0.00498379 -1.95043e-19)
(-0.064265 0.00482542 -9.82473e-20)
(-0.0648163 0.0049817 -2.4774e-20)
(-0.0652245 0.00536466 -3.00055e-19)
(-0.0653766 0.00591417 4.04341e-19)
(-0.0651837 0.00653261 4.09285e-19)
(-0.0645694 0.00714718 1.24483e-18)
(-0.063439 0.00773741 -4.21613e-19)
(-0.061691 0.00830183 4.291e-19)
(-0.0592494 0.00883254 0)
(-0.0560619 0.00928251 8.94687e-19)
(-0.0520361 0.00952142 9.16649e-19)
(-0.0469546 0.0093133 0)
(-0.0403708 0.00835021 1.94626e-18)
(-0.0322133 0.00647362 1.00703e-18)
(-0.0220499 0.00424742 0)
(-0.00944472 0.00232205 -3.2801e-18)
(0.00693498 0.00128568 -2.23999e-18)
(0.0281715 0.00164544 1.10843e-18)
(0.0542212 0.00319265 2.16914e-18)
(0.0856893 0.00504451 0)
(0.122606 0.00569397 9.78731e-19)
(0.164146 0.00339681 2.67508e-18)
(0.20907 -0.00334419 1.58187e-18)
(0.255294 -0.0149899 -1.38661e-18)
(0.302377 -0.0303939 -6.40119e-19)
(0.348528 -0.0479765 0)
(0.39317 -0.0669616 0)
(0.436223 -0.086032 0)
(0.478503 -0.104084 1.71858e-18)
(0.520788 -0.120453 6.48714e-19)
(0.563023 -0.134653 0)
(0.604578 -0.146162 -1.57402e-18)
(0.644776 -0.154455 1.7512e-18)
(0.68315 -0.159142 -1.88424e-18)
(0.719466 -0.160041 -2.03137e-18)
(0.753723 -0.157223 1.27294e-19)
(0.786138 -0.150997 -2.42705e-18)
(0.817126 -0.141887 0)
(0.847237 -0.130571 0)
(0.877136 -0.117821 0)
(0.907423 -0.104479 0)
(0.939002 -0.0914058 0)
(0.971537 -0.0796417 3.67626e-18)
(1.00836 -0.0700227 -1.34538e-18)
(1.03862 -0.0644645 0)
(1.09586 -0.0628253 -4.23719e-19)
(0.972988 0.216082 0)
(0.965831 0.20181 1.87309e-18)
(0.959206 0.195602 2.49506e-19)
(0.961489 0.195549 1.90928e-18)
(0.972669 0.197541 0)
(0.985521 0.199241 -1.60925e-18)
(0.992499 0.199302 0)
(0.988452 0.196262 -3.62929e-19)
(0.970216 0.189044 0)
(0.935625 0.177577 -1.60761e-18)
(0.884721 0.162765 -1.24433e-18)
(0.819604 0.145681 -3.15754e-19)
(0.743303 0.126742 3.13418e-19)
(0.658075 0.10612 0)
(0.569149 0.085287 3.13432e-19)
(0.479341 0.0662467 0)
(0.393456 0.050271 2.65657e-18)
(0.314062 0.0363515 -3.51622e-19)
(0.24697 0.0242911 0)
(0.192172 0.0147273 -1.90187e-18)
(0.147413 0.00789837 0)
(0.110178 0.00336343 0)
(0.0792415 0.000769929 0)
(0.0532191 -0.000696307 0)
(0.0315649 -0.00170965 -2.22172e-19)
(0.0147459 -0.00219422 0)
(0.0016321 -0.00152967 0)
(-0.00352396 0.000595084 1.15646e-19)
(-0.00582182 0.0020311 0)
(-0.00573419 0.00302842 0)
(-0.0042693 0.0036099 0)
(-0.00192104 0.00391414 -5.88465e-20)
(0.000775945 0.00405248 0)
(0.00429118 0.00394785 -2.68416e-19)
(0.00734343 0.00449988 0)
(0.0109788 0.00540984 3.01419e-20)
(0.0153257 0.00598445 1.5148e-19)
(0.0205889 0.00589647 3.03918e-20)
(0.0269463 0.00543584 -6.09714e-20)
(0.0344873 0.00476961 -4.89324e-19)
(0.0433892 0.00386878 -4.89964e-19)
(0.0538603 0.00271008 4.90034e-19)
(0.0660848 0.00131022 -1.22298e-19)
(0.0802365 -0.000317118 -9.75804e-19)
(0.0965149 -0.00218654 9.70872e-19)
(0.114941 -0.00433812 -1.20623e-19)
(0.135581 -0.00685406 0)
(0.158189 -0.00985171 -9.46554e-19)
(0.182796 -0.0133044 0)
(0.209389 -0.0171188 9.25344e-19)
(0.238059 -0.0210129 0)
(0.26908 -0.0249096 8.99979e-19)
(0.302769 -0.0288045 0)
(0.339464 -0.0329156 -2.1179e-19)
(0.379361 -0.0377402 -8.02735e-19)
(0.422316 -0.0439791 -7.43562e-19)
(0.467717 -0.0523425 1.72622e-19)
(0.514489 -0.0633273 0)
(0.561214 -0.0771988 5.4075e-19)
(0.606464 -0.0934021 -1.36763e-19)
(0.64936 -0.110929 0)
(0.689481 -0.128407 1.37053e-19)
(0.726695 -0.144572 -5.35398e-19)
(0.760942 -0.158574 -5.9223e-19)
(0.79207 -0.169857 0)
(0.819896 -0.178002 1.48655e-18)
(0.844377 -0.182715 0)
(0.865708 -0.183883 1.84269e-18)
(0.884317 -0.181609 2.02016e-18)
(0.900818 -0.176193 2.18382e-18)
(0.915953 -0.168102 2.71659e-19)
(0.93053 -0.157925 0)
(0.94536 -0.146331 0)
(0.961221 -0.134025 0)
(0.978719 -0.121731 -2.69951e-19)
(0.998594 -0.110161 0)
(1.02048 -0.100111 -1.67479e-18)
(1.04685 -0.0922246 1.64919e-18)
(1.06887 -0.0877144 1.03985e-19)
(1.11251 -0.0865418 4.50912e-20)
(0.974194 0.218515 -1.23374e-18)
(0.970935 0.206365 1.19409e-18)
(0.965119 0.198174 -2.82338e-19)
(0.961139 0.194115 0)
(0.962198 0.191946 0)
(0.968262 0.190549 0)
(0.977775 0.189892 0)
(0.988507 0.189491 1.25373e-18)
(0.997437 0.188321 0)
(1.00094 0.185374 -1.12083e-18)
(0.995779 0.179973 -1.39717e-18)
(0.979844 0.171924 3.20344e-19)
(0.952677 0.161453 9.67699e-19)
(0.914337 0.148659 0)
(0.865646 0.133746 -1.47678e-18)
(0.808247 0.117844 0)
(0.746072 0.102468 -1.1806e-18)
(0.683652 0.0879715 2.95279e-19)
(0.62286 0.0743837 -1.23523e-18)
(0.565769 0.0621098 -9.5132e-19)
(0.513206 0.0513523 0)
(0.465523 0.0420968 0)
(0.422901 0.0342214 -6.83971e-19)
(0.385295 0.0276223 0)
(0.352572 0.0221641 -5.43081e-19)
(0.324531 0.0176656 0)
(0.300744 0.0138444 0)
(0.280999 0.0104363 -9.57444e-20)
(0.265155 0.00748565 0)
(0.252853 0.00500999 0)
(0.243743 0.0029527 0)
(0.23756 0.00124469 5.06615e-20)
(0.234028 -0.000189925 2.05376e-19)
(0.233168 -0.00135845 1.2937e-19)
(0.234776 -0.00267526 0)
(0.238952 -0.00417103 0)
(0.245727 -0.00575576 -2.59797e-20)
(0.254803 -0.007477 -1.30013e-19)
(0.266111 -0.00944838 5.16374e-20)
(0.279644 -0.011723 0)
(0.295299 -0.0143169 0)
(0.31295 -0.017237 -2.03802e-19)
(0.332486 -0.0204808 1.00441e-19)
(0.353815 -0.0240453 -4.01396e-19)
(0.376842 -0.0279441 3.97989e-19)
(0.401443 -0.0322051 9.75752e-20)
(0.427461 -0.03685 0)
(0.454712 -0.0417993 3.87647e-19)
(0.483052 -0.0469763 0)
(0.512354 -0.0522671 0)
(0.542542 -0.0575448 0)
(0.573618 -0.0627476 0)
(0.605644 -0.0679279 0)
(0.63868 -0.073311 1.7789e-19)
(0.672687 -0.0793081 0)
(0.707425 -0.0864466 6.67175e-19)
(0.742384 -0.0952271 -1.51742e-19)
(0.776779 -0.105942 0)
(0.809668 -0.118499 5.77893e-19)
(0.840123 -0.13229 1.27327e-19)
(0.867419 -0.146404 5.66128e-19)
(0.891101 -0.15985 -1.32375e-19)
(0.910986 -0.171755 0)
(0.927121 -0.181487 -6.64026e-19)
(0.939715 -0.188636 0)
(0.949107 -0.192956 0)
(0.955779 -0.194345 -8.57222e-19)
(0.960374 -0.192862 0)
(0.963659 -0.188722 0)
(0.966462 -0.182273 -1.06764e-18)
(0.969612 -0.173965 -2.96552e-19)
(0.973888 -0.164311 0)
(0.979968 -0.153861 0)
(0.98844 -0.143173 0)
(0.99968 -0.132806 3.01632e-19)
(1.01417 -0.123302 -1.03131e-18)
(1.03136 -0.115231 -2.40184e-19)
(1.05331 -0.109064 -1.88545e-19)
(1.07189 -0.105511 -1.17773e-19)
(1.11033 -0.10471 -2.4073e-19)
(0.974501 0.219011 4.35936e-18)
(0.973757 0.208037 -4.18586e-18)
(0.971714 0.200427 0)
(0.969159 0.196213 -2.53955e-18)
(0.967054 0.192941 0)
(0.966167 0.189317 -2.23926e-18)
(0.967422 0.185825 0)
(0.971674 0.183017 2.98191e-18)
(0.978984 0.180741 -3.70244e-18)
(0.988292 0.178498 1.69057e-18)
(0.997703 0.17579 1.58046e-18)
(1.00499 0.17217 0)
(1.00813 0.167284 -4.27464e-18)
(1.00546 0.160715 -2.72254e-18)
(0.995608 0.152119 3.82662e-18)
(0.97781 0.141799 0)
(0.953059 0.130624 1.17213e-18)
(0.923767 0.119339 0)
(0.891712 0.10813 1.16867e-18)
(0.858181 0.0969868 1.1685e-18)
(0.824215 0.086116 0)
(0.790804 0.0757932 0)
(0.758827 0.066221 -6.39988e-19)
(0.728956 0.0575043 0)
(0.701636 0.0496232 6.21567e-19)
(0.677096 0.0424912 0)
(0.655458 0.0360144 0)
(0.636748 0.0301087 0)
(0.620992 0.0246877 0)
(0.608123 0.0196733 0)
(0.59806 0.0149926 0)
(0.59074 0.0105773 0)
(0.586095 0.00635416 1.77353e-19)
(0.584012 0.00225365 -8.60739e-20)
(0.584308 -0.00187164 4.40548e-20)
(0.587066 -0.00607646 0)
(0.59221 -0.010375 0)
(0.599524 -0.0147685 8.61473e-20)
(0.608846 -0.0192766 -3.5156e-19)
(0.620035 -0.0239347 3.50993e-19)
(0.632916 -0.0287634 0)
(0.647301 -0.0337633 8.70644e-19)
(0.663003 -0.0389242 -6.99173e-19)
(0.679843 -0.0442355 -3.58319e-19)
(0.697644 -0.0496911 -3.4006e-19)
(0.716222 -0.0552864 0)
(0.735385 -0.0610035 0)
(0.754941 -0.0667933 -1.04096e-18)
(0.774723 -0.0725972 0)
(0.794595 -0.0783496 0)
(0.81447 -0.0839938 0)
(0.834312 -0.0895225 7.05865e-19)
(0.854126 -0.0950178 1.4072e-18)
(0.873903 -0.100672 0)
(0.893566 -0.106777 0)
(0.912901 -0.113661 -6.45877e-19)
(0.931522 -0.121596 0)
(0.948886 -0.130678 1.28824e-18)
(0.964355 -0.140746 6.8451e-19)
(0.977324 -0.151368 0)
(0.987345 -0.161928 6.98801e-19)
(0.994227 -0.171753 1.33456e-18)
(0.99805 -0.180222 1.40756e-18)
(0.999135 -0.18686 7.1608e-19)
(0.997963 -0.191369 -1.62071e-18)
(0.995122 -0.193608 1.75264e-18)
(0.991267 -0.193568 2.84389e-18)
(0.987106 -0.191356 0)
(0.983355 -0.187182 0)
(0.980698 -0.181344 1.19974e-18)
(0.979746 -0.174199 0)
(0.981019 -0.166146 2.50666e-18)
(0.984928 -0.157605 2.5385e-18)
(0.991802 -0.149008 0)
(1.0018 -0.140789 2.40646e-18)
(1.01521 -0.133369 -1.04292e-18)
(1.0314 -0.12718 0)
(1.05227 -0.122563 0)
(1.06995 -0.119952 0)
(1.10688 -0.119565 -1.93237e-19)
(0.974733 0.218938 -3.35809e-18)
(0.975458 0.208202 3.21465e-18)
(0.976057 0.20106 -6.24313e-18)
(0.975937 0.197369 2.87224e-18)
(0.974876 0.194463 0)
(0.973202 0.19079 2.53253e-18)
(0.971489 0.186589 -4.84784e-18)
(0.970476 0.182346 -4.49469e-18)
(0.970999 0.178139 -7.92172e-20)
(0.973713 0.173961 0)
(0.978819 0.169882 0)
(0.985983 0.165872 3.5997e-18)
(0.994388 0.1617 3.29456e-18)
(1.00287 0.156954 -3.28018e-18)
(1.00998 0.151237 -8.90493e-18)
(1.0143 0.144455 0)
(1.01492 0.136907 0)
(1.01188 0.128895 0)
(1.00567 0.120409 0)
(0.996735 0.111434 0)
(0.985602 0.102176 0)
(0.972891 0.0929125 0)
(0.959288 0.0838522 1.24147e-18)
(0.945422 0.0751085 -2.58935e-18)
(0.931816 0.0667144 0)
(0.918874 0.0586702 0)
(0.906913 0.0509704 0)
(0.896171 0.0435878 0)
(0.886813 0.0364649 0)
(0.878935 0.0295626 -6.63299e-19)
(0.872603 0.0228573 0)
(0.867861 0.0163214 0)
(0.86472 0.00991602 1.25374e-20)
(0.863135 0.00358136 0)
(0.863022 -0.00259203 -4.10915e-20)
(0.864331 -0.00866223 0)
(0.866969 -0.0147225 1.70752e-19)
(0.870795 -0.0208005 0)
(0.875678 -0.0269001 6.71771e-19)
(0.881496 -0.0330279 -3.30107e-19)
(0.888118 -0.0391818 -6.8826e-19)
(0.895401 -0.0453462 -6.64572e-19)
(0.903206 -0.0515001 6.67807e-19)
(0.911401 -0.0576253 6.71739e-19)
(0.919856 -0.0637086 1.40614e-18)
(0.928445 -0.0697391 1.41673e-18)
(0.937043 -0.0757004 0)
(0.945536 -0.0815636 -7.47273e-19)
(0.953835 -0.0872922 0)
(0.961881 -0.0928516 0)
(0.969655 -0.0982238 -1.48496e-18)
(0.977173 -0.103432 -7.24515e-19)
(0.984469 -0.108562 4.85151e-20)
(0.991557 -0.113773 0)
(0.998393 -0.119278 0)
(1.00483 -0.125305 0)
(1.01062 -0.132026 1.48808e-18)
(1.0154 -0.139491 -1.39355e-18)
(1.01878 -0.147578 -1.38418e-18)
(1.02042 -0.155982 0)
(1.02013 -0.164261 -1.42621e-18)
(1.01791 -0.171918 9.44766e-20)
(1.014 -0.178496 -1.57793e-18)
(1.00878 -0.183647 1.76013e-18)
(1.00274 -0.187155 -4.64832e-20)
(0.99643 -0.188923 -1.98596e-18)
(0.990397 -0.18895 -2.15092e-18)
(0.985171 -0.187314 0)
(0.981241 -0.184162 0)
(0.979039 -0.179705 0)
(0.978925 -0.174205 0)
(0.98119 -0.167967 -2.84475e-18)
(0.986055 -0.161327 -2.87905e-18)
(0.993709 -0.154641 0)
(1.00423 -0.14828 -2.72708e-18)
(1.01785 -0.142598 4.91489e-18)
(1.03397 -0.137947 0)
(1.05446 -0.134563 0)
(1.07177 -0.132758 0)
(1.1077 -0.13258 9.13993e-19)
(0.975035 0.218503 8.34816e-18)
(0.977128 0.207477 0)
(0.979623 0.20081 1.42894e-17)
(0.980943 0.197722 0)
(0.980748 0.195181 6.2199e-18)
(0.979839 0.191824 0)
(0.978658 0.18791 5.47834e-18)
(0.977185 0.183668 0)
(0.975609 0.179001 -5.04125e-18)
(0.974447 0.173907 0)
(0.974282 0.168561 8.8888e-18)
(0.975593 0.163124 -4.11468e-18)
(0.978681 0.157633 0)
(0.983564 0.151989 7.31336e-18)
(0.989898 0.146041 -1.87142e-19)
(0.997026 0.139707 -6.68702e-18)
(1.00409 0.133126 6.4811e-18)
(1.01039 0.126385 0)
(1.01557 0.119345 0)
(1.01938 0.111909 6.09178e-18)
(1.02168 0.104147 0)
(1.02253 0.0961984 -2.96387e-18)
(1.02212 0.0881791 0)
(1.02074 0.0801636 2.80752e-18)
(1.01866 0.0721958 0)
(1.01613 0.0643042 2.89965e-18)
(1.01339 0.0565065 0)
(1.01062 0.0488034 0)
(1.00798 0.0411869 1.44924e-18)
(1.00559 0.0336605 6.96716e-19)
(1.00353 0.026234 0)
(1.00188 0.0189093 0)
(1.00068 0.0116829 -1.08904e-18)
(0.999955 0.00454256 0)
(0.999657 -0.0024244 0)
(0.999765 -0.00928172 0)
(1.00025 -0.0160981 -1.78028e-19)
(1.00106 -0.0228829 0)
(1.00213 -0.029619 -1.10476e-18)
(1.00339 -0.0362915 -7.50101e-19)
(1.00478 -0.0428863 7.24104e-19)
(1.00625 -0.0493856 0)
(1.00773 -0.0557704 0)
(1.00918 -0.0620254 1.54619e-18)
(1.01054 -0.0681403 -1.5027e-18)
(1.01179 -0.0741079 -1.52089e-18)
(1.01288 -0.0799192 0)
(1.0138 -0.0855604 -5.71259e-20)
(1.01455 -0.0910156 1.64118e-18)
(1.01513 -0.0962755 0)
(1.0156 -0.101349 1.63181e-18)
(1.01602 -0.106278 1.7051e-18)
(1.01644 -0.111148 -1.66891e-18)
(1.01691 -0.116094 0)
(1.01741 -0.121279 0)
(1.01785 -0.126868 0)
(1.01807 -0.132981 -1.67504e-18)
(1.01783 -0.139644 0)
(1.01689 -0.146761 0)
(1.01506 -0.154102 0)
(1.01223 -0.161341 3.65624e-18)
(1.00847 -0.16811 -1.80309e-18)
(1.00398 -0.174066 0)
(0.999054 -0.178932 -2.00749e-18)
(0.994061 -0.182517 -2.2299e-18)
(0.989385 -0.184711 4.63209e-18)
(0.985393 -0.185477 -4.91023e-18)
(0.982424 -0.18484 -5.19393e-18)
(0.980776 -0.182886 0)
(0.980708 -0.179766 -5.71874e-18)
(0.98244 -0.175685 0)
(0.986161 -0.1709 0)
(0.992034 -0.165711 0)
(1.00023 -0.160449 6.00493e-18)
(1.01085 -0.155457 -5.74861e-18)
(1.02419 -0.151059 -8.01181e-18)
(1.03973 -0.147553 0)
(1.05935 -0.1451 3.61135e-18)
(1.07593 -0.143905 0)
(1.11031 -0.143794 -1.50497e-18)
(0.975434 0.21769 -9.46937e-18)
(0.979143 0.206091 -9.21746e-18)
(0.983424 0.200246 -1.64573e-17)
(0.985581 0.197998 0)
(0.985487 0.195681 -1.41425e-17)
(0.984788 0.192417 -6.73719e-18)
(0.984203 0.18873 0)
(0.983457 0.184725 1.20071e-17)
(0.982359 0.180201 1.12086e-17)
(0.981041 0.175104 0)
(0.979713 0.169526 -1.00527e-17)
(0.978617 0.163564 0)
(0.978068 0.15728 0)
(0.978399 0.1507 8.71563e-18)
(0.979831 0.143826 8.07789e-18)
(0.982426 0.136693 -1.82412e-19)
(0.986037 0.129511 1.84435e-19)
(0.990393 0.122436 0)
(0.995202 0.115368 0)
(1.00012 0.108188 -6.98029e-18)
(1.00481 0.100874 -7.07141e-18)
(1.00906 0.0934639 1.03645e-17)
(1.01275 0.0860021 3.45461e-18)
(1.01588 0.0785183 3.42645e-18)
(1.01847 0.0710299 0)
(1.02057 0.063547 -3.27552e-18)
(1.02223 0.0560754 0)
(1.0235 0.0486175 0)
(1.02444 0.0411759 -3.31009e-18)
(1.02508 0.0337597 0)
(1.02549 0.0263826 0)
(1.02568 0.0190566 0)
(1.02568 0.0117931 8.21443e-19)
(1.02554 0.00461066 -4.28259e-19)
(1.02531 -0.00246413 2.13929e-19)
(1.02497 -0.00944558 0)
(1.02454 -0.0163552 0)
(1.02403 -0.0231929 0)
(1.02342 -0.0299438 8.33639e-19)
(1.0227 -0.0365933 8.38507e-19)
(1.02186 -0.0431296 -1.75023e-18)
(1.02089 -0.0495398 0)
(1.0198 -0.0558106 0)
(1.01859 -0.0619316 -3.53752e-18)
(1.01728 -0.067897 -1.81897e-18)
(1.01589 -0.0737039 0)
(1.01444 -0.0793501 0)
(1.01295 -0.0848324 1.83302e-18)
(1.01146 -0.0901488 5.58246e-20)
(1.01002 -0.0953047 0)
(1.00869 -0.100321 0)
(1.00752 -0.105244 -1.93938e-18)
(1.00659 -0.11015 0)
(1.00591 -0.115146 0)
(1.00549 -0.120359 0)
(1.00524 -0.125911 0)
(1.00504 -0.131886 0)
(1.00472 -0.138302 -4.1545e-18)
(1.00409 -0.145079 0)
(1.00302 -0.152045 0)
(1.00142 -0.158947 1.66583e-19)
(0.999322 -0.165494 0)
(0.99685 -0.171397 0)
(0.994199 -0.176408 0)
(0.99161 -0.180332 1.0006e-17)
(0.989332 -0.183043 -5.24751e-18)
(0.9876 -0.18447 5.55491e-18)
(0.986633 -0.184607 1.52987e-20)
(0.986629 -0.183507 0)
(0.987771 -0.18129 6.45162e-18)
(0.990235 -0.178138 -6.57091e-18)
(0.9942 -0.174292 0)
(0.999854 -0.170046 0)
(1.00742 -0.165724 -1.4428e-19)
(1.01707 -0.161664 6.49904e-18)
(1.02919 -0.158178 5.98703e-18)
(1.04339 -0.155517 0)
(1.06158 -0.153797 -4.099e-18)
(1.07703 -0.153048 0)
(1.10958 -0.153009 1.1343e-18)
(0.975986 0.216474 0)
(0.981692 0.204215 2.12331e-17)
(0.98777 0.199648 1.88391e-17)
(0.990442 0.198413 0)
(0.990124 0.196239 8.0371e-18)
(0.989273 0.192977 -7.77721e-18)
(0.988775 0.189394 0)
(0.988285 0.185468 -1.3577e-17)
(0.987617 0.181005 0)
(0.98686 0.176003 0)
(0.98605 0.170521 0)
(0.985159 0.164586 0)
(0.984223 0.158209 0)
(0.983364 0.151393 1.82867e-19)
(0.982725 0.144147 -9.53548e-18)
(0.982452 0.136522 -1.8226e-19)
(0.982686 0.128775 1.83671e-19)
(0.983526 0.121141 0)
(0.984969 0.113602 0)
(0.986895 0.106082 0)
(0.98912 0.0985606 -2.02569e-19)
(0.991475 0.0910608 2.06474e-19)
(0.99385 0.0836068 -3.956e-18)
(0.996169 0.0762085 -3.92494e-18)
(0.998378 0.0688626 0)
(1.00043 0.0615607 -3.98968e-18)
(1.00229 0.054294 3.97736e-18)
(1.00393 0.0470561 0)
(1.00534 0.0398426 1.92764e-18)
(1.00649 0.0326556 1.98587e-18)
(1.00739 0.0255036 0)
(1.00802 0.0183987 0)
(1.00841 0.0113506 1.00346e-18)
(1.00858 0.00439567 -1.48346e-20)
(1.00858 -0.00250867 -4.95302e-19)
(1.00841 -0.00933739 0)
(1.0081 -0.0160849 0)
(1.00766 -0.0227546 -1.01151e-18)
(1.00709 -0.0293408 0)
(1.0064 -0.0358333 -1.0214e-18)
(1.00559 -0.0422219 -5.9223e-20)
(1.00469 -0.0484968 0)
(1.00371 -0.0546482 2.09063e-18)
(1.00268 -0.0606691 4.16411e-18)
(1.00161 -0.0665561 2.07605e-18)
(1.00056 -0.0723083 0)
(0.999527 -0.0779265 -4.36889e-18)
(0.998561 -0.0834118 0)
(0.997694 -0.0887675 -2.18537e-18)
(0.996969 -0.0940037 0)
(0.996433 -0.0991431 0)
(0.996132 -0.104227 0)
(0.996104 -0.109322 0)
(0.996362 -0.114512 0)
(0.996885 -0.119899 -4.77392e-18)
(0.997609 -0.125575 4.80333e-18)
(0.998426 -0.131605 0)
(0.999195 -0.137997 4.7145e-18)
(0.999769 -0.144686 -4.90722e-18)
(1.00002 -0.15153 0)
(0.999873 -0.158317 -4.90705e-18)
(0.999319 -0.164798 0)
(0.998418 -0.170715 0)
(0.997283 -0.175832 0)
(0.996059 -0.179957 -5.69422e-18)
(0.994898 -0.182948 6.03864e-18)
(0.993956 -0.18472 -6.31198e-18)
(0.993383 -0.185246 1.31899e-17)
(0.993339 -0.184566 -6.8677e-18)
(0.993996 -0.18279 0)
(0.995551 -0.180099 7.42015e-18)
(0.998237 -0.176742 -7.47276e-18)
(1.00231 -0.173019 0)
(1.0081 -0.169268 -1.15397e-19)
(1.01587 -0.165826 -7.12448e-18)
(1.02609 -0.163008 0)
(1.0385 -0.161011 0)
(1.05508 -0.159957 -4.57561e-18)
(1.06933 -0.15956 0)
(1.10049 -0.159777 -1.28652e-18)
(0.976761 0.214804 0)
(0.984936 0.20201 -1.22329e-17)
(0.992771 0.199205 -1.07134e-17)
(0.99565 0.198993 0)
(0.994984 0.196874 1.84434e-17)
(0.993959 0.193639 1.74162e-17)
(0.993393 0.190144 0)
(0.992833 0.18621 1.56789e-17)
(0.992168 0.181691 -1.48885e-17)
(0.991568 0.176669 0)
(0.991086 0.17121 0)
(0.99065 0.165321 0)
(0.9902 0.158996 0)
(0.989716 0.152216 -1.13305e-17)
(0.989187 0.144971 -1.11344e-17)
(0.988621 0.137283 1.02347e-17)
(0.988092 0.129388 -3.02967e-17)
(0.987723 0.121536 0)
(0.987593 0.113747 0)
(0.987709 0.105981 9.70961e-18)
(0.988019 0.0982414 1.89908e-17)
(0.988471 0.0905581 -9.29883e-18)
(0.989033 0.0829599 0)
(0.989686 0.0754575 0)
(0.990407 0.068047 -4.66343e-18)
(0.991167 0.0607181 9.18773e-18)
(0.991938 0.0534599 -9.16544e-18)
(0.992688 0.0462627 0)
(0.993393 0.0391181 0)
(0.994027 0.0320232 -2.26311e-18)
(0.994572 0.0249813 0)
(0.995017 0.0179982 2.33346e-18)
(0.995358 0.0110849 -1.14354e-18)
(0.995616 0.00423584 -1.4482e-20)
(0.995798 -0.00256658 -7.27191e-21)
(0.995902 -0.0092987 0)
(0.995937 -0.015953 0)
(0.995911 -0.0225345 -2.91133e-20)
(0.995826 -0.0290414 1.18364e-18)
(0.995683 -0.0354648 3.54016e-18)
(0.99549 -0.0417956 4.73057e-18)
(0.995258 -0.0480258 2.41172e-18)
(0.995001 -0.0541484 -2.37387e-18)
(0.994737 -0.0601584 -2.39639e-18)
(0.994487 -0.0660534 2.47819e-18)
(0.994271 -0.0718335 0)
(0.994113 -0.0775002 4.95318e-18)
(0.994038 -0.083056 -5.12466e-18)
(0.994072 -0.0885062 0)
(0.994248 -0.093862 0)
(0.994598 -0.0991453 0)
(0.995152 -0.104393 0)
(0.995931 -0.109661 0)
(0.996937 -0.115021 0)
(0.99814 -0.120553 5.39071e-18)
(0.999478 -0.126332 -1.09719e-17)
(1.00085 -0.132405 -5.58797e-18)
(1.00214 -0.138775 5.6305e-18)
(1.0032 -0.145382 5.53314e-18)
(1.00391 -0.152098 -5.75979e-18)
(1.00418 -0.158737 5.86162e-18)
(1.00396 -0.165071 0)
(1.00324 -0.17086 6.16595e-18)
(1.00206 -0.175876 -6.37122e-18)
(1.0005 -0.179923 0)
(0.998639 -0.182855 -1.3686e-17)
(0.996601 -0.184578 7.12629e-18)
(0.994526 -0.185068 -1.49101e-17)
(0.992598 -0.184371 7.77618e-18)
(0.991049 -0.182611 0)
(0.990167 -0.179988 8.26266e-18)
(0.990289 -0.176775 8.51445e-18)
(0.991793 -0.173291 -8.48787e-18)
(0.995104 -0.169888 -8.48411e-18)
(1.00058 -0.166904 8.1687e-18)
(1.0088 -0.164659 0)
(1.01954 -0.163286 0)
(1.03491 -0.16296 5.26588e-18)
(1.04835 -0.162927 0)
(1.07937 -0.163761 1.48432e-18)
(0.977833 0.212617 1.62193e-17)
(0.988995 0.19965 0)
(0.998472 0.19906 -2.41183e-17)
(1.00125 0.199735 2.1851e-17)
(1.00018 0.197592 -2.08371e-17)
(0.999032 0.194437 1.99849e-17)
(0.998403 0.191037 0)
(0.997728 0.187063 1.60179e-19)
(0.996952 0.182461 1.68091e-17)
(0.996286 0.177373 0)
(0.995802 0.171865 0)
(0.995456 0.165938 0)
(0.995205 0.159594 2.77298e-17)
(0.995023 0.152819 0)
(0.994869 0.145599 2.471e-17)
(0.994694 0.137941 0)
(0.994487 0.130055 4.62175e-17)
(0.99429 0.122178 0)
(0.994143 0.114339 0)
(0.99405 0.106511 -2.21007e-17)
(0.993989 0.0987028 -1.08245e-17)
(0.993945 0.0909448 0)
(0.993924 0.0832673 0)
(0.993938 0.0756848 0)
(0.994 0.0681981 5.26568e-18)
(0.994112 0.0608015 -5.24874e-18)
(0.994269 0.0534874 -1.07965e-19)
(0.994463 0.0462477 0)
(0.994684 0.0390744 5.34535e-18)
(0.994919 0.0319636 0)
(0.995159 0.0249165 0)
(0.995396 0.0179356 -2.63754e-18)