/*--------------------------------*- C++ -*----------------------------------*\
| =========                 |                                                 |
| \\      /  F ield         | OpenFOAM: The Open Source CFD Toolbox           |
|  \\    /   O peration     | Version:  v1912                                 |
|   \\  /    A nd           | Website:  www.openfoam.com                      |
|    \\/     M anipulation  |                                                 |
\*---------------------------------------------------------------------------*/
FoamFile
{
    version     2.0;
    format      ascii;
    class       volScalarField;
    location    "800";
    object      k;
}
// * * * * * * * * * * * * * * * * * * * * * * * * * * * * * * * * * * * * * //

dimensions      [0 2 -2 0 0 0 0];


internalField   nonuniform List<scalar> 
10000
(
1e-15
1e-15
1e-15
1.0106e-15
1.1572e-15
1.28376e-15
1.84005e-15
2.15362e-15
3.29895e-15
3.99136e-15
6.42577e-15
8.03068e-15
1.3259e-14
1.68216e-14
2.88189e-14
3.74323e-14
6.47914e-14
8.71475e-14
9.61485e-13
1.61333e-07
1e-15
1e-15
1.03468e-15
1.08539e-15
1.49914e-15
1.70759e-15
2.68074e-15
3.25665e-15
5.14195e-15
6.21135e-15
1.02878e-14
1.32524e-14
2.09945e-14
2.43035e-14
4.14382e-14
5.87175e-14
9.60892e-14
1.36286e-13
3.26731e-13
1.62374e-08
1e-15
1e-15
1e-15
1e-15
1e-15
1e-15
1e-15
1e-15
1e-15
1e-15
1e-15
1.09013e-15
1.30724e-15
2.08099e-15
3.95409e-15
5.81365e-15
1.28751e-14
3.49606e-14
8.25891e-14
2.2127e-07
1e-15
1e-15
1e-15
1e-15
1e-15
1e-15
1e-15
1e-15
1e-15
1e-15
1e-15
1e-15
1e-15
1e-15
1e-15
1e-15
1e-15
1e-15
1e-15
1e-15
1e-15
1e-15
1e-15
1e-15
1e-15
1e-15
1e-15
1e-15
1e-15
1e-15
1e-15
1e-15
1e-15
1e-15
1e-15
1e-15
1e-15
1e-15
1e-15
1e-15
1e-15
1e-15
1e-15
1e-15
1e-15
1e-15
1e-15
1.00593e-15
1e-15
1e-15
1e-15
1e-15
1e-15
1e-15
1e-15
1e-15
1e-15
1e-15
1e-15
1e-15
1e-15
1e-15
1e-15
1e-15
1e-15
1e-15
1e-15
1.00724e-15
1e-15
1e-15
1e-15
1e-15
1e-15
1e-15
1.01023e-15
1e-15
1e-15
1e-15
1e-15
1e-15
1e-15
1e-15
1e-15
1e-15
1e-15
1e-15
1e-15
1e-15
1e-15
1e-15
1e-15
1e-15
1e-15
1e-15
1e-15
1.012e-15
1e-15
1e-15
1e-15
1e-15
1e-15
1e-15
1e-15
1e-15
1e-15
1e-15
1e-15
1e-15
1e-15
1e-15
1.01266e-15
1e-15
1e-15
1e-15
1e-15
1e-15
1.00479e-15
1e-15
1e-15
1e-15
1e-15
1e-15
1e-15
1e-15
1e-15
1e-15
1e-15
1e-15
1e-15
1e-15
1.01382e-15
1e-15
1e-15
1e-15
1e-15
1e-15
1e-15
1e-15
1e-15
1e-15
1e-15
1e-15
1e-15
1e-15
1e-15
1e-15
1e-15
1e-15
1e-15
1e-15
1e-15
1.01429e-15
1e-15
1e-15
1e-15
1e-15
1e-15
1e-15
1e-15
1e-15
1e-15
1e-15
1e-15
1e-15
1e-15
1e-15
1e-15
1e-15
1e-15
1e-15
1e-15
1e-15
1.01425e-15
1e-15
1e-15
1e-15
1e-15
1e-15
1e-15
1e-15
1e-15
1e-15
1e-15
1e-15
1e-15
1e-15
1.00501e-15
1e-15
1e-15
1e-15
1e-15
1e-15
1e-15
1.01167e-15
1e-15
1e-15
1e-15
1e-15
1e-15
1e-15
1e-15
1e-15
1e-15
1e-15
1e-15
1e-15
1e-15
1e-15
1e-15
1e-15
1e-15
1e-15
1.01158e-15
1e-15
1e-15
1e-15
1e-15
1e-15
1e-15
1e-15
1e-15
1e-15
1e-15
1e-15
1e-15
1e-15
1e-15
1e-15
1e-15
1e-15
1e-15
1.01509e-15
1e-15
1e-15
1e-15
1e-15
1e-15
1.00639e-15
1e-15
1e-15
1e-15
1e-15
1e-15
1e-15
1e-15
1e-15
1e-15
1e-15
1e-15
1e-15
1e-15
1.00292e-15
1e-15
1e-15
1e-15
1e-15
1e-15
1e-15
1e-15
1e-15
1e-15
1e-15
1e-15
1e-15
1e-15
1e-15
1e-15
1e-15
1e-15
1e-15
1.00098e-15
1e-15
1e-15
1e-15
1e-15
1e-15
1.00812e-15
1e-15
1e-15
1e-15
1e-15
1e-15
1e-15
1e-15
1e-15
1e-15
1e-15
1e-15
1e-15
1e-15
1e-15
1.01619e-15
1e-15
1e-15
1e-15
1e-15
1e-15
1.00795e-15
1e-15
1e-15
1e-15
1e-15
1e-15
1e-15
1e-15
1e-15
1e-15
1e-15
1e-15
1e-15
1e-15
1e-15
1.01565e-15
1e-15
1e-15
1e-15
1e-15
1e-15
1e-15
1e-15
1e-15
1e-15
1e-15
1e-15
1e-15
1e-15
1e-15
1e-15
1e-15
1e-15
1e-15
1e-15
1e-15
1e-15
1e-15
1e-15
1.01533e-15
1e-15
1e-15
1e-15
1e-15
1e-15
1e-15
1e-15
1e-15
1e-15
1.00859e-15
1e-15
1e-15
1e-15
1e-15
1e-15
1e-15
1e-15
1e-15
1.01514e-15
1e-15
1e-15
1e-15
1e-15
1e-15
1e-15
1e-15
1e-15
1e-15
1e-15
1e-15
1e-15
1.01509e-15
1e-15
1e-15
1e-15
1e-15
1e-15
1e-15
1e-15
1.01546e-15
1e-15
1e-15
1e-15
1e-15
1e-15
1e-15
1e-15
1e-15
1e-15
1e-15
1e-15
1e-15
1e-15
1e-15
1e-15
1e-15
1e-15
1e-15
1e-15
1e-15
1.01561e-15
1e-15
1e-15
1e-15
1e-15
1e-15
1e-15
1e-15
1e-15
1e-15
1e-15
1e-15
1e-15
1.00228e-15
1e-15
1e-15
1e-15
1e-15
1e-15
1e-15
1e-15
1.0129e-15
1e-15
1e-15
1e-15
1e-15
1e-15
1e-15
1.00037e-15
1e-15
1e-15
1e-15
1e-15
1e-15
1.00475e-15
1e-15
1e-15
1e-15
1e-15
1e-15
1e-15
1e-15
1e-15
1e-15
1e-15
1e-15
1e-15
1e-15
1e-15
1.00943e-15
1e-15
1e-15
1e-15
1e-15
1e-15
1e-15
1.01435e-15
1e-15
1e-15
1e-15
1e-15
1e-15
1e-15
1e-15
1e-15
1e-15
1e-15
1e-15
1e-15
1e-15
1.01395e-15
1e-15
1e-15
1e-15
1e-15
1.01703e-15
1e-15
1e-15
1e-15
1e-15
1e-15
1e-15
1.01299e-15
1e-15
1e-15
1e-15
1e-15
1e-15
1e-15
1.0096e-15
1e-15
1e-15
1e-15
1e-15
1e-15
1e-15
1.01434e-15
1e-15
1e-15
1e-15
1e-15
1e-15
1e-15
1e-15
1e-15
1e-15
1e-15
1e-15
1.00068e-15
1e-15
1e-15
1e-15
1e-15
1e-15
1.01764e-15
1e-15
1e-15
1e-15
1e-15
1e-15
1.00871e-15
1e-15
1e-15
1e-15
1e-15
1e-15
1e-15
1e-15
1e-15
1e-15
1e-15
1e-15
1e-15
1.00292e-15
1e-15
1e-15
1e-15
1e-15
1e-15
1.00895e-15
1e-15
1e-15
1e-15
1e-15
1e-15
1e-15
1e-15
1e-15
1.00099e-15
1e-15
1e-15
1e-15
1.01192e-15
1e-15
1e-15
1e-15
1e-15
1e-15
1.00881e-15
1e-15
1e-15
1e-15
1e-15
1e-15
1e-15
1e-15
1e-15
1e-15
1e-15
1e-15
1e-15
1e-15
1e-15
1.00309e-15
1e-15
1e-15
1e-15
1e-15
1e-15
1.00882e-15
1e-15
1e-15
1e-15
1e-15
1e-15
1e-15
1e-15
1e-15
1e-15
1e-15
1e-15
1e-15
1e-15
1e-15
1.01763e-15
1e-15
1e-15
1e-15
1e-15
1e-15
1e-15
1e-15
1e-15
1e-15
1e-15
1e-15
1e-15
1e-15
1e-15
1e-15
1e-15
1e-15
1e-15
1.00315e-15
1e-15
1e-15
1e-15
1e-15
1e-15
1.00866e-15
1e-15
1e-15
1e-15
1e-15
1e-15
1e-15
1e-15
1e-15
1.00134e-15
1e-15
1e-15
1e-15
1e-15
1e-15
1.00535e-15
1e-15
1e-15
1e-15
1e-15
1e-15
1e-15
1e-15
1e-15
1e-15
1e-15
1e-15
1e-15
1e-15
1e-15
1e-15
1e-15
1e-15
1.01742e-15
1e-15
1e-15
1e-15
1e-15
1e-15
1e-15
1e-15
1e-15
1e-15
1e-15
1e-15
1e-15
1e-15
1e-15
1e-15
1e-15
1e-15
1e-15
1.01675e-15
1e-15
1e-15
1e-15
1e-15
1e-15
1.00824e-15
1e-15
1e-15
1e-15
1e-15
1e-15
1e-15
1e-15
1e-15
1e-15
1e-15
1e-15
1e-15
1e-15
1.0168e-15
1e-15
1e-15
1e-15
1e-15
1e-15
1.00845e-15
1e-15
1e-15
1e-15
1e-15
1e-15
1e-15
1e-15
1e-15
1e-15
1e-15
1e-15
1e-15
1e-15
1.01687e-15
1e-15
1e-15
1e-15
1e-15
1e-15
1.00855e-15
1e-15
1e-15
1e-15
1e-15
1e-15
1e-15
1e-15
1e-15
1e-15
1e-15
1e-15
1e-15
1e-15
1e-15
1.01766e-15
1e-15
1e-15
1e-15
1e-15
1e-15
1e-15
1e-15
1e-15
1e-15
1e-15
1e-15
1e-15
1e-15
1e-15
1e-15
1e-15
1e-15
1e-15
1e-15
1e-15
1.00324e-15
1e-15
1e-15
1e-15
1e-15
1e-15
1.00911e-15
1e-15
1e-15
1e-15
1e-15
1e-15
1e-15
1e-15
1e-15
1e-15
1e-15
1e-15
1e-15
1e-15
1e-15
1e-15
1e-15
1e-15
1e-15
1.00882e-15
1e-15
1e-15
1e-15
1e-15
1e-15
1e-15
1e-15
1e-15
1e-15
1e-15
1e-15
1e-15
1.01679e-15
1e-15
1e-15
1e-15
1e-15
1e-15
1.00822e-15
1e-15
1e-15
1e-15
1e-15
1e-15
1e-15
1e-15
1e-15
1e-15
1e-15
1e-15
1e-15
1e-15
1e-15
1e-15
1e-15
1e-15
1e-15
1.01763e-15
1e-15
1e-15
1e-15
1e-15
1e-15
1.00909e-15
1e-15
1e-15
1e-15
1e-15
1e-15
1e-15
1e-15
1e-15
1e-15
1e-15
1e-15
1e-15
1e-15
1e-15
1.005e-15
1e-15
1e-15
1e-15
1e-15
1e-15
1e-15
1e-15
1e-15
1e-15
1e-15
1.00167e-15
1e-15
1e-15
1e-15
1e-15
1e-15
1e-15
1e-15
1e-15
1e-15
1.00587e-15
1e-15
1e-15
1e-15
1e-15
1e-15
1e-15
1e-15
1e-15
1e-15
1e-15
1e-15
1e-15
1e-15
1e-15
1.00334e-15
1e-15
1e-15
1e-15
1e-15
1e-15
1.00931e-15
1e-15
1e-15
1e-15
1e-15
1e-15
1e-15
1e-15
1e-15
1.00171e-15
1e-15
1e-15
1e-15
1e-15
1e-15
1.00562e-15
1e-15
1e-15
1e-15
1e-15
1e-15
1.00954e-15
1e-15
1e-15
1e-15
1e-15
1e-15
1e-15
1e-15
1e-15
1e-15
1e-15
1e-15
1e-15
1.00332e-15
1e-15
1e-15
1e-15
1e-15
1e-15
1.00925e-15
1e-15
1e-15
1e-15
1e-15
1e-15
1e-15
1e-15
1e-15
1.00171e-15
1e-15
1e-15
1e-15
1e-15
1e-15
1.00561e-15
1e-15
1e-15
1e-15
1e-15
1e-15
1.00952e-15
1e-15
1e-15
1e-15
1e-15
1e-15
1e-15
1e-15
1e-15
1e-15
1e-15
1e-15
1e-15
1.00342e-15
1e-15
1e-15
1e-15
1e-15
1e-15
1.00942e-15
1e-15
1e-15
1e-15
1e-15
1e-15
1e-15
1e-15
1e-15
1e-15
1e-15
1e-15
1e-15
1e-15
1.00341e-15
1e-15
1e-15
1e-15
1e-15
1e-15
1.0094e-15
1e-15
1e-15
1e-15
1e-15
1e-15
1e-15
1e-15
1e-15
1e-15
1e-15
1e-15
1e-15
1.01777e-15
1e-15
1e-15
1e-15
1e-15
1e-15
1.00884e-15
1e-15
1e-15
1e-15
1e-15
1e-15
1e-15
1e-15
1e-15
1e-15
1e-15
1e-15
1e-15
1e-15
1e-15
1.00337e-15
1e-15
1e-15
1e-15
1e-15
1e-15
1.00935e-15
1e-15
1e-15
1e-15
1e-15
1e-15
1e-15
1e-15
1e-15
1e-15
1e-15
1e-15
1e-15
1e-15
1e-15
1.01784e-15
1e-15
1e-15
1e-15
1e-15
1e-15
1.00908e-15
1e-15
1e-15
1e-15
1e-15
1e-15
1e-15
1e-15
1e-15
1e-15
1e-15
1e-15
1e-15
1.0034e-15
1e-15
1e-15
1e-15
1e-15
1e-15
1.00938e-15
1e-15
1e-15
1e-15
1e-15
1e-15
1e-15
1e-15
1e-15
1e-15
1e-15
1e-15
1.01687e-15
1e-15
1e-15
1e-15
1e-15
1e-15
1e-15
1e-15
1.01371e-15
1e-15
1e-15
1e-15
1e-15
1e-15
1e-15
1e-15
1e-15
1e-15
1e-15
1.01353e-15
1e-15
1e-15
1e-15
1e-15
1e-15
1e-15
1e-15
1e-15
1.01662e-15
1e-15
1e-15
1e-15
1e-15
1e-15
1e-15
1e-15
1e-15
1e-15
1.0105e-15
1e-15
1e-15
1e-15
1e-15
1e-15
1.00698e-15
1e-15
1e-15
1e-15
1.01534e-15
1e-15
1e-15
1e-15
1e-15
1e-15
1e-15
1e-15
1e-15
1e-15
1e-15
1e-15
1e-15
1e-15
1e-15
1.00518e-15
1e-15
1e-15
1e-15
1e-15
1e-15
1e-15
1e-15
1e-15
1e-15
1e-15
1e-15
1e-15
1e-15
1e-15
1e-15
1e-15
1e-15
1e-15
1.00337e-15
1e-15
1e-15
1e-15
1e-15
1e-15
1.00939e-15
1e-15
1e-15
1e-15
1e-15
1e-15
1e-15
1e-15
1e-15
1e-15
1e-15
1e-15
1e-15
1e-15
1e-15
1e-15
1e-15
1e-15
1e-15
1.00893e-15
1e-15
1e-15
1e-15
1e-15
1e-15
1e-15
1e-15
1e-15
1e-15
1e-15
1e-15
1e-15
1.00971e-15
1e-15
1e-15
1e-15
1e-15
1e-15
1.0088e-15
1e-15
1e-15
1e-15
1e-15
1e-15
1e-15
1e-15
1e-15
1e-15
1e-15
1e-15
1e-15
1e-15
1e-15
1.01741e-15
1e-15
1e-15
1e-15
1e-15
1e-15
1.00868e-15
1e-15
1e-15
1e-15
1e-15
1e-15
1e-15
1e-15
1e-15
1e-15
1e-15
1e-15
1e-15
1e-15
1e-15
1.00338e-15
1e-15
1e-15
1e-15
1e-15
1e-15
1.00932e-15
1e-15
1e-15
1e-15
1e-15
1e-15
1e-15
1e-15
1e-15
1e-15
1e-15
1e-15
1e-15
1e-15
1e-15
1.0052e-15
1e-15
1e-15
1e-15
1e-15
1e-15
1.00948e-15
1e-15
1e-15
1e-15
1e-15
1e-15
1e-15
1e-15
1e-15
1.01049e-15
1e-15
1e-15
1e-15
1e-15
1e-15
1.007e-15
1e-15
1e-15
1e-15
1e-15
1e-15
1e-15
1e-15
1e-15
1e-15
1e-15
1e-15
1e-15
1e-15
1e-15
1.01488e-15
1e-15
1e-15
1e-15
1e-15
1e-15
1.00785e-15
1e-15
1e-15
1e-15
1e-15
1e-15
1e-15
1e-15
1e-15
1e-15
1e-15
1e-15
1e-15
1e-15
1e-15
1.0097e-15
1e-15
1e-15
1e-15
1e-15
1e-15
1.00876e-15
1e-15
1e-15
1e-15
1e-15
1e-15
1e-15
1e-15
1e-15
1e-15
1e-15
1e-15
1e-15
1e-15
1e-15
1e-15
1e-15
1e-15
1e-15
1.01753e-15
1e-15
1e-15
1e-15
1e-15
1e-15
1e-15
1e-15
1e-15
1e-15
1e-15
1e-15
1e-15
1.01051e-15
1e-15
1e-15
1e-15
1e-15
1e-15
1.00697e-15
1e-15
1e-15
1e-15
1e-15
1e-15
1e-15
1e-15
1e-15
1e-15
1e-15
1e-15
1e-15
1e-15
1e-15
1e-15
1e-15
1e-15
1e-15
1.0178e-15
1e-15
1e-15
1e-15
1e-15
1e-15
1.00898e-15
1e-15
1e-15
1e-15
1e-15
1e-15
1e-15
1e-15
1e-15
1e-15
1e-15
1e-15
1e-15
1.01794e-15
1e-15
1e-15
1e-15
1e-15
1e-15
1.00888e-15
1e-15
1e-15
1e-15
1e-15
1e-15
1e-15
1e-15
1e-15
1.00176e-15
1e-15
1e-15
1e-15
1e-15
1e-15
1e-15
1e-15
1e-15
1e-15
1.00592e-15
1e-15
1e-15
1e-15
1e-15
1e-15
1e-15
1e-15
1e-15
1e-15
1e-15
1e-15
1e-15
1e-15
1.01773e-15
1e-15
1e-15
1e-15
1e-15
1e-15
1.00873e-15
1e-15
1e-15
1e-15
1e-15
1e-15
1e-15
1e-15
1e-15
1e-15
1e-15
1e-15
1e-15
1.01621e-15
1e-15
1e-15
1e-15
1e-15
1e-15
1.00826e-15
1e-15
1e-15
1e-15
1e-15
1e-15
1e-15
1e-15
1e-15
1e-15
1e-15
1e-15
1e-15
1e-15
1.01693e-15
1e-15
1e-15
1e-15
1e-15
1e-15
1.00837e-15
1e-15
1e-15
1e-15
1e-15
1e-15
1e-15
1e-15
1e-15
1e-15
1e-15
1e-15
1e-15
1e-15
1e-15
1.01772e-15
1e-15
1e-15
1e-15
1e-15
1e-15
1.00872e-15
1e-15
1e-15
1e-15
1e-15
1e-15
1e-15
1e-15
1e-15
1e-15
1e-15
1e-15
1e-15
1e-15
1e-15
1.01792e-15
1e-15
1e-15
1e-15
1e-15
1e-15
1.00891e-15
1e-15
1e-15
1e-15
1e-15
1e-15
1e-15
1e-15
1e-15
1e-15
1e-15
1.01488e-15
1e-15
1e-15
1.00348e-15
1e-15
1e-15
1e-15
1e-15
1e-15
1.00958e-15
1e-15
1e-15
1e-15
1e-15
1e-15
1e-15
1e-15
1e-15
1e-15
1.01052e-15
1e-15
1e-15
1e-15
1e-15
1e-15
1.007e-15
1e-15
1e-15
1e-15
1e-15
1e-15
1.00959e-15
1e-15
1e-15
1e-15
1e-15
1e-15
1e-15
1e-15
1e-15
1.01489e-15
1e-15
1e-15
1e-15
1e-15
1e-15
1e-15
1e-15
1e-15
1e-15
1.00687e-15
1e-15
1e-15
1e-15
1e-15
1e-15
1e-15
1e-15
1e-15
1.01052e-15
1e-15
1e-15
1e-15
1e-15
1e-15
1e-15
1e-15
1e-15
1e-15
1.01644e-15
1e-15
1e-15
1e-15
1e-15
1e-15
1e-15
1e-15
1e-15
1e-15
1e-15
1e-15
1e-15
1e-15
1e-15
1.01782e-15
1e-15
1e-15
1e-15
1e-15
1e-15
1.00904e-15
1e-15
1e-15
1e-15
1e-15
1e-15
1e-15
1e-15
1e-15
1.01051e-15
1e-15
1e-15
1e-15
1e-15
1e-15
1.007e-15
1e-15
1e-15
1e-15
1e-15
1e-15
1.0096e-15
1e-15
1e-15
1e-15
1e-15
1e-15
1e-15
1.00175e-15
1e-15
1e-15
1e-15
1e-15
1e-15
1.00563e-15
1e-15
1e-15
1e-15
1e-15
1e-15
1.00953e-15
1e-15
1e-15
1e-15
1e-15
1e-15
1e-15
1e-15
1e-15
1e-15
1e-15
1e-15
1e-15
1.00338e-15
1e-15
1e-15
1e-15
1e-15
1e-15
1.00931e-15
1e-15
1e-15
1e-15
1e-15
1e-15
1e-15
1e-15
1e-15
1e-15
1e-15
1e-15
1e-15
1.01772e-15
1e-15
1e-15
1e-15
1e-15
1e-15
1.00871e-15
1e-15
1e-15
1e-15
1e-15
1e-15
1e-15
1e-15
1e-15
1e-15
1e-15
1e-15
1e-15
1.01692e-15
1e-15
1e-15
1e-15
1e-15
1e-15
1.00833e-15
1e-15
1e-15
1e-15
1e-15
1e-15
1e-15
1e-15
1e-15
1e-15
1e-15
1e-15
1e-15
1e-15
1e-15
1e-15
1e-15
1e-15
1e-15
1e-15
1e-15
1.00894e-15
1e-15
1e-15
1e-15
1e-15
1e-15
1e-15
1e-15
1e-15
1e-15
1e-15
1e-15
1e-15
1e-15
1e-15
1e-15
1e-15
1e-15
1e-15
1e-15
1.00895e-15
1e-15
1e-15
1e-15
1e-15
1e-15
1e-15
1e-15
1e-15
1e-15
1e-15
1e-15
1e-15
1e-15
1e-15
1.00338e-15
1e-15
1e-15
1e-15
1e-15
1e-15
1.00932e-15
1e-15
1e-15
1e-15
1e-15
1e-15
1e-15
1e-15
1e-15
1.00175e-15
1e-15
1e-15
1e-15
1e-15
1e-15
1.00563e-15
1e-15
1e-15
1e-15
1e-15
1e-15
1.00953e-15
1e-15
1e-15
1e-15
1e-15
1e-15
1e-15
1e-15
1e-15
1.00793e-15
1e-15
1e-15
1e-15
1e-15
1e-15
1.00676e-15
1e-15
1e-15
1e-15
1e-15
1e-15
1.00958e-15
1e-15
1e-15
1e-15
1e-15
1e-15
1e-15
1e-15
1e-15
1e-15
1e-15
1e-15
1e-15
1e-15
1e-15
1.01719e-15
1e-15
1e-15
1e-15
1e-15
1e-15
1.00909e-15
1e-15
1e-15
1e-15
1e-15
1e-15
1e-15
1.01051e-15
1e-15
1e-15
1e-15
1e-15
1e-15
1.007e-15
1e-15
1e-15
1e-15
1e-15
1e-15
1.0096e-15
1e-15
1e-15
1e-15
1e-15
1e-15
1e-15
1e-15
1e-15
1.01488e-15
1e-15
1e-15
1e-15
1e-15
1e-15
1.00784e-15
1e-15
1e-15
1e-15
1e-15
1e-15
1e-15
1e-15
1e-15
1e-15
1e-15
1e-15
1e-15
1.01051e-15
1e-15
1e-15
1e-15
1e-15
1e-15
1.00699e-15
1e-15
1e-15
1e-15
1e-15
1e-15
1.0096e-15
1e-15
1e-15
1e-15
1e-15
1e-15
1e-15
1.00175e-15
1e-15
1e-15
1e-15
1e-15
1e-15
1.00563e-15
1e-15
1e-15
1e-15
1e-15
1e-15
1.00954e-15
1e-15
1e-15
1e-15
1e-15
1e-15
1e-15
1e-15
1e-15
1e-15
1e-15
1e-15
1e-15
1.00338e-15
1e-15
1e-15
1e-15
1e-15
1e-15
1.00931e-15
1e-15
1e-15
1e-15
0.00790752
0.00792193
0.00689309
0.00615083
0.00588333
0.0057551
0.00570502
0.00565162
0.0056046
0.00553437
0.00546793
0.00539474
0.00532921
0.00526004
0.00520229
0.00514144
0.00509287
0.00503924
0.00499724
0.00494924
0.00491234
0.00486957
0.00483737
0.00479906
0.0047705
0.00473538
0.00470977
0.00467749
0.00465458
0.00462479
0.00460431
0.00457671
0.00455816
0.00453221
0.00451525
0.00449084
0.00447541
0.0044524
0.00443836
0.00441662
0.0044038
0.00438307
0.00437128
0.00435144
0.0043406
0.00432162
0.00431165
0.00429347
0.00428432
0.0042668
0.00425836
0.00424145
0.00423359
0.00421734
0.00420999
0.00419435
0.0041875
0.00417242
0.00416604
0.00415142
0.00414546
0.00413125
0.00412569
0.00411188
0.00410672
0.00409328
0.00408849
0.00407538
0.00407095
0.00405814
0.00405405
0.00404147
0.00403771
0.00402533
0.00402189
0.00400972
0.00400663
0.00399457
0.00399195
0.0039793
0.000737371
0.00161407
0.00338388
0.005203
0.00605444
0.00639532
0.00653936
0.0065212
0.00646826
0.00636514
0.00628279
0.00619574
0.00612199
0.00605021
0.00599433
0.00593662
0.00589097
0.00583784
0.00579755
0.00574873
0.00571353
0.00567041
0.00563989
0.0056003
0.00557189
0.00553487
0.00550924
0.005475
0.00545202
0.00542043
0.00539987
0.00537002
0.00535086
0.00532239
0.00530484
0.00527804
0.00526208
0.00523678
0.00522228
0.00519821
0.00518473
0.00516154
0.00514908
0.00512681
0.00511536
0.00509402
0.00508352
0.00506309
0.00505332
0.00503358
0.0050243
0.00500545
0.0049966
0.00497862
0.00497018
0.00495304
0.004945
0.00492858
0.00492087
0.00490499
0.00489763
0.00488228
0.00487529
0.00486045
0.00485385
0.00483948
0.00483324
0.00481927
0.00481337
0.00479968
0.00479431
0.00478058
0.00477588
0.0047621
0.00475795
0.00474433
0.00474055
0.00472733
0.00472349
0.00471021
3.48107e-05
0.000218392
0.000470977
0.00121879
0.00233779
0.00343497
0.00417277
0.00456284
0.00477774
0.00485952
0.00491012
0.00492321
0.00492552
0.00492039
0.00491625
0.00490501
0.00489726
0.00487988
0.00486981
0.0048495
0.00483906
0.00481989
0.00480926
0.00478962
0.00477749
0.00475771
0.00474587
0.00472665
0.00471554
0.0046972
0.00468678
0.00466849
0.00465804
0.00463985
0.00462995
0.00461247
0.00460324
0.00458647
0.00457791
0.00456161
0.00455332
0.00453726
0.00452938
0.00451376
0.00450634
0.00449129
0.00448431
0.00446988
0.00446314
0.00444905
0.00444252
0.00442887
0.00442257
0.00440944
0.00440338
0.00439079
0.00438496
0.0043728
0.00436711
0.00435526
0.00434975
0.00433822
0.00433293
0.00432175
0.0043167
0.00430586
0.00430103
0.00429046
0.00428581
0.00427542
0.00427104
0.00426071
0.00425668
0.0042464
0.0042427
0.00423258
0.00422912
0.0042193
0.00421581
0.00420574
8.87308e-06
2.52155e-05
3.81151e-05
0.000192822
0.000420822
0.000971463
0.00193575
0.00274035
0.00327818
0.00362591
0.00385697
0.00398754
0.00407903
0.00414199
0.00419251
0.00422477
0.00425675
0.00427301
0.00429257
0.00429888
0.00431166
0.00431406
0.00432088
0.00431935
0.0043213
0.00431722
0.00431706
0.00431139
0.00431013
0.00430347
0.00430118
0.00429304
0.00428953
0.00428029
0.00427646
0.00426698
0.00426301
0.0042535
0.00424945
0.00423973
0.00423532
0.00422526
0.00422079
0.0042107
0.00420628
0.00419632
0.00419203
0.00418227
0.00417791
0.00416811
0.00416374
0.00415404
0.00414974
0.00414026
0.00413606
0.00412686
0.00412273
0.0041137
0.00410958
0.00410062
0.00409657
0.00408776
0.00408382
0.00407521
0.0040714
0.00406302
0.00405931
0.00405108
0.00404745
0.00403929
0.00403577
0.00402766
0.00402433
0.00401627
0.00401314
0.0040052
0.00400223
0.00399447
0.00399153
0.00398347
3.56021e-09
5.12489e-07
4.49814e-06
1.62057e-05
2.7211e-05
0.000160674
0.000373962
0.000883393
0.00160989
0.00222691
0.00267066
0.00298636
0.00322172
0.00338691
0.00351642
0.00361173
0.00369212
0.00374695
0.00379981
0.0038355
0.00387358
0.00389766
0.00392473
0.00394055
0.00396021
0.00396988
0.00398447
0.00399004
0.00400131
0.00400442
0.00401215
0.00401282
0.00401743
0.00401654
0.00401944
0.0040175
0.00401922
0.00401653
0.00401728
0.0040137
0.00401338
0.00400906
0.00400811
0.00400326
0.00400194
0.00399677
0.00399523
0.00398981
0.00398788
0.00398207
0.0039799
0.00397389
0.00397158
0.00396552
0.00396315
0.0039571
0.00395464
0.00394848
0.0039459
0.00393961
0.00393698
0.00393066
0.00392804
0.00392177
0.00391918
0.00391299
0.00391041
0.00390423
0.00390163
0.0038954
0.00389282
0.00388658
0.00388408
0.00387783
0.00387545
0.00386924
0.00386697
0.00386083
0.00385859
0.00385224
1.13802e-10
1.5527e-08
2.24979e-08
1.06127e-06
6.90002e-06
1.45861e-05
2.21752e-05
0.000135515
0.000323569
0.000730791
0.001294
0.00178917
0.00217538
0.0024723
0.00271884
0.00290655
0.0030606
0.00317502
0.00327748
0.00335439
0.00342634
0.00347942
0.00353184
0.0035688
0.00360799
0.00363387
0.00366441
0.0036832
0.00370782
0.00372147
0.00374079
0.0037504
0.00376566
0.00377221
0.00378439
0.00378881
0.00379844
0.00380145
0.00380896
0.0038105
0.00381597
0.00381651
0.00382052
0.00382033
0.00382318
0.00382238
0.00382446
0.00382301
0.00382423
0.0038222
0.00382279
0.00382036
0.00382046
0.0038178
0.00381756
0.00381465
0.00381409
0.00381081
0.00380996
0.00380637
0.00380532
0.00380155
0.00380037
0.00379649
0.00379522
0.00379128
0.00378989
0.00378582
0.0037843
0.00378007
0.00377849
0.00377415
0.00377255
0.00376812
0.00376658
0.00376209
0.0037606
0.00375607
0.00375457
0.00374998
1e-15
3.88709e-09
2.80529e-09
4.89455e-08
4.11383e-09
4.83113e-07
1.90486e-06
9.03164e-06
1.92059e-05
0.000109687
0.00025134
0.000561731
0.000977869
0.00139214
0.00174861
0.00202913
0.00227668
0.00247741
0.00264954
0.00278419
0.00290469
0.00299982
0.00308865
0.00315631
0.00322195
0.00327066
0.00332206
0.0033586
0.00339959
0.00342706
0.00345968
0.00348013
0.00350694
0.0035224
0.00354445
0.0035563
0.00357468
0.0035839
0.00359925
0.00360611
0.00361883
0.00362397
0.00363455
0.00363844
0.00364709
0.00364996
0.0036571
0.00365904
0.00366471
0.00366594
0.00367044
0.0036711
0.00367465
0.00367491
0.00367771
0.00367757
0.00367965
0.00367902
0.00368051
0.00367948
0.00368052
0.00367921
0.00367989
0.00367836
0.00367876
0.00367704
0.00367711
0.00367519
0.00367497
0.00367278
0.00367239
0.00367001
0.0036695
0.00366694
0.00366639
0.00366367
0.00366309
0.00366023
0.00365954
0.00365685
1e-15
1e-15
7.14647e-10
2.14573e-09
6.47128e-11
1.20059e-07
4.77124e-07
4.59114e-07
1.48648e-06
7.05449e-06
1.43494e-05
7.59158e-05
0.000170209
0.000383947
0.000684194
0.00103311
0.00136058
0.00163407
0.00187058
0.0020738
0.00225906
0.00241135
0.00254874
0.00265901
0.00276225
0.00284395
0.00292414
0.00298544
0.0030483
0.00309506
0.00314587
0.00318148
0.00322286
0.0032503
0.00328454
0.00330631
0.0033351
0.00335249
0.00337656
0.00338996
0.0034105
0.00342124
0.00343891
0.0034475
0.0034626
0.00346944
0.00348248
0.00348795
0.0034991
0.00350349
0.00351293
0.00351647
0.00352449
0.00352737
0.00353422
0.00353648
0.00354221
0.00354386
0.0035486
0.0035498
0.00355376
0.0035546
0.0035579
0.00355842
0.00356116
0.00356139
0.00356356
0.00356351
0.00356515
0.00356483
0.00356612
0.00356555
0.00356656
0.00356577
0.00356657
0.00356555
0.00356617
0.00356498
0.00356523
0.00356463
1e-15
1e-15
6.95259e-13
8.07056e-11
2.00749e-10
1.86097e-12
1.46431e-10
1.70218e-08
6.99375e-08
2.89881e-07
1.04536e-06
4.5868e-06
9.35571e-06
4.60315e-05
9.78085e-05
0.000225451
0.000444443
0.000703847
0.000997878
0.00126128
0.00149654
0.00169506
0.00188169
0.00204256
0.00219486
0.00231843
0.00243604
0.00253101
0.00262434
0.00269833
0.00277406
0.00283092
0.00289192
0.00293622
0.00298672
0.00302212
0.00306427
0.00309266
0.00312801
0.00315055
0.00318075
0.00319907
0.00322512
0.00324
0.00326256
0.00327478
0.00329445
0.0033043
0.00332143
0.00332953
0.00334452
0.00335123
0.00336441
0.00337006
0.00338159
0.00338635
0.00339638
0.00340037
0.00340908
0.00341247
0.00342005
0.00342291
0.00342951
0.00343192
0.00343767
0.00343966
0.0034446
0.00344621
0.00345043
0.00345171
0.00345534
0.00345634
0.00345945
0.0034602
0.00346288
0.00346341
0.00346563
0.0034661
0.00346741
0.0034692
1e-15
1e-15
2.54177e-14
2.6924e-12
1.10556e-11
5.67763e-13
6.14195e-15
4.21407e-09
1.74307e-08
1.28242e-08
4.72611e-08
1.04666e-07
6.79726e-07
2.51758e-06
4.42481e-06
2.21439e-05
4.87166e-05
0.000120134
0.000244415
0.000433996
0.000664702
0.000901948
0.00113861
0.00133669
0.00152357
0.00168166
0.00183864
0.00197261
0.00210363
0.00221027
0.0023168
0.00240166
0.00248904
0.00255676
0.00262924
0.00268345
0.00274359
0.00278728
0.00283787
0.00287326
0.00291614
0.00294488
0.00298159
0.00300509
0.003037
0.00305649
0.0030844
0.00310036
0.00312465
0.00313787
0.00315933
0.00317043
0.00318948
0.00319887
0.00321578
0.00322367
0.0032386
0.00324523
0.00325852
0.00326427
0.00327604
0.00328103
0.00329146
0.00329581
0.00330508
0.0033089
0.00331711
0.00332045
0.00332771
0.00333061
0.00333705
0.00333959
0.00334528
0.00334751
0.0033525
0.00335455
0.0033587
0.00336107
0.00336344
0.00336802
1e-15
1e-15
1e-15
6.70676e-13
4.96073e-13
6.11351e-13
2.20215e-13
4.11802e-13
6.28777e-12
5.42096e-10
3.32772e-09
6.65893e-09
1.81365e-08
7.42401e-08
2.56214e-07
9.52386e-07
1.58352e-06
9.66532e-06
1.90606e-05
5.45956e-05
0.000113966
0.000220311
0.000388901
0.000578998
0.000786126
0.000987562
0.00117693
0.00133666
0.00149386
0.00162661
0.00176378
0.00187954
0.00199757
0.0020925
0.00219101
0.00226875
0.00235203
0.00241606
0.00248669
0.00253943
0.00259913
0.00264225
0.00269322
0.00272881
0.0027731
0.00280265
0.00284121
0.00286563
0.0028991
0.00291947
0.00294902
0.00296617
0.00299239
0.00300688
0.00303021
0.00304248
0.00306327
0.00307366
0.00309225
0.00310122
0.00311786
0.00312562
0.00314056
0.00314734
0.00316081
0.00316672
0.00317874
0.00318395
0.00319472
0.00319936
0.00320903
0.00321319
0.00322185
0.00322567
0.00323326
0.00323713
0.0032432
0.00324789
0.00325145
0.0032591
1e-15
1e-15
1e-15
1e-15
1.25231e-13
2.17362e-13
9.13624e-13
1.75803e-12
4.70769e-12
3.57149e-11
1.16139e-10
5.03452e-10
1.04677e-09
2.05089e-09
6.36412e-08
4.19364e-08
3.60954e-08
3.05923e-07
3.4907e-07
3.22209e-06
5.98856e-06
1.99699e-05
4.2884e-05
9.11435e-05
0.000181393
0.000309512
0.000477668
0.000648161
0.000830452
0.000997822
0.00115793
0.00129293
0.00143061
0.00154626
0.00166853
0.00177082
0.00187944
0.00196635
0.0020592
0.00213225
0.00221241
0.00227384
0.0023431
0.00239464
0.00245485
0.0024978
0.00255016
0.00258616
0.00263177
0.00266213
0.00270225
0.00272779
0.00276322
0.00278479
0.00281628
0.0028347
0.00286282
0.00287849
0.0029036
0.00291703
0.00293953
0.00295116
0.00297146
0.00298161
0.00300001
0.00300886
0.00302539
0.00303313
0.00304805
0.00305494
0.00306843
0.00307469
0.00308676
0.00309269
0.00310312
0.00310923
0.00311751
0.00312475
0.00312979
0.00314083
1e-15
1e-15
1e-15
1e-15
1e-15
5.64777e-14
2.13559e-13
5.84993e-13
1.20576e-12
3.00598e-12
2.88123e-11
2.00855e-11
8.00678e-11
1.22562e-10
1.46728e-10
1.12988e-09
9.01066e-09
1.13306e-08
7.76493e-09
1.31294e-07
2.9367e-07
7.99323e-07
1.47689e-06
6.01284e-06
1.21569e-05
3.25576e-05
6.71954e-05
0.000127852
0.000228284
0.000355071
0.000510567
0.00066031
0.000819753
0.000962119
0.00110348
0.00122145
0.00134463
0.00144803
0.00155833
0.00165058
0.00175162
0.00183268
0.00192161
0.00199062
0.00206886
0.00212797
0.0021971
0.0022477
0.00230854
0.00235179
0.00240527
0.00244196
0.00248923
0.00252046
0.00256256
0.00258939
0.00262692
0.00264988
0.0026833
0.00270298
0.00273292
0.00275
0.00277699
0.00279187
0.00281629
0.0028293
0.00285127
0.00286266
0.00288248
0.00289266
0.00291053
0.00291984
0.00293575
0.00294464
0.00295829
0.00296747
0.00297823
0.00298882
0.00299557
0.00301074
1e-15
1e-15
1e-15
1e-15
1e-15
1.11106e-15
1.09059e-14
6.05807e-14
1.35557e-13
2.71043e-13
1.73692e-14
1.19102e-12
2.77022e-12
6.41024e-12
8.98999e-12
2.10677e-11
3.59447e-12
2.99457e-10
2.12641e-10
4.20327e-09
9.6711e-09
2.86291e-08
6.63204e-08
3.14158e-07
6.77038e-07
1.43641e-06
2.83842e-06
9.00677e-06
1.83157e-05
4.13998e-05
8.34909e-05
0.000145134
0.000243924
0.00035849
0.000498703
0.000631013
0.000772196
0.000895854
0.00102493
0.00113028
0.00124274
0.00133604
0.0014384
0.00152142
0.00161611
0.00169168
0.0017779
0.0018439
0.0019207
0.0019781
0.00204685
0.00209688
0.00215844
0.00220178
0.00225689
0.00229441
0.0023436
0.00237607
0.00242002
0.00244814
0.00248761
0.00251213
0.00254761
0.00256901
0.00260094
0.00261975
0.00264846
0.00266509
0.00269092
0.00270586
0.00272897
0.00274271
0.00276307
0.00277623
0.00279355
0.00280706
0.00282067
0.00283573
0.00284461
0.00286492
1e-15
1e-15
1e-15
1e-15
1e-15
1e-15
1.09362e-15
3.54645e-15
1.06491e-14
2.20031e-14
1.66028e-15
3.58729e-14
6.81861e-13
2.28278e-13
3.58666e-13
1.37206e-12
1.02397e-13
5.67461e-12
3.95878e-11
1.29377e-10
2.78274e-10
5.528e-10
2.67799e-09
8.71431e-09
1.83106e-08
2.52599e-08
1.42605e-08
3.44792e-07
5.32742e-07
2.08246e-06
3.97147e-06
1.01664e-05
2.11811e-05
4.29653e-05
8.62277e-05
0.000140088
0.00023159
0.000328303
0.000454702
0.000571492
0.000699554
0.000808893
0.000927352
0.00102444
0.00112885
0.00121377
0.00130984
0.0013865
0.00147491
0.00154481
0.00162799
0.00169145
0.00176741
0.00182319
0.00189191
0.00194117
0.00200352
0.00204722
0.00210359
0.00214208
0.00219299
0.00222686
0.00227264
0.00230255
0.00234371
0.00237031
0.00240732
0.0024312
0.00246433
0.00248598
0.00251534
0.00253542
0.00256098
0.00258029
0.00260187
0.00262145
0.00263843
0.00265942
0.00267106
0.00269797
1e-15
1e-15
1e-15
1e-15
1e-15
1.00983e-15
1e-15
1e-15
1.19492e-15
1.80378e-15
1e-15
1.73718e-15
1.00918e-15
5.65941e-14
1.03784e-14
3.49313e-14
7.93683e-14
1.7706e-13
8.80108e-13
3.02141e-12
9.54292e-12
1.65474e-11
6.86501e-11
1.62392e-10
5.89246e-10
4.33643e-10
3.50062e-09
8.43775e-08
1.61633e-08
5.37834e-08
7.76451e-08
3.69429e-07
6.34586e-07
2.06021e-06
4.1184e-06
9.73586e-06
2.01365e-05
3.88347e-05
7.59331e-05
0.00011927
0.000197632
0.000277889
0.000386676
0.000490265
0.000607563
0.000706596
0.000816022
0.000905128
0.00100515
0.0010836
0.00117423
0.00124545
0.00133015
0.00139453
0.00147373
0.00153364
0.00160835
0.00166319
0.00173166
0.00178071
0.00184315
0.0018873
0.00194427
0.00198429
0.00203589
0.00207214
0.00211861
0.00215171
0.00219315
0.00222364
0.00226017
0.00228886
0.00232044
0.00234821
0.00237474
0.00240251
0.00242357
0.00245224
0.00246745
0.00250284
1e-15
1e-15
1.01124e-15
1e-15
1e-15
1e-15
1e-15
1e-15
1.01109e-15
1e-15
1e-15
1e-15
1e-15
1e-15
1e-15
1.93045e-15
3.15701e-15
6.16633e-15
2.1055e-14
6.75162e-14
3.26357e-13
8.25544e-13
1.67487e-12
2.88825e-13
2.05836e-11
2.61131e-11
6.19922e-11
6.12605e-11
3.95796e-09
1.74327e-09
2.82157e-09
3.63586e-09
1.55293e-07
5.96261e-08
9.22286e-08
2.86526e-07
6.33534e-07
1.21376e-06
3.68392e-06
6.80591e-06
1.62237e-05
2.78814e-05
5.88316e-05
8.93021e-05
0.000152752
0.000214153
0.000306598
0.000391988
0.000499994
0.000590771
0.000694206
0.0007765
0.000871312
0.000945982
0.00103279
0.00109968
0.00118012
0.00124193
0.00131725
0.00137392
0.00144465
0.00149844
0.00156513
0.0016155
0.00167646
0.00172296
0.00177808
0.00182151
0.00187108
0.00191226
0.00195614
0.00199556
0.00203349
0.0020719
0.00210378
0.00214178
0.00216753
0.0022058
0.00222542
0.00227138
1e-15
1e-15
1e-15
1.01049e-15
1e-15
1e-15
1e-15
1e-15
1e-15
1e-15
1e-15
1e-15
1e-15
1e-15
1e-15
1e-15
1e-15
1e-15
1.22383e-15
5.92024e-15
1.6359e-14
2.84951e-14
9.93992e-14
1.02931e-13
1.03635e-13
9.31176e-13
1.79318e-12
1.58685e-12
1.54906e-13
9.54732e-12
2.5911e-12
6.7291e-11
1.77942e-11
1.21971e-09
1.19445e-09
1.04951e-08
1.97382e-08
2.47817e-08
1.0939e-07
1.67566e-07
5.60861e-07
9.19859e-07
2.62328e-06
4.50516e-06
1.0754e-05
1.84858e-05
3.85869e-05
5.86536e-05
0.000105376
0.000147838
0.000221859
0.000289915
0.000381832
0.000463566
0.000560884
0.000639928
0.000730118
0.00080126
0.000883984
0.000949795
0.00102568
0.0010864
0.00115654
0.00121408
0.00127902
0.00133363
0.00139344
0.00144683
0.0015023
0.00155467
0.00160422
0.00165505
0.00169805
0.00174788
0.00178456
0.00183402
0.00186462
0.00191383
0.00193843
0.0019967
1e-15
1e-15
1e-15
1e-15
1e-15
1e-15
1e-15
1e-15
1e-15
1.0116e-15
1e-15
1e-15