/*--------------------------------*- C++ -*----------------------------------*\
| =========                 |                                                 |
| \\      /  F ield         | OpenFOAM: The Open Source CFD Toolbox           |
|  \\    /   O peration     | Version:  v1912                                 |
|   \\  /    A nd           | Website:  www.openfoam.com                      |
|    \\/     M anipulation  |                                                 |
\*---------------------------------------------------------------------------*/
FoamFile
{
    version     2.0;
    format      ascii;
    class       volScalarField;
    location    "800";
    object      omega;
}
// * * * * * * * * * * * * * * * * * * * * * * * * * * * * * * * * * * * * * //

dimensions      [0 0 -1 0 0 0 0];


internalField   nonuniform List<scalar> 
10000
(
615.572
438.523
377.44
315.973
302.869
282.49
284.396
278.135
286.088
283.945
294.982
294.912
308.397
308.632
324.172
327.902
342.815
347.268
362.23
370.944
629.316
465.248
409.045
354.399
347.584
325.376
328.082
323.093
330.026
327.732
336.72
335.689
345.789
345.378
356.18
356.144
367.479
367.698
379.459
379.833
597.583
418.698
317.817
259.992
216.627
190.858
166.81
153.202
138.076
129.843
119.742
114.004
107.202
102.57
98.1755
93.9944
91.4765
87.5048
86.365
83.2071
596.815
413.664
313.306
251.104
209.041
178.854
156.312
138.596
124.805
113.082
103.98
95.5259
89.2591
82.7421
78.3483
73.0266
69.9137
65.5488
63.193
59.1137
596.791
413.567
313.268
250.941
208.916
178.616
156.055
138.265
124.388
112.634
103.379
94.9478
88.4505
82.0299
77.3459
72.109
68.7935
64.3255
62.1831
57.1508
596.783
413.571
313.26
250.952
208.894
178.638
156.011
138.303
124.31
112.693
103.263
95.0187
88.3051
82.096
77.138
72.2578
68.4755
64.518
61.5765
58.1204
596.781
413.579
313.258
250.968
208.882
178.665
155.983
138.345
124.264
112.755
103.193
95.1046
88.2032
82.2089
77.0003
72.3887
68.3081
64.6648
61.3758
58.4009
596.787
413.591
313.261
250.982
208.877
178.686
155.968
138.376
124.236
112.799
103.149
95.1674
88.1369
82.2933
76.9103
72.4904
68.1961
64.7846
61.2323
58.5703
596.8
413.603
313.269
250.988
208.882
178.688
155.973
138.375
124.242
112.795
103.157
95.1595
88.1482
82.2805
76.9253
72.4714
68.2151
64.7571
61.258
58.5278
596.796
413.606
313.275
250.987
208.891
178.683
155.987
138.363
124.263
112.774
103.186
95.1283
88.1872
82.2369
76.9773
72.4119
68.2836
64.6799
61.3418
58.4358
596.792
413.608
313.28
250.989
208.899
178.68
155.997
138.357
124.276
112.763
103.204
95.1111
88.2117
82.2133
77.008
72.3813
68.3217
64.6395
61.3905
58.3845
596.793
413.615
313.286
250.994
208.903
178.685
156
138.361
124.279
112.767
103.206
95.1156
88.2116
82.2186
77.0063
72.388
68.3182
64.6479
61.3851
58.3949
596.795
413.622
313.291
250.999
208.907
178.69
156.003
138.365
124.28
112.772
103.206
95.1207
88.2108
82.2243
77.0042
72.3946
68.3145
64.6556
61.38
58.4036
596.796
413.629
313.297
251.004
208.912
178.693
156.007
138.368
124.284
112.774
103.209
95.1218
88.214
82.2247
77.0077
72.3942
68.3185
64.6544
61.3845
58.4014
596.794
413.634
313.302
251.009
208.916
178.697
156.01
138.371
124.287
112.776
103.212
95.1239
88.2165
82.2264
77.01
72.3955
68.3208
64.6552
61.3869
58.402
596.792
413.639
313.306
251.014
208.92
178.702
156.013
138.375
124.288
112.78
103.212
95.1283
88.2162
82.2312
77.0087
72.4009
68.3184
64.6615
61.3834
58.4094
596.791
413.645
313.311
251.019
208.924
178.706
156.016
138.379
124.29
112.784
103.214
95.1324
88.2164
82.2357
77.008
72.4059
68.3167
64.6671
61.3807
58.4159
596.791
413.651
313.316
251.024
208.928
178.71
156.019
138.382
124.293
112.787
103.216
95.1345
88.2188
82.2375
77.0102
72.4075
68.3188
64.6685
61.3827
58.4171
596.792
413.657
313.322
251.028
208.933
178.713
156.023
138.385
124.297
112.789
103.22
95.1353
88.223
82.2374
77.0148
72.4066
68.3238
64.6666
61.3884
58.4144
596.795
413.664
313.328
251.034
208.938
178.717
156.028
138.388
124.301
112.791
103.223
95.1374
88.2258
82.2391
77.0174
72.4079
68.3264
64.6679
61.391
58.4157
596.804
413.675
313.336
251.04
208.943
178.722
156.032
138.392
124.304
112.794
103.226
95.1403
88.2282
82.2419
77.0195
72.4107
68.3281
64.6705
61.3924
58.4185
596.816
413.686
313.345
251.047
208.95
178.727
156.037
138.396
124.309
112.798
103.23
95.1437
88.2325
82.2451
77.0237
72.4137
68.3325
64.6737
61.3968
58.422
596.854
413.71
313.36
251.058
208.958
178.734
156.041
138.4
124.311
112.801
103.232
95.1461
88.2331
82.2469
77.0237
72.4151
68.3318
64.6747
61.3957
58.4229
596.843
413.709
313.361
251.06
208.959
178.737
156.043
138.404
124.312
112.805
103.232
95.1507
88.2333
82.2521
77.0235
72.4209
68.3315
64.6811
61.3954
58.4295
596.789
413.684
313.348
251.054
208.955
178.735
156.042
138.405
124.313
112.807
103.234
95.1535
88.235
82.2556
77.0255
72.4251
68.3336
64.6859
61.3979
58.4348
596.748
413.665
313.338
251.047
208.951
178.731
156.039
138.402
124.31
112.804
103.232
95.15
88.2329
82.2517
77.0232
72.4207
68.3312
64.6812
61.3952
58.43
596.73
413.658
313.334
251.045
208.95
178.73
156.039
138.401
124.311
112.803
103.232
95.1486
88.233
82.25
77.0233
72.4187
68.3312
64.6787
61.3952
58.4274
596.725
413.657
313.335
251.045
208.951
178.731
156.04
138.401
124.311
112.804
103.233
95.149
88.2338
82.2502
77.0241
72.4188
68.3321
64.6788
61.3961
58.4276
596.723
413.657
313.336
251.047
208.952
178.732
156.041
138.402
124.313
112.805
103.234
95.1499
88.2348
82.251
77.0251
72.4195
68.3329
64.6794
61.397
58.4283
596.722
413.658
313.338
251.048
208.954
178.734
156.042
138.404
124.314
112.805
103.235
95.1507
88.2356
82.2517
77.0258
72.4201
68.3337
64.6801
61.3978
58.4292
596.721
413.659
313.339
251.05
208.955
178.735
156.043
138.405
124.315
112.806
103.235
95.1515
88.2364
82.2525
77.0265
72.4209
68.3344
64.6809
61.3986
58.43
596.72
413.659
313.341
251.051
208.956
178.736
156.045
138.406
124.316
112.807
103.236
95.1523
88.2371
82.2531
77.0272
72.4215
68.3351
64.6815
61.3994
58.4308
596.72
413.66
313.342
251.052
208.957
178.737
156.045
138.407
124.316
112.808
103.237
95.153
88.2378
82.2538
77.0279
72.4222
68.3357
64.6822
61.4001
58.4316
596.719
413.66
313.343
251.053
208.958
178.738
156.046
138.408
124.317
112.809
103.238
95.1537
88.2384
82.2545
77.0285
72.4228
68.3363
64.6829
61.4008
58.4325
596.719
413.661
313.344
251.054
208.959
178.739
156.047
138.408
124.318
112.81
103.238
95.1543
88.239
82.2551
77.0291
72.4234
68.3369
64.6836
61.4015
58.4333
596.718
413.661
313.345
251.055
208.96
178.74
156.048
138.409
124.319
112.81
103.239
95.1549
88.2395
82.2556
77.0296
72.424
68.3375
64.6842
61.4022
58.4341
596.718
413.661
313.345
251.056
208.961
178.741
156.049
138.41
124.319
112.811
103.24
95.1555
88.2401
82.2562
77.0301
72.4246
68.3381
64.6848
61.4029
58.4349
596.718
413.661
313.346
251.057
208.962
178.741
156.049
138.41
124.32
112.811
103.24
95.156
88.2406
82.2567
77.0306
72.425
68.3386
64.6854
61.4036
58.4356
596.717
413.661
313.347
251.057
208.962
178.742
156.05
138.411
124.32
112.812
103.241
95.1565
88.2411
82.2572
77.0311
72.4256
68.3392
64.686
61.4043
58.4364
596.717
413.661
313.347
251.058
208.963
178.743
156.051
138.411
124.321
112.812
103.241
95.1569
88.2415
82.2576
77.0316
72.4261
68.3397
64.6866
61.4049
58.4371
596.717
413.661
313.347
251.059
208.963
178.743
156.051
138.412
124.321
112.813
103.241
95.1574
88.242
82.2581
77.032
72.4266
68.3402
64.6872
61.4056
58.4379
596.717
413.662
313.348
251.059
208.964
178.744
156.052
138.412
124.322
112.813
103.242
95.1578
88.2423
82.2585
77.0325
72.427
68.3408
64.6878
61.4063
58.4387
596.717
413.662
313.348
251.059
208.964
178.744
156.052
138.413
124.322
112.814
103.242
95.1582
88.2428
82.2589
77.033
72.4275
68.3414
64.6883
61.407
58.4393
596.717
413.662
313.348
251.06
208.965
178.744
156.052
138.413
124.322
112.814
103.243
95.1585
88.2432
82.2593
77.0334
72.428
68.3419
64.6889
61.4077
58.4401
596.717
413.662
313.348
251.06
208.965
178.745
156.053
138.413
124.323
112.814
103.243
95.1589
88.2436
82.2597
77.0338
72.4285
68.3424
64.6896
61.4083
58.4409
596.717
413.662
313.349
251.06
208.965
178.745
156.053
138.414
124.323
112.815
103.243
95.1593
88.2439
82.2601
77.0343
72.429
68.3429
64.6902
61.409
58.4417
596.717
413.662
313.349
251.061
208.966
178.745
156.053
138.414
124.323
112.815
103.244
95.1596
88.2443
82.2606
77.0347
72.4295
68.3435
64.6908
61.4097
58.4424
596.717
413.662
313.349
251.061
208.966
178.746
156.053
138.414
124.324
112.815
103.244
95.16
88.2447
82.261
77.0352
72.4299
68.344
64.6914
61.4104
58.4432
596.717
413.662
313.349
251.061
208.966
178.746
156.054
138.415
124.324
112.816
103.244
95.1603
88.2451
82.2614
77.0356
72.4305
68.3446
64.692
61.4111
58.4439
596.717
413.662
313.349
251.061
208.966
178.746
156.054
138.415
124.324
112.816
103.245
95.1606
88.2455
82.2617
77.0361
72.4309
68.3452
64.6926
61.4118
58.4446
596.717
413.661
313.349
251.061
208.966
178.746
156.054
138.415
124.325
112.816
103.245
95.161
88.2458
82.2622
77.0366
72.4315
68.3458
64.6933
61.4125
58.4454
596.717
413.661
313.349
251.061
208.967
178.746
156.054
138.415
124.325
112.816
103.245
95.1614
88.2462
82.2626
77.037
72.432
68.3464
64.6939
61.4132
58.4462
596.717
413.661
313.349
251.061
208.967
178.747
156.055
138.416
124.325
112.817
103.246
95.1617
88.2466
82.2631
77.0375
72.4326
68.347
64.6946
61.4139
58.4469
596.717
413.661
313.349
251.062
208.967
178.747
156.055
138.416
124.325
112.817
103.246
95.1621
88.247
82.2635
77.038
72.4331
68.3475
64.6952
61.4145
58.4476
596.716
413.661
313.349
251.062
208.967
178.747
156.055
138.416
124.326
112.817
103.246
95.1624
88.2474
82.2639
77.0386
72.4336
68.3482
64.6958
61.4153
58.4483
596.717
413.661
313.349
251.062
208.967
178.747
156.055
138.416
124.326
112.818
103.247
95.1628
88.2479
82.2644
77.0391
72.4341
68.3488
64.6964
61.416
58.4489
596.716
413.661
313.349
251.062
208.967
178.747
156.055
138.416
124.326
112.818
103.247
95.1631
88.2483
82.2648
77.0396
72.4347
68.3494
64.6971
61.4166
58.4496
596.716
413.661
313.349
251.062
208.967
178.747
156.056
138.417
124.326
112.818
103.247
95.1635
88.2487
82.2653
77.0401
72.4352
68.3499
64.6977
61.4173
58.4503
596.716
413.661
313.349
251.062
208.967
178.747
156.056
138.417
124.327
112.818
103.248
95.1638
88.2491
82.2657
77.0405
72.4357
68.3505
64.6983
61.4179
58.451
596.716
413.661
313.349
251.062
208.967
178.748
156.056
138.417
124.327
112.819
103.248
95.1642
88.2495
82.2661
77.041
72.4362
68.3511
64.6989
61.4185
58.4516
596.716
413.661
313.349
251.062
208.967
178.748
156.056
138.417
124.327
112.819
103.248
95.1646
88.2499
82.2666
77.0415
72.4367
68.3516
64.6994
61.4191
58.4522
596.716
413.661
313.349
251.062
208.968
178.748
156.056
138.417
124.327
112.819
103.248
95.1649
88.2503
82.267
77.0419
72.4372
68.3521
64.6999
61.4197
58.4527
596.716
413.661
313.349
251.062
208.968
178.748
156.056
138.418
124.327
112.819
103.249
95.1653
88.2506
82.2674
77.0423
72.4377
68.3525
64.7005
61.4201
58.4534
596.716
413.661
313.349
251.062
208.968
178.748
156.056
138.418
124.328
112.82
103.249
95.1656
88.251
82.2678
77.0428
72.4381
68.3531
64.701
61.4207
58.4538
596.716
413.661
313.349
251.062
208.968
178.748
156.057
138.418
124.328
112.82
103.249
95.1659
88.2513
82.2682
77.0432
72.4385
68.3535
64.7014
61.4211
58.4542
596.716
413.661
313.349
251.062
208.968
178.748
156.057
138.418
124.328
112.82
103.25
95.1662
88.2516
82.2685
77.0436
72.4389
68.3539
64.7018
61.4216
58.4547
596.716
413.661
313.349
251.062
208.968
178.748
156.057
138.418
124.328
112.82
103.25
95.1665
88.2519
82.2689
77.0438
72.4393
68.3542
64.7022
61.4219
58.4551
596.716
413.661
313.349
251.062
208.968
178.748
156.057
138.418
124.328
112.821
103.25
95.1667
88.2522
82.2691
77.0442
72.4396
68.3546
64.7025
61.4223
58.4554
596.716
413.661
313.349
251.062
208.968
178.749
156.057
138.419
124.329
112.821
103.25
95.1669
88.2524
82.2694
77.0445
72.4399
68.3549
64.7028
61.4226
58.4557
596.716
413.661
313.35
251.062
208.968
178.749
156.057
138.419
124.329
112.821
103.25
95.1671
88.2527
82.2696
77.0447
72.4401
68.3551
64.7031
61.4228
58.4559
596.716
413.661
313.35
251.062
208.968
178.749
156.057
138.419
124.329
112.821
103.251
95.1673
88.2528
82.2698
77.0449
72.4403
68.3554
64.7033
61.4231
58.4562
596.716
413.661
313.35
251.062
208.968
178.749
156.057
138.419
124.329
112.821
103.251
95.1674
88.253
82.2699
77.0451
72.4405
68.3555
64.7035
61.4232
58.4563
596.716
413.661
313.35
251.062
208.968
178.749
156.057
138.419
124.329
112.821
103.251
95.1676
88.2531
82.2701
77.0452
72.4407
68.3557
64.7036
61.4234
58.4565
596.716
413.661
313.35
251.062
208.968
178.749
156.057
138.419
124.329
112.821
103.251
95.1677
88.2532
82.2702
77.0453
72.4408
68.3557
64.7038
61.4234
58.4566
596.716
413.661
313.35
251.062
208.968
178.749
156.058
138.419
124.329
112.821
103.251
95.1677
88.2533
82.2703
77.0454
72.4408
68.3559
64.7038
61.4235
58.4566
596.716
413.661
313.35
251.062
208.968
178.749
156.058
138.419
124.329
112.822
103.251
95.1678
88.2533
82.2704
77.0454
72.4409
68.3558
64.7039
61.4235
58.4567
596.716
413.661
313.35
251.062
208.968
178.749
156.058
138.419
124.329
112.822
103.251
95.1678
88.2534
82.2703
77.0455
72.4409
68.3559
64.7038
61.4236
58.4567
596.716
413.661
313.35
251.062
208.968
178.749
156.058
138.419
124.329
112.822
103.251
95.1678
88.2534
82.2703
77.0455
72.4409
68.3559
64.7038
61.4236
58.4566
596.716
413.661
313.35
251.062
208.968
178.749
156.058
138.419
124.329
112.822
103.251
95.1678
88.2534
82.2703
77.0455
72.4409
68.3559
64.7038
61.4235
58.4566
596.716
413.661
313.35
251.062
208.968
178.749
156.058
138.419
124.329
112.822
103.251
95.1678
88.2534
82.2703
77.0454
72.4409
68.3559
64.7038
61.4235
58.4565
596.716
413.661
313.35
251.062
208.968
178.749
156.058
138.419
124.329
112.822
103.251
95.1678
88.2533
82.2703
77.0454
72.4408
68.3558
64.7037
61.4234
58.4565
596.716
413.661
313.35
251.062
208.968
178.749
156.058
138.419
124.329
112.822
103.251
95.1677
88.2533
82.2702
77.0453
72.4408
68.3557
64.7036
61.4233
58.4564
596.716
413.661
313.35
251.062
208.968
178.749
156.058
138.419
124.329
112.821
103.251
95.1677
88.2532
82.2702
77.0453
72.4407
68.3557
64.7035
61.4232
58.4563
596.716
413.661
313.35
251.062
208.968
178.749
156.058
138.419
124.329
112.821
103.251
95.1676
88.2532
82.2701
77.0452
72.4406
68.3556
64.7035
61.4232
58.4562
596.716
413.661
313.35
251.062
208.968
178.749
156.058
138.419
124.329
112.821
103.251
95.1676
88.2531
82.2701
77.0451
72.4405
68.3555
64.7034
61.4231
58.4561
596.716
413.661
313.35
251.062
208.968
178.749
156.058
138.419
124.329
112.821
103.251
95.1675
88.2531
82.27
77.0451
72.4405
68.3554
64.7033
61.423
58.456
596.716
413.661
313.35
251.062
208.968
178.749
156.058
138.419
124.329
112.821
103.251
95.1675
88.253
82.2699
77.045
72.4404
68.3553
64.7032
61.4229
58.4559
596.716
413.661
313.35
251.062
208.968
178.749
156.057
138.419
124.329
112.821
103.251
95.1674
88.253
82.2699
77.0449
72.4403
68.3552
64.7031
61.4228
58.4558
596.716
413.661
313.35
251.062
208.968
178.749
156.057
138.419
124.329
112.821
103.251
95.1674
88.2529
82.2698
77.0449
72.4402
68.3552
64.703
61.4227
58.4556
596.716
413.661
313.35
251.062
208.968
178.749
156.057
138.419
124.329
112.821
103.251
95.1673
88.2529
82.2697
77.0448
72.4402
68.3551
64.7029
61.4226
58.4556
596.716
413.661
313.35
251.062
208.968
178.749
156.057
138.419
124.329
112.821
103.251
95.1673
88.2528
82.2697
77.0447
72.4401
68.355
64.7028
61.4225
58.4555
596.716
413.661
313.35
251.062
208.968
178.749
156.057
138.419
124.329
112.821
103.251
95.1673
88.2528
82.2696
77.0447
72.44
68.3549
64.7028
61.4224
58.4554
596.716
413.661
313.35
251.062
208.968
178.749
156.057
138.419
124.329
112.821
103.251
95.1672
88.2527
82.2696
77.0446
72.44
68.3549
64.7027
61.4223
58.4553
596.717
413.661
313.35
251.062
208.968
178.749
156.057
138.419
124.329
112.821
103.251
95.1672
88.2526
82.2696
77.0445
72.44
68.3547
64.7027
61.4222
58.4553
596.717
413.661
313.35
251.063
208.968
178.749
156.057
138.419
124.329
112.821
103.251
95.1672
88.2526
82.2695
77.0445
72.4399
68.3547
64.7025
61.4222
58.4551
596.717
413.661
313.35
251.063
208.968
178.749
156.057
138.419
124.329
112.821
103.251
95.1671
88.2526
82.2695
77.0445
72.4398
68.3547
64.7025
61.4221
58.4551
596.717
413.662
313.35
251.063
208.968
178.749
156.057
138.419
124.329
112.821
103.25
95.1671
88.2526
82.2694
77.0444
72.4397
68.3546
64.7024
61.422
58.455
596.717
413.662
313.35
251.063
208.968
178.749
156.057
138.419
124.329
112.821
103.25
95.1671
88.2525
82.2694
77.0443
72.4398
68.3545
64.7024
61.4219
58.455
596.717
413.662
313.35
251.063
208.968
178.749
156.057
138.419
124.329
112.821
103.25
95.1671
88.2525
82.2694
77.0443
72.4397
68.3545
64.7024
61.4218
58.4549
596.717
413.662
313.35
251.063
208.968
178.749
156.057
138.419
124.329
112.821
103.25
95.167
88.2525
82.2693
77.0443
72.4396
68.3545
64.7023
61.4219
58.4548
3488.05
3491.47
3261.73
3085.55
3019.59
2987.11
2974.45
2960.93
2948.96
2930.97
2913.82
2894.8
2877.67
2859.47
2844.19
2828
2815.01
2800.6
2789.26
2776.24
2766.19
2754.49
2745.66
2735.11
2727.22
2717.48
2710.36
2701.36
2694.95
2686.6
2680.83
2673.06
2667.81
2660.46
2655.64
2648.7
2644.3
2637.73
2633.7
2627.47
2623.78
2617.82
2614.41
2608.68
2605.54
2600.04
2597.14
2591.85
2589.19
2584.08
2581.61
2576.66
2574.36
2569.59
2567.44
2562.82
2560.82
2556.35
2554.49
2550.15
2548.41
2544.17
2542.55
2538.42
2536.91
2532.88
2531.49
2527.54
2526.25
2522.38
2521.2
2517.39
2516.29
2512.55
2511.54
2507.87
2506.95
2503.31
2502.52
2498.7
1178.39
1568.74
1691.23
1760.59
1717.42
1599.75
1503.7
1422.48
1362.86
1318.62
1286.82
1260.7
1240.49
1222.71
1208.62
1195.4
1184.4
1173.46
1164.46
1155.23
1147.79
1139.87
1133.63
1126.63
1121.21
1114.98
1110.28
1104.68
1100.57
1095.5
1091.88
1087.22
1083.97
1079.69
1076.79
1072.82
1070.23
1066.53
1064.2
1060.72
1058.61
1055.32
1053.41
1050.29
1048.58
1045.59
1044.06
1041.2
1039.82
1037.06
1035.83
1033.14
1032.07
1029.44
1028.51
1025.93
1025.14
1022.6
1021.93
1019.42
1018.88
1016.39
1015.97
1013.49
1013.18
1010.72
1010.53
1008.06
1007.98
1005.52
1005.44
1003.13
1003
1000.84
1000.7
998.616
998.467
996.477
996.285
994.455
256.02
541.274
762.822
965.223
1027.52
1001.07
917.377
865.257
825.27
790.609
764.514
743.246
726.725
712.767
701.645
691.502
683.055
675.005
668.36
661.751
656.419
650.88
646.503
641.638
637.877
633.594
630.374
626.565
623.781
620.374
617.953
614.826
612.664
609.797
607.888
605.25
603.559
601.111
599.611
597.315
595.957
593.794
592.573
590.531
589.439
587.503
586.528
584.688
583.802
582.043
581.241
579.554
578.831
577.212
576.562
575.004
574.42
572.914
572.389
570.926
570.458
569.034
568.622
567.233
566.874
565.516
565.209
563.873
563.615
562.304
562.064
560.809
560.578
559.377
559.164
557.998
557.799
556.677
556.487
555.356
81.1081
117.754
239.008
373.602
542.059
660.722
677.197
659.364
625.723
596.711
573.431
552.354
535.475
521.269
509.444
498.759
490.122
482.219
475.657
469.353
464.22
459.047
454.848
450.383
446.864
443.021
440.056
436.685
434.158
431.176
428.996
426.271
424.353
421.878
420.205
417.946
416.477
414.396
413.105
411.162
410.001
408.18
407.144
405.438
404.516
402.913
402.091
400.579
399.831
398.397
397.714
396.354
395.733
394.444
393.877
392.653
392.133
390.966
390.486
389.368
388.925
387.853
387.447
386.417
386.045
385.056
384.716
383.758
383.447
382.518
382.228
381.335
381.064
380.204
379.956
379.122
378.891
378.085
377.886
377.007
55.6974
52.4033
83.8736
100.852
182.117
273.931
406.213
485.3
502.812
496.728
479.12
460.352
445.013
430.63
417.817
406.349
396.894
388.159
380.834
374
368.331
362.739
358.089
353.454
349.715
345.808
342.688
339.306
336.68
333.715
331.449
328.782
326.824
324.436
322.743
320.581
319.101
317.126
315.83
313.997
312.843
311.14
310.117
308.534
307.627
306.15
305.343
303.957
303.224
301.917
301.252
300.021
299.417
298.257
297.707
296.613
296.108
295.071
294.602
293.617
293.182
292.246
291.843
290.953
290.579
289.732
289.384
288.573
288.248
287.468
287.164
286.416
286.133
285.414
285.152
284.458
284.215
283.543
283.339
282.574
55.8747
51.6046
51.4063
52.109
63.5488
73.8878
139.932
215.861
315.902
378.759
398.338
396.693
388.339
376.442
365.449
355.212
345.649
336.334
328.455
321.103
314.769
308.59
303.347
298.289
294.082
289.809
286.31
282.655
279.736
276.542
274.04
271.259
269.135
266.68
264.847
262.639
261.041
259.042
257.64
255.808
254.572
252.888
251.798
250.246
249.281
247.841
246.981
245.635
244.859
243.599
242.899
241.719
241.087
239.979
239.406
238.364
237.841
236.855
236.373
235.439
234.995
234.111
233.702
232.865
232.485
231.693
231.339
230.584
230.252
229.531
229.22
228.532
228.242
227.584
227.314
226.682
226.433
225.82
225.605
224.905
55.7166
53.107
50.4394
48.5425
46.5687
46.296
52.5912
60.7422
110.556
167.874
247.579
301.327
324.593
327.55
324.536
317.805
310.021
302.443
295.522
288.458
281.956
275.645
270.154
264.805
260.138
255.474
251.578
247.594
244.314
240.811
237.989
234.968
232.59
229.934
227.873
225.5
223.709
221.58
220.016
218.103
216.737
214.999
213.799
212.21
211.143
209.678
208.725
207.364
206.513
205.25
204.486
203.309
202.621
201.521
200.9
199.868
199.302
198.328
197.81
196.891
196.419
195.551
195.118
194.298
193.9
193.123
192.754
192.015
191.671
190.968
190.647
189.979
189.68
189.043
188.765
188.156
187.898
187.31
187.082
186.412
55.5287
53.4449
50.6999
49.0426
46.5227
45.1311
42.8778
42.2013
46.0359
51.5092
85.2731
127.241
189.212
238.158
265.711
275.905
275.52
273.077
268.039
262.525
257.361
252.227
247.308
242.265
237.578
232.93
228.91
224.787
221.242
217.535
214.467
211.211
208.57
205.67
203.363
200.785
198.779
196.476
194.71
192.644
191.107
189.245
187.897
186.203
185.002
183.447
182.374
180.953
180.005
178.696
177.849
176.635
175.873
174.743
174.055
172.998
172.374
171.382
170.815
169.884
169.37
168.493
168.024
167.195
166.766
165.982
165.587
164.842
164.477
163.771
163.433
162.762
162.449
161.811
161.521
160.912
160.642
160.057
159.814
159.15
55.5737
53.3759
50.8536
49.0518
46.8384
45.3817
43.2213
41.9351
40.3183
38.1342
40.9605
43.3971
65.0199
91.2337
136.649
182.736
214.138
231.321
236.66
236.25
234.231
230.802
226.942
223.097
219.43
215.589
211.989
208.174
204.722
201.154
198.113
194.816
192.045
189.009
186.554
183.839
181.668
179.216
177.271
175.044
173.336
171.328
169.821
167.992
166.646
164.974
163.771
162.247
161.185
159.784
158.834
157.541
156.687
155.49
154.719
153.604
152.909
151.872
151.246
150.277
149.711
148.8
148.286
147.427
146.957
146.145
145.716
144.948
144.555
143.827
143.467
142.777
142.444
141.789
141.482
140.857
140.571
139.974
139.714
139.037
55.6733
53.2703
50.9968
48.9368
47.0389
45.2661
43.6173
42.0532
40.5863
39.0233
37.8612
35.9917
36.8272
37.3347
49.198
62.6202
93.8302
130.654
165.2
188.806
200.945
205.558
205.303
204.035
201.775
198.867
196.104
193.178
190.473
187.539
184.916
181.932
179.346
176.473
174.116
171.444
169.255
166.76
164.75
162.455
160.649
158.543
156.916
154.975
153.512
151.738
150.427
148.792
147.615
146.107
145.051
143.661
142.713
141.427
140.57
139.374
138.6
137.489
136.795
135.76
135.133
134.162
133.593
132.679
132.16
131.299
130.831
130.02
129.595
128.828
128.441
127.714
127.358
126.669
126.341
125.686
125.381
124.757
124.479
123.775
55.7296
53.2234
51.0383
48.9004
47.0821
45.2247
43.6931
42.0581
40.7393
39.2809
38.111
36.7398
35.7534
34.3287
33.6622
33.0257
38.5234
43.9962
60.3327
86.2985
116.785
144.56
164.313
175.137
179.956
180.298
179.636
178.025
176.226
173.935
171.949
169.634
167.657
165.316
163.357
160.984
159.028
156.712
154.859
152.682
150.931
148.849
147.205
145.245
143.749
141.931
140.568
138.865
137.611
136.023
134.889
133.419
132.393
131.026
130.094
128.817
127.971
126.778
126.016
124.902
124.214
123.168
122.543
121.559
120.992
120.065
119.554
118.68
118.22
117.392
116.975
116.19
115.81
115.067
114.715
114.014
113.687
113.024
112.725
111.98
55.7212
53.2434
51.0166
48.9332
47.045
45.2727
43.645
42.1225
40.7005
39.3739
38.1243
36.9603
35.8273
34.7984
33.6394
32.6611
31.8789
30.6489
32.2424
33.5363
41.5481
52.4533
74.2516
99.1033
122.786
141.12
152.305
157.713
159.576
159.306
158.512
156.989
155.668
153.885
152.417
150.55
149.1
147.221
145.744
143.875
142.365
140.49
139.013
137.202
135.821
134.073
132.759
131.078
129.835
128.245
127.1
125.6
124.542
123.125
122.151
120.818
119.929
118.674
117.863
116.681
115.942
114.827
114.156
113.104
112.498
111.501
110.953
110.006
109.512
108.613
108.168
107.315
106.909
106.103
105.727
104.968
104.619
103.902
103.582
102.783
55.715
53.2521
51.0119
48.9399
47.0435
45.2751
43.6474
42.1196
40.71
39.3715
38.1443
36.9592
35.8792
34.8245
33.8525
32.8877
32.0056
31.0986
30.3488
29.4921
28.9805
28.7092
31.6731
34.921
44.5412
59.7138
80.3081
100.677
118.241
130.748
137.877
141.121
142.001
141.716
141.027
139.767
138.774
137.383
136.261
134.781
133.669
132.183
131.05
129.537
128.404
126.859
125.729
124.201
123.105
121.633
120.58
119.14
118.131
116.736
115.789
114.459
113.58
112.308
111.489
110.271
109.513
108.353
107.661
106.558
105.931
104.877
104.306
103.295
102.778
101.814
101.347
100.432
100.003
99.1387
98.7398
97.9232
97.5528
96.7813
96.4379
95.5793
55.7207
53.2474
51.0199
48.9323
47.0542
45.264
43.6619
42.1061
40.7274
39.358
38.1642
36.9454
35.9049
34.8098
33.8983
32.9016
32.1011
31.1881
30.4754
29.6192
28.9528
28.1394
27.6691
26.8541
27.0982
27.4157
31.1129
35.8239
46.5757
61.3294
78.927
95.4783
109.047
118.555
123.886
126.432
127.072
126.896
126.378
125.383
124.613
123.501
122.686
121.464
120.629
119.408
118.579
117.326
116.485
115.224
114.361
113.081
112.224
110.954
110.133
108.894
108.102
106.883
106.12
104.927
104.209
103.056
102.39
101.274
100.659
99.5779
99.0092
97.9644
97.4434
96.4409
95.9631
95.0065
94.5606
93.654
93.2366
92.3766
91.9871
91.1741
90.8086
89.8982
55.7235
53.2482
51.0219
48.9338
47.0548
45.2664
43.6608
42.1099
40.7236
39.3646
38.1567
36.9554
35.8938
34.8243
33.8848
32.9246
32.0883
31.2192
30.4734
29.6791
29.0059
28.2815
27.6545
27.001
26.4042
25.7971
25.4089
24.7447
25.5675
26.193
29.7416
34.9077
45.0636
58.0147
72.762
86.645
97.9788
106.098
110.947
113.405
114.273
114.174
113.929
113.141
112.574
111.651
111.052
110.08
109.454
108.429
107.813
106.784
106.164
105.103
104.482
103.402
102.766
101.677
101.046
99.9597
99.3551
98.2822
97.7001
96.6344
96.0758
95.0258
94.4978
93.4743
92.9796
91.9878
91.5176
90.5628
90.1148
89.1974
88.7744
87.8989
87.5003
86.6678
86.2888
85.3463
55.7188
53.2577
51.0143
48.9459
47.0443
45.2814
43.6472
42.128
40.7066
39.3862
38.1362
36.98
35.8711
34.8509
33.8598
32.9545
32.0611
31.255
30.4432
29.7228
28.9785
28.3355
27.645
27.0707
26.4268
25.9032
25.3005
24.8289
24.2658
23.8731
23.423
23.2623
23.6861
24.3981
27.5138
32.0367
40.8632
51.4345
63.9083
75.7936
86.0892
93.7564
98.7681
101.642
102.971
103.181
103.067
102.654
102.228
101.446
100.988
100.185
99.7509
98.8787
98.4343
97.5485
97.1113
96.2252
95.7743
94.8657
94.4122
93.4882
93.0246
92.0858
91.6234
90.6857
90.2348
89.3132
88.8721
87.9601
87.5269
86.6272
86.2067
85.3293
84.9265
84.0792
83.6925
82.8745
82.5003
81.5587
55.7153
53.2647
51.0106
48.9529
47.0405
45.2881
43.6436
42.1342
40.7035
39.3914
38.1342
36.9842
35.8697
34.8545
33.8588
32.9573
32.0609
31.2562
30.4442
29.7222
28.9823
28.3318
27.654
27.0654
26.4419
25.9063
25.3306
24.8416
24.3064
23.8578
23.3637
22.954
22.502
22.1474
21.7908
21.6248
21.7135
22.8426
24.6856
28.1492
34.9467
43.266
53.5223
63.8861
73.3998
81.3085
86.8348
90.5069
92.5144
93.4134
93.5433
93.3895
93.1407
92.5598
92.2269
91.5324
91.1948
90.5002
90.161
89.4341
89.0892
88.3549
88.017
87.2801
86.9323
86.1729
85.8238
85.0535
84.6977
83.9112
83.5539
82.7626
82.4095
81.6282
81.2807
80.5099
80.1644
79.4029
79.0643
78.1644
55.7175
53.2652
51.0133
48.9524
47.0437
45.2866
43.6476
42.1314
40.7089
39.3869
38.1411
36.9778
35.8784
34.8462
33.8695
32.9466
32.0742
31.2429
30.4602
29.7063
29.0014
28.3133
27.6765
27.0448
26.468
25.8843
25.3615
24.8185
24.3442
23.8366
23.4046
22.9279
22.5367
22.0835
21.7344
21.3037
20.9982
20.6211
20.3473
20.0805
20.0675
20.8724
21.895
24.3589
28.7912
34.5404
42.845
51.3762
60.2401
68.1067
74.5732
79.2031
82.2764
84.001
84.9188
85.046
84.9859
84.7063
84.473
83.9379
83.663
83.0711
82.8129
82.2103
81.9574
81.3366
81.0813
80.4529
80.2032
79.5773
79.3215
78.6805
78.4185
77.7734
77.5003
76.8469
76.5632
75.9048
75.6326
74.8167
55.7242
53.2615
51.0212
48.9474
47.0529
45.2802
43.658
42.1237
40.7204
39.3781
38.1536
36.9679
35.8918
34.8353
33.8838
32.9348
32.0892
31.2303
30.4758
29.693
29.0175
28.2994
27.693
27.0302
26.4848
25.8692
25.3784
24.8032
24.3613
23.8211
23.4232
22.9132
22.5556
22.071
21.7507
21.2875
21.0018
20.5573
20.3023
19.8731
19.6467
19.2475
19.0755
18.7504
18.7197
18.817
19.4898
20.4479
23.4503
26.7566
32.748
39.2122
46.9167
54.2678
61.1935
66.9535
71.318
74.2383
76.1905
77.1036
77.5905
77.5377
77.4765
77.1096
76.9463
76.4739
76.2698
75.7592
75.5511
75.0489
74.8469
74.3395
74.1279
73.6161
73.4023
72.901
72.6794
72.1685
71.9705
71.2797
55.7268
53.2633
51.023
48.9495
47.0539
45.2828
43.6581
42.1269
40.7195
39.3821
38.1516
36.9731
35.8885
34.8418
33.8789
32.9428
32.0825
31.2403
30.467
29.7053
29.0062
28.3142
27.679
27.0479
26.4677
25.8904
25.3577
24.8283
24.3367
23.8505
23.3943
22.9473
22.5215
22.1109
21.7107
21.334
20.9556
20.6104
20.2502
19.9348
19.5889
19.3019
18.969
18.7102
18.3915
18.1598
17.8674
17.6826
17.4543
17.4303
17.6218
17.9369
19.3024
20.9136
24.655
28.4948
34.5486
40.4544
47.2413
53.1193
58.847
62.9985
66.5034
68.4384
70.024
70.5671
70.9622
70.8949
70.8186
70.5407
70.3897
70.007
69.8289
69.4086
69.2177
68.8101
68.6165
68.2183
68.0648
67.4852
55.7281
53.2665
51.0239
48.9528
47.0545
45.2862
43.6585
42.1305
40.7197
39.3859
38.1517
36.977
35.8885
34.8458
33.879
32.9468
32.0828
31.2441
30.4677
29.7086
29.0075
28.317
27.6812
27.0497
26.471
25.8908
25.3624
24.827
24.3433
23.8469
23.4032
22.941
22.5335
22.1011
21.7265
21.3202
20.9759
20.592
20.2759
19.9114
19.6219
19.2736
19.0094
18.6746
18.434
18.1112
17.8933
17.5812
17.3854
17.0837
16.9122
16.6289
16.4956
16.2724
16.2313
16.284
16.6624
17.1926
18.9124
20.7199
24.423
28.3375
33.764
38.9362
44.7666
49.6651
54.4959
57.9646
60.9655
62.6388
64.0786
64.5683
65.0148
64.9755
64.9512
64.7315
64.5999
64.301
64.1846
63.6911
55.7325
53.2708
51.0284
48.9569
47.0591
45.2901
43.6633