/*--------------------------------*- C++ -*----------------------------------*\
| =========                 |                                                 |
| \\      /  F ield         | OpenFOAM: The Open Source CFD Toolbox           |
|  \\    /   O peration     | Version:  v1912                                 |
|   \\  /    A nd           | Website:  www.openfoam.com                      |
|    \\/     M anipulation  |                                                 |
\*---------------------------------------------------------------------------*/
FoamFile
{
    version     2.0;
    format      ascii;
    class       volScalarField;
    location    "800";
    object      p;
}
// * * * * * * * * * * * * * * * * * * * * * * * * * * * * * * * * * * * * * //

dimensions      [0 2 -2 0 0 0 0];


internalField   nonuniform List<scalar> 
10000
(
0.0014167
0.00263884
0.00236535
0.00222181
0.0022136
0.00225133
0.00226242
0.00230091
0.00232063
0.00237975
0.00241307
0.00249667
0.0025464
0.00266942
0.00274607
0.00294393
0.00307578
0.00346822
0.00377426
0.00509611
0.00143264
0.00262248
0.00236309
0.0022212
0.00221324
0.00225118
0.00226227
0.00230089
0.00232051
0.0023798
0.00241292
0.00249679
0.00254618
0.00266965
0.0027457
0.00294434
0.00307514
0.00346873
0.00377398
0.00507374
0.00145376
0.00260034
0.00236215
0.00222143
0.00221352
0.00225124
0.00226251
0.00230083
0.00232074
0.00237963
0.0024132
0.0024965
0.00254657
0.00266916
0.00274631
0.00294347
0.00307618
0.00346664
0.00377699
0.00502898
0.00147635
0.00257836
0.00236181
0.0022219
0.0022134
0.00225132
0.00226229
0.00230095
0.00232047
0.00237982
0.00241287
0.00249676
0.00254614
0.00266952
0.00274574
0.00294388
0.00307547
0.00346641
0.00377623
0.004981
0.00149983
0.00255584
0.00236109
0.00222183
0.00221337
0.00225106
0.00226242
0.00230074
0.00232067
0.00237956
0.00241311
0.00249645
0.00254642
0.00266913
0.002746
0.00294339
0.00307561
0.00346522
0.00377449
0.00493406
0.00152391
0.00253295
0.00235985
0.00222215
0.0022132
0.00225118
0.00226231
0.00230088
0.00232053
0.00237967
0.00241295
0.00249651
0.00254626
0.00266907
0.00274592
0.00294299
0.00307574
0.00346318
0.00377305
0.00488591
0.00154875
0.00250946
0.00235854
0.00222235
0.00221321
0.002251
0.00226236
0.00230073
0.00232058
0.00237952
0.00241297
0.00249635
0.00254625
0.00266888
0.00274584
0.00294257
0.00307567
0.00346084
0.00377126
0.00483611
0.00157417
0.00248573
0.00235678
0.00222273
0.00221303
0.00225095
0.00226229
0.00230072
0.00232053
0.00237946
0.00241294
0.00249622
0.00254622
0.00266861
0.00274582
0.00294196
0.00307563
0.00345802
0.00376885
0.00478506
0.00160026
0.00246163
0.00235475
0.00222306
0.00221293
0.00225081
0.00226228
0.00230064
0.0023205
0.00237935
0.00241289
0.00249605
0.00254616
0.0026683
0.00274575
0.0029412
0.0030756
0.00345455
0.0037659
0.00473287
0.00162679
0.00243742
0.00235231
0.0022235
0.00221277
0.00225066
0.00226224
0.00230055
0.00232047
0.00237922
0.00241285
0.00249585
0.0025461
0.00266793
0.00274566
0.0029403
0.0030755
0.00345045
0.00376235
0.00467957
0.00165376
0.0024131
0.00234951
0.00222397
0.0022126
0.00225048
0.00226219
0.00230045
0.00232042
0.00237906
0.00241279
0.00249559
0.00254603
0.00266747
0.00274556
0.0029392
0.00307535
0.00344568
0.00375811
0.0046252
0.00168112
0.00238877
0.00234628
0.00222448
0.00221241
0.00225026
0.00226213
0.00230032
0.00232037
0.00237888
0.00241272
0.00249529
0.00254593
0.00266692
0.00274543
0.00293791
0.00307513
0.00344017
0.0037531
0.00456987
0.0017088
0.00236451
0.00234262
0.00222503
0.00221221
0.00225001
0.00226206
0.00230017
0.00232031
0.00237865
0.00241263
0.00249494
0.00254582
0.00266628
0.00274527
0.00293638
0.00307481
0.00343389
0.00374723
0.00451366
0.00173668
0.00234047
0.0023385
0.00222561
0.00221199
0.00224971
0.00226197
0.00229999
0.00232023
0.00237839
0.00241253
0.00249452
0.00254569
0.00266552
0.00274508
0.00293461
0.00307438
0.00342677
0.00374042
0.00445667
0.00176464
0.00231676
0.00233394
0.00222621
0.00221176
0.00224936
0.00226187
0.00229978
0.00232014
0.00237808
0.00241242
0.00249404
0.00254553
0.00266464
0.00274484
0.00293255
0.0030738
0.00341879
0.00373256
0.00439899
0.00179258
0.00229352
0.0023289
0.00222681
0.00221151
0.00224897
0.00226174
0.00229953
0.00232004
0.00237772
0.00241228
0.00249347
0.00254535
0.00266361
0.00274455
0.00293019
0.00307303
0.00340989
0.00372357
0.00434073
0.00182039
0.00227084
0.0023234
0.00222741
0.00221126
0.00224851
0.0022616
0.00229924
0.00231991
0.0023773
0.00241212
0.00249282
0.00254513
0.00266244
0.00274419
0.00292749
0.00307205
0.00340005
0.00371333
0.00428202
0.00184795
0.00224886
0.00231744
0.00222798
0.002211
0.00224799
0.00226142
0.0022989
0.00231977
0.00237683
0.00241193
0.00249207
0.00254486
0.00266109
0.00274376
0.00292443
0.00307079
0.00338921
0.00370174
0.00422296
0.0018751
0.00222773
0.00231105
0.0022285
0.00221073
0.00224741
0.00226122
0.00229852
0.0023196
0.00237627
0.00241171
0.00249121
0.00254456
0.00265954
0.00274324
0.00292096
0.00306922
0.00337736
0.00368869
0.00416367
0.00190164
0.00220764
0.00230423
0.00222894
0.00221046
0.00224676
0.00226098
0.00229807
0.00231941
0.00237564
0.00241145
0.00249022
0.00254419
0.00265779
0.0027426
0.00291707
0.00306727
0.00336446
0.00367409
0.00410427
0.00192733
0.00218881
0.00229704
0.00222929
0.00221019
0.00224602
0.00226071
0.00229756
0.00231917
0.00237492
0.00241115
0.0024891
0.00254376
0.0026558
0.00274182
0.00291271
0.00306487
0.0033505
0.00365781
0.00404487
0.00195174
0.00217158
0.00228948
0.0022295
0.00220993
0.00224522
0.00226039
0.00229697
0.00231891
0.0023741
0.00241081
0.00248784
0.00254325
0.00265357
0.00274089
0.00290786
0.00306196
0.00333545
0.00363977
0.00398558
0.00197434
0.00215671
0.00228161
0.00222951
0.00220966
0.00224431
0.00226001
0.0022963
0.0023186
0.00237317
0.0024104
0.0024864
0.00254264
0.00265106
0.00273975
0.00290247
0.00305845
0.00331932
0.00361987
0.00392648
0.00199353
0.00214527
0.00227367
0.00222935
0.0022094
0.00224332
0.00225958
0.00229554
0.00231825
0.00237211
0.00240992
0.00248479
0.00254193
0.00264824
0.00273839
0.00289653
0.00305426
0.00330208
0.00359803
0.00386768
0.00200899
0.00213752
0.0022658
0.00222901
0.00220916
0.00224224
0.0022591
0.00229468
0.00231783
0.00237093
0.00240937
0.00248298
0.00254109
0.00264511
0.00273675
0.00288999
0.00304929
0.00328377
0.00357416
0.00380929
0.00202201
0.00213243
0.00225783
0.00222837
0.00220889
0.00224104
0.00225852
0.0022937
0.00231735
0.00236959
0.00240872
0.00248096
0.00254009
0.00264163
0.00273479
0.00288285
0.00304343
0.0032644
0.00354819
0.00375139
0.00203379
0.00212882
0.00224974
0.00222742
0.00220861
0.00223975
0.00225787
0.0022926
0.00231679
0.00236809
0.00240796
0.0024787
0.00253891
0.00263779
0.00273246
0.00287505
0.00303661
0.00324396
0.00352009
0.00369401
0.00204477
0.00212607
0.00224163
0.00222618
0.00220832
0.00223834
0.00225713
0.00229136
0.00231615
0.00236642
0.00240708
0.00247619
0.00253752
0.00263355
0.00272968
0.0028666
0.00302869
0.00322247
0.00348985
0.00363717
0.00205504
0.00212401
0.00223363
0.00222464
0.00220798
0.00223682
0.00225629
0.00228997
0.0023154
0.00236455
0.00240605
0.0024734
0.00253588
0.00262889
0.00272641
0.00285744
0.00301958
0.00319997
0.00345747
0.00358089
0.00206458
0.00212258
0.00222578
0.00222276
0.00220759
0.00223518
0.00225532
0.0022884
0.00231454
0.00236248
0.00240484
0.00247033
0.00253396
0.00262379
0.00272255
0.00284757
0.00300918
0.00317644
0.00342296
0.00352517
0.00207339
0.00212171
0.00221814
0.00222055
0.00220712
0.0022334
0.00225423
0.00228667
0.00231353
0.00236018
0.00240344
0.00246694
0.00253169
0.00261822
0.00271805
0.00283695
0.00299738
0.00315193
0.0033864
0.00346998
0.00208145
0.00212135
0.00221075
0.002218
0.00220655
0.00223149
0.002253
0.00228472
0.00231236
0.00235763
0.0024018
0.00246322
0.00252905
0.00261216
0.0027128
0.00282558
0.00298409
0.00312643
0.00334786
0.0034153
0.00208875
0.00212141
0.00220368
0.00221511
0.00220585
0.00222943
0.0022516
0.00228257
0.00231101
0.00235482
0.00239989
0.00245914
0.00252596
0.00260558
0.00270673
0.00281342
0.00296923
0.00309997
0.00330746
0.00336107
0.00209529
0.00212182
0.00219694
0.00221188
0.002205
0.00222722
0.00225002
0.00228018
0.00230945
0.00235173
0.00239768
0.00245468
0.00252236
0.00259847
0.00269975
0.00280045
0.00295273
0.00307255
0.00326532
0.00330724
0.00210108
0.00212247
0.00219056
0.00220834
0.00220396
0.00222484
0.00224825
0.00227754
0.00230763
0.00234834
0.0023951
0.00244982
0.00251819
0.00259078
0.00269177
0.00278664
0.00293453
0.00304416
0.00322161
0.00325375
0.0021061
0.00212328
0.00218457
0.00220449
0.0022027
0.00222227
0.00224625
0.00227462
0.00230554
0.00234463
0.00239213
0.00244454
0.00251339
0.0025825
0.0026827
0.00277196
0.00291461
0.00301479
0.00317651
0.00320053
0.0021104
0.00212414
0.00217897
0.00220036
0.00220119
0.00221951
0.002244
0.00227143
0.00230312
0.00234057
0.00238868
0.00243881
0.00250786
0.00257359
0.00267247
0.00275637
0.00289296
0.00298444
0.00313021
0.00314754
0.00211397
0.00212497
0.00217373
0.00219595
0.00219939
0.00221653
0.00224147
0.00226791
0.00230034
0.00233616
0.00238473
0.00243259
0.00250155
0.00256401
0.002661
0.00273984
0.00286958
0.00295308
0.00308294
0.00309471
0.00211684
0.00212566
0.00216884
0.00219131
0.00219726
0.00221331
0.00223864
0.00226407
0.00229713
0.00233134
0.00238019
0.00242587
0.00249438
0.00255372
0.00264823
0.00272231
0.00284451
0.0029207
0.00303488
0.00304202
0.002119
0.00212612
0.00216424
0.00218644
0.00219477
0.00220982
0.00223545
0.00225986
0.00229346
0.00232611
0.00237501
0.0024186
0.00248628
0.00254268
0.00263411
0.00270374
0.0028178
0.00288727
0.00298626
0.00298945
0.00212049
0.00212628
0.00215989
0.00218138
0.00219189
0.00220605
0.00223188
0.00225528
0.00228926
0.00232041
0.00236913
0.00241074
0.00247717
0.00253082
0.0026186
0.00268406
0.00278954
0.0028528
0.00293728
0.002937
0.00212128
0.00212605
0.00215571
0.00217612
0.00218857
0.00220196
0.00222788
0.00225028
0.00228449
0.00231424
0.00236248
0.00240224
0.00246702
0.00251809
0.00260169
0.00266323
0.0027598
0.00281726
0.0028881
0.0028847
0.00212143
0.00212538
0.00215162
0.00217068
0.00218479
0.00219751
0.00222341
0.00224486
0.00227907
0.00230753
0.00235499
0.00239305
0.00245574
0.00250442
0.00258335
0.00264118
0.00272871
0.00278069
0.00283889
0.0028326
0.00212087
0.00212419
0.00214751
0.00216505
0.00218049
0.00219267
0.00221841
0.00223895
0.00227296
0.00230025
0.00234662
0.00238311
0.00244332
0.00248975
0.00256362
0.00261788
0.00269636
0.00274309
0.00278979
0.00278074
0.00211965
0.00212245
0.0021433
0.00215923
0.00217567
0.0021874
0.00221284
0.00223254
0.0022661
0.00229232
0.0023373
0.00237235
0.00242969
0.00247398
0.0025425
0.00259327
0.00266288
0.00270452
0.0027409
0.0027292
0.00211771
0.0021201
0.00213887
0.00215317
0.00217027
0.00218165
0.00220663
0.00222556
0.00225843
0.00228371
0.00232699
0.0023607
0.00241486
0.00245706
0.00252004
0.00256733
0.00262837
0.00266504
0.0026923
0.00267807
0.00211507
0.00211711
0.00213411
0.00214686
0.00216426
0.00217538
0.00219974
0.00221799
0.0022499
0.00227433
0.00231564
0.00234807
0.00239879
0.00243891
0.00249625
0.00254004
0.00259295
0.00262473
0.00264404
0.00262742
0.00211164
0.00211343
0.00212892
0.00214023
0.00215761
0.00216853
0.00219211
0.00220973
0.00224047
0.00226412
0.00230322
0.00233439
0.00238149
0.00241948
0.0024712
0.00251141
0.00255671
0.00258369
0.00259617
0.00257732
0.00210745
0.00210903
0.00212319
0.00213322
0.00215028
0.00216104
0.00218369
0.00220075
0.00223008
0.00225299
0.00228969
0.00231958
0.00236293
0.00239871
0.00244493
0.00248148
0.00251973
0.00254202
0.0025487
0.00252784
0.00210241
0.00210386
0.00211682
0.00212575
0.00214222
0.00215284
0.00217443
0.00219096
0.00221869
0.00224087
0.00227502
0.00230357
0.00234313
0.00237657
0.00241748
0.00245028
0.00248209
0.00249985
0.00250162
0.00247902
0.0020965
0.00209788
0.00210973
0.00211772
0.00213339
0.00214388
0.00216426
0.00218029
0.00220627
0.00222767
0.00225919
0.00228629
0.00232209
0.00235305
0.00238889
0.00241789
0.00244386
0.00245729
0.00245496
0.00243088
0.00208964
0.00209102
0.00210183
0.00210904
0.00212373
0.00213406
0.00215314
0.00216864
0.00219278
0.00221331
0.00224217
0.00226769
0.0022998
0.00232813
0.0023592
0.00238438
0.00240509
0.00241444
0.00240868
0.00238345
0.00208182
0.00208323
0.00209302
0.00209961
0.00211319
0.00212332
0.00214103
0.00215595
0.00217816
0.00219773
0.00222393
0.00224773
0.00227627
0.00230185
0.00232845
0.00234983
0.00236584
0.0023714
0.0023628
0.0023367
0.00207293
0.00207444
0.00208325
0.00208931
0.00210171
0.00211157
0.00212785
0.00214212
0.0021624
0.00218087
0.00220445
0.00222638
0.0022515
0.00227424
0.00229669
0.00231435
0.00232615
0.00232825
0.0023173
0.00229062
0.00206294
0.00206456
0.00207243
0.00207804
0.00208923
0.00209873
0.00211356
0.00212709
0.00214543
0.00216266
0.0021837
0.00220363
0.0022255
0.00224533
0.00226394
0.00227803
0.00228607
0.00228508
0.00227217
0.00224517
0.00205176
0.00205353
0.00206048
0.00206569
0.00207566
0.00208471
0.0020981
0.00211078
0.00212721
0.00214308
0.00216166
0.00217948
0.00219826
0.00221519
0.00223025
0.00224095
0.00224565
0.00224192
0.00222742
0.00220032
0.00203935
0.00204125
0.00204734
0.00205215
0.00206094
0.00206944
0.0020814
0.00209313
0.00210771
0.00212208
0.0021383
0.00215394
0.00216981
0.00218388
0.00219566
0.0022032
0.00220493
0.00219882
0.00218302
0.002156
0.00202561
0.00202764
0.00203293
0.00203732
0.00204499
0.00205283
0.00206341
0.00207407
0.00208686
0.00209964
0.00211361
0.00212703
0.00214016
0.00215145
0.00216022
0.00216485
0.00216396
0.0021558
0.00213897
0.00211218
0.00201049
0.00201261
0.00201718
0.00202112
0.00202772
0.00203482
0.00204407
0.00205358
0.00206463
0.00207576
0.00208756
0.00209878
0.00210932
0.00211797
0.00212398
0.00212597
0.00212277
0.00211288
0.00209525
0.00206881
0.00199389
0.00199609
0.00199999
0.00200345
0.00200905
0.00201535
0.0020233
0.0020316
0.00204099
0.00205043
0.00206016
0.00206921
0.00207734
0.00208349
0.00208699
0.0020866
0.00208139
0.00207005
0.00205182
0.00202582
0.00197576
0.001978
0.00198131
0.00198424
0.00198891
0.00199435
0.00200105
0.0020081
0.00201588
0.00202365
0.0020314
0.00203837
0.00204423
0.00204808
0.0020493
0.0020468
0.00203984
0.00202732
0.00200867
0.00198318
0.001956
0.00195826
0.00196103
0.00196343
0.00196721
0.00197176
0.00197727
0.00198305
0.0019893
0.00199541
0.0020013
0.00200629
0.00201005
0.00201178
0.00201094
0.0020066
0.00199815
0.00198467
0.00196575
0.00194082
0.00193457
0.00193681
0.00193911
0.00194094
0.0019439
0.00194756
0.00195192
0.00195645
0.00196122
0.00196574
0.00196986
0.00197299
0.00197482
0.00197463
0.00197197
0.00196602
0.00195632
0.00194208
0.00192303
0.00189871
0.00191138
0.0019136
0.00191546
0.00191674
0.0019189
0.00192168
0.00192495
0.00192826
0.00193163
0.00193464
0.00193711
0.00193852
0.00193859
0.00193668
0.00193241
0.00192509
0.00191434
0.00189953
0.00188047
0.00185678
0.00188639
0.00188857
0.00189003
0.00189076
0.00189219
0.00189411
0.00189633
0.00189848
0.00190054
0.00190212
0.00190307
0.00190291
0.00190139
0.00189795
0.00189229
0.0018838
0.00187221
0.00185699
0.00183801
0.00181499
0.00185955
0.00186168
0.00186277
0.00186298
0.00186371
0.00186482
0.00186606
0.00186711
0.00186794
0.00186821
0.00186777
0.00186619
0.00186326
0.00185849
0.00185163
0.00184218
0.00182992
0.00181443
0.00179563
0.00177328
0.00183082
0.00183291
0.00183365
0.00183336
0.00183345
0.00183379
0.00183413
0.00183416
0.00183386
0.00183293
0.00183123
0.00182839
0.00182422
0.0018183
0.00181043
0.00180021
0.00178744
0.00177181
0.00175325
0.00173159
0.00180017
0.00180222
0.00180265
0.0018019
0.00180139
0.00180103
0.00180052
0.00179962
0.0017983
0.0017963
0.00179348
0.00178954
0.00178429
0.00177741
0.00176872
0.00175788
0.00174476
0.00172909
0.00171085
0.00168988
0.00176761
0.00176961
0.00176976
0.00176858
0.00176754
0.00176652
0.00176527
0.00176353
0.0017613
0.00175835
0.00175456
0.00174966
0.00174351
0.00173583
0.00172647
0.00171518
0.00170183
0.00168623
0.00166835
0.0016481
0.00173312
0.00173508
0.00173498
0.00173342
0.00173189
0.0017303
0.00172837
0.0017259
0.00172287
0.0017191
0.00171447
0.00170877
0.00170188
0.00169356
0.0016837
0.00167208
0.00165863
0.00164318
0.00162572
0.00160617
0.00169673
0.00169865
0.00169833
0.00169644
0.00169447
0.00169239
0.00168988
0.00168677
0.00168305
0.00167859
0.00167326
0.00166691
0.00165942
0.00165061
0.00164038
0.00162857
0.00161511
0.00159989
0.00158289
0.00156407
0.00165846
0.00166036
0.00165984
0.00165766
0.00165533
0.00165282
0.00164981
0.00164616
0.00164188
0.00163684
0.00163096
0.00162409
0.00161614
0.00160697
0.00159651
0.00158462
0.00157125
0.00155632
0.00153982
0.00152172
0.00161838
0.00162024
0.00161956
0.00161714
0.0016145
0.00161163
0.00160821
0.00160413
0.00159939
0.0015939
0.00158758
0.00158032
0.00157204
0.00156265
0.00155206
0.0015402
0.001527
0.00151243
0.00149646
0.00147908
0.00157652
0.00157836
0.00157755
0.00157493
0.00157204
0.00156889
0.00156515
0.00156072
0.00155562
0.00154979
0.00154315
0.00153562
0.00152714
0.00151763
0.00150703
0.00149527
0.00148233
0.00146816
0.00145275
0.0014361
0.00153296
0.00153478
0.00153387
0.00153109
0.00152802
0.00152465
0.00152066
0.00151598
0.00151063
0.00150456
0.00149771
0.00149002
0.00148144
0.00147191
0.00146139
0.00144982
0.00143719
0.00142347
0.00140865
0.00139273
0.00148779
0.00148959
0.0014886
0.00148571
0.00148251
0.00147898
0.00147482
0.00146997
0.00146445
0.00145823
0.00145128
0.00144352
0.00143494
0.00142548
0.00141512
0.00140382
0.00139156
0.00137832
0.00136411
0.00134893
0.00144108
0.00144286
0.00144182
0.00143886
0.00143557
0.00143195
0.00142769
0.00142274
0.00141714
0.00141086
0.00140388
0.00139615
0.00138765
0.00137835
0.00136822
0.00135723
0.00134539
0.00133267
0.00131909
0.00130464
0.00139292
0.00139469
0.00139362
0.00139063
0.00138729
0.00138363
0.00137933
0.00137435
0.00136874
0.00136248
0.00135556
0.00134793
0.00133958
0.0013305
0.00132066
0.00131005
0.00129866
0.00128649
0.00127355
0.00125983
0.00134342
0.00134517
0.00134409
0.0013411
0.00133776
0.00133409
0.00132981
0.00132487
0.00131931
0.00131314
0.00130633
0.00129887
0.00129074
0.00128194
0.00127244
0.00126224
0.00125135
0.00123975
0.00122745
0.00121446
0.00129265
0.00129439
0.00129332
0.00129036
0.00128705
0.00128343
0.0012792
0.00127434
0.00126889
0.00126286
0.00125624
0.001249
0.00124114
0.00123266
0.00122355
0.0012138
0.00120342
0.0011924
0.00118076
0.0011685
0.00124073
0.00124246
0.00124141
0.00123849
0.00123525
0.0012317
0.00122758
0.00122284
0.00121755
0.00121171
0.0012053
0.00119833
0.00119079
0.00118267
0.00117398
0.00116471
0.00115486
0.00114444
0.00113345
0.00112192
0.00118774
0.00118944
0.00118843
0.00118558
0.00118243
0.00117899
0.001175
0.00117042
0.00116532
0.0011597
0.00115356
0.0011469
0.0011397
0.00113198
0.00112373
0.00111495
0.00110565
0.00109583
0.0010855
0.00107468
0.00113376
0.00113544
0.00113447
0.00113171
0.00112867
0.00112536
0.00112152
0.00111714
0.00111225
0.00110689
0.00110105
0.00109471
0.00108789
0.00108058
0.00107279
0.00106452
0.00105578
0.00104656
0.00103689
0.00102677
0.00107887
0.00108052
0.0010796
0.00107695
0.00107403
0.00107087
0.00106721
0.00106303
0.0010584
0.00105331
0.00104778
0.00104179
0.00103536
0.00102848
0.00102117
0.00101341
0.00100523
0.000996621
0.000987594
0.00097816
0.00102314
0.00102476
0.00102389
0.00102135
0.00101857
0.00101557
0.00101211
0.00100816
0.00100378
0.000998989
0.000993784
0.000988163
0.000982133
0.000975697
0.000968859
0.000961625
0.000953998
0.000945986
0.000937597
0.000928838
0.000966624
0.000968198
0.000967387
0.000964975
0.000962338
0.000959512
0.000956254
0.000952543
0.000948435
0.000943949
0.000939081
0.000933834
0.000928212
0.00092222
0.000915863
0.000909144
0.00090207
0.000894648
0.000886882
0.000878783
0.000909355
0.000910884
0.000910134
0.000907854
0.000905372
0.000902725
0.000899678
0.000896212
0.000892382
0.000888206
0.000883682
0.000878811
0.000873599
0.00086805
0.00086217
0.000855963
0.000849433
0.000842588
0.000835433
0.000827975
0.000851381
0.000852851
0.000852159
0.000850015
0.000847693
0.000845228
0.000842397
0.000839181
0.000835632
0.000831768
0.000827588
0.000823093
0.000818289
0.00081318
0.00080777
0.000802065
0.000796069
0.000789788
0.000783227
0.000776393
0.000792673
0.000794088
0.00079346
0.00079146
0.000789303
0.000787024
0.00078441
0.000781445
0.000778178
0.000774626
0.000770788
0.000766666
0.000762264
0.000757589
0.000752642
0.000747429
0.000741954
0.000736222
0.000730239
0.000724009
0.00073328
0.000734616
0.000734041
0.000732185
0.000730193
0.0007281
0.000725704
0.00072299
0.000720004
0.000716761
0.000713262
0.000709507
0.000705502
0.00070125
0.000696756
0.000692023
0.000687055
0.000681857
0.000676433
0.000670789
0.000673081
0.000674352
0.000673844
0.000672142
0.000670321
0.000668416
0.000666239
0.000663774
0.000661066
0.00065813
0.000654964
0.00065157
0.000647953
0.000644117
0.000640064
0.000635799
0.000631324
0.000626645
0.000621763
0.000616686
0.000612144
0.000613311
0.000612849
0.000611295
0.000609642
0.000607922
0.000605961
0.000603744
0.00060131
0.000598675
0.000595837
0.000592797
0.000589559
0.000586128
0.000582505
0.000578694
0.000574697
0.00057052
0.000566163
0.000561633
0.000550208
0.000551302
0.00055091
0.000549522
0.000548047
0.000546517
0.000544772
0.000542801
0.000540639
0.000538301
0.000535785
0.000533093
0.000530227
0.000527192
0.000523989
0.000520621
0.000517092
0.000513403
0.000509557
0.000505559
0.000487369
0.000488336
0.000487983
0.000486745
0.000485437
0.000484089
0.000482556
0.000480826
0.000478932
0.000476885
0.000474684
0.000472331
0.000469828
0.000467178
0.000464383
0.000461446
0.000458368
0.000455153
0.000451801
0.000448318
0.000423214
0.000424088
0.0004238
0.000422731
0.000421604
0.000420445
0.000419127
0.00041764
0.000416012
0.000414256
0.000412368
0.000410351
0.000408207
0.000405939
0.000403548
0.000401035
0.000398404
0.000395655
0.000392791
0.000389815
0.000357719
0.000358455
0.000358205
0.000357295
0.000356339
0.000355361
0.00035425
0.000352999
0.000351632
0.000350158
0.000348575
0.000346885
0.00034509
0.000343192
0.000341192
0.000339092
0.000336892
0.000334596
0.000332204
0.000329718
0.000290555
0.000291172
0.000290979
0.000290242
0.00028947
0.000288682
0.000287788
0.000286782
0.000285683
0.0002845
0.000283229
0.000281874
0.000280435
0.000278913
0.00027731
0.000275627
0.000273865
0.000272026
0.00027011
0.00026812
0.000221383
0.000221843
0.000221684
0.000221113
0.000220516
0.000219908
0.000219219
0.000218446
0.000217603
0.000216696
0.000215725
0.00021469
0.000213592
0.000212433
0.000211212
0.000209933
0.000208593
0.000207196
0.000205742
0.000204231
0.000149935
0.000150265
0.000150172
0.000149791
0.000149393
0.00014899
0.000148534
0.000148022
0.000147462
0.000146861
0.000146215
0.000145527
0.000144797
0.000144025
0.000143212
0.000142359
0.000141466
0.000140534
0.000139564
0.000138555
7.53019e-05
7.5439e-05
7.53611e-05
7.51518e-05
7.49355e-05
7.47141e-05
7.44652e-05
7.41884e-05
7.38886e-05
7.35682e-05
7.32265e-05
7.28644e-05
7.24817e-05
7.20795e-05
7.16572e-05
7.1216e-05
7.07553e-05
7.02763e-05
6.97783e-05
6.92626e-05
0.00553798
0.00317481
0.00205175
0.00181369
0.00178754
0.0017394
0.00169726
0.00165834
0.0015974
0.00152476
0.00145088
0.0013832
0.00131539
0.00125358
0.00119637
0.00114526
0.00109941
0.00105464
0.00101286
0.000974339
0.000936518
0.000901338
0.000869206
0.000838394
0.000807297
0.000778653
0.000751419
0.000724465
0.000698062
0.000674021
0.000650885
0.000627582
0.000604503
0.000582928
0.000561979
0.000541407
0.000521002
0.000501888
0.000483567
0.000465798
0.000447577
0.000430162
0.000413085
0.000396861
0.000380412
0.000364339
0.000348577
0.000333438
0.000318494
0.000304041
0.000289368
0.000275193
0.000261061
0.000247648
0.000234482
0.00022165
0.000208762
0.000196358
0.000184046
0.000172376
0.000160644
0.000149206
0.000137803
0.000126656
0.000115576
0.000104893
9.47141e-05
8.45953e-05
7.47974e-05
6.49047e-05
5.58579e-05
4.62998e-05
3.80931e-05
2.89567e-05
2.19276e-05
1.28628e-05
7.23376e-06
-1.62688e-06
-4.16526e-06
-1.16092e-05
0.00551531
0.00319443
0.00208056
0.00184081
0.00180766
0.00175391
0.00170754
0.00166617
0.00160359
0.00152993
0.00145549
0.00138742
0.0013193
0.00125721
0.00119972
0.00114837
0.0011023
0.00105734
0.00101538
0.000976701
0.000938738
0.000903425
0.000871172
0.000840246
0.000809053
0.000780319
0.000753005
0.000725973
0.000699502
0.000675394
0.000652197
0.000628835
0.000605707
0.000584084
0.000563092
0.000542477
0.000522034
0.000502882
0.000484527
0.000466722
0.000448472
0.000431026
0.000413924
0.000397673
0.000381203
0.000365103
0.000349323
0.000334158
0.000319198
0.000304723
0.000290036
0.000275839
0.000261696
0.000248263
0.000235088
0.000222234
0.000209338
0.000196915
0.000184596
0.000172908
0.000161171
0.000149716
0.000138308
0.000127144
0.000116061
0.000105362
9.51811e-05
8.50457e-05
7.52465e-05
6.53377e-05
5.62906e-05
4.67171e-05
3.85108e-05
2.93608e-05
2.2331e-05
1.32531e-05
7.6242e-06
-1.2479e-06
-3.80174e-06
-1.1234e-05
0.00546425
0.00320238
0.00210164
0.00186325
0.00182837
0.00177195
0.00172174
0.00167659
0.00161175
0.00153685
0.00146169
0.00139305
0.00132452
0.00126205
0.00120423
0.00115258
0.00110624
0.00106101
0.00101883
0.000979943
0.000941798
0.000906307
0.000873899
0.000842821
0.000811497
0.000782644
0.000755222
0.000728086
0.000701522
0.000677325
0.000654044
0.000630601
0.000607403
0.000585715
0.000564665
0.00054399
0.000523495
0.00050429
0.000485888
0.000468034
0.000449742
0.000432253
0.000415117
0.000398826
0.000382326
0.00036619
0.000350383
0.000335184
0.000320201
0.000305695
0.000290986
0.000276761
0.000262601
0.000249141
0.00023595
0.00022307
0.000210161
0.000197712
0.000185382
0.000173669
0.000161924
0.000150444
0.00013903
0.000127842
0.000116755
0.000106033
9.58486e-05
8.56901e-05
7.58888e-05
6.59567e-05
5.69091e-05
4.73133e-05
3.91079e-05
2.99386e-05
2.29079e-05
1.38111e-05
8.18239e-06
-7.06499e-07
-3.28118e-06
-1.06948e-05
0.0054192
0.0032113
0.00211219
0.00186993
0.00183496
0.00178165
0.00173253
0.0016845
0.00161869
0.00154291
0.0014668
0.00139754
0.00132875
0.00126609
0.0012081
0.00115626
0.00110969
0.00106426
0.0010219
0.00098285
0.000944564
0.000908924
0.000876399
0.000845192
0.000813756
0.000784802
0.000757287
0.00073006
0.000703413
0.000679139
0.000655785
0.00063227
0.000609008
0.000587263
0.000566158
0.000545429
0.000524886
0.000505634
0.000487189
0.000469291
0.000450958
0.000433431
0.000416261
0.000399936
0.000383407
0.000367238
0.000351405
0.000336175
0.000321169
0.000306635
0.000291904
0.000277654
0.000263475
0.000249993
0.000236785
0.000223882
0.000210958
0.000198486
0.000186142
0.000174409
0.000162653
0.000151154
0.000139729
0.000128521
0.000117428
0.000106687
9.64971e-05
8.63184e-05
7.65132e-05
6.65599e-05
5.75099e-05
4.78937e-05
3.96879e-05
3.05019e-05
2.34685e-05
1.43548e-05
8.72424e-06
-1.78962e-07
-2.77638e-06
-1.01876e-05
0.00537343
0.00321873
0.00212368
0.00187872
0.00183873
0.00178376
0.00173516
0.00168922
0.00162496
0.00154809
0.00147145
0.00140153
0.00133247
0.00126977
0.00121176
0.00115963
0.00111275
0.00106721
0.00102474
0.000985584
0.00094721
0.000911467
0.000878849
0.00084752
0.000815984
0.000786941
0.000759346
0.000732035
0.000705315
0.000680969
0.000657554
0.000633967
0.000610643
0.000588843
0.000567687
0.000546905
0.000526315
0.000507016
0.000488531
0.000470589
0.000452216
0.000434651
0.000417446
0.000401086
0.000384527
0.000368327
0.000352466
0.000337207
0.000322176
0.000307617
0.000292861
0.000278587
0.000264387
0.000250885
0.000237657
0.000224732
0.000211791
0.000199299
0.000186939
0.000175186
0.000163417
0.000151899
0.000140462
0.000129235
0.000118134
0.000107376
9.71778e-05
8.69802e-05
7.71688e-05
6.71957e-05
5.81406e-05
4.8505e-05
4.02969e-05
3.10954e-05
2.40571e-05
1.49275e-05
9.29259e-06
3.77655e-07
-2.24931e-06
-9.67548e-06
0.00532451
0.00322554
0.00213631
0.00188815
0.00184409
0.00178697
0.00173519
0.00168884
0.00162608
0.00155171
0.00147636
0.00140536
0.00133624
0.00127351
0.00121528
0.00116275
0.00111569
0.00107011
0.00102754
0.000988321
0.000949925
0.000914095
0.000881309
0.000849834
0.000818228
0.000789127
0.000761475
0.000734095
0.000707319
0.000682909
0.000659434
0.000635771
0.000612392
0.000590533
0.000569331
0.000548492
0.00052786
0.000508512
0.000489991
0.000472
0.000453588
0.00043598
0.00041874
0.000402343
0.000385753
0.000369519
0.00035363
0.000338339
0.000323283
0.000308697
0.000293914
0.000279614
0.000265393
0.000251869
0.00023862
0.000225672
0.000212711
0.000200198
0.000187819
0.000176045
0.000164262
0.000152725
0.000141274
0.000130027
0.000118916
0.000108141
9.7932e-05
8.77155e-05
7.78953e-05
6.79029e-05
5.88396e-05
4.91848e-05
4.09722e-05
3.17555e-05
2.47099e-05
1.55643e-05
9.92277e-06
9.97014e-07
-1.66654e-06
-9.12043e-06
0.00527353
0.00323259
0.00214949
0.00189787
0.0018499
0.00179008
0.0017366
0.00168925
0.00162531
0.00155155
0.00147715
0.00140786
0.00134024
0.00127709
0.00121824
0.00116576
0.00111871
0.00107297
0.00103019
0.000991002
0.000952624
0.00091667
0.000883692
0.000852113
0.000820484
0.000791344
0.000763645
0.000736209
0.000709403
0.00068491
0.000661322
0.000637596
0.000614177
0.000592276
0.000571043
0.000550157
0.00052949
0.000510096
0.000491537
0.000473494
0.000455048
0.000437393
0.000420122
0.000403684
0.000387068
0.000370798
0.000354884
0.00033956
0.000324479
0.000309862
0.000295054
0.000280723
0.000266483
0.000252934
0.000239665
0.000226691
0.000213712
0.000201175
0.000188776
0.000176981
0.000165183
0.000153625
0.000142157
0.000130889
0.000119768
0.000108976
9.87551e-05
8.85194e-05
7.86882e-05
6.86769e-05
5.96026e-05
4.99289e-05
4.17098e-05
3.24784e-05
2.54232e-05
1.62616e-05
1.06112e-05
1.6751e-06
-1.03075e-06
-8.52444e-06
0.00522073
0.00323939
0.00216293
0.00190792
0.00185575
0.00179349
0.00173833
0.00168979
0.00162572
0.00155185
0.00147664
0.00140773
0.00134088
0.00127871
0.00122133
0.00116928
0.00112142
0.00107534
0.00103267
0.000993562
0.000955114
0.000918993
0.000885974
0.000854429
0.000822773
0.000793529
0.000765789
0.000738309
0.00071149
0.000686908
0.000663198
0.00063942
0.00061598
0.000594062
0.000572808
0.000551883
0.000531186
0.000511727
0.000493094
0.000475011
0.000456539
0.000438846