/*--------------------------------*- C++ -*----------------------------------*\
| =========                 |                                                 |
| \\      /  F ield         | OpenFOAM: The Open Source CFD Toolbox           |
|  \\    /   O peration     | Version:  v1912                                 |
|   \\  /    A nd           | Website:  www.openfoam.com                      |
|    \\/     M anipulation  |                                                 |
\*---------------------------------------------------------------------------*/
FoamFile
{
    version     2.0;
    format      ascii;
    class       surfaceScalarField;
    location    "800";
    object      phi;
}
// * * * * * * * * * * * * * * * * * * * * * * * * * * * * * * * * * * * * * //

dimensions      [0 3 -1 0 0 0 0];
oriented        oriented;


internalField   nonuniform List<scalar> 
19800
(
2.28521e-07
-1.3977e-08
2.2853e-07
-8.76222e-12
2.28672e-07
-1.42787e-10
2.28515e-07
1.57603e-10
2.28695e-07
-1.81182e-10
2.28515e-07
1.79809e-10
2.28697e-07
-1.82132e-10
2.28505e-07
1.92949e-10
2.28691e-07
-1.87111e-10
2.28485e-07
2.06346e-10
2.28677e-07
-1.91173e-10
2.28456e-07
2.20661e-10
2.28649e-07
-1.92798e-10
2.28413e-07
2.36449e-10
2.286e-07
-1.86984e-10
2.28346e-07
2.53956e-10
2.28502e-07
-1.56954e-10
2.28239e-07
2.63663e-10
2.28175e-07
6.32974e-11
5.01146e-10
2.27674e-07
2.42204e-07
-1.70896e-08
2.42473e-07
-2.77983e-10
2.42305e-07
2.49291e-11
2.4244e-07
2.25705e-11
2.42293e-07
-3.48334e-11
2.42429e-07
4.32808e-11
2.42263e-07
-1.58061e-11
2.42411e-07
4.49455e-11
2.42227e-07
-3.09103e-12
2.42387e-07
4.57367e-11
2.42183e-07
1.33655e-11
2.42358e-07
4.6194e-11
2.42128e-07
3.73572e-11
2.42317e-07
4.73332e-11
2.4205e-07
7.96858e-11
2.42255e-07
4.95141e-11
2.41921e-07
1.76443e-10
2.4215e-07
3.45012e-11
2.41534e-07
6.78901e-10
4.19295e-10
2.41616e-07
2.55714e-07
-1.67758e-08
2.55917e-07
-4.80673e-10
2.55845e-07
9.64662e-11
2.55899e-07
-3.11814e-11
2.55859e-07
5.08065e-12
2.55899e-07
2.72248e-12
2.55852e-07
3.13455e-11
2.55887e-07
9.58939e-12
2.55837e-07
4.69553e-11
2.55867e-07
1.54583e-11
2.55813e-07
6.78971e-11
2.55837e-07
2.18215e-11
2.55775e-07
9.95183e-11
2.55793e-07
3.00385e-11
2.55714e-07
1.58244e-10
2.55723e-07
4.07933e-11
2.55599e-07
2.99715e-10
2.55603e-07
3.06177e-11
2.55232e-07
1.0499e-09
6.11203e-10
2.5504e-07
2.70137e-07
-1.60968e-08
2.70304e-07
-6.48071e-10
2.70269e-07
1.31615e-10
2.70286e-07
-4.80837e-11
2.70279e-07
1.10368e-11
2.70285e-07
-2.8617e-12
2.7027e-07
4.59248e-11
2.70272e-07
7.42884e-12
2.70252e-07
6.65429e-11
2.70252e-07
1.65826e-11
2.70225e-07
9.42545e-11
2.70221e-07
2.61654e-11
2.70184e-07
1.36805e-10
2.70176e-07
3.82384e-11
2.70118e-07
2.16526e-10
2.70105e-07
5.38874e-11
2.69995e-07
4.09071e-10
2.69979e-07
4.62129e-11
2.69618e-07
1.41081e-09
8.29702e-10
2.69399e-07
2.85463e-07
-1.54964e-08
2.85623e-07
-8.08126e-10
2.85594e-07
1.60617e-10
2.85604e-07
-5.80724e-11
2.85602e-07
1.34028e-11
2.85601e-07
-2.70075e-12
2.85589e-07
5.79484e-11
2.85586e-07
1.07748e-11
2.85568e-07
8.40079e-11
2.85563e-07
2.23461e-11
2.85537e-07
1.19604e-10
2.85529e-07
3.47829e-11
2.85491e-07
1.74267e-10
2.85479e-07
5.04069e-11
2.85419e-07
2.76582e-10
2.85402e-07
7.05003e-11
2.85288e-07
5.23913e-10
2.85266e-07
6.77006e-11
2.84899e-07
1.77747e-09
1.06445e-09
2.84664e-07
3.01666e-07
-1.49013e-08
3.01825e-07
-9.66869e-10
3.01797e-07
1.88758e-10
3.01807e-07
-6.8229e-11
3.01803e-07
1.71795e-11
3.01804e-07
-3.69694e-12
3.01789e-07
7.19738e-11
3.01787e-07
1.27957e-11
3.01767e-07
1.04373e-10
3.01762e-07
2.72367e-11
3.01734e-07
1.48219e-10
3.01726e-07
4.25493e-11
3.01685e-07
2.15737e-10
3.01673e-07
6.18913e-11
3.01608e-07
3.41973e-10
3.01591e-07
8.71151e-11
3.01469e-07
6.46327e-10
3.01444e-07
9.20444e-11
3.0107e-07
2.15118e-09
1.31048e-09
3.00824e-07
3.18789e-07
-1.4299e-08
3.18944e-07
-1.12222e-09
3.18918e-07
2.14684e-10
3.18927e-07
-7.74345e-11
3.18923e-07
2.1323e-11
3.18923e-07
-4.47332e-12
3.18909e-07
8.68292e-11
3.18906e-07
1.55079e-11
3.18885e-07
1.25352e-10
3.1888e-07
3.24283e-11
3.1885e-07
1.7815e-10
3.18842e-07
5.0852e-11
3.18798e-07
2.59304e-10
3.18786e-07
7.41782e-11
3.18717e-07
4.10629e-10
3.18699e-07
1.04806e-10
3.18571e-07
7.75021e-10
3.18541e-07
1.21839e-10
3.18164e-07
2.52827e-09
1.57014e-09
3.17904e-07
3.36883e-07
-1.36691e-08
3.37034e-07
-1.27322e-09
3.3701e-07
2.38135e-10
3.37018e-07
-8.58488e-11
3.37014e-07
2.57934e-11
3.37015e-07
-5.46753e-12
3.36999e-07
1.02377e-10
3.36996e-07
1.79635e-11
3.36974e-07
1.47909e-10
3.36968e-07
3.81188e-11
3.36937e-07
2.09841e-10
3.36928e-07
5.98081e-11
3.36882e-07
3.05287e-10
3.36869e-07
8.7406e-11
3.36797e-07
4.83068e-10
3.36777e-07
1.24307e-10
3.36642e-07
9.09572e-10
3.36607e-07
1.57067e-10
3.36227e-07
2.90784e-09
1.84324e-09
3.35954e-07
3.56003e-07
-1.29832e-08
3.56148e-07
-1.41904e-09
3.56127e-07
2.59401e-10
3.56135e-07
-9.38367e-11
3.56129e-07
3.1481e-11
3.56131e-07
-6.95399e-12
3.56113e-07
1.19614e-10
3.56111e-07
2.04162e-11
3.56087e-07
1.71921e-10
3.56082e-07
4.32994e-11
3.56048e-07
2.43798e-10
3.56039e-07
6.85151e-11
3.5599e-07
3.5437e-10
3.55977e-07
1.00733e-10
3.559e-07
5.59782e-10
3.5588e-07
1.4437e-10
3.55738e-07
1.05139e-09
3.55697e-07
1.98016e-10
3.55316e-07
3.28933e-09
2.12947e-09
3.55029e-07
3.76209e-07
-1.22994e-08
3.76347e-07
-1.55777e-09
3.76329e-07
2.77136e-10
3.76336e-07
-1.00517e-10
3.7633e-07
3.71688e-11
3.76331e-07
-8.26926e-12
3.76313e-07
1.37126e-10
3.76311e-07
2.30035e-11
3.76285e-07
1.9722e-10
3.76279e-07
4.95e-11
3.76244e-07
2.79223e-10
3.76234e-07
7.84128e-11
3.76183e-07
4.05618e-10
3.76168e-07
1.15618e-10
3.76088e-07
6.40027e-10
3.76066e-07
1.67222e-10
3.75918e-07
1.19833e-09
3.7587e-07
2.4628e-10
3.75489e-07
3.66963e-09
2.4303e-09
3.75189e-07
3.97563e-07
-1.16219e-08
3.97693e-07
-1.68791e-09
3.97679e-07
2.91562e-10
3.97684e-07
-1.05987e-10
3.97678e-07
4.36348e-11
3.97679e-07
-9.3563e-12
3.9766e-07
1.55812e-10
3.97657e-07
2.64429e-11
3.9763e-07
2.23308e-10
3.97624e-07
5.59466e-11
3.97587e-07
3.16313e-10
3.97576e-07
8.89193e-11
3.97523e-07
4.59391e-10
3.97507e-07
1.31575e-10
3.97423e-07
7.23969e-10
3.97398e-07
1.91868e-10
3.97244e-07
1.35179e-09
3.97188e-07
3.02619e-10
3.96809e-07
4.04847e-09
2.74512e-09
3.96494e-07
4.2013e-07
-1.09347e-08
4.2025e-07
-1.80841e-09
4.20239e-07
3.02415e-10
4.20243e-07
-1.10507e-10
4.20236e-07
5.07146e-11
4.20237e-07
-1.07694e-11
4.20218e-07
1.75313e-10
4.20215e-07
2.9463e-11
4.20186e-07
2.51443e-10
4.2018e-07
6.30255e-11
4.2014e-07
3.55639e-10
4.20129e-07
1.00238e-10
4.20073e-07
5.16155e-10
4.20055e-07
1.48806e-10
4.19967e-07
8.12318e-10
4.1994e-07
2.19399e-10
4.19781e-07
1.51082e-09
4.19716e-07
3.67211e-10
4.1934e-07
4.42411e-09
3.0735e-09
4.19012e-07
4.43977e-07
-1.02337e-08
4.44086e-07
-1.91756e-09
4.44079e-07
3.09647e-10
4.44082e-07
-1.13892e-10
4.44074e-07
5.89172e-11
4.44076e-07
-1.2062e-11
4.44055e-07
1.96232e-10
4.44051e-07
3.33217e-11
4.44022e-07
2.80536e-10
4.44014e-07
7.02711e-11
4.43973e-07
3.9687e-10
4.43961e-07
1.12169e-10
4.43902e-07
5.75708e-10
4.43883e-07
1.67252e-10
4.43791e-07
9.04567e-10
4.43761e-07
2.49241e-10
4.43596e-07
1.67614e-09
4.43521e-07
4.41471e-10
4.4315e-07
4.79513e-09
3.41549e-09
4.42808e-07
4.69178e-07
-9.52458e-09
4.69275e-07
-2.01418e-09
4.69271e-07
3.12845e-10
4.69274e-07
-1.16246e-10
4.69265e-07
6.78537e-11
4.69266e-07
-1.3622e-11
4.69244e-07
2.17938e-10
4.6924e-07
3.68188e-11
4.69209e-07
3.11787e-10
4.69201e-07
7.83736e-11
4.69158e-07
4.40423e-10
4.69145e-07
1.252e-10
4.69083e-07
6.38338e-10
4.69063e-07
1.87419e-10
4.68966e-07
1.00124e-09
4.68933e-07
2.82906e-10
4.68762e-07
1.84635e-09
4.68678e-07
5.25721e-10
4.68313e-07
5.15949e-09
3.77059e-09
4.67958e-07
4.9581e-07
-8.81819e-09
4.95892e-07
-2.09655e-09
4.95893e-07
3.12096e-10
4.95894e-07
-1.17395e-10
4.95884e-07
7.81132e-11
4.95885e-07
-1.4935e-11
4.95862e-07
2.41137e-10
4.95858e-07
4.13994e-11
4.95826e-07
3.43939e-10
4.95817e-07
8.6761e-11
4.95772e-07
4.85908e-10
4.95758e-07
1.39071e-10
4.95692e-07
7.03787e-10
4.9567e-07
2.09214e-10
4.9557e-07
1.10171e-09
4.95532e-07
3.19736e-10
4.95357e-07
2.02216e-09
4.95261e-07
6.21461e-10
4.94905e-07
5.5158e-09
4.13846e-09
4.94537e-07
5.23953e-07
-8.12305e-09
5.2402e-07
-2.16349e-09
5.24025e-07
3.07075e-10
5.24025e-07
-1.17504e-10
5.24014e-07
8.92536e-11
5.24015e-07
-1.64468e-11
5.23991e-07
2.65096e-10
5.23986e-07
4.56588e-11
5.23952e-07
3.7841e-10
5.23943e-07
9.62723e-11
5.23895e-07
5.33828e-10
5.2388e-07
1.54386e-10
5.23811e-07
7.72407e-10
5.23788e-07
2.33278e-10
5.23683e-07
1.20656e-09
5.23641e-07
3.61531e-10
5.23461e-07
2.20194e-09
5.23354e-07
7.28942e-10
5.23007e-07
5.86215e-09
4.51798e-09
5.22627e-07
5.53694e-07
-7.43403e-09
5.53744e-07
-2.21346e-09
5.53753e-07
2.98105e-10
5.53752e-07
-1.16503e-10
5.53739e-07
1.02021e-10
5.5374e-07
-1.76663e-11
5.53715e-07
2.90696e-10
5.5371e-07
5.1139e-11
5.53674e-07
4.13854e-10
5.53664e-07
1.06153e-10
5.53614e-07
5.83807e-10
5.53597e-07
1.70753e-10
5.53526e-07
8.43948e-10
5.535e-07
2.59415e-10
5.53391e-07
1.31513e-09
5.53344e-07
4.07475e-10
5.5316e-07
2.38649e-09
5.5304e-07
8.49599e-10
5.52705e-07
6.19737e-09
4.90826e-09
5.52314e-07
5.85121e-07
-6.75138e-09
5.85153e-07
-2.24545e-09
5.85166e-07
2.84949e-10
5.85164e-07
-1.14591e-10
5.8515e-07
1.15917e-10
5.85151e-07
-1.90478e-11
5.85125e-07
3.17111e-10
5.8512e-07
5.63248e-11
5.85082e-07
4.5181e-10
5.85071e-07
1.17376e-10
5.85018e-07
6.36371e-10
5.85e-07
1.88896e-10
5.84926e-07
9.18757e-10
5.84897e-07
2.88413e-10
5.84784e-07
1.42795e-09
5.84732e-07
4.59629e-10
5.84545e-07
2.57384e-09
5.84411e-07
9.83619e-10
5.84088e-07
6.51948e-09
5.30776e-09
5.83689e-07
6.18332e-07
-6.06443e-09
6.18345e-07
-2.25816e-09
6.18362e-07
2.68091e-10
6.18359e-07
-1.11695e-10
6.18343e-07
1.31727e-10
6.18344e-07
-2.00072e-11
6.18316e-07
3.45277e-10
6.1831e-07
6.29712e-11
6.18271e-07
4.90723e-10
6.18259e-07
1.29123e-10
6.18204e-07
6.91023e-10
6.18184e-07
2.08407e-10
6.18107e-07
9.96448e-10
6.18075e-07
3.20097e-10
6.17959e-07
1.54416e-09
6.179e-07
5.17143e-10
6.1771e-07
2.76469e-09
6.17561e-07
1.13242e-09
6.17254e-07
6.8274e-09
5.7152e-09
6.16846e-07
6.53427e-07
-5.37139e-09
6.53419e-07
-2.25091e-09
6.5344e-07
2.47376e-10
6.53436e-07
-1.08012e-10
6.53419e-07
1.48824e-10
6.5342e-07
-2.09726e-11
6.5339e-07
3.74221e-10
6.53384e-07
6.94448e-11
6.53342e-07
5.32266e-10
6.53329e-07
1.42576e-10
6.53272e-07
7.48301e-10
6.53251e-07
2.30208e-10
6.5317e-07
1.07735e-09
6.53135e-07
3.55477e-10
6.53015e-07
1.66425e-09
6.5295e-07
5.82408e-10
6.52757e-07
2.9568e-09
6.52594e-07
1.29604e-09
6.52301e-07
7.11938e-09
6.12847e-09
6.51888e-07
6.90511e-07
-4.62421e-09
6.90483e-07
-2.22304e-09
6.90507e-07
2.23642e-10
6.90502e-07
-1.03598e-10
6.90483e-07
1.6813e-10
6.90484e-07
-2.13924e-11
6.90453e-07
4.05044e-10
6.90446e-07
7.75738e-11
6.90402e-07
5.74819e-10
6.90388e-07
1.56747e-10
6.90329e-07
8.07725e-10
6.90305e-07
2.5376e-10
6.90221e-07
1.16108e-09
6.90182e-07
3.94275e-10
6.90059e-07
1.78731e-09
6.89986e-07
6.54387e-10
6.89793e-07
3.15095e-09
6.89613e-07
1.4756e-09
6.89338e-07
7.39479e-09
6.54562e-09
6.88921e-07
7.29698e-07
-3.8083e-09
7.29649e-07
-2.17458e-09
7.29676e-07
1.96854e-10
7.29671e-07
-9.8506e-11
7.2965e-07
1.88751e-10
7.2965e-07
-2.14751e-11
7.29618e-07
4.36514e-10
7.29609e-07
8.58494e-11
7.29564e-07
6.19974e-10
7.29548e-07
1.73156e-10
7.29487e-07
8.69679e-10
7.2946e-07
2.80323e-10
7.29374e-07
1.24779e-09
7.2933e-07
4.37856e-10
7.29204e-07
1.91365e-09
7.29123e-07
7.35823e-10
7.28929e-07
3.3447e-09
7.28733e-07
1.67096e-09
7.28476e-07
7.65243e-09
6.96377e-09
7.28057e-07
7.71102e-07
-2.73097e-09
7.71035e-07
-2.10798e-09
7.71063e-07
1.69163e-10
7.71058e-07
-9.37116e-11
7.71035e-07
2.12369e-10
7.71035e-07
-2.13799e-11
7.71001e-07
4.70478e-10
7.70992e-07
9.54744e-11
7.70945e-07
6.66636e-10
7.70928e-07
1.89996e-10
7.70863e-07
9.34212e-10
7.70835e-07
3.08591e-10
7.70745e-07
1.33754e-09
7.70697e-07
4.85223e-10
7.70568e-07
2.04262e-09
7.70478e-07
8.24923e-10
7.70285e-07
3.53894e-09
7.70074e-07
1.88245e-09
7.69835e-07
7.89126e-09
7.38127e-09
7.69417e-07
8.1485e-07
-1.7049e-09
8.14768e-07
-2.02683e-09
8.14796e-07
1.4086e-10
8.14792e-07
-8.90974e-11
8.14766e-07
2.37365e-10
8.14766e-07
-2.08337e-11
8.14731e-07
5.04926e-10
8.14721e-07
1.05393e-10
8.14672e-07
7.15683e-10
8.14653e-07
2.09511e-10
8.14586e-07
1.00079e-09
8.14555e-07
3.40611e-10
8.14463e-07
1.42935e-09
8.1441e-07
5.38639e-10
8.1428e-07
2.17302e-09
8.14179e-07
9.25481e-10
8.13989e-07
3.72894e-09
8.1376e-07
2.11099e-09
8.13545e-07
8.10652e-09
7.79862e-09
8.13128e-07
8.61073e-07
-1.04983e-09
8.60981e-07
-1.93427e-09
8.61008e-07
1.13737e-10
8.61003e-07
-8.44543e-11
8.60976e-07
2.64085e-10
8.60974e-07
-1.85764e-11
8.60939e-07
5.40555e-10
8.60927e-07
1.18256e-10
8.60877e-07
7.64807e-10
8.60855e-07
2.3119e-10
8.60787e-07
1.06836e-09
8.60751e-07
3.76371e-10
8.60658e-07
1.52229e-09
8.60599e-07
5.98352e-10
8.60468e-07
2.30352e-09
8.60356e-07
1.03669e-09
8.6017e-07
3.91578e-09
8.59924e-07
2.35713e-09
8.5973e-07
8.3001e-09
8.21168e-09
8.59317e-07
9.09912e-07
-7.0322e-10
9.09812e-07
-1.83423e-09
9.09836e-07
8.93367e-11
9.09832e-07
-8.07573e-11
9.09804e-07
2.92211e-10
9.09801e-07
-1.55219e-11
9.09764e-07
5.76862e-10
9.09751e-07
1.31682e-10
9.09699e-07
8.16606e-10
9.09674e-07
2.55982e-10
9.09605e-07
1.13829e-09
9.09565e-07
4.16525e-10
9.0947e-07
1.61756e-09
9.09403e-07
6.65067e-10
9.09271e-07
2.43559e-09
9.09148e-07
1.16036e-09
9.08965e-07
4.09854e-09
9.08704e-07
2.61842e-09
9.08529e-07
8.4745e-09
8.6141e-09
9.08126e-07
9.61517e-07
-4.99362e-10
9.61412e-07
-1.72883e-09
9.61432e-07
6.9223e-11
9.61429e-07
-7.79804e-11
9.61399e-07
3.22623e-10
9.61395e-07
-1.08934e-11
9.61357e-07
6.15037e-10
9.61341e-07
1.47854e-10
9.61288e-07
8.6915e-10
9.61261e-07
2.82858e-10
9.61189e-07
1.2098e-09
9.61145e-07
4.6059e-10
9.61048e-07
1.71441e-09
9.60974e-07
7.38566e-10
9.60842e-07
2.56793e-09
9.60706e-07
1.2951e-09
9.60527e-07
4.27812e-09
9.60251e-07
2.89458e-09
9.60095e-07
8.63076e-09
9.00273e-09
9.59707e-07
1.01605e-06
-3.49192e-10
1.01594e-06
-1.62e-09
1.01595e-06
5.36202e-11
1.01595e-06
-7.63225e-11
1.01592e-06
3.54386e-10
1.01591e-06
-5.1349e-12
1.01587e-06
6.53856e-10
1.01586e-06
1.64936e-10
1.0158e-06
9.24231e-10
1.01577e-06
3.13414e-10
1.0157e-06
1.28336e-09
1.01565e-06
5.09906e-10
1.01555e-06
1.81295e-09
1.01547e-06
8.20275e-10
1.01534e-06
2.70066e-09
1.01519e-06
1.44333e-09
1.01502e-06
4.45187e-09
1.01473e-06
3.18384e-09
1.01459e-06
8.7683e-09
9.37472e-09
1.01422e-06
1.07367e-06
-2.23885e-10
1.07356e-06
-1.50856e-09
1.07357e-06
4.33392e-11
1.07356e-06
-7.52522e-11
1.07353e-06
3.88044e-10
1.07352e-06
2.80182e-12
1.07348e-06
6.94231e-10
1.07346e-06
1.85376e-10
1.07341e-06
9.7962e-10
1.07337e-06
3.46905e-10
1.0733e-06
1.35783e-09
1.07324e-06
5.64292e-10
1.07315e-06
1.91202e-09
1.07306e-06
9.10229e-10
1.07292e-06
2.83207e-09
1.07276e-06
1.60375e-09
1.07259e-06
4.62037e-09
1.07229e-06
3.48563e-09
1.07217e-06
8.88811e-09
9.72761e-09
1.07182e-06
1.13455e-06
-1.1709e-10
1.13444e-06
-1.39613e-09
1.13445e-06
3.83102e-11
1.13444e-06
-7.48174e-11
1.13441e-06
4.22612e-10
1.1344e-06
1.24893e-11
1.13436e-06
7.3494e-10
1.13434e-06
2.07408e-10
1.13428e-06
1.03706e-09
1.13424e-06
3.84968e-10
1.13417e-06
1.43368e-09
1.13411e-06
6.25086e-10
1.13401e-06
2.01179e-09
1.13391e-06
1.00974e-09
1.13378e-06
2.96247e-09
1.1336e-06
1.77827e-09
1.13344e-06
4.78157e-09
1.13313e-06
3.79729e-09
1.13303e-06
8.99084e-09
1.00581e-08
1.1327e-06
1.19889e-06
-2.63885e-11
1.19878e-06
-1.28349e-09
1.19878e-06
3.91774e-11
1.19878e-06
-7.43384e-11
1.19874e-06
4.58608e-10
1.19873e-06
2.49798e-11
1.19869e-06
7.76952e-10
1.19866e-06
2.33392e-10
1.1986e-06
1.09446e-09
1.19856e-06
4.26835e-10
1.19848e-06
1.5098e-09
1.19842e-06
6.92069e-10
1.19832e-06
2.11117e-09
1.19821e-06
1.11868e-09
1.19808e-06
3.09036e-09
1.19789e-06
1.96516e-09
1.19774e-06
4.93653e-09
1.19742e-06
4.1174e-09
1.19733e-06
9.07849e-09
1.03636e-08
1.19703e-06
1.26687e-06
4.9076e-11
1.26676e-06
-1.17225e-09
1.26675e-06
4.56505e-11
1.26675e-06
-7.37439e-11
1.26672e-06
4.95012e-10
1.2667e-06
3.98752e-11
1.26666e-06
8.19e-10
1.26663e-06
2.6174e-10
1.26657e-06
1.15335e-09
1.26653e-06
4.7418e-10
1.26645e-06
1.58664e-09
1.26637e-06
7.6653e-10
1.26628e-06
2.21037e-09
1.26616e-06
1.23815e-09
1.26603e-06
3.21625e-09
1.26583e-06
2.16566e-09
1.26568e-06
5.08383e-09
1.26536e-06
4.44253e-09
1.26528e-06
9.15231e-09
1.06412e-08
1.26501e-06
1.33871e-06
1.11104e-10
1.3386e-06
-1.06311e-09
1.33859e-06
5.81072e-11
1.33859e-06
-7.22011e-11
1.33855e-06
5.32267e-10
1.33853e-06
5.82368e-11
1.33849e-06
8.62039e-10
1.33846e-06
2.94708e-10
1.3384e-06
1.21179e-09
1.33834e-06
5.26257e-10
1.33827e-06
1.66309e-09
1.33819e-06
8.48223e-10
1.33809e-06
2.30837e-09
1.33796e-06
1.36779e-09
1.33783e-06
3.33884e-09
1.33762e-06
2.37757e-09
1.33748e-06
5.22483e-09
1.33715e-06
4.77063e-09
1.33709e-06
9.21466e-09
1.08891e-08
1.33684e-06
1.41462e-06
1.60692e-10
1.41451e-06
-9.57509e-10
1.41449e-06
7.59568e-11
1.41449e-06
-6.95235e-11
1.41445e-06
5.69331e-10
1.41443e-06
7.96829e-11
1.41439e-06
9.04764e-10
1.41435e-06
3.30879e-10
1.41429e-06
1.27111e-09
1.41423e-06
5.84723e-10
1.41416e-06
1.7396e-09
1.41407e-06
9.38306e-10
1.41397e-06
2.40542e-09
1.41383e-06
1.50837e-09
1.41371e-06
3.45887e-09
1.41349e-06
2.60135e-09
1.41335e-06
5.35871e-09
1.41303e-06
5.09772e-09
1.41297e-06
9.26702e-09
1.1105e-08
1.41276e-06
1.49483e-06
1.99784e-10
1.49473e-06
-8.55943e-10
1.4947e-06
9.92495e-11
1.4947e-06
-6.4762e-11
1.49466e-06
6.06587e-10
1.49463e-06
1.05257e-10
1.49459e-06
9.48131e-10
1.49455e-06
3.7232e-10
1.49449e-06
1.32956e-09
1.49443e-06
6.4879e-10
1.49435e-06
1.81509e-09
1.49425e-06
1.03641e-09
1.49416e-06
2.50065e-09
1.49401e-06
1.6592e-09
1.49389e-06
3.57532e-09
1.49366e-06
2.83431e-09
1.49353e-06
5.48707e-09
1.49321e-06
5.42135e-09
1.49316e-06
9.3118e-09
1.12881e-08
1.49298e-06
1.57958e-06
2.29459e-10
1.57949e-06
-7.59529e-10
1.57946e-06
1.27094e-10
1.57945e-06
-5.76388e-11
1.57941e-06
6.43031e-10
1.57939e-06
1.34599e-10
1.57934e-06
9.90797e-10
1.5793e-06
4.17868e-10
1.57924e-06
1.38822e-09
1.57917e-06
7.20055e-10
1.57909e-06
1.89005e-09
1.57899e-06
1.14346e-09
1.57889e-06
2.59447e-09
1.57873e-06
1.82054e-09
1.57862e-06
3.68928e-09
1.57838e-06
3.07601e-09
1.57825e-06
5.60972e-09
1.57794e-06
5.73733e-09
1.5779e-06
9.35033e-09
1.14374e-08
1.57775e-06
1.66914e-06
2.51609e-10
1.66905e-06
-6.68386e-10
1.66902e-06
1.5922e-10
1.66901e-06
-4.71591e-11
1.66897e-06
6.79043e-10
1.66894e-06
1.68718e-10
1.6689e-06
1.03374e-09
1.66885e-06
4.69383e-10
1.66879e-06
1.44555e-09
1.66871e-06
7.97565e-10
1.66864e-06
1.96348e-09
1.66852e-06
1.25877e-09
1.66843e-06
2.68622e-09
1.66826e-06
1.99116e-09
1.66815e-06
3.80005e-09
1.6679e-06
3.32319e-09
1.66778e-06
5.7284e-09
1.66748e-06
6.04317e-09
1.66744e-06
9.38466e-09
1.15533e-08
1.66733e-06
1.76378e-06
2.67156e-10
1.7637e-06
-5.83235e-10
1.76366e-06
1.94443e-10
1.76365e-06
-3.30776e-11
1.76361e-06
7.13653e-10
1.76357e-06
2.07138e-10
1.76353e-06
1.07562e-09
1.76348e-06
5.25711e-10
1.76342e-06
1.5026e-09
1.76333e-06
8.8281e-10
1.76326e-06
2.0361e-09
1.76314e-06
1.38302e-09
1.76305e-06
2.77663e-09
1.76287e-06
2.17086e-09
1.76276e-06
3.90911e-09
1.76251e-06
3.5748e-09
1.76239e-06
5.84326e-09
1.7621e-06
6.33489e-09
1.76207e-06
9.4156e-09
1.16361e-08
1.76199e-06
1.86378e-06
2.77747e-10
1.8637e-06
-5.03752e-10
1.86367e-06
2.32257e-10
1.86365e-06
-1.44461e-11
1.86361e-06
7.47304e-10
1.86357e-06
2.5082e-10
1.86353e-06
1.11742e-09
1.86347e-06
5.885e-10
1.86341e-06
1.55804e-09
1.86332e-06
9.74592e-10
1.86325e-06
2.10704e-09
1.86312e-06
1.51506e-09
1.86303e-06
2.86526e-09
1.86284e-06
2.35773e-09
1.86273e-06
4.01606e-09
1.86248e-06
3.82712e-09
1.86237e-06
5.95596e-09
1.86209e-06
6.6104e-09
1.86206e-06
9.44453e-09
1.16874e-08
1.86201e-06
1.96946e-06
2.84007e-10
1.96938e-06
-4.30211e-10
1.96934e-06
2.71313e-10
1.96932e-06
8.84319e-12
1.96929e-06
7.79146e-10
1.96924e-06
2.99141e-10
1.9692e-06
1.15793e-09
1.96913e-06
6.56556e-10
1.96908e-06
1.61296e-09
1.96898e-06
1.07408e-09
1.96891e-06
2.17731e-09
1.96877e-06
1.65517e-09
1.96868e-06
2.95321e-09
1.96849e-06
2.5511e-09
1.96838e-06
4.12261e-09
1.96813e-06
4.07868e-09
1.96802e-06
6.06668e-09
1.96776e-06
6.86645e-09
1.96773e-06
9.47143e-09
1.17087e-08
1.96771e-06
2.08112e-06
2.87215e-10
2.08105e-06
-3.61867e-10
2.08101e-06
3.11023e-10
2.08098e-06
3.75697e-11
2.08095e-06
8.09742e-10
2.0809e-06
3.52946e-10
2.08086e-06
1.19816e-09
2.08078e-06
7.3122e-10
2.08073e-06
1.6663e-09
2.08062e-06
1.17977e-09
2.08055e-06
2.2462e-09
2.08041e-06
1.80165e-09
2.08032e-06
3.04025e-09
2.08012e-06
2.74842e-09
2.08002e-06
4.22853e-09
2.07977e-06
4.32561e-09
2.07966e-06
6.17669e-09
2.07942e-06
7.10175e-09
2.0794e-06
9.49684e-09
1.17027e-08
2.0794e-06
2.19911e-06
2.87604e-10
2.19905e-06
-2.98641e-10
2.19901e-06
3.50041e-10
2.19897e-06
7.15692e-11
2.19894e-06
8.38406e-10
2.19889e-06
4.11408e-10
2.19885e-06
1.23713e-09
2.19877e-06
8.11137e-10
2.19871e-06
1.71927e-09
2.1986e-06
1.29242e-09
2.19853e-06
2.31509e-09
2.19838e-06
1.95438e-09
2.19829e-06
3.12781e-09
2.19809e-06
2.94866e-09
2.19799e-06
4.33553e-09
2.19775e-06
4.56646e-09
2.19764e-06
6.28586e-09
2.19742e-06
7.31419e-09
2.1974e-06
9.51985e-09
1.16717e-08
2.19743e-06
2.32379e-06
2.86074e-10
2.32373e-06
-2.39503e-10
2.32369e-06
3.87887e-10
2.32365e-06
1.11329e-10
2.32363e-06
8.65843e-10
2.32356e-06
4.7516e-10
2.32353e-06
1.27582e-09
2.32344e-06
8.97238e-10
2.32339e-06
1.77114e-09
2.32327e-06
1.41022e-09
2.3232e-06
2.38348e-09
2.32304e-06
2.11115e-09
2.32296e-06
3.21578e-09
2.32276e-06
3.14887e-09
2.32265e-06
4.44333e-09
2.32242e-06
4.79765e-09
2.32231e-06
6.39474e-09
2.32212e-06
7.50347e-09
2.3221e-06
9.54016e-09
1.16191e-08
2.32215e-06
2.45554e-06
2.8253e-10
2.45549e-06
-1.84182e-10
2.45545e-06
4.23445e-10
2.45541e-06
1.56331e-10
2.45538e-06
8.91619e-10
2.45531e-06
5.43167e-10
2.45527e-06
1.31364e-09
2.45518e-06
9.87976e-10
2.45513e-06
1.82326e-09
2.45501e-06
1.53336e-09
2.45494e-06
2.45296e-09
2.45478e-06
2.27145e-09
2.45469e-06
3.30567e-09
2.45449e-06
3.34788e-09
2.45438e-06
4.55324e-09
2.45416e-06
5.01809e-09
2.45405e-06
6.50263e-09
2.45389e-06
7.66884e-09
2.45387e-06
9.55623e-09
1.15474e-08
2.45394e-06
2.59476e-06
2.77581e-10
2.59471e-06
-1.31589e-10
2.59468e-06
4.56527e-10
2.59463e-06
2.06675e-10
2.5946e-06
9.16563e-10
2.59453e-06
6.15743e-10
2.59449e-06
1.35156e-09
2.5944e-06
1.08376e-09
2.59434e-06
1.87528e-09
2.59422e-06
1.65985e-09
2.59415e-06
2.52322e-09
2.59399e-06
2.4328e-09
2.59389e-06
3.39731e-09
2.5937e-06
3.54274e-09
2.59359e-06
4.66464e-09
2.59338e-06
5.22495e-09
2.59327e-06
6.60921e-09
2.59313e-06
7.81097e-09
2.59312e-06
9.56721e-09
1.14599e-08
2.59321e-06
2.74188e-06
2.70969e-10
2.74183e-06
-8.1482e-11
2.7418e-06
4.86435e-10
2.74174e-06
2.61478e-10
2.74172e-06
9.4052e-10
2.74164e-06
6.91686e-10
2.7416e-06
1.38936e-09
2.7415e-06
1.1829e-09
2.74145e-06
1.92851e-09
2.74132e-06
1.78931e-09
2.74125e-06
2.59581e-09
2.74109e-06
2.59438e-09
2.74099e-06
3.49193e-09
2.7408e-06
3.73237e-09
2.74069e-06
4.77812e-09
2.7405e-06
5.41778e-09
2.74039e-06
6.71319e-09
2.74027e-06
7.93031e-09
2.74027e-06
9.57135e-09
1.13591e-08
2.74037e-06
2.89733e-06
2.6318e-10
2.89728e-06
-3.29553e-11
2.89725e-06
5.13383e-10
2.8972e-06
3.2043e-10
2.89717e-06
9.64399e-10
2.89709e-06
7.70928e-10
2.89705e-06
1.428e-09
2.89695e-06
1.28526e-09
2.8969e-06
1.98293e-09
2.89677e-06
1.91971e-09
2.89669e-06
2.67048e-09
2.89653e-06
2.75378e-09
2.89644e-06
3.58906e-09
2.89625e-06
3.91429e-09
2.89614e-06
4.89253e-09
2.89596e-06
5.59476e-09
2.89586e-06
6.81344e-09
2.89576e-06
8.0282e-09
2.89577e-06
9.56767e-09
1.12475e-08
2.89588e-06
3.0616e-06
2.53993e-10
3.06155e-06
1.40062e-11
3.06153e-06
5.37177e-10
3.06146e-06
3.82348e-10
3.06144e-06
9.88275e-10
3.06136e-06
8.52153e-10
3.06132e-06
1.46754e-09
3.06122e-06
1.38914e-09
3.06116e-06
2.03964e-09
3.06103e-06
2.05033e-09
3.06095e-06
2.74841e-09
3.06079e-06
2.91015e-09
3.06069e-06
3.68934e-09
3.06052e-06
4.08776e-09
3.06041e-06
5.00761e-09
3.06024e-06
5.75612e-09
3.06015e-06
6.90835e-09
3.06007e-06
8.10582e-09
3.06009e-06
9.55473e-09
1.11272e-08
3.06021e-06
3.23518e-06
2.43933e-10
3.23513e-06
5.99508e-11
3.23511e-06
5.58421e-10
3.23505e-06
4.4659e-10
3.23502e-06
1.01304e-09
3.23494e-06
9.34954e-10
3.2349e-06
1.50886e-09
3.23479e-06
1.49395e-09
3.23473e-06
2.09874e-09
3.23461e-06
2.17931e-09
3.23452e-06
2.82916e-09
3.23437e-06
3.06145e-09
3.23427e-06
3.79179e-09
3.23411e-06
4.25103e-09
3.23399e-06
5.12162e-09
3.23385e-06
5.90105e-09
3.23376e-06
6.99633e-09
3.2337e-06
8.16478e-09
3.23372e-06
9.53186e-09
1.09998e-08
3.23385e-06
3.4186e-06
2.32957e-10
3.41856e-06
1.04579e-10
3.41854e-06
5.77354e-10
3.41847e-06
5.11837e-10
3.41845e-06
1.03886e-09
3.41836e-06
1.01801e-09
3.41832e-06
1.55208e-09
3.41822e-06
1.59812e-09
3.41815e-06
2.1609e-09
3.41803e-06
2.30586e-09
3.41794e-06
2.91326e-09
3.4178e-06
3.20704e-09
3.41769e-06
3.89624e-09
3.41754e-06
4.40385e-09
3.41743e-06
5.23357e-09
3.4173e-06
6.03025e-09
3.41722e-06
7.0758e-09
3.41718e-06
8.20644e-09
3.41721e-06
9.49823e-09
1.08666e-08
3.41734e-06
3.61242e-06
2.21711e-10
3.61238e-06
1.48052e-10
3.61236e-06
5.94817e-10
3.6123e-06
5.77291e-10
3.61227e-06
1.06649e-09
3.61219e-06
1.10071e-09
3.61214e-06
1.59783e-09
3.61204e-06
1.70092e-09
3.61197e-06
2.22601e-09
3.61185e-06
2.42851e-09
3.61176e-06
2.99989e-09
3.61162e-06
3.34549e-09
3.61152e-06
4.00117e-09
3.61138e-06
4.54521e-09
3.61127e-06
5.34141e-09
3.61116e-06
6.1436e-09
3.61109e-06
7.14525e-09
3.61106e-06
8.23222e-09
3.61111e-06
9.45371e-09
1.07283e-08
3.61124e-06
3.81723e-06
2.10344e-10
3.81719e-06
1.89821e-10
3.81717e-06
6.11271e-10
3.81711e-06
6.41713e-10
3.81708e-06
1.096e-09
3.817e-06
1.18188e-09
3.81695e-06
1.64608e-09
3.81685e-06
1.80107e-09
3.81678e-06
2.29414e-09
3.81666e-06
2.54663e-09
3.81658e-06
3.08879e-09
3.81644e-06
3.47647e-09
3.81634e-06
4.10568e-09
3.81621e-06
4.67523e-09
3.81611e-06
5.44379e-09
3.81601e-06
6.24196e-09
3.81595e-06
7.20351e-09
3.81594e-06
8.24328e-09
3.816e-06
9.39815e-09
1.05857e-08
3.81614e-06
4.03365e-06
1.99558e-10
4.03361e-06
2.2979e-10
4.0336e-06
6.27534e-10
4.03354e-06
7.04376e-10
4.0335e-06
1.12781e-09
4.03342e-06
1.26093e-09
4.03337e-06
1.697e-09
4.03328e-06
1.89794e-09
4.03321e-06
2.36476e-09
4.03309e-06
2.65926e-09
4.033e-06
3.17866e-09
4.03288e-06
3.59914e-09
4.03278e-06
4.20793e-09
4.03266e-06
4.79346e-09
4.03256e-06
5.53874e-09
4.03248e-06
6.32548e-09
4.03244e-06
7.24951e-09
4.03244e-06
8.24064e-09
4.0325e-06
9.33189e-09
1.0439e-08
4.03265e-06
4.26235e-06
1.89575e-10
4.26231e-06
2.67354e-10
4.26229e-06
6.44008e-10
4.26223e-06
7.64338e-10
4.2622e-06
1.16176e-09
4.26212e-06
1.33698e-09
4.26207e-06
1.75021e-09
4.26198e-06
1.99066e-09
4.2619e-06
2.43728e-09
4.2618e-06
2.76602e-09
4.26171e-06
3.26859e-09
4.26159e-06
3.71341e-09
4.26149e-06
4.30658e-09
4.26139e-06
4.90013e-09
4.2613e-06
5.62497e-09
4.26123e-06
6.39488e-09
4.2612e-06
7.2827e-09
4.26121e-06
8.22511e-09
4.26129e-06
9.25529e-09
1.02884e-08
4.26144e-06
4.504e-06
1.80987e-10
4.50397e-06
3.02377e-10
4.50395e-06
6.61224e-10
4.50389e-06
8.21124e-10
4.50386e-06
1.1978e-09
4.50379e-06
1.4096e-09
4.50373e-06
1.80534e-09
4.50364e-06
2.07884e-09
4.50357e-06
2.51071e-09
4.50347e-06
2.86639e-09
4.50338e-06
3.35698e-09
4.50327e-06
3.81881e-09
4.50318e-06
4.39979e-09
4.50309e-06
4.99501e-09
4.50301e-06
5.70096e-09
4.50295e-06
6.45032e-09
4.50293e-06
7.30262e-09
4.50296e-06
8.19731e-09
4.50305e-06
9.16891e-09
1.01341e-08
4.5032e-06
4.75936e-06
1.73906e-10
4.75933e-06
3.34414e-10
4.75931e-06
6.79296e-10
4.75926e-06
8.74209e-10
4.75922e-06
1.23545e-09
4.75915e-06
1.47826e-09
4.7591e-06
1.86159e-09
4.75901e-06
2.16199e-09
4.75894e-06
2.58396e-09
4.75885e-06
2.96013e-09
4.75876e-06
3.44254e-09
4.75866e-06
3.91529e-09
4.75858e-06
4.48624e-09
4.75849e-06
5.07824e-09
4.75843e-06
5.7658e-09
4.75839e-06
6.49223e-09
4.75838e-06
7.30924e-09
4.75842e-06
8.1578e-09
4.75852e-06
9.07332e-09
9.97612e-09
4.75867e-06
5.0292e-06
1.68652e-10
5.02917e-06
3.63477e-10
5.02915e-06
6.98319e-10
5.0291e-06
9.23433e-10
5.02906e-06
1.27421e-09
5.029e-06
1.54276e-09
5.02894e-06
1.91814e-09
5.02886e-06
2.23989e-09
5.02879e-06
2.65577e-09
5.0287e-06
3.04693e-09
5.02862e-06
3.52372e-09
5.02854e-06
4.00248e-09
5.02846e-06
4.56442e-09
5.02839e-06
5.14958e-09
5.02833e-06
5.81857e-09
5.02831e-06
6.52069e-09
5.02831e-06
7.3026e-09
5.02836e-06
8.107e-09
5.02847e-06
8.96909e-09
9.81454e-09
5.02863e-06
5.31433e-06
1.651e-10
5.31431e-06
3.894e-10
5.31429e-06
7.18049e-10
5.31424e-06
9.68642e-10
5.3142e-06
1.31333e-09
5.31414e-06
1.60282e-09
5.31409e-06
1.97393e-09
5.31401e-06
2.31224e-09
5.31395e-06
2.72485e-09
5.31387e-06
3.12655e-09
5.31379e-06
3.5992e-09
5.31371e-06
4.08021e-09
5.31364e-06
4.63327e-09
5.31358e-06
5.20899e-09
5.31354e-06
5.85883e-09
5.31353e-06
6.53597e-09
5.31355e-06
7.28302e-09
5.31361e-06
8.04536e-09
5.31372e-06
8.85677e-09
9.64944e-09
5.31389e-06
5.61563e-06
1.63248e-10
5.61561e-06
4.12389e-10
5.61559e-06
7.38188e-10
5.61555e-06
1.0099e-09
5.61551e-06
1.35203e-09
5.61546e-06
1.65835e-09
5.6154e-06
2.02793e-09
5.61534e-06
2.37885e-09
5.61527e-06
2.78996e-09
5.6152e-06
3.19864e-09
5.61513e-06
3.6677e-09
5.61506e-06
4.14807e-09
5.615e-06
4.69178e-09
5.61496e-06
5.25621e-09
5.61493e-06
5.88617e-09
5.61493e-06
6.53814e-09
5.61496e-06
7.2508e-09
5.61503e-06
7.97323e-09
5.61515e-06
8.73683e-09
9.48087e-09
5.61532e-06
5.93402e-06
1.62755e-10
5.934e-06
4.32511e-10
5.93398e-06
7.58244e-10
5.93394e-06
1.04724e-09
5.9339e-06
1.38946e-09
5.93385e-06
1.70917e-09
5.9338e-06
2.07904e-09
5.93374e-06
2.4394e-09
5.93368e-06
2.8499e-09
5.93362e-06
3.26282e-09
5.93356e-06
3.72818e-09
5.9335e-06
4.20573e-09
5.93345e-06
4.73928e-09
5.93342e-06
5.2911e-09
5.9334e-06
5.90051e-09
5.93341e-06
6.52743e-09
5.93346e-06
7.20639e-09
5.93354e-06
7.89104e-09
5.93367e-06
8.6097e-09
9.30891e-09
5.93384e-06
6.27045e-06
1.63397e-10
6.27044e-06
4.5007e-10
6.27042e-06
7.77721e-10
6.27038e-06
1.08077e-09
6.27035e-06
1.42482e-09
6.2703e-06
1.75515e-09
6.27026e-06
2.12629e-09
6.2702e-06
2.49361e-09
6.27015e-06
2.90365e-09
6.27009e-06
3.31868e-09
6.27004e-06
3.77972e-09
6.26999e-06
4.25276e-09
6.26996e-06
4.7752e-09
6.26993e-06
5.31347e-09
6.26993e-06
5.90183e-09
6.26996e-06
6.50402e-09
6.27001e-06
7.15022e-09
6.2701e-06
7.79919e-09