/*--------------------------------*- C++ -*----------------------------------*\
| =========                 |                                                 |
| \\      /  F ield         | OpenFOAM: The Open Source CFD Toolbox           |
|  \\    /   O peration     | Version:  v1912                                 |
|   \\  /    A nd           | Website:  www.openfoam.com                      |
|    \\/     M anipulation  |                                                 |
\*---------------------------------------------------------------------------*/
FoamFile
{
    version     2.0;
    format      ascii;
    class       volVectorField;
    location    "800";
    object      U;
}
// * * * * * * * * * * * * * * * * * * * * * * * * * * * * * * * * * * * * * //

dimensions      [0 1 -1 0 0 0 0];


internalField   nonuniform List<vector> 
10000
(
(0.934899 -0.000807547 0)
(1.06049 -8.48056e-05 0)
(0.932602 -0.000107011 0)
(1.06245 2.35167e-05 0)
(0.931268 -8.3971e-05 0)
(1.06402 4.86543e-05 0)
(0.929642 -8.35953e-05 0)
(1.06565 6.55156e-05 0)
(0.927913 -9.07756e-05 0)
(1.06734 8.21215e-05 0)
(0.926052 -0.000103015 0)
(1.06908 0.000101398 0)
(0.924044 -0.000120826 0)
(1.07086 0.000126091 0)
(0.921855 -0.00014643 0)
(1.07265 0.000160487 0)
(0.919413 -0.000184432 0)
(1.07431 0.000211849 0)
(0.916471 -0.000233089 0)
(1.07508 0.000256314 0)
(0.986066 -0.00157559 0)
(1.01525 -0.000149913 0)
(0.986016 1.351e-05 0)
(1.01454 -2.00299e-05 0)
(0.987176 3.31177e-05 0)
(1.01332 -2.09316e-05 0)
(0.988245 4.08698e-05 0)
(1.01199 -2.92323e-05 0)
(0.989421 4.86046e-05 0)
(1.01053 -3.95282e-05 0)
(0.990686 5.88685e-05 0)
(1.00891 -5.19388e-05 0)
(0.992043 7.26676e-05 0)
(1.00711 -6.71653e-05 0)
(0.993477 9.16079e-05 0)
(1.00507 -8.62326e-05 0)
(0.994937 0.000119566 0)
(1.00261 -0.000113402 0)
(0.996198 0.000195523 0)
(0.998819 -0.000238943 0)
(0.999313 -0.00171365 0)
(1.00021 -1.25541e-05 0)
(0.998722 7.14453e-06 0)
(1.00029 3.84348e-05 0)
(0.999195 -2.3192e-05 0)
(0.999965 3.42768e-05 0)
(0.999456 -3.12667e-05 0)
(0.999639 3.63098e-05 0)
(0.999689 -3.65632e-05 0)
(0.9993 4.10513e-05 0)
(0.999864 -4.05552e-05 0)
(0.998944 4.67657e-05 0)
(0.999973 -4.31301e-05 0)
(0.998557 5.22257e-05 0)
(0.999984 -4.1758e-05 0)
(0.998097 5.48894e-05 0)
(0.999828 -2.78092e-05 0)
(0.997424 4.50697e-05 0)
(0.999259 6.04119e-05 0)
(0.995748 -4.33852e-05 0)
(1.00035 -0.00161906 0)
(0.998565 -7.19816e-05 0)
(0.9995 2.93339e-05 0)
(0.998895 -3.4146e-05 0)
(0.999686 1.68401e-05 0)
(0.998843 -2.95253e-05 0)
(0.999669 2.56261e-05 0)
(0.998779 -2.76413e-05 0)
(0.999638 3.14419e-05 0)
(0.998689 -2.66878e-05 0)
(0.999568 3.59217e-05 0)
(0.998567 -2.52085e-05 0)
(0.999451 3.92066e-05 0)
(0.998392 -2.12114e-05 0)
(0.999263 4.14817e-05 0)
(0.99812 -1.14709e-05 0)
(0.998941 4.50617e-05 0)
(0.997604 8.71101e-06 0)
(0.998242 9.74624e-05 0)
(0.996098 9.99269e-05 0)
(1 -0.00159192 0)
(0.998926 -5.90341e-05 0)
(0.999134 -2.62865e-06 0)
(0.999266 1.07963e-05 0)
(0.999274 -1.21968e-05 0)
(0.999243 1.89087e-05 0)
(0.999216 -7.99014e-06 0)
(0.999202 1.94302e-05 0)
(0.999149 -6.07214e-06 0)
(0.999131 1.84517e-05 0)
(0.999048 -2.05247e-06 0)
(0.999024 1.62256e-05 0)
(0.998905 5.81257e-06 0)
(0.998861 1.22369e-05 0)
(0.998694 2.08342e-05 0)
(0.998597 5.8596e-06 0)
(0.998352 5.17197e-05 0)
(0.998085 -3.8201e-06 0)
(0.997639 0.000165422 0)
(0.996626 0.000106249 0)
(0.999964 -0.00150977 0)
(0.999026 -9.91199e-05 0)
(0.999125 2.78975e-05 0)
(0.999336 -1.51769e-05 0)
(0.999269 1.12378e-05 0)
(0.999306 -1.01488e-05 0)
(0.999217 1.40749e-05 0)
(0.999256 -8.27137e-06 0)
(0.999157 1.527e-05 0)
(0.999176 -5.05034e-06 0)
(0.999063 1.71851e-05 0)
(0.999058 -6.3963e-07 0)
(0.998929 2.05163e-05 0)
(0.998884 4.8134e-06 0)
(0.998727 2.88626e-05 0)
(0.998607 1.01757e-05 0)
(0.998394 5.54903e-05 0)
(0.998084 8.02329e-06 0)
(0.997694 0.000200905 0)
(0.996654 0.000114334 0)
(0.999972 -0.00146607 0)
(0.999072 -9.86213e-05 0)
(0.999159 1.47742e-05 0)
(0.999358 -2.12759e-06 0)
(0.999302 -3.33384e-06 0)
(0.999329 3.78198e-06 0)
(0.99925 4.16633e-06 0)
(0.999279 4.9482e-06 0)
(0.999189 9.54111e-06 0)
(0.9992 5.33799e-06 0)
(0.999095 1.61074e-05 0)
(0.999083 5.51029e-06 0)
(0.998959 2.49399e-05 0)
(0.99891 6.45755e-06 0)
(0.998756 3.92179e-05 0)
(0.998634 9.51242e-06 0)
(0.998422 7.10097e-05 0)
(0.998113 1.25768e-05 0)
(0.997722 0.000233051 0)
(0.996732 0.000143599 0)
(1.00005 -0.00139464 0)
(0.999051 -0.000123317 0)
(0.999261 2.51492e-05 0)
(0.999313 -1.07078e-05 0)
(0.999402 4.4011e-06 0)
(0.999284 -2.02723e-06 0)
(0.99935 1.08542e-05 0)
(0.999234 8.8687e-07 0)
(0.999289 1.40619e-05 0)
(0.999155 3.27332e-06 0)
(0.999194 1.89563e-05 0)
(0.999038 5.58967e-06 0)
(0.999058 2.74737e-05 0)
(0.998865 7.95885e-06 0)
(0.998855 4.43865e-05 0)
(0.99859 1.05814e-05 0)
(0.998521 8.47207e-05 0)
(0.998071 1.2814e-05 0)
(0.997823 0.000271629 0)
(0.996737 0.000171256 0)
(1.0002 -0.00133364 0)
(0.998945 -0.000133629 0)
(0.999441 2.36538e-05 0)
(0.99918 -8.06881e-06 0)
(0.999583 2.21162e-06 0)
(0.999148 -1.90196e-07 0)
(0.999535 1.08016e-05 0)
(0.999095 1.90884e-06 0)
(0.999477 1.59904e-05 0)
(0.999012 3.90276e-06 0)
(0.999386 2.28591e-05 0)
(0.998892 6.38512e-06 0)
(0.999254 3.30882e-05 0)
(0.998715 9.71592e-06 0)
(0.999055 5.20497e-05 0)
(0.998437 1.3907e-05 0)
(0.998725 9.82025e-05 0)
(0.997917 1.75159e-05 0)
(0.998034 0.000310692 0)
(0.996628 0.000199501 0)
(1.00018 -0.00126302 0)
(0.999005 -0.000149172 0)
(0.999456 2.72948e-05 0)
(0.999217 -9.84993e-06 0)
(0.999594 3.58371e-06 0)
(0.999188 -7.95684e-07 0)
(0.999543 1.28424e-05 0)
(0.999137 2.25532e-06 0)
(0.999483 1.84483e-05 0)
(0.999057 4.72157e-06 0)
(0.99939 2.62013e-05 0)
(0.998939 7.29806e-06 0)
(0.999255 3.81173e-05 0)
(0.998766 1.06482e-05 0)
(0.999053 6.00586e-05 0)
(0.998491 1.54567e-05 0)
(0.998721 0.000112416 0)
(0.997977 2.18451e-05 0)
(0.99803 0.000348357 0)
(0.996743 0.000228305 0)
(1.00017 -0.00119575 0)
(0.99907 -0.000162233 0)
(0.999473 2.82888e-05 0)
(0.999258 -1.03505e-05 0)
(0.999608 3.9858e-06 0)
(0.99923 -9.5595e-07 0)
(0.999556 1.46662e-05 0)
(0.99918 2.41942e-06 0)
(0.999496 2.10202e-05 0)
(0.9991 5.24895e-06 0)
(0.999402 2.97238e-05 0)
(0.998983 8.36477e-06 0)
(0.999267 4.32094e-05 0)
(0.998809 1.23263e-05 0)
(0.999065 6.82631e-05 0)
(0.998535 1.78439e-05 0)
(0.998732 0.0001277 0)
(0.998026 2.70912e-05 0)
(0.998045 0.000386461 0)
(0.996841 0.000259303 0)
(1.00021 -0.00112727 0)
(0.999088 -0.000175033 0)
(0.999539 2.95704e-05 0)
(0.999251 -1.07658e-05 0)
(0.999671 4.66936e-06 0)
(0.999223 -9.49986e-07 0)
(0.999619 1.65456e-05 0)
(0.999172 2.83505e-06 0)
(0.99956 2.37351e-05 0)
(0.999092 5.97741e-06 0)
(0.999466 3.35963e-05 0)
(0.998974 9.50554e-06 0)
(0.999332 4.87539e-05 0)
(0.998801 1.40941e-05 0)
(0.99913 7.6779e-05 0)
(0.998527 2.05986e-05 0)
(0.998798 0.00014319 0)
(0.998021 3.31905e-05 0)
(0.998116 0.00042402 0)
(0.996885 0.000291689 0)
(1.00025 -0.00105782 0)
(0.999093 -0.000186564 0)
(0.999617 3.05547e-05 0)
(0.999231 -1.12362e-05 0)
(0.999746 5.49734e-06 0)
(0.999204 -1.18853e-06 0)
(0.999694 1.86083e-05 0)
(0.999153 3.09204e-06 0)
(0.999635 2.6634e-05 0)
(0.999072 6.60775e-06 0)
(0.999542 3.76787e-05 0)
(0.998954 1.05402e-05 0)
(0.999407 5.46675e-05 0)
(0.998781 1.56991e-05 0)
(0.999206 8.59424e-05 0)
(0.998508 2.32838e-05 0)
(0.998874 0.000159557 0)
(0.998007 3.99384e-05 0)
(0.998198 0.000461587 0)
(0.99692 0.000325062 0)
(1.00029 -0.000987365 0)
(0.999107 -0.000196652 0)
(0.999686 3.09916e-05 0)
(0.99922 -1.14428e-05 0)
(0.999812 6.26211e-06 0)
(0.999194 -1.24956e-06 0)
(0.99976 2.06608e-05 0)
(0.999142 3.55726e-06 0)
(0.999701 2.95653e-05 0)
(0.999062 7.49135e-06 0)
(0.999608 4.18079e-05 0)
(0.998944 1.19309e-05 0)
(0.999473 6.06493e-05 0)
(0.998771 1.77858e-05 0)
(0.999272 9.52632e-05 0)
(0.998499 2.66116e-05 0)
(0.99894 0.000176201 0)
(0.998003 4.8035e-05 0)
(0.998271 0.0004982 0)
(0.996967 0.000360164 0)
(1.00031 -0.000916488 0)
(0.99914 -0.000205585 0)
(0.999737 3.12176e-05 0)
(0.999229 -1.17037e-05 0)
(0.999858 7.33169e-06 0)
(0.999204 -1.48705e-06 0)
(0.999806 2.30204e-05 0)
(0.999152 3.84997e-06 0)
(0.999747 3.28573e-05 0)
(0.999072 8.18889e-06 0)
(0.999653 4.63945e-05 0)
(0.998955 1.3139e-05 0)
(0.999519 6.71954e-05 0)
(0.998782 1.97415e-05 0)
(0.999318 0.00010527 0)
(0.998511 2.99788e-05 0)
(0.998986 0.000193671 0)
(0.998021 5.68706e-05 0)
(0.998324 0.000534391 0)
(0.997035 0.000396253 0)
(1.00032 -0.000846504 0)
(0.999184 -0.000212953 0)
(0.999777 3.07909e-05 0)
(0.999249 -1.16708e-05 0)
(0.999893 8.27982e-06 0)
(0.999225 -1.52563e-06 0)
(0.999841 2.5252e-05 0)
(0.999174 4.40285e-06 0)
(0.999782 3.6056e-05 0)
(0.999094 9.1962e-06 0)
(0.999688 5.09279e-05 0)
(0.998977 1.47084e-05 0)
(0.999554 7.37607e-05 0)
(0.998805 2.21413e-05 0)
(0.999352 0.000115399 0)
(0.998535 3.40117e-05 0)
(0.999021 0.000211321 0)
(0.998052 6.71365e-05 0)
(0.998367 0.000569386 0)
(0.997116 0.000433825 0)
(1.00034 -0.000777184 0)
(0.999213 -0.00021896 0)
(0.999832 3.01949e-05 0)
(0.999255 -1.17343e-05 0)
(0.999943 9.60098e-06 0)
(0.999232 -1.77443e-06 0)
(0.999891 2.78645e-05 0)
(0.99918 4.78615e-06 0)
(0.999831 3.96969e-05 0)
(0.9991 1.00721e-05 0)
(0.999738 5.59742e-05 0)
(0.998983 1.62039e-05 0)
(0.999604 8.09233e-05 0)
(0.998812 2.45626e-05 0)
(0.999403 0.000126228 0)
(0.998544 3.83045e-05 0)
(0.999072 0.000229699 0)
(0.998068 7.84571e-05 0)
(0.998428 0.000603609 0)
(0.99718 0.000472316 0)
(1.00036 -0.000708733 0)
(0.999237 -0.000222996 0)
(0.999891 2.89428e-05 0)
(0.999257 -1.14692e-05 0)
(0.999996 1.07968e-05 0)
(0.999235 -1.80522e-06 0)
(0.999944 3.03038e-05 0)
(0.999183 5.39822e-06 0)
(0.999884 4.31939e-05 0)
(0.999103 1.11922e-05 0)
(0.999791 6.09281e-05 0)
(0.998987 1.79881e-05 0)
(0.999656 8.8076e-05 0)
(0.998816 2.73721e-05 0)
(0.999455 0.000137149 0)
(0.998549 4.32516e-05 0)
(0.999126 0.000248161 0)
(0.998081 9.12478e-05 0)
(0.998492 0.000636333 0)
(0.997242 0.000511948 0)
(1.00041 -0.00064017 0)
(0.999241 -0.000225398 0)
(0.999969 2.75859e-05 0)
(0.999239 -1.13379e-05 0)
(1.00007 1.24802e-05 0)
(0.999218 -1.97941e-06 0)
(1.00002 3.32624e-05 0)
(0.999166 5.94571e-06 0)
(0.999956 4.72662e-05 0)
(0.999086 1.22931e-05 0)
(0.999863 6.65076e-05 0)
(0.99897 1.98152e-05 0)
(0.999729 9.59066e-05 0)
(0.998799 3.03436e-05 0)
(0.999528 0.000148794 0)
(0.998535 4.86663e-05 0)
(0.9992 0.000267252 0)
(0.998075 0.00010534 0)
(0.998577 0.000667976 0)
(0.997283 0.00055233 0)
(1.00045 -0.000571399 0)
(0.999241 -0.000225698 0)
(1.00005 2.55011e-05 0)
(0.999218 -1.10157e-05 0)
(1.00014 1.37965e-05 0)
(0.999199 -2.10444e-06 0)
(1.00009 3.58102e-05 0)
(0.999147 6.61224e-06 0)
(1.00003 5.10166e-05 0)
(0.999067 1.35947e-05 0)
(0.999936 7.18594e-05 0)
(0.998951 2.19432e-05 0)
(0.999802 0.000103615 0)
(0.998782 3.37686e-05 0)
(0.999601 0.000160413 0)
(0.998519 5.48739e-05 0)
(0.999274 0.00028623 0)
(0.998068 0.000121049 0)
(0.998664 0.000697796 0)
(0.997322 0.000593533 0)
(1.00057 -0.000499612 0)
(0.999171 -0.000224389 0)
(1.0002 2.38228e-05 0)
(0.999129 -1.03885e-05 0)
(1.00028 1.60675e-05 0)
(0.99911 -2.12069e-06 0)
(1.00023 3.91292e-05 0)
(0.999058 7.30504e-06 0)
(1.00017 5.54984e-05 0)
(0.998978 1.48897e-05 0)
(1.00008 7.79478e-05 0)
(0.998862 2.40924e-05 0)
(0.999943 0.000112091 0)
(0.998693 3.73343e-05 0)
(0.999743 0.000172813 0)
(0.998433 6.15756e-05 0)
(0.999418 0.000305777 0)
(0.997991 0.000138083 0)
(0.998823 0.000726333 0)
(0.997289 0.000635038 0)
(1.00069 -0.00042105 0)
(0.99909 -0.000222149 0)
(1.00035 2.03768e-05 0)
(0.999031 -1.00883e-05 0)
(1.00043 1.77475e-05 0)
(0.999014 -2.07997e-06 0)
(1.00038 4.20217e-05 0)
(0.998962 8.25237e-06 0)
(1.00032 5.96836e-05 0)
(0.998883 1.65706e-05 0)
(1.00022 8.38176e-05 0)
(0.998768 2.67681e-05 0)
(1.00009 0.000120407 0)
(0.9986 4.16405e-05 0)
(0.999887 0.000185064 0)
(0.998342 6.94567e-05 0)
(0.999564 0.000324926 0)
(0.99791 0.000157108 0)
(0.998983 0.000752684 0)
(0.997251 0.000677144 0)
(1.00105 -0.000325793 0)
(0.998769 -0.000215639 0)
(1.00074 1.74431e-05 0)
(0.998693 -9.99702e-06 0)
(1.00081 1.9881e-05 0)
(0.998675 -2.35591e-06 0)
(1.00076 4.53081e-05 0)
(0.998621 8.92374e-06 0)
(1.0007 6.43436e-05 0)
(0.99854 1.80296e-05 0)
(1.00061 9.02504e-05 0)
(0.998424 2.93075e-05 0)
(1.00048 0.000129376 0)
(0.998256 4.59718e-05 0)
(1.00028 0.00019802 0)
(0.997999 7.77363e-05 0)
(0.99996 0.000344578 0)
(0.997577 0.000177176 0)
(0.999398 0.000777851 0)
(0.99696 0.000718552 0)
(1.00097 -0.000221625 0)
(0.998872 -0.000203386 0)
(1.00069 1.59603e-05 0)
(0.998786 -8.79395e-06 0)
(1.00076 2.26671e-05 0)
(0.998769 -1.96411e-06 0)
(1.00071 4.8875e-05 0)
(0.998716 1.01435e-05 0)
(1.00065 6.91945e-05 0)
(0.998636 2.00354e-05 0)
(1.00055 9.68289e-05 0)
(0.998522 3.24797e-05 0)
(1.00042 0.000138452 0)
(0.998357 5.11488e-05 0)
(1.00022 0.000210973 0)
(0.998106 8.7347e-05 0)
(0.999906 0.000363757 0)
(0.997699 0.000199348 0)
(0.999359 0.000800469 0)
(0.997133 0.000760511 0)
(1.00052 -0.000137464 0)
(0.999348 -0.000193144 0)
(1.00027 1.32117e-05 0)
(0.999255 -8.63878e-06 0)
(1.00032 2.51239e-05 0)
(0.999241 -2.09522e-06 0)
(1.00027 5.22898e-05 0)
(0.999188 1.10579e-05 0)
(1.00021 7.40527e-05 0)
(0.999111 2.19053e-05 0)
(1.00012 0.000103511 0)
(0.998999 3.57056e-05 0)
(0.999981 0.000147677 0)
(0.998836 5.66684e-05 0)
(0.999783 0.000224001 0)
(0.998591 9.78422e-05 0)
(0.999467 0.000382533 0)
(0.998198 0.000223124 0)
(0.998937 0.000820686 0)
(0.997677 0.000802266 0)
(1.00018 -8.69775e-05 0)
(0.99971 -0.000185511 0)
(0.999944 9.78543e-06 0)
(0.999613 -8.4073e-06 0)
(0.999991 2.77003e-05 0)
(0.999599 -1.73989e-06 0)
(0.999939 5.58327e-05 0)
(0.999546 1.25145e-05 0)
(0.999878 7.90733e-05 0)
(0.999469 2.43766e-05 0)
(0.999785 0.000110367 0)
(0.999357 3.96403e-05 0)
(0.999652 0.000157074 0)
(0.999196 6.31142e-05 0)
(0.999454 0.00023712 0)
(0.998954 0.000109701 0)
(0.999142 0.000400993 0)
(0.998572 0.000248661 0)
(0.998633 0.000839007 0)
(0.998087 0.000843235 0)
(1.00004 -5.95584e-05 0)
(0.999863 -0.000177144 0)
(0.999825 7.60988e-06 0)
(0.999764 -8.0216e-06 0)
(0.999864 3.08341e-05 0)
(0.99975 -1.35985e-06 0)
(0.999813 5.9678e-05 0)
(0.999696 1.39297e-05 0)
(0.999753 8.43699e-05 0)
(0.999619 2.68661e-05 0)
(0.99966 0.0001175 0)
(0.999508 4.37446e-05 0)
(0.999527 0.000166733 0)
(0.999347 7.00136e-05 0)
(0.999332 0.000250392 0)
(0.999108 0.000122517 0)
(0.999025 0.000419155 0)
(0.998738 0.000275477 0)
(0.998537 0.000855584 0)
(0.998286 0.000882661 0)
(1.00001 -4.23082e-05 0)
(0.999914 -0.000166898 0)
(0.999807 5.95619e-06 0)
(0.999812 -7.68218e-06 0)
(0.999839 3.38616e-05 0)
(0.999799 -8.1183e-07 0)
(0.999788 6.34247e-05 0)
(0.999745 1.5627e-05 0)
(0.999728 8.96687e-05 0)
(0.999668 2.97882e-05 0)
(0.999635 0.000124691 0)
(0.999557 4.84761e-05 0)
(0.999503 0.000176453 0)
(0.999398 7.78475e-05 0)
(0.999309 0.000263599 0)
(0.999162 0.000136765 0)
(0.999008 0.000436756 0)
(0.998804 0.000303926 0)
(0.998543 0.000870173 0)
(0.998387 0.000920822 0)
(0.999998 -2.8638e-05 0)
(0.999934 -0.000155998 0)
(0.999818 4.78696e-06 0)
(0.999831 -7.66427e-06 0)
(0.999842 3.71806e-05 0)
(0.999817 -2.06828e-07 0)
(0.999792 6.74649e-05 0)
(0.999763 1.7441e-05 0)
(0.999732 9.5284e-05 0)
(0.999687 3.2926e-05 0)
(0.99964 0.000132184 0)
(0.999577 5.3588e-05 0)
(0.999508 0.000186424 0)
(0.99942 8.63501e-05 0)
(0.999316 0.000276892 0)
(0.999188 0.000152126 0)
(0.99902 0.000453932 0)
(0.998844 0.000333473 0)
(0.998579 0.000883068 0)
(0.99846 0.000957002 0)
(0.999997 -1.71473e-05 0)
(0.999946 -0.000144736 0)
(0.999834 3.96206e-06 0)
(0.999844 -7.54295e-06 0)
(0.999851 4.0541e-05 0)
(0.99983 7.48394e-07 0)
(0.999802 7.1464e-05 0)
(0.999776 1.96274e-05 0)
(0.999741 0.000100862 0)
(0.999699 3.65611e-05 0)
(0.999649 0.000139633 0)
(0.99959 5.9405e-05 0)
(0.999519 0.000196299 0)
(0.999435 9.58899e-05 0)
(0.999328 0.000289909 0)
(0.999209 0.000168968 0)
(0.999039 0.000470322 0)
(0.998878 0.000364313 0)
(0.998623 0.000894076 0)
(0.998526 0.000991262 0)
(0.999997 -7.24322e-06 0)
(0.999955 -0.000133545 0)
(0.999851 3.83619e-06 0)
(0.999855 -7.5647e-06 0)
(0.99986 4.41406e-05 0)
(0.999841 1.79021e-06 0)
(0.999812 7.56632e-05 0)
(0.999786 2.19559e-05 0)
(0.999751 0.000106673 0)
(0.999711 4.04858e-05 0)
(0.999659 0.000147306 0)
(0.999603 6.57244e-05 0)
(0.99953 0.000206334 0)
(0.99945 0.00010625 0)
(0.999341 0.000302894 0)
(0.999228 0.000187003 0)
(0.99906 0.000486173 0)
(0.998911 0.000395934 0)
(0.998668 0.000903618 0)
(0.99859 0.00102299 0)
(0.999997 9.77516e-07 0)
(0.999964 -0.000122294 0)
(0.999866 4.17328e-06 0)
(0.999866 -7.46503e-06 0)
(0.999869 4.77066e-05 0)
(0.999851 3.21215e-06 0)
(0.999821 7.98131e-05 0)
(0.999796 2.47256e-05 0)
(0.99976 0.000112438 0)
(0.999721 4.50013e-05 0)
(0.999669 0.000154905 0)
(0.999614 7.28527e-05 0)
(0.99954 0.00021621 0)
(0.999464 0.000117735 0)
(0.999354 0.000315517 0)
(0.999248 0.000206469 0)
(0.999081 0.000501194 0)
(0.998945 0.000428355 0)
(0.998714 0.000911589 0)
(0.998653 0.00105219 0)
(0.999997 7.8753e-06 0)
(0.999971 -0.00011133 0)
(0.99988 5.19744e-06 0)
(0.999876 -7.42122e-06 0)
(0.999877 5.14454e-05 0)
(0.99986 4.82156e-06 0)
(0.999829 8.41245e-05 0)
(0.999806 2.77352e-05 0)
(0.999768 0.000118363 0)
(0.999732 4.99151e-05 0)
(0.999678 0.000162628 0)
(0.999626 8.06067e-05 0)
(0.999551 0.000226125 0)
(0.999478 0.00013015 0)
(0.999368 0.000327984 0)
(0.999267 0.000227083 0)
(0.999103 0.000515628 0)
(0.998979 0.000461067 0)
(0.998762 0.000918416 0)
(0.998715 0.00107836 0)
(0.999997 1.33887e-05 0)
(0.999977 -0.000100559 0)
(0.999894 6.69649e-06 0)
(0.999886 -7.175e-06 0)
(0.999884 5.51214e-05 0)
(0.999869 6.85434e-06 0)
(0.999838 8.83737e-05 0)
(0.999815 3.12304e-05 0)
(0.999777 0.000124213 0)
(0.999741 5.54837e-05 0)
(0.999687 0.000170238 0)
(0.999637 8.92422e-05 0)
(0.999561 0.000235834 0)
(0.999491 0.000143723 0)
(0.999381 0.000340056 0)
(0.999287 0.000248967 0)
(0.999126 0.000529291 0)
(0.999013 0.000493969 0)
(0.998811 0.000924085 0)
(0.998775 0.00110153 0)
(0.999997 1.78426e-05 0)
(0.999982 -9.02571e-05 0)
(0.999906 8.82242e-06 0)
(0.999895 -6.84922e-06 0)
(0.999891 5.88792e-05 0)
(0.999877 9.16585e-06 0)
(0.999845 9.27205e-05 0)
(0.999823 3.50701e-05 0)
(0.999784 0.000130145 0)
(0.99975 6.15713e-05 0)
(0.999695 0.000177878 0)
(0.999647 9.862e-05 0)
(0.99957 0.000245482 0)
(0.999505 0.00015828 0)
(0.999395 0.000351897 0)
(0.999306 0.000271827 0)
(0.99915 0.000542402 0)
(0.999047 0.000526562 0)
(0.99886 0.000928965 0)
(0.998834 0.00112137 0)
(0.999997 2.12354e-05 0)
(0.999987 -8.03491e-05 0)
(0.999917 1.1378e-05 0)
(0.999904 -6.22892e-06 0)
(0.999897 6.25351e-05 0)
(0.999885 1.19424e-05 0)
(0.999852 9.6996e-05 0)
(0.999831 3.94474e-05 0)
(0.999791 0.000135974 0)
(0.999759 6.83698e-05 0)
(0.999703 0.000185371 0)
(0.999658 0.000108917 0)
(0.99958 0.000254897 0)
(0.999518 0.000173948 0)
(0.999409 0.000363364 0)
(0.999326 0.000295655 0)
(0.999175 0.000554888 0)
(0.999081 0.000558655 0)
(0.998911 0.000933101 0)
(0.998893 0.00113792 0)
(0.999997 2.38463e-05 0)
(0.99999 -7.10265e-05 0)
(0.999927 1.44331e-05 0)
(0.999912 -5.37842e-06 0)
(0.999903 6.61853e-05 0)
(0.999892 1.50897e-05 0)
(0.999859 0.000101306 0)
(0.999839 4.42741e-05 0)
(0.999798 0.000141801 0)
(0.999767 7.57877e-05 0)
(0.999711 0.000192814 0)
(0.999668 0.000120027 0)
(0.99959 0.000264188 0)
(0.999531 0.000190559 0)
(0.999423 0.000374596 0)
(0.999346 0.000320146 0)
(0.999201 0.000566946 0)
(0.999116 0.000589797 0)
(0.998961 0.000936779 0)
(0.99895 0.00115104 0)
(0.999997 2.57085e-05 0)
(0.999993 -6.2224e-05 0)
(0.999936 1.78082e-05 0)
(0.99992 -4.12985e-06 0)
(0.999908 6.96962e-05 0)
(0.999898 1.87382e-05 0)
(0.999865 0.000105531 0)
(0.999846 4.96861e-05 0)
(0.999804 0.000147501 0)
(0.999775 8.39526e-05 0)
(0.999718 0.000200093 0)
(0.999677 0.000132044 0)
(0.9996 0.000273262 0)
(0.999544 0.000208136 0)
(0.999438 0.00038554 0)
(0.999366 0.000345175 0)
(0.999228 0.000578581 0)
(0.999151 0.00061975 0)
(0.999012 0.000940052 0)
(0.999007 0.00116086 0)
(0.999997 2.70367e-05 0)
(0.999995 -5.40458e-05 0)
(0.999943 2.15026e-05 0)
(0.999928 -2.50747e-06 0)
(0.999913 7.31244e-05 0)
(0.999904 2.28299e-05 0)
(0.999871 0.000109732 0)
(0.999852 5.56306e-05 0)
(0.99981 0.000153138 0)
(0.999783 9.28006e-05 0)
(0.999726 0.000207276 0)
(0.999687 0.00014487 0)
(0.99961 0.000282208 0)
(0.999557 0.0002265 0)
(0.999454 0.000396325 0)
(0.999386 0.000370428 0)
(0.999256 0.000589956 0)
(0.999186 0.00064814 0)
(0.999063 0.000943095 0)
(0.999062 0.00116742 0)
(0.999997 2.78759e-05 0)
(0.999997 -4.64209e-05 0)
(0.99995 2.53555e-05 0)
(0.999935 -3.92135e-07 0)
(0.999918 7.63846e-05 0)
(0.99991 2.74464e-05 0)
(0.999876 0.000113836 0)
(0.999859 6.21904e-05 0)
(0.999816 0.00015864 0)
(0.99979 0.000102392 0)
(0.999733 0.000214313 0)
(0.999696 0.000158519 0)
(0.99962 0.000291004 0)
(0.99957 0.000245573 0)
(0.99947 0.000406962 0)
(0.999407 0.000395698 0)
(0.999284 0.000601112 0)
(0.999222 0.000674751 0)
(0.999114 0.000945925 0)
(0.999117 0.00117092 0)
(0.999997 2.83732e-05 0)
(0.999998 -3.93762e-05 0)
(0.999956 2.93202e-05 0)
(0.999942 2.21005e-06 0)
(0.999922 7.95117e-05 0)
(0.999915 3.25501e-05 0)
(0.999881 0.000117881 0)
(0.999865 6.93287e-05 0)
(0.999822 0.000164053 0)
(0.999798 0.000112663 0)
(0.99974 0.000221263 0)
(0.999706 0.000172876 0)
(0.999631 0.000299737 0)
(0.999584 0.000265154 0)
(0.999487 0.000417569 0)
(0.999428 0.000420675 0)
(0.999314 0.000612162 0)
(0.999258 0.000699319 0)
(0.999164 0.000948601 0)
(0.999171 0.00117154 0)
(0.999997 2.85631e-05 0)
(0.999999 -3.28297e-05 0)
(0.999961 3.32606e-05 0)
(0.999948 5.36785e-06 0)
(0.999927 8.24625e-05 0)
(0.99992 3.81788e-05 0)
(0.999886 0.00012183 0)
(0.99987 7.70772e-05 0)
(0.999827 0.000169351 0)
(0.999805 0.000123611 0)
(0.999748 0.000228129 0)
(0.999715 0.000187881 0)
(0.999641 0.000308438 0)
(0.999597 0.00028509 0)
(0.999505 0.000428193 0)
(0.99945 0.000445119 0)
(0.999345 0.000623135 0)
(0.999294 0.000721698 0)
(0.999214 0.000951076 0)
(0.999224 0.00116956 0)
(0.999997 2.85301e-05 0)
(1 -2.67526e-05 0)
(0.999965 3.71132e-05 0)
(0.999953 9.06942e-06 0)
(0.99993 8.52654e-05 0)
(0.999925 4.42964e-05 0)
(0.99989 0.000125711 0)
(0.999876 8.53933e-05 0)
(0.999833 0.000174583 0)
(0.999811 0.000135158 0)
(0.999755 0.000234976 0)
(0.999724 0.000203395 0)
(0.999653 0.000317196 0)
(0.999611 0.00030516 0)
(0.999523 0.000438927 0)
(0.999472 0.000468756 0)
(0.999376 0.000634071 0)
(0.999331 0.000741755 0)
(0.999264 0.000953304 0)
(0.999276 0.00116525 0)
(0.999997 2.82923e-05 0)
(1 -2.10588e-05 0)
(0.999969 4.07772e-05 0)
(0.999958 1.33327e-05 0)
(0.999934 8.79143e-05 0)
(0.999929 5.09017e-05 0)
(0.999895 0.000129524 0)
(0.999881 9.42593e-05 0)
(0.999838 0.000179763 0)
(0.999818 0.000147241 0)
(0.999763 0.000241847 0)
(0.999733 0.000219294 0)
(0.999665 0.000326069 0)
(0.999625 0.000325169 0)
(0.999542 0.000449812 0)
(0.999495 0.000491367 0)
(0.999408 0.00064495 0)
(0.999368 0.00075945 0)
(0.999312 0.000955176 0)
(0.999328 0.00115892 0)
(0.999997 2.78877e-05 0)
(1 -1.56918e-05 0)
(0.999972 4.42022e-05 0)
(0.999963 1.81226e-05 0)
(0.999938 9.04428e-05 0)
(0.999933 5.79463e-05 0)
(0.999899 0.000133301 0)
(0.999887 0.000103611 0)
(0.999844 0.000184954 0)
(0.999825 0.000159755 0)
(0.999771 0.000248816 0)
(0.999743 0.000235415 0)
(0.999677 0.000335134 0)
(0.99964 0.0003449 0)
(0.999562 0.00046089 0)
(0.999518 0.000512744 0)
(0.99944 0.000655724 0)
(0.999405 0.000774775 0)
(0.99936 0.000956578 0)
(0.999378 0.00115086 0)
(0.999997 2.73239e-05 0)
(1 -1.05764e-05 0)
(0.999974 4.73338e-05 0)
(0.999967 2.34084e-05 0)
(0.999941 9.28757e-05 0)
(0.999937 6.53933e-05 0)
(0.999903 0.000137073 0)
(0.999892 0.000113385 0)
(0.99985 0.000190198 0)
(0.999831 0.000172588 0)
(0.999779 0.000255942 0)
(0.999753 0.000251601 0)
(0.99969 0.000344442 0)
(0.999655 0.000364156 0)
(0.999583 0.000472158 0)
(0.999542 0.000532732 0)
(0.999472 0.000666307 0)
(0.999443 0.000787795 0)
(0.999406 0.000957369 0)
(0.999427 0.00114136 0)
(0.999996 2.66161e-05 0)
(1 -5.65877e-06 0)
(0.999976 5.01561e-05 0)
(0.999971 2.91234e-05 0)
(0.999944 9.52573e-05 0)
(0.999941 7.31742e-05 0)
(0.999907 0.000140882 0)
(0.999896 0.000123491 0)
(0.999855 0.000195565 0)
(0.999838 0.000185614 0)
(0.999788 0.000263295 0)
(0.999763 0.000267682 0)
(0.999703 0.000354035 0)
(0.99967 0.000382754 0)
(0.999604 0.000483586 0)
(0.999567 0.000551212 0)
(0.999505 0.000676576 0)
(0.99948 0.000798599 0)
(0.999452 0.000957417 0)
(0.999475 0.00113067 0)
(0.999996 2.57748e-05 0)
(1 -8.91562e-07 0)
(0.999978 5.26662e-05 0)
(0.999974 3.51956e-05 0)
(0.999948 9.76332e-05 0)
(0.999944 8.12212e-05 0)
(0.999912 0.000144776 0)
(0.999901 0.000133832 0)
(0.999861 0.000201108 0)
(0.999845 0.000198696 0)
(0.999797 0.00027092 0)
(0.999773 0.000283498 0)
(0.999717 0.00036392 0)
(0.999686 0.000400536 0)
(0.999625 0.000495103 0)
(0.999592 0.000568114 0)
(0.999538 0.000686389 0)
(0.999518 0.00080732 0)
(0.999496 0.000956597 0)
(0.999522 0.00111902 0)
(0.999996 2.4815e-05 0)
(1 3.75319e-06 0)
(0.999979 5.48899e-05 0)
(0.999977 4.15305e-05 0)
(0.999951 0.000100055 0)
(0.999947 8.94464e-05 0)
(0.999916 0.000148808 0)
(0.999906 0.000144296 0)
(0.999867 0.000206891 0)
(0.999852 0.000211702 0)
(0.999806 0.000278858 0)
(0.999784 0.000298899 0)
(0.999731 0.000374081 0)
(0.999703 0.000417376 0)
(0.999647 0.000506604 0)
(0.999618 0.000583405 0)
(0.99957 0.000695583 0)
(0.999555 0.000814098 0)
(0.999539 0.000954804 0)
(0.999568 0.00110659 0)
(0.999996 2.37627e-05 0)
(1 8.28514e-06 0)
(0.999981 5.68685e-05 0)
(0.999979 4.80299e-05 0)
(0.999954 0.000102576 0)
(0.999951 9.77619e-05 0)
(0.99992 0.000153025 0)
(0.999911 0.00015477 0)
(0.999874 0.000212952 0)
(0.999859 0.0002245 0)
(0.999816 0.000287114 0)
(0.999794 0.000313756 0)
(0.999746 0.000384459 0)
(0.99972 0.000433177 0)
(0.999669 0.000517952 0)
(0.999644 0.000597088 0)
(0.999603 0.000703996 0)
(0.999593 0.000819084 0)
(0.999581 0.000951964 0)
(0.999611 0.00109353 0)
(0.999996 2.26463e-05 0)
(1 1.26984e-05 0)
(0.999982 5.86601e-05 0)
(0.999982 5.45863e-05 0)
(0.999957 0.000105242 0)
(0.999954 0.000106071 0)
(0.999924 0.00015747 0)
(0.999916 0.00016514 0)
(0.99988 0.000219322 0)
(0.999866 0.000236974 0)
(0.999825 0.000295671 0)
(0.999806 0.000327962 0)
(0.999761 0.000394966 0)
(0.999737 0.000447876 0)
(0.999692 0.000528991 0)
(0.99967 0.00060919 0)
(0.999635 0.000711472 0)
(0.999629 0.000822417 0)
(0.999622 0.000948031 0)
(0.999654 0.00107992 0)
(0.999996 2.15099e-05 0)
(1 1.69687e-05 0)
(0.999983 6.033e-05 0)
(0.999983 6.10968e-05 0)
(0.999959 0.000108096 0)
(0.999957 0.000114282 0)
(0.999928 0.000162171 0)
(0.99992 0.000175302 0)
(0.999887 0.000225997 0)
(0.999874 0.000249021 0)
(0.999835 0.000304475 0)
(0.999818 0.000341434 0)
(0.999776 0.000405481 0)
(0.999755 0.000461434 0)
(0.999715 0.000539547 0)
(0.999697 0.000619754 0)
(0.999667 0.000717876 0)
(0.999665 0.000824225 0)
(0.999661 0.000942995 0)
(0.999694 0.00106585 0)
(0.999996 2.03941e-05 0)
(1 2.10654e-05 0)
(0.999984 6.19452e-05 0)
(0.999985 6.74629e-05 0)
(0.999962 0.000111164 0)
(0.99996 0.000122306 0)
(0.999932 0.000167137 0)
(0.999925 0.000185163 0)
(0.999893 0.000232954 0)
(0.999882 0.000260561 0)
(0.999846 0.000313446 0)
(0.99983 0.000354111 0)
(0.999792 0.000415861 0)
(0.999774 0.000473834 0)
(0.999737 0.000549451 0)
(0.999724 0.000628828 0)
(0.999698 0.000723096 0)
(0.9997 0.000824617 0)
(0.999699 0.000936868 0)
(0.999733 0.00105136 0)
(0.999996 1.93501e-05 0)
(1 2.49482e-05 0)
(0.999985 6.35667e-05 0)
(0.999987 7.36001e-05 0)
(0.999964 0.000114458 0)
(0.999963 0.000130069 0)
(0.999937 0.000172357 0)
(0.99993 0.000194647 0)
(0.9999 0.000240137 0)
(0.99989 0.00027153 0)
(0.999856 0.000322473 0)
(0.999842 0.000365953 0)
(0.999807 0.000425946 0)
(0.999792 0.000485069 0)
(0.99976 0.00055854 0)
(0.99975 0.000636458 0)
(0.999729 0.000727054 0)
(0.999735 0.000823682 0)
(0.999736 0.000929686 0)
(0.99977 0.00103648 0)
(0.999996 1.84162e-05 0)
(1 2.85824e-05 0)
(0.999985 6.52429e-05 0)
(0.999988 7.94383e-05 0)
(0.999967 0.000117968 0)
(0.999965 0.000137507 0)
(0.999941 0.000177793 0)
(0.999935 0.000203693 0)
(0.999907 0.000247464 0)
(0.999898 0.000281883 0)
(0.999867 0.000331425 0)
(0.999855 0.00037693 0)
(0.999823 0.000435576 0)
(0.999811 0.000495139 0)
(0.999783 0.000566672 0)
(0.999777 0.000642685 0)
(0.999759 0.000729698 0)
(0.999768 0.000821491 0)
(0.999771 0.000921499 0)
(0.999806 0.00102121 0)
(0.999996 1.76323e-05 0)
(1 3.19347e-05 0)
(0.999986 6.70047e-05 0)
(0.999989 8.49276e-05 0)
(0.999969 0.000121667 0)
(0.999968 0.000144571 0)
(0.999945 0.000183384 0)
(0.99994 0.000212257 0)
(0.999914 0.00025483 0)
(0.999906 0.000291585 0)
(0.999878 0.000340158 0)
(0.999868 0.00038702 0)
(0.999839 0.000444589 0)
(0.99983 0.000504039 0)
(0.999805 0.000573726 0)
(0.999803 0.00064754 0)
(0.999788 0.000731008 0)
(0.9998 0.000818102 0)
(0.999804 0.000912363 0)
(0.99984 0.00100558 0)
(0.999996 1.70167e-05 0)
(1 3.49869e-05 0)
(0.999987 6.88631e-05 0)
(0.99999 9.00353e-05 0)
(0.999971 0.000125504 0)
(0.999971 0.000151226 0)
(0.999949 0.00018905 0)
(0.999946 0.000220306 0)
(0.999921 0.000262114 0)
(0.999915 0.00030061 0)
(0.999888 0.000348526 0)
(0.999881 0.000396202 0)
(0.999855 0.000452843 0)
(0.999849 0.000511763 0)
(0.999827 0.000579611 0)
(0.999828 0.000651046 0)
(0.999816 0.000730985 0)
(0.999831 0.000813561 0)
(0.999836 0.000902338 0)
(0.999872 0.000989578 0)
(0.999996 1.65823e-05 0)
(1 3.77284e-05 0)
(0.999987 7.08084e-05 0)
(0.999991 9.47467e-05 0)
(0.999974 0.000129417 0)
(0.999974 0.000157449 0)
(0.999953 0.000194692 0)
(0.999951 0.000227815 0)
(0.999928 0.000269188 0)
(0.999923 0.000308929 0)
(0.999899 0.000356385 0)
(0.999894 0.000404448 0)
(0.999871 0.000460211 0)
(0.999868 0.000518298 0)
(0.999849 0.00058426 0)
(0.999853 0.00065322 0)
(0.999843 0.00072965 0)
(0.99986 0.000807913 0)
(0.999866 0.000891479 0)
(0.999902 0.000973223 0)
(0.999996 1.63189e-05 0)
(1 4.01653e-05 0)
(0.999988 7.28127e-05 0)
(0.999992 9.90589e-05 0)
(0.999976 0.000133326 0)
(0.999977 0.000163224 0)
(0.999957 0.000200205 0)
(0.999956 0.000234761 0)
(0.999935 0.000275922 0)
(0.999932 0.000316516 0)
(0.99991 0.000363605 0)
(0.999907 0.000411729 0)
(0.999886 0.000466589 0)
(0.999886 0.000523626 0)
(0.99987 0.000587632 0)
(0.999876 0.000654077 0)
(0.999869 0.000727033 0)