# Solver information
# Time        	U_solver      	Ux_initial    	Ux_final      	Ux_iters      	Uy_initial    	Uy_final      	Uy_iters      	Uz_initial    	Uz_final      	Uz_iters      	U_converged   	p_solver      	p_initial     	p_final       	p_iters       	p_converged   
1             	smoothSolver	1.000000e+00	3.589280e-02	1	1.000000e+00	3.686910e-02	1	1.000000e+00	3.045300e-02	1	false	GAMG	1.000000e+00	9.872380e-02	34	true
2             	smoothSolver	3.002860e-01	2.313930e-02	4	2.569790e-01	2.331700e-02	3	4.477880e-01	2.845250e-02	3	false	GAMG	1.815160e-01	1.357550e-02	3	true
3             	smoothSolver	1.793600e-01	1.251560e-02	4	3.001940e-01	2.070310e-02	5	3.862070e-01	3.202470e-02	3	false	GAMG	1.522590e-01	1.499350e-02	3	true
4             	smoothSolver	8.223020e-02	5.735270e-03	3	1.127390e-01	9.506220e-03	4	3.064820e-01	2.425820e-02	3	false	GAMG	1.584590e-01	1.184730e-02	4	true
5             	smoothSolver	5.867630e-02	4.123710e-03	3	5.861350e-02	5.558010e-03	3	2.956240e-01	2.066970e-02	3	false	GAMG	7.316760e-02	7.177230e-03	3	true
6             	smoothSolver	4.728080e-02	3.688980e-03	3	4.481330e-02	4.192870e-03	3	2.757160e-01	1.999110e-02	3	false	GAMG	5.559300e-02	3.105020e-03	3	true
7             	smoothSolver	3.967400e-02	3.402760e-03	3	3.832450e-02	2.437860e-03	4	2.385910e-01	1.761540e-02	3	false	GAMG	4.462500e-02	3.308470e-03	3	true
8             	smoothSolver	3.387680e-02	3.042430e-03	3	3.106120e-02	2.175010e-03	4	1.945480e-01	1.506330e-02	3	false	GAMG	3.655090e-02	2.895760e-03	3	true
9             	smoothSolver	2.923660e-02	2.585490e-03	3	2.605890e-02	1.809380e-03	4	1.686660e-01	1.340810e-02	3	false	GAMG	3.075750e-02	2.212470e-03	3	true
10            	smoothSolver	2.607630e-02	2.344810e-03	3	2.407630e-02	1.545100e-03	4	1.595070e-01	1.304660e-02	3	false	GAMG	2.729390e-02	1.697470e-03	3	true
11            	smoothSolver	2.401870e-02	2.254070e-03	3	2.246720e-02	1.415710e-03	4	1.601930e-01	1.317280e-02	3	false	GAMG	2.508730e-02	1.204840e-03	3	true
12            	smoothSolver	2.258050e-02	2.205830e-03	3	2.006550e-02	1.331010e-03	4	1.563020e-01	1.324240e-02	3	false	GAMG	2.310070e-02	1.144490e-03	3	true
13            	smoothSolver	2.143010e-02	1.251670e-03	4	1.761600e-02	1.258390e-03	4	1.481940e-01	1.318400e-02	3	false	GAMG	2.089770e-02	1.335120e-03	3	true
14            	smoothSolver	2.031190e-02	1.246040e-03	4	1.629320e-02	1.272530e-03	4	1.361680e-01	1.315540e-02	3	false	GAMG	1.871160e-02	1.129420e-03	3	true
15            	smoothSolver	1.928660e-02	1.254620e-03	4	1.578470e-02	1.270270e-03	4	1.214990e-01	7.163130e-03	4	false	GAMG	1.729340e-02	9.680760e-04	3	true
16            	smoothSolver	1.828630e-02	1.238060e-03	4	1.543140e-02	1.245730e-03	4	1.082050e-01	6.666320e-03	4	false	GAMG	1.593070e-02	8.174830e-04	3	true
17            	smoothSolver	1.742570e-02	1.224460e-03	4	1.497760e-02	1.207100e-03	4	9.954150e-02	6.283420e-03	4	false	GAMG	1.492450e-02	7.330120e-04	3	true
18            	smoothSolver	1.669050e-02	1.215620e-03	4	1.442580e-02	1.163840e-03	4	9.424720e-02	5.995160e-03	4	false	GAMG	1.403110e-02	6.805110e-04	3	true
19            	smoothSolver	1.609740e-02	1.210120e-03	4	1.383550e-02	1.120580e-03	4	8.998500e-02	5.744950e-03	4	false	GAMG	1.344260e-02	6.554850e-04	3	true
20            	smoothSolver	1.561830e-02	1.207400e-03	4	1.328810e-02	1.082780e-03	4	8.578960e-02	5.499210e-03	4	false	GAMG	1.301970e-02	6.376710e-04	3	true
21            	smoothSolver	1.520230e-02	1.205930e-03	4	1.285160e-02	1.053630e-03	4	8.186350e-02	5.259130e-03	4	false	GAMG	1.263030e-02	6.114840e-04	3	true
22            	smoothSolver	1.481060e-02	1.204570e-03	4	1.251950e-02	1.032790e-03	4	7.822200e-02	5.040700e-03	4	false	GAMG	1.220980e-02	5.846480e-04	3	true
23            	smoothSolver	1.445320e-02	1.203330e-03	4	1.224730e-02	1.018340e-03	4	7.442220e-02	4.848300e-03	4	false	GAMG	1.180120e-02	1.177330e-03	2	true
24            	smoothSolver	1.403910e-02	1.202120e-03	4	1.193760e-02	1.003910e-03	4	6.983270e-02	4.644830e-03	4	false	GAMG	1.151820e-02	1.008050e-03	2	true
25            	smoothSolver	1.380620e-02	1.202800e-03	4	1.176700e-02	9.981800e-04	4	6.679790e-02	4.550670e-03	4	false	GAMG	1.112390e-02	1.012500e-03	2	true
26            	smoothSolver	1.359150e-02	1.203460e-03	4	1.166180e-02	1.001810e-03	4	6.445690e-02	4.496990e-03	4	false	GAMG	1.085600e-02	1.026800e-03	2	true
27            	smoothSolver	1.337990e-02	1.203670e-03	4	1.153890e-02	1.003920e-03	4	6.180040e-02	4.420390e-03	4	false	GAMG	1.064920e-02	1.035560e-03	2	true
28            	smoothSolver	1.318910e-02	1.204030e-03	4	1.143530e-02	1.008050e-03	4	5.954050e-02	4.341760e-03	4	false	GAMG	1.047810e-02	1.047040e-03	2	true
29            	smoothSolver	1.299010e-02	1.202330e-03	4	1.137210e-02	1.013970e-03	4	5.743170e-02	4.254230e-03	4	false	GAMG	1.035430e-02	6.695970e-04	3	true
30            	smoothSolver	1.286740e-02	1.200020e-03	4	1.137750e-02	1.027500e-03	4	5.642520e-02	4.224680e-03	4	false	GAMG	1.008450e-02	6.297680e-04	3	true
31            	smoothSolver	1.265770e-02	1.196840e-03	4	1.140140e-02	1.040060e-03	4	5.479140e-02	4.129190e-03	4	false	GAMG	1.002380e-02	4.985320e-04	3	true
32            	smoothSolver	1.245050e-02	1.193290e-03	4	1.143340e-02	1.054160e-03	4	5.359640e-02	4.086600e-03	4	false	GAMG	9.924250e-03	9.551270e-04	2	true
33            	smoothSolver	1.222350e-02	1.191670e-03	4	1.147060e-02	1.067870e-03	4	5.220900e-02	4.044000e-03	4	false	GAMG	9.814640e-03	3.762150e-04	3	true
34            	smoothSolver	1.221020e-02	1.191420e-03	4	1.156650e-02	1.085010e-03	4	5.218320e-02	4.087730e-03	4	false	GAMG	9.618110e-03	8.703500e-04	2	true
35            	smoothSolver	1.204440e-02	1.190210e-03	4	1.163420e-02	1.099630e-03	4	5.113700e-02	4.061840e-03	4	false	GAMG	9.750390e-03	8.852700e-04	2	true
36            	smoothSolver	1.197700e-02	1.188510e-03	4	1.176410e-02	1.119490e-03	4	5.108230e-02	4.090370e-03	4	false	GAMG	9.783440e-03	9.713610e-04	2	true
37            	smoothSolver	1.188100e-02	1.184540e-03	4	1.188650e-02	1.143940e-03	4	5.125430e-02	4.137710e-03	4	false	GAMG	9.791020e-03	6.685730e-04	3	true
38            	smoothSolver	1.181150e-02	1.178240e-03	4	1.200540e-02	1.170020e-03	4	5.177060e-02	4.196530e-03	4	false	GAMG	9.614430e-03	5.415190e-04	3	true
39            	smoothSolver	1.165010e-02	7.277320e-04	5	1.213700e-02	1.196690e-03	4	5.149490e-02	4.195680e-03	4	false	GAMG	9.480380e-03	7.669020e-04	2	true
40            	smoothSolver	1.150480e-02	7.211730e-04	5	1.237950e-02	7.669660e-04	5	5.097960e-02	4.251580e-03	4	false	GAMG	9.737080e-03	9.096900e-04	2	true
41            	smoothSolver	1.141090e-02	7.144630e-04	5	1.228760e-02	7.642750e-04	5	5.135790e-02	4.379310e-03	4	false	GAMG	9.752820e-03	9.736780e-04	2	true
42            	smoothSolver	1.130160e-02	7.068630e-04	5	1.227790e-02	7.698500e-04	5	5.168280e-02	4.443330e-03	4	false	GAMG	9.688170e-03	6.385150e-04	3	true
43            	smoothSolver	1.120290e-02	6.981340e-04	5	1.230970e-02	7.805210e-04	5	5.225160e-02	4.497640e-03	4	false	GAMG	9.377490e-03	8.846260e-04	2	true
44            	smoothSolver	1.103820e-02	6.913890e-04	5	1.234850e-02	7.917370e-04	5	5.192190e-02	4.518360e-03	4	false	GAMG	9.397410e-03	8.266830e-04	2	true
45            	smoothSolver	1.096120e-02	6.851130e-04	5	1.234390e-02	7.958480e-04	5	5.227230e-02	4.601450e-03	4	false	GAMG	9.395020e-03	9.038060e-04	2	true
46            	smoothSolver	1.087200e-02	6.790980e-04	5	1.227750e-02	7.991380e-04	5	5.258660e-02	4.714410e-03	4	false	GAMG	9.266130e-03	9.158260e-04	2	true
47            	smoothSolver	1.076500e-02	6.733160e-04	5	1.216710e-02	8.004560e-04	5	5.271450e-02	4.807120e-03	4	false	GAMG	9.122130e-03	8.950350e-04	2	true
48            	smoothSolver	1.064530e-02	6.666340e-04	5	1.206210e-02	8.008000e-04	5	5.263210e-02	4.876500e-03	4	false	GAMG	9.001450e-03	8.859350e-04	2	true
49            	smoothSolver	1.052310e-02	6.598690e-04	5	1.196920e-02	8.014100e-04	5	5.232540e-02	4.931230e-03	4	false	GAMG	8.902160e-03	8.867520e-04	2	true
50            	smoothSolver	1.039710e-02	6.525610e-04	5	1.187480e-02	8.018500e-04	5	5.203770e-02	4.976970e-03	4	false	GAMG	8.781210e-03	8.764570e-04	2	true
51            	smoothSolver	1.026740e-02	6.447350e-04	5	1.176270e-02	8.012090e-04	5	5.158380e-02	5.013150e-03	4	false	GAMG	8.642760e-03	8.532500e-04	2	true
52            	smoothSolver	1.013780e-02	6.364840e-04	5	1.163630e-02	7.982660e-04	5	5.107140e-02	5.035710e-03	4	false	GAMG	8.499280e-03	8.124100e-04	2	true
53            	smoothSolver	1.000120e-02	6.278530e-04	5	1.148310e-02	7.935090e-04	5	5.051810e-02	5.043020e-03	4	false	GAMG	8.352100e-03	7.788080e-04	2	true
54            	smoothSolver	9.863790e-03	6.189480e-04	5	1.131670e-02	7.866080e-04	5	4.988680e-02	3.065580e-03	5	false	GAMG	8.238600e-03	7.669240e-04	2	true
55            	smoothSolver	9.721770e-03	6.097400e-04	5	1.115570e-02	7.775150e-04	5	4.849680e-02	2.971960e-03	5	false	GAMG	8.073850e-03	7.587170e-04	2	true
56            	smoothSolver	9.573930e-03	6.000700e-04	5	1.098180e-02	7.666700e-04	5	4.729500e-02	2.902300e-03	5	false	GAMG	7.917700e-03	7.425230e-04	2	true
57            	smoothSolver	9.420800e-03	5.899400e-04	5	1.081300e-02	7.551210e-04	5	4.634140e-02	2.855860e-03	5	false	GAMG	7.752920e-03	7.549710e-04	2	true
58            	smoothSolver	9.269910e-03	5.800630e-04	5	1.064270e-02	7.423210e-04	5	4.549330e-02	2.815470e-03	5	false	GAMG	7.568170e-03	7.367530e-04	2	true
59            	smoothSolver	9.117820e-03	5.699710e-04	5	1.047270e-02	7.289650e-04	5	4.470820e-02	2.774820e-03	5	false	GAMG	7.399470e-03	7.168540e-04	2	true
60            	smoothSolver	8.964800e-03	5.598430e-04	5	1.030260e-02	7.144900e-04	5	4.393310e-02	2.728650e-03	5	false	GAMG	7.214380e-03	6.851460e-04	2	true
61            	smoothSolver	8.810750e-03	5.496950e-04	5	1.013110e-02	7.002140e-04	5	4.315350e-02	2.678370e-03	5	false	GAMG	7.045330e-03	6.226320e-04	2	true
62            	smoothSolver	8.657750e-03	5.392840e-04	5	9.977480e-03	6.862040e-04	5	4.232080e-02	2.626830e-03	5	false	GAMG	6.859300e-03	5.786910e-04	2	true
63            	smoothSolver	8.504990e-03	5.290700e-04	5	9.821710e-03	6.721760e-04	5	4.154660e-02	2.572500e-03	5	false	GAMG	6.670110e-03	5.557850e-04	2	true
64            	smoothSolver	8.357270e-03	5.188220e-04	5	9.671860e-03	6.584190e-04	5	4.080370e-02	2.518810e-03	5	false	GAMG	6.481860e-03	5.439470e-04	2	true
65            	smoothSolver	8.211380e-03	8.201350e-04	4	9.537460e-03	6.451170e-04	5	4.006330e-02	2.466980e-03	5	false	GAMG	6.315480e-03	5.498570e-04	2	true
66            	smoothSolver	8.082630e-03	8.077900e-04	4	9.257400e-03	6.178000e-04	5	3.916580e-02	3.904840e-03	4	false	GAMG	6.066590e-03	5.294550e-04	2	true
67            	smoothSolver	7.949510e-03	7.943400e-04	4	9.052710e-03	5.984780e-04	5	3.902260e-02	2.387210e-03	5	false	GAMG	5.934670e-03	5.326510e-04	2	true
68            	smoothSolver	7.813900e-03	7.801700e-04	4	8.915950e-03	5.847200e-04	5	3.818390e-02	3.793940e-03	4	false	GAMG	5.735980e-03	5.105960e-04	2	true
69            	smoothSolver	7.675340e-03	7.654130e-04	4	8.792340e-03	5.734400e-04	5	3.805370e-02	3.796600e-03	4	false	GAMG	5.596260e-03	5.029080e-04	2	true
70            	smoothSolver	7.536930e-03	7.503120e-04	4	8.682310e-03	5.626790e-04	5	3.780370e-02	2.311830e-03	5	false	GAMG	5.498950e-03	4.996100e-04	2	true
71            	smoothSolver	7.397110e-03	7.348900e-04	4	8.577210e-03	5.519480e-04	5	3.690030e-02	3.646500e-03	4	false	GAMG	5.332110e-03	4.798920e-04	2	true
72            	smoothSolver	7.256200e-03	7.191850e-04	4	8.463450e-03	5.418010e-04	5	3.663990e-02	3.634020e-03	4	false	GAMG	5.182760e-03	4.641500e-04	2	true
73            	smoothSolver	7.115560e-03	7.034490e-04	4	8.369610e-03	5.322700e-04	5	3.638200e-02	3.616650e-03	4	false	GAMG	5.066000e-03	4.560980e-04	2	true
74            	smoothSolver	6.975130e-03	6.878390e-04	4	8.272240e-03	5.231690e-04	5	3.606720e-02	3.582480e-03	4	false	GAMG	4.936050e-03	4.417790e-04	2	true
75            	smoothSolver	6.835990e-03	6.723070e-04	4	8.180200e-03	5.147900e-04	5	3.569500e-02	3.538030e-03	4	false	GAMG	4.833660e-03	4.341740e-04	2	true
76            	smoothSolver	6.698840e-03	6.569700e-04	4	8.095310e-03	5.067030e-04	5	3.529850e-02	3.490530e-03	4	false	GAMG	4.705670e-03	4.203810e-04	2	true
77            	smoothSolver	6.563340e-03	6.418530e-04	4	8.014100e-03	4.994310e-04	5	3.494550e-02	3.445610e-03	4	false	GAMG	4.611610e-03	4.139660e-04	2	true
78            	smoothSolver	6.430330e-03	6.269600e-04	4	7.929500e-03	4.923660e-04	5	3.455950e-02	3.401320e-03	4	false	GAMG	4.498980e-03	4.018780e-04	2	true
79            	smoothSolver	6.300340e-03	6.122840e-04	4	7.862050e-03	7.830660e-04	4	3.423370e-02	3.361610e-03	4	false	GAMG	4.368660e-03	3.939590e-04	2	true
80            	smoothSolver	6.167870e-03	5.974060e-04	4	7.895840e-03	4.914000e-04	5	3.381280e-02	3.311910e-03	4	false	GAMG	4.317860e-03	3.878600e-04	2	true
81            	smoothSolver	6.043700e-03	5.834290e-04	4	7.786230e-03	7.750340e-04	4	3.352620e-02	3.276300e-03	4	false	GAMG	4.190770e-03	3.827080e-04	2	true
82            	smoothSolver	5.916420e-03	5.692120e-04	4	7.796100e-03	7.786840e-04	4	3.317270e-02	3.230960e-03	4	false	GAMG	4.102110e-03	3.767550e-04	2	true
83            	smoothSolver	5.792200e-03	5.554600e-04	4	7.783240e-03	4.834280e-04	5	3.283450e-02	3.190960e-03	4	false	GAMG	4.087930e-03	3.782790e-04	2	true
84            	smoothSolver	5.673630e-03	5.424730e-04	4	7.636240e-03	7.573190e-04	4	3.254590e-02	3.157000e-03	4	false	GAMG	3.940300e-03	3.690060e-04	2	true
85            	smoothSolver	5.552500e-03	5.292520e-04	4	7.636590e-03	7.599300e-04	4	3.222200e-02	3.120420e-03	4	false	GAMG	3.877880e-03	3.681440e-04	2	true
86            	smoothSolver	5.433170e-03	5.163710e-04	4	7.616840e-03	7.604800e-04	4	3.185640e-02	3.082120e-03	4	false	GAMG	3.803720e-03	3.650290e-04	2	true
87            	smoothSolver	5.317310e-03	5.038110e-04	4	7.590630e-03	7.581110e-04	4	3.152660e-02	3.047970e-03	4	false	GAMG	3.746100e-03	3.655020e-04	2	true
88            	smoothSolver	5.201150e-03	4.914960e-04	4	7.540550e-03	7.531010e-04	4	3.123770e-02	3.014690e-03	4	false	GAMG	3.672060e-03	3.612920e-04	2	true
89            	smoothSolver	5.087910e-03	4.793640e-04	4	7.486710e-03	7.477040e-04	4	3.092540e-02	2.981530e-03	4	false	GAMG	3.620220e-03	3.597130e-04	2	true
90            	smoothSolver	4.974120e-03	4.673340e-04	4	7.431750e-03	7.416440e-04	4	3.060560e-02	2.949130e-03	4	false	GAMG	3.549180e-03	3.542940e-04	2	true
91            	smoothSolver	4.862920e-03	4.555530e-04	4	7.377630e-03	7.359810e-04	4	3.031540e-02	2.916540e-03	4	false	GAMG	3.499890e-03	2.188750e-04	3	true
92            	smoothSolver	4.757800e-03	4.444090e-04	4	7.341230e-03	7.320410e-04	4	3.024180e-02	2.905310e-03	4	false	GAMG	3.356060e-03	2.868140e-04	2	true
93            	smoothSolver	4.648330e-03	4.336010e-04	4	7.279890e-03	7.267570e-04	4	2.958060e-02	2.845310e-03	4	false	GAMG	3.355440e-03	3.001410e-04	2	true
94            	smoothSolver	4.535990e-03	4.216020e-04	4	7.178750e-03	7.158670e-04	4	2.911430e-02	2.800610e-03	4	false	GAMG	3.311090e-03	3.069790e-04	2	true
95            	smoothSolver	4.428780e-03	4.099810e-04	4	7.129620e-03	7.101900e-04	4	2.893780e-02	2.782890e-03	4	false	GAMG	3.264700e-03	3.218280e-04	2	true
96            	smoothSolver	4.321120e-03	3.988880e-04	4	7.066320e-03	7.031550e-04	4	2.868910e-02	2.754460e-03	4	false	GAMG	3.203430e-03	1.987970e-04	3	true
97            	smoothSolver	4.221250e-03	3.886190e-04	4	7.024040e-03	6.986840e-04	4	2.868860e-02	2.747390e-03	4	false	GAMG	3.088340e-03	2.801320e-04	2	true
98            	smoothSolver	4.115910e-03	3.783240e-04	4	6.944510e-03	6.916730e-04	4	2.792240e-02	2.683250e-03	4	false	GAMG	3.072620e-03	2.928020e-04	2	true
99            	smoothSolver	4.012900e-03	3.676160e-04	4	6.857830e-03	6.817030e-04	4	2.749870e-02	2.641270e-03	4	false	GAMG	3.050350e-03	1.834850e-04	3	true
100           	smoothSolver	3.914290e-03	3.574370e-04	4	6.808030e-03	6.765080e-04	4	2.752910e-02	2.639800e-03	4	false	GAMG	2.925140e-03	2.610250e-04	2	true
101           	smoothSolver	3.814440e-03	3.475850e-04	4	6.727940e-03	6.687990e-04	4	2.687740e-02	2.581860e-03	4	false	GAMG	2.928860e-03	2.867860e-04	2	true
102           	smoothSolver	3.712270e-03	3.371530e-04	4	6.627650e-03	6.576470e-04	4	2.645360e-02	2.538920e-03	4	false	GAMG	2.881360e-03	1.793040e-04	3	true
103           	smoothSolver	3.617850e-03	3.273800e-04	4	6.572670e-03	6.508560e-04	4	2.650400e-02	2.535730e-03	4	false	GAMG	2.775520e-03	2.647010e-04	2	true
104           	smoothSolver	3.518440e-03	3.176590e-04	4	6.473610e-03	6.413490e-04	4	2.577010e-02	2.472280e-03	4	false	GAMG	2.759030e-03	1.705830e-04	3	true
105           	smoothSolver	3.426680e-03	3.081460e-04	4	6.391650e-03	6.315450e-04	4	2.563600e-02	2.451410e-03	4	false	GAMG	2.668470e-03	2.586780e-04	2	true
106           	smoothSolver	3.330030e-03	2.987340e-04	4	6.290850e-03	6.217650e-04	4	2.494010e-02	2.392040e-03	4	false	GAMG	2.652450e-03	1.684340e-04	3	true
107           	smoothSolver	3.241170e-03	2.895780e-04	4	6.208870e-03	6.120070e-04	4	2.482450e-02	2.376560e-03	4	false	GAMG	2.569320e-03	2.569210e-04	2	true
108           	smoothSolver	3.148220e-03	2.804400e-04	4	6.107490e-03	6.014200e-04	4	2.416090e-02	2.317600e-03	4	false	GAMG	2.556450e-03	1.685810e-04	3	true
109           	smoothSolver	3.062830e-03	2.717300e-04	4	6.014020e-03	5.911800e-04	4	2.406260e-02	2.300170e-03	4	false	GAMG	2.467510e-03	1.495270e-04	3	true
110           	smoothSolver	2.975220e-03	2.632090e-04	4	5.925400e-03	5.809810e-04	4	2.356840e-02	2.257060e-03	4	false	GAMG	2.402110e-03	2.390680e-04	2	true
111           	smoothSolver	2.890990e-03	2.546460e-04	4	5.809370e-03	5.693880e-04	4	2.292000e-02	2.194220e-03	4	false	GAMG	2.414840e-03	1.584330e-04	3	true
112           	smoothSolver	2.805850e-03	2.462560e-04	4	5.709930e-03	5.576170e-04	4	2.276810e-02	2.176760e-03	4	false	GAMG	2.308080e-03	1.426860e-04	3	true
113           	smoothSolver	2.725960e-03	2.382650e-04	4	5.613660e-03	5.470480e-04	4	2.237790e-02	2.136300e-03	4	false	GAMG	2.259960e-03	1.360810e-04	3	true
114           	smoothSolver	2.642490e-03	2.301860e-04	4	5.495820e-03	5.345330e-04	4	2.188170e-02	2.088010e-03	4	false	GAMG	2.195540e-03	1.305540e-04	3	true
115           	smoothSolver	2.565360e-03	2.223750e-04	4	5.387780e-03	5.221690e-04	4	2.148130e-02	2.045500e-03	4	false	GAMG	2.169420e-03	1.279630e-04	3	true
116           	smoothSolver	2.483890e-03	2.145280e-04	4	5.267560e-03	5.086980e-04	4	2.100490e-02	2.001240e-03	4	false	GAMG	2.113430e-03	1.263490e-04	3	true
117           	smoothSolver	2.409030e-03	2.068980e-04	4	5.154060e-03	4.963920e-04	4	2.067790e-02	1.959820e-03	4	false	GAMG	2.073100e-03	1.260390e-04	3	true
118           	smoothSolver	2.330350e-03	1.993920e-04	4	5.035950e-03	4.831580e-04	4	2.018230e-02	1.914770e-03	4	false	GAMG	2.006550e-03	1.246260e-04	3	true
119           	smoothSolver	2.257910e-03	1.921280e-04	4	4.914410e-03	4.700110e-04	4	1.978120e-02	1.870380e-03	4	false	GAMG	1.973320e-03	1.237390e-04	3	true
120           	smoothSolver	2.182920e-03	1.849350e-04	4	4.791990e-03	4.559840e-04	4	1.929280e-02	1.824360e-03	4	false	GAMG	1.914370e-03	1.209810e-04	3	true
121           	smoothSolver	2.114220e-03	1.780150e-04	4	4.666370e-03	4.423180e-04	4	1.886480e-02	1.778010e-03	4	false	GAMG	1.888320e-03	1.189140e-04	3	true
122           	smoothSolver	2.040540e-03	1.710720e-04	4	4.538730e-03	4.283860e-04	4	1.835730e-02	1.730100e-03	4	false	GAMG	1.828290e-03	1.144970e-04	3	true
123           	smoothSolver	1.974340e-03	1.644420e-04	4	4.414440e-03	4.144910e-04	4	1.797320e-02	1.682790e-03	4	false	GAMG	1.799720e-03	1.115400e-04	3	true
124           	smoothSolver	1.904250e-03	1.577920e-04	4	4.285560e-03	3.998940e-04	4	1.741510e-02	1.632920e-03	4	false	GAMG	1.745520e-03	1.075680e-04	3	true
125           	smoothSolver	1.839680e-03	1.513860e-04	4	4.157520e-03	3.858200e-04	4	1.705060e-02	1.586270e-03	4	false	GAMG	1.713570e-03	1.053600e-04	3	true
126           	smoothSolver	1.771140e-03	1.449580e-04	4	4.031610e-03	3.711950e-04	4	1.652800e-02	1.536120e-03	4	false	GAMG	1.656870e-03	1.027080e-04	3	true
127           	smoothSolver	1.708610e-03	1.388110e-04	4	3.897710e-03	3.568970e-04	4	1.610510e-02	1.487310e-03	4	false	GAMG	1.627000e-03	1.029670e-04	3	true
128           	smoothSolver	1.643570e-03	1.327080e-04	4	3.767650e-03	3.421840e-04	4	1.560790e-02	1.437000e-03	4	false	GAMG	1.575100e-03	1.015380e-04	3	true
129           	smoothSolver	1.583400e-03	1.267220e-04	4	3.639930e-03	3.274430e-04	4	1.518960e-02	1.387100e-03	4	false	GAMG	1.549850e-03	1.028980e-04	3	true
130           	smoothSolver	1.519930e-03	1.208290e-04	4	3.506580e-03	3.126640e-04	4	1.463850e-02	1.336020e-03	4	false	GAMG	1.499730e-03	1.018940e-04	3	true
131           	smoothSolver	1.462070e-03	1.151140e-04	4	3.375520e-03	2.984430e-04	4	1.425770e-02	1.286260e-03	4	false	GAMG	1.475030e-03	1.027350e-04	3	true
132           	smoothSolver	1.401450e-03	1.094700e-04	4	3.249770e-03	2.839380e-04	4	1.370930e-02	1.235390e-03	4	false	GAMG	1.425260e-03	1.010310e-04	3	true
133           	smoothSolver	1.345020e-03	1.039690e-04	4	3.121870e-03	2.697740e-04	4	1.329900e-02	1.185870e-03	4	false	GAMG	1.402790e-03	1.068650e-04	3	true
134           	smoothSolver	1.286240e-03	9.843380e-05	4	2.999670e-03	2.556710e-04	4	1.277600e-02	1.133770e-03	4	false	GAMG	1.349110e-03	1.060730e-04	3	true
135           	smoothSolver	1.233630e-03	9.321840e-05	4	2.871530e-03	2.416160e-04	4	1.239040e-02	1.084250e-03	4	false	GAMG	1.340160e-03	1.043340e-04	3	true
136           	smoothSolver	1.178920e-03	8.815670e-05	4	2.752890e-03	2.288150e-04	4	1.186000e-02	1.034330e-03	4	false	GAMG	1.285020e-03	9.850210e-05	3	true
137           	smoothSolver	1.127070e-03	8.333740e-05	4	2.637540e-03	2.160900e-04	4	1.151950e-02	9.854940e-04	4	false	GAMG	1.263250e-03	9.269760e-05	3	true
138           	smoothSolver	1.075410e-03	7.852130e-05	4	2.523580e-03	2.033120e-04	4	1.098860e-02	9.354750e-04	4	false	GAMG	1.213910e-03	8.471940e-05	3	true
139           	smoothSolver	1.024770e-03	7.374340e-05	4	2.404670e-03	1.907210e-04	4	1.063000e-02	8.864840e-04	4	false	GAMG	1.198860e-03	7.826280e-05	3	true
140           	smoothSolver	9.739880e-04	6.903030e-05	4	2.296570e-03	1.785850e-04	4	1.014800e-02	8.375840e-04	4	false	GAMG	1.141680e-03	7.226600e-05	3	true
141           	smoothSolver	9.243110e-04	6.428780e-05	4	2.179260e-03	1.666300e-04	4	9.771100e-03	7.878810e-04	4	false	GAMG	1.118740e-03	6.933090e-05	3	true
142           	smoothSolver	8.752130e-04	5.964700e-05	4	2.074310e-03	1.553930e-04	4	9.294480e-03	7.411760e-04	4	false	GAMG	1.071990e-03	6.678740e-05	3	true
143           	smoothSolver	8.275090e-04	5.514310e-05	4	1.965860e-03	1.448050e-04	4	8.982830e-03	6.969040e-04	4	false	GAMG	1.043370e-03	6.542240e-05	3	true
144           	smoothSolver	7.808960e-04	5.074130e-05	4	1.859610e-03	1.344670e-04	4	8.508180e-03	6.528640e-04	4	false	GAMG	9.958500e-04	6.369730e-05	3	true
145           	smoothSolver	7.345620e-04	4.644290e-05	4	1.755640e-03	1.247190e-04	4	8.184610e-03	6.120500e-04	4	false	GAMG	9.628660e-04	6.196180e-05	3	true
146           	smoothSolver	6.896250e-04	4.235260e-05	4	1.652840e-03	1.156770e-04	4	7.743430e-03	5.741080e-04	4	false	GAMG	9.143490e-04	5.879950e-05	3	true
147           	smoothSolver	6.447950e-04	3.832070e-05	4	1.553450e-03	1.074840e-04	4	7.407320e-03	5.384710e-04	4	false	GAMG	8.728140e-04	5.585180e-05	3	true
148           	smoothSolver	6.015710e-04	3.450110e-05	4	1.460060e-03	9.991480e-05	4	6.949540e-03	5.064050e-04	4	false	GAMG	8.215490e-04	5.208780e-05	3	true
149           	smoothSolver	5.587420e-04	3.081690e-05	4	1.372110e-03	9.329530e-05	4	6.637710e-03	4.766750e-04	4	false	GAMG	7.748940e-04	4.926460e-05	3	true
150           	smoothSolver	5.155380e-04	4.988690e-05	3	1.290950e-03	8.679740e-05	4	6.208740e-03	4.485800e-04	4	false	GAMG	7.251550e-04	4.630300e-05	3	true
151           	smoothSolver	4.788180e-04	4.513010e-05	3	1.214070e-03	8.029770e-05	4	5.891280e-03	4.160300e-04	4	false	GAMG	6.807910e-04	4.331350e-05	3	true
152           	smoothSolver	4.410340e-04	4.058390e-05	3	1.137890e-03	7.450930e-05	4	5.514090e-03	3.866290e-04	4	false	GAMG	6.397530e-04	3.884990e-05	3	true
153           	smoothSolver	4.048400e-04	3.608990e-05	3	1.073110e-03	6.911370e-05	4	5.288660e-03	3.584090e-04	4	false	GAMG	6.158220e-04	3.589080e-05	3	true
154           	smoothSolver	3.690420e-04	3.197480e-05	3	1.012890e-03	6.344250e-05	4	5.036050e-03	3.281250e-04	4	false	GAMG	6.028650e-04	5.359800e-05	2	true
155           	smoothSolver	3.368650e-04	2.819980e-05	3	9.612020e-04	5.746910e-05	4	4.865320e-03	2.944520e-04	4	false	GAMG	6.245010e-04	5.297780e-05	2	true
156           	smoothSolver	3.050470e-04	2.480140e-05	3	9.142170e-04	5.019350e-05	4	4.756740e-03	2.602670e-04	4	false	GAMG	6.345430e-04	5.852850e-05	2	true
157           	smoothSolver	2.767740e-04	2.170760e-05	3	8.605040e-04	8.202350e-05	3	4.673730e-03	4.198600e-04	3	false	GAMG	6.773760e-04	5.941960e-05	2	true
158           	smoothSolver	2.508140e-04	1.913010e-05	3	8.097640e-04	7.047930e-05	3	4.538400e-03	3.771700e-04	3	false	GAMG	7.123280e-04	6.090100e-05	2	true
159           	smoothSolver	2.274950e-04	1.696450e-05	3	7.602390e-04	5.907710e-05	3	4.442810e-03	3.359220e-04	3	false	GAMG	7.649580e-04	6.169890e-05	2	true
160           	smoothSolver	2.099450e-04	1.528720e-05	3	7.040430e-04	4.912980e-05	3	4.352190e-03	2.989200e-04	3	false	GAMG	8.076750e-04	6.349800e-05	2	true
161           	smoothSolver	1.925500e-04	1.386300e-05	3	6.216290e-04	4.115900e-05	3	4.051220e-03	2.700810e-04	3	false	GAMG	8.278650e-04	6.432910e-05	2	true
162           	smoothSolver	1.806270e-04	1.270040e-05	3	5.309660e-04	3.525210e-05	3	3.753610e-03	2.468600e-04	3	false	GAMG	8.214290e-04	6.435690e-05	2	true
163           	smoothSolver	1.668110e-04	1.164260e-05	3	4.560450e-04	3.098610e-05	3	3.491430e-03	2.265000e-04	3	false	GAMG	7.871570e-04	6.065840e-05	2	true
164           	smoothSolver	1.590830e-04	1.078450e-05	3	4.113910e-04	2.794680e-05	3	3.331480e-03	2.092980e-04	3	false	GAMG	7.516140e-04	5.632890e-05	2	true
165           	smoothSolver	1.470600e-04	9.970080e-06	3	3.679860e-04	2.544130e-05	3	3.095630e-03	1.940820e-04	3	false	GAMG	6.976280e-04	4.992260e-05	2	true
166           	smoothSolver	1.409290e-04	9.309070e-06	3	3.389700e-04	2.347850e-05	3	2.952680e-03	1.811340e-04	3	false	GAMG	6.574810e-04	4.497550e-05	2	true
167           	smoothSolver	1.301460e-04	8.653560e-06	3	3.075270e-04	2.159070e-05	3	2.708590e-03	1.689090e-04	3	false	GAMG	6.027490e-04	3.904570e-05	2	true
168           	smoothSolver	1.249830e-04	8.113970e-06	3	2.863000e-04	2.002370e-05	3	2.573170e-03	1.582590e-04	3	false	GAMG	5.660060e-04	3.505300e-05	2	true
169           	smoothSolver	1.147270e-04	7.558170e-06	3	2.604500e-04	1.848080e-05	3	2.332610e-03	1.477950e-04	3	false	GAMG	5.150080e-04	3.019830e-05	2	true
170           	smoothSolver	1.104230e-04	7.093190e-06	3	2.447800e-04	1.721940e-05	3	2.216160e-03	1.386820e-04	3	false	GAMG	4.861330e-04	2.714170e-05	2	true
171           	smoothSolver	1.010910e-04	6.605550e-06	3	2.246190e-04	1.595970e-05	3	1.997760e-03	1.296150e-04	3	false	GAMG	4.415270e-04	2.329280e-05	2	true
172           	smoothSolver	9.758180e-05	6.192720e-06	3	2.139240e-04	1.495710e-05	3	1.899970e-03	1.217280e-04	3	false	GAMG	4.179880e-04	2.104610e-05	2	true
173           	smoothSolver	8.914120e-05	5.758900e-06	3	1.974880e-04	1.395350e-05	3	1.709570e-03	1.137710e-04	3	false	GAMG	3.803080e-04	1.809810e-05	2	true
174           	smoothSolver	8.671750e-05	9.707820e-06	2	1.905370e-04	1.313730e-05	3	1.638870e-03	1.068390e-04	3	false	GAMG	3.598190e-04	1.632490e-05	2	true
175           	smoothSolver	7.998700e-05	9.270050e-06	2	1.770040e-04	1.219120e-05	3	1.466220e-03	9.786670e-05	3	false	GAMG	3.278670e-04	1.423880e-05	2	true
176           	smoothSolver	7.884760e-05	8.882100e-06	2	1.726320e-04	1.141550e-05	3	1.407550e-03	9.057720e-05	3	false	GAMG	3.112970e-04	1.331230e-05	2	true
177           	smoothSolver	7.268790e-05	8.401160e-06	2	1.620340e-04	1.063510e-05	3	1.264800e-03	8.391170e-05	3	false	GAMG	2.845130e-04	1.191060e-05	2	true
178           	smoothSolver	7.189260e-05	8.003790e-06	2	1.584590e-04	9.993700e-06	3	1.224190e-03	7.863750e-05	3	false	GAMG	2.709960e-04	1.114250e-05	2	true
179           	smoothSolver	6.651670e-05	7.548860e-06	2	1.503940e-04	9.324750e-06	3	1.104920e-03	7.339250e-05	3	false	GAMG	2.492690e-04	1.011040e-05	2	true
180           	smoothSolver	6.604710e-05	7.165610e-06	2	1.467840e-04	8.740670e-06	3	1.076990e-03	6.883350e-05	3	false	GAMG	2.380660e-04	9.395480e-06	2	true
181           	smoothSolver	6.140540e-05	6.765750e-06	2	1.392280e-04	8.144290e-06	3	9.784090e-04	6.421430e-05	3	false	GAMG	2.196490e-04	8.707860e-06	2	true
