/*--------------------------------*- C++ -*----------------------------------*\
| =========                 |                                                 |
| \\      /  F ield         | OpenFOAM: The Open Source CFD Toolbox           |
|  \\    /   O peration     | Version:  v1912                                 |
|   \\  /    A nd           | Website:  www.openfoam.com                      |
|    \\/     M anipulation  |                                                 |
\*---------------------------------------------------------------------------*/
FoamFile
{
    version     2.0;
    format      ascii;
    class       volScalarField;
    location    "220";
    object      epsilon;
}
// * * * * * * * * * * * * * * * * * * * * * * * * * * * * * * * * * * * * * //

dimensions      [0 2 -3 0 0 0 0];


internalField   nonuniform List<scalar> 
12441
(
0.0102961
0.00908479
0.00832694
0.00770253
0.00718365
0.00674907
0.00638246
0.00607121
0.00580536
0.00557686
0.00537952
0.00521038
0.00504025
0.00491655
0.00479053
0.00468962
0.0047902
0.0192156
0.261894
2.96957
20.962
39.25
0.0101184
0.00891979
0.00818368
0.00757663
0.00707176
0.00664863
0.00629144
0.00598807
0.00572888
0.00550605
0.00531363
0.00514908
0.00498137
0.00486123
0.00473854
0.00464213
0.00474349
0.0189541
0.246756
2.96222
21.2537
40.2318
0.00989642
0.00871702
0.00799998
0.0074088
0.00691726
0.00650543
0.00615792
0.00586294
0.00561109
0.00539481
0.00520834
0.00504934
0.0048858
0.00477187
0.00465339
0.00456247
0.00461552
0.0172167
0.209541
2.93279
21.6345
41.3784
0.00967282
0.00851335
0.00781457
0.00723852
0.00675963
0.00635848
0.00602011
0.00573301
0.00548806
0.00527794
0.00509702
0.00494303
0.00478664
0.00467586
0.00456388
0.00447773
0.00448753
0.0151248
0.172822
2.91156
22.1025
42.5504
0.00942864
0.00828875
0.00760869
0.00704824
0.00658251
0.00619259
0.00586388
0.00558523
0.00534776
0.00514439
0.00496967
0.00482152
0.00466948
0.00456573
0.00445843
0.00437976
0.00434406
0.0132449
0.154273
2.91938
22.6179
43.6698
0.00922264
0.0080991
0.00743425
0.00688643
0.00643126
0.00605025
0.00572914
0.00545702
0.00522523
0.00502687
0.00485663
0.00471246
0.00456726
0.00446545
0.00436444
0.00428909
0.00427045
0.01347
0.174204
3.02487
23.2407
44.7472
0.00900202
0.00789552
0.00724711
0.00671299
0.00626938
0.00589821
0.00558558
0.00532086
0.00509561
0.00490312
0.00473826
0.00459905
0.00445695
0.00436228
0.0042635
0.00419598
0.00602806
0.0226419
0.27885
3.31868
24.0663
45.7945
0.00882353
0.00773084
0.00709527
0.00657177
0.00613699
0.00577323
0.00546686
0.00520748
0.00498679
0.00479828
0.00463689
0.00450073
0.00436516
0.00427096
0.00418387
0.00516742
0.0346569
0.0796442
0.587419
3.93299
25.2108
46.8732
0.00862944
0.00755166
0.00693059
0.00641919
0.0059946
0.00563953
0.00534064
0.00508777
0.00487283
0.00468946
0.00453273
0.0044008
0.00426745
0.00414002
0.00539483
0.0272372
0.179489
0.302787
1.26221
5.0088
26.7965
48.0153
0.00847471
0.00740875
0.00679867
0.00629633
0.00587927
0.00553048
0.00523686
0.00498845
0.0047773
0.00459719
0.00444328
0.00431401
0.00418829
0.00427563
0.0255088
0.153469
0.549217
0.818742
2.33894
6.60194
28.9115
49.2846
0.00830532
0.00725231
0.00665496
0.00616322
0.0057551
0.00541392
0.00512687
0.00488416
0.00467803
0.00450237
0.00435248
0.00422771
0.00407349
0.00959144
0.117523
0.458644
1.12385
1.59849
3.63323
8.62156
31.5812
50.6975
0.00817026
0.00712758
0.0065398
0.00605593
0.00565431
0.00531854
0.005036
0.00479709
0.00459416
0.00442125
0.00427371
0.00415235
0.0041559
0.0496237
0.341637
0.894258
1.72541
2.4309
4.89445
10.8719
34.7576
52.295
0.00802118
0.00698995
0.00641351
0.00593908
0.00554542
0.00521643
0.00493971
0.00470586
0.00450737
0.00433836
0.00419433
0.00403835
0.00838533
0.173948
0.659792
1.32028
2.21964
3.13815
5.98311
13.1529
38.3419
54.0597
0.00790024
0.00687828
0.00631041
0.00584302
0.00545518
0.00513102
0.00485835
0.0046279
0.00443228
0.00426576
0.00412384
0.0038831
0.0377956
0.375211
0.964653
1.65596
2.58235
3.67493
6.87665
15.3228
42.2091
56.0037
0.00776891
0.00675696
0.0061991
0.00574006
0.00535923
0.00504104
0.00477349
0.00454748
0.00435573
0.00419258
0.00405367
0.00427234
0.118706
0.591063
1.2089
1.90301
2.84236
4.07019
7.60481
17.308
46.2375
58.0812
0.00765978
0.00665625
0.00610613
0.00565343
0.00527786
0.00496404
0.00470014
0.0044772
0.00428806
0.00412718
0.00399025
0.00958906
0.242806
0.777803
1.39285
2.0845
3.03198
4.36569
8.20694
19.0832
50.3201
60.2902
0.00754391
0.00654923
0.00600801
0.00556272
0.00519335
0.00488478
0.00462538
0.0044063
0.00422049
0.00406249
0.00392856
0.0333899
0.377698
0.926784
1.53179
2.2211
3.17491
4.59471
8.71672
20.6516
54.3754
62.571
0.00744233
0.0064556
0.00592168
0.0054824
0.00511803
0.00481364
0.00455775
0.00434166
0.00415842
0.00400267
0.00387337
0.0866734
0.499909
1.04362
1.63941
2.32727
3.28684
4.78009
9.15932
22.0286
58.3449
64.9213
0.00733979
0.00636075
0.00583466
0.00540187
0.00504292
0.00474309
0.00449109
0.00427832
0.00409794
0.00394464
0.00381011
0.159969
0.6022
1.13682
1.72546
2.41264
3.37803
4.93688
9.55253
23.2345
62.1943
67.2818
0.00724509
0.00627356
0.00575432
0.00532719
0.00497296
0.00467711
0.00442848
0.00421859
0.00404069
0.0038896
0.00429312
0.237004
0.686107
1.21327
1.79653
2.48366
3.45533
5.07487
9.90849
24.2893
65.9075
69.6617
0.00715494
0.00619011
0.00567774
0.00525626
0.00490671
0.00461477
0.00436942
0.00416229
0.00398676
0.00383772
0.0101392
0.308664
0.755757
1.2779
1.85706
2.54474
3.52344
5.20036
10.2352
25.2117
69.4869
72.0102
0.00706409
0.00610663
0.00560099
0.00518512
0.0048403
0.00455236
0.00431044
0.00410628
0.00393333
0.00378709
0.02985
0.372056
0.815031
1.33409
1.91017
2.59897
3.5857
5.31715
10.5377
26.0185
72.9477
74.3523
0.00698488
0.00603309
0.00553334
0.00512227
0.00478139
0.00449671
0.0042575
0.00405561
0.00388456
0.00374206
0.0649065
0.42753
0.866861
1.3842
1.9581
2.64865
3.64447
5.42734
10.8192
26.7245
76.3204
76.6493
0.00689831
0.00595363
0.00546038
0.00505478
0.00471852
0.0044378
0.004202
0.00400307
0.00383462
0.00370243
0.107434
0.476367
0.913359
1.42995
2.00251
2.69545
3.70137
5.53194
11.0815
27.3431
79.6455
78.9445
0.00683013
0.00589021
0.00540195
0.00500032
0.00466726
0.00438912
0.00415541
0.00395817
0.00379113
0.00368426
0.150162
0.520045
0.956005
1.4726
2.04467
2.74062
3.75734
5.63138
11.326
27.8861
82.977
81.212
0.00674436
0.00581176
0.00533021
0.00493429
0.00460611
0.0043322
0.00410216
0.00390814
0.00374394
0.00364655
0.190098
0.55988
0.995873
1.51313
2.08552
2.78504
3.81282
5.72589
11.5534
28.3639
86.3765
83.5114
0.0066853
0.00575652
0.00527903
0.00488628
0.00456061
0.00428865
0.00406016
0.00386737
0.00370421
0.00385585
0.22695
0.596919
1.03374
1.5523
2.12577
2.82929
3.86789
5.81572
11.7645
28.7857
89.9154
85.8273
0.00660149
0.00568
0.00520922
0.00482222
0.00450151
0.00423387
0.00400917
0.00381969
0.00365955
0.00590317
0.26137
0.631959
1.07022
1.59067
2.16592
2.87367
3.92245
5.90114
11.9599
29.159
93.6677
88.2307
0.00655192
0.00563338
0.00516578
0.00478115
0.0044622
0.00419585
0.00397209
0.0037833
0.00362409
0.0117237
0.294122
0.665588
1.10577
1.6287
2.20628
2.91833
3.97642
5.98246
12.1403
29.4904
97.709
90.7106
0.00646774
0.00555684
0.00509631
0.00471779
0.00440415
0.00414246
0.00392279
0.00373759
0.00358255
0.022872
0.325827
0.698249
1.14075
1.66668
2.24703
2.96327
4.02972
6.06
12.3065
29.7849
102.108
93.3406
0.00642561
0.0055168
0.0050586
0.00468172
0.0043692
0.00410825
0.00388906
0.00370416
0.00355161
0.0402075
0.356919
0.730275
1.17545
1.70485
2.28826
3.00848
4.08236
6.13412
12.4592
30.0469
106.926
96.1058
0.00634305
0.00544187
0.00499073
0.00462001
0.00431288
0.00405668
0.00384166
0.00366043
0.00351566
0.0635407
0.387681
0.761923
1.21007
1.74334
2.32999
3.05391
4.1344
6.20511
12.5992
30.2802
112.209
99.0732
0.00630946
0.00540963
0.00496002
0.00459017
0.00428347
0.00402735
0.00381221
0.00363075
0.00349494
0.0920136
0.418286
0.793389
1.24477
1.78224
2.3722
3.09957
4.18593
6.27331
12.7273
30.4885
117.991
102.217
0.00622489
0.00533322
0.00489123
0.00452807
0.00422726
0.00397637
0.00376583
0.00358841
0.00347401
0.124467
0.448831
0.824819
1.27968
1.82159
2.41487
3.14544
4.23709
6.33899
12.8444
30.6753
124.293
105.592
0.00619816
0.00530707
0.00486579
0.00450278
0.00420173
0.00395035
0.00373921
0.00356116
0.00347957
0.159789
0.479352
0.856318
1.31483
1.86139
2.45797
3.19155
4.28802
6.40245
12.9514
30.844
131.129
109.157
0.00611107
0.00522881
0.00479574
0.00443997
0.00414532
0.00389961
0.00369345
0.00351975
0.00355433
0.196939
0.509826
0.887952
1.35028
1.90163
2.50146
3.23793
4.33887
6.46395
13.0493
30.998
138.506
112.957
0.00608763
0.00520561
0.00477284
0.00441681
0.00412156
0.00387505
0.00366804
0.00349354
0.00650125
0.234897
0.540177
0.91975
1.386
1.94229
2.54533
3.28463
4.38981
6.52374
13.1389
31.1395
146.422
116.938
0.00599553
0.00512343
0.00469977
0.00435176
0.00406359
0.00382331
0.00362176
0.00345201
0.0327827
0.272478
0.570276
0.951709
1.42198
1.9833
2.58955
3.3317
4.44098
6.58207
13.2214
31.2698
154.863
121.137
0.00596733
0.00509613
0.0046733
0.00432546
0.00403705
0.00379629
0.00359421
0.00342461
0.0782555
0.307858
0.599953
0.983794
1.45816
2.02462
2.63408
3.37919
4.49254
6.63917
13.2979
31.389
163.775
125.495
0.00586254
0.00500303
0.00459089
0.00425246
0.00397231
0.00373884
0.00354314
0.0033845
0.113459
0.339524
0.629024
1.01594
1.49446
2.06617
2.67891
3.42712
4.54462
6.69529
13.3696
31.4955
173.023
130.045
0.00582106
0.00496374
0.00455357
0.00421627
0.00393675
0.00370363
0.0035082
0.0033773
0.136943
0.367122
0.657315
1.04806
1.53079
2.10786
2.72399
3.47555
4.59732
6.75067
13.4374
31.5873
182.333
134.727
0.00569934
0.00485602
0.00445826
0.00413159
0.0038613
0.00363627
0.00344795
0.00412598
0.152923
0.390931
0.684679
1.08004
1.56706
2.14957
2.76925
3.52445
4.65072
6.80559
13.5024
31.6629
191.221
139.588
0.00561714
0.00478963
0.00440396
0.00408566
0.00382101
0.00359963
0.0034135
0.00577274
0.164221
0.411411
0.71101
1.11174
1.60315
2.19115
2.81461
3.57383
4.70487
6.86036
13.565
31.7222
198.983
144.654
0.00525455
0.00446007
0.00411173
0.00382619
0.00358895
0.00339041
0.00322365
0.00670763
0.172427
0.428988
0.73622
1.143
1.63895
2.23241
2.85997
3.62361
4.75979
6.91538
13.6251
31.7667
204.804
150.447
95.0235
78.2658
51.4471
39.8169
34.1046
28.009
26.7793
24.4774
23.3837
22.8479
22.8302
22.2948
25.3305
31.5326
35.3001
36.1823
35.3662
35.3046
36.3982
36.8021
36.765
36.7979
36.6711
36.3449
36.3635
37.8841
14.0457
5.37612
4.52429
4.59073
4.84882
5.00189
4.98443
4.54241
3.94116
94.6475
78.6265
52.0247
40.9657
35.3276
28.8246
27.5735
25.1297
24.0247
23.4576
23.1898
22.4875
25.4835
31.9645
35.9812
36.893
35.9658
35.5959
36.5209
37.0005
37.1372
37.2976
37.2222
36.8513
36.7636
38.4579
14.3324
5.38468
4.52026
4.58618
4.84352
4.99542
4.97743
4.53546
3.93539
93.9266
79.1917
53.098
43.2192
37.7313
30.455
29.1349
26.4121
25.2892
24.5791
23.8087
22.8131
25.8091
32.437
36.899
38.2325
37.2724
36.3191
36.8307
37.3576
37.7581
38.1265
38.1563
37.7009
37.3655
38.5335
14.6161
5.39697
4.51225
4.57705
4.83293
4.98251
4.96346
4.52158
3.92389
92.8104
79.9133
54.709
46.6827
41.3173
32.9211
31.4228
28.2886
27.1394
26.1648
24.7832
23.4136
26.4123
33.1767
38.4089
40.494
39.6515
37.8463
37.5855
38.0471
38.7629
39.4023
39.5922
39.0377
38.353
38.532
14.9528
5.41441
4.50029
4.56337
4.81707
4.96316
4.94256
4.50081
3.90668
91.3035
80.7474
56.9075
51.3825
46.036
36.2178
34.3925
30.7441
29.5725
28.2506
26.2557
24.4411
27.4766
34.5399
40.8921
44.0645
43.6786
40.8473
39.2834
39.3909
40.3648
41.2818
41.6714
41.0211
39.9171
38.8107
15.3975
5.43892
4.48446
4.54514
4.79595
4.93741
4.91475
4.47319
3.88381
89.3553
81.6544
59.7487
57.2571
51.8291
40.3478
38.03
33.7971
32.6194
30.9151
28.3968
26.0814
29.2221
36.8889
44.7806
49.4212
50.1009
46.4049
42.8248
41.965
42.9182
44.0048
44.5898
43.8506
42.2782
39.679
16.0075
5.4729
4.46481
4.52237
4.76959
4.90526
4.88009
4.43876
3.85532
87.0012
82.5984
63.2844
64.1029
58.6101
45.3216
42.3548
37.4974
36.345
34.2843
31.4307
28.5785
31.9208
40.6256
50.5891
57.1327
59.7178
56.0575
49.7585
46.7803
47.0267
47.9611
48.6426
47.7991
45.7147
41.45
16.8473
5.5193
4.44144
4.49506
4.73801
4.86676
4.83863
4.39759
3.82129
84.2135
83.545
67.5481
71.5007
66.2146
51.1257
47.3998
41.913
40.83
38.519
35.6584
32.2863
35.9628
46.2922
59.0025
67.8867
73.1276
71.4287
62.5327
55.5853
53.7255
53.7973
54.294
53.2623
50.6013
44.5059
17.9941
5.58156
4.41442
4.46325
4.70123
4.82193
4.79046
4.34976
3.7818
81.0699
84.461
72.5426
78.8336
74.3649
57.6789
53.1786
47.1072
46.1406
43.7826
41.4374
37.7049
41.9218
54.6236
70.8009
82.312
90.2038
92.6578
83.9655
71.1855
64.7553
62.5775
62.2775
60.8294
57.4564
49.3753
19.5447
5.66356
4.38386
4.42696
4.6593
4.77084
4.73567
4.29539
3.73696
77.574
85.3111
78.2442
85.4942
82.6945
64.7993
59.6483
53.1056
52.2828
50.1805
49.0641
45.4687
50.5454
66.2654
86.1667
100.141
109.321
115.847
113.476
96.6982
82.7029
75.9446
73.7061
71.363
66.9874
56.8158
21.6225
5.76942
4.34983
4.38623
4.61228
4.71356
4.67438
4.23459
3.6869
73.8369
86.0557
84.6342
91.187
90.839
72.2142
66.6771
59.8558
59.153
57.6657
58.4865
56.0501
62.4364
80.7671
103.263
118.893
127.206
134.168
141.224
130.615
109.797
95.9162
90.0476
86.0066
80.0724
67.8503
24.3801
5.90304
4.31242
4.34112
4.56024
4.6502
4.60677
4.16756
3.63179
69.8857
86.6459
91.7376
96.0518
98.5476
79.6277
74.0379
67.1878
66.4974
65.9323
68.9747
69.1028
77.0544
95.2678
117.811
134.106
140.463
144.214
155.22
160.118
143.037
123.152
112.452
105.829
97.4816
83.5435
27.9884
6.06723
4.27165
4.29172
4.50328
4.58089
4.53302
4.09449
3.57183
65.8489
87.0153
99.6168
100.508
105.745
86.8263
81.4515
74.8111
73.9377
74.3631
79.0285
82.5672
91.3988
105.721
126.34
142.749
147.758
147.858
156.036
171.557
169.935
152.889
139.577
130.502
118.941
103.988
32.5862
6.26225
4.22751
4.23812
4.44154
4.50581
4.45338
4.01564
3.50723
61.7626
87.0677
108.076
104.986
112.513
93.7594
88.6767
82.3713
81.0778
82.1711
86.944
93.1142
101.16
110.486
129.358
145.717
150.272
148.213
151.671
167.464
179.208
174.259
164.989
155.999
141.442
126.14
38.1571
6.48368
4.17989
4.18046
4.37517
4.42516
4.36812
3.93131
3.43825
57.7502
86.6723
116.573
109.765
119.014
100.55
95.609
89.5917
87.6671
88.7483
91.8718
98.3677
104.457
111.253
129.832
146.047
150.253
147.155
147.037
158.205
173.708
180.205
179.915
174.541
158.716
142.816
44.3503
6.71999
4.1286
4.11887
4.30434
4.33918
4.27755
3.84184
3.3652
53.8399
85.6736
124.005
114.931
125.414
107.442
102.334
96.3846
93.7079
94.0098
94.3596
98.8847
103.145
110.57
130.113
146.038
149.448
145.438
143.106
149.558
162.837
174.26
181.368
180.286
164.966
147.438
50.3887
6.95105
4.07339
4.05354
4.22927
4.24818
4.18205
3.7476
3.28839
50.1273
83.9379
129.103
120.438
131.896
114.64
109.07
102.931
99.4707
98.4238
95.802
97.1654
100.384
110.282
131.234
146.547
148.597
143.274
139.365
142.494
152.238
163.728
173.588
174.24
159.719
140.259
55.2324
7.14931
4.01393
3.98464
4.15019
4.15245
4.08199
3.64903
3.20818
46.6135
81.4303
131.288
126.137
138.572
122.313
116.092
109.584
105.382
102.769
97.6603
95.856
98.6713
111.408
133.413
147.538
147.721
140.65
135.263
136.313
143.265
153.011
162.072
161.493
147.12
126.638
57.9415
7.28445
3.94991
3.91239
4.06736
4.05237
3.97781
3.54656
3.12493
43.349
78.292
131.168
131.829
145.498
130.56
123.652
116.739
111.901
107.818
100.994
96.6005
99.4035
114.58
136.736
148.839
146.618
137.487
130.553
130.297
135.544
143.367
149.932
146.457
131.776
111.528
58.0438
7.3308
3.88115
3.83702
3.98105
3.94832
3.86997
3.44069
3.03905
40.3033
74.8749
130.05
137.36
152.652
139.38
131.908
124.712
119.411
114.187
106.504
100.327
103.388
120.243
141.297
150.381
145.186
133.78
125.278
124.129
128.478
134.657
138.187
131.461
116.566
97.4449
55.7004
7.27438
3.80758
3.75878
3.89156
3.84072
3.75895
3.33193
2.95093
37.4893
71.7367
128.969
142.691
159.967
148.677
140.9
133.685
128.172
122.266
114.573
107.475
111.145
128.892
147.356
152.307
143.522
129.655
119.628
117.821
121.705
126.465
126.951
117.421
102.747
85.1551
51.5547
7.11618
3.72938
3.67791
3.7992
3.72999
3.64523
3.2208
2.861
34.8769
69.5246
128.379
147.848
167.341
158.281
150.558
143.684
138.297
132.253
125.401
118.388
123.214
141.065
155.219
154.831
141.859
125.372
113.895
111.548
115.106
118.497
116.156
104.628
90.6646
74.6438
46.4051
6.87015
3.64692
3.5947
3.70431
3.6166
3.52932
3.10783
2.76966
32.4767
68.3948
128.479
152.857
174.663
167.981
160.725
154.604
149.764
144.157
138.953
133.173
140.039
157.448
165.362
158.266
140.496
121.256
108.381
105.518
108.691
110.63
105.799
93.1531
80.264
65.6526
40.9377
6.55801
3.56073
3.50943
3.6072
3.501
3.41173
2.99355
2.67734
30.2708
68.4499
129.097
157.703
181.812
177.559
171.189
166.244
162.43
157.848
155.036
151.801
161.9
178.63
178.223
162.876
139.724
117.644
103.386
99.9144
102.512
102.87
95.9666
82.9864
71.3495
57.8991
35.6215
6.20351
3.47148
3.42238
3.50821
3.38368
3.29296
2.87849
2.58444
28.2673
69.6186
130.023
162.332
188.671
186.81
181.72
178.355
176.077
173.077
173.271
173.87
188.563
204.905
194.188
168.9
139.78
114.803
99.1353
94.8637
96.6154
95.2832
86.7765
74.0706
63.6952
51.1459
30.722
5.82831
3.37985
3.33383
3.40769
3.26509
3.17352
2.76316
2.49134
26.4614
71.5737
131.101
166.67
195.13
195.561
192.098
190.681
190.444
189.547
193.237
198.832
219.31
235.644
213.104
176.317
140.772
112.9
95.7781
90.433
91.024
87.9572
78.3322
66.3149
57.0887
45.2114
26.3569
5.44983
3.28652
3.24408
3.30597
3.14572
3.05387
2.64806
2.39843
24.8623
73.6924
132.237
170.637
201.103
203.689
202.136
202.997
205.278
206.953
214.489
225.957
252.994
269.283
234.118
184.815
142.632
111.949
93.3402
86.6279
85.7391
80.9756
70.6945
59.6037
51.3456
39.9621
22.5527
5.08067
3.19214
3.15342
3.20338
3.02601
2.93448
2.53364
2.30605
23.4808
75.2171
133.377
174.17
206.535
211.131
211.712
215.141
220.378
225.052
236.698
254.676
288.494
303.495
255.335
193.59
145.076
111.82
91.7444
83.3959
80.7452
74.4064
63.8767
53.8104
46.313
35.2999
19.2847
4.72903
3.09728
3.06211
3.10025
2.9064
2.81579
2.42036
2.21452
22.3333
75.671
134.493
177.238
211.407
217.887
220.777
227.039
235.639
243.71
259.659
284.538
324.847
336.142
274.525
201.572
147.642
112.239
90.7932
80.6333
76.0154
68.2966
57.852
48.8082
41.8674
31.1522
16.5037
4.39958
3.00244
2.97042
2.9969
2.78733
2.6982
2.3086
2.12415
21.4546
75.2187
135.568
179.834
215.739
224.009
229.36
238.718
251.094
262.983
283.435
315.497
361.505
365.419
289.627
207.579
149.766
112.85
90.2265
78.1965
71.5196
62.6725
52.566
44.4786
37.9111
27.4621
14.1513
4.09436
2.90803
2.87862
2.89362
2.66918
2.58208
2.19874
2.03519
20.8892
74.5518
136.584
181.978
219.574
229.585
237.562
250.326
266.975
283.198
308.406
347.854
398.201
390.128
299.476
210.794
150.923
113.265
89.7401
75.9214
67.2297
57.5412
47.9485
40.7157
34.3676
24.1833
12.1683
3.81361
2.81439
2.78695
2.79071
2.55234
2.46778
2.0911
1.94789
20.7351
74.4158
137.52
183.706
222.981
234.737
245.556
262.156
283.789
305.112
335.507
382.564
434.968
409.231
303.468
210.755
150.71
113.147
89.063
73.6501
63.1265
52.8959
43.9237
37.4284
31.1772
21.276
10.4994
3.55644
2.72183
2.69563
2.68845
2.43714
2.35561
1.98596
1.86246
21.1259
75.2613
138.348
185.066
226.041
239.616
253.605
274.708
302.466
330.142
366.439
421.209
471.737
421.877
301.59
207.442
148.903
112.237
87.9746
71.2573
59.2018
48.7179
40.4165
34.5394
28.2934
18.7039
9.09493
3.32131
2.63056
2.60488
2.58708
2.3239
2.24583
1.88357
1.77907
22.2957
77.1945
139.046
186.109
228.854
244.406
262.087
288.778
324.592
360.755
404.109
466.232
507.889
426.983
293.996
201.008
145.425
110.386
86.3453
68.6686
55.4599
44.9811
37.3563
31.9848
25.679
16.4339
7.91161
3.10636
2.54077
2.5149
2.48686
2.21291
2.1387
1.78415
1.69788
24.5223
80.0846
139.596
186.891
231.533
249.348
271.549
305.617
352.771
400.99
452.923
520.284
541.134
423.42
281.149
191.808
140.319
107.524
84.1088
65.8604
51.9119
41.6529
34.6788
29.7113
23.304
14.4348
6.91246
2.90964
2.45263
2.42588
2.388
2.10441
2.03443
1.68788
1.61901
28.1637
83.683
139.99
187.462
234.214
254.763
282.797
327.164
391.11
456.892
518.439
584.328
566.395
409.981
263.635
180.254
133.712
103.656
81.2587
62.845
48.5696
38.6965
32.3269
27.675
21.1432
12.6775
6.06621
2.72922
2.36625
2.33798
2.29073
1.99865
1.93318
1.5949
1.54257
33.4954
87.7097
140.226
187.872
237.069
261.096
297.024
356.389
445.618
535.485
603.574
651.908
575.288
386.084
242.366
166.889
125.807
98.8342
77.8114
59.6499
45.4377
36.071
30.2502
25.8393
19.1748
11.1349
5.34675
2.56332
2.28173
2.25136
2.19523
1.89583
1.83514
1.50533
1.46866
40.701
91.908
140.306
188.175
240.324
268.993
316.021
397.705
523.307
638.125
697.251
702.13
558.789
352.318
218.446
152.298
116.872
93.1572
73.8064
56.3023
42.5097
33.7338
28.4047
24.1738
17.3798
9.78192
4.73239
2.41031
2.19916
2.16618
2.1017
1.79614
1.74043
1.41928
1.39734
49.6321
96.0809
140.233
188.433
244.3
279.411
342.501
457.103
626.099
743.189
760.577
703.649
513.07
311.145
193.244
137.136
107.233
86.7645
69.2913
52.8233
39.7674
31.6414
26.7524
22.6531
15.7414
8.59594
4.20519
2.26871
2.1186
2.08257
2.01032
1.69974
1.64918
1.33683
1.32867
59.8743
100.108
140.012
188.729
249.474
293.824
380.559
540.211
733.771
796.201
746.23
642.175
444.605
266.486
168.125
122.022
97.2508
79.8406
64.3363
49.2289
37.1842
29.7516
25.261
21.2561
14.2444
7.55644
3.75044
2.13725
2.04012
2.00067
1.92126
1.60681
1.56148
1.25804
1.2627
70.5911
103.945
139.649
189.186
256.594
314.595
435.969
642.547
791.33
754.088
652.799
538.657
367.279
222.629
144.333
107.528
87.2969
72.6046
59.0329
45.5366
34.7291
28.0252
23.9033
19.9658
12.8755
6.64517
3.35606
2.01482
1.96378
1.92062
1.8347
1.51748
1.47744
1.18297
1.19947
80.9187
107.607
139.148
189.996
266.912
345.65
514.102
727.187
751.667
638.778
526.953
428.389
293.949
182.704
122.717
94.0869
77.7132
65.3033
53.509
41.7729
32.3714
26.4264
22.6564
18.7684
11.6235
5.8461
3.01216
1.90045
1.88962
1.84256
1.75081
1.43188
1.39712
1.11165
1.13902
89.3733
111.152
138.513
191.485
282.694
393.223
606.112
727.913
633.467
505.244
410.62
332.859
230.986
148.205
103.751
82.0031
68.7849
58.1857
47.9224
37.979
30.083
24.9234
21.5014
17.6531
10.4786
5.14521
2.7107
1.79331
1.81772
1.76663
1.66974
1.35014
1.32058
1.04411
1.08136
95.1437
114.691
137.745
194.251
308.258
462.812
656.16
625.44
491.263
388.137
318.393
257.11
179.452
119.31
87.525
71.401
60.7034
51.4786
42.4607
34.2159
27.8406
23.4878
20.4223
16.6118
9.43303
4.53041
2.44509
1.69271
1.74813
1.69297
1.59165
1.27235
1.24787
0.980335
1.02651
0.00337757
0.00250083
0.0022704
0.00215657
0.00211395
0.00211649
0.00215077
0.00700022
0.176977
0.44025
0.754168
1.16575
1.66508
2.26235
2.8931
3.66033
4.80083
6.95689
13.6682
31.7928
207.159
160.077
0.00334405
0.00224098
0.00183907
0.00160092
0.00147708
0.00143662
0.00146907
0.00712944
0.179242
0.446341
0.764484
1.17867
1.67946
2.27839
2.91078
3.68025
4.82428
6.98226
13.6968
31.8143
208.164
170.162
0.00354021
0.00237564
0.00188155
0.00154296
0.00131951
0.00118654
0.00115575
0.00720908
0.18074
0.45076
0.772499
1.18842
1.68975
2.28933
2.92267
3.69407
4.84196
7.00328
13.7217
31.8395
208.319
179.799
0.00367047
0.00251735
0.00200389
0.00162963
0.00135735
0.00116496
0.00103146
0.00725567
0.18157
0.453593
0.77817
1.19492
1.69582
2.29506
2.92866
3.70164
4.85366
7.01974
13.7416
31.8693
207.686
188.846
0.00392235
0.00276421
0.00222701
0.00182294
0.00151514
0.00128067
0.00100156
0.0072772
0.181795
0.454901
0.781463
1.19811
1.69761
2.29553
2.92868
3.70288
4.85922
7.03141
13.7552
31.9047
206.31
197.767
0.0040599
0.00292977
0.00239884
0.00199273
0.00167623
0.00142649
0.000992107
0.00727786
0.181454
0.454729
0.78236
1.19795
1.69509
2.29071
2.92271
3.69769
4.85846
7.03802
13.7609
31.9462
204.223
206.735
0.00434029
0.00320835
0.00266031
0.00223465
0.00189774
0.00162679
0.00106244
0.00725958
0.180573
0.45312
0.780872
1.19444
1.68825
2.28066
2.91075
3.68606
4.85122
7.03932
13.7573
31.994
201.463
215.749
0.00447828
0.00337935
0.00284431
0.00242427
0.00208786
0.00181336
0.00118982
0.0072226
0.179174
0.450117
0.777044
1.18765
1.67719
2.26543
2.89288
3.66795
4.83736
7.03498
13.7431
32.0478
198.078
224.75
0.00478389
0.00368508
0.00313554
0.00269832
0.00234406
0.0020517
0.00131498
0.00716607
0.177278
0.445775
0.770952
1.17765
1.66199
2.24518
2.86922
3.64341
4.81672
7.0247
13.7169
32.1065
194.126
233.668
0.00490842
0.00384895
0.00331993
0.00289551
0.00254839
0.00225869
0.00140488
0.00708853
0.174901
0.440155
0.762704
1.16457
1.64284
2.22006
2.83992
3.61248
4.78915
7.00811
13.6777
32.1683
189.667
242.421
0.00522927
0.00417173
0.00363105
0.00319201
0.00282935
0.00252398
0.00151869
0.00698828
0.172063
0.43333
0.752432
1.14857
1.61993
2.1903
2.80518
3.57529
4.75455
6.98486
13.6244
32.2304
184.765
250.899
0.00533904
0.00432479
0.00381028
0.00338992
0.00304014
0.00274295
0.00163747
0.00686283
0.168778
0.425379
0.740292
1.12987
1.59352
2.15616
2.76528
3.53196
4.71278
6.95453
13.5559
32.289
179.489
258.971
0.005672
0.00466145
0.00413781
0.00370501
0.00334152
0.00303034
0.0018418
0.0067092
0.16506
0.416387
0.72645
1.10869
1.56387
2.11793
2.72049
3.48271
4.66377
6.9167
13.4714
32.3392
173.907
266.488
0.00575603
0.00479297
0.0043015
0.00389372
0.00354938
0.00325245
0.00211908
0.00652284
0.160914
0.406438
0.711082
1.08528
1.53129
2.07595
2.67114
3.42778
4.60748
6.8709
13.3701
32.3749
168.087
273.298
0.00609202
0.00513385
0.00463541
0.00421723
0.00386113
0.00355214
0.00252418
0.00629837
0.156337
0.395612
0.69436
1.05989
1.4961
2.03055
2.61759
3.36747
4.54394
6.81667
13.2512
32.3892
162.095
279.252
0.00615197
0.005243
0.00478045
0.00439172
0.00405951
0.00376968
0.00299004
0.00602775
0.151309
0.383976
0.676449
1.03282
1.45864
1.98212
2.56023
3.3021
4.47321
6.75353
13.1142
32.3739
155.991
284.22
0.0064867
0.00558363
0.00511589
0.0047184
0.00437587
0.00407535
0.00350295
0.00570245
0.145791
0.37158
0.6575
1.00432
1.41925
1.93103
2.49946
3.23207
4.39544
6.68098
12.9585
32.3204
149.831
288.088
0.00651819
0.00566547
0.00523672
0.0048725
0.0045581
0.00428119
0.00389787
0.00531087
0.139714
0.358446
0.637641
0.974664
1.37828
1.87766
2.4357
3.15779
4.31086
6.59855
12.7837
32.2191
143.664
290.773
0.00683898
0.00599298
0.00556086
0.00518974
0.00486684
0.00458105
0.00427481
0.00485527
0.132977
0.344557
0.616969
0.944099
1.33605
1.8224
2.36935
3.07971
4.21977
6.50581
12.5895
32.0602
137.533
292.215
0.00685335
0.00605574
0.00566247
0.00532544
0.00503219
0.00477204
0.0045284
0.00436242
0.125432
0.329849
0.595538
0.912847
1.29291
1.76562
2.30086
2.99828
4.12254
6.40239
12.3758
31.8341
131.473
292.378
0.00716009
0.00636992
0.00597478
0.00563228
0.00533176
0.0050638
0.00482439
0.00394886
0.116883
0.314192
0.573351
0.88109
1.24916
1.70772
2.23062
2.91399
4.01963
6.28799
12.1426
31.5312
125.511
291.247
0.00715651
0.00641249
0.00605565
0.0057476
0.00547778
0.005237
0.00502341
0.00384467
0.107085
0.297378
0.55034
0.848958
1.20511
1.64904
2.15905
2.82731
3.91154
6.16242
11.8901
31.143
119.67
288.825
0.00744658
0.00671016
0.00635238
0.00603984
0.00576368
0.00551593
0.00529369
0.00415832
0.0957716
0.279106
0.526347
0.816511
1.16098
1.58994
2.08655
2.73872
3.79885
6.02563
11.6185
30.6619
113.966
285.124
0.00743045
0.00673699
0.00641579
0.00613683
0.00589117
0.00567092
0.00547134
0.00468082
0.0827161
0.258972
0.501096
0.783716
1.117
1.53075
2.01349
2.6487
3.68214
5.87768
11.3283
30.082
108.407
280.165
0.0077042
0.00701825
0.00669674
0.00641396
0.00616258
0.00593584
0.00572866
0.00524977
0.0679024
0.236485
0.474173
0.750415
1.07328
1.47177
1.94024
2.55772
3.5621
5.71886
11.0203
29.3996
103
273.981
0.00767664
0.00703037
0.00674344
0.00649301
0.00627149
0.00607214
0.00588906
0.00562194
0.051824
0.211116
0.444996
0.716289
1.02984
1.41325
1.86714
2.46622
3.43939
5.54959
10.695
28.6132
97.7433
266.608
0.00793335
0.00729421
0.00700725
0.00675339
0.00652654
0.00632103
0.00613166
0.00592826
0.0358218
0.182457
0.412801
0.680811
0.986564
1.35541
1.79451
2.37463
3.31472
5.3705
10.3534
27.7242
92.6342
258.096
0.00789944
0.00729633
0.00704136
0.0068179
0.00661952
0.00644044
0.00627516
0.00611307
0.0220302
0.150538
0.376661
0.643199
0.943111
1.29834
1.72262
2.28337
3.18882
5.18242
9.99642
26.7366
87.6644
248.506
0.00814125
0.00754475
0.00728981
0.00706311
0.00685957
0.00667444
0.00650315
0.00634027
0.0125638
0.116312
0.335582
0.60237
0.89888
1.24197
1.65171
2.19282
3.06245
4.98641
9.62519
25.6575
82.8233
237.913
0.00810328
0.00753934
0.00731381
0.00711545
0.00693881
0.00677892
0.00663098
0.00649009
0.00794394
0.0821707
0.288781
0.55691
0.852928
1.18601
1.58188
2.10333
2.93635
4.78374
9.24087
24.4967
78.0962
226.412
0.00833032
0.00777239
0.00754686
0.0073454
0.00716377
0.00699798
0.00684412
0.0066986
0.00666663
0.0518194
0.236268
0.50512
0.803883
1.12985
1.51308
2.01516
2.81129
4.57595
8.84481
23.2663
73.467
214.115
0.00829259
0.00776374
0.00756485
0.00738936
0.00723266
0.00709048
0.00695866
0.00683328
0.00661926
0.0289145
0.179769
0.445227
0.749879
1.07241
1.44501
1.92847
2.68799
4.36477
8.4386
21.9807
68.9172
201.157
0.0085061
0.00798272
0.00778379
0.00760535
0.00744386
0.00729594
0.00715826
0.00702797
0.00685207
0.0151965
0.123653
0.376026
0.688506
1.0121
1.37698
1.84322
2.56712
4.15221
8.02418
20.6557
64.4297
187.689
0.00847096
0.00797342
0.00779845
0.00764362
0.00750502
0.00737897
0.00726187
0.00715037
0.00702474
0.00909592
0.074673
0.298163
0.616943
0.94663
1.30777
1.75907
2.44915
3.94042
7.60399
19.3081
59.9892
173.879
0.00867176
0.00817915
0.00800412
0.0078465
0.00770333
0.00757177
0.00744896
0.00733248
0.00721429
0.00724436
0.0392027
0.215972
0.532524
0.872997
1.23554
1.67525
2.33434
3.73163
7.18103
17.9552
55.5874
159.905
0.00864154
0.00817176
0.00801807
0.00788171
0.00775934
0.00764779
0.00754394
0.00744486
0.00734565
0.00699169
0.0191255
0.13844
0.43428
0.787476
1.15759
1.59042
2.22249
3.52795
6.75898
16.6144
51.2241
145.948
0.00883171
0.00836635
0.00821251
0.00807347
0.00794673
0.00782986
0.00772043
0.00761633
0.00751429
0.0072161
0.0106894
0.0767206
0.325724
0.686214
1.07032
1.50253
2.11286
3.33115
6.34204
15.3027
46.9121
132.188
0.00880912
0.00836381
0.00822888
0.00810882
0.00800078
0.00790204
0.00780986
0.00772168
0.00763435
0.00745884
0.00810231
0.0374799
0.21753
0.566918
0.969171
1.40866
2.004