/*--------------------------------*- C++ -*----------------------------------*\
| =========                 |                                                 |
| \\      /  F ield         | OpenFOAM: The Open Source CFD Toolbox           |
|  \\    /   O peration     | Version:  v1912                                 |
|   \\  /    A nd           | Website:  www.openfoam.com                      |
|    \\/     M anipulation  |                                                 |
\*---------------------------------------------------------------------------*/
FoamFile
{
    version     2.0;
    format      ascii;
    class       volScalarField;
    location    "220";
    object      nut;
}
// * * * * * * * * * * * * * * * * * * * * * * * * * * * * * * * * * * * * * //

dimensions      [0 2 -1 0 0 0 0];


internalField   nonuniform List<scalar> 
12441
(
5.82203e-24
1.79051e-20
8.10485e-20
3.32537e-19
1.06828e-18
3.8882e-18
1.01052e-17
2.50036e-17
6.13794e-17
1.27522e-16
3.05634e-16
7.71108e-16
2.18313e-15
7.4031e-15
1.03817e-13
1.89603e-11
0.000197608
0.000991661
0.00317687
0.00268106
0.00364534
0.00775321
6.34212e-24
3.03348e-20
1.11731e-19
4.23944e-19
1.30208e-18
4.80718e-18
1.21981e-17
3.00086e-17
7.36048e-17
1.54444e-16
3.79779e-16
1.02869e-15
2.83111e-15
9.37699e-15
1.13277e-13
3.90338e-11
5.84689e-05
0.00120334
0.00363643
0.00291885
0.00400749
0.00781733
6.36487e-24
3.58954e-20
1.20778e-19
4.48128e-19
1.37772e-18
4.90663e-18
1.29286e-17
3.20397e-17
8.05095e-17
1.71765e-16
4.17869e-16
1.1169e-15
2.78804e-15
7.66574e-15
5.3625e-14
6.5786e-12
1.11754e-05
0.000881415
0.00144655
0.00275316
0.0041603
0.0078909
6.31935e-24
3.76916e-20
1.18534e-19
4.29308e-19
1.32534e-18
4.71348e-18
1.25131e-17
3.13258e-17
7.84903e-17
1.73668e-16
4.23742e-16
1.15345e-15
2.61296e-15
8.47639e-15
3.85744e-14
1.54434e-12
1.63081e-06
0.000613255
0.00107733
0.00267415
0.00432286
0.0079647
6.2853e-24
4.3883e-20
1.29779e-19
4.58313e-19
1.40268e-18
4.77927e-18
1.30906e-17
3.27938e-17
8.42944e-17
1.87521e-16
4.54157e-16
1.28407e-15
3.0225e-15
4.07264e-14
2.47712e-13
2.29963e-12
1.39944e-07
0.000431819
0.00105519
0.00266029
0.00446361
0.00803394
6.23513e-24
4.1288e-20
1.20539e-19
4.29189e-19
1.34271e-18
4.62202e-18
1.27501e-17
3.23922e-17
8.28911e-17
1.92684e-16
4.76941e-16
1.44492e-15
4.53668e-15
1.32935e-12
1.19184e-11
5.10752e-11
4.5949e-07
0.000394795
0.00111832
0.00271733
0.00459134
0.00809948
6.20022e-24
5.02639e-20
1.37796e-19
4.75769e-19
1.46015e-18
4.79242e-18
1.3593e-17
3.4453e-17
9.07004e-17
2.11126e-16
5.20848e-16
1.99925e-15
2.5052e-14
4.14637e-11
6.59128e-10
9.38322e-09
1.87678e-05
0.000408984
0.00130195
0.00290543
0.00473958
0.00816218
6.15046e-24
4.34523e-20
1.23172e-19
4.40159e-19
1.40816e-18
4.72276e-18
1.35121e-17
3.48442e-17
9.13174e-17
2.23849e-16
5.72516e-16
5.43376e-15
6.10234e-13
2.25423e-09
8.4274e-08
4.97774e-06
0.000194465
0.000464236
0.00175853
0.00329293
0.00493545
0.00822577
6.11765e-24
5.57043e-20
1.46131e-19
4.99679e-19
1.55412e-18
4.95864e-18
1.46117e-17
3.75702e-17
1.02073e-16
2.50952e-16
6.45365e-16
6.1327e-14
2.59347e-11
7.42848e-08
1.0437e-05
0.000153472
0.000789266
0.000820506
0.00270977
0.00395824
0.00521265
0.00829204
6.07082e-24
4.43498e-20
1.25437e-19
4.56634e-19
1.50754e-18
4.95361e-18
1.47473e-17
3.87249e-17
1.04877e-16
2.75126e-16
7.48639e-16
1.68133e-12
1.08364e-09
4.4329e-06
0.000190143
0.000605294
0.00164534
0.00153539
0.004446
0.00498044
0.00558548
0.00836448
6.04163e-24
6.02604e-20
1.53435e-19
5.25911e-19
1.67273e-18
5.20596e-18
1.60251e-17
4.20345e-17
1.19294e-16
3.17381e-16
8.92112e-16
5.22915e-11
5.5076e-08
8.15529e-05
0.000707154
0.00164088
0.00351325
0.00301298
0.0073812
0.00645644
0.00606715
0.00844366
5.99624e-24
4.46293e-20
1.27737e-19
4.76947e-19
1.6337e-18
5.28096e-18
1.64022e-17
4.40648e-17
1.25499e-16
3.6464e-16
1.15865e-15
1.45628e-09
3.24613e-06
0.000341872
0.00151722
0.00357476
0.00715937
0.00593564
0.0119332
0.00842467
0.00664548
0.00853143
5.97061e-24
6.41498e-20
1.60452e-19
5.53815e-19
1.81498e-18
5.54196e-18
1.79085e-17
4.8222e-17
1.46705e-16
4.44745e-16
1.69463e-15
3.52133e-08
7.25816e-05
0.00104815
0.00363002
0.0077002
0.013994
0.011237
0.0182351
0.0108604
0.00730965
0.00862633
5.92666e-24
4.43257e-20
1.29671e-19
4.99319e-19
1.78321e-18
5.69195e-18
1.85325e-17
5.13838e-17
1.59852e-16
5.59174e-16
3.60152e-15
7.96402e-07
0.000342791
0.00263824
0.00784356
0.0150921
0.025225
0.0196957
0.0259721
0.0136309
0.00802557
0.00872852
5.90426e-24
6.75162e-20
1.66656e-19
5.82628e-19
1.97802e-18
5.94019e-18
2.02692e-17
5.67829e-17
1.96058e-16
7.78747e-16
1.6518e-14
1.51705e-05
0.00109573
0.00605843
0.0152874
0.0266485
0.0413401
0.0313694
0.034378
0.0165734
0.0087717
0.00883515
5.8606e-24
4.39595e-20
1.31999e-19
5.24814e-19
1.95783e-18
6.18562e-18
2.12023e-17
6.16795e-17
2.28171e-16
1.21632e-15
3.02176e-13
0.000136629
0.00265755
0.0121952
0.0267772
0.0425983
0.0616689
0.045214
0.0425295
0.0194857
0.00951003
0.00894576
5.84148e-24
7.05411e-20
1.73507e-19
6.15132e-19
2.17064e-18
6.43964e-18
2.3311e-17
6.93791e-17
3.08238e-16
2.30507e-15
1.26032e-11
0.000514858
0.00591625
0.0217813
0.0422343
0.0623461
0.0841884
0.0592863
0.0496248
0.0222292
0.0102252
0.00905718
5.79755e-24
4.35029e-20
1.34496e-19
5.5315e-19
2.16072e-18
6.77173e-18
2.46188e-17
7.72311e-17
4.08476e-16
5.44591e-15
5.48017e-10
0.00129472
0.0116088
0.0350974
0.0611822
0.0843114
0.105857
0.0714378
0.0552688
0.0246831
0.0108892
0.00916919
5.78117e-24
7.32649e-20
1.80292e-19
6.49149e-19
2.38807e-18
7.01183e-18
2.71832e-17
8.9073e-17
6.61746e-16
1.69241e-14
4.40833e-08
0.00307538
0.0204332
0.0514734
0.0820464
0.106227
0.123466
0.080226
0.0594367
0.0268187
0.011502
0.00927899
5.73667e-24
4.30541e-20
1.36875e-19
5.82423e-19
2.38696e-18
7.4384e-18
2.90082e-17
1.02319e-16
1.08046e-15
7.52762e-14
8.53485e-06
0.0063818
0.0324242
0.0700286
0.103196
0.125506
0.134638
0.0853616
0.0624184
0.0286096
0.0120493
0.00938714
5.72357e-24
7.5731e-20
1.86807e-19
6.832e-19
2.62935e-18
7.6733e-18
3.23052e-17
1.2225e-16
2.19384e-15
7.80245e-13
0.000165495
0.0119778
0.0470046
0.08923
0.122365
0.140033
0.138623
0.0876263
0.0645704
0.0300964
0.0125451
0.00949146
5.67824e-24
4.24354e-20
1.38577e-19
6.10951e-19
2.63524e-18
8.19364e-18
3.49412e-17
1.46469e-16
4.34034e-15
1.34067e-11
0.000636614
0.020245
0.06316
0.107865
0.138005
0.148592
0.136421
0.088244
0.0662421
0.0312947
0.0129869
0.00959327
5.66783e-24
7.80245e-20
1.92476e-19
7.15509e-19
2.88999e-18
8.41865e-18
3.94347e-17
1.83589e-16
1.02761e-14
1.66111e-10
0.00163945
0.0310401
0.0797376
0.124448
0.148742
0.151253
0.130231
0.0883027
0.0676528
0.0322685
0.0134002
0.00969106
5.62197e-24
4.19657e-20
1.39798e-19
6.38032e-19
2.90275e-18
9.03807e-18
4.35032e-17
2.31502e-16
2.24214e-14
1.55807e-09
0.00367544
0.0438192
0.0956832
0.138137
0.154487
0.149099
0.122491
0.0884096
0.0689462
0.03305
0.0137923
0.00978684
5.61509e-24
8.02774e-20
1.97585e-19
7.45845e-19
3.17133e-18
9.26778e-18
5.02666e-17
3.0644e-16
5.64428e-14
1.37794e-08
0.00721602
0.0576382
0.110165
0.148187
0.155623
0.14385
0.115069
0.0887535
0.0701696
0.0337166
0.0141974
0.00987966
5.56744e-24
4.17936e-20
1.4077e-19
6.63904e-19
3.19222e-18
9.99307e-18
5.71555e-17
4.08481e-16
1.30488e-13
3.18841e-07
0.0126176
0.0716447
0.122596
0.154647
0.153404
0.137205
0.108924
0.0892703
0.0713467
0.0343142
0.0146291
0.00997203
5.56306e-24
8.24864e-20
2.02104e-19
7.74049e-19
3.47306e-18
1.02328e-17
6.84637e-17
5.73384e-16
3.92559e-13
1.86724e-05
0.0197937
0.0850013
0.132644
0.157728
0.148982
0.130497
0.104267
0.0898316
0.0724604
0.0349252
0.015125
0.0100634
5.51427e-24
4.18614e-20
1.41229e-19
6.87564e-19
3.50176e-18
1.10697e-17
8.1334e-17
8.10441e-16
1.83006e-12
0.000209431
0.0284341
0.0971904
0.140199
0.158169
0.143611
0.124486
0.100893
0.0903192
0.0735
0.0355916
0.0156975
0.0101564
5.51325e-24
8.46782e-20
2.05805e-19
7.99253e-19
3.79644e-18
1.13448e-17
1.02519e-16
1.20445e-15
1.2802e-11
0.000691584
0.0379426
0.107812
0.145362
0.156604
0.138038
0.119478
0.098471
0.0906666
0.0744358
0.0363762
0.016377
0.0102507
5.46221e-24
4.20365e-20
1.40974e-19
7.08461e-19
3.8339e-18
1.23056e-17
1.28837e-16
1.79587e-15
7.40964e-11
0.00137352
0.0478309
0.116705
0.148382
0.153816
0.132844
0.115465
0.0966993
0.0908427
0.0752517
0.0372907
0.0171633
0.0103488
5.46322e-24
8.68095e-20
2.08986e-19
8.2184e-19
4.14342e-18
1.26539e-17
1.72488e-16
2.80974e-15
3.56415e-10
0.00235063
0.0575825
0.123779
0.149604
0.150299
0.128201
0.112306
0.0953511
0.0908495
0.0759195
0.0383572
0.0180695
0.01045
5.41112e-24
4.22487e-20
1.39908e-19
7.2666e-19
4.19119e-18
1.37427e-17
2.30152e-16
4.38996e-15
1.38692e-09
0.00371473
0.0668724
0.129106
0.149402
0.146535
0.124217
0.109816
0.0942751
0.0907005
0.0764245
0.0395471
0.0190742
0.0105565
5.41524e-24
8.89213e-20
2.11422e-19
8.42423e-19
4.52289e-18
1.41941e-17
3.26418e-16
7.08398e-15
4.74625e-09
0.00558897
0.0753916
0.132794
0.148142
0.142739
0.120805
0.107831
0.093378
0.0904201
0.0767427
0.0408479
0.0201693
0.010667
5.35967e-24
4.22813e-20
1.37819e-19
7.42935e-19
4.58534e-18
1.54551e-17
4.58298e-16
1.12968e-14
1.44508e-08
0.00806877
0.0830141
0.13505
0.146143
0.139119
0.117922
0.106211
0.0926061
0.0900313
0.0768629
0.0422096
0.0213138
0.0107831
5.36572e-24
8.84607e-20
2.10347e-19
8.57276e-19
4.93686e-18
1.60489e-17
6.78024e-16
1.85084e-14
4.27938e-08
0.0112371
0.089652
0.136076
0.143672
0.135713
0.115442
0.104857
0.0919307
0.0895604
0.0767656
0.0436137
0.0224866
0.0109032
5.30612e-24
4.14887e-20
1.32585e-19
7.51685e-19
5.01062e-18
1.74646e-17
9.80578e-16
2.99216e-14
2.19454e-07
0.0152211
0.0953751
0.136121
0.140933
0.132594
0.113313
0.103695
0.0913394
0.0890295
0.0764444
0.0450218
0.02364
0.0110282
5.31255e-24
8.52666e-20
2.03834e-19
8.6211e-19
5.3814e-18
1.81878e-17
1.47481e-15
5.7463e-14
1.11445e-05
0.0202047
0.100272
0.135394
0.138081
0.129731
0.111439
0.102676
0.0908295
0.0884631
0.0758872
0.0464423
0.0247552
0.0111563
5.24619e-24
4.16179e-20
1.27335e-19
7.57768e-19
5.48325e-18
1.98594e-17
2.14261e-15
4.65087e-13
0.000189804
0.0265149
0.104521
0.13412
0.135227
0.127154
0.109793
0.101769
0.0904049
0.0878819
0.0750964
0.047874
0.0257953
0.0112883
5.24951e-24
5.37923e-20
1.5473e-19
7.99532e-19
5.76924e-18
2.06407e-17
3.2018e-15
2.31304e-11
0.00126206
0.0345655
0.108259
0.132469
0.132446
0.124822
0.108314
0.100957
0.0900737
0.0873087
0.0740724
0.0493637
0.026764
0.011422
5.17278e-24
4.32839e-20
1.14483e-19
7.24352e-19
5.9411e-18
2.35481e-17
4.66332e-15
1.03288e-09
0.00478424
0.0446222
0.111627
0.13061
0.129782
0.122768
0.107005
0.100233
0.0898465
0.0867617
0.0728346
0.0509374
0.0276538
0.0115584
5.16609e-24
1.93961e-21
1.12099e-20
4.0068e-19
5.44958e-18
2.44405e-17
7.20797e-15
1.82878e-07
0.0126289
0.0566244
0.114668
0.128663
0.127259
0.120958
0.105826
0.0996018
0.0897351
0.0862586
0.0714045
0.0526347
0.0285037
0.0116955
5.078e-24
1.7118e-20
4.4778e-20
4.17434e-19
5.46309e-18
3.62136e-17
1.80091e-14
4.60612e-05
0.0263155
0.0703057
0.117397
0.126748
0.124875
0.119442
0.104806
0.09907
0.0897497
0.0858079
0.0698282
0.0544033
0.0293284
0.0118345
5.03914e-24
6.72059e-22
8.45987e-23
2.35266e-19
5.0669e-18
8.28286e-17
3.70834e-13
0.000941816
0.046834
0.085253
0.119733
0.124941
0.122616
0.11819
0.10392
0.0986579
0.0898999
0.085413
0.0681568
0.0560789
0.0301292
0.011976
4.83851e-24
2.10349e-19
4.582e-19
1.02968e-18
7.26159e-18
9.13702e-16
7.18233e-12
0.00560648
0.0745405
0.10125
0.12178
0.123381
0.120464
0.117248
0.103195
0.0983738
0.09018
0.0850202
0.0664548
0.0572391
0.030602
0.0121338
0.00987657
0.0189042
0.0204688
0.00790965
0.00689216
0.00706219
0.00720584
0.00734852
0.00721453
0.00755335
0.0105586
0.00990106
0.00860944
0.00788388
0.00881425
0.0109949
0.0139029
0.0160946
0.0160277
0.0137248
0.0121287
0.0120302
0.0124241
0.01293
0.0134165
0.0132933
0.0366954
0.0975713
0.116967
0.114992
0.108989
0.105608
0.106194
0.116398
0.134396
0.00986353
0.0191637
0.0197242
0.00756556
0.00671888
0.00690172
0.00718952
0.00735389
0.00715141
0.00747334
0.0102509
0.00962607
0.0084013
0.00762469
0.0084867
0.0106216
0.0136206
0.0161398
0.0162925
0.013836
0.0120335
0.0118518
0.0122167
0.0127224
0.0132383
0.0130625
0.0358765
0.0972054
0.116869
0.114884
0.108912
0.105544
0.106164
0.116369
0.134382
0.00983842
0.0193458
0.0184438
0.00698327
0.00650329
0.00667867
0.00720654
0.00738571
0.00706962
0.00737467
0.00938208
0.00878364
0.00778019
0.00701623
0.00753064
0.00906526
0.0115431
0.0141278
0.0149545
0.013149
0.0116307
0.0114791
0.011833
0.0123563
0.0129466
0.0129595
0.0349854
0.0964982
0.116611
0.114609
0.108709
0.105368
0.106058
0.116265
0.134308
0.00979929
0.0194522
0.0168159
0.00637071
0.00630551
0.00647566
0.00724568
0.00737337
0.00697757
0.00729125
0.00843098
0.00783504
0.00705158
0.00639862
0.00658456
0.00741933
0.00907497
0.0113486
0.0127738
0.0119502
0.0109724
0.0109171
0.0112673
0.0118093
0.0124923
0.0128387
0.0339013
0.0954347
0.116195
0.114169
0.108378
0.105078
0.105877
0.116086
0.134174
0.00974597
0.019415
0.0149769
0.00576061
0.00608365
0.00625558
0.00723095
0.00726125
0.00682382
0.00715175
0.00756993
0.00698469
0.00640911
0.00591041
0.00585125
0.00609666
0.00692575
0.00862177
0.0103332
0.0104647
0.010104
0.01018
0.0105298
0.0110795
0.0118479
0.0125867
0.0325406
0.0940106
0.115637
0.113581
0.107933
0.104686
0.10563
0.115842
0.133992
0.00967615
0.0191787
0.013047
0.00515849
0.00581587
0.00598748
0.00711064
0.00702855
0.00657201
0.00688609
0.00677732
0.00623044
0.0058345
0.00546579
0.00525008
0.00509609
0.00527518
0.00631836
0.0079824
0.00884388
0.00906166
0.00928758
0.00964269
0.0101837
0.0110089
0.0121222
0.030856
0.0922289
0.114964
0.112871
0.107395
0.104214
0.105336
0.115554
0.133781
0.00959042
0.0187124
0.011143
0.00459333
0.00552101
0.00567931
0.00688006
0.00668875
0.00622155
0.00647275
0.00599363
0.00550059
0.0052335
0.00493216
0.00463771
0.00428145
0.00405319
0.00452412
0.00589046
0.00717657
0.00787278
0.00826211
0.00863533
0.00915339
0.00999503
0.0113987
0.0288371
0.0900967
0.114209
0.112069
0.10679
0.103685
0.105017
0.115244
0.133564
0.00948687
0.0179976
0.00936772
0.00410691
0.00523932
0.00536356
0.00656977
0.00627721
0.00580065
0.00593856
0.00519526
0.00475085
0.00455355
0.00426101
0.00395089
0.00355152
0.00314487
0.0032094
0.00414545
0.0055334
0.00656965
0.00713035
0.00754154
0.00803047
0.00884729
0.0104085
0.0265093
0.0876244
0.113406
0.111211
0.106147
0.103127
0.104696
0.11494
0.133368
0.00936733
0.0170429
0.00779454
0.00373228
0.00501088
0.0050788
0.00622521
0.00583665
0.00535005
0.00533894
0.00440762
0.00398901
0.00381344
0.00350624
0.00323039
0.00288877
0.00247449
0.00232054
0.00282449
0.00402436
0.00521501
0.00593236
0.00640059
0.00686325
0.00762375
0.0091861
0.0239318
0.0848263
0.112591
0.110334
0.105495
0.102571
0.104401
0.114671
0.133221
0.0092307
0.0158673
0.00646156
0.00348279
0.0048652
0.00485896
0.00589316
0.00540925
0.00491291
0.00473769
0.00368304
0.00325879
0.00307782
0.00277633
0.00257192
0.00232917
0.0020002
0.00178517
0.00196857
0.00280523
0.00392541
0.00473436
0.00526202
0.00570502
0.00639285
0.00780996
0.0211936
0.0817242
0.1118
0.109473
0.104866
0.102046
0.104159
0.114465
0.133152
0.00908003
0.0145132
0.00537401
0.00335397
0.00481928
0.00472935
0.00561452
0.00503154
0.00452663
0.00419198
0.00307647
0.00262058
0.00242487
0.0021778
0.00206265
0.00191343
0.00168887
0.00150485
0.0015224
0.00199474
0.00285706
0.00363629
0.00419136
0.00461478
0.00522704
0.00639576
0.0184075
0.0783523
0.111064
0.108661
0.104288
0.101582
0.103995
0.114352
0.133191
0.00891508
0.0130284
0.00451626
0.00333215
0.00488088
0.00470646
0.00542215
0.00473362
0.00422076
0.00374434
0.00262323
0.00212481
0.00191901
0.00176702
0.00173243
0.00164826
0.00150308
0.00137778
0.00135234
0.00158039
0.00212966
0.00275294
0.00326841
0.00365697
0.00419695
0.00508026
0.0157017
0.0747665
0.110413
0.10793
0.103788
0.101207
0.103937
0.11436
0.133367
0.00874002
0.0114784
0.00386352
0.00340341
0.00505321
0.00479946
0.00534016
0.00453812
0.00401505
0.00342075
0.00233337
0.00179682
0.00159041
0.00153183
0.00155031
0.00150282
0.00140405
0.00132794
0.00132519
0.00144433
0.00174844
0.00216053
0.00256715
0.00289354
0.0033641
0.00399345
0.0132098
0.0710529
0.109873
0.107307
0.10339
0.100946
0.104007
0.114518
0.133704
0.00855535
0.00992907
0.00339898
0.00355951
0.00533968
0.00501283
0.00538484
0.00446101
0.00392057
0.00323185
0.00219791
0.00163113
0.00142521
0.0014207
0.00145947
0.00143029
0.00135695
0.00131184
0.00135002
0.00145707
0.0016233
0.00185129
0.00212019
0.00236408
0.00276894
0.00322332
0.0110554
0.0673364
0.109467
0.106813
0.103117
0.100824
0.104228
0.114851
0.13423
0.00836592
0.00845329
0.00311072
0.00380011
0.00574777
0.00535008
0.00556624
0.00451129
0.00394082
0.00317624
0.00219772
0.00160551
0.00138425
0.00137944
0.0014101
0.0013902
0.00133531
0.00131009
0.00138313
0.0015247
0.0016448
0.00175239
0.00190105
0.00206602
0.00241765
0.00278982
0.00932753
0.0637794
0.109218
0.106467
0.102986
0.10086
0.104619
0.115382
0.134966
0.00817267
0.00711314
0.00299783
0.00413331
0.00629226
0.00581791
0.00589106
0.00469412
0.004075
0.00324437
0.00230981
0.00169097
0.00142499
0.00136975
0.00137358
0.00135943
0.00132312
0.00131557
0.00141377
0.00159838
0.00172761
0.00177766
0.00184679
0.00195831
0.00228151
0.00265071
0.00805726
0.0605683
0.109147
0.106284
0.103013
0.101074
0.105199
0.116133
0.135932
0.00798033
0.00596112
0.00306853
0.00457572
0.00699459
0.00643532
0.00636847
0.00501225
0.00432021
0.00342336
0.00251246
0.00185973
0.00151276
0.00136931
0.00133872
0.00133056
0.0013145
0.00132666
0.00144539
0.00166522
0.00182301
0.00185947
0.00189256
0.00198651
0.002314
0.00273595
0.00722032
0.057887
0.109272
0.106275
0.10321
0.101481
0.105984
0.117124
0.137149
0.00778933
0.00503291
0.00333935
0.00515401
0.00788731
0.00723406
0.00701434
0.005472
0.00467571
0.00370113
0.00278747
0.0020842
0.00162164
0.00136775
0.00130404
0.00130454
0.0013099
0.00134398
0.00148318
0.00172939
0.00191395
0.00195867
0.00199109
0.00210406
0.00246975
0.00297846
0.00676664
0.0558878
0.109612
0.106448
0.103588
0.102096
0.106988
0.118375
0.138633
0.00760307
0.00434322
0.00383565
0.00590612
0.00901388
0.00826042
0.0078546
0.00608784
0.00514588
0.0040714
0.00312506
0.00234465
0.00173669
0.00136182
0.00127049
0.00128384
0.00131211
0.00136939
0.00153053
0.00179822
0.00200094
0.00206071
0.00211699
0.00228051
0.00271377
0.00332758
0.00664657
0.0546706
0.110182
0.10681
0.104154
0.10293
0.108224
0.119901
0.140398
0.00742066
0.00388207
0.0045986
0.00687997
0.010429
0.00957432
0.00892608
0.00688537
0.0057434
0.0045364
0.00352541
0.00263056
0.00185296
0.00135416
0.00124028
0.0012704
0.00132354
0.00140479
0.00158862
0.00187611
0.00208967
0.00216531
0.00226201
0.00250032
0.00302258
0.00375086
0.00682107
0.0542772
0.110995
0.107364
0.104916
0.103995
0.109703
0.121719
0.142459
0.00724378
0.00361645
0.00569992
0.00813127
0.0121963
0.0112447
0.0102736
0.00789972
0.00648878
0.00510862
0.00400195
0.00294722
0.00197707
0.00135106
0.0012159
0.00126546
0.00134597
0.00145201
0.00165771
0.00196415
0.0021849
0.00227765
0.00242747
0.00275795
0.00338177
0.00423106
0.00726348
0.054699
0.112057
0.108112
0.105878
0.1053
0.111435
0.123844
0.144827
0.00707145
0.00350153
0.00724871
0.00972771
0.0143884
0.013345
0.0119463
0.00917144
0.00740845
0.00580754
0.00457664
0.003311
0.00212437
0.00136286
0.00120173
0.0012711
0.00138113
0.00151257
0.00173719
0.00206088
0.00228895
0.00240337
0.00261828
0.0030526
0.00378292
0.00476214
0.0079593
0.0558933
0.11337
0.109058
0.107045
0.106855
0.113432
0.126291
0.147514
0.00690537
0.00351322
0.00937138
0.0117608
0.0170928
0.0159546
0.0139965
0.0107408
0.00852964
0.00665467
0.00527449
0.00374874
0.00231848
0.00140328
0.00120363
0.00129053
0.00143174
0.00158862
0.0018268
0.00216381
0.00240241
0.00254705
0.00283951
0.00338474
0.00422142
0.00534587
0.00890527
0.0577995
0.114933
0.110201
0.108421
0.108669
0.115702
0.129074
0.150529
0.00674534
0.00363234
0.0122101
0.0143627
0.0204226
0.0191665
0.0164819
0.0126446
0.00987602
0.0076651
0.00610967
0.00428303
0.00258396
0.00149142
0.00123116
0.00132942
0.00150201
0.00168307
0.00192671
0.00227009
0.00252503
0.00271204
0.00309497
0.00375425
0.00469503
0.00598949
0.0101081
0.0603501
0.11674
0.111543
0.110008
0.110749
0.118253
0.132205
0.153882
0.00659312
0.00385186
0.0158927
0.01772
0.0245224
0.0230887
0.0194646
0.0149114
0.0114607
0.00884061
0.0070773
0.00492455
0.00293892
0.00164974
0.00129836
0.00139623
0.00159824
0.00180061
0.00203918
0.00237795
0.00265664
0.00290096
0.00338693
0.00415991
0.00520351
0.00670411
0.0115826
0.0634778
0.118783
0.113083
0.11181
0.113104
0.121094
0.135698
0.157579
0.00644962
0.00418592
0.0205069
0.0220737
0.0295584
0.0278255
0.0229952
0.01755
0.0132772
0.0101609
0.00814451
0.00565693
0.00338196
0.00189917
0.00142641
0.0015042
0.00172924
0.00194733
0.00216846
0.00248746
0.00279765
0.00311594
0.00371618
0.0045996
0.00574833
0.0075038
0.01335
0.0671188
0.121055
0.114822
0.113829
0.115742
0.124234
0.139566
0.161628
0.00631698
0.00467477
0.0260823
0.0276961
0.0356819
0.0334284
0.0270761
0.0205252
0.0152837
0.0115772
0.00925267
0.00643942
0.00388894
0.00224585
0.0016404
0.00167186
0.001907
0.00213142
0.00232201
0.00260207
0.00294963
0.00335904
0.00408241
0.00507087
0.00633282
0.00840508
0.0154361
0.0712137
0.123546
0.116758
0.116066
0.11867
0.127678
0.14382
0.166034
0.00619775
0.00539011
0.0326119
0.0348495
0.0429767
0.0398328
0.0316149
0.0237318
0.0173895
0.0130067
0.0103187
0.00720657
0.00441464
0.00267389
0.00196155
0.00192272
0.00214656
0.00236224
0.00250917
0.00272905
0.00311575
0.00363231
0.00448458
0.00557148
0.00696206
0.00942665
0.0178694
0.0757092
0.12625
0.118892
0.118523
0.121894
0.131435
0.148473
0.170801
0.00609509
0.00642281
0.0401018
0.0437436
0.0514023
0.0468046
0.0363885
0.0269758
0.0194468
0.0143346
0.0112458
0.00788273
0.0049043
0.00314646
0.00239213
0.00227806
0.00246407
0.00265006
0.00274109
0.00288025
0.00330136
0.00393821
0.00492137
0.00609998
0.00764286
0.0105894
0.0206797
0.0805577
0.129158
0.12122
0.121201
0.125422
0.13551
0.153535
0.17593
0.00601408
0.00786532
0.0486282
0.0544828
0.060741
0.0539206
0.0410373
0.0299802
0.0212588
0.0154212
0.0119294
0.00838666
0.00530119
0.00361848
0.0029106
0.00274647
0.00287086
0.0030024
0.00302765
0.00307089
0.00351445
0.00427969
0.00539158
0.00665594
0.0083836
0.0119162
0.0238969
0.0857183
0.132264
0.123741
0.124099
0.129259
0.13991
0.159016
0.181425
0.00596079
0.00978567
0.0583294
0.0669647
0.0705383
0.0605816
0.0450929
0.0324098
0.0225986
0.0161172
0.012271
0.00864634
0.00555701
0.00404511
0.00347586
0.00331288
0.00336551
0.00342047
0.00337551
0.00331869
0.00376608
0.00466064
0.00589446
0.00724001
0.00919407
0.0134326
0.0275493
0.0911561
0.135561
0.126451
0.127219
0.13341
0.14464
0.164929
0.187285
0.00594609
0.0122289
0.0693351
0.0807142
0.0800555
0.0660631
0.0480395
0.0339185
0.0232416
0.0162825
0.0121871
0.00860371
0.00563742
0.00439064
0.00404146
0.00393986
0.00392755
0.00389312
0.00378266
0.00364015
0.00407032
0.00508578
0.00642979
0.00785371
0.0100852
0.0151659
0.0316631
0.0968422
0.139043
0.129346
0.130559
0.137882
0.149707
0.171284
0.193511
0.00598322
0.0152256
0.0815979
0.0947258
0.0882865
0.0696181
0.0494009
0.0342081
0.0230025
0.0158108
0.0116274
0.00823103
0.00553129
0.0046322
0.00456411
0.00457671
0.00451951
0.00439633
0.0042364
0.00404697
0.00444377
0.0055609
0.00699793
0.00849904
0.011069
0.0171459
0.0362608
0.102753
0.142703
0.132421
0.13412
0.142681
0.155119
0.178094
0.200105
0.00609167
0.018822
0.0947188
0.107486
0.0941095
0.0706341
0.0488471
0.0330961
0.0217801
0.014658
0.0105913
0.00753991
0.00525509
0.00476473
0.00501268
0.00517404
0.00509533
0.00489545
0.00471131
0.0045395
0.00490352
0.00609209
0.0075993
0.0091778
0.0121579
0.0194045
0.0413608
0.10887
0.146535
0.135669
0.137904
0.147814
0.160885
0.185378
0.207072
0.00628805
0.0230716
0.107842
0.117279
0.0965607
0.0687989
0.0462846
0.0305725
0.0195973
0.0128751
0.00915265
0.00659879
0.00485647
0.00480083
0.00537016
0.00569333
0.0056133
0.0053551
0.0051756
0.00510372
0.0054637
0.0066851
0.00823385
0.00989098
0.013365
0.0219753
0.0469768
0.115179
0.150534
0.139087
0.141914
0.153294
0.167019
0.193156
0.214417
0.00658505
0.0280416
0.119807
0.122708
0.0951257
0.0642077
0.0419022
0.0268295
0.0166335
0.0106358
0.00747346
0.00553364
0.00440608
0.00476889
0.00563524
0.0061122
0.00604336
0.00574595
0.00559712
0.00570974
0.00612956
0.00734298
0.00889992
0.0106379
0.0147033
0.0248932
0.0531182
0.121671
0.154695
0.142671
0.146159
0.159138
0.173541
0.201457
0.222155
0.00697682
0.0337379
0.129425
0.123102
0.0898915
0.0573475
0.0361397
0.0222461
0.0132281
0.00824339
0.00579916
0.00451312
0.0039827
0.00470543
0.00581791
0.00642355
0.00637194
0.00605264
0.00595384
0.00631994
0.00689158
0.00806372
0.00959321
0.0114155
0.0161856
0.0281942
0.0597903
0.128339
0.159014
0.146421
0.15065
0.16537
0.180474
0.21032
0.230307
0.00744499
0.0400484
0.135751
0.118614
0.0814846
0.0489679
0.0295968
0.0173304
0.00983975
0.0060741
0.0043928
0.00369242
0.00365037
0.00464614
0.0059345
0.00663143
0.00659796
0.00627234
0.00623628
0.00689679
0.00772133
0.00883631
0.0103054
0.0122179
0.0178249
0.0319153
0.0669967
0.135186
0.163494
0.150344
0.155408
0.172024
0.187854
0.219795
0.238901
0.00795396
0.0465129
0.138105
0.109979
0.0708454
0.0398977
0.022912
0.0126293
0.00693429
0.00443415
0.00342136
0.00315281
0.00344343
0.00461563
0.00600031
0.0067457
0.00673047
0.00641499
0.00645103
0.00741544
0.00857429
0.00963894
0.0110238
0.0130368
0.0196339
0.0360949
0.0747421
0.142222
0.16814
0.15445
0.160458
0.179145
0.195724
0.229946
0.247977
0.00846726
0.0522467
0.136024
0.0981791
0.0589757
0.0308903
0.0166618
0.00862555
0.0048181
0.00341101
0.00288205
0.00287818
0.00335905
0.00462055
0.00602447
0.00677632
0.00678077
0.0064957
0.00661505
0.00786594
0.00939809
0.0104385
0.0117313
0.0138619
0.0216265
0.0407745
0.0830368
0.149469
0.172965
0.158762
0.165838
0.186791
0.204137
0.240847
0.257586
0.00894498
0.0558848
0.12918
0.0842036
0.0467638
0.0225381
0.0112943
0.00563125
0.00351029
0.00287645
0.00265114
0.0027889
0.00336336
0.00464851
0.00600713
0.00673046
0.00676042
0.00653285
0.00675422
0.00825757
0.0101458
0.0111959
0.0124089
0.0146826
0.0238186
0.0460003
0.0919014
0.156964
0.177991
0.16331
0.171591
0.195031
0.213157
0.25259
0.26779
0.0093615
0.0560458
0.117457
0.0689821
0.03494
0.0152687
0.00710553
0.00369933
0.00279192
0.00262175
0.00257084
0.00278268
0.00340583
0.00467478
0.00594073
0.00661012
0.00667551
0.00654078
0.00689536
0.00861191
0.0107865
0.0118737
0.0130385
0.01549
0.0262294
0.0518265
0.101373
0.164759
0.183248
0.168135
0.177772
0.203945
0.222858
0.265275
0.278659
0.0096768
0.0515735
0.10099
0.0534166
0.0241369
0.00939529
0.00422269
0.00260697
0.00239008
0.00246079
0.00250474
0.00277294
0.00344175
0.00467352
0.00581476
0.00641411
0.00652871
0.00653064
0.00706604
0.00896272
0.0113139
0.0124465
0.0136071
0.0162788
0.028883
0.0583184
0.111509
0.172922
0.188775
0.173287
0.184438
0.21362
0.233316
0.27901
0.290269
0.00988074
0.0424284
0.080474
0.0383688
0.0149214
0.00512402
0.00252008
0.00199366
0.00209078
0.00225853
0.00235835
0.0026982
0.00343201
0.00461414
0.00561177
0.00613235
0.00631164
0.00650037
0.00728537
0.00934725
0.0117464
0.0129064
0.0141101
0.0170486
0.0318094
0.0655549
0.12239
0.181538
0.194618
0.178819
0.191651
0.224146
0.244612
0.293907
0.3027
4.88274e-24
3.15708e-19
1.14477e-18
4.328e-18
2.51171e-17
3.17063e-14
9.07475e-11
0.0204679
0.100513
0.113591
0.123028
0.122417
0.118934
0.116794
0.102793
0.0983157
0.0905448
0.0846161
0.0651852
0.0574895
0.0302133
0.0121467
4.99656e-24
7.39858e-20
8.36538e-20
6.2635e-18
6.27316e-17
2.47489e-13
9.29725e-10
0.0384794
0.118156
0.121038
0.12345
0.121823
0.118048
0.116691
0.10273
0.0984375
0.0909793
0.0843678
0.0645601
0.0573103
0.0297768
0.012198
5.10255e-24
2.76631e-19
8.7802e-19
8.90605e-18
1.22456e-16
9.3164e-13
9.35826e-09
0.0599215
0.133945
0.127173
0.123629
0.121333
0.117367
0.116764
0.102859
0.0987055
0.0915685
0.0841842
0.0642565
0.0567626
0.0292397
0.0123582
5.06239e-24
5.72585e-20
2.14752e-20
6.84906e-18
1.92276e-16
2.28003e-12
1.69637e-07
0.0825479
0.147628
0.132201
0.123817
0.121016
0.116932
0.117042
0.103206
0.0991058
0.0922845
0.0840708
0.0642628
0.0558765
0.0286362
0.012617
5.16611e-24
2.21281e-19
6.31992e-19
7.22572e-18
2.87895e-16
3.60563e-12
6.53366e-06
0.102918
0.159207
0.136327
0.124192
0.120922
0.116785
0.117515
0.103755
0.0996296
0.0930964
0.0840284
0.0645473
0.0547204
0.0280117
0.0129656
5.11439e-24
4.59215e-20
1.20645e-20
4.61284e-18
4.0932e-16
4.86373e-12
1.85597e-05
0.117267
0.168776
0.139772
0.124899
0.121107
0.116957
0.118218
0.104534
0.100268
0.093972
0.0840537
0.0650757
0.0533506
0.0273765
0.0134211
5.22957e-24
1.78666e-19
4.73187e-19
4.63338e-18
5.7961e-16
5.05142e-12
3.42896e-05
0.123772
0.176502
0.142717
0.12602
0.121608
0.117478
0.119143
0.105527
0.101024
0.094882
0.0841434
0.0657967
0.0518474
0.0267562
0.0139971
5.17053e-24
3.80387e-20
7.87885e-21
2.77849e-18
7.71388e-16
4.36864e-12
2.56485e-05
0.122944
0.182512
0.145326
0.12762
0.122469
0.118367
0.12033
0.106768
0.1019
0.0958027
0.0842892
0.0666645
0.0502654
0.0261483
0.0147114
5.29821e-24
1.46639e-19
3.69418e-19
2.85936e-18
9.84686e-16
2.87496e-12
2.72605e-05
0.116675
0.186907
0.147705
0.129715
0.123714
0.119642
0.121771
0.108243
0.102911
0.09672
0.0844848
0.067623
0.0486767
0.0255723
0.0155677
5.22381e-24
3.24401e-20
5.8864e-21
1.68605e-18
1.14677e-15
1.6863e-12
3.51149e-05
0.106735
0.189678
0.149931
0.132322
0.125373
0.121313
0.123505
0.10999
0.104074
0.0976314
0.0847202
0.0686308
0.0471217
0.025019
0.0165693
5.35795e-24
1.21915e-19
2.97288e-19
1.84101e-18
1.25081e-15
8.50996e-13
3.99499e-05
0.0942453
0.190749
0.15201
0.135412
0.127461
0.123389
0.125519
0.111996
0.105414
0.0985479
0.0849905
0.0696399
0.045657
0.0245038
0.0177017
5.2714e-24
2.84266e-20
4.69109e-21
1.08009e-18
1.23775e-15
4.15903e-13
4.0937e-05
0.0802389
0.189918
0.153913
0.138961
0.129999
0.125874
0.12785
0.114298
0.106953
0.099492
0.0852893
0.0706238
0.0443056
0.0240135
0.0189494
5.41236e-24
1.02852e-19
2.48066e-19
1.26206e-18
1.14699e-15
1.89046e-13
3.4794e-05
0.0655735
0.186922
0.155535
0.142899