/*--------------------------------*- C++ -*----------------------------------*\
| =========                 |                                                 |
| \\      /  F ield         | OpenFOAM: The Open Source CFD Toolbox           |
|  \\    /   O peration     | Version:  v1912                                 |
|   \\  /    A nd           | Website:  www.openfoam.com                      |
|    \\/     M anipulation  |                                                 |
\*---------------------------------------------------------------------------*/
FoamFile
{
    version     2.0;
    format      ascii;
    class       volScalarField;
    location    "220";
    object      p;
}
// * * * * * * * * * * * * * * * * * * * * * * * * * * * * * * * * * * * * * //

dimensions      [0 2 -2 0 0 0 0];


internalField   nonuniform List<scalar> 
12441
(
8.42375
8.71396
9.54402
10.8331
12.5021
14.6119
17.2561
20.5377
24.6297
29.6917
35.9715
43.7326
53.5508
65.4704
81.2689
100.746
128.539
163.052
218.954
281.019
372.574
437.32
8.42374
8.71395
9.54401
10.8331
12.5021
14.6119
17.2561
20.5376
24.6295
29.6915
35.9711
43.732
53.5498
65.4687
81.2659
100.739
128.523
163.028
218.871
280.942
372.523
437.119
8.42372
8.71394
9.54399
10.833
12.5021
14.6118
17.2559
20.5374
24.6292
29.691
35.9704
43.7307
53.5479
65.4654
81.2599
100.725
128.499
162.973
218.7
280.76
372.387
436.756
8.4237
8.71391
9.54395
10.833
12.502
14.6117
17.2558
20.5371
24.6288
29.6903
35.9693
43.7288
53.5449
65.4605
81.251
100.705
128.467
162.888
218.52
280.48
372.14
436.191
8.42367
8.71388
9.5439
10.8329
12.5019
14.6115
17.2555
20.5367
24.6282
29.6893
35.9678
43.7263
53.5409
65.454
81.2392
100.678
128.425
162.783
218.355
280.129
371.793
435.421
8.42363
8.71383
9.54385
10.8328
12.5018
14.6113
17.2552
20.5362
24.6274
29.6882
35.9659
43.7231
53.536
65.4458
81.2244
100.645
128.374
162.658
218.168
279.705
371.351
434.446
8.42359
8.71378
9.54378
10.8327
12.5016
14.6111
17.2548
20.5356
24.6266
29.6868
35.9637
43.7193
53.53
65.436
81.2067
100.606
128.313
162.512
217.949
279.211
370.819
433.267
8.42354
8.71372
9.5437
10.8326
12.5014
14.6108
17.2544
20.5349
24.6255
29.6851
35.9611
43.7148
53.5231
65.4246
81.186
100.56
128.246
162.346
217.71
278.659
370.202
431.879
8.42348
8.71365
9.54361
10.8325
12.5012
14.6105
17.2539
20.5341
24.6243
29.6832
35.9581
43.7097
53.5151
65.4117
81.163
100.511
128.177
162.168
217.473
278.063
369.503
430.28
8.42341
8.71358
9.5435
10.8323
12.501
14.6102
17.2534
20.5333
24.623
29.6811
35.9548
43.704
53.5062
65.3973
81.1386
100.461
128.111
161.986
217.259
277.433
368.725
428.463
8.42333
8.71349
9.54339
10.8321
12.5008
14.6098
17.2528
20.5323
24.6215
29.6787
35.9511
43.6976
53.4963
65.3817
81.1139
100.414
128.06
161.817
217.096
276.78
367.865
426.422
8.42325
8.7134
9.54326
10.8319
12.5005
14.6093
17.2521
20.5312
24.6199
29.6761
35.947
43.6906
53.4854
65.366
81.0919
100.38
128.049
161.691
217.012
276.107
366.918
424.149
8.42316
8.71329
9.54312
10.8317
12.5002
14.6089
17.2514
20.53
24.6181
29.6733
35.9425
43.683
53.4739
65.3519
81.0797
100.374
128.114
161.647
217.012
275.406
365.874
421.631
8.42306
8.71318
9.54297
10.8315
12.4998
14.6084
17.2506
20.5288
24.6162
29.6702
35.9377
43.6747
53.4623
65.3436
81.0892
100.42
128.287
161.717
217.069
274.658
364.725
418.857
8.42296
8.71306
9.54281
10.8313
12.4995
14.6078
17.2498
20.5274
24.6141
29.6669
35.9325
43.6659
53.452
65.3474
81.1329
100.531
128.584
161.902
217.124
273.836
363.461
415.815
8.42285
8.71293
9.54264
10.831
12.4991
14.6072
17.2489
20.5259
24.6119
29.6634
35.9269
43.6567
53.4453
65.3709
81.2206
100.713
128.985
162.156
217.109
272.915
362.073
412.491
8.42273
8.7128
9.54245
10.8307
12.4987
14.6066
17.2479
20.5244
24.6095
29.6596
35.9208
43.6477
53.4465
65.4195
81.3532
100.956
129.436
162.397
216.968
271.875
360.554
408.872
8.4226
8.71265
9.54226
10.8304
12.4983
14.6059
17.2469
20.5227
24.607
29.6556
35.9144
43.6397
53.4602
65.4951
81.5232
101.232
129.854
162.534
216.677
270.707
358.898
404.943
8.42247
8.7125
9.54205
10.8301
12.4978
14.6052
17.2458
20.5209
24.6043
29.6513
35.9075
43.6345
53.49
65.5929
81.714
101.503
130.152
162.508
216.238
269.407
357.102
400.69
8.42232
8.71233
9.54183
10.8298
12.4973
14.6045
17.2446
20.5191
24.6015
29.6468
35.9003
43.6348
53.536
65.7057
81.9041
101.724
130.265
162.308
215.674
267.98
355.163
396.097
8.42217
8.71216
9.5416
10.8294
12.4968
14.6037
17.2434
20.5171
24.5985
29.642
35.8931
43.6433
53.5956
65.8215
82.0691
101.861
130.174
161.969
215.014
266.432
353.08
391.15
8.42202
8.71198
9.54136
10.8291
12.4963
14.6029
17.2422
20.5151
24.5954
29.637
35.8862
43.6617
53.6622
65.9307
82.1888
101.89
129.905
161.542
214.283
264.773
350.856
385.831
8.42185
8.71179
9.5411
10.8287
12.4958
14.602
17.2408
20.5129
24.5921
29.6316
35.8804
43.6898
53.7308
66.0216
82.249
101.814
129.517
161.074
213.499
263.011
348.491
380.125
8.42168
8.7116
9.54084
10.8283
12.4952
14.6011
17.2395
20.5107
24.5887
29.626
35.8769
43.7249
53.7939
66.0881
82.247
101.651
129.077
160.591
212.672
261.155
345.987
374.013
8.4215
8.71139
9.54056
10.8279
12.4946
14.6002
17.238
20.5083
24.5851
29.6202
35.8772
43.7638
53.8489
66.1238
82.1884
101.428
128.633
160.103
211.806
259.214
343.347
367.477
8.42131
8.71118
9.54027
10.8274
12.4939
14.5992
17.2365
20.5059
24.5814
29.614
35.8821
43.8027
53.8906
66.13
82.0868
101.176
128.213
159.608
210.901
257.199
340.575
360.494
8.42112
8.71095
9.53997
10.827
12.4933
14.5982
17.2349
20.5034
24.5775
29.6077
35.8919
43.8388
53.9192
66.1073
81.9563
100.916
127.825
159.101
209.959
255.119
337.673
353.044
8.42091
8.71072
9.53966
10.8265
12.4926
14.5972
17.2333
20.5007
24.5734
29.6015
35.9057
43.8699
53.932
66.0628
81.8112
100.663
127.462
158.577
208.977
252.981
334.643
345.103
8.4207
8.71048
9.53934
10.826
12.4919
14.5961
17.2316
20.498
24.5692
29.5954
35.9219
43.8945
53.9318
66.0001
81.6606
100.421
127.116
158.033
207.956
250.793
331.483
336.645
8.42049
8.71024
9.539
10.8255
12.4912
14.5949
17.2299
20.4952
24.5647
29.5896
35.9388
43.9119
53.9177
65.9269
81.5113
100.192
126.779
157.469
206.895
248.559
328.194
327.641
8.42026
8.70998
9.53866
10.825
12.4904
14.5938
17.228
20.4922
24.5602
29.5842
35.9549
43.9219
53.8939
65.8456
81.3656
99.9722
126.443
156.885
205.794
246.28
324.769
318.062
8.42003
8.70971
9.5383
10.8245
12.4896
14.5926
17.2262
20.4892
24.5554
29.5793
35.9695
43.9246
53.8601
65.7616
81.2246
99.7592
126.106
156.282
204.653
243.958
321.203
307.876
8.41979
8.70944
9.53793
10.8239
12.4888
14.5913
17.2242
20.486
24.5505
29.5751
35.9816
43.9206
53.8207
65.675
81.0875
99.5498
125.764
155.66
203.473
241.593
317.486
297.047
8.41954
8.70916
9.53755
10.8234
12.488
14.59
17.2223
20.4828
24.5454
29.572
35.9909
43.9105
53.775
65.5891
80.9538
99.3419
125.417
155.022
202.254
239.183
313.607
285.539
8.41929
8.70887
9.53716
10.8228
12.4871
14.5887
17.2202
20.4794
24.5401
29.57
35.9972
43.8952
53.727
65.5025
80.8219
99.1336
125.062
154.368
200.996
236.728
309.555
273.313
8.41903
8.70857
9.53675
10.8222
12.4862
14.5873
17.2181
20.476
24.5347
29.5693
36.0006
43.8754
53.6754
65.4176
80.6914
98.9238
124.701
153.699
199.7
234.23
305.318
260.327
8.41876
8.70826
9.53634
10.8215
12.4853
14.5859
17.2159
20.4724
24.5292
29.5705
36.0014
43.8522
53.6233
65.3324
80.561
98.7117
124.333
153.015
198.367
231.691
300.884
246.538
8.41848
8.70794
9.53591
10.8209
12.4844
14.5845
17.2137
20.4688
24.5238
29.5744
36
43.8262
53.5692
65.2488
80.4306
98.497
123.958
152.319
196.998
229.116
296.244
231.901
8.4182
8.70762
9.53547
10.8203
12.4834
14.583
17.2114
20.465
24.5194
29.5816
35.9968
43.7981
53.5156
65.1647
80.2993
98.2791
123.576
151.61
195.594
226.511
291.389
216.365
8.4179
8.70728
9.53502
10.8196
12.4824
14.5815
17.209
20.4611
24.5178
29.5922
35.9922
43.7685
53.4606
65.0823
80.1673
98.0583
123.188
150.888
194.159
223.88
286.315
199.88
8.4176
8.70694
9.53455
10.8189
12.4814
14.5799
17.2066
20.4571
24.5218
29.6061
35.9863
43.738
53.4066
64.9994
80.034
97.8345
122.795
150.156
192.695
221.228
281.02
182.391
8.4173
8.70659
9.53408
10.8182
12.4804
14.5783
17.2042
20.4532
24.5337
29.6229
35.979
43.707
53.3512
64.9182
79.9
97.608
122.396
149.412
191.207
218.557
275.501
163.852
8.41698
8.70623
9.53359
10.8175
12.4793
14.5767
17.2016
20.45
24.5552
29.642
35.9704
43.6758
53.2966
64.8365
79.7644
97.3789
121.992
148.655
189.699
215.863
269.734
144.175
8.41666
8.70587
9.5331
10.8167
12.4782
14.575
17.199
20.45
24.5855
29.6623
35.9606
43.645
53.2407
64.7566
79.6287
97.1482
121.583
147.885
188.177
213.136
263.638
122.623
-16.9874
-30.4766
-35.2167
-25.3821
-18.846
-14.9212
-12.0396
-8.80716
-4.82584
-1.15555
-1.8107
-5.82434
-8.76611
-1.96132
10.6975
20.839
23.0384
20.8187
17.815
15.4284
12.7978
10.8274
8.9236
6.9329
4.92659
1.28817
-1.13858
1.99861
9.48161
7.2427
5.26739
3.67189
2.57362
1.41017
0.659454
-17.016
-30.4879
-35.2427
-25.3789
-18.839
-14.9167
-12.0388
-8.80781
-4.82705
-1.15615
-1.81198
-5.81823
-8.758
-1.95362
10.7064
20.8524
23.0542
20.8305
17.8205
15.4314
12.8002
10.8295
8.92581
6.93539
4.93104
1.28769
-1.14443
1.97025
9.47593
7.24259
5.26764
3.67197
2.57362
1.41019
0.659456
-17.0631
-30.5242
-35.2915
-25.3739
-18.8298
-14.9107
-12.038
-8.80878
-4.8277
-1.15485
-1.80941
-5.81168
-8.74915
-1.94289
10.7251
20.8825
23.0902
20.8622
17.8401
15.4407
12.8053
10.8335
8.92968
6.93923
4.93636
1.28693
-1.14692
1.9434
9.47037
7.2426
5.26794
3.67208
2.57364
1.41022
0.659464
-17.129
-30.5937
-35.3637
-25.3711
-18.8194
-14.9036
-12.0369
-8.80979
-4.82791
-1.15287
-1.80676
-5.80662
-8.74154
-1.93246
10.7467
20.9198
23.1387
20.9097
17.8732
15.4568
12.8132
10.8396
8.93535
6.94464
4.94298
1.28718
-1.13897
1.92195
9.46517
7.24274
5.26827
3.67221
2.57368
1.41026
0.659477
-17.2129
-30.6999
-35.4565
-25.3725
-18.8075
-14.8955
-12.035
-8.81057
-4.8272
-1.14999
-1.80508
-5.8034
-8.73746
-1.92573
10.7643
20.9521
23.1831
20.9572
17.91
15.476
12.8231
10.8474
8.9428
6.95185
4.95117
1.29042
-1.12079
1.90746
9.46049
7.24302
5.26863
3.67237
2.57372
1.41032
0.659495
-17.313
-30.8462
-35.566
-25.3782
-18.7931
-14.886
-12.0321
-8.81102
-4.8253
-1.14611
-1.80393
-5.80202
-8.73689
-1.92206
10.7771
20.9759
23.2171
20.9966
17.9439
15.4958
12.8345
10.8567
8.95177
6.96077
4.96113
1.29832
-1.09288
1.90006
9.45632
7.24342
5.26901
3.67254
2.57378
1.41038
0.659517
-17.4276
-31.0342
-35.6877
-25.3881
-18.7766
-14.8755
-12.0282
-8.81124
-4.82221
-1.14111
-1.80304
-5.80195
-8.73869
-1.91925
10.7876
20.9926
23.2405
21.026
17.9727
15.5151
12.8469
10.8671
8.96186
6.97111
4.97281
1.31181
-1.05563
1.89967
9.45256
7.24395
5.26941
3.67272
2.57384
1.41046
0.65954
-17.5546
-31.263
-35.8171
-25.4029
-18.7593
-14.8647
-12.0238
-8.81151
-4.8183
-1.13535
-1.80238
-5.80311
-8.74176
-1.91572
10.7973
21.004
23.2549
21.0462
17.9956
15.5333
12.8601
10.8782
8.97263
6.9824
4.98593
1.33101
-1.00987
1.90631
9.44916
7.24458
5.26982
3.6729
2.57389
1.41053
0.659562
-17.6921
-31.529
-35.9493
-25.4229
-18.7429
-14.8546
-12.0196
-8.81209
-4.81406
-1.1292
-1.80197
-5.80546
-8.74561
-1.91174
10.8059
21.0106
23.2615
21.0578
18.0124
15.5497
12.8735
10.8896
8.98359
6.99409
4.99997
1.35526
-0.957074
1.92005
9.44604
7.2453
5.27023
3.67308
2.57394
1.4106
0.659581
-17.8379
-31.8254
-36.0806
-25.4478
-18.7285
-14.846
-12.0161
-8.81334
-4.81014
-1.12338
-1.80212
-5.80877
-8.74987
-1.90841
10.8122
21.0126
23.2614
21.0618
18.0226
15.5629
12.886
10.9006
8.99418
7.00551
5.01426
1.38318
-0.899314
1.94111
9.44313
7.24608
5.27063
3.67323
2.57397
1.41066
0.659596
-17.9896
-32.143
-36.208
-25.4768
-18.7174
-14.8396
-12.0142
-8.81551
-4.80711
-1.11842
-1.80275
-5.8127
-8.75433
-1.90699
10.8147
21.0096
23.2556
21.0594
18.0264
15.5717
12.8964
10.9104
9.00369
7.01594
5.02799
1.41281
-0.839152
1.96971
9.44041
7.24693
5.27101
3.67337
2.57399
1.41071
0.659604
-18.145
-32.4703
-36.3293
-25.5085
-18.7103
-14.8362
-12.0142
-8.81887
-4.80549
-1.11491
-1.80408
-5.81659
-8.75852
-1.90774
10.8128
21.0017
23.2451
21.052
18.0247
15.5755
12.9035
10.9179
9.01137
7.02466
5.04039
1.44199
-0.779458
2.00617
9.43785
7.24782
5.27137
3.67347
2.57397
1.41074
0.659603
-18.3016
-32.7946
-36.4429
-25.5412
-18.7075
-14.836
-12.0168
-8.82364
-4.80554
-1.11308
-1.80595
-5.82003
-8.76204
-1.91017
10.8068
20.9891
23.2308
21.041
18.0189
15.5747
12.9067
10.9224
9.0166
7.03111
5.05087
1.46886
-0.723269
2.05058
9.4355
7.24874
5.27171
3.67353
2.57393
1.41074
0.659592
-18.4568
-33.1029
-36.5473
-25.5732
-18.7093
-14.8394
-12.0222
-8.83005
-4.80734
-1.11314
-1.80856
-5.82269
-8.76432
-1.91312
10.7978
20.9722
23.213
21.0274
18.0105
15.5706
12.9065
10.9239
9.01913
7.03503
5.05915
1.49245
-0.673519
2.10275
9.43346
7.24967
5.27201
3.67355
2.57385
1.41072
0.659568
-18.6078
-33.3827
-36.6408
-25.6026
-18.7155
-14.8467
-12.0307
-8.83822
-4.81079
-1.11492
-1.81174
-5.8247
-8.76518
-1.9156
10.7869
20.9515
23.1919
21.0117
18.0003
15.5644
12.9038
10.9228
9.01921
7.03663
5.06538
1.51287
-0.63262
2.16164
9.43186
7.25061
5.27228
3.67352
2.57374
1.41067
0.659532
-18.7517
-33.623
-36.7221
-25.6277
-18.726
-14.8583
-12.0423
-8.8483
-4.81587
-1.11835
-1.81574
-5.82627
-8.76454
-1.91672
10.7751
20.9273
23.1675
20.9939
17.989
15.5571
12.8997
10.92
9.01741
7.03637
5.06999
1.53107
-0.601754
2.22524
9.43089
7.25154
5.27251
3.67343
2.57358
1.41059
0.659482
-18.8854
-33.8164
-36.7902
-25.6468
-18.7412
-14.8746
-12.0574
-8.86046
-4.82241
-1.12306
-1.82037
-5.82793
-8.76269
-1.91615
10.7628
20.8999
23.1395
20.9736
17.9764
15.549
12.8949
10.9161
9.01437
7.03484
5.07358
1.5482
-0.580384
2.29046
9.43074
7.25247
5.27269
3.67328
2.57337
1.41047
0.659417
-19.0057
-33.96
-36.8453
-25.6581
-18.7624
-14.896
-12.0763
-8.87506
-4.83047
-1.12898
-1.82588
-5.83005
-8.75974
-1.9135
10.7502
20.8692
23.1079
20.9508
17.9624
15.5403
12.8898
10.9117
9.01058
7.03253
5.07667
1.56514
-0.56649
2.35383
9.43157
7.25337
5.27282
3.67308
2.57313
1.41031
0.659337
-19.1094
-34.0554
-36.8886
-25.6616
-18.7902
-14.9229
-12.0996
-8.8926
-4.84008
-1.13573
-1.83196
-5.83312
-8.75598
-1.90884
10.7375
20.8351
23.0726
20.9252
17.9469
15.5308
12.8844
10.907
9.00636
7.02978
5.07962
1.5823
-0.55753
2.41218
9.43349
7.25425
5.27291
3.6728
2.57283
1.41012
0.659241
-19.1938
-34.1073
-36.9226
-25.659
-18.8242
-14.9562
-12.1284
-8.91396
-4.85167
-1.14342
-1.8389
-5.83736
-8.75142
-1.90201
10.7246
20.7976
23.0333
20.8969
17.9297
15.5205
12.8787
10.9021
9.00184
7.02678
5.08266
1.59976
-0.551296
2.46353
9.4365
7.25509
5.27294
3.67246
2.57248
1.40988
0.65913
-19.2566
-34.1217
-36.9499
-25.6521
-18.8638
-14.9964
-12.1637
-8.94016
-4.86567
-1.15182
-1.84639
-5.84325
-8.74651
-1.89343
10.7112
20.7562
22.99
20.8657
17.911
15.5094
12.8727
10.8969
8.99708
7.02366
5.08589
1.61745
-0.546314
2.50714
9.44052
7.25589
5.27291
3.67206
2.57209
1.40961
0.659003
-19.2975
-34.1055
-36.9691
-25.6427
-18.9082
-15.0446
-12.207
-8.97262
-4.88291
-1.16128
-1.85499
-5.85116
-8.7417
-1.88353
10.697
20.7109
22.9425
20.8317
17.8907
15.4973
12.8663
10.8915
8.99208
7.02046
5.08938
1.63535
-0.541726
2.54354
9.44544
7.25665
5.27282
3.67158
2.57165
1.40929
0.658861
-19.321
-34.0609
-36.9763
-25.6317
-18.9569
-15.1016
-12.2597
-9.01272
-4.90402
-1.17152
-1.86433
-5.86199
-8.73832
-1.87367
10.6811
20.6612
22.8908
20.7948
17.8687
15.4844
12.8596
10.8857
8.98682
7.01723
5.09314
1.65345
-0.537091
2.57389
9.4511
7.25737
5.27268
3.67103
2.57116
1.40894
0.658704
-19.3313
-33.9857
-36.9665
-25.6193
-19.0094
-15.169
-12.3238
-9.06223
-4.92995
-1.18284
-1.87496
-5.87643
-8.73776
-1.86536
10.6623
20.6066
22.8347
20.7551
17.8452
15.4708
12.8526
10.8796
8.9813
7.01397
5.0972
1.67178
-0.532147
2.59979
9.45735
7.25804
5.27246
3.6704
2.57061
1.40854
0.658532
-19.3281
-33.8809
-36.9306
-25.6048
-19.0654
-15.2483
-12.4015
-9.12266
-4.9611
-1.1945
-1.88596
-5.89554
-8.742
-1.86104
10.639
20.5467
22.7742
20.7127
17.8203
15.4564
12.8452
10.8732
8.97549
7.01071
5.10157
1.69035
-0.526749
2.62269
9.46408
7.25868
5.27218
3.6697
2.57002
1.4081
0.658346
-19.3101
-33.7498
-36.8535
-25.5862
-19.1252
-15.3415
-12.4949
-9.19564
-4.99803
-1.20639
-1.89735
-5.91954
-8.75214
-1.86244
10.6097
20.4808
22.7094
20.6675
17.7938
15.4413
12.8375
10.8663
8.96941
7.00747
5.10627
1.70915
-0.520781
2.64401
9.47121
7.25928
5.27182
3.66892
2.56938
1.40762
0.658147
-19.2768
-33.5969
-36.7166
-25.5597
-19.1891
-15.4505
-12.6059
-9.28177
-5.04015
-1.21688
-1.90732
-5.94858
-8.76896
-1.87117
10.5727
20.4084
22.6402
20.6199
17.766
15.4255
12.8295
10.8591
8.96305
7.00426
5.11132
1.72818
-0.514196
2.66477
9.47873
7.25986
5.27139
3.66807
2.56869
1.4071
0.657934
-19.2285
-33.4282
-36.5041
-25.5204
-19.2577
-15.5764
-12.7352
-9.38074
-5.08652
-1.22517
-1.91548
-5.98154
-8.79136
-1.88678
10.5275
20.3291
22.5669
20.57
17.7368
15.4091
12.8212
10.8514
8.95639
7.0011
5.11674
1.74739
-0.506947
2.68593
9.48662
7.26042
5.27088
3.66713
2.56796
1.40653
0.65771
-19.1658
-33.2519
-36.2108
-25.4629
-19.332
-15.7189
-12.8809
-9.48983
-5.13429
-1.22857
-1.91952
-6.01717
-8.81786
-1.90828
10.4746
20.243
22.4897
20.518
17.7063
15.3919
12.8125
10.8433
8.94945
6.99802
5.12256
1.76677
-0.499051
2.7081
9.49494
7.26097
5.2703
3.66611
2.56717
1.40593
0.657474
-19.0905
-33.0776
-35.8447
-25.3824
-19.4134
-15.876
-13.0387
-9.60455
-5.18016
-1.22565
-1.91921
-6.0529
-8.84516
-1.9327
10.416
20.151
22.409
20.4642
17.6744
15.3737
12.8033
10.8346
8.9422
6.99504
5.1288
1.78627
-0.490498
2.73191
9.50373
7.26152
5.26963
3.66501
2.56634
1.40529
0.657227
-19.0065
-32.9153
-35.4234
-25.2772
-19.5037
-16.0429
-13.201
-9.71762
-5.21887
-1.21334
-1.91256
-6.08625
-8.87033
-1.95762
10.3542
20.0547
22.3257
20.4088
17.6413
15.3545
12.7934
10.8253
8.93463
6.99218
5.1355
1.80584
-0.481341
2.75768
9.51306
7.2621
5.26888
3.66383
2.56547
1.40461
0.656971
-18.9199
-32.774
-34.967
-25.1511
-19.605
-16.2129
-13.3581
-9.82091
-5.24562
-1.19067
-1.90003
-6.11371
-8.88926
-1.97938
10.2924
19.9559
22.2405
20.3523
17.607
15.3339
12.7825
10.8153
8.92672
6.98947
5.1427
1.82546
-0.471586
2.78589
9.52303
7.2627
5.26803
3.66256
2.56455
1.40389
0.656706
-18.8374
-32.6629
-34.4942
-25.0163
-19.7191
-16.377
-13.4986
-9.90509
-5.25489
-1.15584
-1.8806
-6.13253
-8.89943
-1.99598
10.2324
19.8567
22.1545
20.2952
17.5717
15.3118
12.7705
10.8044
8.91843
6.98693
5.15044
1.84507
-0.461312
2.8167
9.53371
7.26336
5.26711
3.6612
2.56359
1.40314
0.656432
-18.766
-32.5921
-34.0247
-24.8935
-19.8469
-16.5257
-13.6122
-9.96258
-5.24338
-1.11014
-1.85591
-6.14014
-8.89823
-2.00471
10.1763
19.7584
22.0686
20.2378
17.5357
15.2882
12.757
10.7925
8.90975
6.98459
5.15877
1.86461
-0.450537
2.85049
9.54518
7.26407
5.26609
3.65976
2.56258
1.40234
0.656151
-18.7112
-32.5755
-33.5803
-24.8083
-19.9877
-16.6508
-13.6909
-9.98767
-5.20926
-1.05521
-1.82694
-6.13658
-8.88564
-2.00538
10.1243
19.6618
21.9835
20.1806
17.4995
15.2632
12.7417
10.7794
8.90064
6.98248
5.16774
1.88403
-0.439364
2.88734
9.55754
7.26487
5.26498
3.65823
2.56154
1.40151
0.655863
-18.6759
-32.6326
-33.1839
-24.7845
-20.1393
-16.7469
-13.7315
-9.97912
-5.15486
-0.996264
-1.79774
-6.12366
-8.8618
-1.9972
10.0766
19.567
21.8991
20.1237
17.4632
15.2369
12.7245
10.765
8.89108
6.98063
5.17742
1.90325
-0.427809
2.92757
9.57085
7.26575
5.26377
3.6566
2.56044
1.40064
0.655567
-18.6597
-32.7874
-32.8537
-24.8364
-20.2976
-16.8126
-13.7353
-9.93944
-5.08556
-0.939464
-1.7727
-6.10612
-8.82896
-1.98182
10.032
19.4734
21.8154
20.0672
17.4272
15.2097
12.7055
10.7493
8.88108
6.97909
5.18789
1.9222
-0.415999
2.97121
9.5852
7.26674
5.26246
3.65487
2.5593
1.39973
0.655264
-18.6588
-33.0642
-32.5987
-24.9662
-20.4578
-16.8503
-13.7079
-9.87575
-5.01091
-0.893502
-1.75822
-6.08849
-8.78832
-1.95967
9.99014
19.3804
21.7318
20.0106
17.3913
15.1821
12.6845
10.7321
8.87066
6.97787
5.19922
1.94075
-0.403941
3.01859
9.60067
7.26784
5.26104
3.65304
2.55811
1.39877
0.654953
-18.6664
-33.4756
-32.4189
-25.1657
-20.6146
-16.8648
-13.657
-9.79785
-4.94228
-0.865899
-1.75863
-6.07444
-8.74183
-1.9329
9.9494
19.287
21.6476
19.9536
17.3556
15.1541
12.6621
10.7136
8.85987
6.97702
5.21147
1.95875
-0.39173
3.06979
9.61735
7.26907
5.2595
3.65108
2.55687
1.39776
0.654634
-18.6746
-34.004
-32.3072
-25.4203
-20.7636
-16.8615
-13.5911
-9.71786
-4.89112
-0.861782
-1.77567
-6.06428
-8.68946
-1.902
9.90876
19.192
21.5619
19.8957
17.3198
15.1263
12.6384
10.6939
8.84872
6.9765
5.22468
1.97608
-0.379219
3.12523
9.63531
7.27043
5.25782
3.649
2.55556
1.39669
0.654305
-18.6757
-34.5794
-32.2524
-25.7122
-20.9004
-16.8448
-13.5179
-9.64853
-4.86391
-0.880403
-1.80639
-6.05642
-8.63187
-1.86973
9.86535
19.0938
21.4741
19.8371
17.2844
15.0988
12.614
10.6732
8.83716
6.97622
5.2389
1.99275
-0.366465
3.1845
9.65443
7.27191
5.25601
3.64678
2.55419
1.39556
0.653965
-18.6621
-35.0615
-32.2395
-26.0215
-21.0197
-16.8167
-13.4457
-9.60054
-4.85934
-0.91624
-1.84507
-6.04705
-8.56977
-1.8392
9.81653
18.9918
21.385
19.7788
17.2498
15.072
12.589
10.6514
8.82495
6.97608
5.25444
2.00907
-0.354082
3.24593
9.67401
7.2734
5.25406
3.6444
2.55274
1.39435
0.653609
-18.6261
-35.2509
-32.249
-26.3282
-21.1152
-16.7782
-13.3856
-9.57599
-4.86895
-0.95959
-1.88321
-6.03404
-8.50962
-1.81836
9.75927
18.888
21.2975
19.7228
17.2167
15.0453
12.5625
10.6278
8.81187
6.97631
5.27204
2.02517
-0.343795
3.30738
9.6937
7.27494
5.252
3.64186
2.5512
1.39306
0.653232
-18.5868
-34.9785
-32.2669
-26.6229
-21.1864
-16.7352
-13.347
-9.56786
-4.88447
-1.00339
-1.91757
-6.02079
-8.45997
-1.81066
9.69789
18.7891
21.2164
19.6709
17.1842
15.0157
12.5313
10.601
8.79809
6.97799
5.29251
2.03791
-0.332859
3.38461
9.72062
7.27732
5.24953
3.63901
2.54957
1.39169
0.652857
8.41641
8.70557
9.5327
10.8161
12.4774
14.5736
17.1969
20.4588
24.6145
29.6781
35.9524
43.6224
53.1983
64.6931
79.5232
96.9685
121.264
147.272
186.991
210.976
258.603
100.965
8.41622
8.70536
9.53241
10.8157
12.4767
14.5727
17.1953
20.4735
24.6359
29.6879
35.9459
43.6073
53.1666
64.6482
79.4481
96.8392
121.032
146.821
186.129
209.405
254.757
98.0627
8.41602
8.70513
9.5321
10.8152
12.4761
14.5716
17.1937
20.4919
24.654
29.6946
35.9383
43.592
53.1362
64.6008
79.3711
96.7059
120.791
146.351
185.244
207.774
250.753
99.7618
8.41581
8.70489
9.53177
10.8148
12.4754
14.5705
17.192
20.5104
24.6685
29.6986
35.9301
43.5762
53.1043
64.5541
79.2928
96.5676
120.54
145.862
184.335
206.075
246.636
99.6698
8.41559
8.70464
9.53143
10.8143
12.4746
14.5693
17.1902
20.5264
24.6799
29.7004
35.9216
43.5603
53.074
64.5052
79.2118
96.4237
120.278
145.352
183.396
204.308
242.396
97.894
8.41536
8.70437
9.53107
10.8137
12.4738
14.5681
17.1883
20.5369
24.6884
29.7006
35.9133
43.5443
53.0424
64.4569
79.129
96.2736
120.002
144.819
182.421
202.474
238.028
95.862
8.41511
8.70409
9.53069
10.8132
12.473
14.5668
17.1863
20.5399
24.6942
29.6994
35.9055
43.5284
53.0123
64.4064
79.0432
96.1168
119.71
144.264
181.405
200.576
233.537
93.9696
8.41485
8.70379
9.53029
10.8126
12.4721
14.5654
17.1841
20.5359
24.6975
29.6971
35.8981
43.5126
52.9812
64.3563
78.9552
95.9531
119.403
143.683
180.342
198.615
228.929
92.0546
8.41458
8.70348
9.52986
10.8119
12.4712
14.564
17.1819
20.5263
24.6983
29.694
35.8914
43.497
52.9514
64.3038
78.8637
95.7819
119.078
143.077
179.227
196.589
224.206
90.0192
8.41429
8.70315
9.52942
10.8113
12.4702
14.5624
17.1795
20.5131
24.6966
29.6899
35.8852
43.4816
52.9206
64.2516
78.7697
95.603
118.735
142.444
178.053
194.5
219.375
87.8874
8.41399
8.7028
9.52894
10.8106
12.4692
14.5608
17.177
20.4973
24.6923
29.6851
35.8794
43.4665
52.8909
64.1969
78.6717
95.4161
118.372
141.781
176.815
192.346
214.439
85.6944
8.41367
8.70243
9.52844
10.8098
12.4681
14.5591
17.1744
20.4797
24.6851
29.6794
35.8739
43.4516
52.8599
64.142
78.5706
95.221
117.989
141.088
175.509
190.126
209.404
83.4511
8.41333
8.70204
9.52791
10.809
12.4669
14.5573
17.1716
20.4612
24.6746
29.6726
35.8686
43.4369
52.8299
64.0844
78.465
95.0172
117.586
140.363
174.131
187.84
204.274
81.1617
8.41297
8.70163
9.52735
10.8082
12.4657
14.5553
17.1686
20.4426
24.6603
29.6643
35.863
43.4222
52.7984
64.0262
78.3556
94.8044
117.162
139.604
172.678
185.486
199.055
78.8349
8.41259
8.7012
9.52676
10.8073
12.4644
14.5533
17.1654
20.4249
24.6418
29.6541
35.8569
43.4077
52.7675
63.9648
78.2411
94.5821
116.716
138.811
171.146
183.062
193.752
76.4832
8.41218
8.70074
9.52613
10.8064
12.4631
14.5511
17.1621
20.4088
24.6187
29.6414
35.8498
43.393
52.7349
63.9024
78.1221
94.3499
116.249
137.98
169.535
180.567
188.369
74.1197
8.41176
8.70025
9.52547
10.8054
12.4616
14.5488
17.1585
20.3945
24.5909
29.6254
35.8409
43.3781
52.7028
63.8362
77.997
94.107
115.759
137.112
167.842
178
182.911
71.7585
8.41131
8.69973
9.52476
10.8044
12.4601
14.5464
17.1547
20.3824
24.5587
29.6052
35.8294
43.3626
52.6687
63.7683
77.8665
93.8529
115.245
136.204
166.067
175.359
177.382
69.4136
8.41083
8.69918
9.52402
10.8033
12.4585
14.5438
17.1507
20.372
24.5229
29.58
35.8142
43.3462
52.6348
63.6962
77.7289
93.5867
114.707
135.255
164.209
172.642
171.786
67.0978
8.41032
8.6986
9.52323
10.8021
12.4568
14.541
17.1465
20.3631
24.4851
29.5489
35.7938
43.3279
52.5986
63.6217
77.5849
93.3077
114.143
134.263
162.267
169.849
166.127
64.8216
8.40979
8.69799
9.52239
10.8009
12.4549
14.5381
17.142
20.3551
24.447
29.5115
35.7664
43.3069
52.5621
63.5423
77.4326
93.015
113.551
133.227
160.241
166.977
160.41
62.592
8.40922
8.69733
9.5215
10.7996
12.453
14.535
17.1372
20.3474
24.4104
29.4679
35.7301
43.2814
52.5227
63.46
77.2725
92.7077
112.93
132.146
158.13
164.026
154.64
60.4118
8.40861
8.69664
9.52056
10.7982
12.451
14.5318
17.1321
20.3396
24.3769
29.419
35.6828
43.2489
52.4815
63.3722
77.1029
92.3848
112.279
131.016
155.933
160.994
148.824
58.2789
8.40797
8.69591
9.51956
10.7967
12.4488
14.5283
17.1267
20.3316
24.3474
29.3665
35.6232
43.2063
52.435
63.2806
76.9242
92.0455
111.595
129.836
153.651
157.879
142.967
56.1863
8.40729
8.69512
9.5185
10.7951
12.4465
14.5246
17.1209
20.323
24.3218
29.3127
35.551
43.1492
52.3826
63.1823
76.7345
91.6886
110.878
128.605
151.281
154.679
137.08
54.1217
8.40656
8.69429
9.51737
10.7935
12.444
14.5207
17.1148
20.314
24.2993
29.26
35.4678
43.0729
52.318
63.0786
76.5343
91.3133
110.126
127.319
148.824
151.394
131.171
52.0684
8.40579
8.69341
9.51617
10.7917
12.4414
14.5166
17.1083
20.3043
24.2789
29.2099
35.3767
42.9738
52.237
62.9648
76.3214
90.9185
109.337
125.978
146.279
148.021
125.251
50.0063
8.40497
8.69248
9.51489
10.7898
12.4386
14.5121
17.1013
20.2939
24.2595
29.1635
35.282
42.8504
52.1289
62.8392
76.0954
90.5031
108.51
124.579
143.646
144.559
119.333
47.9125
8.4041
8.69148
9.51354
10.7878
12.4357
14.5075
17.094
20.2829
24.2402
29.1208
35.1881
42.7053
51.9859
62.6929
75.8527
90.0659
107.644
123.121
140.924
141.006
113.428
45.7633
8.40317
8.69042
9.51209
10.7857
12.4325
14.5025
17.0862
20.2711
24.2206
29.0809
35.0985
42.5453
51.7989
62.5173
75.5897
89.6053
106.738
121.6
138.114
137.361
107.551
43.5349
8.40218
8.68929
9.51056
10.7834
12.4292
14.4972
17.0778
20.2585
24.2001
29.0428
35.0149
42.3795
51.568
62.2966
75.2972
89.1181
105.79
120.017
135.215
133.624
101.717
41.2054
8.40113
8.68809
9.50893
10.781
12.4256
14.4916
17.069
20.2451
24.1785
29.0051
34.9371
42.2166
51.2997
62.0186
74.9634
88.5997
104.799
118.369
132.229
129.793
95.9391
38.7556
8.40001
8.68681
9.50719
10.7785
12.4218
14.4856
17.0596
20.2308
24.1556
28.9667
34.8638
42.0623
51.0105
61.6742
74.5694
88.0416
103.763
116.655
129.156
125.869
90.2324
36.1705
8.39882
8.68544
9.50533
10.7757
12.4178
14.4792
17.0496
20.2156
24.1313
28.927
34.7927
41.9185
50.7179
61.2688
74.0969
87.4308
102.677
114.873
125.998
121.853
84.6109
33.4399
8.39754
8.68399
9.50336
10.7728
12.4135
14.4725
17.039
20.1994
24.1053
28.8853
34.7217
41.7838
50.4369
60.8195
73.532
86.7496
101.534
113.022
122.757
117.747
79.0884
30.5591
8.39619
8.68244
9.50125
10.7697
12.4089
14.4653
17.0277
20.1821
24.0777
28.8412
34.6488
41.6545
50.1742
60.3535
72.8772
85.9788
100.324
111.1
119.435
113.556
73.6777
27.5298
8.39474
8.68079
9.49901
10.7664
12.404
14.4576
17.0157
20.1637
24.0483
28.7944
34.5728
41.5264
49.9294
59.8949
72.153
85.104
99.0326
109.106
116.036
109.283
68.391
24.36
8.39319
8.67903
9.49661
10.7629
12.3988
14.4494
17.0028
20.1441
24.0171
28.7446
34.4927
41.3957
49.6961
59.4585
71.3946
84.1249
97.646
107.037
112.568
104.936
63.2399
21.0634
8.39154
8.67714
9.49406
10.7591
12.3932
14.4407
16.9892
20.1232
23.9838
28.6917
34.408
41.2597
49.4664
59.0457
70.6369
83.0592
96.1548
104.894
109.041
100.525
58.2359
17.6597
8.38978
8.67514
9.49133
10.7551
12.3872
14.4314
16.9747
20.1009
23.9483
28.6355
34.3182
41.1168
49.2328
58.6484
69.9027
81.9395
94.5604
102.678
105.471
96.0623
53.391
14.1735
8.38789
8.67299
9.48842
10.7509
12.3809
14.4215
16.9592
20.0772
23.9105
28.5757
34.2228
40.9657
48.99
58.2537
69.1957
80.8003
92.8778
100.395
101.881
91.5673
48.7185
10.6338
8.38588
8.6707
9.48531
10.7463
12.3741
14.4109
16.9427
20.0518
23.8703
28.512
34.1215
40.8058
48.7349
57.8501
68.5044
79.6649
91.1318
98.0543
98.2999
87.0654
44.234
7.07311
8.38373
8.66825
9.48199
10.7414
12.3669
14.3996
16.9251
20.0248
23.8275
28.4443
34.0139
40.6363
48.4655
57.429
67.8103
78.5388
89.3481
95.6675
94.7593
82.5897
39.9556
3.52735
8.38143
8.66563
9.47845
10.7362
12.3591
14.3876
16.9063
19.996
23.7819
28.3722
33.8996
40.4565
48.1809
56.9858
67.096
77.411
87.5443
93.2405
91.2877
78.18
35.9042
0.0352094
8.37897
8.66284
9.47465
10.7307
12.3508
14.3748
16.8863
19.9652
23.7332
28.2955
33.7781
40.2658
47.88
56.5182
66.3496
76.2623
85.7253
90.7706
87.8982
73.8782
32.1018
-3.36244
8.37634
8.65984
9.4706
10.7247
12.342
14.3611
16.8649
19.9323
23.6814
28.2139
33.649
40.0635
47.5617
56.0251
65.565
75.0739
83.8833
88.2493
84.5792
69.7206
28.5687
-6.62366
8.37352
8.65664
9.46627
10.7184
12.3325
14.3464
16.8421
19.8973
23.6262
28.127
33.5119
39.8489
47.225
55.5049
64.7407
73.8331
82.0019
85.6692
81.2925
65.7253
25.319
-9.70718
8.37051
8.65322
9.46163
10.7116
12.3224
14.3308
16.8178
19.8599
23.5674
28.0345
33.3663
39.6214
46.8688
54.9563
63.8763
72.5346
80.0631
83.0272
77.9885
61.8813
22.354
-12.5752
8.36728
8.64955
9.45667
10.7043
12.3115
14.3141
16.7918
19.8199
23.5046
27.936
33.2115
39.3802
46.4924
54.3779
62.9712
71.1786
78.0554
80.321
74.6296
58.1465
19.6546
-15.197
8.36383
8.64563
9.45136
10.6965
12.2999
14.2962
16.7641
19.7773
23.4378
27.8313
33.0472
39.1246
46.0946
53.7686