/*--------------------------------*- C++ -*----------------------------------*\
| =========                 |                                                 |
| \\      /  F ield         | OpenFOAM: The Open Source CFD Toolbox           |
|  \\    /   O peration     | Version:  v1912                                 |
|   \\  /    A nd           | Website:  www.openfoam.com                      |
|    \\/     M anipulation  |                                                 |
\*---------------------------------------------------------------------------*/
FoamFile
{
    version     2.0;
    format      ascii;
    class       volVectorField;
    location    "220";
    object      U;
}
// * * * * * * * * * * * * * * * * * * * * * * * * * * * * * * * * * * * * * //

dimensions      [0 1 -1 0 0 0 0];


internalField   nonuniform List<vector> 
12441
(
(29.9988 1.6236e-05 0)
(29.986 4.93578e-05 0)
(29.958 8.65446e-05 0)
(29.9151 0.000133496 0)
(29.8588 0.00019472 0)
(29.787 0.000277776 0)
(29.6971 0.000390128 0)
(29.5844 0.000550955 0)
(29.4433 0.000766286 0)
(29.2699 0.00108269 0)
(29.0519 0.00151597 0)
(28.7543 0.00211567 0)
(28.4627 0.00313655 0)
(27.9684 0.00437509 0)
(27.4291 0.0062197 0)
(26.6413 0.0111229 0)
(25.6147 0.0146831 0)
(23.9994 0.0305144 0)
(21.7226 0.0517142 0)
(18.1043 0.0905988 0)
(12.328 0.123269 0)
(5.93563 0.200287 0)
(29.9988 4.82342e-05 0)
(29.986 0.000147233 0)
(29.958 0.000257686 0)
(29.9151 0.000397752 0)
(29.8589 0.000581453 0)
(29.787 0.0008289 0)
(29.6972 0.00116684 0)
(29.5845 0.00164692 0)
(29.4431 0.00228758 0)
(29.2702 0.00323711 0)
(29.0537 0.00454071 0)
(28.7505 0.00632742 0)
(28.4633 0.00942423 0)
(27.9707 0.0130891 0)
(27.4333 0.0186885 0)
(26.6472 0.0332589 0)
(25.616 0.0466329 0)
(23.9975 0.0873909 0)
(21.7204 0.134936 0)
(18.1007 0.262146 0)
(12.3278 0.362162 0)
(5.93842 0.598009 0)
(29.9988 8.00988e-05 0)
(29.986 0.000244906 0)
(29.958 0.000427981 0)
(29.9151 0.000661197 0)
(29.8589 0.000966777 0)
(29.787 0.00137898 0)
(29.6972 0.00194139 0)
(29.5845 0.00274115 0)
(29.4431 0.00380958 0)
(29.2703 0.00539111 0)
(29.0537 0.00754074 0)
(28.7502 0.0105848 0)
(28.4676 0.0156687 0)
(27.9659 0.0218203 0)
(27.43 0.0311704 0)
(26.6432 0.0545341 0)
(25.6151 0.0794374 0)
(24.0011 0.142502 0)
(21.7223 0.215671 0)
(18.0991 0.431351 0)
(12.3322 0.59759 0)
(5.94553 0.993682 0)
(29.9988 0.000112359 0)
(29.986 0.000343296 0)
(29.958 0.000599166 0)
(29.9151 0.000925971 0)
(29.8589 0.00135372 0)
(29.7871 0.00193081 0)
(29.6972 0.00271874 0)
(29.5845 0.00383882 0)
(29.4432 0.00533477 0)
(29.2703 0.00754969 0)
(29.0537 0.0105517 0)
(28.7506 0.0148442 0)
(28.4628 0.0219295 0)
(27.9719 0.0305704 0)
(27.4333 0.0436796 0)
(26.6476 0.0758942 0)
(25.619 0.111465 0)
(24.0063 0.200627 0)
(21.73 0.321152 0)
(18.1026 0.608556 0)
(12.3433 0.836992 0)
(5.95749 1.391 0)
(29.9988 0.000144681 0)
(29.986 0.000441596 0)
(29.958 0.000770189 0)
(29.9151 0.0011905 0)
(29.8589 0.00174024 0)
(29.787 0.00248213 0)
(29.6972 0.00349557 0)
(29.5845 0.00493577 0)
(29.4432 0.00685917 0)
(29.2703 0.00970707 0)
(29.0537 0.0135619 0)
(28.7506 0.0190969 0)
(28.4686 0.0282034 0)
(27.9673 0.039297 0)
(27.432 0.0562221 0)
(26.6453 0.0970002 0)
(25.6199 0.142992 0)
(24.0101 0.259504 0)
(21.7406 0.409408 0)
(18.1122 0.781948 0)
(12.3622 1.07615 0)
(5.97457 1.78959 0)
(29.9988 0.000177001 0)
(29.986 0.000539836 0)
(29.958 0.000941175 0)
(29.9151 0.00145499 0)
(29.8589 0.00212673 0)
(29.7871 0.00303355 0)
(29.6973 0.00427254 0)
(29.5846 0.00603285 0)
(29.4433 0.00838374 0)
(29.2703 0.0118646 0)
(29.0538 0.0165742 0)
(28.7512 0.0233519 0)
(28.4618 0.0344567 0)
(27.9737 0.0480379 0)
(27.4343 0.0687708 0)
(26.6491 0.118017 0)
(25.6242 0.174255 0)
(24.0152 0.317813 0)
(21.7534 0.496106 0)
(18.1282 0.954051 0)
(12.3903 1.31497 0)
(5.99712 2.18925 0)
(29.9988 0.00020932 0)
(29.986 0.000638054 0)
(29.958 0.00111216 0)
(29.9151 0.0017195 0)
(29.8589 0.0025132 0)
(29.7871 0.00358501 0)
(29.6972 0.00504951 0)
(29.5846 0.00712988 0)
(29.4433 0.00990867 0)
(29.2704 0.0140227 0)
(29.0537 0.0195842 0)
(28.7516 0.0276037 0)
(28.4692 0.0407381 0)
(27.9676 0.0567316 0)
(27.4335 0.0813214 0)
(26.6476 0.138857 0)
(25.626 0.204833 0)
(24.019 0.373707 0)
(21.7694 0.584992 0)
(18.1528 1.12628 0)
(12.4297 1.55386 0)
(6.02559 2.59029 0)
(29.9988 0.000241638 0)
(29.986 0.000736244 0)
(29.958 0.00128311 0)
(29.9151 0.00198397 0)
(29.859 0.00289958 0)
(29.7871 0.00413642 0)
(29.6973 0.00582642 0)
(29.5847 0.00822692 0)
(29.4434 0.0114336 0)
(29.2704 0.0161799 0)
(29.054 0.0225957 0)
(28.752 0.0318598 0)
(28.4601 0.0469838 0)
(27.975 0.0654348 0)
(27.4363 0.0937249 0)
(26.6515 0.159391 0)
(25.6321 0.236977 0)
(24.0251 0.431697 0)
(21.7943 0.675068 0)
(18.1902 1.29802 0)
(12.4827 1.79299 0)
(6.06051 2.99314 0)
(29.9988 0.000273956 0)
(29.986 0.000834411 0)
(29.958 0.00145406 0)
(29.9151 0.00224845 0)
(29.8589 0.00328593 0)
(29.7871 0.00468784 0)
(29.6973 0.00660334 0)
(29.5846 0.00932393 0)
(29.4434 0.0129588 0)
(29.2704 0.0183382 0)
(29.0538 0.0256041 0)
(28.7527 0.0361136 0)
(28.4706 0.0532692 0)
(27.9694 0.0742159 0)
(27.4329 0.106238 0)
(26.6498 0.180313 0)
(25.6363 0.267648 0)
(24.0307 0.489268 0)
(21.8331 0.76487 0)
(18.2456 1.46885 0)
(12.5522 2.03257 0)
(6.10247 3.3983 0)
(29.9988 0.000306273 0)
(29.986 0.000932549 0)
(29.958 0.00162498 0)
(29.9152 0.00251288 0)
(29.859 0.0036722 0)
(29.7872 0.00523921 0)
(29.6974 0.00738022 0)
(29.5848 0.0104209 0)
(29.4435 0.014484 0)
(29.2705 0.0204951 0)
(29.0543 0.0286121 0)
(28.7533 0.0403759 0)
(28.4568 0.0595164 0)
(27.9752 0.0828476 0)
(27.4318 0.119358 0)
(26.6489 0.201565 0)
(25.6408 0.298754 0)
(24.0396 0.545052 0)
(21.887 0.854267 0)
(18.3205 1.63885 0)
(12.6401 2.27284 0)
(6.15206 3.80629 0)
(29.9988 0.00033859 0)
(29.986 0.00103067 0)
(29.958 0.0017959 0)
(29.9151 0.00277732 0)
(29.859 0.00405842 0)
(29.7871 0.00579059 0)
(29.6973 0.00815708 0)
(29.5847 0.0115179 0)
(29.4435 0.0160092 0)
(29.2705 0.0226523 0)
(29.054 0.0316172 0)
(28.7542 0.0446459 0)
(28.4687 0.0658113 0)
(27.9798 0.091525 0)
(27.4312 0.131833 0)
(26.6437 0.221731 0)
(25.6444 0.330947 0)
(24.0551 0.600278 0)
(21.9486 0.94335 0)
(18.4107 1.80786 0)
(12.7464 2.51403 0)
(6.2098 4.21768 0)
(29.9988 0.000370905 0)
(29.986 0.00112875 0)
(29.958 0.0019668 0)
(29.9152 0.00304172 0)
(29.859 0.00444457 0)
(29.7872 0.00634192 0)
(29.6975 0.00893387 0)
(29.5848 0.0126148 0)
(29.4436 0.0175348 0)
(29.2705 0.0248079 0)
(29.0547 0.0346205 0)
(28.7557 0.0489305 0)
(28.4518 0.0719528 0)
(27.9868 0.100532 0)
(27.4294 0.145228 0)
(26.6375 0.242318 0)
(25.6479 0.363213 0)
(24.0756 0.654107 0)
(22.0078 1.03149 0)
(18.5082 1.9754 0)
(12.8697 2.75618 0)
(6.27608 4.63305 0)
(29.9988 0.000403217 0)
(29.986 0.00122682 0)
(29.958 0.00213771 0)
(29.9152 0.00330613 0)
(29.859 0.00483069 0)
(29.7872 0.00689325 0)
(29.6974 0.00971064 0)
(29.5848 0.0137118 0)
(29.4436 0.0190602 0)
(29.2706 0.0269613 0)
(29.0551 0.0376154 0)
(28.7567 0.0533285 0)
(28.4551 0.078047 0)
(27.9883 0.109624 0)
(27.4246 0.159046 0)
(26.6317 0.262643 0)
(25.651 0.395159 0)
(24.0953 0.70626 0)
(22.0587 1.1184 0)
(18.6053 2.14104 0)
(13.007 2.99917 0)
(6.35109 5.05292 0)
(29.9988 0.000435526 0)
(29.986 0.00132486 0)
(29.9581 0.00230861 0)
(29.9152 0.00357049 0)
(29.8591 0.00521675 0)
(29.7873 0.00744452 0)
(29.6975 0.0104873 0)
(29.5849 0.0148088 0)
(29.4437 0.0205861 0)
(29.2705 0.0291133 0)
(29.0559 0.0406229 0)
(28.7592 0.0577736 0)
(28.4396 0.0843712 0)
(27.9849 0.118828 0)
(27.4194 0.17257 0)
(26.6279 0.282406 0)
(25.6532 0.426662 0)
(24.1114 0.757041 0)
(22.1006 1.20411 0)
(18.6969 2.30451 0)
(13.1548 3.24273 0)
(6.43477 5.47777 0)
(29.9988 0.000467832 0)
(29.986 0.00142288 0)
(29.958 0.00247952 0)
(29.9152 0.00383486 0)
(29.859 0.00560279 0)
(29.7872 0.00799577 0)
(29.6974 0.011264 0)
(29.5849 0.0159057 0)
(29.4437 0.022113 0)
(29.2705 0.0312578 0)
(29.0566 0.0436415 0)
(28.7627 0.0621788 0)
(28.4369 0.090602 0)
(27.9809 0.127827 0)
(27.4154 0.185992 0)
(26.6254 0.301939 0)
(25.6544 0.457921 0)
(24.1233 0.806877 0)
(22.1347 1.28875 0)
(18.7809 2.46562 0)
(13.3096 3.48651 0)
(6.52688 5.90798 0)
(29.9988 0.000500134 0)
(29.986 0.00152087 0)
(29.9581 0.00265043 0)
(29.9152 0.00409919 0)
(29.8591 0.00598876 0)
(29.7873 0.00854696 0)
(29.6976 0.0120405 0)
(29.5851 0.0170028 0)
(29.4438 0.0236404 0)
(29.2702 0.0334042 0)
(29.0568 0.046654 0)
(28.7673 0.0667003 0)
(28.4315 0.0968037 0)
(27.9781 0.136735 0)
(27.4124 0.199321 0)
(26.6237 0.32141 0)
(25.6547 0.489064 0)
(24.1318 0.8561 0)
(22.1632 1.37242 0)
(18.8568 2.62429 0)
(13.4688 3.73016 0)
(6.62702 6.34388 0)
(29.9988 0.000532432 0)
(29.986 0.00161885 0)
(29.958 0.00282135 0)
(29.9152 0.00436352 0)
(29.859 0.00637472 0)
(29.7873 0.00909813 0)
(29.6975 0.0128169 0)
(29.585 0.0180998 0)
(29.4438 0.0251699 0)
(29.2701 0.0355438 0)
(29.0577 0.0497254 0)
(28.7715 0.0712677 0)
(28.429 0.103018 0)
(27.9758 0.145613 0)
(27.4102 0.212653 0)
(26.6226 0.340858 0)
(25.6544 0.520133 0)
(24.1378 0.904891 0)
(22.1879 1.45521 0)
(18.9255 2.78043 0)
(13.6305 3.97334 0)
(6.73473 6.78572 0)
(29.9988 0.000564725 0)
(29.986 0.00171679 0)
(29.9581 0.00299228 0)
(29.9152 0.00462782 0)
(29.8591 0.00676064 0)
(29.7874 0.00964922 0)
(29.6977 0.0135933 0)
(29.5852 0.0191965 0)
(29.444 0.0267016 0)
(29.2697 0.0376747 0)
(29.0582 0.0528149 0)
(28.7728 0.0758413 0)
(28.4262 0.109174 0)
(27.9743 0.154497 0)
(27.4086 0.225992 0)
(26.6219 0.360304 0)
(25.6536 0.551152 0)
(24.1422 0.953357 0)
(22.2102 1.53715 0)
(18.9882 2.934 0)
(13.7935 4.21575 0)
(6.84954 7.23372 0)
(29.9988 0.000597014 0)
(29.986 0.00181472 0)
(29.958 0.00316322 0)
(29.9152 0.00489211 0)
(29.859 0.00714652 0)
(29.7873 0.0102003 0)
(29.6976 0.0143695 0)
(29.5851 0.0202933 0)
(29.444 0.0282336 0)
(29.2698 0.0398143 0)
(29.0592 0.0559 0)
(28.7723 0.0802906 0)
(28.4246 0.115369 0)
(27.9731 0.16338 0)
(27.4073 0.239343 0)
(26.6214 0.379747 0)
(25.6527 0.582133 0)
(24.1456 1.00155 0)
(22.2313 1.6183 0)
(19.0461 3.08495 0)
(13.9571 4.45712 0)
(6.971 7.68807 0)
(29.9988 0.000629297 0)
(29.986 0.00191262 0)
(29.9581 0.00333417 0)
(29.9152 0.00515637 0)
(29.8592 0.00753236 0)
(29.7874 0.0107513 0)
(29.6977 0.0151456 0)
(29.5853 0.0213898 0)
(29.4442 0.0297677 0)
(29.2697 0.0419585 0)
(29.0589 0.0590579 0)
(28.7711 0.084636 0)
(28.4232 0.121553 0)
(27.9722 0.172284 0)
(27.4063 0.252695 0)
(26.6212 0.399195 0)
(25.6518 0.613088 0)
(24.1486 1.0495 0)
(22.2523 1.69866 0)
(19.1005 3.23328 0)
(14.1213 4.6972 0)
(7.09875 8.14892 0)
(29.9988 0.000661576 0)
(29.986 0.00201051 0)
(29.958 0.00350513 0)
(29.9152 0.00542062 0)
(29.8591 0.00791818 0)
(29.7874 0.0113023 0)
(29.6976 0.0159217 0)
(29.5852 0.0224856 0)
(29.4442 0.0313016 0)
(29.2703 0.0441165 0)
(29.0577 0.0622429 0)
(28.7698 0.0889586 0)
(28.4223 0.127766 0)
(27.9714 0.18119 0)
(27.4056 0.266046 0)
(26.6213 0.418647 0)
(25.651 0.644025 0)
(24.1517 1.0972 0)
(22.2738 1.77826 0)
(19.1527 3.37898 0)
(14.2866 4.9358 0)
(7.23251 8.61645 0)
(29.9988 0.000693847 0)
(29.986 0.00210836 0)
(29.9581 0.00367611 0)
(29.9152 0.00568484 0)
(29.8592 0.00830396 0)
(29.7875 0.0118532 0)
(29.6978 0.0166976 0)
(29.5854 0.0235818 0)
(29.4444 0.0328304 0)
(29.2708 0.0463327 0)
(29.0551 0.0653927 0)
(28.7687 0.0932748 0)
(28.4216 0.133977 0)
(27.9709 0.190108 0)
(27.4051 0.279392 0)
(26.6215 0.438106 0)
(25.6507 0.674953 0)
(24.1554 1.14462 0)
(22.2962 1.85711 0)
(19.2038 3.52203 0)
(14.4535 5.17275 0)
(7.37207 9.09083 0)
(29.9988 0.000726115 0)
(29.986 0.0022062 0)
(29.958 0.00384709 0)
(29.9152 0.00594905 0)
(29.8591 0.00868969 0)
(29.7874 0.0124042 0)
(29.6977 0.0174733 0)
(29.5854 0.0246777 0)
(29.4444 0.0343568 0)
(29.2715 0.0485931 0)
(29.0528 0.0685318 0)
(28.7679 0.097607 0)
(28.4211 0.140202 0)
(27.9705 0.199023 0)
(27.4048 0.292733 0)
(26.6221 0.45757 0)
(25.6511 0.705872 0)
(24.1598 1.19171 0)
(22.32 1.9352 0)
(19.2546 3.66245 0)
(14.6228 5.40791 0)
(7.51733 9.57224 0)
(29.9988 0.000758375 0)
(29.986 0.00230401 0)
(29.9581 0.00401809 0)
(29.9153 0.00621322 0)
(29.8592 0.00907537 0)
(29.7875 0.012955 0)
(29.6979 0.0182488 0)
(29.5856 0.0257737 0)
(29.4445 0.0358793 0)
(29.2718 0.0508823 0)
(29.051 0.0715946 0)
(28.7673 0.10195 0)
(28.4207 0.146424 0)
(27.9702 0.207941 0)
(27.4047 0.306068 0)
(26.6231 0.477035 0)
(25.6523 0.736768 0)
(24.1652 1.23844 0)
(22.3452 2.01256 0)
(19.3059 3.80019 0)
(14.7957 5.64117 0)
(7.66828 10.0609 0)
(29.9988 0.00079063 0)
(29.986 0.0024018 0)
(29.958 0.0041891 0)
(29.9152 0.0064774 0)
(29.8591 0.00946103 0)
(29.7875 0.0135059 0)
(29.6978 0.0190239 0)
(29.5856 0.0268698 0)
(29.4446 0.037398 0)
(29.2722 0.0531555 0)
(29.0498 0.0745999 0)
(28.7669 0.106301 0)
(28.4204 0.152652 0)
(27.97 0.216856 0)
(27.4048 0.319395 0)
(26.6244 0.496494 0)
(25.6545 0.767615 0)
(24.1716 1.2848 0)
(22.3717 2.08919 0)
(19.3584 3.93523 0)
(14.9733 5.87241 0)
(7.825 10.557 0)
(29.9988 0.000822877 0)
(29.986 0.00249957 0)
(29.9581 0.00436013 0)
(29.9153 0.00674152 0)
(29.8592 0.00984666 0)
(29.7876 0.0140567 0)
(29.698 0.0197993 0)
(29.5858 0.0279644 0)
(29.4449 0.0389315 0)
(29.272 0.0554112 0)
(29.0489 0.0775805 0)
(28.7666 0.110655 0)
(28.4202 0.158877 0)
(27.97 0.22577 0)
(27.4052 0.33271 0)
(26.6262 0.515934 0)
(25.6577 0.798386 0)
(24.1792 1.33079 0)
(22.3996 2.16508 0)
(19.4125 4.06749 0)
(15.1568 6.10155 0)
(7.98765 11.0608 0)
(29.9988 0.000855121 0)
(29.986 0.00259731 0)
(29.958 0.00453116 0)
(29.9152 0.00700564 0)
(29.8591 0.0102322 0)
(29.7875 0.0146074 0)
(29.6978 0.0205745 0)
(29.5857 0.0290602 0)
(29.4451 0.0404722 0)
(29.2717 0.0577716 0)
(29.0483 0.0805718 0)
(28.7664 0.115011 0)
(28.4201 0.165103 0)
(27.97 0.23468 0)
(27.4058 0.346007 0)
(26.6284 0.53534 0)
(25.6621 0.829062 0)
(24.188 1.37641 0)
(22.4288 2.24023 0)
(19.4686 4.19688 0)
(15.3474 6.32852 0)
(8.15645 11.5725 0)
(29.9988 0.000887355 0)
(29.9861 0.00269503 0)
(29.9581 0.00470221 0)
(29.9153 0.00726971 0)
(29.8593 0.0106178 0)
(29.7877 0.015158 0)
(29.6981 0.0213494 0)
(29.5858 0.0301551 0)
(29.4455 0.0420213 0)
(29.2711 0.0600935 0)
(29.0479 0.0835906 0)
(28.7663 0.119366 0)
(28.4201 0.171327 0)
(27.9702 0.243583 0)
(27.4067 0.359283 0)
(26.6312 0.554699 0)
(25.6674 0.859639 0)
(24.198 1.42167 0)
(22.4591 2.31462 0)
(19.5269 4.32328 0)
(15.5463 6.55324 0)
(8.33171 12.0926 0)
(29.9988 0.000919586 0)
(29.9861 0.00279273 0)
(29.958 0.00487326 0)
(29.9153 0.00753377 0)
(29.8592 0.0110033 0)
(29.7876 0.0157085 0)
(29.698 0.0221248 0)
(29.5857 0.0312456 0)
(29.4458 0.0436232 0)
(29.2706 0.0622738 0)
(29.0477 0.0866389 0)
(28.7663 0.123722 0)
(28.4201 0.177549 0)
(27.9705 0.252479 0)
(27.4078 0.372529 0)
(26.6344 0.573999 0)
(25.6736 0.890112 0)
(24.2092 1.46656 0)
(22.4904 2.38825 0)
(19.5874 4.44654 0)
(15.7544 6.77562 0)
(8.51375 12.6213 0)
(29.9988 0.000951807 0)
(29.9861 0.0028904 0)
(29.9581 0.00504433 0)
(29.9153 0.00779777 0)
(29.8593 0.0113888 0)
(29.7877 0.0162589 0)
(29.6982 0.0229001 0)
(29.5859 0.0323355 0)
(29.4462 0.0452458 0)
(29.2701 0.0644292 0)
(29.0475 0.0897095 0)
(28.7663 0.128077 0)
(28.4201 0.183768 0)
(27.9709 0.261363 0)
(27.4092 0.385744 0)
(26.6381 0.593235 0)
(25.6808 0.920478 0)
(24.2217 1.5111 0)
(22.5227 2.46108 0)
(19.6499 4.56649 0)
(15.9726 6.99559 0)
(8.70294 13.1591 0)
(29.9988 0.000984026 0)
(29.9861 0.00298806 0)
(29.9581 0.0052154 0)
(29.9153 0.00806176 0)
(29.8592 0.0117743 0)
(29.7876 0.0168091 0)
(29.6981 0.0236751 0)
(29.5859 0.0334251 0)
(29.4464 0.0468766 0)
(29.2698 0.0665801 0)
(29.0474 0.0927931 0)
(28.7664 0.132431 0)
(28.4202 0.189985 0)
(27.9714 0.270236 0)
(27.4108 0.398922 0)
(26.6421 0.612401 0)
(25.6887 0.950729 0)
(24.2356 1.55528 0)
(22.5561 2.53312 0)
(19.7144 4.68296 0)
(16.2011 7.21306 0)
(8.89964 13.7062 0)
(29.9988 0.00101623 0)
(29.9861 0.00308568 0)
(29.9581 0.00538648 0)
(29.9153 0.0083257 0)
(29.8594 0.0121597 0)
(29.7878 0.0173593 0)
(29.6983 0.0244502 0)
(29.5861 0.0345138 0)
(29.4467 0.048516 0)
(29.2697 0.0687128 0)
(29.0474 0.0958842 0)
(28.7665 0.136784 0)
(28.4204 0.196198 0)
(27.972 0.279093 0)
(27.4127 0.412063 0)
(26.6465 0.631493 0)
(25.6974 0.980851 0)
(24.2508 1.59909 0)
(22.5904 2.60436 0)
(19.7806 4.79576 0)
(16.4402 7.42792 0)
(9.10422 14.2631 0)
(29.9988 0.00104844 0)
(29.9861 0.00318329 0)
(29.9581 0.00555756 0)
(29.9153 0.00858963 0)
(29.8592 0.0125451 0)
(29.7877 0.0179093 0)
(29.6982 0.0252249 0)
(29.5861 0.0356021 0)
(29.4467 0.0501612 0)
(29.2697 0.0708339 0)
(29.0475 0.0989797 0)
(28.7666 0.141136 0)
(28.4206 0.202407 0)
(27.9727 0.287934 0)
(27.4147 0.425162 0)
(26.6513 0.650504 0)
(25.7069 1.01083 0)
(24.2673 1.64253 0)
(22.6258 2.67479 0)
(19.8483 4.90472 0)
(16.6897 7.64005 0)
(9.317 14.8302 0)
(29.9988 0.00108063 0)
(29.9861 0.00328086 0)
(29.9581 0.00572866 0)
(29.9154 0.0088535 0)
(29.8594 0.0129304 0)
(29.7879 0.0184594 0)
(29.6984 0.0259993 0)
(29.5863 0.0366903 0)
(29.4469 0.0518097 0)
(29.2699 0.0729448 0)
(29.0476 0.102078 0)
(28.7668 0.145487 0)
(28.4209 0.208611 0)
(27.9735 0.296758 0)
(27.417 0.438219 0)
(26.6564 0.66943 0)
(25.717 1.04066 0)
(24.2853 1.6856 0)
(22.6623 2.74441 0)
(19.9176 5.00966 0)
(16.9493 7.84934 0)
(9.53829 15.408 0)
(29.9988 0.00111283 0)
(29.9861 0.00337842 0)
(29.9581 0.00589974 0)
(29.9153 0.00911736 0)
(29.8593 0.0133156 0)
(29.7878 0.0190094 0)
(29.6983 0.0267734 0)
(29.5863 0.0377751 0)
(29.4468 0.0534577 0)
(29.27 0.0750492 0)
(29.0477 0.105179 0)
(28.7671 0.149837 0)
(28.4212 0.214809 0)
(27.9744 0.305562 0)
(27.4195 0.451232 0)
(26.6618 0.688265 0)
(25.7279 1.07032 0)
(24.3046 1.7283 0)
(22.7 2.81322 0)
(19.9884 5.11043 0)
(17.2187 8.05564 0)
(9.76835 15.9968 0)
(29.9988 0.00114501 0)
(29.9861 0.00347595 0)
(29.9581 0.00607084 0)
(29.9154 0.00938114 0)
(29.8595 0.0137009 0)
(29.788 0.0195588 0)
(29.6985 0.0275492 0)
(29.5866 0.0388584 0)
(29.4468 0.0550459 0)
(29.2703 0.0771479 0)
(29.0479 0.108281 0)
(28.7673 0.154186 0)
(28.4216 0.221001 0)
(27.9755 0.314346 0)
(27.4221 0.4642 0)
(26.6675 0.707003 0)
(25.7394 1.0998 0)
(24.3253 1.7706 0)
(22.7391 2.88122 0)
(20.0609 5.20687 0)
(17.4978 8.25883 0)
(10.0074 16.5971 0)
(29.9988 0.00117719 0)
(29.9861 0.00357346 0)
(29.9581 0.00624191 0)
(29.9153 0.00964494 0)
(29.8593 0.0140858 0)
(29.7878 0.0201092 0)
(29.6984 0.0283197 0)
(29.5867 0.0399759 0)
(29.4467 0.0564851 0)
(29.2705 0.0792504 0)
(29.0481 0.111384 0)
(28.7676 0.158533 0)
(28.422 0.227187 0)
(27.9766 0.32311 0)
(27.4249 0.47712 0)
(26.6734 0.725639 0)
(25.7515 1.12909 0)
(24.3474 1.81251 0)
(22.7796 2.94839 0)
(20.1352 5.29883 0)
(17.7865 8.45874 0)
(10.2557 17.2092 0)
(29.9988 0.00120936 0)
(29.9861 0.00367094 0)
(29.9582 0.00641298 0)
(29.9154 0.00990865 0)
(29.8595 0.0144709 0)
(29.7881 0.0206586 0)
(29.6986 0.0290951 0)
(29.587 0.0410756 0)
(29.4468 0.0582298 0)
(29.2708 0.0813828 0)
(29.0484 0.114488 0)
(28.768 0.162879 0)
(28.4225 0.233366 0)
(27.9778 0.331852 0)
(27.4279 0.48999 0)
(26.6797 0.744169 0)
(25.7643 1.15816 0)
(24.3707 1.85402 0)
(22.8218 3.01473 0)
(20.2115 5.38617 0)
(18.0851 8.65523 0)
(10.5135 17.8337 0)
(29.9988 0.00124154 0)
(29.9861 0.0037684 0)
(29.9581 0.00658405 0)
(29.9154 0.0101723 0)
(29.8594 0.0148559 0)
(29.7879 0.0212075 0)
(29.6985 0.0298677 0)
(29.587 0.0422075 0)
(29.4468 0.0599746 0)
(29.271 0.0835477 0)
(29.0486 0.117592 0)
(28.7683 0.167223 0)
(28.423 0.239538 0)
(27.9791 0.340572 0)
(27.431 0.502809 0)
(26.6863 0.762585 0)
(25.7777 1.18701 0)
(24.3954 1.8951 0)
(22.8658 3.08022 0)
(20.2897 5.46874 0)
(18.3938 8.84815 0)
(10.781 18.471 0)
(29.9988 0.0012737 0)
(29.9861 0.00386583 0)
(29.9582 0.0067551 0)
(29.9155 0.010436 0)
(29.8596 0.0152402 0)
(29.7881 0.0217601 0)
(29.6988 0.0306248 0)
(29.5872 0.0433614 0)
(29.4467 0.0614828 0)
(29.2713 0.0857274 0)
(29.0489 0.120695 0)
(28.7687 0.171566 0)
(28.4236 0.245701 0)
(27.9805 0.349268 0)
(27.4343 0.515575 0)
(26.6931 0.780885 0)
(25.7917 1.21563 0)
(24.4212 1.93573 0)
(22.912 3.14487 0)
(20.3696 5.54639 0)
(18.7127 9.03733 0)
(11.0584 19.1215 0)
(29.9988 0.00130586 0)
(29.9861 0.00396323 0)
(29.9581 0.00692611 0)
(29.9154 0.0106996 0)
(29.8594 0.0156253 0)
(29.788 0.0223066 0)
(29.6987 0.0314229 0)
(29.5869 0.044302 0)
(29.4466 0.0629212 0)
(29.2714 0.0879095 0)
(29.0492 0.123798 0)
(28.7692 0.175906 0)
(28.4242 0.251859 0)
(27.982 0.357938 0)
(27.4378 0.528286 0)
(26.7003 0.799062 0)
(25.8062 1.24401 0)
(24.4482 1.9759 0)
(22.9607 3.20867 0)
(20.4507 5.61898 0)
(19.0411 9.22265 0)
(11.346 19.7855 0)
(29.9988 0.00133801 0)
(29.9861 0.00406066 0)
(29.9582 0.00709709 0)
(29.9155 0.0109632 0)
(29.8596 0.0160105 0)
(29.7881 0.0228559 0)
(29.6992 0.0322121 0)
(29.5861 0.0455042 0)
(29.4465 0.0643854 0)
(29.2716 0.09009 0)
(29.0495 0.126898 0)
(28.7696 0.180243 0)
(28.4249 0.258008 0)
(27.9835 0.366584 0)
(27.4414 0.540938 0)
(26.7077 0.817113 0)
(25.8213 1.27213 0)
(24.4761 2.01558 0)
(23.0122 3.27162 0)
(20.5321 5.6864 0)
(19.3759 9.40412 0)
(11.6439 20.4645 0)
(29.9988 0.00137 0)
(29.9861 0.00415814 0)
(29.9581 0.00726812 0)
(29.9154 0.0112264 0)
(29.8595 0.0163961 0)
(29.788 0.0234069 0)
(29.6992 0.0330039 0)
(29.5853 0.0468538 0)
(29.4464 0.0658866 0)
(29.2717 0.0922703 0)
(29.0498 0.129996 0)
(28.7701 0.184576 0)
(28.4256 0.264148 0)
(27.9852 0.375203 0)
(27.4452 0.55353 0)
(26.7154 0.835029 0)
(25.8369 1.29998 0)
(24.505 2.05472 0)
(23.0668 3.33373 0)
(20.6131 5.74862 0)
(19.7098 9.58141 0)
(11.9518 21.1656 0)
(29.9988 0.00140147 0)
(29.9861 0.00425469 0)
(29.9582 0.00743853 0)
(29.9155 0.0114868 0)
(29.8598 0.0167788 0)
(29.7883 0.0239491 0)
(29.6996 0.0338453 0)
(29.5849 0.0479886 0)
(29.4463 0.0674011 0)
(29.2717 0.094448 0)
(29.0501 0.133092 0)
(28.7706 0.188895 0)
(28.4264 0.270282 0)
(27.9869 0.383803 0)
(27.4491 0.566063 0)
(26.7235 0.852805 0)
(25.853 1.32756 0)
(24.5348 2.09325 0)
(23.1252 3.39505 0)
(20.6936 5.80571 0)
(20.0316 9.75249 0)
(12.3556 21.9106 0)
(-1.52556 0.0695945 0)
(-4.55865 0.0478907 0)
(-5.86708 0.00400506 0)
(-4.85697 -0.0225519 0)
(-3.41724 -0.0185904 0)
(-2.69477 -0.00921912 0)
(-2.25043 -0.00445568 0)
(-2.0826 -0.00267432 0)
(-1.82842 -0.00275954 0)
(-1.59838 -0.00121157 0)
(-1.60865 -0.000257501 0)
(-1.59109 -0.00239536 0)
(-1.20048 -0.00673821 0)
(-0.153718 -0.0116409 0)
(1.65174 -0.0143832 0)
(3.622 -0.0137241 0)
(5.48862 -0.0121976 0)
(7.28888 -0.0110267 0)
(9.06456 -0.00982878 0)
(10.7386 -0.00850624 0)
(12.3331 -0.00752194 0)
(13.9025 -0.00684993 0)
(15.467 -0.00642315 0)
(17.0866 -0.00623869 0)
(18.8114 -0.00706711 0)
(21.1776 -0.0111053 0)
(25.8926 -0.0107484 0)
(28.559 -0.00452373 0)
(29.2091 -0.00098044 0)
(29.3357 -0.000235431 0)
(29.4116 -0.000182644 0)
(29.5071 -0.000175094 0)
(29.589 -0.000133974 0)
(29.654 -0.000101196 0)
(29.7093 -4.45271e-05 0)
(-1.49514 0.206209 0)
(-4.48918 0.142539 0)
(-5.79093 0.0122073 0)
(-4.78547 -0.0669617 0)
(-3.3618 -0.0552962 0)
(-2.65748 -0.0273699 0)
(-2.22514 -0.0133491 0)
(-2.06911 -0.00828348 0)
(-1.80891 -0.00886175 0)
(-1.53895 -0.00409737 0)
(-1.51775 -0.000292834 0)
(-1.50368 -0.00574539 0)
(-1.20331 -0.0184057 0)
(-0.282349 -0.0341808 0)
(1.50127 -0.0429009 0)
(3.54169 -0.0407684 0)
(5.47047 -0.0360125 0)
(7.27716 -0.0323735 0)
(9.02932 -0.0288241 0)
(10.6753 -0.02511 0)
(12.2479 -0.0223999 0)
(13.8054 -0.0204842 0)
(15.3669 -0.0192012 0)
(16.9811 -0.0185993 0)
(18.6922 -0.0208106 0)
(20.9347 -0.0331664 0)
(25.6901 -0.0329894 0)
(28.517 -0.0139342 0)
(29.2083 -0.00301615 0)
(29.3388 -0.000708872 0)
(29.413 -0.000543424 0)
(29.5076 -0.000523933 0)
(29.5895 -0.000401868 0)
(29.6545 -0.000303511 0)
(29.7098 -0.000133589 0)
(-1.45429 0.340266 0)
(-4.4099 0.236129 0)
(-5.70438 0.0203596 0)
(-4.69515 -0.111383 0)
(-3.28675 -0.091528 0)
(-2.60354 -0.0450097 0)
(-2.18067 -0.0218009 0)
(-2.03091 -0.0137142 0)
(-1.75199 -0.0154068 0)
(-1.44167 -0.00788265 0)
(-1.40951 -0.000968343 0)
(-1.42379 -0.00879426 0)
(-1.22784 -0.0283706 0)
(-0.407347 -0.0550626 0)
(1.38475 -0.0716852 0)
(3.49355 -0.0687624 0)
(5.47342 -0.0599319 0)
(7.2809 -0.0531316 0)
(9.00851 -0.0472074 0)
(10.6281 -0.0413034 0)
(12.1809 -0.0370691 0)
(13.7266 -0.0340385 0)
(15.2848 -0.0319588 0)
(16.8942 -0.0309235 0)
(18.5941 -0.034126 0)
(20.7263 -0.0548981 0)
(25.4997 -0.0555838 0)
(28.4763 -0.0239341 0)
(29.2078 -0.0051832 0)
(29.342 -0.00118891 0)
(29.4145 -0.000898476 0)
(29.5083 -0.000870926 0)
(29.5901 -0.00066959 0)
(29.655 -0.000505666 0)
(29.7102 -0.000222596 0)
(-1.40711 0.471374 0)
(-4.32233 0.328737 0)
(-5.60261 0.0282406 0)
(-4.57426 -0.155917 0)
(-3.18413 -0.127068 0)
(-2.5263 -0.0621625 0)
(-2.11414 -0.0300732 0)
(-1.97149 -0.0193788 0)
(-1.67372 -0.0226942 0)
(-1.33024 -0.0121513 0)
(-1.28837 -0.00132414 0)
(-1.33509 -0.010344 0)
(-1.24 -0.0365948 0)
(-0.505265 -0.0755744 0)
(1.29667 -0.101536 0)
(3.46698 -0.0981617 0)
(5.49657 -0.0847624 0)
(7.30343 -0.0742235 0)
(9.00506 -0.0656094 0)
(10.5993 -0.0574014 0)
(12.1335 -0.0516292 0)
(13.6668 -0.0475348 0)
(15.2206 -0.0446789 0)
(16.8252 -0.0431792 0)
(18.5167 -0.0470473 0)
(20.5529 -0.0762754 0)
(25.3202 -0.0786865 0)
(28.4366 -0.0344431 0)
(29.2075 -0.00745939 0)
(29.3453 -0.00167363 0)
(29.4161 -0.00124812 0)
(29.5092 -0.00121616 0)
(29.5908 -0.000936991 0)
(29.6556 -0.00070749 0)
(29.7107 -0.000311433 0)
(-1.35372 0.599258 0)
(-4.22617 0.419987 0)
(-5.4821 0.0353217 0)
(-4.41756 -0.200565 0)
(-3.05231 -0.161693 0)
(-2.42448 -0.0786441 0)
(-2.02618 -0.0380434 0)
(-1.89179 -0.0251681 0)
(-1.57578 -0.0305509 0)
(-1.20577 -0.0168508 0)
(-1.15095 -0.00146025 0)
(-1.23215 -0.0106559 0)
(-1.23347 -0.0432172 0)
(-0.568872 -0.0954412 0)
(1.24709 -0.131877 0)
(3.47344 -0.128464 0)
(5.55154 -0.110103 0)
(7.35486 -0.0952689 0)
(9.02592 -0.0837883 0)
(10.5933 -0.0732977 0)
(12.1087 -0.0660453 0)
(13.6278 -0.0609524 0)
(15.1753 -0.0573619 0)
(16.7747 -0.0553937 0)
(18.4597 -0.0596496 0)
(20.4133 -0.0972921 0)
(25.1504 -0.102115 0)
(28.3979 -0.0454406 0)
(29.2073 -0.00984621 0)
(29.3488 -0.00216346 0)
(29.4179 -0.00159252 0)
(29.5102 -0.00155957 0)
(29.5917 -0.00120392 0)
(29.6564 -0.000908834 0)
(29.7113 -0.000400004 0)
(-1.29407 0.723545 0)
(-4.12087 0.509572 0)
(-5.33883 0.0410309 0)
(-4.2194 -0.245584 0)
(-2.88903 -0.195251 0)
(-2.29617 -0.094346 0)
(-1.91637 -0.0456512 0)
(-1.79146 -0.0310625 0)
(-1.45834 -0.0389012 0)
(-1.06763 -0.0219642 0)
(-0.99457 -0.00143203 0)
(-1.10993 -0.00976615 0)
(-1.201 -0.0483969 0)
(-0.590306 -0.114748 0)
(1.2473 -0.162481 0)
(3.52886 -0.159314 0)
(5.65663 -0.135683 0)
(7.45266 -0.116051 0)
(9.08388 -0.101587 0)
(10.6187 -0.0889198 0)
(12.1119 -0.0802866 0)
(13.6135 -0.0742671 0)
(15.1519 -0.0699928 0)
(16.7446 -0.0675687 0)
(18.4242 -0.0719799 0)
(20.306 -0.11793 0)
(24.9896 -0.125765 0)
(28.36 -0.0568955 0)
(29.2072 -0.0123409 0)
(29.3523 -0.00265847 0)
(29.4198 -0.00193186 0)
(29.5114 -0.00190109 0)
(29.5927 -0.00147022 0)
(29.6572 -0.00110954 0)
(29.7119 -0.000488212 0)
(-1.22808 0.843856 0)
(-4.00565 0.597101 0)
(-5.16818 0.0447086 0)
(-3.9744 -0.291248 0)
(-2.69173 -0.227495 0)
(-2.13869 -0.109129 0)
(-1.78313 -0.0528058 0)
(-1.66885 -0.0370267 0)
(-1.31985 -0.0476645 0)
(-0.913129 -0.0274983 0)
(-0.815365 -0.00134699 0)
(-0.962203 -0.00778756 0)
(-1.13426 -0.0523968 0)
(-0.561877 -0.133737 0)
(1.30773 -0.193471 0)
(3.65021 -0.190725 0)
(5.83579 -0.161466 0)
(7.62422 -0.136476 0)
(9.20012 -0.118886 0)
(10.6892 -0.10418 0)
(12.152 -0.0943005 0)
(13.6299 -0.0874417 0)
(15.1551 -0.0825481 0)
(16.7388 -0.079698 0)
(18.413 -0.0840735 0)
(20.231 -0.13815 0)
(24.8374 -0.149546 0)
(28.3232 -0.0687821 0)
(29.2072 -0.0149412 0)
(29.3559 -0.00315877 0)
(29.422 -0.00226632 0)
(29.5128 -0.00224068 0)
(29.5939 -0.00173574 0)
(29.6581 -0.00130944 0)
(29.7125 -0.000575959 0)
(-1.15563 0.959802 0)
(-3.87958 0.682079 0)
(-4.96516 0.0456269 0)
(-3.67967 -0.337728 0)
(-2.45868 -0.258099 0)
(-1.94923 -0.122828 0)
(-1.62394 -0.0594002 0)
(-1.52119 -0.0430286 0)
(-1.15726 -0.0567734 0)
(-0.737814 -0.0334879 0)
(-0.607219 -0.00132334 0)
(-0.780363 -0.00488146 0)
(-1.02257 -0.0554852 0)
(-0.472337 -0.152676 0)
(1.44214 -0.225124 0)
(3.85613 -0.222954 0)
(6.11634 -0.187613 0)
(7.90872 -0.156515 0)
(9.40918 -0.135536 0)
(10.8264 -0.11893 0)
(12.2423 -0.107992 0)
(13.6869 -0.100418 0)
(15.1928 -0.0949931 0)
(16.7637 -0.091766 0)
(18.4313 -0.0959498 0)
(20.1907 -0.157897 0)
(24.6944 -0.173368 0)
(28.2874 -0.0810764 0)
(29.2072 -0.0176447 0)
(29.3596 -0.00366458 0)
(29.4243 -0.00259609 0)
(29.5144 -0.00257826 0)
(29.5951 -0.00200032 0)
(29.6592 -0.00150838 0)
(29.7131 -0.000663148 0)
(-1.07661 1.07096 0)
(-3.74151 0.763901 0)
(-4.72482 0.0430589 0)
(-3.3377 -0.385071 0)
(-2.19041 -0.286762 0)
(-1.72583 -0.135304 0)
(-1.43603 -0.0653349 0)
(-1.34496 -0.0490489 0)
(-0.966454 -0.0661838 0)
(-0.535784 -0.040003 0)
(-0.361447 -0.00154222 0)
(-0.552625 -0.00124321 0)
(-0.850929 -0.0579342 0)
(-0.302391 -0.171825 0)
(1.67275 -0.25777 0)
(4.16949 -0.256375 0)
(6.52382 -0.214458 0)
(8.35095 -0.176225 0)
(9.76435 -0.151344 0)
(11.0662 -0.132929 0)
(12.4049 -0.121201 0)
(13.7996 -0.113105 0)
(15.2768 -0.107276 0)
(16.8298 -0.103745 0)
(18.4874 -0.107613 0)
(20.1908 -0.177102 0)
(24.5622 -0.197127 0)
(28.253 -0.0937516 0)
(29.2073 -0.0204484 0)
(29.3633 -0.00417615 0)
(29.4267 -0.0029214 0)
(29.5162 -0.00291378 0)
(29.5965 -0.0022638 0)
(29.6603 -0.0017062 0)
(29.7138 -0.00074968 0)
(-0.990891 1.17689 0)
(-3.59016 0.841869 0)
(-4.44279 0.0364004 0)
(-2.95777 -0.433173 0)
(-1.8906 -0.313314 0)
(-1.46862 -0.146492 0)
(-1.21714 -0.0705487 0)
(-1.13647 -0.0550907 0)
(-0.742939 -0.0758851 0)
(-0.300217 -0.0471783 0)
(-0.0673872 -0.00226208 0)
(-0.263745 0.002838 0)
(-0.598447 -0.0600792 0)
(-0.0232322 -0.191504 0)
(2.02947 -0.291716 0)
(4.61501 -0.291304 0)
(7.0725 -0.242397 0)
(8.97461 -0.195839 0)
(10.3277 -0.166063 0)
(11.4639 -0.145797 0)
(12.6745 -0.133668 0)
(13.9912 -0.125363 0)
(15.4254 -0.119321 0)
(16.9524 -0.115591 0)
(18.5949 -0.119049 0)
(20.242 -0.19567 0)
(24.4442 -0.220693 0)
(28.2203 -0.106774 0)
(29.2074 -0.0233487 0)
(29.3672 -0.00469379 0)
(29.4293 -0.00324252 0)
(29.5181 -0.00324719 0)
(29.598 -0.00252602 0)
(29.6615 -0.00190273 0)
(29.7145 -0.00083546 0)
(-0.898399 1.27711 0)
(-3.42417 0.915204 0)
(-4.11554 0.0252894 0)
(-2.5538 -0.481745 0)
(-1.56613 -0.337774 0)
(-1.18071 -0.156447 0)
(-0.966507 -0.075056 0)
(-0.892734 -0.0611932 0)
(-0.482952 -0.085914 0)