/*--------------------------------*- C++ -*----------------------------------*\
| =========                 |                                                 |
| \\      /  F ield         | OpenFOAM: The Open Source CFD Toolbox           |
|  \\    /   O peration     | Version:  v1912                                 |
|   \\  /    A nd           | Website:  www.openfoam.com                      |
|    \\/     M anipulation  |                                                 |
\*---------------------------------------------------------------------------*/
FoamFile
{
    version     2.0;
    format      ascii;
    class       volScalarField;
    location    "220";
    object      yPlus;
}
// * * * * * * * * * * * * * * * * * * * * * * * * * * * * * * * * * * * * * //

dimensions      [0 0 0 0 0 0 0];


internalField   uniform 0;

boundaryField
{
    inlet
    {
        type            calculated;
        value           uniform 0;
    }
    outlet
    {
        type            calculated;
        value           uniform 0;
    }
    lowerSymmetry
    {
        type            symmetryPlane;
    }
    obstical
    {
        type            calculated;
        value           nonuniform List<scalar> 
88
(
488.438
490.6
494.968
501.542
510.255
521.016
533.728
548.299
564.635
582.646
602.245
623.344
645.854
669.678
694.723
720.892
748.101
776.268
805.328
835.221
865.904
897.339
929.501
962.373
995.947
1030.22
1065.2
1100.89
1137.32
1174.5
1212.44
1251.18
1290.74
1331.14
1372.39
1414.53
1457.56
1501.53
1546.44
1592.33
1639.22
1687.17
1736.58
1791.38
142.213
140.765
139.487
138.706
138.418
138.596
139.202
140.191
141.517
143.132
144.991
147.052
149.277
151.632
154.092
156.639
159.267
161.987
164.825
167.819
171.001
174.343
177.737
181.134
184.46
187.642
190.629
193.403
195.986
198.436
200.792
202.982
204.716
205.393
204.105
199.767
191.344
178.022
159.25
134.61
103.668
65.97
27.0613
59.3757
)
;
    }
    obsticalTop
    {
        type            calculated;
        value           nonuniform List<scalar> 
20
(
53.2463
38.473
46.9383
53.1039
55.9978
57.6764
58.3201
58.065
57.1681
55.7645
53.8347
51.2755
47.9995
43.8323
38.7422
32.1015
25.8218
16.4998
14.7636
10.4565
)
;
    }
    top
    {
        type            calculated;
        value           uniform 0;
    }
    defaultFaces
    {
        type            empty;
    }
}


// ************************************************************************* //
