/*--------------------------------*- C++ -*----------------------------------*\
| =========                 |                                                 |
| \\      /  F ield         | OpenFOAM: The Open Source CFD Toolbox           |
|  \\    /   O peration     | Version:  v1912                                 |
|   \\  /    A nd           | Website:  www.openfoam.com                      |
|    \\/     M anipulation  |                                                 |
\*---------------------------------------------------------------------------*/
FoamFile
{
    version     2.0;
    format      ascii;
    class       volScalarField;
    location    "225";
    object      p;
}
// * * * * * * * * * * * * * * * * * * * * * * * * * * * * * * * * * * * * * //

dimensions      [0 2 -2 0 0 0 0];


internalField   nonuniform List<scalar> 
2000
(
-0.0383501
0.0790611
0.13364
0.126751
0.110923
0.104615
0.104008
0.105357
0.105574
0.105344
0.105478
0.105163
0.104908
0.10485
0.1049
0.104845
0.104664
0.10454
0.104461
0.104417
0.10433
0.104157
0.103907
0.103625
0.10337
0.103164
0.102993
0.102793
0.102557
0.102301
0.102067
0.101921
0.101934
0.102153
0.102676
0.103441
0.104367
0.105363
0.106304
0.107046
0.107454
0.107406
0.10657
0.105068
0.102888
0.100046
0.0966084
0.0928708
0.0891076
0.0857064
0.0830309
0.0813231
0.0806649
0.0809494
0.081834
0.0827476
0.0829888
0.0821108
0.0808267
0.0810531
0.0845713
0.0932397
0.106078
0.121286
0.136907
0.151519
0.164346
0.175068
0.183545
0.189688
0.194028
0.195434
0.194261
0.189954
0.181644
0.168356
0.148552
0.121629
0.0815033
0.0406875
0.0148936
0.100071
0.138889
0.125693
0.107953
0.103752
0.107283
0.109715
0.106966
0.103743
0.103305
0.104599
0.105058
0.104928
0.105082
0.104876
0.104629
0.104426
0.104338
0.104299
0.104273
0.104134
0.103891
0.103626
0.103384
0.103179
0.103
0.102848
0.102604
0.102265
0.101888
0.101569
0.101431
0.101599
0.102062
0.102901
0.104051
0.105393
0.106765
0.107981
0.108875
0.108973
0.108535
0.107186
0.104801
0.101367
0.09697
0.091868
0.0865388
0.0816627
0.07792
0.0757624
0.0752513
0.0758721
0.076679
0.0764609
0.0743219
0.0702326
0.066926
0.0695001
0.079022
0.0921121
0.107052
0.122901
0.138347
0.152342
0.164304
0.174001
0.181383
0.186465
0.189226
0.189296
0.186533
0.180435
0.170157
0.154772
0.132924
0.104366
0.0646957
0.0290199
0.0659576
0.0997561
0.122448
0.120891
0.111692
0.107514
0.107548
0.106909
0.105009
0.104355
0.105964
0.107517
0.106468
0.103965
0.103055
0.103913
0.104763
0.104844
0.104528
0.104261
0.104014
0.103799
0.103691
0.103642
0.103607
0.103582
0.103513
0.103293
0.103007
0.102432
0.101636
0.100794
0.100137
0.0999127
0.100285
0.101279
0.102943
0.105175
0.107699
0.110132
0.112005
0.113418
0.113723
0.112513
0.109506
0.104578
0.0978484
0.089815
0.0814282
0.0739838
0.0687476
0.0664614
0.0671585
0.0694065
0.0724793
0.0749171
0.0760421
0.0762421
0.0765827
0.079652
0.0869941
0.0980123
0.111318
0.125353
0.13888
0.151064
0.161384
0.169558
0.175481
0.179124
0.18042
0.179172
0.175089
0.167708
0.156343
0.140296
0.118589
0.0914183
0.0557128
0.0249398
0.0909419
0.100956
0.113505
0.117584
0.11489
0.111869
0.110207
0.108478
0.106862
0.106061
0.105874
0.10575
0.105391
0.104686
0.104163
0.105064
0.106174
0.105281
0.103868
0.10316
0.102905
0.103112
0.103468
0.103801
0.104131
0.104463
0.104704
0.104702
0.104161
0.103091
0.101514
0.0996664
0.097957
0.0969155
0.0970982
0.098027
0.100491
0.104337
0.108978
0.113744
0.117909
0.120528
0.121831
0.120681
0.116553
0.109279
0.0991806
0.0872202
0.0749989
0.0644514
0.0574174
0.0545975
0.0558488
0.0608372
0.067134
0.0731185
0.0777607
0.0809869
0.0837611
0.0878037
0.0945493
0.104077
0.115368
0.127178
0.138547
0.148791
0.157416
0.1641
0.168674
0.171052
0.171135
0.168735
0.163558
0.15521
0.143179
0.126989
0.105988
0.0805597
0.0485866
0.0209388
0.10328
0.106881
0.1144
0.118369
0.117238
0.114907
0.113525
0.112486
0.111186
0.109739
0.108384
0.107283
0.106549
0.105698
0.104705
0.104677
0.105149
0.10523
0.104801
0.103999
0.103375
0.103155
0.103311
0.103745
0.104337
0.105007
0.105597
0.10584
0.105377
0.103925
0.10147
0.0983749
0.095275
0.0929493
0.0920697
0.0934274
0.097076
0.102803
0.109717
0.116928
0.1234
0.128284
0.130098
0.128748
0.123564
0.114305
0.10147
0.0863909
0.0711411
0.0581187
0.0499266
0.0471532
0.0492992
0.0551897
0.0629413
0.0707728
0.0775401
0.0830361
0.0879397
0.0933822
0.100299
0.108863
0.118508
0.128407
0.137833
0.146229
0.153182
0.158404
0.161713
0.162979
0.162065
0.15878
0.152861
0.143991
0.131791
0.115943
0.0959916
0.0723965
0.0435472
0.0183945
0.11172
0.113553
0.117506
0.119675
0.118857
0.117247
0.116285
0.115607
0.114646
0.113452
0.112317
0.111315
0.110283
0.108932
0.107518
0.106752
0.106535
0.106249
0.105418
0.104216
0.10334
0.103055
0.103269
0.103763
0.104457
0.105373
0.106346
0.106886
0.106394
0.104484
0.101218
0.0971576
0.0931663
0.0902137
0.0891259
0.0910398
0.095538
0.102367
0.110649
0.119284
0.127028
0.132657
0.134974
0.133317
0.127312
0.117117
0.10352
0.0880136
0.0727536
0.0603511
0.052152
0.0496874
0.0521341
0.0581108
0.0659164
0.0739427
0.0811974
0.0874638
0.0931669
0.0990233
0.105628
0.113146
0.121278
0.129485
0.137224
0.144052
0.149624
0.153678
0.156009
0.15645
0.154836
0.150973
0.144626
0.135532
0.123395
0.107987
0.0889633
0.0668021
0.040099
0.0168225
0.118529
0.119352
0.120588
0.120923
0.120134
0.119146
0.118483
0.117939
0.117267
0.116504
0.115769
0.115032
0.114147
0.113005
0.111793
0.110874
0.110257
0.109496
0.108295
0.106939
0.105933
0.10546
0.105421
0.105653
0.106099
0.106712
0.107272
0.107366
0.106548
0.104535
0.101378
0.0975673
0.0939189
0.0914209
0.0909499
0.0931137
0.0977667
0.104491
0.112429
0.120507
0.127616
0.132693
0.134807
0.133324
0.12782
0.118175
0.105139
0.0905712
0.0767372
0.0656842
0.0588933
0.0570423
0.0593959
0.0646612
0.0714526
0.0785825
0.0853265
0.091496
0.0973175
0.103199
0.109481
0.116257
0.123337
0.130347
0.13688
0.142576
0.147139
0.150324
0.151923
0.151752
0.149634
0.145374
0.138756
0.129549
0.117505
0.102451
0.0841092
0.0629636
0.0376906
0.0158178
0.124405
0.124349
0.123433
0.122222
0.121395
0.120874
0.120393
0.119916
0.119466
0.119019
0.118554
0.118036
0.117408
0.116629
0.115772
0.115007
0.11436
0.113582
0.112525
0.111375
0.110439
0.109858
0.109595
0.109568
0.109719
0.109964
0.110104
0.109821
0.108783
0.106796
0.103959
0.100732
0.097862
0.0961987
0.0963766
0.0987365
0.103158
0.109182
0.116063
0.122877
0.128679
0.132576
0.133806
0.131857
0.126518
0.118015
0.107171
0.0954023
0.084422
0.0757178
0.0702963
0.0684839
0.06984
0.073499
0.0785384
0.0841721
0.0898874
0.0954905
0.10104
0.106713
0.112656
0.118878
0.125215
0.13138
0.137048
0.141918
0.145728
0.148251
0.149285
0.148642
0.146137
0.141576
0.134749
0.125445
0.11345
0.0986326
0.0807597
0.0603158
0.0360353
0.0151205
0.129808
0.128818
0.125852
0.123306
0.122547
0.122454
0.122114
0.121698
0.121425
0.121195
0.120909
0.12056
0.12014
0.119621
0.119028
0.118461
0.117944
0.117337
0.116544
0.115669
0.114914
0.1144
0.114125
0.114031
0.114055
0.114106
0.114024
0.11358
0.112548
0.110826
0.108542
0.106085
0.104028
0.102958
0.103368
0.105475
0.109146
0.114006
0.119475
0.124833
0.129337
0.1323
0.13316
0.131548
0.127339
0.120704
0.11223
0.102936
0.0940491
0.0866713
0.0815856
0.0791273
0.0791419
0.0811481
0.0845723
0.0888867
0.0936953
0.0987749
0.104054
0.109541
0.115242
0.121092
0.126926
0.132503
0.137553
0.141816
0.14506
0.147075
0.147667
0.146651
0.143836
0.139025
0.132013
0.122604
0.110611
0.0959362
0.0783831
0.0584332
0.0348717
0.0145728
0.135037
0.132849
0.127653
0.124006
0.123538
0.12386
0.123625
0.123294
0.123198
0.123153
0.123012
0.122796
0.122521
0.122166
0.121747
0.121331
0.12094
0.120482
0.119891
0.119237
0.118667
0.118278
0.118074
0.118004
0.118001
0.117983
0.117824
0.11736
0.116443
0.115027
0.113233
0.111362
0.109828
0.109073
0.10951
0.111287
0.114294
0.11824
0.122673
0.12702
0.130683
0.133105
0.133827
0.132539
0.129133
0.123755
0.116861
0.109199
0.101671
0.0951218
0.0901943
0.0872343
0.0862661
0.0870722
0.0893246
0.0926735
0.096805
0.10148
0.10654
0.111883
0.117416
0.123015
0.128507
0.133673
0.138277
0.142091
0.144904
0.146524
0.146767
0.145449
0.142379
0.137355
0.130174
0.12065
0.108621
0.0940238
0.0766899
0.0570991
0.0340569
0.0141461
0.140275
0.136425
0.12873
0.124336
0.124423
0.12511
0.124931
0.124708
0.1248
0.124922
0.124913
0.124815
0.124658
0.124428
0.124134
0.123827
0.123524
0.123166
0.122709
0.122207
0.121773
0.121483
0.121338
0.121294
0.12129
0.121252
0.121077
0.120641
0.119843
0.118662
0.117206
0.115713
0.11451
0.113958
0.114377
0.115889
0.118413
0.121717
0.125433
0.129093
0.132198
0.134276
0.13494
0.133929
0.131148
0.12671
0.120952
0.114429
0.107825
0.101811
0.0969348
0.0935577
0.0918291
0.091717
0.0930731
0.0956818
0.099295
0.103667
0.108579
0.113842
0.119287
0.124739
0.130009
0.134889
0.139167
0.142638
0.145114
0.146418
0.146378
0.144812
0.141527
0.136319
0.128981
0.119337
0.107249
0.0926902
0.0755109
0.0561938
0.0335008
0.0138586
0.145641
0.139471
0.129055
0.124392
0.125255
0.126212
0.126054
0.125968
0.126243
0.126508
0.126617
0.12663
0.126583
0.126463
0.126275
0.126059
0.125829
0.125548
0.125188
0.124794
0.124454
0.124229
0.124122
0.124094
0.124091
0.124045
0.12387
0.123468
0.122764
0.12175
0.120522
0.11928
0.118296
0.11787
0.118253
0.119557
0.121729
0.124581
0.127807
0.131013
0.133768
0.13566
0.136346
0.135588
0.133288
0.129521
0.124547
0.118797
0.112814
0.107146
0.102275
0.0985623
0.0962376
0.095401
0.0960457
0.0980692
0.101283
0.105439
0.110268
0.115511
0.12093
0.126308
0.131437
0.136115
0.140148
0.143353
0.145562
0.146612
0.146341
0.144573
0.141112
0.135748
0.12827
0.118513
0.10636
0.0918225
0.0747617
0.0556671
0.0331682
0.013754
0.151213
0.141884
0.128662
0.124296
0.126054
0.127165
0.127023
0.127101
0.127543
0.127928
0.128139
0.128254
0.128307
0.128284
0.128191
0.128058
0.127899
0.127689
0.12741
0.127101
0.126834
0.12666
0.126582
0.126567
0.126568
0.126522
0.126355
0.125987
0.125359
0.124473
0.12341
0.122344
0.121507
0.12115
0.121484
0.122615
0.124515
0.127029
0.129902
0.132792
0.135319
0.137112
0.137853
0.137318
0.135406
0.13216
0.127783
0.122617
0.117095
0.111673
0.106773
0.102753
0.0999022
0.0984299
0.0984547
0.099978
0.102866
0.106868
0.111667
0.116938
0.12238
0.127735
0.132781
0.137317
0.141166
0.144162
0.146154
0.146997
0.146538
0.144605
0.141002
0.135512
0.127921
0.118068
0.105862
0.0913479
0.0743892
0.0554875
0.0330492
0.0138633
0.157032
0.143546
0.127648
0.124163
0.126819
0.127972
0.127868
0.128127
0.128716
0.129198
0.129501
0.129708
0.129848
0.129911
0.1299
0.129843
0.12975
0.129604
0.129397
0.129161
0.128957
0.128828
0.128778
0.128779
0.128787
0.128749
0.128597
0.128265
0.127706
0.126922
0.125986
0.125047
0.124307
0.123981
0.124254
0.125233
0.126907
0.129156
0.131762
0.134427
0.136808
0.138561
0.139388
0.139067
0.137488
0.13467
0.130766
0.126047
0.120867
0.115606
0.110637
0.106313
0.102971
0.100915
0.10038
0.101467
0.104089
0.10799
0.112804
0.118138
0.123638
0.129006
0.134006
0.138441
0.142147
0.144975
0.146792
0.147465
0.146853
0.144791
0.141081
0.1355
0.127829
0.117914
0.105678
0.0912011
0.0743393
0.0556155
0.0331361
0.0141896
0.163105
0.144348
0.126162
0.124084
0.127532
0.128645
0.128618
0.12906
0.129772
0.130337
0.130722
0.13101
0.131227
0.131364
0.131426
0.131435
0.131402
0.131315
0.13117
0.130998
0.130848
0.130759
0.130735
0.130753
0.130774
0.130748
0.130617
0.130322
0.129825
0.129128
0.128291
0.127444
0.126767
0.126447
0.126655
0.127496
0.12898
0.131014
0.133416
0.135919
0.138211
0.139967
0.140895
0.140776
0.139489
0.137027
0.133504
0.129138
0.124217
0.119059
0.113992
0.109362
0.105547
0.102944
0.101899
0.102601
0.105006
0.108845
0.1137
0.119117
0.124689
0.130087
0.135062
0.139423
0.143016
0.145711
0.147386
0.147924
0.147194
0.145037
0.141254
0.135619
0.127908
0.117966
0.105732
0.091309
0.0745432
0.0559929
0.0333954
0.0147156
0.169412
0.144215
0.124376
0.124108
0.12817
0.129204
0.129296
0.129912
0.130721
0.131358
0.131818
0.132178
0.132463
0.132664
0.13279
0.132859
0.132879
0.132845
0.132754
0.132635
0.132533
0.13248
0.13248
0.132516
0.13255
0.13254
0.132432
0.132173
0.131733
0.131108
0.130349
0.129573
0.128935
0.128606
0.128745
0.129461
0.13078
0.132637
0.134878
0.137266
0.139508
0.141291
0.14233
0.1424
0.141366
0.139203
0.13599
0.1319
0.127166
0.122056
0.11686
0.111921
0.107659
0.104558
0.103061
0.103436
0.105668
0.10947
0.114374
0.119872
0.125512
0.130941
0.135901
0.140206
0.143714
0.146305
0.147873
0.14831
0.147495
0.145275
0.141453
0.135799
0.128083
0.118152
0.105946
0.0915925
0.0749226
0.0565477
0.0338148
0.0153791
0.175902
0.143136
0.122472
0.124245
0.128711
0.129672
0.129917
0.130686
0.131575
0.132275
0.132802
0.133227
0.13357
0.133829
0.134011
0.134132
0.1342
0.134212
0.134169
0.134097
0.134034
0.134012
0.134035
0.134086
0.134135
0.134141
0.134055
0.133831
0.13344
0.132874
0.132178
0.131454
0.130838
0.130488
0.130556
0.131153
0.132326
0.134034
0.136147
0.138451
0.140668
0.142494
0.14364
0.143876
0.143055
0.14113
0.138154
0.134262
0.129645
0.124532
0.119188
0.11396
0.109311
0.105793
0.103929
0.104043
0.106139
0.109912
0.114854
0.120413
0.126104
0.131555
0.136504
0.140768
0.144214
0.146731
0.148224
0.148593
0.147726
0.145474
0.141642
0.135997
0.128305
0.118408
0.106253
0.0919782
0.0754041
0.0571867
0.0343379
0.0161214
0.18249
0.141133
0.12061
0.124477
0.129151
0.130074
0.130489
0.131387
0.132339
0.133095
0.133681
0.134162
0.134556
0.134864
0.135093
0.135259
0.135369
0.13542
0.135417
0.135383
0.135354
0.135356
0.135396
0.135461
0.135521
0.13554
0.135473
0.135277
0.134927
0.134405
0.133755
0.133063
0.132452
0.132069
0.132062
0.132552
0.133598
0.135181
0.137194
0.139437
0.141643
0.143511
0.144749
0.145117
0.144456
0.142703
0.139888
0.136118
0.131557
0.126409
0.120929
0.115471
0.110529
0.106704
0.10457
0.104488
0.106477
0.110216
0.115172
0.120765
0.126485
0.131947
0.136887
0.141123
0.144528
0.146999
0.148446
0.148778
0.147886
0.145626
0.141805
0.136189
0.128537
0.118693
0.1066
0.0924083
0.0759283
0.0578866
0.0349148
0.0168935
0.189084
0.138304
0.118902
0.124761
0.12949
0.130425
0.131011
0.132007
0.133007
0.133808
0.134442
0.134966
0.1354
0.135746
0.136012
0.136212
0.136354
0.136434
0.136461
0.136456
0.13645
0.136469
0.13652
0.136592
0.136658
0.136685
0.13663
0.136451
0.136127
0.135629
0.135006
0.134327
0.133706
0.133284
0.13321
0.133609
0.134555
0.136044
0.137982
0.140183
0.142384
0.144284
0.145588
0.146047
0.145493
0.143848
0.141127
0.137423
0.132882
0.127697
0.122119
0.116509
0.111379
0.107356
0.105042
0.104822
0.106722
0.110421
0.115369
0.120968
0.126697
0.132162
0.137093
0.141312
0.144694
0.147141
0.148567
0.148885
0.147988
0.145739
0.141943
0.136365
0.128763
0.118977
0.10695
0.0928442
0.0764428
0.0585809
0.0355108
0.0176576
0.195592
0.134778
0.117417
0.125049
0.129735
0.130721
0.131455
0.132518
0.133547
0.134378
0.135044
0.135595
0.136054
0.136424
0.136714
0.136937
0.137098
0.137197
0.137242
0.137254
0.137262
0.13729
0.137345
0.137418
0.137486
0.137514
0.137464
0.137297
0.136972
0.13649
0.135877
0.135198
0.134563
0.134109
0.133984
0.13432
0.135198
0.136624
0.138513
0.140686
0.142884
0.144805
0.146147
0.14666
0.146168
0.144584
0.141914
0.138242
0.133707
0.128497
0.122865
0.117174
0.111943
0.107808
0.105386
0.105071
0.1069
0.110553
0.115476
0.121065
0.126788
0.132248
0.137173
0.141383
0.144756
0.147195
0.148617
0.148937
0.148052
0.145824
0.142059
0.136522
0.128971
0.119244
0.107284
0.0932628
0.076943
0.0592387
0.036103
0.0183884
0.201938
0.130714
0.116194
0.125303
0.129896
0.130943
0.131782
0.132879
0.13392
0.134767
0.135449
0.136015
0.136487
0.13687
0.137172
0.137406
0.137578
0.137687
0.137741
0.137762
0.137776
0.137808
0.137864
0.137936
0.138002
0.138029
0.137979
0.137812
0.137489
0.137012
0.136401
0.135718
0.135071
0.134597
0.134443
0.134742
0.135581
0.136971
0.138833
0.140989
0.143183
0.145112
0.146475
0.147016
0.146557
0.145004
0.14236
0.138703
0.134172
0.128952
0.123298
0.117574
0.1123
0.108112
0.105629
0.105252
0.107024
0.110632
0.11552
0.121089
0.126799
0.132251
0.13717
0.141379
0.144751
0.147194
0.148623
0.148956
0.148091
0.145889
0.142157
0.136661
0.129158
0.119488
0.107592
0.0936516
0.0774089
0.0598459
0.0366745
0.0190725
0.208121
0.12638
0.115262
0.125495
0.129979
0.131076
0.131975
0.133084
0.134129
0.134983
0.135672
0.136245
0.136723
0.137112
0.13742
0.13766
0.137837
0.13795
0.138009
0.138034
0.138051
0.138084
0.138141
0.138212
0.138276
0.138302
0.13825
0.138082
0.13776
0.137282
0.13667
0.135984
0.135331
0.134847
0.134679
0.134962
0.135783
0.137156
0.139004
0.141149
0.14334
0.145272
0.146644
0.147198
0.146754
0.145216
0.142585
0.138938
0.13441
0.12919
0.123532
0.117802
0.112516
0.108307
0.105793
0.105376
0.107103
0.110669
0.115523
0.121068
0.126762
0.132205
0.137122
0.141331
0.14471
0.147162
0.148606
0.148957
0.148115
0.145941
0.142242
0.136784
0.129324
0.119706
0.10787
0.0940052
0.0778348
0.060396
0.0372134
0.0197077
0.214284
0.122292
0.114627
0.125612
0.129996
0.131124
0.132054
0.13317
0.134217
0.135074
0.135767
0.136343
0.136823
0.137216
0.137527
0.137769
0.137948
0.138063
0.138124
0.138151
0.13817
0.138204
0.138261
0.138331
0.138395
0.13842
0.138366
0.138196
0.137876
0.137396
0.136782
0.136095
0.13544
0.134953
0.134781
0.135059
0.135874
0.137241
0.139082
0.141223
0.14341
0.145342
0.146716
0.147276
0.146837
0.14531
0.142687
0.139046
0.134523
0.129307
0.123653
0.117926
0.11264
0.108426
0.105896
0.105452
0.107146
0.110672
0.115501
0.121022
0.126701
0.132137
0.137054
0.141267
0.144653
0.147118
0.148579
0.148951
0.148133
0.145987
0.142319
0.136895
0.129474
0.119902
0.108123
0.0943262
0.0782255
0.0608952
0.0377213
0.0203104
0.220381
0.119086
0.114231
0.125661
0.129976
0.131117
0.132061
0.133184
0.134234
0.135094
0.135789
0.136367
0.136849
0.137243
0.137555
0.137799
0.137979
0.138095
0.138157
0.138185
0.138205
0.138239
0.138296
0.138367
0.138431
0.138455
0.1384
0.13823
0.137908
0.137429
0.136814
0.136126
0.13547
0.134983
0.134811
0.135088
0.135903
0.137269
0.139107
0.141248
0.143433
0.145365
0.146741
0.147304
0.146869
0.145347
0.142731
0.139095
0.134578
0.129367
0.123717
0.117994
0.112711
0.108494
0.105952
0.105489
0.107157
0.110652
0.11546
0.120962
0.12663
0.132061
0.136978
0.141199
0.144596
0.147075
0.148554
0.148949
0.148155
0.146034
0.142395
0.137003
0.12962
0.120094
0.108365
0.0946301
0.0785919
0.0613563
0.0381992
0.0209086
0.225108
0.117143
0.114006
0.125688
0.129954
0.131093
0.132045
0.133174
0.134227
0.135089
0.135785
0.136363
0.136846
0.13724
0.137553
0.137797
0.137977
0.138094
0.138156
0.138184
0.138205
0.13824
0.138298
0.138369
0.138433
0.138457
0.138403
0.138231
0.137909
0.137428
0.136812
0.136124
0.135469
0.134982
0.134812
0.13509
0.135905
0.137271
0.139109
0.14125
0.143436
0.145368
0.146746
0.147312
0.146882
0.145365
0.142753
0.139123
0.134611
0.129404
0.123758
0.118038
0.112755
0.108533
0.105981
0.105499
0.107143
0.110617
0.115406
0.120896
0.126557
0.131987
0.136907
0.141135
0.144543
0.147037
0.148532
0.148946
0.148174
0.146077
0.142465
0.137102
0.129753
0.120267
0.108583
0.0949015
0.0789146
0.0617605
0.0386082
0.021468
)
;

boundaryField
{
    inlet
    {
        type            zeroGradient;
    }
    outlet
    {
        type            fixedValue;
        value           uniform 0;
    }
    fixedWalls
    {
        type            zeroGradient;
    }
    frontAndBack
    {
        type            empty;
    }
}


// ************************************************************************* //
