/*--------------------------------*- C++ -*----------------------------------*\
| =========                 |                                                 |
| \\      /  F ield         | OpenFOAM: The Open Source CFD Toolbox           |
|  \\    /   O peration     | Version:  v1912                                 |
|   \\  /    A nd           | Website:  www.openfoam.com                      |
|    \\/     M anipulation  |                                                 |
\*---------------------------------------------------------------------------*/
FoamFile
{
    version     2.0;
    format      ascii;
    class       surfaceScalarField;
    location    "225";
    object      phi;
}
// * * * * * * * * * * * * * * * * * * * * * * * * * * * * * * * * * * * * * //

dimensions      [0 3 -1 0 0 0 0];
oriented        oriented;


internalField   nonuniform List<scalar> 
3895
(
0.000814744
0.000381432
0.000499355
0.000315389
0.000251555
0.0002478
6.48522e-05
0.000186703
-6.22079e-05
0.00012706
-0.000127354
6.51461e-05
-0.000137681
1.03272e-05
-0.000113671
-2.401e-05
-9.02073e-05
-2.34641e-05
-8.464e-05
-5.56727e-06
-6.60774e-05
-1.85626e-05
-4.5189e-05
-2.08884e-05
-4.09097e-05
-4.27937e-06
-4.78896e-05
6.97988e-06
-4.12125e-05
-6.67707e-06
-2.19145e-05
-1.92979e-05
-8.53774e-06
-1.33768e-05
-2.8739e-06
-5.66384e-06
2.7191e-07
-3.14581e-06
5.49711e-06
-5.2252e-06
1.68913e-05
-1.13942e-05
3.29665e-05
-1.60752e-05
5.02143e-05
-1.72478e-05
6.46449e-05
-1.44306e-05
7.43232e-05
-9.67832e-06
7.85345e-05
-4.21125e-06
7.75216e-05
1.01291e-06
7.21008e-05
5.42079e-06
6.46999e-05
7.40089e-06
5.69062e-05
7.79367e-06
4.95878e-05
7.31838e-06
4.35452e-05
6.04263e-06
3.94784e-05
4.06682e-06
3.78024e-05
1.67595e-06
3.98098e-05
-2.00741e-06
4.48207e-05
-5.01088e-06
5.22503e-05
-7.42955e-06
6.13534e-05
-9.1032e-06
7.09416e-05
-9.58817e-06
7.95081e-05
-8.56646e-06
8.55229e-05
-6.01479e-06
8.63207e-05
-7.97862e-07
7.95233e-05
6.79738e-06
6.49452e-05
1.45782e-05
4.19064e-05
2.30388e-05
1.07046e-05
3.12018e-05
-2.76602e-05
3.83648e-05
-7.19354e-05
4.42752e-05
-0.000121277
4.93414e-05
-0.000175214
5.39373e-05
-0.000233671
5.84573e-05
-0.000296394
6.27231e-05
-0.000363517
6.71225e-05
-0.000436264
7.27473e-05
-0.000514849
7.8585e-05
-0.000596244
8.13944e-05
-0.000673858
7.76142e-05
-0.000738869
6.50106e-05
-0.00078003
4.11614e-05
-0.000782115
2.08483e-06
-0.000753839
-2.82758e-05
-0.00069922
-5.4619e-05
-0.000624771
-7.4449e-05
-0.000537796
-8.69754e-05
-0.000444704
-9.30914e-05
-0.000349947
-9.47574e-05
-0.000255925
-9.40217e-05
-0.000163583
-9.23423e-05
-7.30432e-05
-9.05397e-05
1.60103e-05
-8.90535e-05
0.000103528
-8.75173e-05
0.000190991
-8.74629e-05
0.000278499
-8.75081e-05
0.000365697
-8.71987e-05
0.00045208
-8.63828e-05
0.00053745
-8.53698e-05
0.000621641
-8.41911e-05
0.000707141
-8.54997e-05
0.000793613
-8.64722e-05
-0.000108372
0.00108795
0.000349296
0.00104738
0.000355953
0.000933267
0.000361914
0.000775723
0.000344247
0.000598392
0.000304391
0.000410343
0.000253195
0.000221216
0.000199454
5.38393e-05
0.000143367
-6.0566e-05
9.09413e-05
-0.000110325
4.41915e-05
-0.000131862
2.97432e-06
-0.000123986
-2.87638e-05
-0.000106743
-2.15222e-05
-0.00011015
1.03867e-05
-0.000108208
-8.61924e-06
-9.91399e-05
-2.83662e-05
-8.84348e-05
-2.40819e-05
-9.15449e-05
-2.55376e-06
-9.95552e-05
4.86456e-06
-0.00010395
-8.30579e-07
-0.000101643
-1.3701e-05
-9.40387e-05
-2.36795e-05
-8.28921e-05
-2.83944e-05
-6.91085e-05
-2.82142e-05
-5.52601e-05
-2.35267e-05
-4.32115e-05
-1.62598e-05
-3.39934e-05
-8.20515e-06
-2.74492e-05
-1.1234e-06
-2.55017e-05
5.45337e-06
-2.68958e-05
9.18777e-06
-3.06505e-05
1.10731e-05
-3.56003e-05
1.09924e-05
-4.0388e-05
8.85452e-06
-4.36084e-05
4.89636e-06
-4.45196e-05
-1.09623e-06
-4.23543e-05
-7.17617e-06
-3.73394e-05
-1.24444e-05
-3.06172e-05
-1.58254e-05
-2.40358e-05
-1.61696e-05
-1.99188e-05
-1.26834e-05
-2.0743e-05
-5.19066e-06
-2.91023e-05
7.56146e-06
-4.48368e-05
2.25319e-05
-6.99667e-05
3.97081e-05
-0.000104251
5.73234e-05
-0.000146142
7.30929e-05
-0.000192906
8.51282e-05
-0.000241261
9.26308e-05
-0.00028752
9.56002e-05
-0.000327961
9.43777e-05
-0.000359592
9.00889e-05
-0.000380665
8.37957e-05
-0.000390453
7.69112e-05
-0.000388882
7.11759e-05
-0.000375376
6.50794e-05
-0.000349229
5.52475e-05
-0.000309324
3.77088e-05
-0.000256462
1.2149e-05
-0.000193873
-2.14278e-05
-0.000128113
-6.36749e-05
-5.86403e-05
-9.77489e-05
1.08493e-05
-0.000124109
7.84658e-05
-0.000142065
0.00014368
-0.000152189
0.000206838
-0.00015625
0.000268336
-0.000156255
0.000328347
-0.000154033
0.000386989
-0.000150983
0.000444477
-0.000148028
0.000501062
-0.000145638
0.000557432
-0.000143887
0.00061264
-0.000142671
0.000666583
-0.000141451
0.000719068
-0.000139683
0.000769873
-0.000137188
0.000818742
-0.000134239
0.00086601
-0.000131458
0.000911126
-0.000130616
0.000956357
-0.000131703
-0.000144767
0.000975283
0.000305928
0.00102604
0.000305195
0.00106097
0.000326988
0.00105861
0.000346605
0.00101215
0.000350848
0.000925012
0.000340336
0.000805693
0.000318773
0.000661685
0.000287375
0.000504768
0.000247859
0.000345507
0.000203453
0.000189887
0.000158594
4.73127e-05
0.00011381
-4.86676e-05
7.44581e-05
-8.48484e-05
4.65676e-05
-0.000106143
1.26757e-05
-0.000116876
-1.76331e-05
-0.000110047
-3.09115e-05
-0.000106946
-5.65512e-06
-0.00012075
1.86694e-05
-0.000135711
1.41306e-05
-0.000148763
-6.49399e-07
-0.000159444
-1.29984e-05
-0.000163275
-2.45639e-05
-0.000161894
-2.95948e-05
-0.000157727
-2.76937e-05
-0.000152713
-2.12736e-05
-0.00014896
-1.19582e-05
-0.000148911
-1.17311e-06
-0.000151023
7.56528e-06
-0.000157334
1.54989e-05
-0.000166913
2.06519e-05
-0.000178117
2.21966e-05
-0.000188926
1.9664e-05
-0.0001971
1.30697e-05
-0.000201449
3.25323e-06
-0.000201148
-7.4777e-06
-0.00019568
-1.79121e-05
-0.000185912
-2.55931e-05
-0.00017417
-2.79113e-05
-0.000163381
-2.34731e-05
-0.00015681
-1.17611e-05
-0.000154766
5.51721e-06
-0.000160004
2.77695e-05
-0.000173628
5.33325e-05
-0.000195047
7.87425e-05
-0.000222086
0.000100131
-0.000250981
0.000114023
-0.000276459
0.000118109
-0.00029266
0.000111801
-0.000294567
9.62844e-05
-0.00027806
7.35821e-05
-0.000242552
4.82877e-05
-0.000186872
2.1231e-05
-0.000114308
-1.3882e-06
-2.58692e-05
-2.33594e-05
7.18409e-05
-4.24626e-05
0.000170052
-6.05022e-05
0.000262488
-8.02868e-05
0.000344275
-0.000103215
0.00040893
-0.00012833
0.00046227
-0.000151089
0.000507092
-0.00016893
0.000546282
-0.000181256
0.000582625
-0.000188533
0.000617894
-0.000191519
0.000652928
-0.00019129
0.000687931
-0.000189036
0.000722754
-0.000185807
0.000757083
-0.000182357
0.000790518
-0.000179074
0.000822609
-0.000175978
0.000852764
-0.000172825
0.000880539
-0.000169226
0.000905691
-0.000164835
0.000928119
-0.000159616
0.000947803
-0.000153923
0.000964928
-0.000148583
0.000979059
-0.000144747
0.000991216
-0.00014386
-0.000149593
0.000857109
0.000271376
0.000897356
0.000264948
0.000950166
0.000274178
0.00100471
0.000292063
0.00104637
0.000309184
0.00106529
0.000321413
0.00105661
0.000327461
0.00101787
0.000326111
0.000949426
0.000316303
0.000854876
0.000298002
0.00074062
0.00027285
0.000611551
0.000242879
0.000476156
0.000209853
0.000347968
0.000174755
0.000223132
0.000137512
0.000102198
0.000103302
1.29811e-06
6.9988e-05
-4.97667e-05
4.54097e-05
-6.2955e-05
3.18576e-05
-6.90995e-05
2.02751e-05
-7.99004e-05
1.01514e-05
-9.43867e-05
1.48795e-06
-0.000112989
-5.96209e-06
-0.000132188
-1.03951e-05
-0.000147107
-1.27745e-05
-0.000157009
-1.13724e-05
-0.00016377
-5.19707e-06
-0.000169439
4.49641e-06
-0.000176479
1.46053e-05
-0.000185457
2.44763e-05
-0.000196404
3.15994e-05
-0.000208294
3.40866e-05
-0.000219294
3.06634e-05
-0.00022719
2.09658e-05
-0.000229438
5.50164e-06
-0.000227583
-9.3332e-06
-0.00021807
-2.74248e-05
-0.000200896
-4.27671e-05
-0.000178587
-5.02199e-05
-0.000153253
-4.88075e-05
-0.000127576
-3.7438e-05
-0.000105761
-1.62979e-05
-8.52275e-05
7.23606e-06
-6.92723e-05
3.73773e-05
-5.77188e-05
6.7189e-05
-4.92447e-05
9.16573e-05
-4.1683e-05
0.000106462
-3.22891e-05
0.000108715
-1.7735e-05
9.72471e-05
6.33031e-06
7.22191e-05
4.4558e-05
3.53544e-05
9.66848e-05
-3.83908e-06
0.000161383
-4.34672e-05
0.000238156
-7.81616e-05
0.000321473
-0.000106676
0.000407934
-0.000128924
0.000493737
-0.000146305
0.000574411
-0.000160961
0.000645677
-0.00017448
0.000704607
-0.00018726
0.000751887
-0.00019837
0.000789664
-0.000206706
0.000820241
-0.000211833
0.00084557
-0.000213861
0.000867264
-0.000213213
0.000886485
-0.000210511
0.000903905
-0.000206455
0.000919777
-0.000201678
0.000934037
-0.000196617
0.000946418
-0.000191455
0.000956573
-0.000186133
0.000964188
-0.00018044
0.000969097
-0.000174136
0.000971352
-0.00016709
0.000971158
-0.000159422
0.000968771
-0.000151537
0.00096441
-0.000144222
0.000957941
-0.000138278
0.000949408
-0.000135326
-0.000135961
0.000759397
0.000238013
0.000790536
0.000233809
0.000828353
0.000236361
0.000874989
0.000245427
0.000927007
0.000257165
0.000978877
0.000269544
0.00102441
0.000281925
0.00105753
0.000292991
0.00107314
0.000300697
0.00106777
0.000303374
0.00104026
0.000300355
0.000991288
0.000291853
0.000922797
0.000278345
0.000838231
0.000259321
0.000740724
0.000235018
0.000635651
0.000208374
0.00053105
0.000174589
0.000433263
0.000143197
0.000349066
0.000116054
0.000276949
9.23919e-05
0.000214654
7.24468e-05
0.000160285
5.58567e-05
0.00011188
4.24428e-05
7.01274e-05
3.13578e-05
3.54698e-05
2.18831e-05
9.65431e-06
1.4443e-05
-5.91236e-06
1.03696e-05
-1.23549e-05
1.0939e-05
-1.40777e-05
1.63281e-05
-1.4239e-05
2.46376e-05
-1.4757e-05
3.21175e-05
-1.58759e-05
3.52055e-05
-1.68461e-05
3.16336e-05
-1.63401e-05
2.04598e-05
-1.38128e-05
2.97431e-06
-7.06226e-06
-1.60838e-05
2.60304e-06
-3.70901e-05
1.44169e-05
-5.45809e-05
3.08302e-05
-6.66333e-05
5.27492e-05
-7.07265e-05
8.0847e-05
-6.55359e-05
0.000115329
-5.07801e-05
0.000151165
-2.86e-05
0.000189626
-1.08368e-06
0.000229824
2.69911e-05
0.000271394
5.00878e-05
0.000314532
6.33229e-05
0.000360045
6.32025e-05
0.000408992
4.83005e-05
0.000461193
2.00176e-05
0.00051677
-2.02224e-05
0.000575883
-6.29521e-05
0.000636649
-0.000104233
0.000697901
-0.000139414
0.000757629
-0.000166403
0.000813984
-0.000185279
0.000865258
-0.000197579
0.000909801
-0.000205504
0.000946297
-0.000210977
0.000974118
-0.000215082
0.000993743
-0.000217995
0.00100643
-0.000219396
0.00101363
-0.000219027
0.00101666
-0.000216891
0.00101664
-0.000213202
0.00101443
-0.000208298
0.00101054
-0.000202561
0.00100519
-0.000196334
0.000998429
-0.000189852
0.000990174
-0.0001832
0.000980364
-0.000176323
0.000969019
-0.000169095
0.000956284
-0.0001614
0.000942416
-0.000153223
0.000927717
-0.000144722
0.000912423
-0.000136243
0.000896611
-0.00012841
0.000880092
-0.000121759
0.000862397
-0.000117631
-0.000115708
0.000672434
0.000206416
0.000702275
0.000203967
0.000733373
0.000205264
0.000767842
0.000210958
0.000806619
0.000218388
0.000850045
0.000226118
0.000897313
0.000234657
0.000946044
0.00024426
0.000992648
0.000254093
0.00103305
0.000262976
0.00106346
0.000269942
0.00108109
0.000274218
0.00108428
0.000275158
0.00107177
0.000271828
0.00104321
0.000263578
0.00100031
0.000251274
0.000948082
0.000226821
0.00089062
0.00020066
0.000831013
0.00017566
0.000771667
0.000151738
0.000714575
0.000129539
0.000660855
0.000109577
0.000611252
9.20454e-05
0.000565859
7.6751e-05
0.000524179
6.35629e-05
0.000485917
5.27052e-05
0.000451748
4.4539e-05
0.000423478
3.92083e-05
0.000403403
3.6404e-05
0.000392986
3.50543e-05
0.000391851
3.32526e-05
0.000398114
2.89424e-05
0.000409126
2.06214e-05
0.000422173
7.41279e-06
0.000434941
-9.79362e-06
0.000446833
-2.79762e-05
0.000454794
-4.50509e-05
0.000458594
-5.83804e-05
0.000458332
-6.63719e-05
0.000455862
-6.82565e-05
0.000454381
-6.40545e-05
0.000458182
-5.45814e-05
0.000470872
-4.12893e-05
0.000495307
-2.55194e-05
0.000531468
-9.16959e-06
0.000576733
4.82273e-06
0.000628083
1.19726e-05
0.000683588
7.69837e-06
0.000741766
-9.87845e-06
0.00080137
-3.95856e-05
0.000858301
-7.7154e-05
0.000911439
-0.00011609
0.000958647
-0.000151441
0.000998983
-0.00017975
0.00103215
-0.000199575
0.00105826
-0.000211383
0.00107755
-0.000216874
0.00109023
-0.000218183
0.00109645
-0.00021719
0.00109648
-0.000215119
0.00109097
-0.000212475
0.00108084
-0.000209271
0.00106719
-0.000205374
0.00105102
-0.000200719
0.00103317
-0.000195361
0.00101431
-0.000189432
0.00099485
-0.000183102
0.000975046
-0.00017653
0.000955019
-0.000169826
0.00093484
-0.00016302
0.000914587
-0.00015607
0.000894385
-0.000148894
0.000874404
-0.000141419
0.000854821
-0.00013364
0.000835763
-0.000125664
0.000817241
-0.000117721
0.000799103
-0.000110272
0.000780977
-0.000103633
0.000762361
-9.90156e-05
-9.54627e-05
0.000594386
0.000177667
0.00062317
0.000175183
0.000652324
0.00017611
0.000682117
0.000181165
0.000712928
0.000187577
0.000745619
0.000193427
0.000781191
0.000199085
0.00082021
0.000205242
0.000862434
0.000211869
0.000906738
0.000218672
0.000951256
0.000225424
0.000993708
0.000231767
0.00103176
0.00023711
0.001063
0.000240586
0.00108526
0.000241315
0.00109741
0.000239129
0.00109956
0.000224666
0.00109343
0.000206793
0.00108056
0.000188526
0.00106244
0.000169861
0.00104068
0.000151298
0.00101678
0.000133478
0.00099198
0.000116846
0.000967099
0.000101632
0.000942636
8.80256e-05
0.000919064
7.6277e-05
0.000897044
6.65598e-05
0.000877531
5.87206e-05
0.00086182
5.21155e-05
0.000851285
4.55886e-05
0.000846829
3.77088e-05
0.000848502
2.72693e-05
0.000855494
1.36302e-05
0.000866117
-3.21027e-06
0.000877888
-2.15649e-05
0.000889066
-3.91545e-05
0.000898013
-5.39973e-05
0.000903974
-6.43416e-05
0.000906699
-6.9097e-05
0.00090648
-6.8038e-05
0.000904117
-6.16915e-05
0.000900855
-5.1319e-05
0.000898329
-3.87631e-05
0.000898952
-2.61425e-05
0.000905685
-1.59025e-05
0.000921324
-1.08166e-05
0.000946987
-1.36899e-05
0.00098089
-2.62053e-05
0.00101918
-4.81669e-05
0.00105711
-7.75219e-05
0.00109034
-0.000110383
0.00111636
-0.000142103
0.00113383
-0.000168912
0.00114274
-0.000188664
0.00114399
-0.000200825
0.00113886
-0.000206252
0.00112861
-0.000206623
0.00111425
-0.000203823
0.00109651
-0.000199456
0.00107598
-0.000194587
0.00105321
-0.000189707
0.00102883
-0.000184886
0.00100346
-0.000180009
0.0009777
-0.000174955
0.000952008
-0.000169669
0.000926736
-0.00016416
0.00090211
-0.000158476
0.000878256
-0.000152677
0.000855237
-0.000146806
0.000833084
-0.000140867
0.000811832
-0.000134819
0.000791527
-0.000128588
0.000772206
-0.000122099
0.000753873
-0.000115306
0.000736454
-0.000108246
0.000719771
-0.000101038
0.000703539
-9.40401e-05
0.000687302
-8.73956e-05
0.000670716
-8.24296e-05
-7.72593e-05
0.000525111
0.000151817
0.000551937
0.000148357
0.000579147
0.000148899
0.00060647
0.000153843
0.00063401
0.000160036
0.000661959
0.000165478
0.000690637
0.000170407
0.000720618
0.000175261
0.000752555
0.000179932
0.000786906
0.000184321
0.000823774
0.000188556
0.000862808
0.000192732
0.000903194
0.000196724
0.000943642
0.000200138
0.000982511
0.000202446
0.00101828
0.000203357
0.00104864
0.000194309
0.00107317
0.000182263
0.00109208
0.000169621
0.0011057
0.000156231
0.00111464
0.000142357
0.00111964
0.000128479
0.00112147
0.000115022
0.00112081
0.000102293
0.00111829
9.05405e-05
0.00111458
7.9987e-05
0.00111043
7.07154e-05
0.00110666
6.24908e-05
0.00110411
5.466e-05
0.00110348
4.62224e-05
0.00110508
3.6104e-05
0.00110877
2.35782e-05
0.00111371
8.69439e-06
0.00111869
-8.18527e-06
0.0011223
-2.5183e-05
0.00112378
-4.06278e-05
0.00112269
-5.29098e-05
0.00111915
-6.08041e-05
0.00111375
-6.36919e-05
0.0011074
-6.16903e-05
0.00110128
-5.55682e-05
0.00109661
-4.66529e-05
0.00109452
-3.66726e-05
0.00109593
-2.75517e-05
0.0011014
-2.13762e-05
0.00111096
-2.03782e-05
0.00112374
-2.64685e-05
0.00113792
-4.03875e-05
0.00115103
-6.12706e-05
0.00116032
-8.68154e-05
0.00116364
-0.000113698
0.00115995
-0.000138418
0.00114935
-0.00015831
0.00113275
-0.000172065
0.00111156
-0.00017963
0.00108722
-0.000181915
0.00106095
-0.000180357
0.00103361
-0.000176482
0.00100572
-0.000171566
0.000977598
-0.000166464
0.000949482
-0.00016159
0.000921622
-0.000157026
0.000894286
-0.000152673
0.000867728
-0.000148397
0.000842153
-0.000144093
0.000817702
-0.000139709
0.000794453
-0.000135228
0.000772432
-0.000130655
0.000751624
-0.000125999
0.000731999
-0.000121242
0.000713521
-0.00011634
0.000696146
-0.000111213
0.000679812
-0.000105765
0.000664412
-9.99054e-05
0.000649765
-9.35993e-05
0.000635616
-8.68885e-05
0.000621646
-8.00699e-05
0.000607434
-7.3184e-05
0.000592759
-6.77544e-05
-6.08863e-05
0.00046394
0.000128552
0.00048864
0.000123657
0.000513481
0.000124058
0.000538161
0.000129163
0.000563126
0.000135071
0.000588451
0.000140153
0.000613979
0.000144879
0.000639776
0.000149463
0.000666101
0.000153607
0.000693273
0.000157149
0.000721653
0.000160176
0.000751587
0.000162798
0.000783275
0.000165037
0.000816632
0.000166781
0.000851232
0.000167845
0.000886448
0.000168142
0.000920145
0.000160611
0.000951432
0.000150975
0.000979908
0.000141145
0.00100526
0.000130878
0.00102737
0.000120248
0.00104632
0.000109535
0.00106231
9.90288e-05
0.00107564
8.89589e-05
0.00108667
7.95092e-05
0.00109584
7.08186e-05
0.00110366
6.28936e-05
0.00111067
5.54866e-05
0.00111728
4.80448e-05
0.00112371
3.97987e-05
0.00112981
3.00008e-05
0.00113515
1.82368e-05
0.00113908
4.76832e-06
0.00114074
-9.84417e-06
0.00113966
-2.41106e-05
0.00113574
-3.67066e-05
0.00112924
-4.6407e-05
0.0011208
-5.23676e-05
0.00111136
-5.42491e-05
0.00110196
-5.22899e-05
0.00109363
-4.72405e-05
0.00108724
-4.02592e-05
0.00108336
-3.27983e-05
0.0010823
-2.64827e-05
0.00108394
-2.30203e-05
0.00108763
-2.40639e-05
0.001092
-3.08401e-05
0.00109523
-4.36234e-05
0.00109543
-6.14679e-05
0.00109099
-8.2375e-05
0.00108102
-0.000103733
0.00106556
-0.000122949
0.00104535
-0.000138101
0.00102156
-0.000148282
0.000995467
-0.000153533
0.000968165
-0.000154612
0.000940484
-0.000152676
0.00091295
-0.000148948
0.000885855
-0.00014447
0.000859344
-0.000139953
0.000833515
-0.000135761
0.000808466
-0.000131977
0.000784309
-0.000128516
0.000761153
-0.000125241
0.000739084
-0.000122024
0.000718152
-0.000118777
0.000698372
-0.000115448
0.000679727
-0.000112011
0.000662179
-0.00010845
0.000645676
-0.00010474
0.000630163
-0.000100827
0.000615575
-9.66254e-05
0.000601822
-9.2012e-05
0.00058876
-8.68436e-05
0.000576179
-8.10175e-05
0.000563813
-7.45229e-05
0.000551366
-6.76228e-05
0.000538521
-6.03391e-05
0.000525082
-5.43154e-05
-4.58563e-05
0.000410014
0.000107502
0.000432754
0.000100917
0.000455184
0.000101628
0.000477155
0.000107192
0.000499459
0.000112767
0.000522209
0.000117403
0.000545212
0.000121876
0.000568453
0.000126222
0.000591958
0.000130102
0.000615713
0.000133395
0.000639761
0.000136128
0.000664247
0.000138312
0.000689366
0.000139918
0.000715279
0.000140867
0.000742053
0.000141071
0.000769667
0.000140528
0.000796831
0.000133447
0.000823057
0.00012475
0.000848097
0.000116104
0.000871649
0.000107325
0.000893463
9.84345e-05
0.000913395
8.96027e-05
0.000931405
8.10184e-05
0.000947537
7.28268e-05
0.000961913
6.51337e-05
0.000974733
5.79981e-05
0.000986255
5.13718e-05
0.00099672
4.50216e-05
0.00100626
3.85058e-05
0.0010148
3.12551e-05
0.00102205
2.27571e-05
0.0010275
1.27787e-05
0.0010307
1.57369e-06
0.00103113
-1.02734e-05
0.00102871
-2.16919e-05
0.0010236
-3.15925e-05
0.00101626
-3.90669e-05
0.00100742
-4.35332e-05
0.000997982
-4.481e-05
0.000988854
-4.31621e-05
0.000980865
-3.92512e-05
0.000974651
-3.40457e-05
0.000970581
-2.87283e-05
0.000968694
-2.45953e-05
0.000968631
-2.29572e-05
0.000969576
-2.50092e-05
0.000970309
-3.15731e-05
0.000969432
-4.27465e-05
0.000965679
-5.77145e-05
0.000958183
-7.48786e-05
0.000946651
-9.22018e-05
0.000931369
-0.000107667
0.000913011
-0.000119743
0.000892396
-0.000127667
0.000870316
-0.000131453
0.000847432
-0.000131728
0.00082424
-0.000129483
0.000801081
-0.00012579
0.000778182
-0.000121571
0.000755694
-0.000117465
0.000733733
-0.000113801
0.000712409
-0.000110652
0.000691825
-0.000107932
0.000672074
-0.000105489
0.000653221
-0.000103172
0.000635304
-0.00010086
0.000618328
-9.84718e-05
0.000602274
-9.59564e-05
0.000587104
-9.32806e-05
0.000572772
-9.04075e-05
0.000559228
-8.72841e-05
0.000546414
-8.3811e-05
0.000534235
-7.98325e-05
0.000522539
-7.51483e-05
0.000511117
-6.95954e-05
0.000499737
-6.31429e-05
0.000488154
-5.60399e-05
0.000476186
-4.83711e-05
0.000463593
-4.17223e-05
-3.2009e-05
0.000362528
8.82944e-05
0.000383496
7.99481e-05
0.000403598
8.15271e-05
0.000423066
8.77241e-05
0.000442884
9.29493e-05
0.000463084
9.72029e-05
0.000483533
0.000101427
0.00050431
0.000105445
0.000525438
0.000108974
0.000546832
0.000112001
0.000568405
0.000114555
0.000590112
0.000116605
0.000611942
0.000118088
0.000633893
0.000118916
0.000655969
0.000118995
0.000678192
0.000118305
0.000699655
0.000111984
0.000720158
0.000104247
0.000739698
9.65651e-05
0.000758185
8.8838e-05
0.000775517
8.11024e-05
0.000791621
7.34986e-05
0.000806465
6.61743e-05
0.000820058
5.9234e-05
0.000832454
5.27382e-05
0.000843753
4.66984e-05
0.000854087
4.10381e-05
0.000863562
3.55467e-05
0.000872195
2.98724e-05
0.000879858
2.35927e-05
0.000886261
1.6354e-05
0.000891009
8.03024e-06
0.000893747
-1.16388e-06
0.000894193
-1.07191e-05
0.000892305
-1.98039e-05
0.000888256
-2.75443e-05
0.000882444
-3.32541e-05
0.000875442
-3.65317e-05
0.000867934
-3.73014e-05
0.000860613
-3.58418e-05
0.000854105
-3.2743e-05
0.000848886
-2.88264e-05
0.00084522
-2.50627e-05
0.000843113
-2.24881e-05
0.000842275
-2.2119e-05
0.000842106
-2.48405e-05
0.00084175
-3.12174e-05
0.000840255
-4.12511e-05
0.000836783
-5.42425e-05
0.000830779
-6.88742e-05
0.000822043
-8.34661e-05
0.000810703
-9.63275e-05
0.000797093
-0.000106133
0.000781618
-0.000112193
0.000764683
-0.000114518
0.000746662
-0.000113707
0.000727897
-0.000110719
0.000708698
-0.00010659
0.000689334
-0.000102208
0.000670039
-9.81695e-05
0.000651006
-9.47682e-05
0.000632399
-9.20448e-05
0.000614349
-8.98828e-05
0.000596958
-8.80982e-05
0.000580291
-8.65051e-05
0.000564381
-8.49493e-05
0.000549229
-8.33195e-05
0.000534812
-8.15397e-05
0.000521095
-7.9564e-05
0.000508038
-7.73502e-05
0.0004956
-7.48457e-05
0.000483726
-7.19377e-05
0.000472331
-6.84369e-05
0.000461278
-6.4096e-05
0.000450398
-5.87151e-05
0.000439531
-5.22754e-05
0.000428512
-4.50216e-05
0.000417297
-3.71558e-05
0.000405569
-2.99941e-05
-1.95281e-05
0.000320758
7.05696e-05
0.000340087
6.06187e-05
0.000357963
6.36512e-05
0.000375208
7.04792e-05
0.000392823
7.53343e-05
0.000410695
7.93304e-05
0.000428765
8.33567e-05
0.000447175
8.7036e-05
0.000465957
9.01911e-05
0.000485049
9.29093e-05
0.000504384
9.52204e-05
0.000523899
9.70898e-05
0.000543519
9.84674e-05
0.000563158
9.92776e-05
0.000582721
9.94319e-05
0.000602137
9.88896e-05
0.000620557
9.35637e-05
0.000637821
8.69826e-05
0.000653982
8.04039e-05
0.000669049
7.37707e-05
0.00068302
6.71316e-05
0.000695904
6.06146e-05
0.000707729
5.43495e-05
0.00071854
4.8423e-05
0.000728404
4.28742e-05
0.000737411
3.76914e-05
0.000745661
3.2788e-05
0.000753232
2.79759e-05
0.000760135
2.29694e-05
0.000766279
1.74492e-05
0.000771459
1.11737e-05
0.000775403
4.08625e-06
0.00077784
-3.60141e-06
0.000778555
-1.14336e-05
0.00077748
-1.87289e-05
0.000774722
-2.4786e-05
0.000770546
-2.9078e-05
0.00076535
-3.13364e-05
0.000759624
-3.15748e-05
0.00075388
-3.00982e-05
0.000748597
-2.74595e-05
0.000744155
-2.43851e-05
0.000740791
-2.16987e-05
0.000738553
-2.02496e-05
0.000737273
-2.08396e-05
0.000736563
-2.41302e-05
0.000735846
-3.05007e-05
0.00073447
-3.98748e-05
0.000731842
-5.16141e-05
0.000727535
-6.45673e-05
0.000721329
-7.72605e-05
0.000713183
-8.8181e-05
0.000703159
-9.61095e-05
0.000691371
-0.000100405
0.000677971
-0.000101118
0.000663174
-9.89101e-05
0.000647263
-9.48072e-05
0.000630566
-8.98938e-05
0.00061342
-8.50611e-05
0.000596129
-8.08784e-05
0.000578947
-7.75871e-05
0.000562075
-7.51722e-05
0.000545657
-7.34645e-05
0.000529791
-7.22329e-05
0.000514536
-7.12498e-05
0.000499911
-7.0324e-05
0.000485906
-6.93153e-05
0.000472492
-6.81256e-05
0.000459629
-6.67008e-05
0.000447277
-6.49982e-05
0.000435401
-6.29697e-05
0.000423959
-6.04952e-05
0.000412888
-5.73665e-05
0.000402107
-5.33152e-05
0.000391524
-4.81317e-05
0.000381078
-4.18289e-05
0.000370692
-3.46362e-05
0.000360429
-2.68923e-05
0.000349896
-1.9461e-05
-8.80064e-06
0.000284047
5.3996e-05
0.000301804
4.28612e-05
0.000317588
4.78677e-05
0.000332895
5.51723e-05
0.000348562
5.96668e-05
0.000364361
6.35317e-05
0.000380328
6.73893e-05
0.000396623
7.07418e-05
0.000413253
7.35602e-05
0.000430171
7.59921e-05
0.000447337
7.80541e-05
0.000464713
7.97137e-05
0.00048224
8.09408e-05
0.000499835
8.16821e-05
0.0005174
8.18667e-05
0.000534836
8.14543e-05
0.000551332
7.7067e-05
0.000566707
7.16081e-05
0.00058099
6.61205e-05
0.000594195
6.05659e-05
0.000606335
5.49921e-05
0.000617437
4.9512e-05
0.000627548
4.42388e-05
0.000636726
3.92449e-05
0.000645045
3.45548e-05
0.000652594
3.01431e-05
0.000659462
2.59199e-05
0.000665721
2.17165e-05
0.000671395
1.72952e-05
0.000676434
1.2411e-05
0.000680704
6.9035e-06
0.000684014
7.75596e-07
0.000686159
-5.74598e-06
0.00068696
-1.2235e-05
0.000686346
-1.81146e-05
0.000684372
-2.28115e-05
0.000681212
-2.59182e-05
0.000677147
-2.72716e-05
0.000672537
-2.69646e-05
0.000667776
-2.53372e-05
0.000663245
-2.29284e-05
0.000659262
-2.04022e-05
0.00065604
-1.84766e-05
0.000653651
-1.78609e-05
0.000652006
-1.9195e-05
0.000650851
-2.29745e-05
0.000649792
-2.94424e-05
0.000648375
-3.84572e-05
0.000646167
-4.94065e-05
0.000642827
-6.12274e-05
0.000638111
-7.25445e-05
0.000631844
-8.19133e-05
0.000623887
-8.8153e-05
0.000614154
-9.06715e-05
0.000602657
-8.96204e-05
0.000589551
-8.58042e-05
0.00057513
-8.03867e-05
0.000559775
-7.45383e-05
0.000543878
-6.91647e-05
0.000527793
-6.47927e-05
0.000511797
-6.15913e-05
0.000496093
-5.94683e-05
0.000480815
-5.81866e-05
0.000466042
-5.74599e-05
0.000451809
-5.70168e-05
0.000438116
-5.66312e-05
0.000424939
-5.61377e-05
0.000412235
-5.54217e-05
0.000399962
-5.44275e-05
0.000388081
-5.31181e-05
0.000376569
-5.14573e-05
0.000365406
-4.93318e-05
0.000354578
-4.6539e-05
0.000344082
-4.28186e-05
0.000333921
-3.79707e-05
0.00032413
-3.2038e-05
0.000314699
-2.52055e-05
0.000305754
-1.7947e-05
0.000296854
-1.05615e-05
-1.98509e-07
0.000251798
3.82841e-05
0.000267991
2.66678e-05
0.000281862
3.39974e-05
0.000295503
4.15313e-05
0.000309436
4.57338e-05
0.000323395
4.95723e-05
0.000337526
5.32581e-05
0.000351971
5.62974e-05
0.000366708
5.88234e-05
0.000381692
6.10073e-05
0.0003969
6.28465e-05
0.000412301
6.4313e-05
0.000427849
6.53923e-05
0.000443484
6.60473e-05
0.000459128
6.62228e-05
0.000474696
6.58861e-05
0.000489457
6.23058e-05
0.000503231
5.78339e-05
0.000516034
5.3318e-05
0.000527868
4.87315e-05
0.000538742
4.4119e-05
0.000548675
3.95789e-05
0.000557705
3.52083e-05
0.000565885
3.10656e-05
0.000573277
2.71627e-05
0.000579956
2.34638e-05
0.000585998
1.98773e-05
0.000591464
1.62507e-05
0.000596379
1.23805e-05
0.000600712
8.07814e-06
0.000604372
3.24361e-06
0.000607218
-2.07107e-06
0.000609098
-7.62591e-06
0.000609878
-1.30143e-05
0.000609491
-1.7728e-05
0.000607966
-2.12862e-05
0.000605421
-2.33739e-05
0.000602064
-2.39137e-05
0.000598167
-2.30682e-05
0.000594046
-2.1216e-05
0.000590013
-1.88951e-05
0.000586338
-1.67276e-05
0.000583213
-1.53515e-05
0.000580719
-1.53668e-05
0.000578811
-1.72871e-05
0.000577316
-2.14799e-05
0.000575956
-2.80818e-05
0.000574392
-3.68934e-05
0.000572282
-4.72967e-05
0.000569306
-5.8251e-05
0.000565158
-6.83974e-05
0.000559548
-7.63032e-05
0.000552223
-8.08282e-05
0.000543038
-8.14857e-05
0.000532016
-7.8599e-05
0.000519376
-7.31636e-05
0.000505481
-6.6492e-05
0.000490764
-5.98215e-05
0.000475642
-5.40422e-05
0.000460458
-4.96088e-05
0.000445464
-4.65974e-05
0.000430823
-4.48277e-05
0.000416629
-4.39919e-05
0.000402921
-4.37519e-05
0.000389704
-4.37998e-05
0.000376955
-4.38828e-05
0.000364637
-4.38191e-05
0.000352702
-4.34866e-05
0.000341109
-4.28346e-05
0.000329828
-4.1837e-05
0.000318847
-4.04769e-05
0.000308178
-3.8663e-05
0.000297863
-3.62233e-05
0.000287975
-3.29309e-05
0.000278606
-2.8602e-05
0.000269862
-2.32933e-05
0.000261766
-1.71093e-05
0.000254474
-1.06558e-05
0.000247534
-3.62149e-06
6.09849e-06
0.000223468
2.31984e-05
0.000238065
1.2071e-05
0.000250246
2.18159e-05
0.000262461
2.93161e-05
0.000274842
3.33534e-05
0.000287181
3.72328e-05
0.000299713
4.07261e-05
0.000312541
4.34701e-05
0.000325621
4.57434e-05
0.000338917
4.77109e-05
0.00035241
4.93538e-05
0.00036607
5.06525e-05
0.000379858
5.16043e-05
0.000393723
5.21828e-05
0.000407601
5.23441e-05
0.000421425
5.20629e-05
0.000434544
4.91859e-05
0.0004468
4.55784e-05
0.000458204
4.19136e-05
0.000468761
3.81748e-05
0.000478475
3.44051e-05
0.000487362
3.0692e-05
0.000495451
2.71196e-05
0.000502782
2.37345e-05
0.000509406
2.05382e-05
0.000515384
1.74862e-05
0.000520774
1.44869e-05
0.000525624
1.14005e-05
0.000529956
8.04873e-06
0.000533747
4.28668e-06
0.000536933
5.7614e-08
0.000539412
-4.55001e-06
0.000541067
-9.28065e-06
0.00054179
-1.37374e-05
0.00054152
-1.74576e-05
0.000540263
-2.00292e-05
0.000538101
-2.1212e-05
0.00053519
-2.10029e-05
0.000531751
-1.96292e-05
0.000528045
-1.75094e-05
0.000524337
-1.51874e-05
0.000520863
-1.32535e-05
0.000517791
-1.22798e-05
0.000515198
-1.2774e-05
0.000513053
-1.51423e-05
0.000511217
-1.96432e-05
0.000509453
-2.63178e-05
0.000507458
-3.48986e-05
0.00050489
-4.47289e-05
0.000501388
-5.4749e-05
0.000496595
-6.36046e-05
0.000490206
-6.99141e-05
0.000482034
-7.26558e-05
0.000472068
-7.15201e-05
0.000460492
-6.70231e-05
0.000447645
-6.03167e-05
0.000433948
-5.27948e-05
0.000419821
-4.56948e-05
0.000405621
-3.98421e-05
0.000391609
-3.55965e-05
0.000377949
-3.29372e-05
0.000364725
-3.16044e-05
0.000351968
-3.12346e-05
0.000339671
-3.14547e-05
0.000327807
-3.19357e-05
0.000316337
-3.24131e-05
0.000305219
-3.27005e-05
0.000294408
-3.26762e-05
0.000283871
-3.22972e-05
0.000273583
-3.15489e-05
0.000263544
-3.04377e-05
0.000253792
-2.89111e-05
0.000244418
-2.68501e-05
0.000235566
-2.40783e-05
0.000227388
-2.04245e-05
0.000220032
-1.59375e-05
0.00021353
-1.06066e-05
0.000208049
-5.17532e-06
0.000203151
1.27655e-06
1.01442e-05
0.00019856
8.56744e-06