/*--------------------------------*- C++ -*----------------------------------*\
| =========                 |                                                 |
| \\      /  F ield         | OpenFOAM: The Open Source CFD Toolbox           |
|  \\    /   O peration     | Version:  v1912                                 |
|   \\  /    A nd           | Website:  www.openfoam.com                      |
|    \\/     M anipulation  |                                                 |
\*---------------------------------------------------------------------------*/
FoamFile
{
    version     2.0;
    format      ascii;
    class       volVectorField;
    location    "225";
    object      U;
}
// * * * * * * * * * * * * * * * * * * * * * * * * * * * * * * * * * * * * * //

dimensions      [0 1 -1 0 0 0 0];


internalField   nonuniform List<vector> 
2000
(
(0.84616 0.187395 0)
(0.51513 0.12409 0)
(0.223442 0.0684432 0)
(0.0597986 0.0174437 6.19957e-20)
(-0.00455821 -0.0232186 1.29612e-17)
(-0.06422 -0.0384599 1.12482e-17)
(-0.0776243 -0.0372372 0)
(-0.0716135 -0.0167262 0)
(-0.0590593 0.0115253 0)
(-0.0420436 0.0253253 2.55264e-17)
(-0.0414235 0.0110394 -1.56498e-17)
(-0.0273958 -0.000601747 -1.46896e-17)
(-0.0167319 -0.00284967 0)
(-0.020056 -0.0026096 0)
(-0.0208763 -0.00242512 -1.16721e-17)
(-0.0141231 -0.00122127 0)
(-0.00520275 -6.6116e-05 1.05309e-17)
(-0.00157877 0.00277202 6.03827e-21)
(-0.00055324 0.00338786 1.0232e-17)
(0.000869007 0.00144201 -5.04584e-18)
(0.00358131 -0.00158232 9.91555e-18)
(0.00856949 -0.00365787 0)
(0.0145338 -0.00455862 0)
(0.0202135 -0.00453243 2.80631e-23)
(0.0244344 -0.00365888 0)
(0.0267561 -0.00216395 -4.65582e-18)
(0.0270699 -0.000370057 0)
(0.0254894 0.00125545 4.64666e-18)
(0.0228844 0.00248521 0)
(0.0200645 0.00312396 0)
(0.0174393 0.00318168 0)
(0.0151807 0.00278815 1.1844e-18)
(0.0134875 0.00209292 0)
(0.0125394 0.00124425 -6.04705e-19)
(0.0126091 0.00039797 2.03263e-14)
(0.0137854 -0.000451243 2.04156e-14)
(0.0158581 -0.00121771 6.34759e-19)
(0.0186182 -0.00180004 -6.46249e-19)
(0.0217579 -0.00212458 0)
(0.0248629 -0.00214769 2.68502e-18)
(0.02742 -0.00185238 0)
(0.0287735 -0.0012358 -2.7659e-18)
(0.0279841 -0.000270945 0)
(0.0246058 0.00143545 -5.66298e-18)
(0.0185816 0.00368239 2.83404e-18)
(0.00937779 0.00580341 0)
(-0.00281699 0.00725615 0)
(-0.0172682 0.00785154 -2.66496e-18)
(-0.0337693 0.00803168 0)
(-0.0521186 0.00854672 2.37572e-18)
(-0.0724643 0.00988187 0)
(-0.0951876 0.0117136 4.55753e-18)
(-0.120294 0.0137493 -4.47598e-18)
(-0.148134 0.0159694 4.43473e-18)
(-0.179531 0.016898 -2.13181e-18)
(-0.214259 0.0142582 0)
(-0.250793 0.00649122 2.03798e-18)
(-0.286326 -0.00686247 -1.94631e-18)
(-0.315597 -0.0248993 -4.1406e-18)
(-0.331699 -0.0440711 3.8978e-18)
(-0.33054 -0.0585119 -4.33212e-18)
(-0.317911 -0.066096 5.07662e-18)
(-0.295246 -0.0686392 -6.1223e-18)
(-0.264814 -0.0678691 7.40139e-18)
(-0.229231 -0.0648698 5.01662e-20)
(-0.190275 -0.0604819 1.08184e-17)
(-0.149103 -0.0552348 0)
(-0.106057 -0.0494265 0)
(-0.0611697 -0.043269 1.1015e-19)
(-0.0149714 -0.0369336 0)
(0.0329988 -0.0300809 2.18327e-17)
(0.0846652 -0.0230536 0)
(0.139361 -0.0150747 1.97276e-17)
(0.19798 -0.005932 -4.8896e-19)
(0.260517 0.00442777 1.6772e-17)
(0.328641 0.0159264 2.91257e-17)
(0.398913 0.0283032 7.04334e-19)
(0.484453 0.0412355 -9.91144e-18)
(0.54905 0.0529693 -6.38322e-18)
(0.706071 0.0634267 0)
(1.0153 0.210385 0)
(0.944632 0.194216 0)
(0.804469 0.17999 -3.74891e-18)
(0.654409 0.152321 7.75797e-18)
(0.509204 0.111176 0)
(0.360008 0.0683803 -7.86601e-18)
(0.216463 0.0293382 0)
(0.0820933 -0.00527367 0)
(-0.0282913 -0.0181011 0)
(-0.0563094 -0.0190231 -1.86774e-17)
(-0.0668367 -0.0247074 1.6991e-17)
(-0.0718065 -0.0153912 1.55842e-17)
(-0.0637467 0.00670169 0)
(-0.0518532 0.0196702 6.81377e-18)
(-0.0561833 0.00773483 0)
(-0.0514293 -0.00575336 0)
(-0.0425973 -0.00751984 0)
(-0.0387191 -0.00469756 5.62248e-18)
(-0.0420344 -0.00258139 -1.10531e-17)
(-0.0436703 -0.00275436 -5.43952e-18)
(-0.0436118 -0.00484982 0)
(-0.0409903 -0.00776003 0)
(-0.0364618 -0.00949724 0)
(-0.0306579 -0.00902712 -7.88662e-18)
(-0.0244934 -0.00657529 0)
(-0.018973 -0.0031178 5.30273e-18)
(-0.0143902 0.000299451 2.67342e-18)
(-0.0109961 0.00282511 0)
(-0.00960703 0.00414534 0)
(-0.00962909 0.00483376 0)
(-0.0106355 0.00490987 0)
(-0.0122403 0.00433932 -6.75599e-19)
(-0.0140181 0.00304562 0)
(-0.0154702 0.00104205 3.45548e-19)
(-0.016211 -0.00144673 1.73058e-19)
(-0.0159394 -0.00419831 0)
(-0.0145722 -0.00682614 0)
(-0.0123253 -0.0088113 7.39552e-19)
(-0.00978788 -0.00956409 0)
(-0.00772252 -0.00860179 -1.56388e-18)
(-0.00705989 -0.00570048 0)
(-0.00881228 -0.000888676 -1.6614e-18)
(-0.0134386 0.00587224 0)
(-0.0214059 0.0141298 1.52467e-18)
(-0.0331467 0.0229878 1.5853e-18)
(-0.0484356 0.0313214 0)
(-0.0665392 0.0383598 0)
(-0.086401 0.0438297 -2.60127e-18)
(-0.106524 0.0478142 0)
(-0.125091 0.0502655 -1.69963e-19)
(-0.140834 0.0512709 0)
(-0.153063 0.0515352 0)
(-0.161096 0.0521667 0)
(-0.164811 0.0537829 0)
(-0.164572 0.0549506 4.69806e-18)
(-0.16004 0.0530201 0)
(-0.150309 0.0452542 -5.07787e-18)
(-0.136297 0.0303609 2.66315e-18)
(-0.116239 0.00995033 -2.71443e-18)
(-0.0771076 -0.0133756 -6.04241e-18)
(-0.0374516 -0.040994 6.98248e-18)
(-0.0121095 -0.0674843 -8.35153e-18)
(0.0248687 -0.0840572 9.6511e-18)
(0.0589881 -0.0922664 0)
(0.0933226 -0.093851 -1.76614e-17)
(0.128974 -0.0910561 -1.27019e-17)
(0.166051 -0.0858393 0)
(0.204591 -0.0795354 6.93401e-18)
(0.244785 -0.0729231 1.45036e-17)
(0.286957 -0.0663972 0)
(0.331558 -0.0597389 0)
(0.378907 -0.0530502 0)
(0.428899 -0.0458029 0)
(0.481696 -0.0374825 -1.35635e-17)
(0.537361 -0.0278344 5.89365e-18)
(0.596815 -0.0168611 -1.15309e-17)
(0.658328 -0.00508787 9.93263e-18)
(0.729527 0.00675209 -3.4159e-18)
(0.786376 0.0161621 0)
(0.9038 0.0201384 0)
(0.978489 0.20154 0)
(0.978855 0.193013 -3.01494e-18)
(0.969154 0.205122 3.6984e-18)
(0.939079 0.208547 -3.2699e-18)
(0.878022 0.194625 3.0932e-18)
(0.785581 0.168739 3.05533e-18)
(0.669313 0.138097 0)
(0.540954 0.106034 0)
(0.408148 0.0750604 0)
(0.28583 0.0459087 7.4131e-18)
(0.173627 0.0179672 0)
(0.0719816 -0.0064239 0)
(-0.0210698 -0.0137453 0)
(-0.0458362 -0.00317754 -7.75248e-18)
(-0.0504152 -0.0111846 0)
(-0.0594184 -0.0173452 -6.5118e-18)
(-0.0616833 -0.0101631 0)
(-0.0541404 0.00882234 6.27932e-18)
(-0.0560814 0.0143561 3.05734e-18)
(-0.0626036 0.00870979 0)
(-0.0678975 -7.26672e-05 -2.92895e-18)
(-0.0726149 -0.00838572 0)
(-0.0744646 -0.0132798 0)
(-0.0738127 -0.0146897 5.63963e-18)
(-0.0713679 -0.0135411 0)
(-0.0682063 -0.0106262 1.42125e-18)
(-0.0653668 -0.00651707 -4.27108e-18)
(-0.0638802 -0.00182882 0)
(-0.0638661 0.0026063 0)
(-0.065373 0.00605557 -7.08403e-19)
(-0.0685176 0.0082743 0)
(-0.0727199 0.00896916 -6.63501e-21)
(-0.0771869 0.00796961 0)
(-0.0810355 0.00533043 6.93389e-19)
(-0.0835548 0.00139461 8.65381e-20)
(-0.0843385 -0.00302523 0)
(-0.0830544 -0.00739848 1.81179e-19)
(-0.0797881 -0.0105153 -3.78703e-19)
(-0.0752464 -0.0111934 -3.99254e-19)
(-0.0705432 -0.00876967 -8.43945e-19)
(-0.0669962 -0.00298115 8.88187e-19)
(-0.0654463 0.00600599 8.19973e-19)
(-0.0666148 0.017443 0)
(-0.07139 0.0305698 1.70258e-18)
(-0.0799913 0.0437253 -3.38478e-18)
(-0.0919242 0.0549624 0)
(-0.105956 0.0626937 -1.49069e-18)
(-0.119992 0.066165 2.7477e-18)
(-0.131164 0.0655516 0)
(-0.136499 0.0617662 -1.34779e-18)
(-0.133919 0.0561494 1.01597e-18)
(-0.122411 0.0498762 -1.02408e-18)
(-0.101298 0.0432113 -1.10923e-18)
(-0.0713249 0.0369448 0)
(-0.0339174 0.03143 -3.13295e-18)
(0.00962529 0.0249982 -1.60278e-18)
(0.0578945 0.0157816 1.52723e-18)
(0.108604 0.000591947 1.56541e-18)
(0.158063 -0.0209795 2.74003e-18)
(0.202973 -0.0451353 0)
(0.240532 -0.0670166 0)
(0.272986 -0.0846168 0)
(0.302251 -0.0974293 -1.90702e-18)
(0.330689 -0.105164 0)
(0.359841 -0.108225 4.60748e-18)
(0.390475 -0.107608 0)
(0.422956 -0.104529 -2.63944e-18)
(0.457453 -0.100106 -5.68134e-18)
(0.494001 -0.0951773 0)
(0.532546 -0.0902214 -2.88226e-18)
(0.572976 -0.0853467 2.88711e-18)
(0.615126 -0.0804345 0)
(0.658771 -0.0750819 0)
(0.703835 -0.068866 0)
(0.750268 -0.0616165 -5.39058e-18)
(0.798635 -0.0534894 0)
(0.847923 -0.0452383 -1.88052e-18)
(0.90292 -0.0377059 3.3062e-18)
(0.947526 -0.0334592 0)
(1.03289 -0.0339409 3.93422e-19)
(0.970611 0.209119 0)
(0.963917 0.194772 1.65584e-18)
(0.966431 0.198526 0)
(0.977154 0.206425 1.8092e-18)
(0.982035 0.208909 -3.22063e-18)
(0.968289 0.204296 -1.44474e-18)
(0.930732 0.193756 0)
(0.870719 0.177905 0)
(0.791058 0.156603 0)
(0.695296 0.131361 1.45376e-18)
(0.589293 0.10545 1.48882e-18)
(0.479808 0.0807251 0)
(0.368982 0.0580034 0)
(0.266467 0.0376184 0)
(0.179445 0.0184916 0)
(0.100216 0.00263266 6.89829e-18)
(0.0299457 -0.00946782 -3.64306e-18)
(-0.0295091 -0.00798969 0)
(-0.0322734 0.00279178 -3.52265e-18)
(-0.0359446 0.00415639 1.7278e-18)
(-0.0388134 0.00171784 3.41998e-18)
(-0.0442453 -0.00315666 0)
(-0.0531528 -0.00747152 0)
(-0.0631347 -0.00951248 -3.2415e-18)
(-0.0710764 -0.008747 0)
(-0.0761475 -0.00571926 -1.59586e-18)
(-0.0792173 -0.00129457 1.59695e-18)
(-0.0815656 0.00356316 0)
(-0.0839358 0.00838313 0)
(-0.0873336 0.0125837 7.77172e-19)
(-0.0917555 0.0154497 0)
(-0.0969222 0.0162633 -7.54098e-19)
(-0.102106 0.0144965 0)
(-0.106368 0.0100591 -1.93997e-19)
(-0.108621 0.0034062 -9.50377e-20)
(-0.108559 -0.00459038 -2.30991e-20)
(-0.105695 -0.0121959 -2.94136e-19)
(-0.0992656 -0.0178557 4.14229e-19)
(-0.0898719 -0.0197818 4.38816e-19)
(-0.0785973 -0.0173083 1.41857e-18)
(-0.0665856 -0.0100551 -4.75055e-19)
(-0.0554874 0.00167386 4.9161e-19)
(-0.0459186 0.0169407 0)
(-0.0379211 0.033756 1.14279e-18)
(-0.032235 0.0502011 9.774e-19)
(-0.0284627 0.0637642 0)
(-0.0255829 0.0719126 1.85999e-18)
(-0.0219561 0.0727763 8.41106e-19)
(-0.0159304 0.0656183 0)
(-0.00606364 0.0509558 -2.12753e-18)
(0.0119375 0.0303093 -1.40138e-18)
(0.0386959 0.00721393 7.70238e-19)
(0.0713184 -0.0154035 1.3096e-18)
(0.110486 -0.0356603 0)
(0.155619 -0.0524125 6.26865e-19)
(0.205218 -0.0657899 2.02109e-18)
(0.257854 -0.0768399 1.35153e-18)
(0.31147 -0.0870394 -1.32544e-18)
(0.363307 -0.0974532 -6.96491e-19)
(0.410933 -0.108154 0)
(0.452925 -0.118082 0)
(0.48957 -0.126208 0)
(0.522294 -0.131842 2.57907e-18)
(0.552677 -0.134818 9.56143e-19)
(0.58194 -0.1354 0)
(0.610953 -0.134103 -2.21744e-18)
(0.640339 -0.13152 2.40878e-18)
(0.670496 -0.128196 -2.45147e-18)
(0.701579 -0.12453 -2.52848e-18)
(0.733535 -0.120707 1.24702e-19)
(0.766177 -0.116687 -2.73555e-18)
(0.799286 -0.112253 0)
(0.832694 -0.107108 0)
(0.866416 -0.101014 0)
(0.900562 -0.0939755 0)
(0.935716 -0.0862838 0)
(0.971377 -0.0787183 3.66643e-18)
(1.01084 -0.071977 -1.34482e-18)
(1.04312 -0.0683681 0)
(1.10266 -0.0674216 -4.2142e-19)
(0.972988 0.216083 0)
(0.965832 0.201814 2.01878e-18)
(0.959207 0.195611 2.6677e-19)
(0.961491 0.195563 2.03907e-18)
(0.972673 0.19756 0)
(0.985526 0.199267 -1.72325e-18)
(0.992502 0.199334 0)
(0.988448 0.196299 -3.88458e-19)
(0.970192 0.189086 0)
(0.935573 0.177631 -1.72704e-18)
(0.884628 0.162843 -1.33832e-18)
(0.819456 0.145771 -3.38997e-19)
(0.743053 0.126818 3.36692e-19)
(0.657688 0.106182 0)
(0.568634 0.0853711 3.3715e-19)
(0.478726 0.0663798 0)
(0.392776 0.0504448 2.85546e-18)
(0.313455 0.0366498 -3.77089e-19)
(0.24679 0.0248087 0)
(0.192633 0.0153752 -2.02785e-18)
(0.148448 0.00835897 0)
(0.11108 0.00358055 0)
(0.0796017 0.000584794 0)
(0.0522383 -0.00192533 0)
(0.0294716 -0.00415462 -2.3865e-19)
(0.0116772 -0.00505749 0)
(-2.99805e-05 -0.00321958 0)
(-0.00592542 0.00154041 1.2593e-19)
(-0.00810649 0.00747505 0)
(-0.00862627 0.0133722 0)
(-0.00868574 0.0174554 0)
(-0.00909047 0.01857 -5.76237e-20)
(-0.0093766 0.0161642 0)
(-0.00919852 0.0100917 -2.57782e-19)
(-0.00818573 0.000747785 0)
(-0.00529309 -0.010775 2.95726e-20)
(-0.00109555 -0.0219484 1.52376e-19)
(0.00495404 -0.0309929 3.18366e-20)
(0.0130628 -0.0361431 -6.82461e-20)
(0.023151 -0.0360676 -5.72193e-19)
(0.0363304 -0.0298962 -6.01175e-19)
(0.0533364 -0.0175815 6.23974e-19)
(0.0727 1.24544e-05 -1.64643e-19)
(0.0932652 0.0196873 -1.21137e-18)
(0.11534 0.0386434 1.1301e-18)
(0.138792 0.054131 -1.32516e-19)
(0.163733 0.0635244 0)
(0.190791 0.0649018 -7.72115e-19)
(0.220606 0.0573578 0)
(0.253991 0.0408414 5.44777e-19)
(0.290366 0.0169675 0)
(0.329065 -0.0117247 4.26296e-19)
(0.370474 -0.0408762 0)
(0.413876 -0.0668069 -1.10043e-19)
(0.458275 -0.0880216 -4.88238e-19)
(0.502691 -0.104322 -5.27636e-19)
(0.546204 -0.11652 1.43144e-19)
(0.587829 -0.126035 0)
(0.626512 -0.134165 6.03999e-19)
(0.661345 -0.141539 -1.68117e-19)
(0.691891 -0.147996 0)
(0.718409 -0.153037 1.93695e-19)
(0.741716 -0.156293 -8.20551e-19)
(0.7628 -0.157704 -9.04368e-19)
(0.782549 -0.157444 0)
(0.801664 -0.15582 2.13971e-18)
(0.820644 -0.153195 0)
(0.839791 -0.14992 2.41311e-18)
(0.859225 -0.146252 2.51567e-18)
(0.878932 -0.142296 2.59191e-18)
(0.898849 -0.138001 3.13847e-19)
(0.918957 -0.133215 0)
(0.939347 -0.127777 0)
(0.96028 -0.121612 0)
(0.982074 -0.11484 -2.80132e-19)
(1.00536 -0.107789 0)
(1.02982 -0.101124 -1.66837e-18)
(1.05799 -0.0954313 1.63954e-18)
(1.08126 -0.0923566 1.03824e-19)
(1.12566 -0.0913944 4.51538e-20)
(0.974194 0.218516 -1.31967e-18)
(0.970935 0.206369 1.27626e-18)
(0.96512 0.198182 -3.01873e-19)
(0.961141 0.194127 0)
(0.962201 0.191964 0)
(0.968268 0.190573 0)
(0.977783 0.189924 0)
(0.988517 0.189533 1.34039e-18)
(0.997444 0.188375 0)
(1.00094 0.185446 -1.19798e-18)
(0.99576 0.180071 -1.49518e-18)
(0.979798 0.172048 3.43891e-19)
(0.95258 0.161606 1.03558e-18)
(0.914149 0.148848 0)
(0.865334 0.133982 -1.58438e-18)
(0.807782 0.118132 0)
(0.745442 0.102801 -1.26509e-18)
(0.682863 0.0883563 3.16743e-19)
(0.622063 0.0747888 -1.3195e-18)
(0.565176 0.0624493 -1.01363e-18)
(0.512984 0.0515186 0)
(0.465649 0.0420183 0)
(0.423231 0.0338253 -7.28881e-19)
(0.385573 0.0267737 0)
(0.352288 0.0207039 -5.84916e-19)
(0.322711 0.0155594 0)
(0.296357 0.0115456 0)
(0.27356 0.00925365 -1.0519e-19)
(0.25565 0.00923442 0)
(0.244021 0.0112504 0)
(0.239143 0.0139199 0)
(0.240103 0.0153323 5.00012e-20)
(0.245132 0.0139465 1.92595e-19)
(0.252565 0.00883556 1.18092e-19)
(0.260768 2.55424e-05 0)
(0.26891 -0.0110232 0)
(0.275772 -0.0225793 -2.45902e-20)
(0.279999 -0.0327266 -1.31934e-19)
(0.281738 -0.040335 5.6635e-20)
(0.281536 -0.0444075 0)
(0.280818 -0.0441994 0)
(0.282077 -0.0393584 -2.85612e-19)
(0.287922 -0.0301905 1.45113e-19)
(0.300833 -0.0168887 -5.8339e-19)
(0.322089 -0.00139445 5.5011e-19)
(0.350972 0.0129586 1.21683e-19)
(0.385464 0.0222533 0)
(0.424281 0.0229839 3.61904e-19)
(0.466759 0.0130163 0)
(0.512266 -0.00715186 0)
(0.55889 -0.0340803 0)
(0.6044 -0.0636247 0)
(0.647793 -0.0920843 0)
(0.68813 -0.116563 9.62549e-20)
(0.724863 -0.135553 0)
(0.757932 -0.148914 5.07782e-19)
(0.787467 -0.157576 -1.31917e-19)
(0.813562 -0.162969 0)
(0.83618 -0.166443 6.39337e-19)
(0.855237 -0.168885 1.63029e-19)
(0.870795 -0.170617 7.37318e-19)
(0.883215 -0.171599 -1.93065e-19)
(0.893145 -0.171704 0)
(0.901359 -0.170891 -9.36666e-19)
(0.908594 -0.169217 0)
(0.915452 -0.16682 0)
(0.922384 -0.163878 -1.14499e-18)
(0.929696 -0.160559 0)
(0.937576 -0.15698 0)
(0.946143 -0.15317 -1.28714e-18)
(0.95551 -0.149077 -3.40438e-19)
(0.965848 -0.14461 0)
(0.977406 -0.139691 0)
(0.990537 -0.134318 0)
(1.00556 -0.128617 3.11806e-19)
(1.02297 -0.122853 -1.06543e-18)
(1.04236 -0.117519 -2.42289e-19)
(1.06581 -0.113046 -1.88838e-19)
(1.08543 -0.110554 -1.17418e-19)
(1.12438 -0.109684 -2.41548e-19)
(0.974501 0.219012 4.65157e-18)
(0.973757 0.208041 -4.46474e-18)
(0.971715 0.200434 0)
(0.969161 0.196225 -2.70658e-18)
(0.967057 0.192957 0)
(0.966172 0.189339 -2.38842e-18)
(0.96743 0.185854 0)
(0.971685 0.183057 3.18085e-18)
(0.979 0.180795 -3.95211e-18)
(0.988313 0.178572 1.80819e-18)
(0.997729 0.175891 1.69126e-18)
(1.00502 0.172306 0)
(1.00816 0.167464 -4.57065e-18)
(1.00548 0.160948 -2.9095e-18)
(0.995588 0.152413 4.09401e-18)
(0.977731 0.142158 0)
(0.952906 0.131053 1.25559e-18)
(0.923546 0.119828 0)
(0.891453 0.108615 1.24809e-18)
(0.85793 0.0973518 1.24537e-18)
(0.82399 0.0862467 0)
(0.790568 0.0756244 0)
(0.758468 0.0657537 -6.81561e-19)
(0.728272 0.0567783 0)
(0.70023 0.0487703 6.68547e-19)
(0.674393 0.0418575 0)
(0.650844 0.0362015 0)
(0.629898 0.0318108 0)
(0.612184 0.0283797 0)
(0.598572 0.0252725 0)
(0.589881 0.0216601 0)
(0.586425 0.0167463 0)
(0.587753 0.00994734 1.71476e-19)
(0.593174 0.00100574 -7.95042e-20)
(0.600807 -0.00945199 4.07398e-20)
(0.609108 -0.0200334 0)
(0.616929 -0.0295759 0)
(0.623356 -0.0368947 8.86694e-20)
(0.628043 -0.0411465 -3.9346e-19)
(0.631048 -0.0419814 4.22594e-19)
(0.632718 -0.0395634 0)
(0.633737 -0.0345666 1.18433e-18)
(0.635082 -0.0281338 -9.75741e-19)
(0.638121 -0.0214984 -4.86541e-19)
(0.644754 -0.0159253 -4.76513e-19)
(0.657393 -0.0127647 0)
(0.678384 -0.0136865 0)
(0.707771 -0.0206932 -1.00913e-18)
(0.743324 -0.0348317 0)
(0.781856 -0.0554088 0)
(0.819695 -0.0802898 0)
(0.853951 -0.10603 4.19489e-19)
(0.883067 -0.129494 8.52464e-19)
(0.906468 -0.148543 0)
(0.924371 -0.162243 0)
(0.937547 -0.170845 -5.05954e-19)
(0.946936 -0.175397 0)
(0.953359 -0.177249 1.28048e-18)
(0.957393 -0.177618 7.20102e-19)
(0.959417 -0.177323 0)
(0.959747 -0.176735 8.36096e-19)
(0.958755 -0.175899 1.75748e-18)
(0.956916 -0.174731 1.90489e-18)
(0.954762 -0.17316 1.02211e-18)
(0.952793 -0.171177 -2.21491e-18)
(0.951432 -0.168833 2.36629e-18)
(0.951001 -0.166212 3.77808e-18)
(0.951737 -0.163394 0)
(0.953814 -0.16044 0)
(0.95738 -0.157362 1.44541e-18)
(0.96259 -0.154133 0)
(0.969639 -0.150696 2.87178e-18)
(0.978759 -0.146998 2.83028e-18)
(0.990215 -0.143028 0)
(1.00418 -0.138854 2.56078e-18)
(1.02095 -0.134641 -1.1018e-18)
(1.03992 -0.130735 0)
(1.0629 -0.127425 0)
(1.0822 -0.125586 0)
(1.12028 -0.124825 -1.94476e-19)
(0.974733 0.218939 -3.57903e-18)
(0.975458 0.208206 3.42547e-18)
(0.976058 0.201067 -6.64292e-18)
(0.975939 0.19738 3.06114e-18)
(0.974879 0.194478 0)
(0.973207 0.190811 2.70122e-18)
(0.971497 0.186618 -5.16688e-18)
(0.970487 0.182383 -4.79653e-18)
(0.971015 0.178189 -7.89863e-20)
(0.973736 0.17403 0)
(0.978855 0.169977 0)
(0.986039 0.166001 3.83849e-18)
(0.994471 0.161874 3.51978e-18)
(1.00298 0.157182 -3.4907e-18)
(1.01014 0.151532 -9.50164e-18)
(1.0145 0.144826 0)
(1.01517 0.137353 0)
(1.01219 0.129393 0)
(1.00603 0.120893 0)
(0.997139 0.111806 0)
(0.985973 0.102342 0)
(0.973123 0.0928361 0)
(0.959241 0.083576 1.32208e-18)
(0.944919 0.0747465 -2.76061e-18)
(0.930627 0.0664924 0)
(0.916761 0.0589708 0)
(0.903747 0.0522819 0)
(0.892087 0.046342 0)
(0.882347 0.040814 0)
(0.875071 0.0351273 -6.95876e-19)
(0.870628 0.0286012 0)
(0.869048 0.0206765 0)
(0.869935 0.0110653 1.67497e-20)
(0.872384 -4.37666e-06 0)
(0.875107 -0.0117889 -3.81778e-20)
(0.877233 -0.0232009 0)
(0.878252 -0.0331737 1.72548e-19)
(0.877993 -0.0407472 0)
(0.876696 -0.0452944 7.62296e-19)
(0.87496 -0.0466417 -4.04033e-19)
(0.873605 -0.045049 -8.67593e-19)
(0.873586 -0.0411641 -9.04562e-19)
(0.875869 -0.0359344 9.28432e-19)
(0.881318 -0.0305009 9.27175e-19)
(0.890607 -0.0263762 1.7901e-18)
(0.904167 -0.025562 1.68856e-18)
(0.921924 -0.0299761 0)
(0.942921 -0.0406528 -7.38143e-19)
(0.965341 -0.057383 0)
(0.986838 -0.078698 0)
(1.00507 -0.102069 -1.03311e-18)
(1.0184 -0.124538 -4.26174e-19)
(1.02621 -0.143752 1.33359e-19)
(1.02885 -0.158388 0)
(1.02722 -0.168158 0)
(1.02252 -0.173619 0)
(1.0159 -0.175823 1.34017e-18)
(1.00825 -0.175957 -1.40168e-18)
(1.00015 -0.17504 -1.52813e-18)
(0.991908 -0.173771 0)
(0.983733 -0.172499 -1.80993e-18)
(0.975813 -0.171308 4.02875e-20)
(0.968397 -0.170147 -2.14426e-18)
(0.961785 -0.168933 2.34395e-18)
(0.956281 -0.167614 -6.35311e-21)
(0.952152 -0.166174 -2.6821e-18)
(0.949612 -0.164628 -2.84604e-18)
(0.948824 -0.163001 0)
(0.94992 -0.161316 0)
(0.95302 -0.159577 0)
(0.958247 -0.157757 0)
(0.965742 -0.155803 -3.26036e-18)
(0.975659 -0.153652 -3.21051e-18)
(0.988148 -0.151257 0)
(1.00324 -0.148621 -2.9e-18)
(1.02105 -0.145823 5.14588e-18)
(1.04085 -0.143109 0)
(1.06424 -0.140662 0)
(1.08382 -0.139335 0)
(1.12133 -0.138338 9.16839e-19)
(0.975035 0.218504 8.84928e-18)
(0.977128 0.20748 0)
(0.979625 0.200817 1.51963e-17)
(0.980945 0.197732 0)
(0.980752 0.195196 6.62344e-18)
(0.979846 0.191844 0)
(0.978667 0.187937 5.83885e-18)
(0.977198 0.183704 0)
(0.975626 0.179049 -5.36355e-18)
(0.974471 0.173971 0)
(0.974317 0.168648 9.46585e-18)
(0.975648 0.163241 -4.38761e-18)
(0.978766 0.157789 0)
(0.983694 0.152193 7.79824e-18)
(0.990093 0.146306 -1.85684e-19)
(0.997312 0.140044 -7.11257e-18)
(1.00449 0.133531 6.88815e-18)
(1.01093 0.126835 0)
(1.01625 0.119786 0)
(1.02017 0.112268 6.45586e-18)
(1.02249 0.104359 0)
(1.02323 0.0962485 -3.14069e-18)
(1.0226 0.0881211 0)
(1.02087 0.080127 2.99114e-18)
(1.01835 0.0724027 0)
(1.01538 0.0650724 3.09453e-18)
(1.01236 0.058188 0)
(1.0097 0.0516489 0)
(1.00782 0.0451564 1.53059e-18)
(1.00697 0.03824 7.29521e-19)
(1.00716 0.0303827 0)
(1.00809 0.0212169 0)
(1.00923 0.010685 -1.07686e-18)
(1.00981 -0.000731903 0)
(1.00914 -0.0122664 0)
(1.00688 -0.0230027 0)
(1.00308 -0.0320742 -1.81243e-19)
(0.998101 -0.0388043 0)
(0.992609 -0.0428397 -1.24777e-18)
(0.987474 -0.0442178 -8.83423e-19)
(0.983628 -0.0433439 9.17006e-19)
(0.981929 -0.0409494 0)
(0.983052 -0.0380387 0)
(0.987427 -0.0358157 1.94929e-18)
(0.995219 -0.0355993 -1.88791e-18)
(1.00622 -0.0386654 -1.78246e-18)
(1.01961 -0.0460022 0)
(1.03392 -0.0579452 -1.01963e-19)
(1.04728 -0.073915 1.45202e-18)
(1.05782 -0.0924741 0)
(1.06413 -0.111636 1.12681e-18)
(1.06554 -0.12937 1.23949e-18)
(1.06229 -0.144132 -1.1239e-18)
(1.05524 -0.155141 0)
(1.04551 -0.162349 0)
(1.03424 -0.166278 0)
(1.02238 -0.16778 -1.51469e-18)
(1.0106 -0.167783 0)
(0.999303 -0.167085 0)
(0.988699 -0.166239 0)
(0.978902 -0.165531 4.31672e-18)
(0.970021 -0.165034 -2.29245e-18)
(0.962203 -0.164699 0)
(0.955632 -0.16444 -2.672e-18)
(0.950505 -0.164189 -2.88879e-18)
(0.946999 -0.163908 6.09633e-18)
(0.945262 -0.163587 -6.41249e-18)
(0.945416 -0.163235 -6.68777e-18)
(0.94756 -0.162861 0)
(0.951788 -0.162462 -7.06266e-18)
(0.958198 -0.162008 0)
(0.966905 -0.161442 0)
(0.978017 -0.160682 0)
(0.991617 -0.159636 6.66281e-18)
(1.00763 -0.158239 -6.21048e-18)
(1.02607 -0.156499 -8.4281e-18)
(1.04612 -0.154592 0)
(1.06925 -0.152653 3.65422e-18)
(1.08851 -0.151563 0)
(1.1244 -0.150042 -1.49779e-18)
(0.975434 0.217691 -1.00378e-17)
(0.979143 0.206095 -9.76122e-18)
(0.983425 0.200252 -1.74864e-17)
(0.985584 0.198007 0)
(0.985492 0.195695 -1.50562e-17)
(0.984795 0.192436 -7.16846e-18)
(0.984214 0.188756 0)
(0.983472 0.18476 1.27772e-17)
(0.98238 0.180247 1.19373e-17)
(0.981069 0.175165 0)
(0.979752 0.169608 -1.07052e-17)
(0.978673 0.163671 0)
(0.97815 0.157421 0)
(0.97852 0.150882 9.26511e-18)
(0.98001 0.144059 8.5965e-18)
(0.982693 0.136983 -1.81155e-19)
(0.986424 0.129857 1.83391e-19)
(0.990926 0.122817 0)
(0.99589 0.115744 0)
(1.00094 0.108508 -7.39725e-18)
(1.00569 0.101094 -7.48091e-18)
(1.0099 0.0935804 1.09714e-17)
(1.01346 0.0860668 3.65823e-18)
(1.01638 0.0786478 3.63291e-18)
(1.01877 0.0714096 0)
(1.02077 0.0644194 -3.4931e-18)
(1.02261 0.0576824 0)
(1.02452 0.0510869 0)
(1.02669 0.0443776 -3.48545e-18)
(1.02914 0.0371924 0)
(1.03166 0.0291739 0)
(1.03382 0.0201168 0)
(1.03504 0.0101326 8.16663e-19)
(1.03482 -0.000380067 -4.24387e-19)
(1.03279 -0.0108085 2.12619e-19)
(1.02888 -0.0204302 0)
(1.0234 -0.0285982 0)
(1.01692 -0.0348593 0)
(1.01022 -0.0390156 9.409e-19)
(1.00418 -0.0411658 9.90374e-19)
(0.999693 -0.0416907 -2.09482e-18)
(0.997505 -0.0412075 0)
(0.998151 -0.0405098 0)
(1.00188 -0.0404953 -4.38189e-18)
(1.00861 -0.0421137 -2.166e-18)
(1.01779 -0.0463052 0)
(1.02841 -0.0538039 0)
(1.03904 -0.0648144 1.77557e-18)
(1.04814 -0.0788252 1.14208e-19)
(1.0544 -0.0946991 0)
(1.05701 -0.110917 0)
(1.05581 -0.125927 -1.41021e-18)
(1.05124 -0.138518 0)
(1.04402 -0.148055 0)
(1.03501 -0.154476 0)
(1.02497 -0.158186 0)
(1.01451 -0.159872 0)
(1.0041 -0.160301 -3.9697e-18)
(0.994034 -0.160154 0)
(0.984542 -0.159921 0)
(0.975781 -0.159874 8.49618e-20)
(0.967904 -0.160104 0)
(0.961076 -0.160582 0)
(0.95548 -0.161236 0)
(0.951298 -0.161988 1.30871e-17)
(0.948691 -0.162784 -6.90751e-18)
(0.947793 -0.163591 7.25728e-18)
(0.948712 -0.164393 1.61858e-20)
(0.951535 -0.165184 0)
(0.956345 -0.165949 7.96629e-18)
(0.963232 -0.166659 -7.97382e-18)
(0.9723 -0.167247 0)
(0.983636 -0.16761 0)
(0.997269 -0.167601 -9.95214e-20)
(1.01305 -0.167086 6.99278e-18)
(1.03091 -0.166023 6.2843e-18)
(1.05006 -0.164547 0)
(1.07187 -0.162823 -4.138e-18)
(1.08997 -0.161686 0)
(1.12341 -0.159539 1.12593e-18)
(0.975986 0.216475 0)
(0.981693 0.204219 2.24697e-17)
(0.987771 0.199654 2.00068e-17)
(0.990445 0.198422 0)
(0.990129 0.196252 8.55425e-18)
(0.989282 0.192995 -8.26507e-18)
(0.988787 0.189418 0)
(0.988303 0.185501 -1.44477e-17)
(0.987641 0.181049 0)
(0.986893 0.176061 0)
(0.986096 0.170598 0)
(0.985223 0.164688 0)
(0.984311 0.158341 0)
(0.983487 0.151561 1.81837e-19)
(0.982899 0.144357 -1.01201e-17)
(0.982697 0.136778 -1.81173e-19)
(0.98303 0.129074 1.82785e-19)
(0.98399 0.121465 0)
(0.985563 0.11392 0)
(0.987601 0.106358 0)
(0.989886 0.0987657 -2.04785e-19)
(0.992228 0.0911977 2.08628e-19)
(0.994514 0.0837237 -4.18887e-18)
(0.996703 0.0764031 -4.16089e-18)
(0.998806 0.0692799 0)
(1.00089 0.0623762 -4.2267e-18)
(1.00305 0.0556647 4.20866e-18)
(1.00541 0.0490339 0)
(1.00802 0.0422754 2.02603e-18)
(1.01081 0.0351196 2.06387e-18)
(1.01352 0.0273214 0)
(1.0157 0.0187676 0)
(1.01686 0.00957266 1.01432e-18)
(1.01664 1.93766e-05 -1.89426e-20)
(1.01477 -0.00937892 -4.94868e-19)
(1.01126 -0.0180411 0)
(1.00641 -0.0254787 0)
(1.00076 -0.031369 -1.082e-18)
(0.994963 -0.0355897 0)
(0.9898 -0.0382566 -1.16736e-18)
(0.986017 -0.0397096 -2.8062e-20)
(0.984251 -0.0404722 0)
(0.98495 -0.0412055 2.52626e-18)
(0.988309 -0.0426592 5.03999e-18)
(0.994209 -0.0456145 2.46532e-18)
(1.00218 -0.0507895 0)
(1.01138 -0.0586728 -4.68008e-18)
(1.02069 -0.0693269 0)
(1.02895 -0.0822851 -1.99772e-18)
(1.03519 -0.0966068 0)
(1.03883 -0.111062 0)
(1.03973 -0.124396 0)
(1.03808 -0.135607 0)
(1.03427 -0.144142 0)
(1.02871 -0.14993 -3.83422e-18)
(1.02183 -0.153319 4.02382e-18)
(1.01402 -0.154923 0)
(1.00565 -0.155453 4.50036e-18)
(0.997075 -0.155545 -4.94033e-18)
(0.988623 -0.155665 0)
(0.980581 -0.156077 -5.65963e-18)
(0.97321 -0.156867 0)
(0.966747 -0.158003 0)
(0.96141 -0.159398 0)
(0.95739 -0.160957 -7.41382e-18)
(0.954844 -0.162601 7.85574e-18)
(0.953892 -0.164278 -8.2082e-18)
(0.954624 -0.165954 1.70135e-17)
(0.957108 -0.167611 -8.74173e-18)
(0.961408 -0.169231 0)
(0.967602 -0.170781 8.98088e-18)
(0.975781 -0.172188 -8.86944e-18)
(0.986002 -0.173311 0)
(0.99826 -0.173952 -7.32971e-20)
(1.01238 -0.173918 -7.70293e-18)
(1.02832 -0.17316 0)
(1.04538 -0.171799 0)
(1.06506 -0.170122 -4.56772e-18)
(1.08138 -0.168747 0)
(1.11243 -0.166141 -1.24364e-18)
(0.976761 0.214805 0)
(0.984937 0.202014 -1.29363e-17)
(0.992773 0.199211 -1.13756e-17)
(0.995654 0.199001 0)
(0.99499 0.196886 1.9613e-17)
(0.993969 0.193655 1.85198e-17)
(0.993406 0.190167 0)
(0.992853 0.186241 1.66623e-17)
(0.992195 0.181733 -1.58178e-17)
(0.991606 0.176724 0)
(0.991137 0.171283 0)
(0.990721 0.165417 0)
(0.990298 0.159119 0)
(0.989849 0.152372 -1.20305e-17)
(0.98937 0.145164 -1.17922e-17)
(0.98887 0.137516 1.08555e-17)
(0.988426 0.129656 -3.20858e-17)
(0.988155 0.121823 0)
(0.988128 0.114027 0)
(0.988328 0.106227 1.02552e-17)
(0.98868 0.0984351 2.006e-17)
(0.989115 0.0907072 -9.82784e-18)
(0.989601 0.0831088 0)
(0.990147 0.0756876 0)
(0.990787 0.0684707 -4.93101e-18)
(0.991582 0.0614607 9.72379e-18)
(0.992619 0.054619 -9.68887e-18)
(0.993979 0.0478434 0)
(0.995694 0.0409646 0)
(0.997686 0.033778 -2.35428e-18)
(0.999734 0.0261095 0)
(1.00148 0.0178931 2.38778e-18)
(1.00254 0.00922086 -1.15296e-18)
(1.00255 0.000342088 -1.76379e-20)
(1.00128 -0.0083172 -8.70244e-21)
(0.9987 -0.0162956 0)
(0.995012 -0.0232177 0)
(0.990617 -0.0288513 -2.63934e-20)
(0.98605 -0.0331392 1.29964e-18)
(0.981937 -0.0362203 4.01707e-18)
(0.978909 -0.0384154 5.52318e-18)
(0.977528 -0.0401887 2.84977e-18)
(0.978212 -0.0421032 -2.86574e-18)
(0.981176 -0.0447716 -2.87365e-18)
(0.986382 -0.0487998 2.88473e-18)
(0.993499 -0.0547159 0)
(1.0019 -0.0628625 5.30341e-18)
(1.01074 -0.0732588 -5.21468e-18)
(1.0191 -0.0855095 0)
(1.0262 -0.0988295 0)
(1.03153 -0.112178 0)
(1.03481 -0.124461 0)
(1.036 -0.134764 0)
(1.03511 -0.142546 0)
(1.03222 -0.147721 4.32583e-18)
(1.02747 -0.150624 -9.17903e-18)
(1.02113 -0.151875 -4.91241e-18)
(1.01358 -0.152194 5.25642e-18)
(1.00527 -0.152224 5.57952e-18)
(0.996676 -0.152427 -6.10161e-18)
(0.988227 -0.153056 6.57374e-18)
(0.980286 -0.154181 0)
(0.973152 -0.155753 7.55135e-18)
(0.967066 -0.157664 -8.03287e-18)
(0.962217 -0.159795 0)
(0.95874 -0.162043 -1.7797e-17)
(0.956729 -0.164331 9.27232e-18)
(0.956235 -0.166603 -1.92434e-17)
(0.957292 -0.168829 9.87826e-18)
(0.959931 -0.170982 0)
(0.964201 -0.173029 1.00985e-17)
(0.97017 -0.174879 1.00461e-17)
(0.97788 -0.176367 -9.77822e-18)
(0.98735 -0.177259 -9.40643e-18)
(0.998489 -0.177348 8.78167e-18)
(1.01142 -0.176627 0)
(1.02563 -0.175225 0)
(1.04293 -0.173614 5.25605e-18)
(1.05738 -0.171999 0)
(1.08718 -0.169379 1.44019e-18)
(0.977833 0.212618 1.70487e-17)
(0.988996 0.199653 0)
(0.998474 0.199065 -2.56184e-17)
(1.00126 0.199743 2.32547e-17)
(1.00019 0.197603 -2.21584e-17)
(0.999042 0.194453 2.12308e-17)
(0.998417 0.191058 0)
(0.997749 0.187092 1.59898e-19)
(0.996981 0.1825 1.78582e-17)
(0.996327 0.177425 0)
(0.995858 0.171933 0)
(0.995533 0.166028 0)
(0.99531 0.159709 2.94005e-17)
(0.995166 0.152964 0)
(0.995063 0.145779 2.61966e-17)
(0.994954 0.138156 0)
(0.994829 0.130299 4.89055e-17)
(0.994722 0.122438 0)
(0.994664 0.114594 0)
(0.994641 0.10674 -2.33323e-17)
(0.994612 0.0988935 -1.14284e-17)
(0.994548 0.0911086 0)
(0.994458 0.083445 0)
(0.994379 0.0759453 0)
(0.994373 0.06863 5.56749e-18)
(0.994518 0.0614946 -5.54936e-18)
(0.994905 0.0544977 -1.04093e-19)
(0.995615 0.0475478 0)
(0.996687 0.040504 5.59369e-18)
(0.998068 0.033207 0)
(0.99959 0.025533 0)
(1.00098 0.0174499 -2.70136e-18)
(1.0019 0.00905496 1.3712e-18)
(1.00203 0.00058477 -1.69046e-20)
(1.00113 -0.00760419 3.33201e-19)
(0.999135 -0.015136 0)
(0.996188 -0.0217135 0)