/*--------------------------------*- C++ -*----------------------------------*\
| =========                 |                                                 |
| \\      /  F ield         | OpenFOAM: The Open Source CFD Toolbox           |
|  \\    /   O peration     | Version:  v1912                                 |
|   \\  /    A nd           | Website:  www.openfoam.com                      |
|    \\/     M anipulation  |                                                 |
\*---------------------------------------------------------------------------*/
FoamFile
{
    version     2.0;
    format      ascii;
    class       volScalarField;
    location    "1000";
    object      epsilon;
}
// * * * * * * * * * * * * * * * * * * * * * * * * * * * * * * * * * * * * * //

dimensions      [0 2 -3 0 0 0 0];


internalField   nonuniform List<scalar> 
10000
(
0.00738317
0.00697317
0.00661765
0.00630696
0.00603373
0.00579221
0.00557773
0.00538646
0.0052152
0.00506137
0.00492301
0.00479869
0.00468745
0.00458862
0.00450162
0.00442578
0.00436023
0.00430413
0.00426561
0.0062038
0.00738174
0.00697031
0.00661352
0.00630179
0.00602774
0.0057856
0.0055707
0.00537917
0.00520779
0.00505396
0.00491566
0.00479143
0.00468028
0.00458152
0.00449454
0.00441867
0.00435307
0.00429688
0.00425781
0.00574373
0.00737863
0.00696405
0.00660446
0.00629041
0.00601452
0.00577098
0.0055551
0.00536297
0.0051913
0.00503743
0.00489926
0.00477524
0.00466432
0.00456573
0.00447884
0.00440297
0.00433728
0.00428095
0.0042409
0.00533262
0.00737393
0.00695459
0.00659073
0.00627308
0.00599427
0.0057485
0.005531
0.00533781
0.0051656
0.00501159
0.00487356
0.00474986
0.00463928
0.004541
0.0044543
0.00437849
0.00431274
0.00425625
0.00421496
0.00500239
0.00736769
0.00694206
0.0065725
0.00624995
0.00596711
0.00571816
0.0054983
0.00530352
0.00513038
0.00497601
0.00483807
0.00471472
0.00460462
0.00450679
0.00442043
0.0043448
0.00427907
0.00422246
0.00417984
0.00473707
0.00735988
0.0069265
0.00654982
0.00622108
0.00593305
0.0056799
0.00545682
0.00525973
0.00508516
0.0049301
0.00479207
0.00466905
0.00455951
0.00446229
0.00437646
0.00430121
0.00423565
0.00417907
0.0041352
0.00451981
0.00735045
0.00690786
0.00652268
0.00618643
0.00589201
0.00563357
0.00540628
0.00520606
0.00502937
0.00487311
0.00473467
0.00461184
0.00450288
0.00440641
0.00432133
0.0042467
0.00418159
0.00412526
0.0040804
0.00433679
0.00733926
0.00688596
0.00649092
0.00614588
0.00584383
0.00557895
0.0053464
0.00514207
0.0049624
0.00480425
0.00466487
0.00454192
0.00443343
0.00433778
0.00425365
0.00417995
0.00411562
0.0040599
0.00401447
0.00417696
0.0073261
0.00686053
0.00645425
0.00609916
0.00578828
0.00551579
0.00527685
0.00506733
0.00488368
0.00472274
0.0045817
0.00445808
0.00434973
0.00425481
0.00417176
0.00409926
0.0040361
0.00398144
0.00393603
0.00403118
0.00731067
0.00683112
0.0064122
0.00604581
0.00572494
0.00544373
0.00519728
0.00498147
0.00479273
0.00462793
0.00448426
0.00435917
0.00425038
0.00415585
0.0040738
0.00400268
0.00394104
0.00388792
0.00384322
0.00389157
0.00729255
0.00679709
0.00636404
0.00598513
0.0056532
0.00536224
0.00510726
0.00488408
0.00468915
0.00451936
0.00437191
0.00424429
0.00413415
0.00403935
0.00395792
0.00388808
0.00382816
0.00377701
0.00373375
0.00375102
0.0072712
0.00675756
0.00630877
0.00591609
0.00557208
0.00527049
0.00500613
0.0047747
0.00457258
0.00439669
0.00424429
0.00411291
0.00400025
0.00390415
0.00382254
0.00375351
0.00369516
0.00364616
0.00360494
0.00360294
0.00724587
0.00671133
0.00624492
0.00583719
0.00548018
0.00516723
0.00489286
0.00465253
0.0044425
0.00425963
0.00410122
0.00396488
0.00384839
0.00374968
0.00366671
0.00359753
0.00354011
0.00349299
0.00345404
0.00344127
0.00721555
0.00665674
0.00617053
0.00574632
0.0053754
0.00505055
0.00476581
0.0045163
0.00429802
0.0041077
0.00394258
0.00380032
0.00367881
0.00357612
0.00349034
0.00341962
0.00336195
0.00331584
0.00327878
0.00326081
0.00717887
0.00659156
0.00608286
0.00564056
0.00525485
0.00491769
0.00462251
0.0043639
0.00413752
0.0039398
0.00376784
0.00361925
0.00349198
0.00338422
0.00329424
0.00322042
0.00316089
0.00311432
0.00307806
0.00305781
0.00713394
0.00651271
0.00597817
0.00551588
0.00511447
0.00476477
0.00445935
0.00419216
0.00395832
0.00375388
0.00357565
0.00342106
0.00328802
0.00317477
0.00307974
0.00300152
0.00293853
0.00288971
0.00285254
0.00283071
0.00707808
0.00641591
0.00585131
0.00536676
0.00494869
0.00458641
0.00427131
0.0039965
0.00375641
0.00354657
0.00336339
0.00320401
0.00306614
0.00294795
0.00284793
0.00276484
0.00269734
0.00264473
0.00260481
0.00258064
0.00700748
0.00629516
0.00569512
0.00518558
0.00474992
0.00437528
0.00405152
0.0037706
0.00352611
0.0033129
0.00312688
0.00296478
0.00282401
0.00270256
0.00259882
0.00251159
0.00243968
0.00238268
0.00233878
0.00231101
0.00691657
0.00614193
0.00549972
0.00496202
0.00450795
0.00412164
0.00379087
0.00350611
0.00325983
0.0030461
0.00286019
0.00269834
0.0025576
0.00243565
0.00233069
0.00224142
0.00216665
0.00210611
0.00205832
0.00202638
0.00679706
0.00594408
0.00525147
0.00468227
0.00420949
0.0038131
0.00347801
0.00319271
0.00294831
0.00273786
0.00255592
0.0023982
0.00226131
0.00214261
0.00204002
0.00195205
0.00187741
0.00181579
0.0017659
0.00173074
0.00663662
0.00568451
0.00493225
0.00432891
0.00383856
0.00343533
0.00310028
0.00281932
0.00258183
0.0023797
0.00220666
0.00205785
0.00192944
0.00181848
0.00172264
0.0016402
0.00156972
0.00151075
0.00146204
0.00142631
0.00641716
0.00534032
0.00452002
0.00388288
0.00337952
0.00297588
0.00264792
0.00237838
0.00215459
0.00196714
0.00180892
0.00167452
0.00155977
0.00146145
0.00137702
0.00130463
0.00124272
0.00119066
0.00114721
0.00111463
0.00611347
0.00488435
0.00399366
0.00333083
0.0028262
0.0024344
0.00212496
0.00187695
0.00167559
0.00151028
0.00137326
0.00125876
0.00116244
0.001081
0.00101189
0.000953207
0.00090339
0.000861742
0.000827063
0.000801133
0.00569412
0.00429264
0.00334514
0.00267978
0.00219743
0.0018382
0.00156443
0.00135163
0.0011834
0.00104844
0.000938826
0.000848848
0.000774345
0.000712237
0.0006602
0.000616535
0.000579862
0.000549531
0.00052455
0.000506226
0.00512769
0.00356007
0.00259768
0.00197289
0.0015483
0.00124863
0.0010303
0.00086689
0.000741747
0.000644006
0.000566368
0.000503804
0.000452771
0.00041073
0.000375819
0.000346707
0.000322343
0.000302213
0.000285635
0.000273402
0.00439619
0.00271969
0.00181736
0.0012893
0.000959087
0.000741235
0.000591047
0.000483642
0.000404422
0.000344434
0.000297978
0.0002613
0.000231861
0.000207903
0.000188174
0.000171798
0.000158107
0.000146747
0.000137319
0.00013016
0.00351474
0.00185339
0.00110312
0.000718954
0.00050239
0.000370729
0.00028568
0.000227948
0.00018711
0.000157206
0.000134656
0.000117221
0.000103452
9.23803e-05
8.3341e-05
7.58784e-05
6.96562e-05
6.44914e-05
6.01985e-05
5.68897e-05
0.00255096
0.00107973
0.000552286
0.000324369
0.000211256
0.00014885
0.000111432
8.74449e-05
7.12028e-05
5.96943e-05
5.12239e-05
4.47872e-05
3.97623e-05
3.57505e-05
3.24872e-05
2.97964e-05
2.75525e-05
2.56895e-05
2.41442e-05
2.29594e-05
0.00162861
0.000510573
0.000214458
0.000111302
6.74923e-05
4.59104e-05
3.39881e-05
2.67777e-05
2.20876e-05
1.88501e-05
1.65032e-05
1.47316e-05
1.33488e-05
1.22397e-05
1.13304e-05
1.05736e-05
9.93662e-06
9.40508e-06
8.96511e-06
8.63617e-06
0.000889235
0.00018732
6.1811e-05
2.83707e-05
1.6511e-05
1.13116e-05
8.63708e-06
7.08337e-06
6.09204e-06
5.41127e-06
4.91544e-06
4.53668e-06
4.23591e-06
3.98962e-06
3.78305e-06
3.6073e-06
3.45647e-06
3.32935e-06
3.22471e-06
3.15063e-06
0.00041195
5.33934e-05
1.38621e-05
6.04326e-06
3.67534e-06
2.70089e-06
2.20588e-06
1.91625e-06
1.72947e-06
1.60004e-06
1.50504e-06
1.43179e-06
1.37287e-06
1.32375e-06
1.28164e-06
1.24501e-06
1.21299e-06
1.18593e-06
1.16426e-06
1.15092e-06
0.000166941
1.28765e-05
2.86981e-06
1.33054e-06
8.89376e-07
7.02695e-07
6.048e-07
5.47147e-07
5.10792e-07
4.86723e-07
4.70055e-07
4.57921e-07
4.48569e-07
4.40931e-07
4.34375e-07
4.2861e-07
4.23552e-07
4.19472e-07
4.16713e-07
4.16317e-07
6.36452e-05
3.01902e-06
6.33158e-07
3.19178e-07
2.27727e-07
1.87977e-07
1.67488e-07
1.56263e-07
1.50099e-07
1.46842e-07
1.45255e-07
1.44585e-07
1.44371e-07
1.44343e-07
1.44362e-07
1.44396e-07
1.4448e-07
1.44759e-07
1.45413e-07
1.46813e-07
2.49541e-05
7.71334e-07
1.54779e-07
8.16951e-08
6.04432e-08
5.14826e-08
4.72986e-08
4.547e-08
4.49196e-08
4.50676e-08
4.55702e-08
4.62191e-08
4.68935e-08
4.75325e-08
4.81181e-08
4.86649e-08
4.92099e-08
4.98214e-08
5.05819e-08
5.1623e-08
1.07214e-05
2.27789e-07
4.3e-08
2.30835e-08
1.74804e-08
1.52932e-08
1.44607e-08
1.4298e-08
1.44861e-08
1.4848e-08
1.52788e-08
1.57183e-08
1.6136e-08
1.65225e-08
1.68825e-08
1.72311e-08
1.75906e-08
1.7992e-08
1.84708e-08
1.90753e-08
5.159e-06
7.89975e-08
1.38659e-08
7.46322e-09
5.74649e-09
5.14494e-09
4.99008e-09
5.05359e-09
5.2254e-09
5.44363e-09
5.67291e-09
5.8949e-09
6.10286e-09
6.29783e-09
6.48602e-09
6.67718e-09
6.88333e-09
7.11901e-09
7.40042e-09
7.74704e-09
2.76742e-06
3.18983e-08
5.19578e-09
2.78583e-09
2.17181e-09
1.98257e-09
1.96424e-09
2.02792e-09
2.12966e-09
2.24494e-09
2.36058e-09
2.4708e-09
2.57478e-09
2.67494e-09
2.77578e-09
2.8831e-09
3.00355e-09
3.14466e-09
3.31458e-09
3.52251e-09
1.63231e-06
1.47285e-08
2.23433e-09
1.18997e-09
9.36441e-10
8.68673e-10
8.75729e-10
9.17893e-10
9.75245e-10
1.03692e-09
1.09751e-09
1.15521e-09
1.21056e-09
1.26562e-09
1.32334e-09
1.38728e-09
1.46138e-09
1.54994e-09
1.65757e-09
1.78932e-09
1.04308e-06
7.62561e-09
1.08377e-09
5.72703e-10
4.5393e-10
4.26671e-10
4.3624e-10
4.62691e-10
4.95958e-10
5.30713e-10
5.64556e-10
5.96994e-10
6.28766e-10
6.61381e-10
6.96823e-10
7.37378e-10
7.85542e-10
8.44012e-10
9.15685e-10
1.00369e-09
7.12638e-07
4.34806e-09
5.82745e-10
3.05479e-10
2.43469e-10
2.31347e-10
2.39258e-10
2.56147e-10
2.76432e-10
2.97263e-10
3.17494e-10
3.37081e-10
3.56683e-10
3.77399e-10
4.00598e-10
4.27835e-10
4.60801e-10
5.01322e-10
5.51366e-10
6.13058e-10
5.14752e-07
2.68825e-09
3.41959e-10
1.77864e-10
1.42372e-10
1.36503e-10
1.42497e-10
1.53696e-10
1.66751e-10
1.80015e-10
1.92907e-10
2.05534e-10
2.18436e-10
2.32423e-10
2.48483e-10
2.67726e-10
2.91363e-10
3.20711e-10
3.57192e-10
4.02354e-10
3.89488e-07
1.7788e-09
2.16051e-10
1.11553e-10
8.95966e-11
8.65472e-11
9.10462e-11
9.87934e-11
1.07639e-10
1.16566e-10
1.25268e-10
1.33892e-10
1.42873e-10
1.52827e-10
1.64494e-10
1.78702e-10
1.96364e-10
2.18473e-10
2.46113e-10
2.80467e-10
3.06387e-07
1.24613e-09
1.45302e-10
7.45159e-11
6.00112e-11
5.83325e-11
6.17581e-11
6.73425e-11
7.36241e-11
7.99363e-11
8.61129e-11
9.23052e-11
9.88655e-11
1.06276e-10
1.15109e-10
1.2601e-10
1.39691e-10
1.56935e-10
1.786e-10
2.05629e-10
2.49019e-07
9.15983e-10
1.03033e-10
5.25122e-11
4.23823e-11
4.14145e-11
4.40816e-11
4.82624e-11
5.29127e-11
5.75735e-11
6.21539e-11
6.67958e-11
7.17892e-11
7.75215e-11
8.44513e-11
9.30969e-11
1.04034e-10
1.17898e-10
1.35393e-10
1.57295e-10
2.08052e-07
7.01284e-10
7.64206e-11
3.87306e-11
3.13142e-11
3.07363e-11
3.28633e-11
3.61015e-11
3.96725e-11
4.32462e-11
4.67738e-11
5.03846e-11
5.43214e-11
5.89037e-11
6.45089e-11
7.15652e-11
8.05507e-11
9.19974e-11
1.06497e-10
1.24705e-10
1.7794e-07
5.5581e-10
5.88977e-11
2.96988e-11
2.40464e-11
2.36928e-11
2.54293e-11
2.80141e-11
3.08454e-11
3.36767e-11
3.64837e-11
3.93831e-11
4.25818e-11
4.63493e-11
5.10038e-11
5.69077e-11
6.44678e-11
7.41394e-11
8.64312e-11
1.0191e-10
1.5525e-07
4.53716e-10
4.69068e-11
2.35449e-11
1.90863e-11
1.88672e-11
2.03161e-11
2.24347e-11
2.47432e-11
2.70508e-11
2.93483e-11
3.17409e-11
3.4408e-11
3.75815e-11
4.15353e-11
4.65824e-11
5.30762e-11
6.14141e-11
7.20419e-11
8.54592e-11
1.37785e-07
3.79867e-10
3.8425e-11
1.92087e-11
1.55865e-11
1.5451e-11
1.66841e-11
1.84616e-11
2.039e-11
2.23178e-11
2.42446e-11
2.6266e-11
2.854e-11
3.12695e-11
3.46947e-11
3.90909e-11
4.47702e-11
5.20854e-11
6.14338e-11
7.32624e-11
1.24092e-07
3.2504e-10
3.22511e-11
1.60633e-11
1.3045e-11
1.29631e-11
1.40314e-11
1.55534e-11
1.71989e-11
1.88442e-11
2.04947e-11
2.22376e-11
2.42141e-11
2.66046e-11
2.96228e-11
3.35148e-11
3.85604e-11
4.50773e-11
5.34246e-11
6.40076e-11
1.13184e-07
2.83407e-10
2.76442e-11
1.37236e-11
1.11526e-11
1.11061e-11
1.20464e-11
1.33732e-11
1.48035e-11
1.62341e-11
1.76741e-11
1.92038e-11
2.09506e-11
2.30772e-11
2.57766e-11
2.92714e-11
3.38161e-11
3.97e-11
4.72517e-11
5.68432e-11
1.04373e-07
2.51168e-10
2.41317e-11
1.19448e-11
9.71266e-12
9.68996e-12
1.05294e-11
1.17044e-11
1.2968e-11
1.42324e-11
1.55089e-11
1.68722e-11
1.84386e-11
2.03565e-11
2.28022e-11
2.59796e-11
3.01224e-11
3.54974e-11
4.24084e-11
5.11998e-11
9.71694e-08
2.25775e-10
2.14028e-11
1.05662e-11
8.59598e-12
8.5897e-12
9.3486e-12
1.04035e-11
1.15358e-11
1.26693e-11
1.38169e-11
1.50482e-11
1.64707e-11
1.82212e-11
2.04623e-11
2.33826e-11
2.71991e-11
3.216e-11
3.85485e-11
4.66869e-11
9.12184e-08
2.05475e-10
1.92477e-11
9.47998e-12
7.71557e-12
7.72081e-12
8.41454e-12
9.3733e-12
1.04006e-11
1.14295e-11
1.24739e-11
1.35991e-11
1.49053e-11
1.65197e-11
1.85938e-11
2.13037e-11
2.48523e-11
2.94724e-11
3.54306e-11
4.30303e-11
8.62559e-08
1.89033e-10
1.7521e-11
8.61144e-12
7.01122e-12
7.02467e-12
7.66511e-12
8.54585e-12
9.48819e-12
1.04324e-11
1.13931e-11
1.2432e-11
1.36431e-11
1.51457e-11
1.70821e-11
1.96178e-11
2.29442e-11
2.72815e-11
3.28817e-11
4.00329e-11
8.20848e-08
1.75565e-10
1.61202e-11
7.90809e-12
6.44058e-12
6.45997e-12
7.05642e-12
7.87315e-12
8.74596e-12
9.62093e-12
1.05129e-11
1.14808e-11
1.26133e-11
1.40232e-11
1.58449e-11
1.82353e-11
2.13761e-11
2.54764e-11
3.07765e-11
3.75512e-11
7.8553e-08
1.64419e-10
1.49708e-11
7.33189e-12
5.97293e-12
5.99665e-12
6.55645e-12
7.32017e-12
8.13547e-12
8.95316e-12
9.78832e-12
1.06972e-11
1.17642e-11
1.30965e-11
1.48219e-11
1.70901e-11
2.00743e-11
2.39746e-11
2.90213e-11
3.54777e-11
7.55449e-08
1.55117e-10
1.40189e-11
6.85537e-12
5.58603e-12
5.61297e-12
6.14202e-12
6.86147e-12
7.62881e-12
8.39872e-12
9.18641e-12
1.00459e-11
1.10579e-11
1.23248e-11
1.39689e-11
1.61335e-11
1.89849e-11
2.27155e-11
2.75467e-11
3.37324e-11
7.29668e-08
1.47287e-10
1.3223e-11
6.45749e-12
5.26289e-12
5.29224e-12
5.79527e-12
6.47744e-12
7.20446e-12
7.93419e-12
8.68189e-12
9.49963e-12
1.04651e-11
1.16764e-11
1.32513e-11
1.53276e-11
1.80657e-11
2.16512e-11
2.6298e-11
3.2252e-11
7.07489e-08
1.40658e-10
1.25533e-11
6.12308e-12
4.99123e-12
5.02239e-12
5.50332e-12
6.15391e-12
6.84682e-12
7.54255e-12
8.2564e-12
9.03874e-12
9.9645e-12
1.11285e-11
1.26442e-11
1.46449e-11
1.72858e-11
2.07468e-11
2.52353e-11
3.09901e-11
6.88293e-08
1.35002e-10
1.1985e-11
5.83958e-12
4.76087e-12
4.79341e-12
5.2554e-12
5.87906e-12
6.54288e-12
7.20963e-12
7.89457e-12
8.64664e-12
9.5384e-12
1.06616e-11
1.21264e-11
1.4062e-11
1.6619e-11
1.99724e-11
2.43241e-11
2.99067e-11
6.71656e-08
1.30162e-10
1.1501e-11
5.59837e-12
4.56483e-12
4.59842e-12
5.04417e-12
5.64476e-12
6.28371e-12
6.92568e-12
7.58587e-12
8.31198e-12
9.17453e-12
1.02627e-11
1.16835e-11
1.35628e-11
1.60473e-11
1.93077e-11
2.3541e-11
2.89743e-11
6.57139e-08
1.25987e-10
1.10852e-11
5.39134e-12
4.39654e-12
4.43093e-12
4.86263e-12
5.44332e-12
6.06083e-12
6.68143e-12
7.32027e-12
8.02394e-12
8.86119e-12
9.91894e-12
1.13016e-11
1.31319e-11
1.55533e-11
1.87326e-11
2.28626e-11
2.81659e-11
6.44489e-08
1.22385e-10
1.07279e-11
5.21356e-12
4.252e-12
4.28702e-12
4.70656e-12
5.2701e-12
5.86912e-12
6.47129e-12
7.0917e-12
7.77598e-12
8.59132e-12
9.6227e-12
1.09722e-11
1.27599e-11
1.51265e-11
1.82352e-11
2.22753e-11
2.74652e-11
6.33378e-08
1.1925e-10
1.0418e-11
5.05943e-12
4.12668e-12
4.16218e-12
4.57113e-12
5.11972e-12
5.70266e-12
6.2888e-12
6.89317e-12
7.56054e-12
8.35676e-12
9.36507e-12
1.06855e-11
1.2436e-11
1.47544e-11
1.78012e-11
2.17624e-11
2.68527e-11
6.23657e-08
1.16529e-10
1.01498e-11
4.92617e-12
4.0183e-12
4.05418e-12
4.45391e-12
4.98953e-12
5.55852e-12
6.13075e-12
6.72119e-12
7.37387e-12
8.15344e-12
9.14165e-12
1.04368e-11
1.21547e-11
1.4431e-11
1.74237e-11
2.13159e-11
2.63191e-11
6.15073e-08
1.14143e-10
9.91538e-12
4.8097e-12
3.92357e-12
3.95975e-12
4.35139e-12
4.87564e-12
5.4324e-12
5.99244e-12
6.57066e-12
7.21044e-12
7.97538e-12
8.94589e-12
1.02187e-11
1.19079e-11
1.41471e-11
1.7092e-11
2.09233e-11
2.58496e-11
6.07531e-08
1.12061e-10
9.7112e-12
4.70833e-12
3.84111e-12
3.87752e-12
4.26208e-12
4.7764e-12
5.32249e-12
5.87188e-12
6.43944e-12
7.06794e-12
7.82008e-12
8.77508e-12
1.00283e-11
1.16923e-11
1.38989e-11
1.68019e-11
2.05796e-11
2.54383e-11
6.00845e-08
1.10225e-10
9.53161e-12
4.6192e-12
3.7686e-12
3.80519e-12
4.1835e-12
4.68907e-12
5.22576e-12
5.76578e-12
6.32393e-12
6.94248e-12
7.6833e-12
8.6246e-12
9.86051e-12
1.15022e-11
1.36799e-11
1.65457e-11
2.0276e-11
2.50747e-11
5.94927e-08
1.08608e-10
9.37378e-12
4.54089e-12
3.70489e-12
3.74162e-12
4.11443e-12
4.61229e-12
5.14069e-12
5.67246e-12
6.22232e-12
6.8321e-12
7.56293e-12
8.49212e-12
9.71272e-12
1.13347e-11
1.34869e-11
1.63197e-11
2.00079e-11
2.47536e-11
5.89671e-08
1.07179e-10
9.23448e-12
4.4718e-12
3.64867e-12
3.68552e-12
4.05345e-12
4.54449e-12
5.06558e-12
5.59004e-12
6.13258e-12
6.73459e-12
7.45658e-12
8.37503e-12
9.58205e-12
1.11865e-11
1.3316e-11
1.61196e-11
1.97705e-11
2.44689e-11
5.85044e-08
1.05926e-10
9.11256e-12
4.41136e-12
3.59948e-12
3.63641e-12
4.00006e-12
4.48513e-12
4.9998e-12
5.51787e-12
6.05398e-12
6.64918e-12
7.36339e-12
8.27241e-12
9.46747e-12
1.10565e-11
1.3166e-11
1.59439e-11
1.95618e-11
2.42187e-11
5.80969e-08
1.04827e-10
9.0057e-12
4.35839e-12
3.55637e-12
3.59337e-12
3.95326e-12
4.43308e-12
4.94212e-12
5.45457e-12
5.98504e-12
6.57425e-12
7.28163e-12
8.18234e-12
9.36689e-12
1.09423e-11
1.30343e-11
1.57894e-11
1.93784e-11
2.39985e-11
5.77334e-08
1.03849e-10
8.9108e-12
4.31136e-12
3.51809e-12
3.55514e-12
3.91169e-12
4.38684e-12
4.89088e-12
5.39833e-12
5.92378e-12
6.50766e-12
7.20896e-12
8.10227e-12
9.27743e-12
1.08407e-11
1.2917e-11
1.56519e-11
1.92149e-11
2.38023e-11
5.74089e-08
1.02979e-10
8.82644e-12
4.26956e-12
3.48406e-12
3.52116e-12
3.87472e-12
4.34572e-12
4.8453e-12
5.34831e-12
5.86929e-12
6.44842e-12
7.1443e-12
8.031e-12
9.1978e-12
1.07503e-11
1.28125e-11
1.55293e-11
1.90692e-11
2.36273e-11
5.71198e-08
1.02206e-10
8.75155e-12
4.23245e-12
3.45386e-12
3.49099e-12
3.8419e-12
4.30921e-12
4.80483e-12
5.30389e-12
5.82089e-12
6.3958e-12
7.08685e-12
7.96768e-12
9.12701e-12
1.06699e-11
1.27196e-11
1.54202e-11
1.89395e-11
2.34715e-11
5.68625e-08
1.01519e-10
8.68509e-12
4.19953e-12
3.42706e-12
3.46421e-12
3.81276e-12
4.27679e-12
4.76889e-12
5.26444e-12
5.77792e-12
6.34907e-12
7.03583e-12
7.91142e-12
9.06411e-12
1.05984e-11
1.26369e-11
1.53232e-11
1.88241e-11
2.33329e-11
5.6633e-08
1.00908e-10
8.62601e-12
4.17027e-12
3.40324e-12
3.4404e-12
3.78686e-12
4.24796e-12
4.73694e-12
5.22937e-12
5.7397e-12
6.30751e-12
6.99044e-12
7.86137e-12
9.00814e-12
1.05348e-11
1.25634e-11
1.52368e-11
1.87213e-11
2.32093e-11
5.64285e-08
1.00365e-10
8.57348e-12
4.14426e-12
3.38206e-12
3.41923e-12
3.76382e-12
4.22233e-12
4.70852e-12
5.19817e-12
5.7057e-12
6.27054e-12
6.95006e-12
7.81683e-12
8.95832e-12
1.04781e-11
1.24978e-11
1.51598e-11
1.86296e-11
2.30991e-11
5.62459e-08
9.98803e-11
8.52668e-12
4.12108e-12
3.36319e-12
3.40037e-12
3.74329e-12
4.19948e-12
4.68319e-12
5.17036e-12
5.6754e-12
6.23758e-12
6.91406e-12
7.77711e-12
8.91389e-12
1.04276e-11
1.24394e-11
1.50911e-11
1.85478e-11
2.30007e-11
5.60829e-08
9.94485e-11
8.485e-12
4.10045e-12
3.34638e-12
3.38357e-12
3.725e-12
4.17913e-12
4.66062e-12
5.14559e-12
5.64841e-12
6.20821e-12
6.88198e-12
7.74172e-12
8.87428e-12
1.03825e-11
1.23872e-11
1.50298e-11
1.84748e-11
2.29129e-11
5.59373e-08
9.90633e-11
8.44784e-12
4.08205e-12
3.3314e-12
3.36859e-12
3.70869e-12
4.16098e-12
4.6405e-12
5.12349e-12
5.62432e-12
6.18202e-12
6.85336e-12
7.71014e-12
8.83894e-12
1.03423e-11
1.23407e-11
1.49751e-11
1.84096e-11
2.28345e-11
5.5807e-08
9.87191e-11
8.41465e-12
4.06561e-12
3.31801e-12
3.35521e-12
3.69412e-12
4.14476e-12
4.62251e-12
5.10375e-12
5.60281e-12
6.15861e-12
6.82778e-12
7.68191e-12
8.80734e-12
1.03063e-11
1.22991e-11
1.49262e-11
1.83513e-11
2.27642e-11
5.56911e-08
9.84131e-11
8.38516e-12
4.05101e-12
3.30613e-12
3.34332e-12
3.68118e-12
4.13035e-12
4.60654e-12
5.08621e-12
5.58369e-12
6.13781e-12
6.80505e-12
7.65682e-12
8.77925e-12
1.02744e-11
1.2262e-11
1.48826e-11
1.82994e-11
2.27018e-11
5.55865e-08
9.81373e-11
8.35858e-12
4.03786e-12
3.29541e-12
3.33261e-12
3.66951e-12
4.11736e-12
4.59213e-12
5.07039e-12
5.56645e-12
6.11905e-12
6.78455e-12
7.6342e-12
8.75392e-12
1.02455e-11
1.22286e-11
1.48433e-11
1.82526e-11
2.26454e-11
5.54947e-08
9.78955e-11
8.33528e-12
4.02632e-12
3.28601e-12
3.32321e-12
3.65928e-12
4.10597e-12
4.5795e-12
5.05652e-12
5.55133e-12
6.1026e-12
6.76658e-12
7.61435e-12
8.73169e-12
1.02202e-11
1.21993e-11
1.48088e-11
1.82114e-11
2.25958e-11
5.54101e-08
9.76726e-11
8.31381e-12
4.0157e-12
3.27736e-12
3.31456e-12
3.64985e-12
4.09548e-12
4.56786e-12
5.04374e-12
5.5374e-12
6.08745e-12
6.75001e-12
7.59607e-12
8.71121e-12
1.01969e-11
1.21723e-11
1.4777e-11
1.81735e-11
2.25502e-11
5.53379e-08
9.74827e-11
8.29553e-12
4.00665e-12
3.26999e-12
3.30718e-12
3.64182e-12
4.08654e-12
4.55795e-12
5.03286e-12
5.52553e-12
6.07453e-12
6.7359e-12
7.58048e-12
8.69375e-12
1.0177e-11
1.21493e-11
1.47499e-11
1.81412e-11
2.25112e-11
5.52685e-08
9.73001e-11
8.27796e-12
3.99795e-12
3.26291e-12
3.3001e-12
3.63411e-12
4.07795e-12
4.54842e-12
5.02239e-12
5.51413e-12
6.06213e-12
6.72233e-12
7.5655e-12
8.67698e-12
1.01579e-11
1.21271e-11
1.47238e-11
1.81101e-11
2.24738e-11
5.52123e-08
9.71526e-11
8.26376e-12
3.99092e-12
3.25718e-12
3.29437e-12
3.62787e-12
4.071e-12
4.54072e-12
5.01393e-12
5.50491e-12
6.05209e-12
6.71136e-12
7.55338e-12
8.6634e-12
1.01424e-11
1.21092e-11
1.47027e-11
1.80849e-11
2.24434e-11
5.51546e-08
9.7001e-11
8.24917e-12
3.98371e-12
3.2513e-12
3.28849e-12
3.62146e-12
4.06387e-12
4.53281e-12
5.00525e-12
5.49544e-12
6.04179e-12
6.7001e-12
7.54095e-12
8.64948e-12
1.01266e-11
1.20908e-11
1.46811e-11
1.80591e-11
2.24123e-11
5.51118e-08
9.68887e-11
8.23836e-12
3.97836e-12
3.24694e-12
3.28413e-12
3.61671e-12
4.05858e-12
4.52694e-12
4.99881e-12
5.48842e-12
6.03414e-12
6.69174e-12
7.53172e-12
8.63913e-12
1.01148e-11
1.20771e-11
1.4665e-11
1.80399e-11
2.23891e-11
5.50628e-08
9.676e-11
8.22599e-12
3.97223e-12
3.24195e-12
3.27914e-12
3.61128e-12
4.05253e-12
4.52023e-12
4.99144e-12
5.48039e-12
6.0254e-12
6.68219e-12
7.52117e-12
8.62732e-12
1.01013e-11
1.20616e-11
1.46466e-11
1.8018e-11
2.23628e-11
5.50306e-08
9.66754e-11
8.21785e-12
3.96821e-12
3.23867e-12
3.27586e-12
3.6077e-12
4.04855e-12
4.51581e-12
4.98659e-12
5.47509e-12
6.01964e-12
6.67589e-12
7.51421e-12
8.61951e-12
1.00924e-11
1.20512e-11
1.46345e-11
1.80035e-11
2.23453e-11
5.49873e-08
9.65619e-11
8.20693e-12
3.9628e-12
3.23427e-12
3.27146e-12
3.60291e-12
4.04321e-12
4.5099e-12
4.98009e-12
5.46801e-12
6.01194e-12
6.66747e-12
7.50492e-12
8.6091e-12
1.00806e-11
1.20375e-11
1.46183e-11
1.79842e-11
2.23221e-11
5.49605e-08
9.64917e-11
8.20019e-12
3.95946e-12
3.23155e-12
3.26873e-12
3.59994e-12
4.03991e-12
4.50623e-12
4.97607e-12
5.46363e-12
6.00716e-12
6.66225e-12
7.49915e-12
8.60264e-12
1.00732e-11
1.2029e-11
1.46082e-11
1.79722e-11
2.23076e-11
5.49346e-08
9.64239e-11
8.19366e-12
3.95624e-12
3.22892e-12
3.2661e-12
3.59708e-12
4.03672e-12
4.50269e-12
4.97218e-12
5.45939e-12
6.00255e-12
6.6572e-12
7.49358e-12
8.59639e-12
1.00661e-11
1.20207e-11
1.45985e-11
1.79606e-11
2.22936e-11
5.49113e-08
9.63628e-11
8.18779e-12
3.95333e-12
3.22655e-12
3.26373e-12
3.5945e-12
4.03385e-12
4.49951e-12
4.96868e-12
5.45557e-12
5.9984e-12
6.65266e-12
7.48856e-12
8.59077e-12
1.00597e-11
1.20133e-11
1.45898e-11
1.79501e-11
2.2281e-11
5.48879e-08
9.63015e-11
8.1819e-12
3.95042e-12
3.22418e-12
3.26136e-12
3.59191e-12
4.03097e-12
4.49632e-12
4.96517e-12
5.45175e-12
5.99424e-12
6.64812e-12
7.48354e-12
8.58515e-12
1.00533e-11
1.20059e-11
1.4581e-11
1.79397e-11
2.22684e-11
5.48721e-08
9.62601e-11
8.17792e-12
3.94844e-12
3.22257e-12
3.25975e-12
3.59016e-12
4.02902e-12
4.49415e-12
4.96279e-12
5.44916e-12
5.99142e-12
6.64503e-12
7.48013e-12
8.58133e-12
1.00489e-11
1.20008e-11
1.45751e-11
1.79326e-11
2.22598e-11
5.47897e-08
9.60444e-11
8.1572e-12
3.9382e-12
3.21424e-12
3.25142e-12
3.58109e-12
4.01892e-12
4.48295e-12
4.9505e-12
5.43577e-12
5.97685e-12
6.62912e-12
7.46259e-12
8.5617e-12
1.00266e-11
1.1975e-11
1.45448e-11
1.78966e-11
2.22166e-11
2.28459
2.30115
2.06381
1.92261
1.83155
1.75635
1.69109
1.6353
1.58768
1.54654
1.51044
1.47833
1.44945
1.42326
1.39935
1.37737
1.35707
1.33823
1.32068
1.30427
1.28887
1.27439
1.26073
1.2478
1.23556
1.22393
1.21286
1.20231
1.19223
1.1826
1.17337
1.16452
1.15602
1.14785
1.13999
1.13241
1.12511
1.11806
1.11124
1.10466
1.09828
1.0921
1.08612
1.08032
1.07468
1.06921
1.0639
1.05873
1.05371
1.04882
1.04406
1.03942
1.0349
1.03049
1.02619
1.02199
1.0179
1.0139
1.00999
1.00616
1.00243
0.998773
0.995197
0.991696
0.988267
0.984909
0.981619
0.978394
0.975233
0.972132
0.969089
0.966102
0.963171
0.960284
0.957465
0.954628
0.951997
0.948926
0.947075
0.942942
0.291288
0.472081
0.638963
0.731025
0.745674
0.727472
0.702932
0.679722
0.658887
0.640229
0.623487
0.608432
0.59485
0.582545
0.571342
0.561094
0.551677
0.542985
0.53493
0.527437
0.520444
0.513897
0.507748
0.501958
0.496494
0.491323
0.486421
0.481764
0.477332
0.473106
0.46907
0.465211
0.461514
0.457969
0.454565
0.451293
0.448144
0.44511
0.442184
0.43936
0.436631
0.433993
0.43144
0.428968
0.426572
0.424248
0.421994
0.419805
0.417678
0.41561
0.413599
0.411642
0.409736
0.40788
0.406072
0.404308
0.402588
0.400909
0.399271
0.39767
0.396107
0.394578
0.393084
0.391623
0.390193
0.388793
0.387423
0.386081
0.384766
0.383477
0.382214
0.380975
0.37976
0.378568
0.377398
0.376247
0.375117
0.374017
0.372877
0.371655
0.0619043
0.100468
0.148458
0.209067
0.264799
0.30255
0.322757
0.331505
0.333858
0.332761
0.329811
0.325902
0.321549
0.317048
0.312567
0.308197
0.303986
0.299956
0.296115
0.29246
0.288986
0.285684
0.282544
0.279557
0.276712
0.273999
0.27141
0.268936
0.26657
0.264304
0.262131
0.260046
0.258042
0.256115
0.254261
0.252473
0.250749
0.249085
0.247477
0.245923
0.244419
0.242963
0.241552
0.240184
0.238856
0.237568
0.236316
0.2351
0.233917
0.232766
0.231646
0.230556
0.229493
0.228457
0.227447
0.226462
0.2255
0.224561
0.223644
0.222748
0.221873
0.221016
0.220179
0.219359
0.218557
0.217772
0.217003
0.21625
0.215511
0.214788
0.214078
0.213383
0.2127
0.21203
0.211373
0.210729
0.210091
0.209478
0.208856
0.208105
0.0238311
0.0361566
0.0481837
0.0656541
0.0900962
0.118056
0.144091
0.16463
0.179035
0.188343
0.193941
0.196992
0.198337
0.198556
0.198037
0.19704
0.19574
0.194253
0.192658
0.191008
0.189338
0.187673
0.186028
0.184414
0.182839
0.181304
0.179814
0.178369
0.176968
0.175611
0.174298
0.173027
0.171796
0.170604
0.169449
0.168331
0.167247
0.166196
0.165176
0.164187
0.163226
0.162293
0.161386
0.160504
0.159647
0.158812
0.158
0.157209
0.156439
0.155688
0.154956
0.154241
0.153545
0.152865
0.152201
0.151552
0.150918
0.150299
0.149694
0.149101
0.148522
0.147955
0.1474
0.146856
0.146324
0.145802
0.145291
0.14479
0.144299
0.143817
0.143345
0.142881
0.142426
0.14198
0.141541
0.141112
0.140686
0.140278
0.139866
0.139365
0.0131674
0.0189112
0.0233864
0.0286216
0.0362499
0.0471106
0.0608031
0.0757609
0.0900759
0.102381
0.112154
0.119497
0.124799
0.128501
0.130991
0.13258
0.133507
0.133947
0.134031
0.133857
0.133493
0.132993
0.132395
0.131728
0.131014
0.130269
0.129505
0.128731
0.127954
0.127179
0.126409
0.125648
0.124898
0.124159
0.123434
0.122723
0.122026
0.121344
0.120676
0.120023
0.119384
0.11876
0.118149
0.117552
0.116969
0.116399
0.115841
0.115296
0.114763
0.114242
0.113732
0.113233
0.112745
0.112268
0.1118
0.111343
0.110894
0.110456
0.110026
0.109604
0.109191
0.108787
0.10839
0.108001
0.107619
0.107245
0.106877
0.106517
0.106163
0.105815
0.105474
0.105139
0.10481
0.104487
0.104169
0.103858
0.10355
0.103254
0.102957
0.102597
0.00893344
0.012195
0.0145311
0.0166751
0.0193222
0.0230541
0.0282874
0.0351356
0.0432873
0.0520704
0.0607052
0.0685692
0.0753206
0.0808723
0.0852987
0.0887488
0.0913884
0.0933725
0.0948344
0.0958835
0.0966079
0.0970773
0.0973465
0.0974587
0.0974477
0.0973401
0.0971567
0.0969142
0.0966256
0.0963015
0.0959501
0.095578
0.0951906
0.0947921
0.0943861
0.0939754
0.093562
0.0931479
0.0927346
0.0923231
0.0919144
0.0915092
0.0911083
0.0907119
0.0903205
0.0899343
0.0895536
0.0891785
0.0888092
0.0884456
0.0880878
0.0877359
0.0873898
0.0870494
0.0867147
0.0863857
0.0860622
0.0857443
0.0854317
0.0851245
0.0848225
0.0845255
0.0842336
0.0839466
0.0836644
0.0833869
0.083114
0.0828456
0.0825817
0.0823222
0.0820669
0.0818158
0.0815687
0.0813258
0.0810866
0.0808523
0.0806199
0.0803955
0.0801728
0.0799027
0.00684756
0.00889233
0.0103564
0.0115163
0.0126796
0.0141204
0.0160813
0.0187682
0.0223126
0.0267151
0.0318114
0.037301
0.0428309
0.0480886
0.0528591
0.0570343
0.0605916
0.0635628
0.0660075
0.0679953
0.0695951
0.0708699
0.0718747
0.0726564
0.0732541
0.0737004
0.074022
0.074241
0.0743753
0.0744399
0.0744469
0.0744063
0.0743264
0.0742142
0.0740753
0.0739144
0.0737355
0.0735419
0.0733364
0.0731213
0.0728985
0.0726697
0.0724362
0.0721993
0.07196
0.071719
0.0714771
0.071235
0.070993
0.0707517
0.0705115
0.0702726
0.0700353
0.0697998
0.0695664
0.0693351
0.0691061
0.0688795
0.0686553
0.0684337
0.0682147
0.0679983
0.0677846
0.0675735
0.0673651
0.0671593
0.0669563
0.0667559
0.0665582
0.0663631
0.0661707
0.0659809
0.0657937
0.0656092
0.0654272
0.0652484
0.065071
0.0648986
0.0647291
0.0645221
0.00566618
0.00701265
0.0080139
0.00876102
0.00939744
0.0100601
0.0108723
0.0119474
0.0133895
0.015285
0.0176832
0.0205749
0.023881
0.027462
0.0311476
0.034772
0.0382015
0.0413467
0.0441612
0.0466328
0.0487721
0.0506036
0.0521581
0.0534682
0.0545657
0.0554796
0.0562361
0.056858
0.0573652
0.0577746
0.0581007
0.0583558
0.0585504
0.0586932
0.0587919
0.0588528
0.0588814
0.0588823
0.0588595
0.0588163
0.0587557
0.0586801
0.0585918
0.0584924
0.0583837
0.0582669
0.0581434
0.0580142
0.0578801
0.057742
0.0576005
0.0574563
0.0573099
0.0571617
0.0570123
0.0568618
0.0567107
0.0565592
0.0564076
0.056256
0.0561047
0.0559538
0.0558035
0.0556538
0.055505
0.055357
0.0552101
0.0550642
0.0549194
0.0547758
0.0546335
0.0544924
0.0543527
0.0542145
0.0540775