/*--------------------------------*- C++ -*----------------------------------*\
| =========                 |                                                 |
| \\      /  F ield         | OpenFOAM: The Open Source CFD Toolbox           |
|  \\    /   O peration     | Version:  v1912                                 |
|   \\  /    A nd           | Website:  www.openfoam.com                      |
|    \\/     M anipulation  |                                                 |
\*---------------------------------------------------------------------------*/
FoamFile
{
    version     2.0;
    format      ascii;
    class       volScalarField;
    location    "1000";
    object      nut;
}
// * * * * * * * * * * * * * * * * * * * * * * * * * * * * * * * * * * * * * //

dimensions      [0 2 -1 0 0 0 0];


internalField   nonuniform List<scalar> 
10000
(
5.38833e-05
5.48078e-05
5.55509e-05
5.63309e-05
5.72548e-05
5.84062e-05
5.98542e-05
6.16534e-05
6.38426e-05
6.64446e-05
6.94645e-05
7.2887e-05
7.66721e-05
8.07531e-05
8.50376e-05
8.94169e-05
9.37775e-05
9.8017e-05
0.00010179
7.16201e-05
5.3693e-05
5.46113e-05
5.53558e-05
5.6136e-05
5.7057e-05
5.82016e-05
5.96389e-05
6.14239e-05
6.35959e-05
6.61788e-05
6.91785e-05
7.2581e-05
7.63477e-05
8.04129e-05
8.46856e-05
8.90578e-05
9.34161e-05
9.76584e-05
0.000101448
7.66712e-05
5.3238e-05
5.41583e-05
5.49068e-05
5.56863e-05
5.6599e-05
5.77266e-05
5.9138e-05
6.0889e-05
6.30206e-05
6.55583e-05
6.85108e-05
7.18665e-05
7.55897e-05
7.96179e-05
8.38624e-05
8.82171e-05
9.25693e-05
9.68168e-05
0.00010064
8.13561e-05
5.25019e-05
5.34298e-05
5.41844e-05
5.49621e-05
5.58616e-05
5.69626e-05
5.83338e-05
6.00318e-05
6.20997e-05
6.45662e-05
6.74434e-05
7.07238e-05
7.43763e-05
7.83429e-05
8.25393e-05
8.68624e-05
9.12006e-05
9.54524e-05
9.93186e-05
8.49217e-05
5.14762e-05
5.2415e-05
5.31774e-05
5.3953e-05
5.48358e-05
5.59027e-05
5.72216e-05
5.88498e-05
6.08332e-05
6.32037e-05
6.59781e-05
6.91544e-05
7.27073e-05
7.65852e-05
8.071e-05
8.49831e-05
8.92953e-05
9.35457e-05
9.74582e-05
8.72338e-05
5.0157e-05
5.11083e-05
5.188e-05
5.26537e-05
5.3518e-05
5.4546e-05
5.58037e-05
5.73491e-05
5.92301e-05
6.14827e-05
6.41288e-05
6.71725e-05
7.05963e-05
7.43566e-05
7.83829e-05
8.25832e-05
8.68517e-05
9.10897e-05
9.50445e-05
8.82873e-05
4.85445e-05
4.95076e-05
5.02893e-05
5.10622e-05
5.1908e-05
5.2895e-05
5.40865e-05
5.554e-05
5.73053e-05
5.94218e-05
6.19169e-05
6.48019e-05
6.80675e-05
7.16797e-05
7.55777e-05
7.96778e-05
8.38797e-05
8.8088e-05
9.20729e-05
8.81263e-05
4.66417e-05
4.76142e-05
4.84058e-05
4.91791e-05
5.00077e-05
5.09542e-05
5.20781e-05
5.34353e-05
5.50762e-05
5.70435e-05
5.93695e-05
6.20727e-05
6.51528e-05
6.85865e-05
7.23243e-05
7.6293e-05
8.03996e-05
8.45542e-05
8.85491e-05
8.68216e-05
4.4455e-05
4.54326e-05
4.62327e-05
4.70072e-05
4.7821e-05
4.87297e-05
4.97879e-05
5.10487e-05
5.25621e-05
5.43726e-05
5.65168e-05
5.90198e-05
6.18906e-05
6.51172e-05
6.86625e-05
7.24657e-05
7.64436e-05
8.05139e-05
8.449e-05
8.44626e-05
4.19946e-05
4.29716e-05
4.37772e-05
4.45526e-05
4.53539e-05
4.62288e-05
4.72258e-05
4.83941e-05
4.97818e-05
5.14338e-05
5.33897e-05
5.56804e-05
5.83234e-05
6.13178e-05
6.46399e-05
6.82428e-05
7.20553e-05
7.60051e-05
7.9926e-05
8.1152e-05
3.92753e-05
4.02441e-05
4.10504e-05
4.18248e-05
4.26151e-05
4.34605e-05
4.44026e-05
4.54852e-05
4.67533e-05
4.82508e-05
5.00187e-05
5.20918e-05
5.4495e-05
5.7238e-05
6.03104e-05
6.36799e-05
6.72891e-05
7.10785e-05
7.49019e-05
7.70041e-05
3.63166e-05
3.72683e-05
3.80689e-05
3.88382e-05
3.96172e-05
4.04366e-05
4.13303e-05
4.2336e-05
4.34941e-05
4.48458e-05
4.64317e-05
4.82891e-05
5.04483e-05
5.29281e-05
5.57304e-05
5.88379e-05
6.22082e-05
6.5796e-05
6.94763e-05
7.21421e-05
3.31446e-05
3.40685e-05
3.4856e-05
3.56138e-05
3.63784e-05
3.71733e-05
3.80242e-05
3.8962e-05
4.00213e-05
4.12393e-05
4.26545e-05
4.43045e-05
4.62229e-05
4.84358e-05
5.09556e-05
5.37794e-05
5.68798e-05
6.02277e-05
6.37186e-05
6.66947e-05
2.97931e-05
3.06767e-05
3.14421e-05
3.21802e-05
3.29246e-05
3.36931e-05
3.45045e-05
3.53821e-05
3.63539e-05
3.7452e-05
3.87111e-05
4.01671e-05
4.18549e-05
4.38049e-05
4.60385e-05
4.85648e-05
5.13718e-05
5.44462e-05
5.7705e-05
6.07908e-05
2.6305e-05
2.71335e-05
2.78668e-05
2.8576e-05
2.92916e-05
3.00284e-05
3.07996e-05
3.16217e-05
3.25157e-05
3.35074e-05
3.46264e-05
3.59052e-05
3.73775e-05
3.90757e-05
4.10271e-05
4.32511e-05
4.57491e-05
4.85235e-05
5.15126e-05
5.45541e-05
2.27341e-05
2.3491e-05
2.418e-05
2.48502e-05
2.55271e-05
2.62239e-05
2.69501e-05
2.77169e-05
2.85389e-05
2.94352e-05
3.04295e-05
3.15492e-05
3.28245e-05
3.42874e-05
3.59679e-05
3.78924e-05
4.00739e-05
4.25293e-05
4.52176e-05
4.80985e-05
1.91467e-05
1.98151e-05
2.04446e-05
2.10641e-05
2.16917e-05
2.23383e-05
2.30114e-05
2.37186e-05
2.44695e-05
2.52773e-05
2.61592e-05
2.71366e-05
2.82347e-05
2.94822e-05
3.09086e-05
3.2544e-05
3.44098e-05
3.65344e-05
3.88969e-05
4.15308e-05
1.56233e-05
1.61874e-05
1.67401e-05
1.72943e-05
1.78603e-05
1.84454e-05
1.90554e-05
1.96953e-05
2.03714e-05
2.10922e-05
2.18692e-05
2.27177e-05
2.36569e-05
2.47102e-05
2.59038e-05
2.72674e-05
2.88264e-05
3.06173e-05
3.26365e-05
3.49589e-05
1.22579e-05
1.2707e-05
1.31657e-05
1.36377e-05
1.41271e-05
1.46374e-05
1.51721e-05
1.57345e-05
1.63283e-05
1.69587e-05
1.76329e-05
1.83609e-05
1.91558e-05
2.0035e-05
2.1019e-05
2.21337e-05
2.34042e-05
2.48693e-05
2.6538e-05
2.85054e-05
9.15638e-06
9.48798e-06
9.84057e-06
1.02146e-05
1.0611e-05
1.1031e-05
1.1476e-05
1.19476e-05
1.2448e-05
1.29801e-05
1.35481e-05
1.41578e-05
1.48174e-05
1.55382e-05
1.63347e-05
1.72266e-05
1.82345e-05
1.93943e-05
2.07213e-05
2.23132e-05
6.42933e-06
6.65142e-06
6.89668e-06
7.16512e-06
7.45698e-06
7.77279e-06
8.11326e-06
8.47936e-06
8.87234e-06
9.2939e-06
9.74635e-06
1.0233e-05
1.07584e-05
1.13294e-05
1.19546e-05
1.26473e-05
1.34219e-05
1.4307e-05
1.53176e-05
1.65415e-05
4.17719e-06
4.30854e-06
4.45912e-06
4.62892e-06
4.81821e-06
5.02755e-06
5.25772e-06
5.5097e-06
5.78469e-06
6.08408e-06
6.40961e-06
6.76346e-06
7.14844e-06
7.56844e-06
8.02852e-06
8.53662e-06
9.10137e-06
9.74281e-06
1.04719e-05
1.13578e-05
2.46571e-06
2.53252e-06
2.61273e-06
2.70595e-06
2.81213e-06
2.9316e-06
3.06495e-06
3.21301e-06
3.37686e-06
3.55779e-06
3.75734e-06
3.97734e-06
4.21993e-06
4.48786e-06
4.78435e-06
5.11436e-06
5.48293e-06
5.90297e-06
6.38135e-06
6.96683e-06
1.29711e-06
1.32624e-06
1.36401e-06
1.40955e-06
1.46238e-06
1.52234e-06
1.58952e-06
1.66425e-06
1.74706e-06
1.83867e-06
1.94001e-06
2.05224e-06
2.17679e-06
2.31541e-06
2.4702e-06
2.64425e-06
2.84062e-06
3.0672e-06
3.32841e-06
3.65445e-06
5.96684e-07
6.08414e-07
6.25788e-07
6.47702e-07
6.73448e-07
7.02602e-07
7.34951e-07
7.70439e-07
8.09145e-07
8.51261e-07
8.97088e-07
9.47042e-07
1.00166e-06
1.06168e-06
1.12795e-06
1.20185e-06
1.28476e-06
1.38045e-06
1.49129e-06
1.6324e-06
2.35258e-07
2.40534e-07
2.49567e-07
2.6129e-07
2.7503e-07
2.90367e-07
3.0705e-07
3.24944e-07
3.43997e-07
3.64218e-07
3.85668e-07
4.08448e-07
4.32702e-07
4.58632e-07
4.86484e-07
5.16678e-07
5.49616e-07
5.86629e-07
6.28568e-07
6.81079e-07
7.74989e-08
8.04589e-08
8.57766e-08
9.26391e-08
1.00556e-07
1.09226e-07
1.18466e-07
1.28174e-07
1.38303e-07
1.48847e-07
1.59825e-07
1.71276e-07
1.83256e-07
1.95839e-07
2.09108e-07
2.23204e-07
2.38259e-07
2.54714e-07
2.72877e-07
2.9459e-07
2.05894e-08
2.23148e-08
2.5353e-08
2.92487e-08
3.37149e-08
3.8559e-08
4.36575e-08
4.89415e-08
5.4383e-08
5.99829e-08
6.57611e-08
7.17494e-08
7.79868e-08
8.45187e-08
9.13938e-08
9.868e-08
1.06441e-07
1.14853e-07
1.24055e-07
1.34686e-07
4.21347e-09
5.03955e-09
6.51301e-09
8.46986e-09
1.07615e-08
1.32586e-08
1.58714e-08
1.85549e-08
2.12989e-08
2.41155e-08
2.70288e-08
3.00684e-08
3.32661e-08
3.66548e-08
4.02676e-08
4.41441e-08
4.83239e-08
5.28865e-08
5.79086e-08
6.36386e-08
6.31447e-10
9.14923e-10
1.47585e-09
2.28769e-09
3.27053e-09
4.34305e-09
5.46163e-09
6.61745e-09
7.82034e-09
9.08741e-09
1.04379e-08
1.18916e-08
1.3468e-08
1.51875e-08
1.70708e-08
1.91416e-08
2.14252e-08
2.39634e-08
2.68012e-08
3.00476e-08
6.6951e-11
1.32615e-10
2.89557e-10
5.37483e-10
8.42702e-10
1.18536e-09
1.56474e-09
1.98675e-09
2.45862e-09
2.98814e-09
3.58393e-09
4.25576e-09
5.01463e-09
5.87296e-09
6.84459e-09
7.94566e-09
9.19418e-09
1.06156e-08
1.22393e-08
1.41195e-08
5.16083e-12
1.56733e-11
4.7207e-11
1.01379e-10
1.74796e-10
2.69589e-10
3.89452e-10
5.37905e-10
7.18607e-10
9.35859e-10
1.19495e-09
1.50236e-09
1.86586e-09
2.29458e-09
2.79903e-09
3.39143e-09
4.08561e-09
4.89908e-09
5.8521e-09
6.9748e-09
3.31473e-13
1.67444e-12
6.95518e-12
1.77971e-11
3.5726e-11
6.31713e-11
1.02663e-10
1.56761e-10
2.2828e-10
3.20577e-10
4.37793e-10
5.8503e-10
7.68476e-10
9.95491e-10
1.27466e-09
1.61594e-09
2.03062e-09
2.53199e-09
3.13517e-09
3.85914e-09
2.21035e-14
1.9201e-13
1.11987e-12
3.57033e-12
8.56034e-12
1.74595e-11
3.18296e-11
5.3426e-11
8.43279e-11
1.27127e-10
1.85112e-10
2.62422e-10
3.64178e-10
4.96576e-10
6.66955e-10
8.83849e-10
1.15694e-09
1.49722e-09
1.91678e-09
2.42926e-09
1.85042e-15
2.69156e-14
2.1959e-13
8.76005e-13
2.48554e-12
5.76469e-12
1.16253e-11
2.12014e-11
3.59538e-11
5.78176e-11
8.93577e-11
1.33916e-10
1.95742e-10
2.80105e-10
3.93352e-10
5.42925e-10
7.37271e-10
9.85756e-10
1.29841e-09
1.68577e-09
2.11523e-16
4.82326e-15
5.32973e-14
2.60511e-13
8.56484e-13
2.21764e-12
4.87471e-12
9.55276e-12
1.72631e-11
2.94287e-11
4.80243e-11
7.57203e-11
1.1602e-10
1.73369e-10
2.53215e-10
3.61985e-10
5.0695e-10
6.96021e-10
9.37409e-10
1.23931e-09
3.30468e-17
1.0979e-15
1.5744e-14
9.171e-14
3.41764e-13
9.71119e-13
2.29687e-12
4.79004e-12
9.15524e-12
1.64396e-11
2.81602e-11
4.64433e-11
7.4159e-11
1.15029e-10
1.73672e-10
2.55553e-10
3.66811e-10
5.13977e-10
7.03613e-10
9.41941e-10
6.82191e-18
3.09505e-16
5.52631e-15
3.7357e-14
1.54728e-13
4.75459e-13
1.19679e-12
2.63371e-12
5.28675e-12
9.9361e-12
1.77571e-11
3.04501e-11
5.03691e-11
8.06211e-11
1.25097e-10
1.88398e-10
2.75636e-10
3.92124e-10
5.43013e-10
7.3296e-10
1.7858e-18
1.04922e-16
2.25045e-15
1.72498e-14
7.8099e-14
2.56368e-13
6.80445e-13
1.56849e-12
3.28548e-12
6.42437e-12
1.19094e-11
2.11155e-11
3.59871e-11
5.91271e-11
9.38149e-11
1.43917e-10
2.13673e-10
3.0739e-10
4.29106e-10
5.82319e-10
5.70518e-19
4.15946e-17
1.04021e-15
8.86668e-15
4.32793e-14
1.50232e-13
4.17197e-13
1.00089e-12
2.17523e-12
4.40149e-12
8.42017e-12
1.53595e-11
2.68439e-11
4.50722e-11
7.2825e-11
1.13365e-10
1.70225e-10
2.46914e-10
3.46632e-10
4.72057e-10
2.15243e-19
1.88162e-17
5.35382e-16
4.99354e-15
2.5979e-14
9.45618e-14
2.72969e-13
6.77825e-13
1.52079e-12
3.16936e-12
6.22881e-12
1.16403e-11
2.07794e-11
3.55241e-11
5.82544e-11
9.17481e-11
1.38975e-10
2.02832e-10
2.85898e-10
3.90286e-10
9.33079e-20
9.51236e-18
3.01841e-16
3.03955e-15
1.66959e-14
6.32836e-14
1.88854e-13
4.8311e-13
1.11416e-12
2.38173e-12
4.79042e-12
9.13865e-12
1.66079e-11
2.88226e-11
4.78426e-11
7.60594e-11
1.16001e-10
1.70094e-10
2.40462e-10
3.28828e-10
4.54406e-20
5.28108e-18
1.8384e-16
1.97664e-15
1.13738e-14
4.46336e-14
1.37067e-13
3.59768e-13
8.49698e-13
1.85671e-12
3.80943e-12
7.39626e-12
1.36465e-11
2.39832e-11
4.02106e-11
6.44129e-11
9.8771e-11
1.45352e-10
2.05945e-10
2.81996e-10
2.44044e-20
3.17344e-18
1.19563e-16
1.35994e-15
8.144e-15
3.29278e-14
1.03652e-13
2.78199e-13
6.70753e-13
1.49378e-12
3.11778e-12
6.14539e-12
1.14856e-11
2.04005e-11
3.44899e-11
5.55922e-11
8.56149e-11
1.26348e-10
1.79331e-10
2.4581e-10
1.4236e-20
2.03927e-18
8.22282e-17
9.81776e-16
6.0854e-15
2.52475e-14
8.11991e-14
2.22201e-13
5.45436e-13
1.23487e-12
2.61583e-12
5.22334e-12
9.87038e-12
1.76895e-11
3.01155e-11
4.87895e-11
7.54022e-11
1.11528e-10
1.58517e-10
2.1747e-10
8.90761e-21
1.38745e-18
5.93164e-17
7.38589e-16
4.71667e-15
2.00115e-14
6.55715e-14
1.82492e-13
4.5502e-13
1.04502e-12
2.24227e-12
4.52784e-12
8.6373e-12
1.55982e-11
2.67112e-11
4.34579e-11
6.73555e-11
9.98091e-11
1.42022e-10
1.94987e-10
5.91688e-21
9.91169e-19
4.45758e-17
5.75662e-16
3.77277e-15
1.63213e-14
5.43574e-14
1.53531e-13
3.88069e-13
9.02449e-13
1.9581e-12
3.99255e-12
7.67837e-12
1.39572e-11
2.40199e-11
3.92182e-11
6.09289e-11
9.04224e-11
1.28788e-10
1.76934e-10
4.13663e-21
7.38326e-19
3.46984e-17
4.62576e-16
3.10095e-15
1.36447e-14
4.60943e-14
1.31885e-13
3.37362e-13
7.93135e-13
1.73774e-12
3.57323e-12
6.92045e-12
1.26502e-11
2.18627e-11
3.58029e-11
5.57335e-11
8.28161e-11
1.18049e-10
1.62277e-10
3.02207e-21
5.70158e-19
2.7843e-17
3.81641e-16
2.60946e-15
1.1654e-14
3.98634e-14
1.15357e-13
2.98193e-13
7.0778e-13
1.56398e-12
3.23964e-12
6.31277e-12
1.15953e-11
2.01122e-11
3.30197e-11
5.14869e-11
7.65872e-11
1.09246e-10
1.50256e-10
2.29325e-21
4.54219e-19
2.29378e-17
3.22153e-16
2.24122e-15
1.01407e-14
3.50694e-14
1.02501e-13
2.67412e-13
6.40066e-13
1.42493e-12
2.97062e-12
5.8194e-12
1.07339e-11
1.8676e-11
3.07283e-11
4.79819e-11
7.14377e-11
1.01962e-10
1.40305e-10
1.79838e-21
3.71759e-19
1.93338e-17
2.77405e-16
1.95952e-15
8.9683e-15
3.13155e-14
9.23367e-14
2.42856e-13
5.85595e-13
1.31223e-12
2.75109e-12
5.41437e-12
1.00232e-11
1.74863e-11
2.88242e-11
4.50632e-11
6.71441e-11
9.58847e-11
1.31999e-10
1.4512e-21
3.11501e-19
1.6624e-17
2.43056e-16
1.74005e-15
8.04466e-15
2.83304e-14
8.41845e-14
2.23005e-13
5.41236e-13
1.21983e-12
2.57003e-12
5.0786e-12
9.43145e-12
1.64922e-11
2.72291e-11
4.26137e-11
6.35366e-11
9.07751e-11
1.25015e-10
1.2006e-21
2.66416e-19
1.45451e-17
2.16219e-16
1.56634e-15
7.30634e-15
2.59243e-14
7.75643e-14
2.0677e-13
5.04723e-13
1.14333e-12
2.41933e-12
4.79785e-12
8.93475e-12
1.56553e-11
2.58831e-11
4.05435e-11
6.04849e-11
8.64507e-11
1.19102e-10
1.01515e-21
2.31978e-19
1.29216e-17
1.94923e-16
1.42689e-15
6.70847e-15
2.39617e-14
7.2128e-14
1.93356e-13
4.7438e-13
1.07942e-12
2.29286e-12
4.56129e-12
8.51482e-12
1.49458e-11
2.47398e-11
3.87828e-11
5.78874e-11
8.27681e-11
1.14066e-10
8.74911e-22
2.05195e-19
1.16343e-17
1.77793e-16
1.31358e-15
6.21891e-15
2.23442e-14
6.76212e-14
1.82174e-13
4.48957e-13
1.02563e-12
2.18596e-12
4.36063e-12
8.15757e-12
1.43409e-11
2.37633e-11
3.72772e-11
5.56645e-11
7.96156e-11
1.09754e-10
7.66781e-22
1.84027e-19
1.05991e-17
1.63844e-16
1.22048e-15
5.81391e-15
2.09984e-14
6.38516e-14
1.72776e-13
4.27493e-13
9.80026e-13
2.09501e-12
4.18935e-12
7.85185e-12
1.38221e-11
2.29246e-11
3.59827e-11
5.37524e-11
7.69029e-11
1.06043e-10
6.82035e-22
1.67067e-19
9.75695e-18
1.5237e-16
1.14328e-15
5.47605e-15
1.987e-14
6.06761e-14
1.64824e-13
4.09259e-13
9.41145e-13
2.01721e-12
4.04245e-12
7.58901e-12
1.33753e-11
2.22013e-11
3.48655e-11
5.21011e-11
7.45597e-11
1.02836e-10
6.14572e-22
1.53301e-19
9.06409e-18
1.42835e-16
1.07867e-15
5.19179e-15
1.89162e-14
5.79811e-14
1.58049e-13
3.93668e-13
9.07791e-13
1.95028e-12
3.91575e-12
7.36186e-12
1.29885e-11
2.15745e-11
3.38965e-11
5.06684e-11
7.25261e-11
1.00054e-10
5.60225e-22
1.42017e-19
8.48931e-18
1.34856e-16
1.02426e-15
4.95124e-15
1.81059e-14
5.56827e-14
1.52252e-13
3.80284e-13
8.79074e-13
1.89251e-12
3.80614e-12
7.16499e-12
1.26528e-11
2.10299e-11
3.30541e-11
4.94223e-11
7.07571e-11
9.76326e-11
5.15855e-22
1.32661e-19
8.00767e-18
1.28117e-16
9.78048e-16
4.74607e-15
1.74122e-14
5.37089e-14
1.47257e-13
3.68721e-13
8.54201e-13
1.84235e-12
3.7108e-12
6.99346e-12
1.236e-11
2.05544e-11
3.23181e-11
4.83333e-11
6.92108e-11
9.55162e-11
4.79349e-22
1.24858e-19
7.6021e-18
1.22403e-16
9.38667e-16
4.57056e-15
1.6817e-14
5.20099e-14
1.42946e-13
3.58715e-13
8.32627e-13
1.79876e-12
3.62778e-12
6.84389e-12
1.21043e-11
2.0139e-11
3.16748e-11
4.73811e-11
6.78586e-11
9.36653e-11
4.48938e-22
1.18278e-19
7.2572e-18
1.17513e-16
9.04818e-16
4.41919e-15
1.63021e-14
5.05366e-14
1.39199e-13
3.49996e-13
8.13789e-13
1.76062e-12
3.55504e-12
6.71267e-12
1.18798e-11
1.97739e-11
3.11092e-11
4.65438e-11
6.66693e-11
9.20373e-11
4.23511e-22
1.12715e-19
6.96347e-18
1.13326e-16
8.75714e-16
4.28865e-15
1.58569e-14
4.92596e-14
1.35943e-13
3.42407e-13
7.9736e-13
1.72731e-12
3.49141e-12
6.59775e-12
1.1683e-11
1.94537e-11
3.06129e-11
4.58088e-11
6.56254e-11
9.06082e-11
4.01984e-22
1.07961e-19
6.71068e-18
1.09704e-16
8.50455e-16
4.17505e-15
1.54686e-14
4.81434e-14
1.33092e-13
3.35747e-13
7.8292e-13
1.69798e-12
3.43532e-12
6.49634e-12
1.15092e-11
1.91707e-11
3.01742e-11
4.51591e-11
6.47025e-11
8.93448e-11
3.83761e-22
1.03901e-19
6.49354e-18
1.06579e-16
8.2859e-16
4.07647e-15
1.51309e-14
4.71709e-14
1.30604e-13
3.29925e-13
7.70275e-13
1.67227e-12
3.38608e-12
6.40723e-12
1.13564e-11
1.89218e-11
2.97882e-11
4.45873e-11
6.38901e-11
8.82326e-11
3.68133e-22
1.00392e-19
6.30488e-18
1.03854e-16
8.09464e-16
3.99005e-15
1.48344e-14
4.63154e-14
1.28411e-13
3.24787e-13
7.59101e-13
1.64952e-12
3.34247e-12
6.32823e-12
1.12208e-11
1.87009e-11
2.94455e-11
4.40796e-11
6.31689e-11
8.72452e-11
3.54758e-22
9.73681e-20
6.14151e-18
1.01485e-16
7.928e-16
3.91461e-15
1.4575e-14
4.55661e-14
1.26487e-13
3.20273e-13
7.49273e-13
1.62948e-12
3.30403e-12
6.25856e-12
1.11012e-11
1.85059e-11
2.91429e-11
4.36313e-11
6.25319e-11
8.63731e-11
3.43175e-22
9.47334e-20
5.99856e-18
9.94061e-17
7.78139e-16
3.84812e-15
1.43461e-14
4.49037e-14
1.24785e-13
3.16273e-13
7.40552e-13
1.61169e-12
3.26986e-12
6.19658e-12
1.09947e-11
1.83322e-11
2.88734e-11
4.3232e-11
6.19646e-11
8.55965e-11
3.33136e-22
9.2437e-20
5.87349e-18
9.75818e-17
7.65248e-16
3.78956e-15
1.41443e-14
4.43188e-14
1.23279e-13
3.12733e-13
7.32826e-13
1.59591e-12
3.23953e-12
6.14153e-12
1.09001e-11
1.81779e-11
2.86339e-11
4.28771e-11
6.14603e-11
8.4906e-11
3.24385e-22
9.04255e-20
5.76355e-18
9.59741e-17
7.53866e-16
3.73779e-15
1.39655e-14
4.38004e-14
1.21944e-13
3.09588e-13
7.25956e-13
1.58187e-12
3.21252e-12
6.09248e-12
1.08158e-11
1.80403e-11
2.84203e-11
4.25605e-11
6.10105e-11
8.42903e-11
3.1681e-22
8.86768e-20
5.66768e-18
9.45689e-17
7.43901e-16
3.6924e-15
1.38087e-14
4.33449e-14
1.20769e-13
3.06819e-13
7.19902e-13
1.56948e-12
3.18869e-12
6.04917e-12
1.07413e-11
1.79187e-11
2.82315e-11
4.22808e-11
6.06131e-11
8.37462e-11
3.10237e-22
8.71532e-20
5.58393e-18
9.33387e-17
7.35164e-16
3.65255e-15
1.36709e-14
4.29443e-14
1.19735e-13
3.04379e-13
7.14563e-13
1.55855e-12
3.16763e-12
6.01089e-12
1.06754e-11
1.78112e-11
2.80646e-11
4.20334e-11
6.02616e-11
8.32651e-11
3.0445e-22
8.58072e-20
5.50976e-18
9.22472e-17
7.27401e-16
3.61712e-15
1.35482e-14
4.25873e-14
1.18812e-13
3.02202e-13
7.09795e-13
1.54878e-12
3.14881e-12
5.97666e-12
1.06165e-11
1.7715e-11
2.79152e-11
4.18121e-11
5.99471e-11
8.28345e-11
2.99346e-22
8.46164e-20
5.44399e-18
9.12778e-17
7.20498e-16
3.58557e-15
1.34388e-14
4.2269e-14
1.17989e-13
3.00257e-13
7.05534e-13
1.54005e-12
3.13197e-12
5.94602e-12
1.05637e-11
1.76289e-11
2.77815e-11
4.16139e-11
5.96655e-11
8.2449e-11
2.94847e-22
8.35638e-20
5.38574e-18
9.04179e-17
7.14368e-16
3.55754e-15
1.33416e-14
4.19857e-14
1.17256e-13
2.98524e-13
7.01733e-13
1.53225e-12
3.11694e-12
5.91865e-12
1.05166e-11
1.75519e-11
2.7662e-11
4.14367e-11
5.94139e-11
8.21046e-11
2.9088e-22
8.26332e-20
5.33415e-18
8.96552e-17
7.08925e-16
3.53263e-15
1.32552e-14
4.17337e-14
1.16603e-13
2.9698e-13
6.98345e-13
1.5253e-12
3.10352e-12
5.89423e-12
1.04745e-11
1.74832e-11
2.75552e-11
4.12786e-11
5.91892e-11
8.1797e-11
2.87373e-22
8.18089e-20
5.28838e-18
8.89777e-17
7.04086e-16
3.51046e-15
1.31782e-14
4.15091e-14
1.16022e-13
2.95603e-13
6.95321e-13
1.51909e-12
3.09153e-12
5.8724e-12
1.04369e-11
1.74218e-11
2.74598e-11
4.11372e-11
5.89884e-11
8.15222e-11
2.84271e-22
8.10781e-20
5.24775e-18
8.83756e-17
6.99782e-16
3.49073e-15
1.31096e-14
4.1309e-14
1.15503e-13
2.94374e-13
6.92622e-13
1.51354e-12
3.08083e-12
5.8529e-12
1.04033e-11
1.73669e-11
2.73746e-11
4.10109e-11
5.88089e-11
8.12765e-11
2.8152e-22
8.04289e-20
5.2116e-18
8.78394e-17
6.95947e-16
3.47314e-15
1.30485e-14
4.11303e-14
1.15039e-13
2.93276e-13
6.9021e-13
1.50859e-12
3.07125e-12
5.83544e-12
1.03732e-11
1.73177e-11
2.72983e-11
4.08978e-11
5.86483e-11
8.10566e-11
2.7908e-22
7.98521e-20
5.17945e-18
8.73621e-17
6.92529e-16
3.45746e-15
1.29939e-14
4.0971e-14
1.14626e-13
2.92295e-13
6.88054e-13
1.50416e-12
3.06269e-12
5.81983e-12
1.03463e-11
1.72738e-11
2.723e-11
4.07966e-11
5.85046e-11
8.086e-11
2.76913e-22
7.9339e-20
5.15082e-18
8.69367e-17
6.89482e-16
3.44347e-15
1.29453e-14
4.08286e-14
1.14256e-13
2.91419e-13
6.86126e-13
1.50019e-12
3.05502e-12
5.80587e-12
1.03223e-11
1.72344e-11
2.71689e-11
4.0706e-11
5.83759e-11
8.0684e-11
2.74983e-22
7.88816e-20
5.12527e-18
8.65567e-17
6.86759e-16
3.43096e-15
1.29017e-14
4.07013e-14
1.13926e-13
2.90634e-13
6.844e-13
1.49664e-12
3.04816e-12
5.79335e-12
1.03007e-11
1.71991e-11
2.71141e-11
4.06249e-11
5.82607e-11
8.05262e-11
2.73273e-22
7.84759e-20
5.1026e-18
8.62193e-17
6.84339e-16
3.41985e-15
1.2863e-14
4.0588e-14
1.13631e-13
2.89936e-13
6.82863e-13
1.49348e-12
3.04204e-12
5.78219e-12
1.02814e-11
1.71677e-11
2.70653e-11
4.05525e-11
5.81579e-11
8.03856e-11
2.71737e-22
7.81109e-20
5.08218e-18
8.59153e-17
6.82158e-16
3.40982e-15
1.28281e-14
4.04858e-14
1.13366e-13
2.89305e-13
6.81475e-13
1.49062e-12
3.03651e-12
5.77211e-12
1.0264e-11
1.71393e-11
2.70211e-11
4.04871e-11
5.8065e-11
8.02585e-11
2.70393e-22
7.77913e-20
5.06429e-18
8.56488e-17
6.80245e-16
3.40103e-15
1.27974e-14
4.03961e-14
1.13132e-13
2.88751e-13
6.80254e-13
1.48811e-12
3.03165e-12
5.76324e-12
1.02488e-11
1.71143e-11
2.69823e-11
4.04296e-11
5.79833e-11
8.01467e-11
2.69157e-22
7.74973e-20
5.04782e-18
8.54034e-17
6.78483e-16
3.39292e-15
1.27692e-14
4.03134e-14
1.12917e-13
2.8824e-13
6.79129e-13
1.48579e-12
3.02717e-12
5.75506e-12
1.02346e-11
1.70912e-11
2.69465e-11
4.03765e-11
5.7908e-11
8.00436e-11
2.68107e-22
7.72472e-20
5.0338e-18
8.51943e-17
6.76982e-16
3.38601e-15
1.27451e-14
4.02428e-14
1.12734e-13
2.87804e-13
6.78168e-13
1.48381e-12
3.02334e-12
5.74807e-12
1.02226e-11
1.70715e-11
2.69159e-11
4.03312e-11
5.78435e-11
7.99554e-11
2.67099e-22
7.70071e-20
5.02034e-18
8.49935e-17
6.75539e-16
3.37938e-15
1.2722e-14
4.0175e-14
1.12558e-13
2.87385e-13
6.77246e-13
1.48191e-12
3.01966e-12
5.74136e-12
1.0211e-11
1.70526e-11
2.68865e-11
4.02876e-11
5.77817e-11
7.98708e-11
2.66286e-22
7.68132e-20
5.00946e-18
8.48312e-17
6.74372e-16
3.37401e-15
1.27032e-14
4.01201e-14
1.12415e-13
2.87045e-13
6.76497e-13
1.48037e-12
3.01667e-12
5.7359e-12
1.02016e-11
1.70372e-11
2.68626e-11
4.02522e-11
5.77314e-11
7.9802e-11
2.65452e-22
7.66141e-20
4.99829e-18
8.46646e-17
6.73175e-16
3.3685e-15
1.2684e-14
4.00638e-14
1.12268e-13
2.86697e-13
6.7573e-13
1.47879e-12
3.01361e-12
5.73032e-12
1.0192e-11
1.70215e-11
2.68382e-11
4.0216e-11
5.768e-11
7.97317e-11
2.64835e-22
7.64668e-20
4.99002e-18
8.4541e-17
6.72286e-16
3.3644e-15
1.26697e-14
4.0022e-14
1.12159e-13
2.86438e-13
6.75158e-13
1.47761e-12
3.01133e-12
5.72615e-12
1.01848e-11
1.70097e-11
2.68199e-11
4.01889e-11
5.76415e-11
7.9679e-11
2.64129e-22
7.62982e-20
4.98055e-18
8.43997e-17
6.71271e-16
3.35973e-15
1.26534e-14
3.99742e-14
1.12035e-13
2.86143e-13
6.74508e-13
1.47627e-12
3.00874e-12
5.72142e-12
1.01766e-11
1.69964e-11
2.67992e-11
4.01582e-11
5.7598e-11
7.96194e-11
2.63665e-22
7.61874e-20
4.97433e-18
8.43067e-17
6.70602e-16
3.35665e-15
1.26427e-14
3.99426e-14
1.11953e-13
2.85947e-13
6.74075e-13
1.47538e-12
3.00701e-12
5.71826e-12
1.01712e-11
1.69875e-11
2.67853e-11
4.01377e-11
5.75688e-11
7.95796e-11
2.63043e-22
7.60388e-20
4.96598e-18
8.41821e-17
6.69706e-16
3.35253e-15
1.26283e-14
3.99005e-14
1.11843e-13
2.85687e-13
6.73503e-13
1.4742e-12
3.00473e-12
5.7141e-12
1.0164e-11
1.69757e-11
2.67671e-11
4.01107e-11
5.75305e-11
7.95271e-11
2.62659e-22
7.59471e-20
4.96083e-18
8.4105e-17
6.69152e-16
3.34997e-15
1.26194e-14
3.98744e-14
1.11775e-13
2.85525e-13
6.73144e-13
1.47346e-12
3.0033e-12
5.71148e-12
1.01595e-11
1.69684e-11
2.67556e-11
4.00937e-11
5.75064e-11
7.94941e-11
2.62289e-22
7.58584e-20
4.95584e-18
8.40305e-17
6.68616e-16
3.3475e-15
1.26107e-14
3.98491e-14
1.11709e-13
2.85368e-13
6.72799e-13
1.47275e-12
3.00192e-12
5.70897e-12
1.01551e-11
1.69613e-11
2.67446e-11
4.00774e-11
5.74832e-11
7.94624e-11
2.61955e-22
7.57785e-20
4.95135e-18
8.39635e-17
6.68133e-16
3.34528e-15
1.2603e-14
3.98263e-14
1.1165e-13
2.85227e-13
6.72489e-13
1.47211e-12
3.00068e-12
5.7067e-12
1.01512e-11
1.69549e-11
2.67347e-11
4.00627e-11
5.74623e-11
7.94338e-11
2.6162e-22
7.56985e-20
4.94686e-18
8.38963e-17
6.6765e-16
3.34305e-15
1.25952e-14
3.98036e-14
1.11591e-13
2.85087e-13
6.72179e-13
1.47147e-12
2.99944e-12
5.70445e-12
1.01473e-11
1.69485e-11
2.67248e-11
4.00481e-11
5.74415e-11
7.94054e-11
2.61394e-22
7.56444e-20
4.94381e-18
8.38508e-17
6.67322e-16
3.34154e-15
1.25899e-14
3.97881e-14
1.11551e-13
2.84991e-13
6.71967e-13
1.47103e-12
2.9986e-12
5.7029e-12
1.01447e-11
1.69442e-11
2.6718e-11
4.0038e-11
5.74273e-11
7.93859e-11
2.60219e-22
7.53631e-20
4.92801e-18
8.3615e-17
6.6563e-16
3.33376e-15
1.25629e-14
3.97089e-14
1.11345e-13
2.84504e-13
6.70899e-13
1.46884e-12
2.99436e-12
5.6952e-12
1.01314e-11
1.69225e-11
2.66844e-11
3.99882e-11
5.73566e-11
7.92892e-11
2.23354e-06
2.23892e-06
2.15914e-06
2.10873e-06
2.0749e-06
2.0461e-06
2.02044e-06
1.99797e-06
1.97839e-06
1.96115e-06
1.94577e-06
1.93188e-06
1.91922e-06
1.90759e-06
1.89685e-06
1.88686e-06
1.87755e-06
1.86882e-06
1.86061e-06
1.85287e-06
1.84556e-06
1.83862e-06
1.83202e-06
1.82574e-06
1.81975e-06
1.81402e-06
1.80854e-06
1.80328e-06
1.79822e-06
1.79337e-06
1.78869e-06
1.78418e-06
1.77983e-06
1.77563e-06
1.77157e-06
1.76763e-06
1.76382e-06
1.76013e-06
1.75655e-06
1.75307e-06
1.74969e-06
1.74641e-06
1.74321e-06
1.7401e-06
1.73707e-06
1.73412e-06
1.73124e-06
1.72843e-06
1.72569e-06
1.72302e-06
1.72041e-06
1.71786e-06
1.71536e-06
1.71292e-06
1.71054e-06
1.7082e-06
1.70592e-06
1.70368e-06
1.70149e-06
1.69934e-06
1.69723e-06
1.69517e-06
1.69314e-06
1.69115e-06
1.6892e-06
1.68729e-06
1.68541e-06
1.68356e-06
1.68174e-06
1.67996e-06
1.67821e-06
1.67648e-06
1.67478e-06
1.67311e-06
1.67147e-06
1.66982e-06
1.66828e-06
1.66648e-06
1.6654e-06
1.66297e-06
2.16731e-06
2.3063e-06
2.99343e-06
3.58433e-06
3.94314e-06
4.15996e-06
4.30938e-06
4.42152e-06
4.50762e-06
4.5738e-06
4.62468e-06
4.66393e-06
4.69432e-06
4.71794e-06
4.73631e-06
4.75059e-06
4.76163e-06
4.77007e-06
4.77643e-06
4.78108e-06
4.78433e-06
4.78643e-06
4.78758e-06
4.78792e-06
4.78758e-06
4.78668e-06
4.7853e-06
4.78352e-06
4.7814e-06
4.77899e-06
4.77634e-06
4.77348e-06
4.77044e-06
4.76727e-06
4.76397e-06
4.76057e-06
4.75709e-06
4.75354e-06
4.74993e-06
4.74629e-06
4.74261e-06
4.73891e-06
4.7352e-06
4.73148e-06
4.72775e-06
4.72403e-06
4.72032e-06
4.71662e-06
4.71293e-06
4.70926e-06
4.70561e-06
4.70198e-06
4.69838e-06
4.6948e-06
4.69124e-06
4.68772e-06
4.68422e-06
4.68075e-06
4.6773e-06
4.67389e-06
4.67051e-06
4.66715e-06
4.66383e-06
4.66054e-06
4.65728e-06
4.65404e-06
4.65084e-06
4.64767e-06
4.64453e-06
4.64143e-06
4.63835e-06
4.63531e-06
4.63229e-06
4.62932e-06
4.62635e-06
4.62351e-06
4.62047e-06
4.61796e-06
4.61506e-06
4.60994e-06
5.97597e-06
3.38926e-06
2.97376e-06
3.33161e-06
3.92878e-06
4.50449e-06
4.98642e-06
5.37938e-06
5.70105e-06
5.96611e-06
6.18588e-06
6.36931e-06
6.52354e-06
6.65417e-06
6.76564e-06
6.86141e-06
6.94422e-06
7.01626e-06
7.07925e-06
7.13459e-06
7.18342e-06
7.22665e-06
7.26506e-06
7.29929e-06
7.32985e-06
7.35722e-06
7.38177e-06
7.40383e-06
7.42367e-06
7.44154e-06
7.45766e-06
7.47221e-06
7.48534e-06
7.49719e-06
7.5079e-06
7.51758e-06
7.52632e-06
7.5342e-06
7.54131e-06
7.54772e-06
7.55348e-06
7.55866e-06
7.5633e-06
7.56745e-06
7.57114e-06
7.57442e-06
7.57732e-06
7.57987e-06
7.58209e-06
7.58402e-06
7.58568e-06
7.58709e-06
7.58825e-06
7.5892e-06
7.58995e-06
7.59051e-06
7.59089e-06
7.59112e-06
7.59119e-06
7.59112e-06
7.59092e-06
7.59059e-06
7.59015e-06
7.58961e-06
7.58895e-06
7.58821e-06
7.58738e-06
7.58648e-06
7.58549e-06
7.58444e-06
7.58333e-06
7.58216e-06
7.58093e-06
7.57967e-06
7.57831e-06
7.57702e-06
7.57547e-06
7.57401e-06
7.57398e-06
7.56702e-06
1.5199e-05
8.24689e-06
5.59857e-06
4.52928e-06
4.35491e-06
4.65883e-06
5.15614e-06
5.68931e-06
6.19201e-06
6.64412e-06
7.04356e-06
7.39422e-06
7.70172e-06
7.97179e-06
8.2097e-06
8.42005e-06
8.60676e-06
8.77318e-06
8.92208e-06
9.05582e-06
9.17635e-06
9.28536e-06
9.38424e-06
9.47419e-06
9.55624e-06
9.63127e-06
9.70003e-06
9.7632e-06
9.82133e-06
9.87494e-06
9.92446e-06
9.97029e-06
1.00127e-05
1.00521e-05
1.00888e-05
1.01229e-05
1.01546e-05
1.01842e-05
1.02119e-05
1.02378e-05
1.0262e-05
1.02846e-05
1.03059e-05
1.03258e-05
1.03445e-05
1.03621e-05
1.03787e-05
1.03942e-05
1.04089e-05
1.04227e-05
1.04357e-05
1.0448e-05
1.04596e-05
1.04705e-05
1.04808e-05
1.04906e-05
1.04998e-05
1.05084e-05
1.05167e-05
1.05244e-05
1.05317e-05
1.05387e-05
1.05452e-05
1.05514e-05
1.05572e-05
1.05627e-05
1.05679e-05
1.05727e-05
1.05774e-05
1.05817e-05
1.05858e-05
1.05897e-05
1.05933e-05
1.05968e-05
1.06e-05
1.06031e-05
1.06058e-05
1.06084e-05
1.06126e-05
1.0609e-05
2.75866e-05
1.62405e-05
1.12322e-05
8.37173e-06
6.73762e-06
5.98163e-06
5.83116e-06
6.04549e-06
6.44452e-06
6.91534e-06
7.39708e-06
7.86074e-06
8.29418e-06
8.69351e-06
9.05878e-06
9.39181e-06
9.69514e-06
9.97154e-06
1.02237e-05
1.04541e-05
1.06649e-05
1.08584e-05
1.10361e-05
1.11998e-05
1.13509e-05
1.14905e-05
1.16199e-05
1.17399e-05
1.18515e-05
1.19554e-05
1.20523e-05
1.21428e-05
1.22274e-05
1.23067e-05
1.23811e-05
1.2451e-05
1.25167e-05
1.25785e-05
1.26368e-05
1.26918e-05
1.27438e-05
1.27929e-05
1.28394e-05
1.28835e-05
1.29253e-05
1.29649e-05
1.30026e-05
1.30384e-05
1.30725e-05
1.31049e-05
1.31358e-05
1.31653e-05
1.31934e-05
1.32203e-05
1.32459e-05
1.32704e-05
1.32938e-05
1.33163e-05
1.33377e-05
1.33583e-05
1.3378e-05
1.33968e-05
1.34149e-05
1.34322e-05
1.34488e-05
1.34647e-05
1.348e-05
1.34947e-05
1.35088e-05
1.35224e-05
1.35354e-05
1.35479e-05
1.35599e-05
1.35715e-05
1.35826e-05
1.35934e-05
1.36034e-05
1.36134e-05
1.36246e-05
1.36277e-05
4.02869e-05
2.57383e-05
1.86993e-05
1.43505e-05
1.13754e-05
9.35212e-06
8.09882e-06
7.46446e-06
7.2873e-06
7.41408e-06
7.7217e-06
8.12392e-06
8.56637e-06
9.0173e-06
9.45915e-06
9.88275e-06
1.02837e-05
1.06605e-05
1.10129e-05
1.13417e-05
1.16482e-05
1.19337e-05
1.21998e-05
1.24477e-05
1.26791e-05
1.28952e-05
1.30971e-05
1.32861e-05
1.34632e-05
1.36294e-05
1.37854e-05
1.39322e-05
1.40703e-05
1.42005e-05
1.43234e-05
1.44395e-05
1.45493e-05
1.46532e-05
1.47516e-05
1.48451e-05
1.49338e-05
1.50181e-05
1.50983e-05
1.51746e-05
1.52474e-05
1.53168e-05
1.5383e-05
1.54463e-05
1.55068e-05