/*--------------------------------*- C++ -*----------------------------------*\
| =========                 |                                                 |
| \\      /  F ield         | OpenFOAM: The Open Source CFD Toolbox           |
|  \\    /   O peration     | Version:  v1912                                 |
|   \\  /    A nd           | Website:  www.openfoam.com                      |
|    \\/     M anipulation  |                                                 |
\*---------------------------------------------------------------------------*/
FoamFile
{
    version     2.0;
    format      ascii;
    class       volScalarField;
    location    "1000";
    object      p;
}
// * * * * * * * * * * * * * * * * * * * * * * * * * * * * * * * * * * * * * //

dimensions      [0 2 -2 0 0 0 0];


internalField   nonuniform List<scalar> 
10000
(
0.00215399
0.00215654
0.00216396
0.00217582
0.0021918
0.00221219
0.00223748
0.00226825
0.00230522
0.00234936
0.00240191
0.00246482
0.00254018
0.00263301
0.00274514
0.00289718
0.00307195
0.00340557
0.00365132
0.00603302
0.00215398
0.00215653
0.00216396
0.00217581
0.0021918
0.00221219
0.00223747
0.00226825
0.00230522
0.00234935
0.0024019
0.00246481
0.00254017
0.00263298
0.00274511
0.00289712
0.00307191
0.00340516
0.00365703
0.00536853
0.00215398
0.00215653
0.00216396
0.00217581
0.00219179
0.00221218
0.00223747
0.00226824
0.0023052
0.00234933
0.00240188
0.00246478
0.00254014
0.00263294
0.00274506
0.00289701
0.00307181
0.00340457
0.00365935
0.00514577
0.00215397
0.00215652
0.00216395
0.0021758
0.00219178
0.00221217
0.00223745
0.00226822
0.00230518
0.00234931
0.00240185
0.00246474
0.00254008
0.00263286
0.00274497
0.00289684
0.00307164
0.00340368
0.00365981
0.00513173
0.00215396
0.00215651
0.00216393
0.00217578
0.00219176
0.00221215
0.00223743
0.00226819
0.00230515
0.00234927
0.0024018
0.00246468
0.00254001
0.00263276
0.00274484
0.0028966
0.00307139
0.00340244
0.00365967
0.00511483
0.00215395
0.00215649
0.00216391
0.00217576
0.00219174
0.00221212
0.0022374
0.00226816
0.00230511
0.00234922
0.00240174
0.0024646
0.00253991
0.00263262
0.00274466
0.00289628
0.00307106
0.00340086
0.00365898
0.00507309
0.00215393
0.00215647
0.00216389
0.00217574
0.00219172
0.00221209
0.00223736
0.00226812
0.00230506
0.00234916
0.00240166
0.00246451
0.00253979
0.00263245
0.00274444
0.00289587
0.00307062
0.00339889
0.00365765
0.0050235
0.00215391
0.00215644
0.00216386
0.00217571
0.00219168
0.00221205
0.00223732
0.00226806
0.002305
0.00234908
0.00240157
0.00246439
0.00253963
0.00263223
0.00274417
0.00289537
0.00307007
0.0033965
0.00365574
0.00497254
0.00215388
0.00215641
0.00216382
0.00217567
0.00219164
0.002212
0.00223726
0.002268
0.00230492
0.00234899
0.00240145
0.00246424
0.00253945
0.00263197
0.00274384
0.00289476
0.0030694
0.00339368
0.0036533
0.00492019
0.00215385
0.00215637
0.00216377
0.00217562
0.00219159
0.00221194
0.00223719
0.00226792
0.00230483
0.00234888
0.00240132
0.00246407
0.00253923
0.00263166
0.00274344
0.00289403
0.00306859
0.00339037
0.00365035
0.00486592
0.00215381
0.00215632
0.00216372
0.00217556
0.00219152
0.00221188
0.00223712
0.00226783
0.00230472
0.00234875
0.00240116
0.00246387
0.00253897
0.0026313
0.00274298
0.00289318
0.00306761
0.00338654
0.00364686
0.00480969
0.00215376
0.00215626
0.00216365
0.00217549
0.00219145
0.00221179
0.00223702
0.00226772
0.00230459
0.0023486
0.00240097
0.00246363
0.00253867
0.00263088
0.00274244
0.00289219
0.00306647
0.00338215
0.00364281
0.0047516
0.0021537
0.00215619
0.00216358
0.00217541
0.00219137
0.0022117
0.00223691
0.0022676
0.00230445
0.00234842
0.00240076
0.00246336
0.00253833
0.0026304
0.00274181
0.00289105
0.00306513
0.00337716
0.00363814
0.00469176
0.00215363
0.00215611
0.00216349
0.00217532
0.00219127
0.00221159
0.00223679
0.00226745
0.00230428
0.00234822
0.00240051
0.00246305
0.00253793
0.00262984
0.00274109
0.00288973
0.00306358
0.00337153
0.00363279
0.00463026
0.00215355
0.00215602
0.00216338
0.00217521
0.00219115
0.00221146
0.00223664
0.00226728
0.00230408
0.00234798
0.00240023
0.00246269
0.00253748
0.00262921
0.00274026
0.00288824
0.00306179
0.00336522
0.0036267
0.00456721
0.00215346
0.00215591
0.00216326
0.00217509
0.00219102
0.00221131
0.00223647
0.00226709
0.00230386
0.00234772
0.0023999
0.00246228
0.00253696
0.00262848
0.00273931
0.00288654
0.00305973
0.00335818
0.00361978
0.00450273
0.00215334
0.00215579
0.00216312
0.00217495
0.00219087
0.00221114
0.00223628
0.00226687
0.0023036
0.00234741
0.00239953
0.00246182
0.00253637
0.00262766
0.00273823
0.00288461
0.00305736
0.00335037
0.00361191
0.00443698
0.00215322
0.00215564
0.00216296
0.00217478
0.00219069
0.00221095
0.00223606
0.00226662
0.00230331
0.00234707
0.00239911
0.00246129
0.0025357
0.00262673
0.00273701
0.00288244
0.00305466
0.00334177
0.00360298
0.00437014
0.00215307
0.00215548
0.00216278
0.0021746
0.0021905
0.00221073
0.00223581
0.00226633
0.00230298
0.00234667
0.00239864
0.00246069
0.00253493
0.00262567
0.00273561
0.00288
0.00305156
0.00333234
0.00359284
0.00430244
0.00215289
0.00215529
0.00216257
0.00217438
0.00219027
0.00221048
0.00223553
0.00226601
0.0023026
0.00234623
0.0023981
0.00246001
0.00253407
0.00262448
0.00273403
0.00287726
0.00304804
0.00332205
0.00358133
0.00423415
0.0021527
0.00215507
0.00216233
0.00217414
0.00219001
0.00221019
0.00223521
0.00226565
0.00230218
0.00234573
0.00239749
0.00245925
0.0025331
0.00262313
0.00273224
0.00287421
0.00304402
0.00331087
0.0035683
0.00416557
0.00215247
0.00215483
0.00216207
0.00217387
0.00218972
0.00220987
0.00223485
0.00226524
0.00230171
0.00234516
0.00239681
0.00245839
0.002532
0.00262162
0.00273021
0.0028708
0.00303946
0.0032988
0.00355355
0.00409701
0.0021522
0.00215455
0.00216176
0.00217355
0.00218939
0.00220951
0.00223444
0.00226478
0.00230117
0.00234453
0.00239604
0.00245743
0.00253077
0.00261994
0.00272794
0.00286703
0.0030343
0.0032858
0.00353693
0.00402879
0.0021519
0.00215423
0.00216142
0.0021732
0.00218902
0.0022091
0.00223399
0.00226426
0.00230057
0.00234382
0.00239518
0.00245635
0.00252939
0.00261805
0.00272539
0.00286284
0.00302847
0.00327186
0.00351829
0.0039612
0.00215155
0.00215387
0.00216104
0.0021728
0.0021886
0.00220864
0.00223347
0.00226367
0.00229989
0.00234302
0.00239421
0.00245514
0.00252785
0.00261594
0.00272252
0.00285822
0.00302191
0.00325693
0.00349755
0.00389443
0.00215116
0.00215346
0.0021606
0.00217235
0.00218812
0.00220812
0.00223289
0.00226301
0.00229913
0.00234211
0.00239312
0.00245377
0.00252611
0.00261358
0.0027193
0.00285309
0.00301453
0.00324097
0.00347463
0.00382863
0.00215071
0.00215299
0.00216011
0.00217183
0.00218758
0.00220753
0.00223223
0.00226226
0.00229827
0.00234109
0.00239188
0.00245224
0.00252414
0.00261092
0.00271567
0.00284741
0.00300626
0.0032239
0.00344951
0.00376384
0.00215019
0.00215246
0.00215955
0.00217125
0.00218696
0.00220686
0.00223148
0.00226142
0.00229729
0.00233994
0.00239049
0.0024505
0.00252193
0.00260794
0.0027116
0.00284111
0.00299702
0.00320567
0.00342223
0.00370007
0.00214961
0.00215186
0.00215893
0.0021706
0.00218627
0.0022061
0.00223064
0.00226046
0.00229619
0.00233864
0.00238892
0.00244855
0.00251943
0.0026046
0.00270703
0.00283414
0.00298673
0.00318622
0.00339284
0.00363729
0.00214895
0.00215119
0.00215822
0.00216985
0.00218548
0.00220524
0.00222968
0.00225938
0.00229494
0.00233717
0.00238715
0.00244635
0.00251663
0.00260085
0.00270191
0.00282643
0.00297533
0.00316552
0.00336145
0.00357547
0.0021482
0.00215042
0.00215742
0.00216901
0.00218458
0.00220427
0.0022286
0.00225816
0.00229353
0.00233551
0.00238515
0.00244388
0.00251348
0.00259667
0.0026962
0.00281793
0.00296277
0.00314352
0.00332816
0.00351454
0.00214735
0.00214956
0.00215652
0.00216806
0.00218358
0.00220317
0.00222738
0.00225678
0.00229195
0.00233365
0.00238291
0.0024411
0.00250995
0.00259199
0.00268983
0.00280857
0.00294899
0.00312021
0.00329308
0.00345445
0.00214639
0.00214859
0.00215551
0.002167
0.00218244
0.00220193
0.00222601
0.00225523
0.00229017
0.00233155
0.00238039
0.00243799
0.002506
0.00258678
0.00268276
0.00279831
0.00293395
0.00309555
0.00325636
0.00339516
0.00214531
0.00214749
0.00215437
0.0021658
0.00218116
0.00220054
0.00222447
0.00225349
0.00228816
0.0023292
0.00237756
0.0024345
0.00250159
0.00258099
0.00267493
0.00278707
0.00291759
0.00306953
0.00321811
0.00333662
0.00214409
0.00214625
0.00215308
0.00216444
0.00217972
0.00219898
0.00222274
0.00225153
0.00228591
0.00232656
0.00237439
0.00243061
0.00249668
0.00257457
0.00266628
0.00277479
0.00289989
0.00304217
0.00317849
0.00327877
0.00214271
0.00214486
0.00215164
0.00216293
0.0021781
0.00219722
0.00222079
0.00224934
0.00228339
0.00232361
0.00237086
0.00242627
0.00249121
0.00256746
0.00265676
0.00276143
0.00288081
0.00301345
0.00313763
0.0032216
0.00214117
0.00214329
0.00215002
0.00216122
0.00217628
0.00219524
0.0022186
0.00224687
0.00228056
0.0023203
0.0023669
0.00242143
0.00248514
0.0025596
0.0026463
0.00274692
0.00286034
0.00298341
0.00309566
0.00316507
0.00213943
0.00214154
0.0021482
0.00215931
0.00217423
0.00219302
0.00221615
0.00224412
0.0022774
0.00231661
0.0023625
0.00241606
0.00247842
0.00255094
0.00263485
0.00273122
0.00283846
0.00295208
0.00305273
0.00310916
0.00213748
0.00213956
0.00214616
0.00215716
0.00217194
0.00219054
0.00221341
0.00224103
0.00227388
0.00231249
0.0023576
0.00241009
0.00247098
0.00254143
0.00262235
0.00271429
0.00281518
0.00291948
0.00300896
0.00305386
0.00213529
0.00213735
0.00214388
0.00215476
0.00216938
0.00218776
0.00221034
0.00223759
0.00226994
0.00230791
0.00235216
0.00240349
0.00246279
0.00253099
0.00260875
0.00269609
0.0027905
0.00288568
0.00296448
0.00299918
0.00213283
0.00213487
0.00214132
0.00215207
0.00216651
0.00218465
0.00220691
0.00223374
0.00226555
0.00230281
0.00234612
0.00239619
0.00245377
0.00251959
0.002594
0.00267658
0.00276443
0.00285072
0.00291942
0.00294509
0.00213008
0.0021321
0.00213846
0.00214906
0.0021633
0.00218117
0.00220309
0.00222946
0.00226067
0.00229715
0.00233944
0.00238814
0.00244387
0.00250715
0.00257806
0.00265576
0.002737
0.00281469
0.00287387
0.00289162
0.00212701
0.00212899
0.00213526
0.0021457
0.00215971
0.0021773
0.00219882
0.00222469
0.00225525
0.00229089
0.00233206
0.00237928
0.00243303
0.00249363
0.00256088
0.00263359
0.00270825
0.00277765
0.00282795
0.00283876
0.00212358
0.00212552
0.00213168
0.00214194
0.00215572
0.00217298
0.00219408
0.0022194
0.00224924
0.00228395
0.00232392
0.00236955
0.0024212
0.00247898
0.00254245
0.00261009
0.00267822
0.00273967
0.00278176
0.00278653
0.00211974
0.00212165
0.00212769
0.00213776
0.00215126
0.00216817
0.00218881
0.00221352
0.00224259
0.0022763
0.00231496
0.0023589
0.00240832
0.00246315
0.00252271
0.00258526
0.00264697
0.00270086
0.00273538
0.00273492
0.00211546
0.00211733
0.00212325
0.0021331
0.00214631
0.00216282
0.00218295
0.00220701
0.00223524
0.00226786
0.00230514
0.00234727
0.00239434
0.0024461
0.00250168
0.00255912
0.00261455
0.00266128
0.0026889
0.00268394
0.00211069
0.00211252
0.0021183
0.00212792
0.0021408
0.00215689
0.00217646
0.00219981
0.00222713
0.00225859
0.00229438
0.0023346
0.00237921
0.00242779
0.00247932
0.00253168
0.00258102
0.00262102
0.00264238
0.00263359
0.00210538
0.00210716
0.00211279
0.00212215
0.00213468
0.00215031
0.00216929
0.00219186
0.0022182
0.00224842
0.00228262
0.00232084
0.00236288
0.00240821
0.00245565
0.00250299
0.00254647
0.00258018
0.00259589
0.00258387
0.00209948
0.00210121
0.00210667
0.00211576
0.0021279
0.00214303
0.00216135
0.0021831
0.00220839
0.00223728
0.00226982
0.00230592
0.00234531
0.00238732
0.00243066
0.00247309
0.00251095
0.00253883
0.00254949
0.00253477
0.00209293
0.0020946
0.00209989
0.00210867
0.0021204
0.00213498
0.00215261
0.00217347
0.00219764
0.00222513
0.0022559
0.00228982
0.00232648
0.00236512
0.00240439
0.00244202
0.00247456
0.00249706
0.00250323
0.00248628
0.00208566
0.00208727
0.00209236
0.00210082
0.0021121
0.0021261
0.00214298
0.00216289
0.00218587
0.00221188
0.00224083
0.00227247
0.00230635
0.00234161
0.00237685
0.00240985
0.00243736
0.00245493
0.00245714
0.00243839
0.00207761
0.00207916
0.00208404
0.00209215
0.00210295
0.00211632
0.0021324
0.00215131
0.00217304
0.0021975
0.00222453
0.00225385
0.0022849
0.00231679
0.00234808
0.00237663
0.00239943
0.00241252
0.00241126
0.00239107
0.00206871
0.00207019
0.00207485
0.00208259
0.00209287
0.00210557
0.00212081
0.00213865
0.00215906
0.00218191
0.00220698
0.00223392
0.00226213
0.00229066
0.00231811
0.00234243
0.00236085
0.00236989
0.00236562
0.00234432
0.00205888
0.00206029
0.00206471
0.00207205
0.00208178
0.00209378
0.00210812
0.00212485
0.00214389
0.00216507
0.00218812
0.00221265
0.00223802
0.00226326
0.002287
0.00230731
0.00232168
0.0023271
0.00232023
0.00229809
0.00204805
0.00204938
0.00205355
0.00206046
0.00206962
0.00208087
0.00209427
0.00210984
0.00212746
0.00214692
0.00216793
0.00219004
0.00221259
0.00223461
0.00225479
0.00227133
0.00228201
0.00228419
0.00227511
0.00225237
0.00203614
0.00203738
0.00204129
0.00204775
0.0020563
0.00206677
0.0020792
0.00209356
0.00210971
0.00212743
0.00214637
0.00216606
0.00218583
0.00220475
0.00222154
0.00223458
0.00224188
0.0022412
0.00223026
0.00220713
0.00202305
0.00202421
0.00202784
0.00203383
0.00204175
0.00205141
0.00206282
0.00207594
0.00209061
0.00210655
0.00212341
0.00214072
0.00215778
0.0021737
0.0021873
0.0021971
0.00220136
0.00219818
0.00218567
0.00216233
0.00200871
0.00200978
0.00201312
0.00201863
0.00202588
0.0020347
0.00204508
0.00205694
0.00207009
0.00208425
0.00209905
0.00211401
0.00212845
0.00214152
0.00215213
0.00215896
0.0021605
0.00215513
0.00214134
0.00211794
0.00199304
0.001994
0.00199704
0.00200205
0.00200863
0.00201659
0.00202591
0.00203648
0.00204811
0.0020605
0.00207328
0.00208595
0.00209788
0.00210825
0.00211609
0.00212021
0.00211933
0.00211209
0.00209726
0.00207393
0.00197594
0.00197681
0.00197954
0.00198403
0.00198991
0.00199701
0.00200525
0.00201454
0.00202465
0.00203529
0.00204609
0.00205655
0.00206609
0.00207394
0.00207922
0.00208091
0.00207789
0.00206905
0.00205341
0.00203024
0.00195733
0.0019581
0.00196052
0.00196449
0.00196967
0.00197588
0.00198305
0.00199106
0.00199968
0.00200861
0.00201748
0.00202584
0.00203312
0.00203863
0.00204158
0.00204108
0.00203621
0.00202603
0.00200976
0.00198686
0.00193713
0.0019378
0.00193991
0.00194336
0.00194783
0.00195316
0.00195927
0.00196601
0.00197316
0.00198044
0.00198748
0.00199384
0.00199901
0.00200236
0.00200321
0.00200079
0.0019943
0.00198302
0.0019663
0.00194372
0.00191528
0.00191585
0.00191764
0.00192056
0.00192434
0.0019288
0.00193386
0.00193936
0.0019451
0.00195079
0.00195608
0.00196057
0.00196379
0.00196519
0.00196416
0.00196004
0.00195219
0.00194
0.00192298
0.00190079
0.00189169
0.00189216
0.00189364
0.00189605
0.00189913
0.00190275
0.00190679
0.0019111
0.00191549
0.00191966
0.00192332
0.00192608
0.00192752
0.00192715
0.00192445
0.00191887
0.00190987
0.00189697
0.00187977
0.00185803
0.00186631
0.00186669
0.00186786
0.00186976
0.00187218
0.00187498
0.00187803
0.00188121
0.00188431
0.00188708
0.00188921
0.00189038
0.00189021
0.00188827
0.00188411
0.00187728
0.00186734
0.00185389
0.00183663
0.00181539
0.00183909
0.00183937
0.00184025
0.00184167
0.00184345
0.00184546
0.00184759
0.00184969
0.00185159
0.00185304
0.00185379
0.00185352
0.00185191
0.00184858
0.00184317
0.00183529
0.00182459
0.00181075
0.00179354
0.00177282
0.00180999
0.00181018
0.00181078
0.00181174
0.00181291
0.00181418
0.00181544
0.00181655
0.00181733
0.00181759
0.00181707
0.00181552
0.00181264
0.00180812
0.00180164
0.0017929
0.00178161
0.00176751
0.00175043
0.00173027
0.00177897
0.00177908
0.00177942
0.00177995
0.00178055
0.00178113
0.00178159
0.00178178
0.00178156
0.00178074
0.0017791
0.00177641
0.00177243
0.0017669
0.00175954
0.00175011
0.00173837
0.00172414
0.00170727
0.00168769
0.00174604
0.00174607
0.00174617
0.00174629
0.00174638
0.00174633
0.00174605
0.00174542
0.0017443
0.00174251
0.00173989
0.00173623
0.00173131
0.00172493
0.00171686
0.0017069
0.00169486
0.0016806
0.00166401
0.00164504
0.00171118
0.00171114
0.00171102
0.00171078
0.0017104
0.00170978
0.00170885
0.00170749
0.00170557
0.00170296
0.00169949
0.001695
0.0016893
0.00168223
0.0016736
0.00166326
0.00165104
0.00163685
0.0016206
0.00160225
0.00167441
0.00167431
0.00167399
0.00167344
0.00167263
0.00167152
0.00167001
0.00166802
0.00166542
0.00166209
0.00165791
0.00165274
0.00164642
0.00163881
0.00162977
0.00161917
0.00160689
0.00159285
0.00157699
0.00155929
0.00163577
0.00163561
0.00163512
0.00163429
0.00163312
0.00163158
0.00162958
0.00162705
0.00162387
0.00161996
0.0016152
0.00160948
0.00160268
0.00159467
0.00158535
0.00157461
0.00156237
0.00154856
0.00153314
0.0015161
0.00159528
0.00159508
0.00159445
0.00159338
0.00159191
0.00159001
0.0015876
0.00158462
0.00158098
0.0015766
0.00157139
0.00156525
0.00155809
0.00154981
0.00154033
0.00152957
0.00151745
0.00150394
0.001489
0.00147263
0.00155303
0.00155279
0.00155203
0.00155077
0.00154905
0.00154686
0.00154413
0.00154079
0.00153679
0.00153205
0.0015265
0.00152006
0.00151267
0.00150424
0.0014947
0.00148401
0.0014721
0.00145894
0.00144452
0.00142883
0.00150906
0.00150879
0.00150794
0.00150653
0.00150461
0.0015022
0.00149922
0.00149562
0.00149134
0.00148635
0.00148057
0.00147395
0.00146643
0.00145795
0.00144846
0.00143791
0.00142628
0.00141353
0.00139966
0.00138466
0.00146347
0.00146317
0.00146226
0.00146073
0.00145867
0.00145609
0.00145294
0.00144915
0.0014447
0.00143954
0.00143363
0.00142693
0.00141937
0.00141094
0.00140158
0.00139126
0.00137996
0.00136766
0.00135436
0.00134006
0.00141633
0.00141603
0.00141506
0.00141346
0.00141131
0.00140862
0.00140536
0.00140146
0.00139691
0.00139168
0.00138573
0.00137902
0.00137153
0.00136322
0.00135406
0.00134403
0.00133312
0.00132131
0.0013086
0.00129501
0.00136776
0.00136745
0.00136645
0.00136481
0.0013626
0.00135987
0.00135655
0.00135261
0.00134804
0.0013428
0.00133689
0.00133026
0.0013229
0.00131478
0.00130589
0.00129621
0.00128572
0.00127443
0.00126234
0.00124945
0.00131785
0.00131753
0.00131653
0.00131487
0.00131265
0.00130991
0.00130659
0.00130267
0.00129813
0.00129297
0.00128715
0.00128067
0.00127351
0.00126564
0.00125707
0.00124777
0.00123776
0.00122701
0.00121554
0.00120336
0.0012667
0.00126638
0.00126539
0.00126374
0.00126154
0.00125883
0.00125556
0.00125171
0.00124726
0.00124222
0.00123656
0.00123028
0.00122337
0.00121581
0.00120759
0.00119873
0.0011892
0.00117902
0.00116819
0.00115671
0.00121441
0.0012141
0.00121313
0.00121151
0.00120937
0.00120672
0.00120353
0.00119979
0.00119548
0.00119061
0.00118516
0.00117913
0.0011725
0.00116529
0.00115747
0.00114906
0.00114004
0.00113044
0.00112024
0.00110947
0.00116109
0.00116079
0.00115985
0.00115829
0.00115622
0.00115366
0.00115059
0.00114699
0.00114286
0.00113819
0.00113298
0.00112723
0.00112094
0.00111409
0.0011067
0.00109876
0.00109027
0.00108125
0.00107169
0.00106162
0.00110684
0.00110656
0.00110565
0.00110416
0.00110218
0.00109973
0.0010968
0.00109337
0.00108944
0.00108501
0.00108007
0.00107463
0.00106869
0.00106224
0.00105529
0.00104784
0.00103989
0.00103145
0.00102253
0.00101314
0.00105175
0.00105148
0.00105062
0.0010492
0.00104733
0.00104501
0.00104224
0.001039
0.00103529
0.00103112
0.00102647
0.00102136
0.00101579
0.00100975
0.00100325
0.000996295
0.000988887
0.000981033
0.00097274
0.000964019
0.000995894
0.000995639
0.000994836
0.000993505
0.000991741
0.000989569
0.000986972
0.000983937
0.000980463
0.000976557
0.00097222
0.000967454
0.000962259
0.000956638
0.000950596
0.000944137
0.000937266
0.00092999
0.000922316
0.000914252
0.000939355
0.000939117
0.000938368
0.000937128
0.000935485
0.000933463
0.000931047
0.000928224
0.000924997
0.00092137
0.000917347
0.000912929
0.000908118
0.000902919
0.000897334
0.000891369
0.00088503
0.000878321
0.000871252
0.000863828
0.000882191
0.000881971
0.000881279
0.000880133
0.000878614
0.000876746
0.000874514
0.000871909
0.000868932
0.000865588
0.000861881
0.000857813
0.000853387
0.000848605
0.000843473
0.000837996
0.000832177
0.000826024
0.000819544
0.000812742
0.00082445
0.000824249
0.000823614
0.000822562
0.000821169
0.000819456
0.000817411
0.000815024
0.000812297
0.000809236
0.000805843
0.000802122
0.000798075
0.000793705
0.000789018
0.000784016
0.000778707
0.000773094
0.000767184
0.000760983
0.000766165
0.000765981
0.000765404
0.000764447
0.000763179
0.00076162
0.000759759
0.000757588
0.000755109
0.000752326
0.000749243
0.000745862
0.000742187
0.00073822
0.000733965
0.000729428
0.000724611
0.000719521
0.000714163
0.000708542
0.000707348
0.000707183
0.000706661
0.000705797
0.000704652
0.000703245
0.000701565
0.000699606
0.000697368
0.000694857
0.000692076
0.000689028
0.000685713
0.000682137
0.000678302
0.000674213
0.000669873
0.000665287
0.00066046
0.000655398
0.000647994
0.000647846
0.000647378
0.000646605
0.00064558
0.000644321
0.000642817
0.000641064
0.000639062
0.000636815
0.000634327
0.0006316
0.000628635
0.000625437
0.000622008
0.000618351
0.00061447
0.00061037
0.000606054
0.000601527
0.000588068
0.000587937
0.000587523
0.000586837
0.000585928
0.000584811
0.000583478
0.000581924
0.000580148
0.000578157
0.000575951
0.000573534
0.000570906
0.000568071
0.000565031
0.000561789
0.000558349
0.000554715
0.000550889
0.000546875
0.000527513
0.000527398
0.000527035
0.000526434
0.000525638
0.000524659
0.000523491
0.000522129
0.000520573
0.000518828
0.000516895
0.000514776
0.000512473
0.000509988
0.000507324
0.000504483
0.000501468
0.000498282
0.000494927
0.000491408
0.000466231
0.000466131
0.000465817
0.000465297
0.000464608
0.000463761
0.000462751
0.000461572
0.000460226
0.000458716
0.000457044
0.000455211
0.000453219
0.000451069
0.000448763
0.000446305
0.000443695
0.000440938
0.000438034
0.000434987
0.000404094
0.00040401
0.000403745
0.000403304
0.000402721
0.000402003
0.000401147
0.000400147
0.000399007
0.000397726
0.000396308
0.000394754
0.000393064
0.00039124
0.000389284
0.000387198
0.000384984
0.000382643
0.000380178
0.000377591
0.000340902
0.00034083
0.000340608
0.000340241
0.000339755
0.000339159
0.000338447
0.000337616
0.000336669
0.000335605
0.000334428
0.000333137
0.000331734
0.00033022
0.000328596
0.000326864
0.000325025
0.000323082
0.000321035
0.000318887
0.000276444
0.000276391
0.000276218
0.00027593
0.000275547
0.000275075
0.000274512
0.000273854
0.000273103
0.000272259
0.000271325
0.0002703
0.000269186
0.000267983
0.000266692
0.000265315
0.000263852
0.000262306
0.000260677
0.000258967
0.00021032
0.000210274
0.000210134
0.000209909
0.000209612
0.00020925
0.000208818
0.000208315
0.000207742
0.000207099
0.000206388
0.00020561
0.000204764
0.000203852
0.000202873
0.00020183
0.000200724
0.000199554
0.000198322
0.000197029
0.000142292
0.000142272
0.000142195
0.000142057
0.00014187
0.000141638
0.00014136
0.000141034
0.00014066
0.00014024
0.000139774
0.000139262
0.000138705
0.000138103
0.000137457
0.000136767
0.000136033
0.000135257
0.00013444
0.000133581
7.14335e-05
7.13989e-05
7.13275e-05
7.12312e-05
7.11149e-05
7.09774e-05
7.08168e-05
7.06329e-05
7.04264e-05
7.01975e-05
6.99465e-05
6.96735e-05
6.93786e-05
6.90622e-05
6.87244e-05
6.83655e-05
6.79859e-05
6.75857e-05
6.71653e-05
6.6725e-05
0.00503985
0.00305475
0.00237588
0.00221755
0.00206891
0.00190993
0.00177317
0.00166156
0.00156866
0.00148836
0.0014169
0.00135235
0.00129346
0.00123926
0.00118898
0.00114206
0.00109806
0.00105662
0.00101745
0.000980312
0.000944992
0.000911317
0.000879136
0.000848319
0.000818752
0.000790333
0.000762976
0.000736602
0.000711142
0.000686532
0.000662718
0.000639649
0.000617279
0.000595567
0.000574475
0.000553969
0.000534017
0.000514591
0.000495664
0.000477212
0.000459211
0.000441642
0.000424485
0.000407722
0.000391338
0.000375316
0.000359642
0.000344305
0.000329292
0.000314591
0.000300195
0.000286093
0.000272278
0.000258742
0.000245478
0.000232483
0.000219752
0.00020728
0.000195067
0.00018311
0.000171411
0.00015997
0.000148793
0.000137886
0.000127257
0.000116919
0.000106891
9.71949e-05
8.78689e-05
7.89458e-05
7.05291e-05
6.25928e-05
5.56215e-05
4.87799e-05
4.54904e-05
3.71406e-05
5.17584e-05
1.19231e-05
0.000145306
-0.000193615
0.00509454
0.00310954
0.00241244
0.00223841
0.00208107
0.00191847
0.00178019
0.00166762
0.00157393
0.00149296
0.00142096
0.00135597
0.00129672
0.00124223
0.00119171
0.00114457
0.00110038
0.00105879
0.00101948
0.000982214
0.000946783
0.000913008
0.000880738
0.000849839
0.000820198
0.000791712
0.000764292
0.000737861
0.000712348
0.00068769
0.00066383
0.000640719
0.00061831
0.000596561
0.000575435
0.000554897
0.000534915
0.00051546
0.000496506
0.000478028
0.000460004
0.000442412
0.000425233
0.00040845
0.000392046
0.000376005
0.000360314
0.00034496
0.00032993
0.000315215
0.000300803
0.000286687
0.000272859
0.000259309
0.000246033
0.000233026
0.000220283
0.0002078
0.000195576
0.000183609
0.0001719
0.00016045
0.000149263
0.000138347
0.00012771
0.000117363
0.000107327
9.76234e-05
8.82899e-05
7.93596e-05
7.0936e-05
6.29929e-05
5.60155e-05
4.91672e-05
4.58739e-05
3.75147e-05
5.2136e-05
1.22921e-05
0.000145694
-0.000193405
0.00507732
0.00311998
0.00242869
0.00225307
0.00209403
0.00192981
0.00178997
0.00167609
0.00158134
0.00149951
0.0014268
0.00136122
0.00130149
0.00124659
0.00119572
0.00114828
0.00110383
0.00106201
0.0010225
0.000985053
0.000949461
0.000915541
0.000883139
0.000852121
0.00082237
0.000793784
0.000766273
0.000739758
0.000714166
0.000689435
0.000665509
0.000642335
0.000619867
0.000598064
0.000576886
0.000556299
0.000536272
0.000516775
0.00049778
0.000479264
0.000461204
0.000443578
0.000426366
0.000409552
0.000393119
0.00037705
0.000361332
0.000345952
0.000330899
0.00031616
0.000301726
0.000287588
0.000273739
0.00026017
0.000246875
0.00023385
0.000221089
0.00020859
0.000196349
0.000184367
0.000172642
0.000161178
0.000149977
0.000139047
0.000128397
0.000118038
0.000107989
9.82736e-05
8.89286e-05
7.99874e-05
7.15532e-05
6.35998e-05
5.6613e-05
4.97541e-05
4.64554e-05
3.80787e-05
5.27141e-05
1.28209e-05
0.00014637
-0.000193207
0.00503979
0.00312463
0.00243809
0.00225962
0.00210101
0.00193796
0.00179839
0.00168404
0.00158857
0.00150602
0.00143269
0.00136658
0.00130639
0.0012511
0.00119989
0.00115216
0.00110746
0.0010654
0.00102569
0.000988062
0.000952306
0.000918237
0.0008857
0.000854559
0.000824695
0.000796005
0.000768398
0.000741794
0.000716121
0.000691314
0.000667317
0.000644076
0.000621547
0.000599685
0.000578453
0.000557816
0.00053774
0.000518197
0.00049916
0.000480603
0.000462504
0.000444841
0.000427595
0.000410748
0.000394283
0.000378185
0.000362438
0.000347031
0.000331951
0.000317187
0.000302729
0.000288569
0.000274698
0.000261107
0.000247792
0.000234747
0.000221968
0.00020945
0.000197192
0.000185192
0.000173452
0.000161971
0.000150755
0.000139811
0.000129146
0.000118774
0.000108712
9.89834e-05
8.96261e-05
8.06728e-05
7.22271e-05
6.42624e-05
5.7265e-05
5.03947e-05
4.70881e-05
3.86955e-05
5.33322e-05
1.34095e-05
0.000147127
-0.000193069
0.00499876
0.00313236
0.00244905
0.00226597
0.0021059
0.001943
0.00180396
0.00169003
0.00159464
0.00151189
0.00143821
0.00137173
0.00131119
0.00125557
0.00120407
0.00115608
0.00111114
0.00106887
0.00102896
0.000991164
0.000955249
0.000921036
0.000888366
0.000857103
0.000827127
0.000798334
0.000770631
0.000743937
0.000718181
0.000693297
0.000669227
0.000645919
0.000623326
0.000601405
0.000580116
0.000559426
0.000539301
0.000519711
0.000500628
0.00048203
0.00046389
0.00044619
0.000428907
0.000412026
0.000395528
0.000379398
0.000363621
0.000348185
0.000333078
0.000318288
0.000303805
0.00028962
0.000275726
0.000262113
0.000248776
0.000235711
0.000222911
0.000210374
0.000198098
0.00018608
0.000174322
0.000162825
0.000151593
0.000140633
0.000129953
0.000119566
0.00010949
9.9748e-05
9.03775e-05
8.14114e-05
7.29532e-05
6.49763e-05
5.79672e-05
5.10849e-05
4.77669e-05
3.93623e-05
5.39815e-05
1.40662e-05
0.000147919
-0.000192923
0.00495625
0.00313965
0.00245913
0.00227196
0.0021105
0.00194715
0.0018079
0.00169404
0.00159888
0.00151635
0.00144276
0.00137623
0.00131556
0.00125976
0.00120806
0.00115988
0.00111475
0.0010723
0.00103224
0.000994284
0.000958229
0.000923885
0.000891093
0.000859717
0.000829635
0.000800742
0.000772947
0.000746167
0.00072033
0.00069537
0.000671228
0.000647853
0.000625196
0.000603215
0.000581871
0.000561127
0.000540951
0.000521312
0.000502185
0.000483543
0.000465362
0.000447622
0.000430303
0.000413386
0.000396854
0.000380691
0.000364884
0.000349418
0.000334282
0.000319465
0.000304955
0.000290746
0.000276827
0.000263191
0.000249832
0.000236745
0.000223924
0.000211367
0.000199071
0.000187035
0.000175259
0.000163744
0.000152495
0.000141518
0.000130823
0.00012042
0.000110329
0.000100572
9.11875e-05
8.22077e-05
7.37362e-05
6.57462e-05
5.87241e-05
5.18295e-05
4.84963e-05
4.00839e-05
5.46648e-05
1.47999e-05
0.000148728
-0.000192725
0.00491205
0.00314574
0.00246799
0.00227692
0.00211444
0.00195091
0.0018114
0.00169727
0.00160198
0.00151946
0.00144601
0.00137964
0.00131906
0.0012633
0.00121157
0.00116331
0.00111809
0.00107554
0.00103536
0.000997294
0.000961131
0.000926682
0.00089379
0.000862317
0.000832144
0.000803165
0.000775287
0.000748429
0.000722517
0.000697486
0.000673278
0.000649839
0.000627122
0.000605084
0.000583684
0.000562889
0.000542663
0.000522978
0.000503806
0.000485121
0.0004669
0.000449121
0.000431764
0.000414811
0.000398245
0.00038205
0.000366211
0.000350715
0.00033555
0.000320705
0.000306169
0.000291934
0.00027799
0.00026433
0.000250948
0.000237839
0.000224997
0.000212419
0.000200103
0.000188047
0.000176253
0.00016472
0.000153453
0.000142459
0.000131747
0.000121328
0.000111221
0.00010145
9.20505e-05
8.30564e-05
7.45707e-05
6.65671e-05
5.95306e-05
5.26234e-05
4.92711e-05
4.08559e-05
5.5375e-05
1.56106e-05
0.000149525
-0.000192447
0.00486626
0.00315135
0.00247635
0.00228122
0.00211771
0.00195412
0.00181451
0.0017002
0.00160468
0.00152198
0.00144844
0.00138208
0.0013216
0.00126595
0.00121433
0.00116613
0.00112093
0.00107838
0.00103816
0.00100005
0.000963827
0.000929314
0.000896355
0.000864814
0.000834572
0.000805526
0.000777582
0.000750659
0.000724685
0.000699594
0.000675327
0.000651832
0.000629061
0.000606971
0.000585522
0.000564678
0.000544407
0.000524678
0.000505463
0.000486737
0.000468477
0.000450661