/*--------------------------------*- C++ -*----------------------------------*\
| =========                 |                                                 |
| \\      /  F ield         | OpenFOAM: The Open Source CFD Toolbox           |
|  \\    /   O peration     | Version:  v1912                                 |
|   \\  /    A nd           | Website:  www.openfoam.com                      |
|    \\/     M anipulation  |                                                 |
\*---------------------------------------------------------------------------*/
FoamFile
{
    version     2.0;
    format      ascii;
    class       volScalarField;
    location    "1000";
    object      yPlus;
}
// * * * * * * * * * * * * * * * * * * * * * * * * * * * * * * * * * * * * * //

dimensions      [0 0 0 0 0 0 0];


internalField   uniform 0;

boundaryField
{
    inlet
    {
        type            calculated;
        value           uniform 0;
    }
    outlet
    {
        type            calculated;
        value           uniform 0;
    }
    top
    {
        type            calculated;
        value           uniform 0;
    }
    plate
    {
        type            calculated;
        value           nonuniform List<scalar> 
80
(
89.0737
80.9939
76.6222
74.3601
72.8626
71.6446
70.605
69.7182
68.9577
68.2966
67.7125
67.1893
66.7155
66.2827
65.8843
65.5156
65.1724
64.8516
64.5507
64.2673
63.9996
63.7462
63.5054
63.2763
63.0578
62.849
62.6491
62.4575
62.2735
62.0965
61.9261
61.7618
61.6032
61.4501
61.3019
61.1584
61.0194
60.8846
60.7537
60.6266
60.503
60.3828
60.2659
60.1519
60.041
59.9328
59.8272
59.7242
59.6236
59.5253
59.4292
59.3353
59.2435
59.1536
59.0656
58.9795
58.895
58.8123
58.7313
58.6518
58.5737
58.4972
58.4222
58.3484
58.276
58.2048
58.1349
58.0662
57.9986
57.9322
57.8668
57.8024
57.739
57.6763
57.6152
57.5527
57.4966
57.4243
57.3946
57.2868
)
;
    }
    front
    {
        type            symmetryPlane;
    }
    defaultFaces
    {
        type            empty;
    }
}


// ************************************************************************* //
