/*--------------------------------*- C++ -*----------------------------------*\
| =========                 |                                                 |
| \\      /  F ield         | OpenFOAM: The Open Source CFD Toolbox           |
|  \\    /   O peration     | Version:  v1912                                 |
|   \\  /    A nd           | Website:  www.openfoam.com                      |
|    \\/     M anipulation  |                                                 |
\*---------------------------------------------------------------------------*/
FoamFile
{
    version     2.0;
    format      ascii;
    class       volScalarField;
    location    "60";
    object      nut;
}
// * * * * * * * * * * * * * * * * * * * * * * * * * * * * * * * * * * * * * //

dimensions      [0 2 -1 0 0 0 0];


internalField   nonuniform List<scalar> 
12441
(
5.8251e-24
1.80559e-20
8.27365e-20
3.4026e-19
1.09216e-18
3.97197e-18
1.03537e-17
2.56062e-17
6.29697e-17
1.30871e-16
3.13549e-16
7.9119e-16
2.23765e-15
7.59635e-15
1.0632e-13
1.94216e-11
0.000226968
0.00140058
0.00432983
0.00308243
0.00363179
0.00775321
6.34708e-24
3.10442e-20
1.16182e-19
4.42087e-19
1.35684e-18
5.00336e-18
1.27402e-17
3.13142e-17
7.69461e-17
1.6146e-16
3.96737e-16
1.07449e-15
2.95258e-15
9.78545e-15
1.17918e-13
4.06178e-11
6.56448e-05
0.00170501
0.00491945
0.00335015
0.00399071
0.00781733
6.36969e-24
3.72646e-20
1.2724e-19
4.73329e-19
1.45609e-18
5.18282e-18
1.37002e-17
3.39205e-17
8.53726e-17
1.82108e-16
4.42663e-16
1.18303e-15
2.94866e-15
8.11306e-15
5.65892e-14
6.93868e-12
1.22435e-05
0.00123211
0.00191724
0.00315355
0.00414168
0.0078909
6.32417e-24
3.96794e-20
1.26737e-19
4.60206e-19
1.42462e-18
5.07162e-18
1.35102e-17
3.37898e-17
8.47927e-17
1.87526e-16
4.5708e-16
1.24389e-15
2.81287e-15
9.12521e-15
4.13977e-14
1.65546e-12
1.76953e-06
0.000839291
0.00140689
0.00305508
0.00430427
0.0079647
6.28979e-24
4.67925e-20
1.4031e-19
4.96567e-19
1.52579e-18
5.20822e-18
1.43108e-17
3.58184e-17
9.2201e-17
2.05002e-16
4.96002e-16
1.40226e-15
3.29588e-15
4.44256e-14
2.69294e-13
2.49758e-12
1.52293e-07
0.000574478
0.00134299
0.00302641
0.00444779
0.00803394
6.23971e-24
4.45874e-20
1.32164e-19
4.7163e-19
1.48488e-18
5.1277e-18
1.41938e-17
3.60247e-17
9.23058e-17
2.14377e-16
5.29957e-16
1.60503e-15
5.0299e-15
1.47317e-12
1.31612e-11
5.63062e-11
5.06267e-07
0.000494501
0.0013449
0.00307063
0.00458215
0.00809948
6.20441e-24
5.49017e-20
1.52531e-19
5.27601e-19
1.6317e-18
5.37504e-18
1.52943e-17
3.87323e-17
1.02103e-16
2.37481e-16
5.85225e-16
2.24621e-15
2.81059e-14
4.65151e-11
7.36744e-10
1.04679e-08
2.01218e-05
0.000452485
0.00144951
0.00325245
0.00474396
0.00816218
6.15481e-24
4.80128e-20
1.38154e-19
4.94685e-19
1.59912e-18
5.38911e-18
1.54718e-17
3.98575e-17
1.04573e-16
2.56025e-16
6.5384e-16
6.20325e-15
6.95262e-13
2.56438e-09
9.54313e-08
5.41748e-06
0.000189553
0.00045669
0.00182613
0.00364362
0.00496527
0.00822577
6.12159e-24
6.2184e-20
1.65242e-19
5.65938e-19
1.78107e-18
5.71109e-18
1.68831e-17
4.33757e-17
1.18e-16
2.89828e-16
7.44473e-16
7.07402e-14
2.98738e-11
8.53829e-08
1.14127e-05
0.000148968
0.000716246
0.000739584
0.00263773
0.00432116
0.00528549
0.00829204
6.07494e-24
5.00363e-20
1.43618e-19
5.23782e-19
1.75498e-18
5.80139e-18
1.73303e-17
4.54599e-17
1.23234e-16
3.22793e-16
8.76899e-16
1.96847e-12
1.26642e-09
5.07869e-06
0.000186884
0.000544432
0.00134899
0.00125081
0.00402754
0.00535318
0.00572357
0.00836448
6.0453e-24
6.86096e-20
1.7688e-19
6.07165e-19
1.96279e-18
6.14441e-18
1.89748e-17
4.97345e-17
1.41328e-16
3.75596e-16
1.05446e-15
6.1796e-11
6.50331e-08
8.44945e-05
0.000642361
0.00131914
0.0025
0.0021664
0.00619034
0.00682015
0.00629472
0.00844366
6.00013e-24
5.13093e-20
1.48986e-19
5.57245e-19
1.94633e-18
6.33388e-18
1.97385e-17
5.29709e-17
1.50986e-16
4.37932e-16
1.38907e-15
1.74429e-09
3.81096e-06
0.000320701
0.00123559
0.00248185
0.00437823
0.0037633
0.00931385
0.00873942
0.00698476
0.00853143
5.97403e-24
7.43571e-20
1.88201e-19
6.50506e-19
2.17682e-18
6.68849e-18
2.16825e-17
5.83442e-17
1.77726e-16
5.38178e-16
2.04812e-15
4.25668e-08
7.53413e-05
0.000891436
0.00256019
0.00459662
0.00749268
0.00640606
0.0134066
0.0110669
0.00777814
0.00862633
5.93032e-24
5.18427e-20
1.53791e-19
5.93149e-19
2.17047e-18
6.97671e-18
2.27895e-17
6.31173e-17
1.96482e-16
6.85996e-16
4.41017e-15
9.71029e-07
0.000319339
0.00198127
0.00480436
0.00792974
0.0121883
0.0103606
0.0182254
0.0136564
0.00863307
0.00872852
5.90742e-24
7.95353e-20
1.9856e-19
6.95098e-19
2.42104e-18
7.31592e-18
2.50422e-17
7.01117e-17
2.42387e-16
9.61656e-16
2.03727e-14
1.7779e-05
0.000926826
0.0040033
0.00830589
0.0126829
0.0185386
0.0155804
0.0232917
0.0163447
0.00952065
0.00883515
5.86403e-24
5.22165e-20
1.58917e-19
6.328e-19
2.43067e-18
7.73211e-18
2.65864e-17
7.72559e-17
2.85939e-16
1.52117e-15
3.77191e-13
0.000138986
0.00201971
0.00719792
0.0132326
0.0188331
0.0262423
0.0215847
0.0280801
0.0189419
0.0103947
0.00894576
5.84439e-24
8.43214e-20
2.0963e-19
7.44193e-19
2.70671e-18
8.07623e-18
2.93258e-17
8.72363e-17
3.88073e-16
2.89883e-15
1.583e-11
0.000472206
0.00402769
0.0117097
0.0194026
0.0261244
0.0345726
0.0275698
0.0321709
0.0213309
0.0112345
0.00905718
5.80075e-24
5.24054e-20
1.64115e-19
6.75932e-19
2.73166e-18
8.61459e-18
3.14123e-17
9.84322e-17
5.20806e-16
6.92874e-15
6.95548e-10
0.00108966
0.00716321
0.0175063
0.0265932
0.0340113
0.0424934
0.0326935
0.0354024
0.0234174
0.012007
0.00916919
5.78382e-24
8.87352e-20
2.20581e-19
7.95266e-19
3.02921e-18
8.93734e-18
3.47534e-17
1.13832e-16
8.46792e-16
2.16329e-14
5.60088e-08
0.00235469
0.011599
0.0241923
0.0342151
0.0417636
0.0489386
0.0364329
0.0378257
0.0251962
0.0127108
0.00927899
5.73964e-24
5.25229e-20
1.69038e-19
7.20258e-19
3.06827e-18
9.61129e-18
3.75888e-17
1.32436e-16
1.39886e-15
9.72461e-14
1.02823e-05
0.00445871
0.0171777
0.0314048
0.0417523
0.0485643
0.0531354
0.0387425
0.0396641
0.0266626
0.0133302
0.00938714
5.72599e-24
9.28078e-20
2.31118e-19
8.4641e-19
3.38749e-18
9.92035e-18
4.18905e-17
1.58476e-16
2.84779e-15
1.01178e-12
0.000169234
0.00771193
0.0235272
0.0385733
0.0484713
0.0537625
0.0548668
0.0400091
0.0411622
0.0278714
0.013881
0.00949146
5.68099e-24
5.236e-20
1.72982e-19
7.63604e-19
3.4388e-18
1.07322e-17
4.58894e-17
1.92149e-16
5.69494e-15
1.75508e-11
0.000589325
0.0121523
0.0301708
0.0453284
0.0539275
0.0569945
0.0545132
0.0407884
0.0425479
0.0288499
0.0143617
0.00959327
5.67003e-24
9.66265e-20
2.40519e-19
8.95345e-19
3.77625e-18
1.10194e-17
5.17692e-17
2.4097e-16
1.35067e-14
2.18059e-10
0.00139675
0.0175516
0.0366552
0.0511998
0.0577063
0.0583146
0.0528771
0.0415704
0.0439612
0.0296664
0.0148016
0.00969106
5.62451e-24
5.2307e-20
1.76172e-19
8.05019e-19
3.84003e-18
1.19781e-17
5.77983e-17
3.07232e-16
2.97584e-14
2.06076e-09
0.00288294
0.0235448
0.0426245
0.0559772
0.0598381
0.0581029
0.0508531
0.0426351
0.0454917
0.0303563
0.0152102
0.00978684
5.61707e-24
1.00343e-19
2.49077e-19
9.41597e-19
4.19659e-18
1.2268e-17
6.67253e-17
4.06726e-16
7.50165e-14
1.82123e-08
0.00524786
0.0296451
0.0478422
0.059458
0.0604783
0.0569543
0.0491437
0.0440767
0.0471642
0.0309937
0.015626
0.00987966
5.56977e-24
5.25651e-20
1.78882e-19
8.44603e-19
4.27455e-18
1.33878e-17
7.67471e-17
5.47887e-16
1.75011e-13
4.19691e-07
0.00858838
0.0354913
0.0521736
0.0617225
0.06008
0.055458
0.0481273
0.0458692
0.0489853
0.0316218
0.0160648
0.00997203
5.56483e-24
1.0395e-19
2.56752e-19
9.84834e-19
4.64812e-18
1.36994e-17
9.18907e-17
7.69459e-16
5.2741e-13
2.3287e-05
0.0127182
0.040772
0.0555733
0.0628755
0.0590361
0.0540835
0.0479003
0.047947
0.0509293
0.0323164
0.016568
0.0100634
5.51641e-24
5.30701e-20
1.80784e-19
8.81075e-19
4.7404e-18
1.49935e-17
1.10394e-16
1.09875e-15
2.48037e-12
0.000232558
0.0173646
0.0453483
0.0580657
0.0632036
0.0577817
0.0531014
0.0483913
0.0502357
0.0529695
0.0331154
0.0171494
0.0101564
5.51484e-24
1.07476e-19
2.63217e-19
1.02386e-18
5.132e-18
1.5341e-17
1.38972e-16
1.63262e-15
1.73712e-11
0.000700685
0.0221378
0.0491336
0.0597357
0.062932
0.0565643
0.0526208
0.0494658
0.0526738
0.0550598
0.0340764
0.0178419
0.0102507
5.46417e-24
5.3665e-20
1.81601e-19
9.13537e-19
5.23974e-18
1.68283e-17
1.76525e-16
2.45782e-15
1.01343e-10
0.00129862
0.0267656
0.0521372
0.0607055
0.0623384
0.0555815
0.052631
0.0509848
0.0552063
0.0571577
0.0352091
0.0186447
0.0103488
5.46463e-24
1.10864e-19
2.68848e-19
1.059e-18
5.65068e-18
1.72632e-17
2.35879e-16
3.84246e-15
4.87688e-10
0.00207382
0.0309934
0.0543833
0.0611192
0.0615856
0.0548782
0.0530672
0.0528277
0.0577863
0.0592063
0.0365326
0.0195718
0.01045
5.41291e-24
5.42618e-20
1.81216e-19
9.42089e-19
5.77679e-18
1.89545e-17
3.17987e-16
6.05856e-15
1.91072e-09
0.00304107
0.0346943
0.0559492
0.0611195
0.0608373
0.0544837
0.0538404
0.0548947
0.0603664
0.0611548
0.0380169
0.0206001
0.0105565
5.41648e-24
1.14157e-19
2.73331e-19
1.09103e-18
6.21569e-18
1.95136e-17
4.49797e-16
9.76289e-15
6.53194e-09
0.00421983
0.0377605
0.0569102
0.0608391
0.0601555
0.0543508
0.0548655
0.0571041
0.0629019
0.0629419
0.0396446
0.0217215
0.010667
5.3613e-24
5.45847e-20
1.79322e-19
9.67508e-19
6.366e-18
2.14726e-17
6.37747e-16
1.57028e-14
1.9969e-08
0.00559047
0.0401841
0.0573692
0.0603881
0.0596087
0.0544547
0.0560645
0.0593879
0.0653458
0.0645157
0.041359
0.022893
0.0107831
5.36681e-24
1.14075e-19
2.73083e-19
1.11501e-18
6.82981e-18
2.22108e-17
9.40477e-16
2.56785e-14
5.88494e-08
0.00711537
0.0419759
0.0574154
0.0598564
0.0591989
0.0547364
0.0573753
0.06169
0.0676556
0.0658182
0.0431296
0.024094
0.0109032
5.3076e-24
5.37942e-20
1.73168e-19
9.82547e-19
7.00042e-18
2.44193e-17
1.37305e-15
4.18523e-14
2.98729e-07
0.00878037
0.0432194
0.057149
0.0593095
0.0589514
0.0551724
0.0587474
0.0639656
0.0697915
0.0668046
0.0449023
0.0252758
0.0110282
5.3135e-24
1.10356e-19
2.65524e-19
1.12514e-18
7.48773e-18
2.53172e-17
2.0575e-15
8.01918e-14
1.26508e-05
0.0105949
0.0440009
0.0566487
0.0587964
0.0588486
0.0557203
0.0601473
0.0661829
0.0717238
0.0674289
0.0466645
0.0264218
0.0111563
5.24752e-24
5.41462e-20
1.66791e-19
9.93269e-19
7.7024e-18
2.79215e-17
3.01642e-15
6.54061e-13
0.000160835
0.0126283
0.0444417
0.0559943
0.0583479
0.0589063
0.0563746
0.0615534
0.068324
0.0734308
0.0676631
0.0483889
0.0274965
0.0112883
5.25032e-24
6.98132e-20
2.02023e-19
1.04581e-18
8.06503e-18
2.88711e-17
4.48852e-15
3.24363e-11
0.0007603
0.0149731
0.0446372
0.0552429
0.0579842
0.0591084
0.0571141
0.0629608
0.0703868
0.0749056
0.0674826
0.0500914
0.0285094
0.011422
5.17399e-24
5.64357e-20
1.5015e-19
9.50493e-19
8.37546e-18
3.32317e-17
6.58923e-15
1.45563e-09
0.00217812
0.0176801
0.0446791
0.0544496
0.0577116
0.0594754
0.0579537
0.0643758
0.0723852
0.0761498
0.0668853
0.0517612
0.0294594
0.0115584
5.16677e-24
2.52484e-21
1.46643e-20
5.24946e-19
7.65481e-18
3.43636e-17
1.01549e-14
2.4745e-07
0.00468963
0.0206999
0.0446102
0.0536485
0.0575284
0.059997
0.0588891
0.0658201
0.0743484
0.077178
0.0658758
0.0533956
0.0303973
0.0116955
5.07902e-24
2.22917e-20
5.86033e-20
5.46507e-19
7.6976e-18
5.10848e-17
2.54422e-14
3.99082e-05
0.00839503
0.0239354
0.0444556
0.0528743
0.0574198
0.0607017
0.0599535
0.0673241
0.0763178
0.0780077
0.0644837
0.0548935
0.0313494
0.0118345
5.03973e-24
8.84412e-22
1.11556e-22
3.10416e-19
7.19761e-18
1.17906e-16
5.28315e-13
0.000406921
0.0132892
0.027266
0.044197
0.0521443
0.0573633
0.0615759
0.0611491
0.0689327
0.0783458
0.0786614
0.062744
0.0560391
0.0323281
0.011976
4.83995e-24
2.56374e-19
5.69359e-19
1.29583e-18
9.80512e-18
1.24238e-15
9.84926e-12
0.00151522
0.0192924
0.030657
0.0438785
0.0515017
0.0573317
0.0626409
0.0625065
0.0706856
0.0804805
0.0791151
0.0607001
0.0563628
0.0330157
0.0121338
0.00987657
0.0189134
0.0118134
0.00445268
0.00361736
0.00272796
0.00249944
0.00271746
0.00325385
0.00452777
0.00972848
0.0121275
0.0146226
0.0189829
0.023491
0.026158
0.0267243
0.0253118
0.0220462
0.0176673
0.0152832
0.01512
0.0209515
0.0412539
0.0641263
0.0773877
0.0848931
0.0907716
0.0935059
0.0885889
0.0813379
0.0776337
0.0789507
0.0902542
0.10793
0.00986353
0.0191099
0.0113744
0.00431096
0.00350346
0.00263207
0.00249729
0.00276153
0.00329876
0.00455118
0.00945058
0.0118022
0.014309
0.0186446
0.0231961
0.0259717
0.0268517
0.0257998
0.0226448
0.0180174
0.0154237
0.0152324
0.0210353
0.0413567
0.0642114
0.0774397
0.0849328
0.0908048
0.09355
0.0885714
0.0813218
0.077622
0.0789594
0.0902626
0.107946
0.00983842
0.0192543
0.0107733
0.00408415
0.00329185
0.00248397
0.00257399
0.00304616
0.00367257
0.00497968
0.00888961
0.0108092
0.01332
0.0174491
0.0213502
0.023339
0.0240157
0.0234811
0.0213505
0.0176094
0.0154809
0.0155776
0.0215837
0.0416756
0.0643181
0.0774631
0.0849371
0.0908034
0.0935852
0.0884891
0.0812495
0.0775611
0.0789427
0.0902429
0.10794
0.00979929
0.0193572
0.0100673
0.00379754
0.0028555
0.00212796
0.00234838
0.00293315
0.00374242
0.00529941
0.00826844
0.00971047
0.0121674
0.0162729
0.0197242
0.0207014
0.0206522
0.0202515
0.0191702
0.0167875
0.0154925
0.0160674
0.0224284
0.0421568
0.0644379
0.0774507
0.0848992
0.0907614
0.093606
0.0883384
0.0811187
0.0774486
0.078899
0.0901937
0.107913
0.00974597
0.0193339
0.00925731
0.00337132
0.00235558
0.00180195
0.0020541
0.00253666
0.00340172
0.00523323
0.0075957
0.00871837
0.01118
0.015542
0.0189494
0.0190317
0.0180041
0.017302
0.0168882
0.0158381
0.0154938
0.0166403
0.0234474
0.0427559
0.0645728
0.077409
0.084825
0.0906846
0.0936168
0.0881259
0.080936
0.0772911
0.0788346
0.0901229
0.107872
0.00967615
0.0191198
0.00834676
0.00289239
0.00200833
0.00162122
0.00185387
0.002121
0.00281794
0.00469869
0.00673653
0.00776539
0.0102947
0.0150537
0.0188322
0.0183618
0.0163983
0.0151544
0.0149821
0.0149741
0.0155189
0.0172572
0.0245568
0.0434399
0.0647318
0.0773536
0.0847294
0.0905871
0.0936287
0.0878643
0.080713
0.0771005
0.0787605
0.0900437
0.107831
0.00959042
0.018679
0.00738105
0.00248027
0.00185083
0.00155199
0.00176658
0.00184741
0.00225482
0.00382344
0.00558429
0.00668155
0.00927286
0.0143594
0.0188244
0.0182878
0.0156616
0.013866
0.013647
0.0143225
0.0155934
0.0178953
0.0257025
0.0441871
0.0649285
0.0773051
0.0846321
0.0904871
0.0936563
0.0875702
0.0804646
0.076892
0.0786911
0.0899727
0.10781
0.00948687
0.0179903
0.00642894
0.00217886
0.00181372
0.00153573
0.00175164
0.00173109
0.00189148
0.00290272
0.00421393
0.00536428
0.00792096
0.0130958
0.0183992
0.0183269
0.0154411
0.0132495
0.0128702
0.0139255
0.0157299
0.0185417
0.0268536
0.0449856
0.0651791
0.0772864
0.0845555
0.0904052
0.0937163
0.0872626
0.080208
0.076683
0.0786429
0.0899294
0.107827
0.00936733
0.0170598
0.00555023
0.00197671
0.00182806
0.00154329
0.00177206
0.00171777
0.00175009
0.00222337
0.00293237
0.00391337
0.00621923
0.0111231
0.0172087
0.0180983
0.0153964
0.0130458
0.0125255
0.0137602
0.0159255
0.0191893
0.0279947
0.0458308
0.0654996
0.0773201
0.0845215
0.0903622
0.0938257
0.0869614
0.0799613
0.0764922
0.0786336
0.0899344
0.107905
0.0092307
0.0159019
0.00478321
0.00185135
0.00186061
0.00156792
0.00181118
0.00174994
0.00175782
0.0018869
0.00206028
0.00265175
0.00440548
0.0085678
0.0150767
0.0173221
0.0152541
0.0130099
0.012447
0.0137626
0.0161636
0.0198322
0.0291205
0.0467227
0.0659043
0.0774258
0.08455
0.0903772
0.0940004
0.0866862
0.0797426
0.0763389
0.0786815
0.0900096
0.108068
0.00908003
0.0145538
0.0041452
0.00178627
0.00190542
0.00160912
0.00186167
0.00179491
0.00182703
0.00181727
0.00166148
0.00186167
0.00290966
0.00588413
0.0120558
0.0157894
0.0147997
0.0129403
0.0124728
0.0138512
0.0164161
0.0204625
0.0302305
0.0476628
0.0664037
0.0776189
0.0846569
0.0904664
0.0942539
0.0864554
0.0795697
0.0762422
0.0788051
0.090177
0.108338
0.00891508
0.0130584
0.00364063
0.00177316
0.00196871
0.0016676
0.00192184
0.00184285
0.00190315
0.00187813
0.00159013
0.00154147
0.00201238
0.00370714
0.00858152
0.013385
0.0138445
0.0126683
0.0124592
0.0139399
0.0166468
0.0210679
0.0313244
0.0486519
0.0670036
0.0779092
0.0848535
0.0906425
0.0945971
0.0862856
0.0794591
0.0762205
0.0790223
0.0904583
0.108739
0.00874002
0.0114788
0.00326618
0.00180945
0.00205874
0.00174664
0.00199374
0.00189656
0.00197182
0.00196578
0.0016684
0.00152071
0.00165763
0.00239763
0.00546385
0.010264
0.012243
0.0120466
0.0122817
0.0139467
0.0168132
0.0216298
0.0323989
0.0496877
0.0677041
0.0783006
0.0851461
0.0909137
0.0950376
0.0861909
0.0794259
0.0762912
0.0793502
0.0908749
0.109292
0.00855535
0.00988086
0.00301599
0.00189594
0.00218235
0.00185267
0.00208374
0.00196436
0.00204225
0.00204351
0.00177728
0.00162707
0.00163533
0.00185471
0.00335891
0.00702054
0.00998988
0.0109529
0.0118282
0.013793
0.0168683
0.0221216
0.0334445
0.0507641
0.0684997
0.0787911
0.0855357
0.0912846
0.0955795
0.086183
0.0794835
0.0764705
0.0798052
0.0914475
0.110019
0.00836592
0.00833989
0.00288252
0.00203372
0.00234516
0.00199369
0.00220109
0.00205601
0.00212912
0.00211914
0.00187863
0.00175213
0.00174913
0.00178825
0.00232017
0.00444773
0.00738561
0.00934743
0.0110058
0.0134056
0.0167615
0.0225078
0.0344448
0.0518699
0.0693793
0.0793738
0.0860193
0.0917559
0.0962244
0.0862713
0.0796435
0.0767736
0.0804026
0.092196
0.110939
0.00817267
0.00692295
0.00285794
0.00222133
0.00255538
0.00217823
0.00235898
0.00218229
0.00224621
0.00221291
0.00198209
0.00186467
0.00187627
0.00193351
0.00203223
0.0029292
0.00502207
0.00737368
0.00976876
0.0127192
0.0164401
0.0227437
0.0353742
0.052989
0.0703277
0.0800375
0.0865905
0.0923259
0.0969712
0.0864631
0.0799162
0.0772142
0.0811569
0.0931397
0.112073
0.00798033
0.00568903
0.00293477
0.00245086
0.00282555
0.00242052
0.00257207
0.00235538
0.00240566
0.00234288
0.00210912
0.00197699
0.00198089
0.00210924
0.00215403
0.00231725
0.00339929
0.00540756
0.00818202
0.0116944
0.0158546
0.0227766
0.036198
0.0541009
0.0713261
0.0807683
0.0872407
0.0929906
0.0978171
0.0867637
0.0803104
0.0778058
0.0820817
0.0942974
0.113439
0.00778933
0.00468066
0.00311012
0.00270767
0.00317378
0.00274202
0.00285932
0.00259154
0.00262162
0.00252475
0.00227992
0.0021116
0.00207574
0.0022433
0.00241547
0.00228859
0.00259409
0.00387598
0.00646995
0.0103488
0.0149682
0.0225484
0.0368727
0.0551813
0.0723535
0.0815507
0.0879601
0.0937456
0.0987584
0.0871777
0.0808342
0.0785609
0.0831903
0.0956879
0.115055
0.00760307
0.00391813
0.00338952
0.00297762
0.00362562
0.00317262
0.00324585
0.00291294
0.00291227
0.00277576
0.002515
0.00229103
0.00218614
0.00233814
0.00265614
0.00254803
0.00240188
0.00297364
0.00495615
0.00879534
0.0137748
0.0220028
0.0373466
0.0562029
0.0733884
0.0823692
0.0887395
0.0945863
0.0997908
0.0877085
0.0814949
0.0794921
0.0844959
0.0973301
0.116937
0.00742066
0.00339765
0.00379014
0.00326463
0.00421704
0.00375206
0.00376468
0.00334997
0.00330282
0.00311885
0.00283997
0.00253902
0.00233737
0.00242086
0.00282823
0.00287448
0.00257201
0.00262895
0.00388062
0.00724008
0.0123211
0.0210964
0.0375619
0.0571373
0.0744098
0.0832094
0.0895709
0.0955093
0.100911
0.0883597
0.0822997
0.0806123
0.0860116
0.0992436
0.119104
0.00724378
0.00309212
0.00433126
0.00360742
0.00499413
0.00452887
0.00445628
0.00394116
0.00382556
0.00358468
0.00329027
0.00288676
0.00255722
0.00252166
0.00294475
0.00315638
0.00289106
0.00266555
0.00329052
0.00590674
0.0107188
0.0198155
0.0374593
0.0579557
0.075399
0.0840596
0.0904487
0.0965133
0.102116
0.089135
0.083256
0.0819353
0.0877512
0.101449
0.121573
0.00707145
0.00295854
0.00501103
0.00410476
0.00600579
0.00556058
0.00536827
0.00473257
0.00452025
0.00421179
0.003912
0.00337694
0.00288206
0.0026716
0.00303851
0.00337037
0.00322198
0.00290607
0.00309647
0.00493318
0.00912859
0.0181932
0.0369838
0.0586307
0.0763408
0.0849115
0.0913708
0.0975996
0.103405
0.090039
0.0843718
0.0834759
0.089729
0.103967
0.124362
0.00690537
0.00296122
0.00583157
0.00485537
0.00731868
0.00691388
0.00655421
0.00577476
0.00543091
0.00504351
0.00475864
0.00406583
0.00336357
0.00291008
0.00314774
0.00353789
0.00351244
0.00321731
0.00316606
0.00433901
0.00771181
0.0163201
0.0360942
0.0591384
0.0772245
0.0857611
0.092339
0.0987727
0.104779
0.0910772
0.0856558
0.0852502
0.0919605
0.106822
0.12749
0.00674534
0.00308338
0.00680327
0.00595609
0.00901304
0.0086665
0.00807389
0.00712027
0.00660289
0.00612211
0.00588019
0.00501576
0.00406809
0.00329357
0.00331542
0.00369769
0.00376533
0.00353012
0.00337666
0.00406399
0.00657813
0.0143352
0.0347753
0.05946
0.0780451
0.0866097
0.0933597
0.100041
0.106242
0.0922567
0.087118
0.0872765
0.0944625
0.11004
0.130976
0.00659312
0.00331476
0.00796599
0.00750353
0.0111796
0.0109043
0.00998925
0.00881702
0.00807467
0.00747919
0.00730812
0.00627958
0.00506462
0.00390078
0.00359629
0.00389595
0.00401078
0.0038298
0.00364365
0.00401792
0.00576569
0.0123975
0.0330502
0.0595843
0.0788042
0.087464
0.0944442
0.101417
0.107798
0.0935858
0.0887692
0.089575
0.0972529
0.113647
0.13484
0.00644962
0.00365151
0.00940086
0.00959718
0.0139131
0.0137077
0.0123523
0.0108969
0.00986743
0.00912333
0.00903752
0.00787572
0.00639619
0.00481846
0.00406257
0.00418383
0.00428874
0.00413244
0.0039275
0.00411262
0.00525449
0.0106465
0.0309884
0.0595106
0.0795106
0.0883368
0.0956087
0.102916
0.109457
0.0950745
0.090622
0.0921683
0.100352
0.117674
0.139104
0.00631698
0.00409119
0.0112118
0.0123355
0.0172919
0.0171188
0.0151773
0.0133529
0.0119659
0.0110253
0.0110144
0.00976826
0.00805031
0.00610189
0.00479902
0.00461919
0.00464205
0.0044674
0.00422454
0.00428155
0.00499162
0.00917535
0.0287057
0.0592513
0.0801801
0.0892463
0.0968743
0.104559
0.111229
0.0967341
0.0926901
0.0950813
0.10378
0.122155
0.14379
0.00619775
0.00463449
0.0134953
0.0158015
0.0213479
0.0210967
0.0184045
0.0161136
0.0143005
0.013106
0.0131297
0.0118562
0.00994237
0.00772615
0.00586923
0.00526032
0.00511108
0.00486514
0.00455061
0.00448677
0.00491329
0.00802499
0.0263506
0.0588353
0.0808363
0.0902165
0.0982667
0.106371
0.113127
0.0985776
0.094989
0.0983418
0.107561
0.127125
0.148921
0.00609509
0.00528487
0.0163134
0.0200405
0.0260313
0.0254762
0.021867
0.0190216
0.0167341
0.0152328
0.0152272
0.0139818
0.0119239
0.00957203
0.00726373
0.00614666
0.00572804
0.00535105
0.00492806
0.00471753
0.00496074
0.00719595
0.0240816
0.0583097
0.0815096
0.0912759
0.0998155
0.108377
0.115166
0.100619
0.0975353
0.10198
0.111721
0.132623
0.154522
0.00601408
0.0060593
0.0196905
0.0250364
0.0311799
0.029951
0.0252831
0.0218354
0.0190682
0.0172301
0.017121
0.0159503
0.0138052
0.0114492
0.00886834
0.00726395
0.00650222
0.00593721
0.00537482
0.00498145
0.00508996
0.00666299
0.0220395
0.0577402
0.0822366
0.092457
0.101554
0.11061
0.117362
0.102874
0.100347
0.10603
0.116286
0.138692
0.160617
0.00596079
0.00699268
0.0236148
0.0306706
0.0364912
0.0340877
0.0282814
0.0242558
0.0210672
0.0189032
0.018624
0.0175626
0.0153891
0.0131421
0.0104899
0.00852271
0.00740474
0.00661519
0.00589718
0.00529582
0.00527555
0.00638873
0.0203292
0.0572087
0.0830586
0.093795
0.103517
0.113101
0.119733
0.105358
0.103445
0.110528
0.121287
0.145379
0.167235
0.00594609
0.00814456
0.0280372
0.0366636
0.0415125
0.0373819
0.0304666
0.0259823
0.0225035
0.0200747
0.0195804
0.018648
0.0165044
0.01445
0.0119101
0.00976824
0.00835862
0.00734744
0.00648206
0.0056768
0.00550957
0.00633377
0.0190137
0.0568082
0.0840203
0.0953263
0.105741
0.115884
0.122299
0.108089
0.106851
0.115515
0.126757
0.152737
0.174405
0.00598322
0.00958115
0.0328364
0.0425275
0.0456737
0.0393566
0.0315137
0.0267853
0.0232099
0.0206235
0.0198989
0.0190991
0.0170388
0.0152286
0.0129443
0.0108278
0.00925317
0.00806996
0.00709477
0.00613162
0.00579758
0.00646496
0.018123
0.0566353
0.0851667
0.0970866
0.108263
0.118995
0.125079
0.111085
0.110589
0.121036
0.132733
0.160823
0.182157
0.00609167
0.0113598
0.0377809
0.0476061
0.0483966
0.039693
0.0312718
0.0265806
0.0231298
0.0205183
0.0195761
0.018894
0.0169594
0.0154118
0.0134763
0.0115578
0.00997128
0.0087028
0.0076811
0.00664963
0.00615265
0.00675974
0.017666
0.0567821
0.0865414
0.0991094
0.111119
0.122471
0.128093
0.114365
0.114687
0.127142
0.139256
0.169703
0.190529
0.00628805
0.0134985
0.0425114
0.0512289
0.0492562
0.0383408
0.0298268
0.0254658
0.0223392
0.0198312
0.018703
0.0181053
0.0163215
0.0150273
0.0134812
0.0118815
0.0104253
0.00917337
0.00818085
0.00720128
0.00658867
0.00720765
0.0176422
0.0573282
0.0881834
0.101424
0.114343
0.126346
0.131363
0.117949
0.119175
0.133889
0.146375
0.179453
0.199561
0.00658505
0.0159852
0.0466152
0.05293
0.0481261
0.0355528
0.0274874
0.0237004
0.0210317
0.0187213
0.017445
0.0168834
0.0152543
0.0141813
0.0130159
0.0117951
0.0105744
0.00943274
0.00854217
0.00774053
0.00711289
0.00780805
0.0180487
0.0583358
0.0901249
0.104056
0.117967
0.130659
0.134912
0.121862
0.124091
0.141346
0.154143
0.190159
0.2093
0.00697682
0.0187604
0.0497271
0.052589
0.0452202
0.0318074
0.0246824
0.0216191
0.0194569
0.0173905
0.0160017
0.0154226
0.0139331
0.0130359
0.0122028
0.0113618
0.010432
0.00946921
0.00873745
0.00821951
0.00772002
0.00856635
0.0188838
0.0598463
0.0923894
0.107025
0.122022
0.135449
0.138764
0.126132
0.129474
0.149591
0.162625
0.201922
0.219803
0.00744499
0.0217212
0.051609
0.0504203
0.0410076
0.0276582
0.0218218
0.0195251
0.017846
0.0160279
0.0145569
0.0139145
0.012538
0.0117654
0.0111907
0.0106832
0.0100508
0.0093038
0.0087663
0.00859977
0.00838969
0.00948816
0.0201479
0.0618817
0.0949919
0.110345
0.126539
0.140758
0.142945
0.13079
0.135377
0.158713
0.171896
0.214861
0.231136
0.00795396
0.0246212
0.0521216
0.0468258
0.0360487
0.0235764
0.0191826
0.0176054
0.0163484
0.0147634
0.0132415
0.0125097
0.0112197
0.0105263
0.0101272
0.00987778
0.00951029
0.00898524
0.00865601
0.00886631
0.00909055
0.010575
0.0218442
0.0644487
0.0979396
0.114029
0.131551
0.146634
0.147488
0.135876
0.141858
0.168821
0.182043
0.229112
0.243375
0.00846726
0.0270494
0.0511742
0.0422343
0.0308419
0.0198574
0.0168689
0.0159079
0.0150103
0.0136483
0.0121153
0.0112951
0.0100752
0.00942695
0.00912847
0.00905263
0.0088938
0.0085733
0.00845019
0.00902637
0.00978893
0.0118213
0.023979
0.0675467
0.101236
0.118091
0.137099
0.15313
0.15243
0.141439
0.148985
0.180039
0.193166
0.244832
0.25661
0.00894498
0.0284035
0.0486718
0.0369963
0.0257333
0.0166004
0.0148352
0.0143636
0.0137844
0.0126592
0.0111724
0.0102946
0.00914421
0.00852445
0.00827122
0.00829235
0.00827776
0.0081307
0.0082022
0.00911032
0.0104605
0.0132168
0.0265654
0.0711781
0.104885
0.122552
0.14323
0.160312
0.157813
0.147536
0.156838
0.19251
0.205378
0.262197
0.270943
0.0093615
0.0281116
0.0445314
0.0313719
0.0209121
0.0137547
0.0129467
0.0128382
0.0125639
0.0117181
0.010358
0.00948075
0.00841634
0.0078248
0.00758692
0.00764753
0.00771771
0.00770996
0.00796314
0.00916022
0.0110989
0.0147525
0.0296291
0.0753611
0.108898
0.127439
0.150004
0.168254
0.163689
0.154237
0.165507
0.206393
0.218806
0.281403
0.286483
0.0096768
0.0257113
0.0386959
0.0255652
0.0164728
0.0112002
0.0110481
0.0111899
0.0112221
0.0107207
0.00959463
0.00879942
0.00785025
0.00730285
0.00707572
0.00713965
0.00724832
0.00735196
0.00777972
0.00922733
0.0117216
0.0164323
0.0332181
0.0801425
0.113297
0.132795
0.157495
0.177042
0.170115
0.161619
0.175091
0.221863
0.233585
0.30266
0.30335
0.00988074
0.0212211
0.0312788
0.0197395
0.0124481
0.00878167
0.00898322
0.00928932
0.00961702
0.00953452
0.00877428
0.00816287
0.00736988
0.0069007
0.00670389
0.00675359
0.00687265
0.00707419
0.0076856
0.00936196
0.0123699
0.0182807
0.0374131
0.0856105
0.118119
0.138675
0.165786
0.186768
0.177154
0.169766
0.185692
0.239105
0.249857
0.32619
0.321664
4.88499e-24
4.73128e-19
1.24865e-18
4.47128e-18
3.26885e-17
4.54035e-14
1.25818e-10
0.00465924
0.0246132
0.033165
0.0435773
0.0511141
0.0573626
0.0636327
0.0636864
0.0721633
0.082201
0.0792138
0.0589584
0.0557418
0.032768
0.0122329
4.99903e-24
1.1264e-19
1.02021e-19
6.74451e-18
8.18148e-17
3.48769e-13
1.27987e-09
0.0081964
0.0281389
0.0346547
0.0433249
0.050934
0.0574917
0.0644574
0.064616
0.0732205
0.0833776
0.079246
0.0579954
0.0549593
0.0324125
0.0123461
5.10451e-24
4.06282e-19
1.20414e-18
1.11477e-17
1.75639e-16
1.36198e-12
1.31063e-08
0.0122947
0.0312857
0.0358841
0.04309
0.0508386
0.0577164
0.065365
0.0656148
0.0742827
0.0845108
0.0792818
0.057352
0.0538674
0.0319205
0.0125632
5.06442e-24
8.54072e-20
3.1895e-20
9.75731e-18
3.15374e-16
3.69133e-12
2.60097e-07
0.0166238
0.0340628
0.0369276
0.0429481
0.0508379
0.0580329
0.0663496
0.0666867
0.0753429
0.0855952
0.0793425
0.0570182
0.0525094
0.0313276
0.0128803
5.16763e-24
3.21259e-19
9.54509e-19
1.09283e-17
4.99773e-16
6.12339e-12
1.05252e-05
0.0206302
0.0365212
0.0378524
0.0429486
0.050937
0.058438
0.0673796
0.0678069
0.0763954
0.0866201
0.0794423
0.0569668
0.0509597
0.0306832
0.0132883
5.11604e-24
6.76679e-20
1.84977e-20
7.16916e-18
7.46553e-16
8.70513e-12
3.18079e-05
0.0236702
0.0387197
0.0387253
0.043132
0.0511454
0.0589253
0.0684495
0.0689766
0.0774303
0.0875698
0.0795877
0.0571698
0.0492759
0.0299991
0.0138041
5.23069e-24
2.56475e-19
7.16434e-19
7.19195e-18
1.04744e-15
8.95978e-12
5.96724e-05
0.0254187
0.0407203
0.0395992
0.0435197
0.0514669
0.0594884
0.0695252
0.0701651
0.078441
0.0884265
0.0797823
0.0575847
0.0475339
0.0293051
0.0144417
5.17185e-24
5.52758e-20
1.19443e-20
4.3058e-18
1.41502e-15
7.89845e-12
4.56765e-05
0.0259432
0.0425667
0.040523
0.0441309
0.0519109
0.0601183
0.0706014
0.0713704
0.0794158
0.0891708
0.0800198
0.0581748
0.0457823
0.0286003
0.0152196
5.29901e-24
2.07593e-19
5.50493e-19
4.37509e-18
1.7611e-15
5.06398e-12
4.83135e-05
0.0255439
0.0442878
0.0415292
0.0449716
0.0524816
0.0608074
0.0716419
0.0725552
0.0803462
0.0897858
0.0802914
0.0588946
0.0440831
0.0279082
0.0161413
5.22485e-24
4.63891e-20
8.7471e-21
2.55875e-18
2.06126e-15
2.99633e-12
6.28596e-05
0.024479
0.0458798
0.0426444
0.0460514
0.0531897
0.0615474
0.0726415
0.0737127
0.0812175
0.0902576
0.0805792
0.0597104
0.0424677
0.027221
0.0172097
5.35845e-24
1.69911e-19
4.33987e-19
2.7533e-18
2.18354e-15
1.4668e-12
7.08433e-05
0.0228625
0.0473119
0.0438764
0.0473689
0.0540421
0.0623345
0.0735651
0.0748001
0.0820169
0.0905772
0.0808642
0.0605821
0.0409812
0.0265576
0.0184083
5.27221e-24
3.99411e-20
6.81669e-21
1.59903e-18
2.16212e-15
7.19805e-13
7.34071e-05
0.0207925
0.0485106
0.0452239
0.0489282
0.0550542
0.0631677
0.0744121
0.0758078
0.0827232
0.0907385
0.0811202
0.0614853
0.0396383
0.0259061
0.0197187