/*--------------------------------*- C++ -*----------------------------------*\
| =========                 |                                                 |
| \\      /  F ield         | OpenFOAM: The Open Source CFD Toolbox           |
|  \\    /   O peration     | Version:  v1912                                 |
|   \\  /    A nd           | Website:  www.openfoam.com                      |
|    \\/     M anipulation  |                                                 |
\*---------------------------------------------------------------------------*/
FoamFile
{
    version     2.0;
    format      ascii;
    class       volScalarField;
    location    "60";
    object      p;
}
// * * * * * * * * * * * * * * * * * * * * * * * * * * * * * * * * * * * * * //

dimensions      [0 2 -2 0 0 0 0];


internalField   nonuniform List<scalar> 
12441
(
7.86453
9.36944
13.4745
7.83247
7.9095
14.24
20.506
23.0088
26.1834
29.6093
35.8521
44.4409
54.5151
65.2385
78.9298
95.888
119.184
148.666
198.125
257.801
353.296
436.137
7.8646
9.36932
13.4742
7.83306
7.90947
14.2397
20.5059
23.0089
26.1828
29.6091
35.8518
44.4409
54.5148
65.237
78.9266
95.882
119.171
148.646
198.029
257.717
353.221
435.878
7.86477
9.36917
13.4731
7.83431
7.90962
14.2393
20.5054
23.0093
26.1814
29.6087
35.851
44.4408
54.5143
65.2343
78.9206
95.87
119.149
148.597
197.839
257.516
353.034
435.404
7.86504
9.36891
13.4713
7.83627
7.90999
14.2388
20.5046
23.0099
26.1792
29.608
35.8497
44.4409
54.5136
65.2302
78.9115
95.8521
119.119
148.523
197.648
257.21
352.709
434.68
7.86541
9.36856
13.4689
7.83886
7.91054
14.2382
20.5036
23.0105
26.1763
29.607
35.8481
44.4411
54.5129
65.2247
78.8994
95.8283
119.081
148.435
197.476
256.826
352.261
433.703
7.86588
9.3681
13.466
7.84208
7.91126
14.2374
20.5021
23.0112
26.1727
29.6057
35.8461
44.4415
54.512
65.2177
78.8839
95.7987
119.034
148.332
197.281
256.361
351.695
432.471
7.86644
9.36756
13.4624
7.84589
7.91216
14.2365
20.5004
23.012
26.1684
29.6041
35.8438
44.4422
54.5108
65.209
78.8652
95.7637
118.98
148.21
197.053
255.82
351.017
430.986
7.8671
9.3669
13.4584
7.85028
7.91323
14.2355
20.4983
23.0128
26.1635
29.6023
35.8411
44.4432
54.5092
65.1987
78.8433
95.7236
118.922
148.071
196.8
255.215
350.233
429.247
7.86784
9.36616
13.4538
7.85522
7.91448
14.2344
20.4958
23.0138
26.1579
29.6003
35.8382
44.4444
54.5072
65.1866
78.8183
95.6803
118.863
147.917
196.538
254.557
349.35
427.25
7.86866
9.3653
13.4487
7.86072
7.91589
14.2332
20.493
23.0147
26.1516
29.598
35.835
44.4459
54.5048
65.1726
78.7908
95.6369
118.806
147.75
196.276
253.859
348.373
424.992
7.86957
9.36437
13.4431
7.86673
7.91749
14.2319
20.4899
23.0157
26.1448
29.5956
35.8316
44.4476
54.5018
65.1565
78.7615
95.5974
118.753
147.573
196.028
253.132
347.303
422.469
7.87056
9.36331
13.4371
7.87327
7.91925
14.2305
20.4864
23.0167
26.1373
29.5929
35.828
44.4496
54.4982
65.1379
78.7327
95.565
118.709
147.398
195.807
252.381
346.139
419.675
7.87163
9.36218
13.4306
7.88028
7.9212
14.2291
20.4825
23.0176
26.1292
29.5901
35.8242
44.4518
54.4939
65.1169
78.71
95.5441
118.682
147.245
195.617
251.599
344.874
416.605
7.87277
9.36092
13.4237
7.88781
7.92331
14.2275
20.4783
23.0186
26.1205
29.5871
35.8203
44.4544
54.4884
65.0953
78.6993
95.5384
118.685
147.126
195.443
250.769
343.5
413.251
7.87398
9.35959
13.4163
7.89577
7.92561
14.2258
20.4737
23.0195
26.1113
29.5839
35.8162
44.4576
54.4814
65.0774
78.7036
95.5491
118.72
147.043
195.253
249.868
342.008
409.605
7.87527
9.35814
13.4085
7.90422
7.92808
14.224
20.4687
23.0203
26.1016
29.5806
35.812
44.4617
54.4727
65.0693
78.7228
95.5755
118.784
146.979
195.01
248.874
340.39
405.657
7.87662
9.35663
13.4003
7.91308
7.93074
14.2222
20.4634
23.0211
26.0913
29.5772
35.8076
44.4672
54.4642
65.074
78.7536
95.6139
118.857
146.901
194.688
247.772
338.64
401.398
7.87804
9.35499
13.3917
7.92238
7.93357
14.2202
20.4578
23.0218
26.0806
29.5736
35.803
44.4745
54.4589
65.0918
78.7918
95.6569
118.914
146.776
194.274
246.555
336.751
396.818
7.87952
9.3533
13.3828
7.93207
7.9366
14.2182
20.4518
23.0224
26.0693
29.57
35.7984
44.4837
54.4607
65.1185
78.832
95.6934
118.926
146.582
193.772
245.224
334.724
391.907
7.88106
9.35148
13.3735
7.94217
7.93979
14.216
20.4455
23.0229
26.0577
29.5662
35.7941
44.4953
54.4705
65.1502
78.8684
95.7106
118.872
146.315
193.196
243.784
332.556
386.654
7.88266
9.34962
13.3638
7.95262
7.9432
14.2137
20.4388
23.0233
26.0456
29.5622
35.7913
44.5091
54.4879
65.1819
78.8943
95.6977
118.747
145.99
192.564
242.242
330.249
381.047
7.88431
9.34764
13.3539
7.96347
7.94676
14.2113
20.4319
23.0236
26.0331
29.558
35.7915
44.5247
54.5085
65.2112
78.9042
95.6485
118.558
145.628
191.89
240.607
327.807
375.075
7.88602
9.34562
13.3435
7.97463
7.95054
14.2088
20.4245
23.0238
26.0202
29.5536
35.7955
44.5408
54.5306
65.2341
78.8937
95.5638
118.326
145.25
191.186
238.886
325.231
368.723
7.88777
9.34348
13.3329
7.98616
7.95449
14.2061
20.4169
23.0238
26.007
29.549
35.8033
44.5566
54.55
65.2496
78.8625
95.4495
118.073
144.866
190.456
237.089
322.526
361.978
7.88957
9.34131
13.322
7.99797
7.95865
14.2034
20.409
23.0237
25.9934
29.5441
35.8138
44.5716
54.5669
65.2549
78.8122
95.3155
117.818
144.483
189.704
235.224
319.696
354.825
7.89142
9.33903
13.3108
8.01012
7.96298
14.2004
20.4007
23.0235
25.9795
29.5389
35.8261
44.5849
54.5782
65.251
78.7474
95.1714
117.572
144.1
188.929
233.298
316.746
347.245
7.89331
9.33672
13.2993
8.02253
7.96753
14.1974
20.3922
23.0231
25.9653
29.5337
35.8394
44.5955
54.5857
65.2375
78.6728
95.0254
117.339
143.713
188.132
231.32
313.679
339.221
7.89524
9.33429
13.2876
8.03526
7.97225
14.1943
20.3833
23.0226
25.9509
29.5292
35.8531
44.6023
54.5868
65.2169
78.5932
94.8821
117.118
143.321
187.309
229.296
310.497
330.733
7.89721
9.33185
13.2755
8.04821
7.97719
14.191
20.3742
23.0219
25.936
29.526
35.8653
44.6048
54.584
65.19
78.5117
94.7438
116.905
142.921
186.46
227.231
307.202
321.757
7.89921
9.3293
13.2633
8.06146
7.98229
14.1875
20.3648
23.0211
25.9209
29.5245
35.8743
44.6029
54.5757
65.1595
78.4304
94.6101
116.697
142.511
185.581
225.129
303.791
312.269
7.90126
9.32674
13.2508
8.07491
7.98762
14.1839
20.3551
23.0201
25.9055
29.5241
35.8791
44.5969
54.5645
65.126
78.3502
94.4802
116.49
142.09
184.671
222.99
300.262
302.243
7.90333
9.32407
13.2381
8.08863
7.99312
14.1802
20.3452
23.019
25.8898
29.5243
35.8799
44.5871
54.5491
65.0912
78.2711
94.3521
116.28
141.655
183.727
220.814
296.607
291.648
7.90543
9.3214
13.2251
8.10253
7.99884
14.1763
20.335
23.0177
25.8739
29.5245
35.8767
44.5739
54.5321
65.0553
78.1931
94.2243
116.067
141.205
182.748
218.6
292.819
280.454
7.90756
9.31862
13.212
8.11669
8.00473
14.1722
20.3245
23.0163
25.8576
29.5249
35.8699
44.5577
54.5122
65.0193
78.1151
94.0952
115.847
140.739
181.731
216.345
288.887
268.626
7.90972
9.31584
13.1987
8.131
8.01085
14.168
20.3138
23.0147
25.841
29.5252
35.8594
44.539
54.4918
64.9829
78.0372
93.9637
115.619
140.256
180.676
214.049
284.8
256.131
7.91189
9.31295
13.1852
8.14556
8.01714
14.1636
20.3029
23.0129
25.8241
29.5258
35.8458
44.5182
54.4694
64.9467
77.9583
93.8285
115.382
139.754
179.58
211.71
280.549
242.929
7.9141
9.31006
13.1714
8.16025
8.02368
14.1591
20.2916
23.011
25.8068
29.5266
35.8293
44.4957
54.4473
64.9102
77.8785
93.6892
115.135
139.233
178.444
209.331
276.122
228.982
7.91632
9.30708
13.1575
8.17516
8.03039
14.1543
20.2803
23.0089
25.7895
29.5275
35.8104
44.4719
54.4237
64.8741
77.7971
93.5451
114.877
138.692
177.268
206.913
271.511
214.247
7.91857
9.30416
13.1433
8.19014
8.03731
14.1495
20.2686
23.0067
25.7727
29.5279
35.7897
44.4471
54.4007
64.8379
77.7147
93.3967
114.609
138.132
176.053
204.461
266.711
198.681
7.92082
9.30113
13.1291
8.20533
8.04434
14.1444
20.2568
23.0042
25.7578
29.5278
35.7679
44.4215
54.3763
64.8024
77.6309
93.2438
114.331
137.551
174.799
201.978
261.719
182.235
7.92311
9.29804
13.1147
8.22066
8.05159
14.1392
20.2447
23.0016
25.7462
29.5266
35.7453
44.3951
54.3524
64.7672
77.5465
93.0873
114.044
136.954
173.511
199.469
256.536
164.863
7.9254
9.29478
13.1002
8.23625
8.05907
14.1336
20.2323
22.9986
25.7388
29.5247
35.7222
44.3677
54.3266
64.7335
77.4614
92.9273
113.75
136.341
172.192
196.939
251.162
146.519
7.92771
9.29167
13.0854
8.25189
8.067
14.1279
20.2197
22.9949
25.7355
29.522
35.698
44.3392
54.3013
64.7001
77.3755
92.7646
113.451
135.713
170.846
194.388
245.578
127.122
7.93002
9.28863
13.0704
8.26725
8.07512
14.1219
20.2075
22.9915
25.7365
29.5181
35.6725
44.3114
54.2769
64.6708
77.2906
92.6003
113.147
135.063
169.471
191.811
239.702
106.001
-13.4053
-15.6619
-51.0649
-91.6489
-80.9828
-23.6306
27.0562
56.1451
66.1546
63.5551
57.6347
49.0007
40.106
32.072
25.293
19.494
14.7921
11.021
7.9465
5.02402
2.27763
-1.42308
-1.39997
2.02309
7.37937
7.52192
6.65261
5.47956
4.42377
3.89154
2.95105
2.56643
1.92828
0.989591
0.929352
-13.4094
-15.6136
-51.1721
-91.7093
-81.0132
-23.6622
27.0254
56.1068
66.1212
63.5222
57.6249
49.0013
40.1106
32.0797
25.3038
19.5076
14.8045
11.0289
7.95004
5.02569
2.27964
-1.42405
-1.41137
2.00291
7.36944
7.52018
6.65221
5.47935
4.42361
3.89147
2.95098
2.56637
1.92824
0.989528
0.929289
-13.4352
-15.5359
-51.2503
-91.8107
-81.1057
-23.7168
26.9805
56.0591
66.0783
63.4843
57.6283
49.0109
40.1211
32.0923
25.3218
19.5328
14.831
11.0497
7.96129
5.02973
2.28112
-1.42866
-1.42834
1.98186
7.35971
7.51843
6.65177
5.47908
4.42341
3.89139
2.9509
2.5663
1.92819
0.989449
0.92922
-13.466
-15.468
-51.4457
-92.0039
-81.256
-23.7854
26.9369
56.019
66.0375
63.4467
57.6408
49.025
40.1344
32.1055
25.3399
19.5613
14.8654
11.0802
7.97965
5.03584
2.28207
-1.43494
-1.44813
1.96247
7.35072
7.51689
6.65143
5.47888
4.42324
3.89136
2.95084
2.56626
1.92815
0.989385
0.929164
-13.5003
-15.4311
-51.7506
-92.2954
-81.4478
-23.872
26.8942
55.9956
66.0126
63.4213
57.6557
49.0374
40.1461
32.114
25.3496
19.5809
14.8939
11.1087
7.99849
5.04197
2.28224
-1.44216
-1.46982
1.94525
7.34294
7.51562
6.65118
5.47871
4.42306
3.89135
2.9508
2.56622
1.92812
0.989327
0.929116
-13.5376
-15.4366
-52.1396
-92.6723
-81.6756
-23.9895
26.8366
55.9753
66.001
63.4132
57.6705
49.0468
40.1558
32.119
25.3508
19.5891
14.9112
11.1289
8.01326
5.04654
2.28148
-1.44977
-1.49227
1.92998
7.33636
7.51459
6.65099
5.47856
4.42288
3.89136
2.95076
2.56619
1.92809
0.989272
0.929073
-13.5769
-15.4918
-52.5892
-93.1033
-81.9355
-24.1401
26.7539
55.9403
65.9897
63.4176
57.6854
49.055
40.1667
32.1259
25.3493
19.5895
14.9189
11.1403
8.02246
5.04882
2.27983
-1.4574
-1.5145
1.91642
7.33087
7.51377
6.65083
5.47841
4.42268
3.89138
2.95073
2.56617
1.92807
0.989217
0.929034
-13.6167
-15.6009
-53.0744
-93.5548
-82.2201
-24.3163
26.6463
55.8811
65.9654
63.4229
57.6978
49.0632
40.1814
32.1399
25.3515
19.5872
14.9203
11.1449
8.02648
5.04878
2.27741
-1.46488
-1.5359
1.90437
7.32631
7.51313
6.65069
5.47825
4.42245
3.8914
2.95069
2.56614
1.92804
0.989159
0.928999
-13.6565
-15.7641
-53.5697
-94.0044
-82.5208
-24.5101
26.5184
55.7968
65.9207
63.4169
57.7019
49.0695
40.1998
32.1626
25.3615
19.5865
14.9189
11.1451
8.02654
5.04682
2.27442
-1.47213
-1.55617
1.8937
7.32255
7.51263
6.65054
5.47806
4.42217
3.89141
2.95064
2.56611
1.92801
0.989095
0.928967
-13.6949
-15.9766
-54.0537
-94.4422
-82.8278
-24.7161
26.3749
55.6906
65.8542
63.3913
57.6912
49.0698
40.2185
32.1919
25.3809
19.5899
14.9173
11.1432
8.02414
5.04352
2.27112
-1.47905
-1.57524
1.88425
7.31945
7.51223
6.65036
5.47783
4.42184
3.89139
2.95057
2.56606
1.92797
0.989022
0.928936
-13.7316
-16.23
-54.5116
-94.8653
-83.133
-24.9313
26.2176
55.5656
65.7677
63.3437
57.6616
49.0595
40.2325
32.2228
25.4085
19.5993
14.9175
11.1408
8.02066
5.0396
2.26783
-1.48557
-1.59315
1.87594
7.31693
7.51193
6.65015
5.47753
4.42144
3.89133
2.95047
2.566
1.92792
0.988938
0.928906
-13.7654
-16.5118
-54.9357
-95.2719
-83.4289
-25.1526
26.047
55.4236
65.6638
63.2754
57.6128
49.0362
40.237
32.2492
25.4408
19.6152
14.9207
11.1395
8.01728
5.03576
2.26491
-1.4915
-1.60992
1.86868
7.31493
7.51168
6.64988
5.47717
4.42098
3.89123
2.95034
2.56591
1.92785
0.988838
0.928876
-13.7964
-16.8082
-55.3225
-95.6572
-83.7118
-25.3779
25.8623
55.2653
65.5445
63.1897
57.5477
48.9996
40.2299
32.2663
25.4721
19.6367
14.9279
11.1402
8.01497
5.03268
2.26278
-1.4966
-1.62555
1.86249
7.31343
7.51149
6.64955
5.47674
4.42043
3.89108
2.95017
2.5658
1.92776
0.98872
0.928845
-13.8236
-17.104
-55.6723
-96.0145
-83.9785
-25.6044
25.6629
55.0909
65.4111
63.0897
57.4693
48.9516
40.2115
32.272
25.4964
19.6608
14.9394
11.1436
8.01455
5.03098
2.26194
-1.50046
-1.63988
1.85742
7.31244
7.51135
6.64916
5.47624
4.41981
3.89086
2.94996
2.56565
1.92765
0.988581
0.928813
-13.8474
-17.3865
-55.9853
-96.3357
-84.2296
-25.8316
25.4483
54.9
65.2639
62.9779
57.3809
48.8946
40.1838
32.2673
25.5108
19.6829
14.9541
11.1503
8.01666
5.03128
2.26294
-1.50254
-1.65266
1.85363
7.31203
7.5113
6.64873
5.47566
4.4191
3.89057
2.94969
2.56547
1.92752
0.988418
0.92878
-13.8669
-17.6445
-56.2627
-96.6137
-84.4647
-26.0587
25.2187
54.6927
65.1029
62.8555
57.2843
48.8309
40.1491
32.2542
25.5153
19.6991
14.9694
11.1597
8.02168
5.03408
2.26636
-1.5021
-1.66347
1.85129
7.31227
7.51134
6.64824
5.475
4.41832
3.8902
2.94937
2.56525
1.92736
0.98823
0.928747
-13.8828
-17.8708
-56.5025
-96.8436
-84.6861
-26.2879
24.9737
54.4683
64.9277
62.723
57.1808
48.7619
40.1097
32.235
25.5117
19.7079
14.9823
11.1706
8.02947
5.03975
2.27282
-1.49824
-1.67174
1.85067
7.31326
7.5115
6.64772
5.47428
4.41745
3.88976
2.94899
2.56499
1.92717
0.988014
0.928711
-13.8945
-18.0593
-56.7037
-97.0229
-84.8934
-26.5211
24.7127
54.2267
64.7381
62.5801
57.0702
48.6883
40.0672
32.212
25.5022
19.71
14.991
11.1809
8.03921
5.0483
2.28281
-1.48993
-1.67672
1.85202
7.3151
7.51182
6.64717
5.47351
4.4165
3.88923
2.94856
2.56468
1.92696
0.987767
0.928676
-13.9028
-18.2085
-56.863
-97.1507
-85.087
-26.763
24.4341
53.967
64.5336
62.4268
56.9526
48.6101
40.022
32.1869
25.4892
19.7071
14.995
11.1889
8.04943
5.05928
2.29662
-1.4761
-1.67755
1.85567
7.3179
7.51232
6.64661
5.47267
4.41548
3.88862
2.94806
2.56432
1.92672
0.987489
0.92864
-13.9071
-18.3189
-56.9809
-97.2291
-85.2631
-27.0175
24.1362
53.6883
64.3137
62.2627
56.8274
48.5271
39.9742
32.1607
25.4743
19.7009
14.9951
11.1938
8.05851
5.07161
2.3141
-1.45578
-1.67325
1.86189
7.32176
7.51303
6.64605
5.47179
4.41439
3.88791
2.94749
2.56391
1.92644
0.987178
0.928606
-13.9084
-18.3937
-57.0565
-97.2631
-85.4193
-27.2907
23.8163
53.3891
64.0779
62.0875
56.6944
48.4388
39.9236
32.1332
25.4589
19.6929
14.9924
11.1956
8.06532
5.08387
2.33462
-1.42839
-1.66281
1.87099
7.32675
7.51398
6.6455
5.47087
4.41324
3.88712
2.94686
2.56345
1.92614
0.986831
0.928573
-13.9055
-18.437
-57.0921
-97.2595
-85.5547
-27.5873
23.4721
53.0686
63.8257
61.9007
56.553
48.3449
39.8694
32.1043
25.4432
19.6844
14.9879
11.1949
8.06953
5.0947
2.35699
-1.39388
-1.64525
1.88323
7.33295
7.51518
6.64495
5.4699
4.41201
3.88624
2.94617
2.56294
1.9258
0.986448
0.928544
-13.8995
-18.454
-57.0885
-97.2222
-85.6793
-27.916
23.1002
52.7254
63.557
61.7028
56.4032
48.245
39.8115
32.0734
25.4272
19.6759
14.9827
11.1926
8.07142
5.10331
2.3798
-1.35306
-1.61983
1.89884
7.34039
7.51665
6.64442
5.46889
4.41072
3.88527
2.94541
2.56236
1.92544
0.986026
0.928518
-13.8894
-18.447
-57.0515
-97.1545
-85.8066
-28.2847
22.6978
52.3593
63.2721
61.4939
56.2452
48.1387
39.749
32.0399
25.4103
19.6675
14.9773
11.1891
8.07147
5.10959
2.40175
-1.30752
-1.58613
1.91801
7.3491
7.51838
6.6439
5.46783
4.40937
3.8842
2.94458
2.56174
1.92504
0.985565
0.928498
-13.8769
-18.419
-56.9859
-97.0624
-85.9585
-28.7065
22.2611
51.9703
62.972
61.2755
56.0805
48.0265
39.6818
32.0031
25.392
19.6588
14.9718
11.185
8.07018
5.1139
2.42212
-1.25943
-1.54438
1.94087
7.35906
7.52038
6.64339
5.46672
4.40794
3.88303
2.94368
2.56105
1.92461
0.985061
0.928485
-13.8623
-18.3719
-56.8977
-96.9576
-86.1573
-29.1927
21.7885
51.5609
62.6592
61.0495
55.9107
47.9093
39.6101
31.9625
25.3716
19.6494
14.9661
11.1805
8.06791
5.11672
2.4408
-1.21102
-1.49554
1.96752
7.37027
7.52262
6.64287
5.46555
4.40645
3.88177
2.94272
2.56029
1.92415
0.984513
0.928481
-13.8486
-18.3103
-56.7896
-96.8561
-86.4315
-29.7566
21.2793
51.1348
62.3375
60.8196
55.7395
47.7893
39.535
31.918
25.3484
19.6388
14.96
11.1756
8.06489
5.11847
2.45807
-1.16405
-1.44142
1.99794
7.38269
7.5251
6.64233
5.46431
4.40488
3.88041
2.94169
2.55948
1.92366
0.983918
0.928487
-13.8365
-18.2383
-56.6649
-96.7757
-86.8058
-30.4037
20.7398
50.7005
62.0134
60.5897
55.57
47.6689
39.4578
31.87
25.322
19.6263
14.953
11.1703
8.06121
5.11939
2.47433
-1.1194
-1.38454
2.03206
7.39627
7.52777
6.64175
5.46298
4.40323
3.87895
2.94059
2.55859
1.92314
0.983276
0.928505
-13.8303
-18.163
-56.5264
-96.7379
-87.3072
-31.1351
20.1809
50.2692
61.6945
60.3653
55.4068
47.5517
39.3813
31.8201
25.2925
19.6117
14.9448
11.1642
8.05684
5.11965
2.4899
-1.0772
-1.32778
2.06968
7.41099
7.53063
6.64111
5.46156
4.40149
3.87739
2.93942
2.55764
1.92258
0.982582
0.928536
-13.8313
-18.0884
-56.3723
-96.7612
-87.9497
-31.9361
19.6233
49.8568
61.3903
60.1511
55.2525
47.4398
39.3071
31.7701
25.2606
19.5947
14.9351
11.1573
8.0517
5.11928
2.50492
-1.03697
-1.27387
2.11046
7.42681
7.53363
6.64037
5.46001
4.39964
3.87573
2.93819
2.55662
1.92199
0.981834
0.928582
-13.8443
-18.0229
-56.2024
-96.8665
-88.742
-32.7834
19.091
49.4781
61.109
59.9518
55.1101
47.336
39.2374
31.7221
25.2278
19.5758
14.924
11.1493
8.04568
5.11825
2.51943
-0.998081
-1.22497
2.15391
7.44372
7.53677
6.63954
5.45833
4.3977
3.87397
2.93688
2.55552
1.92137
0.981029
0.928645
-13.8704
-17.9725
-56.0163
-97.0627
-89.6676
-33.6367
18.6123
49.148
60.857
59.7689
54.9792
47.2406
39.1727
31.6771
25.1954
19.5556
14.9116
11.1404
8.03874
5.11645
2.53337
-0.959989
-1.18227
2.19942
7.46171
7.54
6.63857
5.45649
4.39563
3.8721
2.93552
2.55435
1.92072
0.980163
0.928728
-13.9144
-17.9471
-55.819
-97.3534
-90.6973
-34.4533
18.2087
48.8726
60.6354
59.6024
54.8592
47.1536
39.1136
31.6364
25.1651
19.5354
14.8983
11.1307
8.03096
5.11381
2.54668
-0.922407
-1.14605
2.24631
7.48083
7.54335
6.63746
5.45447
4.39344
3.87014
2.93408
2.55309
1.92003
0.979232
0.928829
-13.9782
-17.9478
-55.6142
-97.7194
-91.7739
-35.1861
17.8936
48.6508
60.4405
59.4477
54.7456
47.0724
39.0586
31.5993
25.1372
19.5158
14.8847
11.1205
8.02255
5.1103
2.55925
-0.88528
-1.11583
2.29391
7.5011
7.54677
6.63617
5.45225
4.39111
3.86807
2.93258
2.55176
1.91931
0.978232
0.928954
-14.0677
-17.977
-55.4113
-98.1373
-92.8387
-35.8051
17.6614
48.4686
60.2619
59.2988
54.6341
46.9944
39.0067
31.5656
25.1121
19.4976
14.8715
11.1102
8.01383
5.10604
2.57099
-0.848788
-1.09071
2.34168
7.52262
7.55031
6.6347
5.44982
4.38862
3.86591
2.93101
2.55035
1.91854
0.977155
0.929101
-14.184
-18.0277
-55.2108
-98.5682
-93.8261
-36.2943
17.4931
48.3051
60.0861
59.1468
54.518
46.915
38.9549
31.5334
25.0891
19.4809
14.8589
11.1002
8.00516
5.10126
2.58183
-0.813201
-1.06966
2.38932
7.54546
7.55397
6.63304
5.44714
4.38597
3.86364
2.92938
2.54884
1.91774
0.975997
0.929275
-14.3295
-18.0922
-55.0183
-98.9837
-94.691
-36.6637
17.356
48.134
59.8977
58.9839
54.3927
46.8312
38.9014
31.5016
25.0676
19.4657
14.8472
11.0907
7.99688
5.09638
2.59178
-0.778861
-1.05172
2.43684
7.56979
7.55781
6.63119
5.44422
4.38313
3.86128
2.92767
2.54724
1.91688
0.974748
0.929474
-14.4992
-18.1432
-54.8268
-99.3498
-95.3955
-36.9345
17.2186
47.9334
59.6847
58.8031
54.2534
46.7392
38.8439
31.4683
25.0465
19.4516
14.8363
11.0818
7.98922
5.09178
2.60096
-0.746062
-1.03607
2.48461
7.59575
7.56184
6.62912
5.44101
4.3801
3.85881
2.92589
2.54554
1.91598
0.973398
0.929703
-14.6886
-18.1495
-54.6334
-99.6444
-95.9234
-37.1373
17.0557
47.6886
59.4391
58.6012
54.0984
46.6375
38.7813
31.4327
25.0251
19.4381
14.8262
11.0736
7.98232
5.08784
2.60961
-0.715027
-1.02202
2.53335
7.62359
7.56617
6.62687
5.4375
4.37685
3.85624
2.92404
2.54373
1.91502
0.971937
0.929962
-14.8867
-18.0571
-54.4237
-99.8347
-96.2592
-37.2954
16.8572
47.3953
59.159
58.3768
53.9268
46.5249
38.7125
31.3937
25.0023
19.4245
14.8166
11.0659
7.97618
5.08473
2.61799
-0.685737
-1.00884
2.58395
7.65348
7.57082
6.6244
5.43366
4.37337
3.85356
2.92209
2.5418
1.914
0.970349
0.930256
-15.0981
-17.8047
-54.1789
-99.8878
-96.399
-37.4261
16.6221
47.055
58.8459
58.1314
53.7399
46.4021
38.6378
31.3512
24.9779
19.4107
14.8072
11.0588
7.97079
5.08256
2.62655
-0.657893
-0.996128
2.63675
7.68532
7.57581
6.62174
5.42946
4.36963
3.85076
2.92005
2.53973
1.91289
0.96862
0.930584
-15.3434
-17.3236
-53.8478
-99.7584
-96.3507
-37.5403
16.3529
46.6735
58.5034
57.8672
53.5393
46.2701
38.5575
31.3053
24.9519
19.3965
14.7982
11.0522
7.96619
5.08138
2.63589
-0.631243
-0.984824
2.69019
7.7183
7.581
6.6188
5.42487
4.36561
3.84784
2.9179
2.53751
1.91172
0.966746
0.930946
-15.6137
-16.5701
-53.3635
-99.4334
-96.1723
-37.6562
16.0475
46.2622
58.1406
57.5919
53.3313
46.1337
38.4747
31.2581
24.9252
19.3822
14.7895
11.0464
7.96237
5.08133
2.64645
-0.606769
-0.977445
2.74316
7.75271
7.58652
6.61557
5.41985
4.36134
3.84477
2.91563
2.53512
1.91046
0.964703
0.931335
-15.7604
-15.5068
-52.7315
-99.0125
-95.9835
-37.792
15.7259
45.852
57.7816
57.3218
53.1263
45.9989
38.3927
31.2107
24.8981
19.367
14.78
11.0399
7.95797
5.08064
2.65551
-0.588196
-0.970524
2.81501
7.79993
7.59456
6.61219
5.41429
4.35661
3.84155
2.91326
2.53258
1.90911
0.962431
0.931821
7.93183
9.28608
13.0599
8.27879
8.08132
14.1161
20.1985
22.9915
25.7419
29.5128
35.6467
44.2922
54.2722
64.6653
77.235
92.4794
112.909
134.526
168.37
189.748
234.839
84.8508
7.93317
9.28407
13.0526
8.28709
8.08584
14.1114
20.192
22.9948
25.7498
29.5067
35.6225
44.281
54.2814
64.6797
77.2054
92.3977
112.732
134.11
167.547
188.226
231.104
82.2687
7.93459
9.28205
13.0444
8.29562
8.09068
14.1065
20.1851
22.9988
25.7575
29.4985
35.5968
44.2708
54.295
64.6956
77.1746
92.3112
112.542
133.672
166.703
186.656
227.226
84.2246
7.93608
9.27986
13.0356
8.30478
8.09596
14.1015
20.1775
23.0026
25.765
29.4902
35.5712
44.259
54.3048
64.7097
77.1399
92.217
112.341
133.221
165.843
185.043
223.246
84.3895
7.93766
9.2776
13.0261
8.31461
8.10173
14.096
20.169
23.0044
25.7716
29.4815
35.5459
44.2459
54.3135
64.7199
77.1014
92.116
112.128
132.757
164.965
183.384
219.149
82.8316
7.93932
9.27515
13.0162
8.32518
8.10791
14.0901
20.1599
23.0051
25.7779
29.4728
35.5215
44.2319
54.3181
64.7277
77.0591
92.0073
111.901
132.276
164.06
181.677
214.937
81.0004
7.94106
9.27265
13.0057
8.33633
8.11453
14.0839
20.15
23.0036
25.7832
29.4636
35.4977
44.2171
54.3213
64.7309
77.0123
91.8912
111.658
131.778
163.124
179.922
210.619
79.3432
7.94288
9.26995
12.9946
8.34823
8.12157
14.0772
20.1395
23.0011
25.7882
29.4544
35.4746
44.2015
54.3206
64.7304
76.9604
91.7664
111.399
131.26
162.152
178.119
206.2
77.6932
7.9448
9.26719
12.9828
8.36076
8.12913
14.0703
20.1282
22.9968
25.7921
29.4446
35.4517
44.1851
54.3183
64.7243
76.9025
91.6327
111.123
130.722
161.138
176.267
201.683
75.9178
7.94679
9.26421
12.9704
8.3741
8.13716
14.0629
20.1161
22.9924
25.7956
29.435
35.4292
44.1678
54.3116
64.7136
76.838
91.4888
110.829
130.163
160.078
174.365
197.073
74.0264
7.94889
9.26118
12.9573
8.38811
8.14575
14.0552
20.1031
22.9871
25.7978
29.4248
35.4066
44.1493
54.3027
64.6963
76.766
91.3342
110.515
129.581
158.969
172.411
192.376
72.0646
7.95106
9.25792
12.9435
8.40298
8.15486
14.047
20.0893
22.982
25.7992
29.4147
35.3841
44.1296
54.289
64.6729
76.6858
91.1675
110.181
128.974
157.803
170.403
187.598
70.0547
7.95334
9.2546
12.9289
8.41857
8.16457
14.0385
20.0744
22.9764
25.7988
29.4039
35.3613
44.1087
54.2725
64.6419
76.5963
90.988
109.826
128.34
156.58
168.339
182.743
68.0029
7.95569
9.25103
12.9136
8.43506
8.17483
14.0295
20.0586
22.9711
25.797
29.3929
35.3383
44.0864
54.2508
64.6037
76.4966
90.7939
109.447
127.678
155.293
166.219
177.816
65.9159
7.95816
9.24741
12.8974
8.45231
8.18575
14.0201
20.0417
22.9654
25.7926
29.381
35.3146
44.0627
54.226
64.5571
76.3861
90.5846
109.045
126.986
153.942
164.038
172.822
63.8065
7.9607
9.24353
12.8805
8.47052
8.19727
14.0103
20.0239
22.9601
25.7858
29.3684
35.2904
44.0375
54.1959
64.5025
76.2636
90.358
108.618
126.26
152.523
161.797
167.763
61.6902
7.96336
9.23959
12.8626
8.48951
8.20948
14.0001
20.005
22.9546
25.7758
29.3543
35.265
44.0107
54.1625
64.4391
76.1291
90.1137
108.164
125.5
151.034
159.492
162.644
59.5818
7.9661
9.23538
12.844
8.50953
8.22233
13.9893
19.9851
22.9493
25.7627
29.3388
35.2386
43.9824
54.1239
64.3676
75.9816
89.8498
107.682
124.703
149.473
157.124
157.467
57.496
7.96895
9.23111
12.8242
8.53037
8.23592
13.9782
19.964
22.9435
25.7465
29.321
35.2102
43.9521
54.0822
64.2874
75.8214
89.5661
107.17
123.868
147.838
154.688
152.235
55.4458
7.97188
9.22656
12.8037
8.55228
8.2502
13.9666
19.9416
22.9371
25.7279
29.3007
35.1797
43.9198
54.0354
64.1995
75.648
89.2615
106.626
122.991
146.129
152.186
146.951
53.4419
7.97493
9.22193
12.782
8.57504
8.26526
13.9546
19.9179
22.9297
25.7076
29.2773
35.1459
43.8849
53.9855
64.1033
75.462
88.936
106.05
122.071
144.344
149.615
141.618
51.491
7.97806
9.21702
12.7594
8.59893
8.28105
13.942
19.893
22.9213
25.6865
29.2507
35.1084
43.8467
53.9304
63.9998
75.2631
88.5892
105.44
121.106
142.483
146.973
136.24
49.5946
7.9813
9.21203
12.7356
8.62369
8.29767
13.929
19.8666
22.9122
25.6646
29.2207
35.0657
43.804
53.8719
63.8885
75.052
88.2216
104.797
120.095
140.546
144.259
130.822
47.7478
7.98463
9.20674
12.7109
8.64963
8.31507
13.9154
19.8389
22.9025
25.6425
29.1879
35.0173
43.7551
53.8072
63.7702
74.8285
87.833
104.119
119.037
138.532
141.473
125.372
45.9403
7.98806
9.20138
12.6848
8.67646
8.33335
13.9014
19.8097
22.8921
25.6197
29.153
34.9622
43.6976
53.7374
63.644
74.5928
87.4241
103.406
117.93
136.443
138.611
119.895
44.1555
7.99158
9.1957
12.6578
8.70451
8.35245
13.8868
19.7791
22.8807
25.5963
29.1178
34.9008
43.6288
53.6579
63.5105
74.3448
86.9946
102.658
116.772
134.278
135.674
114.403
42.3723
7.99521
9.18995
12.6294
8.73346
8.37249
13.8717
19.747
22.8684
25.5714
29.0838
34.8334
43.5458
53.5677
63.3675
74.0841
86.5447
101.876
115.565
132.04
132.66
108.906
40.5658
7.99891
9.18386
12.5999
8.76366
8.3934
13.856
19.7134
22.8549
25.5446
29.0526
34.7615
43.4468
53.4596
63.2143
73.81
86.0737
101.057
114.305
129.729
129.567
103.416
38.7091
8.00272
9.1777
12.569
8.79476
8.4153
13.8398
19.6781
22.8404
25.5158
29.0243
34.6868
43.3313
53.3298
63.046
73.5208
85.5812
100.203
112.993
127.346
126.394
97.9482
36.7742
8.0066
9.17119
12.5369
8.82715
8.43812
13.823
19.6413
22.8246
25.485
28.998
34.6116
43.2009
53.171
62.8583
73.2145
85.0656
99.3114
111.627
124.891
123.142
92.5171
34.7339
8.01058
9.1646
12.5034
8.86043
8.46199
13.8056
19.6027
22.8074
25.4526
28.9718
34.5382
43.0584
52.9819
62.6423
72.8864
84.5254
98.3805
110.205
122.365
119.808
87.1377
32.563
8.01462
9.15766
12.4686
8.895
8.48685
13.7874
19.5624
22.7889
25.4187
28.9439
34.4685
42.9072
52.7622
62.3913
72.5305
83.9574
97.4081
108.724
119.766
116.395
81.827
30.2399
8.01876
9.15064
12.4322
8.93043
8.5128
13.7688
19.5203
22.7689
25.383
28.9128
34.4029
42.7506
52.518
62.0984
72.1372
83.3574
96.3915
107.182
117.094
112.9
76.6001
27.7471
8.02295
9.14323
12.3946
8.96715
8.53981
13.7493
19.4764
22.7472
25.3458
28.8775
34.3405
42.5911
52.2555
61.7641
71.6973
82.7187
95.3269
105.574
114.346
109.327
71.473
25.073
8.02723
9.13576
12.3554
9.00468
8.56797
13.7293
19.4306
22.7237
25.307
28.8383
34.2785
42.4304
51.9816
61.3934
71.2027
82.0331
94.2097
103.897
111.521
105.673
66.4587
22.212
8.03154
9.12789
12.3148
9.04348
8.59726
13.7084
19.3829
22.6983
25.2667
28.7953
34.2143
42.2692
51.7003
60.9973
70.6524
81.2911
93.0341
102.147
108.617
101.942
61.5698
19.1664
8.03593
9.11995
12.2725
9.083
8.62775
13.687
19.3331
22.6708
25.2248
28.7488
34.146
42.1064
51.4137
60.5856
70.0528
80.4853
91.7937
100.32
105.633
98.1325
56.8145
15.9457
8.04034
9.11159
12.2289
9.12373
8.6594
13.6646
19.2812
22.6411
25.1812
28.6986
34.073
41.9401
51.1211
60.1651
69.4177
79.613
90.4826
98.4121
102.569
94.2475
52.1995
12.5683
8.04481
9.10316
12.1835
9.1651
8.6923
13.6416
19.2272
22.6091
25.1359
28.6448
33.9949
41.768
50.8212
59.7365
68.7617
78.6786
89.0972
96.4227
99.4269
90.2889
47.7269
9.06003
8.04928
9.0943
12.1367
9.20757
8.7264
13.6178
19.1711
22.5744
25.0888
28.587
33.9114
41.5884
50.5113
59.297
68.0948
77.6925
87.6376
94.3526
96.213
86.262
43.3989
5.45452
8.05379
9.08536
12.0881
9.25052
8.76182
13.5932
19.1126
22.537
25.0397
28.5251
33.8221
41.3999
50.1892
58.8421
67.4196
76.667
86.1085
92.2073
92.938
82.1748
39.2153
1.79095
8.05828
9.07597
12.0382
9.29446
8.79852
13.5677
19.0517
22.4966
24.9886
28.459
33.7265
41.2012
49.8531
58.3676
66.7313
75.6111
84.5173
89.9949
89.6175
78.0413
35.179
-1.8866
8.06279
9.0665
11.9864
9.33869
8.83658
13.5415
18.9884
22.4531
24.9352
28.3884
33.6243
40.9913
49.5019
57.8704
66.0216
74.5272
82.8725
87.7239
86.2727
73.8806
31.2942
-5.53282
8.06724
9.05655
11.9332
9.38372
8.87599
13.5143
18.9227
22.4063
24.8794
28.3132
33.5145
40.7697
49.1352
57.3488
65.2822
73.4115
81.1802
85.3989
82.9252
69.7198
27.5704
-9.1016
8.07168
9.04652
11.8782
9.42881
8.91681
13.4863
18.8542
22.3558
24.8211
28.2333
33.3962
40.5364
48.7523
56.8013
64.5069
72.2564
79.4425
83.0188
79.5922
65.5899
24.0196
-12.5492
8.07603
9.03597
11.8219
9.47447
8.95904
13.4574
18.7831
22.3016
24.7599
28.1482
33.2688
40.2912
48.3521
56.2267
63.6926
71.0547
77.6565
80.5789
76.2781
61.5228
20.6577
-15.8333
8.08034
9.02533
11.7637
9.51992
9.00269
13.4277
18.7093
22.2433
24.6958
28.0577
33.1323
40.0338
47.9332
55.6237
62.8382
69.8016
75.8156
78.0744
72.9739
57.5414
17.4986
-18.9162
8.08452
9.01415
11.7043
9.56566
9.04776
13.3971
18.6325
22.1807
24.6283
27.9615
32.986
39.7629
47.4941
54.991
61.9432
68.4955
73.9133
75.5026
69.6615
53.6537
14.5511
-21.7637
8.08861
9.00286
11.6431
9.61085
9.09424
13.3656
18.5528
22.1136
24.5572
27.8594
32.8293
39.4779
47.0342
54.3283
61.0073
67.1366
71.9464
72.8629
66.3247
49.8493
11.8102
-24.3499
8.09253
8.99099
11.5807
9.65602
9.14211
13.3333
18.4701
22.0416
24.4821
27.751
32.6615
39.1778
46.5527
53.6347
60.0295
65.7254
69.9157
70.1565
62.9558
46.1075
9.25447
-26.6572
8.09631
8.97898
11.5167
9.70028
9.19132
13.3
18.3843
21.9647
24.4027
27.6362
32.482
38.8621
46.0492
52.9092
59.0087
64.2619
67.8255
67.3876
59.5565
42.4088
6.84643
-28.6838
8.09987
8.96635
11.4516