/*--------------------------------*- C++ -*----------------------------------*\
| =========                 |                                                 |
| \\      /  F ield         | OpenFOAM: The Open Source CFD Toolbox           |
|  \\    /   O peration     | Version:  v1912                                 |
|   \\  /    A nd           | Website:  www.openfoam.com                      |
|    \\/     M anipulation  |                                                 |
\*---------------------------------------------------------------------------*/
FoamFile
{
    version     2.0;
    format      ascii;
    class       surfaceScalarField;
    location    "60";
    object      phi;
}
// * * * * * * * * * * * * * * * * * * * * * * * * * * * * * * * * * * * * * //

dimensions      [0 3 -1 0 0 0 0];
oriented        oriented;


internalField   nonuniform List<scalar> 
24588
(
6.82954e-05
-1.93176e-07
6.81341e-05
-3.1036e-07
6.82497e-05
3.8604e-07
6.79946e-05
3.838e-07
6.77796e-05
5.23995e-08
6.75408e-05
7.19009e-08
6.7396e-05
2.74452e-07
6.70742e-05
2.55398e-07
6.67214e-05
4.33446e-07
6.61484e-05
6.01186e-07
6.55509e-05
5.80594e-07
6.49356e-05
5.67139e-07
6.43098e-05
7.3758e-07
6.31385e-05
1.06795e-06
6.17687e-05
1.38482e-06
5.98639e-05
1.90972e-06
5.75168e-05
2.34763e-06
5.36536e-05
3.86212e-06
4.79008e-05
5.75256e-06
3.72462e-05
1.06547e-05
2.27234e-05
1.45228e-05
2.27233e-05
6.83671e-05
-4.96013e-07
6.82937e-05
-8.69999e-07
6.82045e-05
1.1553e-06
6.78902e-05
8.67179e-07
6.7738e-05
-1.27804e-08
6.75801e-05
1.50459e-08
6.74597e-05
5.61191e-07
6.71243e-05
5.11235e-07
6.67198e-05
9.36675e-07
6.60971e-05
1.25722e-06
6.54991e-05
1.15776e-06
6.49322e-05
1.07878e-06
6.43516e-05
1.43685e-06
6.31346e-05
2.18609e-06
6.17505e-05
2.78493e-06
5.98656e-05
3.79969e-06
5.74853e-05
4.72885e-06
5.35929e-05
7.75278e-06
4.78898e-05
1.14552e-05
3.71078e-05
2.14368e-05
2.26096e-05
2.9021e-05
4.53326e-05
6.83537e-05
-7.81135e-07
6.82852e-05
-1.40465e-06
6.82174e-05
1.86103e-06
6.79094e-05
1.3365e-06
6.77452e-05
-5.53182e-08
6.75823e-05
-2.50661e-08
6.74626e-05
8.39078e-07
6.71284e-05
7.66206e-07
6.6726e-05
1.43512e-06
6.61046e-05
1.91117e-06
6.55049e-05
1.73798e-06
6.49327e-05
1.59492e-06
6.43539e-05
2.14807e-06
6.31422e-05
3.27545e-06
6.17562e-05
4.18836e-06
5.98945e-05
5.66675e-06
5.74725e-05
7.15189e-06
5.35867e-05
1.16364e-05
4.78122e-05
1.7229e-05
3.70609e-05
3.21885e-05
2.25833e-05
4.34987e-05
6.79156e-05
6.83588e-05
-1.07308e-06
6.82767e-05
-1.93189e-06
6.81841e-05
2.63415e-06
6.7879e-05
1.80652e-06
6.77272e-05
-1.26138e-07
6.75677e-05
-7.68048e-08
6.74437e-05
1.13145e-06
6.71074e-05
1.02541e-06
6.67038e-05
1.93826e-06
6.60857e-05
2.56134e-06
6.5488e-05
2.31459e-06
6.49188e-05
2.10897e-06
6.43309e-05
2.85222e-06
6.31191e-05
4.39274e-06
6.17392e-05
5.5838e-06
5.9899e-05
7.51169e-06
5.74815e-05
9.57033e-06
5.35818e-05
1.55341e-05
4.77487e-05
2.30615e-05
3.70299e-05
4.29075e-05
2.25742e-05
5.79544e-05
9.04895e-05
6.83412e-05
-1.3393e-06
6.8259e-05
-2.41816e-06
6.81907e-05
3.32879e-06
6.78931e-05
2.25859e-06
6.77262e-05
-1.67506e-07
6.75593e-05
-1.04444e-07
6.7436e-05
1.41288e-06
6.70998e-05
1.28506e-06
6.66968e-05
2.43842e-06
6.60789e-05
3.21042e-06
6.54787e-05
2.89544e-06
6.49026e-05
2.63019e-06
6.43171e-05
3.57457e-06
6.31114e-05
5.47519e-06
6.17275e-05
6.98519e-06
5.98973e-05
9.34732e-06
5.74966e-05
1.19722e-05
5.35614e-05
1.94668e-05
4.77282e-05
2.88938e-05
3.7023e-05
5.36132e-05
2.25832e-05
7.23943e-05
0.000113073
6.83518e-05
-1.62015e-06
6.82551e-05
-2.90896e-06
6.81518e-05
4.11961e-06
6.78556e-05
2.71665e-06
6.77061e-05
-2.49199e-07
6.75444e-05
-1.50439e-07
6.74157e-05
1.71347e-06
6.70772e-05
1.54892e-06
6.66721e-05
2.94497e-06
6.60575e-05
3.85609e-06
6.54597e-05
3.47165e-06
6.48894e-05
3.14618e-06
6.42937e-05
4.28144e-06
6.30856e-05
6.59509e-06
6.17076e-05
8.3783e-06
5.98804e-05
1.11792e-05
5.75042e-05
1.43495e-05
5.35445e-05
2.34244e-05
4.77245e-05
3.47133e-05
3.70382e-05
6.42998e-05
2.26102e-05
8.68222e-05
0.000135682
6.83307e-05
-1.87024e-06
6.82334e-05
-3.34823e-06
6.81596e-05
4.81642e-06
6.7872e-05
3.15267e-06
6.77041e-05
-2.9504e-07
6.75328e-05
-1.64742e-07
6.74054e-05
2.00032e-06
6.70674e-05
1.81261e-06
6.6663e-05
3.44824e-06
6.6048e-05
4.50108e-06
6.5447e-05
4.05341e-06
6.48683e-05
3.67169e-06
6.42774e-05
5.00994e-06
6.30767e-05
7.66927e-06
6.16929e-05
9.78033e-06
5.98647e-05
1.30126e-05
5.75162e-05
1.6699e-05
5.35291e-05
2.74089e-05
4.77264e-05
4.05153e-05
3.70722e-05
7.49545e-05
2.26545e-05
0.00010124
0.000158337
6.83456e-05
-2.14125e-06
6.82356e-05
-3.80586e-06
6.81212e-05
5.62552e-06
6.78335e-05
3.59978e-06
6.7687e-05
-3.89162e-07
6.75233e-05
-2.05256e-07
6.739e-05
2.30874e-06
6.70495e-05
2.08067e-06
6.66426e-05
3.95855e-06
6.60309e-05
5.14283e-06
6.54329e-05
4.62953e-06
6.4862e-05
4.18916e-06
6.4258e-05
5.71735e-06
6.30516e-05
8.7945e-06
6.16703e-05
1.11777e-05
5.9842e-05
1.48457e-05
5.7524e-05
1.90179e-05
5.35137e-05
3.14174e-05
4.77216e-05
4.63071e-05
3.71182e-05
8.55581e-05
2.27152e-05
0.000115643
0.000181052
6.83213e-05
-2.37702e-06
6.82132e-05
-4.20695e-06
6.81355e-05
6.31902e-06
6.78567e-05
4.02264e-06
6.76876e-05
-4.38272e-07
6.75129e-05
-2.08694e-07
6.73819e-05
2.59937e-06
6.70424e-05
2.34795e-06
6.66362e-05
4.46531e-06
6.60237e-05
5.78436e-06
6.54212e-05
5.21282e-06
6.48384e-05
4.7209e-06
6.42381e-05
6.46041e-06
6.30427e-05
9.86506e-06
6.16525e-05
1.2583e-05
5.98333e-05
1.66684e-05
5.74978e-05
2.1354e-05
5.34883e-05
3.5425e-05
4.76878e-05
5.2107e-05
3.71661e-05
9.60801e-05
2.27906e-05
0.000130019
0.000203842
6.83394e-05
-2.63803e-06
6.82186e-05
-4.63501e-06
6.80959e-05
7.13871e-06
6.7817e-05
4.4592e-06
6.7673e-05
-5.43502e-07
6.75079e-05
-2.44325e-07
6.73706e-05
2.91351e-06
6.70288e-05
2.61946e-06
6.66204e-05
4.97845e-06
6.60116e-05
6.42233e-06
6.54132e-05
5.78934e-06
6.48432e-05
5.23883e-06
6.42195e-05
7.17508e-06
6.30132e-05
1.10002e-05
6.16312e-05
1.39787e-05
5.98108e-05
1.84922e-05
5.7406e-05
2.37595e-05
5.34145e-05
3.94156e-05
4.76082e-05
5.79133e-05
3.72081e-05
0.00010648
2.28793e-05
0.000144347
0.000226721
6.83115e-05
-2.85878e-06
6.81933e-05
-4.9976e-06
6.81135e-05
7.82401e-06
6.78443e-05
4.86794e-06
6.76737e-05
-5.95373e-07
6.74958e-05
-2.35994e-07
6.73619e-05
3.20597e-06
6.70219e-05
2.88912e-06
6.66147e-05
5.4868e-06
6.6005e-05
7.06033e-06
6.54008e-05
6.37488e-06
6.48147e-05
5.77679e-06
6.41744e-05
7.95447e-06
6.29872e-05
1.20815e-05
6.15915e-05
1.53822e-05
5.97429e-05
2.0342e-05
5.72475e-05
2.6255e-05
5.32828e-05
4.33792e-05
4.74901e-05
6.37056e-05
3.72424e-05
0.000116728
2.29803e-05
0.00015861
0.000249702
6.83325e-05
-3.10899e-06
6.82028e-05
-5.39721e-06
6.80745e-05
8.64635e-06
6.78045e-05
5.29378e-06
6.76625e-05
-7.09817e-07
6.74963e-05
-2.66583e-07
6.73556e-05
3.52357e-06
6.70132e-05
3.16336e-06
6.66036e-05
6.00141e-06
6.59974e-05
7.69487e-06
6.53979e-05
6.95302e-06
6.48278e-05
6.29878e-06
6.41388e-05
8.71271e-06
6.29457e-05
1.3232e-05
6.15173e-05
1.68192e-05
5.96301e-05
2.22312e-05
5.70507e-05
2.88347e-05
5.31179e-05
4.73117e-05
4.73554e-05
6.94681e-05
3.72728e-05
0.000126811
2.30929e-05
0.000172789
0.000272794
6.83016e-05
-3.31463e-06
6.81775e-05
-5.72762e-06
6.81e-05
9.3109e-06
6.78392e-05
5.69024e-06
6.76657e-05
-7.60074e-07
6.74855e-05
-2.483e-07
6.73495e-05
3.8148e-06
6.70097e-05
3.43492e-06
6.66018e-05
6.51013e-06
6.59948e-05
8.32927e-06
6.5391e-05
7.53927e-06
6.48074e-05
6.84032e-06
6.40695e-05
9.56933e-06
6.289e-05
1.43531e-05
6.14186e-05
1.82923e-05
5.95008e-05
2.41491e-05
5.68546e-05
3.14809e-05
5.29502e-05
5.12155e-05
4.7223e-05
7.51949e-05
3.73033e-05
0.000136731
2.32168e-05
0.000186876
0.000296011
6.83251e-05
-3.55304e-06
6.81884e-05
-6.10061e-06
6.80583e-05
1.01265e-05
6.77977e-05
6.10505e-06
6.76567e-05
-8.81233e-07
6.74899e-05
-2.73974e-07
6.73465e-05
4.13354e-06
6.70043e-05
3.71115e-06
6.65943e-05
7.02441e-06
6.59903e-05
8.96071e-06
6.53939e-05
8.11554e-06
6.48214e-05
7.37422e-06
6.40184e-05
1.03998e-05
6.28157e-05
1.55452e-05
6.13157e-05
1.9797e-05
5.93766e-05
2.60893e-05
5.6681e-05
3.41768e-05
5.27958e-05
5.51007e-05
4.71012e-05
8.08895e-05
3.73365e-05
0.000146495
2.33516e-05
0.000200861
0.000319362
6.8291e-05
-3.74242e-06
6.81606e-05
-6.39614e-06
6.80867e-05
1.0767e-05
6.78355e-05
6.4876e-06
6.76588e-05
-9.29362e-07
6.74762e-05
-2.44248e-07
6.73386e-05
4.42204e-06
6.69998e-05
3.98353e-06
6.65923e-05
7.53151e-06
6.59874e-05
9.59226e-06
6.53923e-05
8.69435e-06
6.48015e-05
7.93483e-06
6.39435e-05
1.13249e-05
6.27369e-05
1.67215e-05
6.12209e-05
2.13125e-05
5.92652e-05
2.80446e-05
5.6533e-05
3.69089e-05
5.26583e-05
5.8975e-05
4.69912e-05
8.65564e-05
3.73734e-05
0.000156113
2.34968e-05
0.000214738
0.000342859
6.83172e-05
-3.96837e-06
6.81745e-05
-6.74256e-06
6.80443e-05
1.15703e-05
6.7793e-05
6.89124e-06
6.76525e-05
-1.0555e-06
6.74852e-05
-2.64652e-07
6.73394e-05
4.74034e-06
6.69978e-05
4.26142e-06
6.65877e-05
8.04429e-06
6.59825e-05
1.0224e-05
6.53953e-05
9.26315e-06
6.47891e-05
8.51697e-06
6.38784e-05
1.22315e-05
6.26615e-05
1.79408e-05
6.11375e-05
2.28396e-05
5.91665e-05
3.00163e-05
5.64059e-05
3.96696e-05
5.25351e-05
6.28459e-05
4.68913e-05
9.22003e-05
3.74145e-05
0.00016559
2.36519e-05
0.0002285
0.000366511
6.82804e-05
-4.14154e-06
6.81472e-05
-7.0088e-06
6.80804e-05
1.21762e-05
6.78375e-05
7.26179e-06
6.76563e-05
-1.09722e-06
6.74721e-05
-2.25167e-07
6.73335e-05
5.0239e-06
6.6996e-05
4.53437e-06
6.65885e-05
8.549e-06
6.59816e-05
1.08568e-05
6.53984e-05
9.8319e-06
6.47649e-05
9.13679e-06
6.38134e-05
1.32239e-05
6.25955e-05
1.91407e-05
6.10644e-05
2.43694e-05
5.90781e-05
3.20022e-05
5.62936e-05
4.2454e-05
5.24225e-05
6.67167e-05
4.67998e-05
9.78228e-05
3.74597e-05
0.00017493
2.38167e-05
0.000242143
0.000390327
6.83089e-05
-4.35449e-06
6.81618e-05
-7.33038e-06
6.80345e-05
1.29608e-05
6.77929e-05
7.65405e-06
6.76521e-05
-1.22642e-06
6.74846e-05
-2.40539e-07
6.7337e-05
5.34028e-06
6.69966e-05
4.81325e-06
6.65863e-05
9.05991e-06
6.59805e-05
1.14882e-05
6.54007e-05
1.03954e-05
6.47404e-05
9.78762e-06
6.37571e-05
1.41937e-05
6.25375e-05
2.03666e-05
6.09992e-05
2.59098e-05
5.89972e-05
3.40049e-05
5.61909e-05
4.52604e-05
5.2317e-05
7.05908e-05
4.6715e-05
0.000103425
3.75098e-05
0.000184135
2.39909e-05
0.000255662
0.000414318
6.82696e-05
-4.51105e-06
6.81326e-05
-7.56491e-06
6.80731e-05
1.35329e-05
6.78394e-05
8.01111e-06
6.76538e-05
-1.26232e-06
6.74678e-05
-1.90182e-07
6.73284e-05
5.61836e-06
6.69934e-05
5.08579e-06
6.65862e-05
9.56167e-06
6.59819e-05
1.21173e-05
6.54001e-05
1.09661e-05
6.4711e-05
1.04729e-05
6.37062e-05
1.52258e-05
6.24866e-05
2.15727e-05
6.09396e-05
2.74555e-05
5.89213e-05
3.60227e-05
5.60936e-05
4.80881e-05
5.22159e-05
7.44682e-05
4.66362e-05
0.000109004
3.75653e-05
0.000193206
2.41748e-05
0.000269053
0.000438493
6.83006e-05
-4.71093e-06
6.81493e-05
-7.86157e-06
6.80253e-05
1.42969e-05
6.7793e-05
8.39216e-06
6.76517e-05
-1.39367e-06
6.74842e-05
-2.00328e-07
6.73347e-05
5.93212e-06
6.69964e-05
5.36472e-06
6.65842e-05
1.00721e-05
6.59844e-05
1.27418e-05
6.54064e-05
1.15328e-05
6.46822e-05
1.11935e-05
6.36616e-05
1.6231e-05
6.24405e-05
2.28009e-05
6.08834e-05
2.90145e-05
5.88481e-05
3.80586e-05
5.59983e-05
5.09379e-05
5.21173e-05
7.83492e-05
4.65631e-05
0.000114559
3.76275e-05
0.000202142
2.43689e-05
0.000282311
0.000462862
6.82591e-05
-4.85143e-06
6.81209e-05
-8.0693e-06
6.80706e-05
1.48291e-05
6.78447e-05
8.73783e-06
6.76538e-05
-1.42051e-06
6.74666e-05
-1.408e-07
6.73265e-05
6.20376e-06
6.69952e-05
5.63538e-06
6.6583e-05
1.05762e-05
6.59904e-05
1.33584e-05
6.54219e-05
1.20969e-05
6.46533e-05
1.19611e-05
6.36213e-05
1.72848e-05
6.23979e-05
2.40133e-05
6.0829e-05
3.0582e-05
5.87754e-05
4.01118e-05
5.59023e-05
5.38109e-05
5.202e-05
8.22312e-05
4.64957e-05
0.000120083
3.76975e-05
0.00021094
2.45739e-05
0.000295435
0.000487435
6.82922e-05
-5.03812e-06
6.81379e-05
-8.34262e-06
6.80191e-05
1.55688e-05
6.77962e-05
9.10774e-06
6.7654e-05
-1.55261e-06
6.74866e-05
-1.46059e-07
6.73353e-05
6.5141e-06
6.7001e-05
5.91236e-06
6.65812e-05
1.10916e-05
6.59956e-05
1.39679e-05
6.5437e-05
1.26511e-05
6.46259e-05
1.27703e-05
6.35848e-05
1.8311e-05
6.23571e-05
2.52482e-05
6.0775e-05
3.21658e-05
5.87014e-05
4.21859e-05
5.58037e-05
5.67087e-05
5.19234e-05
8.61116e-05
4.64343e-05
0.000125572
3.77769e-05
0.000219598
2.47907e-05
0.000308421
0.000512226
6.82487e-05
-5.16254e-06
6.81079e-05
-8.52123e-06
6.80662e-05
1.60642e-05
6.78489e-05
9.44071e-06
6.76531e-05
-1.57175e-06
6.74646e-05
-7.63044e-08
6.73239e-05
6.77915e-06
6.69975e-05
6.17986e-06
6.65799e-05
1.15979e-05
6.59991e-05
1.45712e-05
6.5443e-05
1.3207e-05
6.45992e-05
1.36138e-05
6.35509e-05
1.93779e-05
6.23174e-05
2.64718e-05
6.07199e-05
3.37619e-05
5.86243e-05
4.42812e-05
5.57011e-05
5.96318e-05
5.18274e-05
8.99851e-05
4.63793e-05
0.00013102
3.78672e-05
0.00022811
2.50205e-05
0.000321268
0.000537246
6.8284e-05
-5.33633e-06
6.81265e-05
-8.77124e-06
6.80127e-05
1.67795e-05
6.77987e-05
9.79987e-06
6.76554e-05
-1.70402e-06
6.74881e-05
-7.64777e-08
6.73354e-05
7.08508e-06
6.70044e-05
6.45536e-06
6.65814e-05
1.21137e-05
6.60005e-05
1.51748e-05
6.54404e-05
1.3766e-05
6.4574e-05
1.4479e-05
6.35189e-05
2.04185e-05
6.22773e-05
2.77204e-05
6.06627e-05
3.53781e-05
5.85427e-05
4.64017e-05
5.5594e-05
6.25806e-05
5.17321e-05
9.38472e-05
4.63309e-05
0.000136421
3.79701e-05
0.000236471
2.52646e-05
0.000333973
0.000562511
6.82387e-05
-5.44536e-06
6.80976e-05
-8.9255e-06
6.80661e-05
1.7233e-05
6.78558e-05
1.01224e-05
6.76539e-05
-1.71187e-06
6.74644e-05
2.19313e-09
6.73239e-05
7.34149e-06
6.70007e-05
6.72133e-06
6.65829e-05
1.26173e-05
6.60021e-05
1.57761e-05
6.54324e-05
1.43361e-05
6.45495e-05
1.53619e-05
6.34879e-05
2.14968e-05
6.22364e-05
2.89627e-05
6.06021e-05
3.70111e-05
5.84554e-05
4.85479e-05
5.54824e-05
6.55534e-05
5.16381e-05
9.76912e-05
4.62894e-05
0.00014177
3.80872e-05
0.000244673
2.55246e-05
0.000346536
0.000588035
6.82759e-05
-5.60645e-06
6.81164e-05
-9.154e-06
6.80089e-05
1.79218e-05
6.7804e-05
1.04709e-05
6.76592e-05
-1.84332e-06
6.74918e-05
7.23563e-09
6.73385e-05
7.6417e-06
6.70097e-05
6.99624e-06
6.65872e-05
1.31291e-05
6.60081e-05
1.63746e-05
6.54215e-05
1.49226e-05
6.45261e-05
1.62562e-05
6.34576e-05
2.25516e-05
6.21936e-05
3.02336e-05
6.05374e-05
3.86688e-05
5.83622e-05
5.07237e-05
5.53672e-05
6.85485e-05
5.15462e-05
0.000101512
4.6255e-05
0.000147061
3.82202e-05
0.000252708
2.5802e-05
0.000358954
0.000613837
6.8229e-05
-5.70054e-06
6.80863e-05
-9.28226e-06
6.80638e-05
1.83381e-05
6.78614e-05
1.07816e-05
6.76544e-05
-1.84221e-06
6.74634e-05
9.59045e-08
6.73244e-05
7.88876e-06
6.70023e-05
7.26208e-06
6.65856e-05
1.36281e-05
6.60286e-05
1.69441e-05
6.54089e-05
1.55427e-05
6.45032e-05
1.71619e-05
6.34271e-05
2.36433e-05
6.21484e-05
3.15035e-05
6.04679e-05
4.0348e-05
5.8263e-05
5.29281e-05
5.52492e-05
7.15622e-05
5.14567e-05
0.000105305
4.62275e-05
0.00015229
3.83705e-05
0.000260565
2.60984e-05
0.000371226
0.000639936
6.82682e-05
-5.84954e-06
6.81062e-05
-9.48923e-06
6.80042e-05
1.90021e-05
6.78079e-05
1.11196e-05
6.76618e-05
-1.97316e-06
6.74939e-05
1.06694e-07
6.73414e-05
8.18179e-06
6.70096e-05
7.54128e-06
6.65862e-05
1.41367e-05
6.60558e-05
1.74851e-05
6.53954e-05
1.62032e-05
6.44811e-05
1.80753e-05
6.33963e-05
2.47149e-05
6.21001e-05
3.28066e-05
6.03932e-05
4.20564e-05
5.81586e-05
5.51632e-05
5.51299e-05
7.4591e-05
5.13705e-05
0.000109064
4.6207e-05
0.000157453
3.85394e-05
0.000268232
2.64155e-05
0.00038335
0.000666351
6.82199e-05
-5.9296e-06
6.80774e-05
-9.59571e-06
6.80646e-05
1.93785e-05
6.78685e-05
1.14209e-05
6.76557e-05
-1.9606e-06
6.74634e-05
2.03931e-07
6.73267e-05
8.41802e-06
6.70016e-05
7.81126e-06
6.65834e-05
1.46325e-05
6.60747e-05
1.79986e-05
6.53811e-05
1.68971e-05
6.44593e-05
1.89972e-05
6.33646e-05
2.58245e-05
6.20485e-05
3.41138e-05
6.03135e-05
4.379e-05
5.805e-05
5.74263e-05
5.50106e-05
7.76303e-05
5.12879e-05
0.000112787
4.61929e-05
0.000162548
3.87276e-05
0.000275698
2.67544e-05
0.000395324
0.000693105
6.82608e-05
-6.06688e-06
6.80971e-05
-9.78271e-06
6.80015e-05
2.00169e-05
6.78138e-05
1.17484e-05
6.76664e-05
-2.09072e-06
6.74981e-05
2.20142e-07
6.7346e-05
8.70418e-06
6.70126e-05
8.09345e-06
6.6586e-05
1.51398e-05
6.60835e-05
1.85067e-05
6.53664e-05
1.76144e-05
6.44381e-05
1.99246e-05
6.33317e-05
2.69179e-05
6.19932e-05
3.54593e-05
6.0229e-05
4.55558e-05
5.79382e-05
5.97176e-05
5.48924e-05
8.06761e-05
5.12093e-05
0.00011647
4.6185e-05
0.000167573
3.89356e-05
0.000282947
2.71166e-05
0.000407142
0.000720222
6.82112e-05
-6.13348e-06
6.80672e-05
-9.8653e-06
6.80625e-05
2.03595e-05
6.7874e-05
1.20381e-05
6.76566e-05
-2.06996e-06
6.74629e-05
3.26888e-07
6.73276e-05
8.93148e-06
6.70048e-05
8.36164e-06
6.65833e-05
1.56346e-05
6.60855e-05
1.9006e-05
6.53513e-05
1.83487e-05
6.44169e-05
2.08591e-05
6.32973e-05
2.80519e-05
6.19342e-05
3.68136e-05
6.014e-05
4.73485e-05
5.78244e-05
6.20328e-05
5.47765e-05
8.37238e-05
5.11352e-05
0.000120111
4.61825e-05
0.000172525
3.91631e-05
0.000289967
2.75026e-05
0.000418803
0.000747724
6.82539e-05
-6.25988e-06
6.80881e-05
-1.00328e-05
6.79975e-05
2.0975e-05
6.78178e-05
1.23558e-05
6.76693e-05
-2.19964e-06
6.75009e-05
3.47773e-07
6.7348e-05
9.21237e-06
6.70175e-05
8.64259e-06
6.65858e-05
1.61419e-05
6.60827e-05
1.95127e-05
6.53361e-05
1.90954e-05
6.43961e-05
2.17983e-05
6.32613e-05
2.9174e-05
6.18712e-05
3.82108e-05
6.00472e-05
4.91742e-05
5.77094e-05
6.43711e-05
5.46636e-05
8.67698e-05
5.10657e-05
0.000123709
4.61851e-05
0.000177406
3.94096e-05
0.000296742
2.7913e-05
0.0004303
0.000775637
6.82031e-05
-6.31387e-06
6.80592e-05
-1.00956e-05
6.80635e-05
2.12809e-05
6.78807e-05
1.26363e-05
6.76579e-05
-2.16754e-06
6.74634e-05
4.62073e-07
6.73281e-05
9.43181e-06
6.701e-05
8.90781e-06
6.65816e-05
1.66387e-05
6.6076e-05
2.00187e-05
6.53206e-05
1.98509e-05
6.43751e-05
2.27439e-05
6.32234e-05
3.03399e-05
6.18046e-05
3.96206e-05
5.9951e-05
5.10262e-05
5.75944e-05
6.67272e-05
5.45545e-05
8.98095e-05
5.10011e-05
0.000127262
4.61921e-05
0.000182214
3.96741e-05
0.00030326
2.83479e-05
0.000441626
0.000803985
6.82475e-05
-6.43025e-06
6.80803e-05
-1.02455e-05
6.7995e-05
2.18744e-05
6.78235e-05
1.29442e-05
6.76743e-05
-2.29754e-06
6.75062e-05
4.86672e-07
6.73512e-05
9.70904e-06
6.70262e-05
9.18536e-06
6.65838e-05
1.71502e-05
6.60663e-05
2.05388e-05
6.53051e-05
2.06123e-05
6.43542e-05
2.3694e-05
6.31835e-05
3.14981e-05
6.17342e-05
4.10773e-05
5.98519e-05
5.29102e-05
5.74798e-05
6.90999e-05
5.44495e-05
9.28399e-05
5.09414e-05
0.000130771
4.62032e-05
0.000186953
3.99554e-05
0.000309508
2.88072e-05
0.000452774
0.000832792
6.81959e-05
-6.47308e-06
6.80522e-05
-1.02908e-05
6.80639e-05
2.21485e-05
6.78868e-05
1.32161e-05
6.76595e-05
-2.25627e-06
6.74652e-05
6.06134e-07
6.73291e-05
9.92209e-06
6.70187e-05
9.44465e-06
6.65775e-05
1.76535e-05
6.60537e-05
2.10621e-05
6.52894e-05
2.13767e-05
6.4333e-05
2.46505e-05
6.31415e-05
3.27031e-05
6.16604e-05
4.25488e-05
5.97506e-05
5.48183e-05
5.73664e-05
7.14834e-05
5.43491e-05
9.58572e-05
5.08867e-05
0.000134233
4.62179e-05
0.000191621
4.02525e-05
0.000315473
2.92909e-05
0.000463736
0.000862083
6.82416e-05
-6.58014e-06
6.80723e-05
-1.04228e-05
6.79909e-05
2.27243e-05
6.7828e-05
1.35137e-05
6.7679e-05
-2.38908e-06
6.75112e-05
6.34496e-07
6.73532e-05
1.01974e-05
6.70359e-05
9.71658e-06
6.65777e-05
1.81732e-05
6.60385e-05
2.16035e-05
6.52736e-05
2.21417e-05
6.43116e-05
2.56117e-05
6.30974e-05
3.3905e-05
6.15831e-05
4.40707e-05
5.96473e-05
5.6756e-05
5.72546e-05
7.38767e-05
5.42532e-05
9.88587e-05
5.0837e-05
0.000137649
4.6236e-05
0.000196223
4.05644e-05
0.000321145
2.97986e-05
0.000474501
0.000891882
6.81893e-05
-6.61262e-06
6.8044e-05
-1.04484e-05
6.80607e-05
2.29736e-05
6.78902e-05
1.37758e-05
6.766e-05
-2.34285e-06
6.74657e-05
7.60146e-07
6.7326e-05
1.04087e-05
6.70292e-05
9.96363e-06
6.65773e-05
1.86653e-05
6.60205e-05
2.21596e-05
6.52577e-05
2.29044e-05
6.42898e-05
2.65798e-05
6.3051e-05
3.51572e-05
6.15027e-05
4.56094e-05
5.95425e-05
5.87144e-05
5.71446e-05
7.6274e-05
5.41621e-05
0.000101841
5.07924e-05
0.000141019
4.62573e-05
0.000200757
4.08905e-05
0.000326512
3.03306e-05
0.000485061
0.000922212
6.82363e-05
-6.71128e-06
6.80642e-05
-1.05627e-05
6.7985e-05
2.35356e-05
6.78306e-05
1.40631e-05
6.7683e-05
-2.48168e-06
6.75161e-05
7.91205e-07
6.73524e-05
1.06856e-05
6.70333e-05
1.02405e-05
6.65807e-05
1.91486e-05
6.59996e-05
2.27426e-05
6.52419e-05
2.36623e-05
6.42676e-05
2.75532e-05
6.30025e-05
3.64099e-05
6.14193e-05
4.72004e-05
5.94364e-05
6.06993e-05
5.70367e-05
7.86744e-05
5.40756e-05
0.000104802
5.07528e-05
0.000144341
4.62818e-05
0.000205229
4.12306e-05
0.000331563
3.0887e-05
0.000495405
0.000953099
6.81825e-05
-6.73315e-06
6.80346e-05
-1.05668e-05
6.80563e-05
2.37613e-05
6.78925e-05
1.43138e-05
6.7659e-05
-2.4296e-06
6.74634e-05
9.25797e-07
6.73242e-05
1.08913e-05
6.69983e-05
1.05192e-05
6.65635e-05
1.95918e-05
6.59762e-05
2.33291e-05
6.5226e-05
2.44123e-05
6.42448e-05
2.85346e-05
6.29518e-05
3.77167e-05
6.13332e-05
4.88094e-05
5.93296e-05
6.27009e-05
5.6931e-05
8.10723e-05
5.39935e-05
0.00010774
5.07182e-05
0.000147617
4.63092e-05
0.000209637
4.15842e-05
0.000336288
3.14681e-05
0.000505521
0.000984567
6.82315e-05
-6.82422e-06
6.80579e-05
-1.06647e-05
6.79814e-05
2.43069e-05
6.78346e-05
1.45911e-05
6.76882e-05
-2.57257e-06
6.75195e-05
9.62676e-07
6.73602e-05
1.11589e-05
6.69873e-05
1.08554e-05
6.65343e-05
2.00544e-05
6.59513e-05
2.39139e-05
6.52103e-05
2.51533e-05
6.42215e-05
2.95226e-05
6.28989e-05
3.90262e-05
6.12447e-05
5.04721e-05
5.92222e-05
6.47256e-05
5.68277e-05
8.34675e-05
5.39157e-05
0.000110652
5.06886e-05
0.000150844
4.63392e-05
0.000213987
4.19509e-05
0.000340676
3.20739e-05
0.000515398
0.00101664
6.81789e-05
-6.83988e-06
6.80304e-05
-1.06594e-05
6.80531e-05
2.45184e-05
6.78958e-05
1.48349e-05
6.76663e-05
-2.53058e-06
6.74712e-05
1.09629e-06
6.73358e-05
1.13566e-05
6.69568e-05
1.1197e-05
6.65006e-05
2.05094e-05
6.59263e-05
2.44871e-05
6.51947e-05
2.58848e-05
6.41973e-05
3.05202e-05
6.28441e-05
4.03959e-05
6.11541e-05
5.21512e-05
5.91147e-05
6.67625e-05
5.67268e-05
8.58548e-05
5.3842e-05
0.000113536
5.0664e-05
0.000154022
4.63714e-05
0.000218279
4.23283e-05
0.000344719
3.27032e-05
0.000525023
0.00104934
6.82215e-05
-6.91518e-06
6.80461e-05
-1.07337e-05
6.79806e-05
2.50253e-05
6.78403e-05
1.51013e-05
6.76856e-05
-2.65734e-06
6.75174e-05
1.14246e-06
6.73412e-05
1.16321e-05
6.69331e-05
1.15881e-05
6.64678e-05
2.09797e-05
6.5902e-05
2.50547e-05
6.51792e-05
2.66077e-05
6.41725e-05
3.1526e-05
6.27874e-05
4.17668e-05
6.10619e-05
5.38861e-05
5.90074e-05
6.88195e-05
5.66284e-05
8.82346e-05
5.37721e-05
0.000116393
5.06443e-05
0.00015715
4.64054e-05
0.000222518
4.27115e-05
0.000348413
3.33519e-05
0.000534383
0.0010827
6.81707e-05
-6.92009e-06
6.80212e-05
-1.0707e-05
6.80524e-05
2.52039e-05
6.79017e-05
1.53318e-05
6.76652e-05
-2.5975e-06
6.7474e-05
1.28073e-06
6.73017e-05
1.18607e-05
6.69024e-05
1.19738e-05
6.64377e-05
2.14423e-05
6.58788e-05
2.56124e-05
6.51639e-05
2.73225e-05
6.41467e-05
3.25434e-05
6.2729e-05
4.32012e-05
6.09686e-05
5.56357e-05
5.8901e-05
7.08844e-05
5.65327e-05
9.06021e-05
5.37058e-05
0.00011922
5.06296e-05
0.000160225
4.6441e-05
0.000226707
4.30898e-05
0.000351764
3.40105e-05
0.000543462
0.00111671
6.82389e-05
-7.02963e-06
6.80892e-05
-1.08146e-05
6.80045e-05
2.57415e-05
6.78774e-05
1.55936e-05
6.77524e-05
-2.79409e-06
6.76045e-05
1.29272e-06
6.73469e-05
1.22237e-05
6.68843e-05
1.24373e-05
6.64104e-05
2.19197e-05
6.5857e-05
2.61674e-05
6.51488e-05
2.80307e-05
6.41201e-05
3.35715e-05
6.26691e-05
4.46378e-05
6.08748e-05
5.74391e-05
5.87959e-05
7.29658e-05
5.64401e-05
9.29586e-05
5.36426e-05
0.000122017
5.06206e-05
0.000163248
4.64772e-05
0.00023085
4.34582e-05
0.000354783
3.47552e-05
0.000552165
0.00115146
-4.77575e-06
4.77593e-06
-1.03802e-05
5.60472e-06
-2.00498e-05
9.66976e-06
-2.7217e-05
7.16918e-06
-2.45898e-05
-2.62657e-06
-1.54806e-05
-9.10589e-06
-4.52961e-06
-1.09483e-05
5.53333e-06
-1.00601e-05
1.4393e-05
-8.8433e-06
2.16918e-05
-7.29385e-06
2.67838e-05
-5.08712e-06
3.00132e-05
-3.24337e-06
3.25167e-05
-2.50504e-06
3.48022e-05
-2.28611e-06
3.70035e-05
-2.20203e-06
3.92151e-05
-2.21206e-06
4.14845e-05
-2.26954e-06
4.37676e-05
-2.28314e-06
4.59682e-05
-2.20095e-06
4.80535e-05
-2.08487e-06
5.05283e-05
-2.47453e-06
5.47604e-05
-4.23219e-06
5.99876e-05
-5.22718e-06
6.33532e-05
-3.36559e-06
6.46503e-05
-1.29708e-06
6.52556e-05
-6.05355e-07
6.57051e-05
-4.49583e-07
6.61022e-05
-3.97047e-07
6.64592e-05
-3.57135e-07
6.67529e-05
-2.93577e-07
6.69726e-05
-2.19712e-07
6.71412e-05
-1.68594e-07
6.72899e-05
-1.48674e-07
6.74152e-05
-1.25352e-07
-4.63304e-08
-4.63217e-06
9.40854e-06
-1.05319e-05
1.15051e-05
-2.01277e-05
1.9266e-05
-2.7308e-05
1.43536e-05
-2.53769e-05
-4.55627e-06
-1.69277e-05
-1.75487e-05
-6.23145e-06
-2.16392e-05
4.1377e-06
-2.04237e-05
1.32631e-05
-1.79392e-05
2.09445e-05
-1.49658e-05
2.64324e-05
-1.05696e-05
2.98893e-05
-6.72273e-06
3.24705e-05
-5.08929e-06
3.4764e-05
-4.58094e-06
3.69443e-05
-4.38373e-06
3.91164e-05
-4.38514e-06
4.13387e-05
-4.49207e-06
4.35759e-05
-4.52049e-06
4.5738e-05
-4.36374e-06
4.77938e-05
-4.13988e-06
5.01945e-05
-4.87475e-06
5.43267e-05
-8.36455e-06
5.96435e-05
-1.0544e-05
6.32232e-05
-6.94525e-06
6.46173e-05
-2.69106e-06
6.52404e-05
-1.22855e-06
6.56934e-05
-9.02705e-07
6.60922e-05
-7.95866e-07
6.64507e-05
-7.15823e-07
6.6746e-05
-5.8872e-07
6.69675e-05
-4.41184e-07
6.71375e-05
-3.38552e-07
6.72868e-05
-2.97981e-07
6.7413e-05
-2.5151e-07
-9.34502e-08
-4.42696e-06
1.38358e-05
-1.05831e-05
1.76618e-05
-2.05797e-05
2.92628e-05
-2.77156e-05
2.1493e-05
-2.56692e-05
-6.60165e-06
-1.71735e-05
-2.60387e-05
-6.55942e-06
-3.22489e-05
3.66664e-06
-3.06453e-05
1.27383e-05
-2.69857e-05
2.04789e-05
-2.26986e-05
2.61541e-05
-1.62385e-05
2.97892e-05
-1.03818e-05
3.24467e-05
-7.74978e-06
3.47484e-05
-6.88386e-06
3.69039e-05
-6.54061e-06
3.90326e-05
-6.51471e-06
4.12053e-05
-6.66509e-06
4.33969e-05
-6.7122e-06
4.5523e-05
-6.49047e-06
4.75566e-05
-6.17273e-06
4.99053e-05
-7.22306e-06
5.39624e-05
-1.24218e-05
5.93514e-05
-1.59329e-05
6.31066e-05
-1.07005e-05
6.45854e-05
-4.16976e-06
6.52252e-05
-1.86853e-06
6.56817e-05
-1.35927e-06
6.60823e-05
-1.19647e-06
6.64423e-05
-1.07599e-06
6.67392e-05
-8.85428e-07
6.69624e-05
-6.64406e-07
6.71338e-05
-5.09891e-07
6.72838e-05
-4.47907e-07
6.74107e-05
-3.78444e-07
-1.4124e-07
-4.23349e-06
1.80698e-05
-1.06323e-05
2.40614e-05
-2.08537e-05
3.94847e-05
-2.76467e-05
2.82904e-05
-2.5295e-05
-8.95171e-06
-1.67231e-05
-3.46038e-05
-6.27271e-06
-4.26941e-05
3.72645e-06
-4.06391e-05
1.26302e-05
-3.58635e-05
2.02482e-05
-3.03082e-05
2.59503e-05
-2.19389e-05
2.97179e-05
-1.41703e-05
3.24494e-05
-1.04847e-05
3.47588e-05
-9.19481e-06
3.6885e-05
-8.66834e-06
3.89626e-05
-8.59348e-06
4.10782e-05
-8.78107e-06
4.32209e-05
-8.8551e-06
4.53151e-05
-8.58534e-06
4.73372e-05
-8.19408e-06
4.96585e-05
-9.54391e-06
5.36674e-05
-1.64308e-05
5.91107e-05
-2.13763e-05
6.30029e-05
-1.45926e-05
6.45547e-05
-5.72146e-06
6.52104e-05
-2.52431e-06
6.56703e-05
-1.81929e-06
6.60726e-05
-1.59882e-06
6.64341e-05
-1.4376e-06
6.67324e-05
-1.18361e-06
6.69574e-05
-8.89346e-07
6.71301e-05
-6.82593e-07
6.72807e-05
-5.98413e-07
6.74083e-05
-5.06092e-07
-1.89601e-07
-4.04913e-06
2.21192e-05
-1.06558e-05
3.06685e-05
-2.08891e-05
4.97182e-05
-2.70654e-05
3.44703e-05
-2.43027e-05
-1.17131e-05
-1.56762e-05
-4.32246e-05
-5.48779e-06
-5.28784e-05
4.19757e-06
-5.03201e-05
1.28355e-05
-4.44768e-05
2.02143e-05
-3.76794e-05
2.58349e-05
-2.75582e-05
2.96865e-05
-1.80428e-05
3.24834e-05
-1.32848e-05
3.47985e-05
-1.15113e-05
3.6892e-05
-1.07632e-05
3.89118e-05
-1.06144e-05
4.09603e-05
-1.08299e-05
4.30475e-05
-1.09424e-05
4.51127e-05
-1.06514e-05
4.71349e-05
-1.02155e-05
4.94515e-05
-1.18601e-05
5.34362e-05
-2.04156e-05
5.89184e-05
-2.68584e-05
6.29122e-05
-1.85864e-05
6.45254e-05
-7.33459e-06
6.51958e-05
-3.19481e-06
6.56592e-05
-2.28276e-06
6.60632e-05
-2.00286e-06
6.64261e-05
-1.80059e-06
6.67258e-05
-1.48319e-06
6.69524e-05
-1.11598e-06
6.71265e-05
-8.56651e-07
6.72776e-05
-7.49463e-07
6.74059e-05
-6.34391e-07
-2.38435e-07
-3.86942e-06
2.59891e-05
-1.06327e-05
3.74325e-05
-2.06559e-05
5.97422e-05
-2.60104e-05
3.98297e-05
-2.28049e-05
-1.49165e-05
-1.41775e-05
-5.18448e-05
-4.26032e-06
-6.27901e-05
5.0679e-06
-5.96421e-05
1.33302e-05
-5.271e-05
2.03646e-05
-4.47046e-05
2.58237e-05
-3.30202e-05
2.97088e-05
-2.19468e-05
3.25536e-05
-1.61336e-05
3.48686e-05
-1.38281e-05
3.69279e-05
-1.28242e-05
3.88875e-05
-1.25752e-05
4.08608e-05
-1.28037e-05
4.28837e-05
-1.29655e-05
4.49202e-05
-1.26887e-05
4.69514e-05
-1.22458e-05
4.92816e-05
-1.41898e-05
5.32618e-05
-2.4396e-05
5.87697e-05
-3.23662e-05
6.28343e-05
-2.2651e-05
6.44978e-05
-8.998e-06
6.51817e-05
-3.87893e-06
6.56485e-05
-2.74967e-06
6.60542e-05
-2.40853e-06
6.64184e-05
-2.1649e-06
6.67194e-05
-1.78405e-06
6.69477e-05
-1.34425e-06
6.71231e-05
-1.03203e-06
6.72747e-05
-9.00999e-07
6.74035e-05
-7.63262e-07
-2.87634e-07
-3.68917e-06
2.96785e-05
-1.0545e-05
4.42888e-05
-2.01531e-05
6.93503e-05
-2.46076e-05
4.42883e-05
-2.10074e-05
-1.85157e-05
-1.24431e-05
-6.04037e-05
-2.70818e-06
-7.25213e-05
6.32146e-06
-6.8667e-05
1.41382e-05
-6.0498e-05
2.07169e-05
-5.12738e-05
2.59372e-05
-3.82447e-05
2.98007e-05
-2.58297e-05
3.26659e-05
-1.90026e-05
3.49696e-05
-1.61333e-05
3.69929e-05
-1.48488e-05
3.88941e-05
-1.44775e-05
4.079e-05
-1.46999e-05
4.27413e-05
-1.4917e-05
4.47459e-05
-1.46942e-05
4.67902e-05
-1.42894e-05
4.91462e-05
-1.65453e-05
5.31365e-05
-2.83864e-05
5.86592e-05
-3.78889e-05
6.27686e-05
-2.67604e-05
6.44719e-05
-1.07012e-05
6.51683e-05
-4.57542e-06
6.56385e-05
-3.21995e-06
6.60457e-05
-2.81573e-06
6.64111e-05
-2.53042e-06
6.67132e-05
-2.08607e-06
6.69431e-05
-1.57414e-06
6.71199e-05
-1.20871e-06
6.72719e-05
-1.05297e-06
6.74012e-05
-8.92623e-07
-3.37093e-07
-3.50301e-06
3.31822e-05
-1.03779e-05
5.11646e-05
-1.94068e-05
7.83801e-05
-2.29927e-05
4.78799e-05
-1.90843e-05
-2.24218e-05
-1.06238e-05
-6.88574e-05
-9.89363e-07
-8.21505e-05
7.86606e-06
-7.75157e-05
1.52765e-05
-6.78744e-05
2.13217e-05
-5.73066e-05
2.62128e-05
-4.31443e-05
2.9986e-05
-2.96228e-05
3.28315e-05
-2.1853e-05
3.51046e-05
-1.84085e-05
3.70867e-05
-1.68327e-05
3.8933e-05
-1.63251e-05
4.0755e-05
-1.65224e-05