/*--------------------------------*- C++ -*----------------------------------*\
| =========                 |                                                 |
| \\      /  F ield         | OpenFOAM: The Open Source CFD Toolbox           |
|  \\    /   O peration     | Version:  v1912                                 |
|   \\  /    A nd           | Website:  www.openfoam.com                      |
|    \\/     M anipulation  |                                                 |
\*---------------------------------------------------------------------------*/
FoamFile
{
    version     2.0;
    format      ascii;
    class       volScalarField;
    location    "60";
    object      yPlus;
}
// * * * * * * * * * * * * * * * * * * * * * * * * * * * * * * * * * * * * * //

dimensions      [0 0 0 0 0 0 0];


internalField   uniform 0;

boundaryField
{
    inlet
    {
        type            calculated;
        value           uniform 0;
    }
    outlet
    {
        type            calculated;
        value           uniform 0;
    }
    lowerSymmetry
    {
        type            symmetryPlane;
    }
    obstical
    {
        type            calculated;
        value           nonuniform List<scalar> 
88
(
551.057
551.925
555.006
560.65
568.753
579.173
591.768
606.394
622.903
641.149
660.983
682.261
704.846
728.614
753.453
779.265
805.965
833.482
861.755
890.736
920.387
950.68
981.594
1013.12
1045.25
1077.99
1111.35
1145.35
1179.99
1215.3
1251.31
1288.04
1325.52
1363.76
1402.8
1442.65
1483.35
1524.91
1567.36
1610.72
1655.02
1700.33
1746.98
1798.86
117.958
116.035
112.389
108.735
105.308
102.263
99.7036
97.6958
96.2783
95.4716
95.2866
95.729
96.8055
98.5234
100.892
103.92
107.607
111.937
116.869
122.316
128.176
134.32
140.604
146.852
152.849
158.313
162.884
166.108
167.456
166.378
162.423
155.412
145.679
134.093
121.676
109.735
100.048
94.5539
94.6271
100.239
110.118
122.728
136.408
148.439
)
;
    }
    obsticalTop
    {
        type            calculated;
        value           nonuniform List<scalar> 
20
(
51.6945
34.9818
44.409
51.157
54.3614
56.2805
57.1147
57.0788
56.3909
55.1999
53.5106
51.248
48.3578
44.7197
40.3304
34.666
29.1236
21.2778
18.3496
11.0641
)
;
    }
    top
    {
        type            calculated;
        value           uniform 0;
    }
    defaultFaces
    {
        type            empty;
    }
}


// ************************************************************************* //
