# Force       
# CofR        : (0.000000e+00 0.000000e+00 0.000000e+00)
#
# Time        	(total_x total_y total_z)	(pressure_x pressure_y pressure_z)	(viscous_x viscous_y viscous_z)
1             	(-8.577302e-03 -5.342933e-01 5.664929e-18)	(6.763066e-02 -5.372965e-01 -8.853505e-18)	(-7.620796e-02 3.003194e-03 1.451843e-17)
2             	(-5.688084e-03 -7.668775e-01 -1.567600e-17)	(1.049346e-01 -7.690702e-01 -1.547510e-17)	(-1.106226e-01 2.192659e-03 -2.008982e-19)
3             	(1.021584e-01 -8.645196e-01 -1.578604e-17)	(1.571191e-01 -8.695965e-01 -1.414419e-17)	(-5.496065e-02 5.076930e-03 -1.641856e-18)
4             	(1.727111e-01 -1.104498e+00 -1.024784e-17)	(1.839972e-01 -1.106275e+00 -9.461411e-18)	(-1.128617e-02 1.776893e-03 -7.864310e-19)
5             	(1.748945e-01 -1.344969e+00 -6.270505e-18)	(1.786032e-01 -1.345616e+00 -6.591263e-18)	(-3.708710e-03 6.470838e-04 3.207578e-19)
6             	(1.655824e-01 -1.554113e+00 -4.148028e-18)	(1.633544e-01 -1.554340e+00 -4.781787e-18)	(2.227983e-03 2.278090e-04 6.337595e-19)
7             	(1.454166e-01 -1.615084e+00 -3.154122e-18)	(1.408404e-01 -1.615179e+00 -3.457889e-18)	(4.576244e-03 9.435397e-05 3.037673e-19)
8             	(1.228309e-01 -1.490262e+00 -1.653490e-18)	(1.169228e-01 -1.490354e+00 -2.082142e-18)	(5.908155e-03 9.228209e-05 4.286515e-19)
9             	(1.026620e-01 -1.136655e+00 -4.712858e-19)	(9.578448e-02 -1.136667e+00 -3.588990e-19)	(6.877499e-03 1.173353e-05 -1.123868e-19)
10            	(8.869178e-02 -6.332051e-01 1.313716e-18)	(8.102174e-02 -6.333785e-01 1.926793e-18)	(7.670034e-03 1.734462e-04 -6.130770e-19)
11            	(7.931922e-02 -1.982259e-01 2.872404e-18)	(7.046040e-02 -1.985553e-01 4.068228e-18)	(8.858819e-03 3.294203e-04 -1.195824e-18)
12            	(7.235959e-02 1.322875e-01 4.928182e-18)	(6.229682e-02 1.317363e-01 5.832717e-18)	(1.006277e-02 5.511646e-04 -9.045352e-19)
13            	(6.557205e-02 2.942228e-01 6.395324e-18)	(5.413701e-02 2.935794e-01 6.796315e-18)	(1.143504e-02 6.433042e-04 -4.009909e-19)
14            	(5.951718e-02 3.320490e-01 7.218890e-18)	(4.617898e-02 3.313958e-01 7.235529e-18)	(1.333820e-02 6.531851e-04 -1.663953e-20)
15            	(5.477825e-02 3.225789e-01 7.337290e-18)	(3.960518e-02 3.220069e-01 7.459582e-18)	(1.517307e-02 5.720135e-04 -1.222919e-19)
16            	(5.307816e-02 3.424415e-01 7.560116e-18)	(3.558842e-02 3.419761e-01 7.734807e-18)	(1.748974e-02 4.653956e-04 -1.746910e-19)
17            	(5.280410e-02 4.003119e-01 7.566581e-18)	(3.333021e-02 3.999375e-01 8.020613e-18)	(1.947389e-02 3.743926e-04 -4.540324e-19)
18            	(5.334597e-02 4.787587e-01 7.713629e-18)	(3.186811e-02 4.784447e-01 8.260080e-18)	(2.147786e-02 3.140064e-04 -5.464508e-19)
19            	(5.266557e-02 5.596051e-01 7.925824e-18)	(3.030489e-02 5.593470e-01 8.489757e-18)	(2.236068e-02 2.581065e-04 -5.639336e-19)
20            	(5.202794e-02 6.195047e-01 8.056507e-18)	(2.863964e-02 6.192313e-01 8.664074e-18)	(2.338830e-02 2.734496e-04 -6.075676e-19)
21            	(5.053201e-02 6.472665e-01 8.200715e-18)	(2.678499e-02 6.470061e-01 8.755384e-18)	(2.374701e-02 2.604707e-04 -5.546690e-19)
22            	(4.932672e-02 6.486401e-01 8.253257e-18)	(2.476779e-02 6.483842e-01 8.794469e-18)	(2.455894e-02 2.559188e-04 -5.412119e-19)
23            	(4.731175e-02 6.356144e-01 8.253706e-18)	(2.251030e-02 6.353794e-01 8.766638e-18)	(2.480146e-02 2.350562e-04 -5.129327e-19)
24            	(4.538493e-02 6.174050e-01 8.183425e-18)	(2.016331e-02 6.171492e-01 8.674682e-18)	(2.522161e-02 2.557738e-04 -4.912574e-19)
25            	(4.328543e-02 6.014119e-01 8.039441e-18)	(1.791574e-02 6.011317e-01 8.528529e-18)	(2.536969e-02 2.802143e-04 -4.890880e-19)
26            	(4.154397e-02 5.885999e-01 7.873157e-18)	(1.584677e-02 5.882847e-01 8.353036e-18)	(2.569720e-02 3.151891e-04 -4.798785e-19)
27            	(3.978514e-02 5.775677e-01 7.681747e-18)	(1.398120e-02 5.772355e-01 8.158226e-18)	(2.580394e-02 3.321069e-04 -4.764789e-19)
28            	(3.834204e-02 5.654193e-01 7.485486e-18)	(1.234798e-02 5.650826e-01 7.951212e-18)	(2.599406e-02 3.366866e-04 -4.657259e-19)
29            	(3.701751e-02 5.512848e-01 7.280025e-18)	(1.098401e-02 5.509543e-01 7.743780e-18)	(2.603350e-02 3.305618e-04 -4.637553e-19)
30            	(3.607744e-02 5.359072e-01 7.081664e-18)	(9.927679e-03 5.355781e-01 7.542504e-18)	(2.614976e-02 3.290253e-04 -4.608400e-19)
31            	(3.536094e-02 5.206678e-01 6.888289e-18)	(9.191997e-03 5.203400e-01 7.353479e-18)	(2.616895e-02 3.278025e-04 -4.651901e-19)
32            	(3.499778e-02 5.068303e-01 6.711422e-18)	(8.773793e-03 5.064990e-01 7.183615e-18)	(2.622399e-02 3.312344e-04 -4.721927e-19)
33            	(3.487184e-02 4.950291e-01 6.552407e-18)	(8.652534e-03 4.946963e-01 7.035250e-18)	(2.621931e-02 3.327512e-04 -4.828429e-19)
34            	(3.502069e-02 4.855370e-01 6.417080e-18)	(8.787311e-03 4.852022e-01 6.909780e-18)	(2.623338e-02 3.347899e-04 -4.927004e-19)
35            	(3.534834e-02 4.782327e-01 6.302708e-18)	(9.134491e-03 4.778985e-01 6.807258e-18)	(2.621385e-02 3.341439e-04 -5.045496e-19)
36            	(3.587739e-02 4.730766e-01 6.211437e-18)	(9.655377e-03 4.727432e-01 6.729752e-18)	(2.622201e-02 3.333603e-04 -5.183155e-19)
37            	(3.652147e-02 4.700997e-01 6.143610e-18)	(1.030776e-02 4.697678e-01 6.676924e-18)	(2.621371e-02 3.319152e-04 -5.333139e-19)
38            	(3.726752e-02 4.693304e-01 6.100560e-18)	(1.104816e-02 4.689985e-01 6.647660e-18)	(2.621936e-02 3.319185e-04 -5.470991e-19)
39            	(3.805510e-02 4.707031e-01 6.078894e-18)	(1.183859e-02 4.703709e-01 6.639829e-18)	(2.621651e-02 3.321437e-04 -5.609352e-19)
40            	(3.887309e-02 4.740364e-01 6.076592e-18)	(1.264691e-02 4.737034e-01 6.651095e-18)	(2.622617e-02 3.330194e-04 -5.745027e-19)
41            	(3.967412e-02 4.790731e-01 6.091614e-18)	(1.344478e-02 4.787391e-01 6.678680e-18)	(2.622934e-02 3.339467e-04 -5.870660e-19)
42            	(4.044900e-02 4.854968e-01 6.121008e-18)	(1.420753e-02 4.851617e-01 6.719517e-18)	(2.624148e-02 3.351424e-04 -5.985083e-19)
43            	(4.116958e-02 4.929501e-01 6.161760e-18)	(1.491676e-02 4.926137e-01 6.770585e-18)	(2.625281e-02 3.364155e-04 -6.088251e-19)
44            	(4.182491e-02 5.010754e-01 6.210561e-18)	(1.555720e-02 5.007371e-01 6.828077e-18)	(2.626771e-02 3.382894e-04 -6.175166e-19)
45            	(4.240020e-02 5.095535e-01 6.264141e-18)	(1.612054e-02 5.092133e-01 6.888898e-18)	(2.627966e-02 3.402429e-04 -6.247575e-19)
46            	(4.290000e-02 5.181365e-01 6.319868e-18)	(1.660364e-02 5.177944e-01 6.950893e-18)	(2.629636e-02 3.421664e-04 -6.310249e-19)
47            	(4.331932e-02 5.266163e-01 6.375989e-18)	(1.700580e-02 5.262722e-01 7.012271e-18)	(2.631352e-02 3.440169e-04 -6.362823e-19)
48            	(4.366170e-02 5.347957e-01 6.430835e-18)	(1.732801e-02 5.344498e-01 7.071393e-18)	(2.633369e-02 3.459050e-04 -6.405589e-19)
49            	(4.392539e-02 5.424967e-01 6.482996e-18)	(1.757329e-02 5.421489e-01 7.126834e-18)	(2.635210e-02 3.478605e-04 -6.438376e-19)
50            	(4.411767e-02 5.495951e-01 6.531183e-18)	(1.774567e-02 5.492454e-01 7.177430e-18)	(2.637200e-02 3.497447e-04 -6.462466e-19)
51            	(4.424304e-02 5.559850e-01 6.574432e-18)	(1.785150e-02 5.556335e-01 7.222284e-18)	(2.639155e-02 3.515147e-04 -6.478525e-19)
52            	(4.431037e-02 5.616063e-01 6.612050e-18)	(1.789905e-02 5.612531e-01 7.260884e-18)	(2.641132e-02 3.531804e-04 -6.488339e-19)
53            	(4.432692e-02 5.664427e-01 6.643769e-18)	(1.789705e-02 5.660880e-01 7.293095e-18)	(2.642987e-02 3.546932e-04 -6.493256e-19)
54            	(4.430158e-02 5.705049e-01 6.669577e-18)	(1.785392e-02 5.701488e-01 7.319016e-18)	(2.644767e-02 3.560530e-04 -6.494391e-19)
55            	(4.424187e-02 5.738209e-01 6.689662e-18)	(1.777777e-02 5.734636e-01 7.338879e-18)	(2.646410e-02 3.572567e-04 -6.492171e-19)
56            	(4.415583e-02 5.764330e-01 6.704310e-18)	(1.767649e-02 5.760747e-01 7.353075e-18)	(2.647934e-02 3.583366e-04 -6.487650e-19)
57            	(4.405039e-02 5.783964e-01 6.713935e-18)	(1.755738e-02 5.780371e-01 7.362083e-18)	(2.649301e-02 3.592873e-04 -6.481485e-19)
58            	(4.393242e-02 5.797721e-01 6.719007e-18)	(1.742706e-02 5.794120e-01 7.366450e-18)	(2.650536e-02 3.601057e-04 -6.474432e-19)
59            	(4.380771e-02 5.806266e-01 6.720043e-18)	(1.729134e-02 5.802658e-01 7.366719e-18)	(2.651638e-02 3.607852e-04 -6.466752e-19)
60            	(4.368133e-02 5.810292e-01 6.717574e-18)	(1.715513e-02 5.806679e-01 7.363466e-18)	(2.652620e-02 3.613367e-04 -6.458921e-19)
61            	(4.356632e-02 5.810208e-01 6.711982e-18)	(1.703251e-02 5.806563e-01 7.357188e-18)	(2.653382e-02 3.644485e-04 -6.452061e-19)
62            	(4.345213e-02 5.807294e-01 6.704181e-18)	(1.691114e-02 5.803644e-01 7.348710e-18)	(2.654099e-02 3.649762e-04 -6.445296e-19)
63            	(4.334318e-02 5.801980e-01 6.694494e-18)	(1.679684e-02 5.798333e-01 7.338411e-18)	(2.654635e-02 3.647611e-04 -6.439174e-19)
64            	(4.324294e-02 5.794870e-01 6.683325e-18)	(1.669244e-02 5.791225e-01 7.326595e-18)	(2.655050e-02 3.644697e-04 -6.432703e-19)
65            	(4.315391e-02 5.786467e-01 6.671074e-18)	(1.659985e-02 5.782824e-01 7.313863e-18)	(2.655406e-02 3.642445e-04 -6.427893e-19)
66            	(4.307756e-02 5.777216e-01 6.658285e-18)	(1.652044e-02 5.773575e-01 7.300823e-18)	(2.655711e-02 3.640856e-04 -6.425386e-19)
67            	(4.301438e-02 5.767558e-01 6.645426e-18)	(1.645468e-02 5.763919e-01 7.287802e-18)	(2.655970e-02 3.639719e-04 -6.423760e-19)
68            	(4.296400e-02 5.757846e-01 6.632787e-18)	(1.640226e-02 5.754207e-01 7.275145e-18)	(2.656174e-02 3.638650e-04 -6.423583e-19)
69            	(4.292601e-02 5.748380e-01 6.620651e-18)	(1.636254e-02 5.744742e-01 7.263095e-18)	(2.656347e-02 3.637647e-04 -6.424441e-19)
70            	(4.289937e-02 5.739394e-01 6.609211e-18)	(1.633464e-02 5.735758e-01 7.251856e-18)	(2.656473e-02 3.636636e-04 -6.426455e-19)
71            	(4.288325e-02 5.731084e-01 6.598624e-18)	(1.631747e-02 5.727448e-01 7.241551e-18)	(2.656578e-02 3.635653e-04 -6.429276e-19)
72            	(4.287630e-02 5.723590e-01 6.588993e-18)	(1.630987e-02 5.719955e-01 7.232294e-18)	(2.656644e-02 3.634763e-04 -6.433011e-19)
73            	(4.287763e-02 5.717024e-01 6.580397e-18)	(1.631058e-02 5.713390e-01 7.224137e-18)	(2.656705e-02 3.633873e-04 -6.437400e-19)
74            	(4.288579e-02 5.711450e-01 6.572884e-18)	(1.631831e-02 5.707817e-01 7.217132e-18)	(2.656748e-02 3.632910e-04 -6.442473e-19)
75            	(4.289974e-02 5.706907e-01 6.566476e-18)	(1.633174e-02 5.703275e-01 7.211274e-18)	(2.656800e-02 3.631957e-04 -6.447975e-19)
76            	(4.291799e-02 5.703386e-01 6.561170e-18)	(1.634955e-02 5.699755e-01 7.206559e-18)	(2.656844e-02 3.630985e-04 -6.453893e-19)
77            	(4.293953e-02 5.700852e-01 6.556934e-18)	(1.637051e-02 5.697222e-01 7.202935e-18)	(2.656902e-02 3.630156e-04 -6.460010e-19)
78            	(4.296296e-02 5.699237e-01 6.553725e-18)	(1.639344e-02 5.695607e-01 7.200361e-18)	(2.656953e-02 3.629413e-04 -6.466362e-19)
79            	(4.298752e-02 5.698455e-01 6.551474e-18)	(1.641728e-02 5.694827e-01 7.198738e-18)	(2.657023e-02 3.628803e-04 -6.472634e-19)
80            	(4.301207e-02 5.698398e-01 6.550093e-18)	(1.644115e-02 5.694770e-01 7.197974e-18)	(2.657091e-02 3.628291e-04 -6.478808e-19)
81            	(4.303617e-02 5.698961e-01 6.549418e-18)	(1.646438e-02 5.695334e-01 7.197819e-18)	(2.657180e-02 3.627936e-04 -6.484011e-19)
82            	(4.305898e-02 5.700011e-01 6.549405e-18)	(1.648629e-02 5.696383e-01 7.198460e-18)	(2.657270e-02 3.627657e-04 -6.490555e-19)
83            	(4.308010e-02 5.701439e-01 6.550033e-18)	(1.650634e-02 5.697811e-01 7.199640e-18)	(2.657377e-02 3.627571e-04 -6.496064e-19)
84            	(4.309901e-02 5.703130e-01 6.551124e-18)	(1.652425e-02 5.699502e-01 7.201238e-18)	(2.657477e-02 3.627573e-04 -6.501138e-19)
85            	(4.311575e-02 5.704986e-01 6.552567e-18)	(1.653983e-02 5.701358e-01 7.203151e-18)	(2.657592e-02 3.627704e-04 -6.505838e-19)
86            	(4.313000e-02 5.706909e-01 6.554270e-18)	(1.655300e-02 5.703281e-01 7.205277e-18)	(2.657700e-02 3.627901e-04 -6.510073e-19)
87            	(4.314198e-02 5.708824e-01 6.556138e-18)	(1.656377e-02 5.705196e-01 7.207527e-18)	(2.657821e-02 3.628202e-04 -6.513888e-19)
88            	(4.315147e-02 5.710658e-01 6.558104e-18)	(1.657223e-02 5.707030e-01 7.209838e-18)	(2.657924e-02 3.628618e-04 -6.517334e-19)
89            	(4.315886e-02 5.712362e-01 6.560106e-18)	(1.657854e-02 5.708733e-01 7.212149e-18)	(2.658032e-02 3.629138e-04 -6.520433e-19)
90            	(4.316413e-02 5.713891e-01 6.562105e-18)	(1.658289e-02 5.710262e-01 7.214432e-18)	(2.658124e-02 3.629618e-04 -6.523270e-19)
91            	(4.316772e-02 5.715223e-01 6.564052e-18)	(1.658550e-02 5.711593e-01 7.216619e-18)	(2.658222e-02 3.630075e-04 -6.525667e-19)
92            	(4.316969e-02 5.716345e-01 6.565945e-18)	(1.658666e-02 5.712715e-01 7.218783e-18)	(2.658303e-02 3.630414e-04 -6.528381e-19)
93            	(4.317051e-02 5.717256e-01 6.567778e-18)	(1.658658e-02 5.713626e-01 7.220830e-18)	(2.658393e-02 3.630666e-04 -6.530521e-19)
94            	(4.317014e-02 5.717956e-01 6.569508e-18)	(1.658545e-02 5.714325e-01 7.222751e-18)	(2.658469e-02 3.630811e-04 -6.532437e-19)
95            	(4.316901e-02 5.718455e-01 6.571114e-18)	(1.658348e-02 5.714824e-01 7.224524e-18)	(2.658552e-02 3.630931e-04 -6.534097e-19)
96            	(4.316710e-02 5.718763e-01 6.572599e-18)	(1.658089e-02 5.715132e-01 7.226166e-18)	(2.658621e-02 3.630984e-04 -6.535670e-19)
97            	(4.316482e-02 5.718899e-01 6.573961e-18)	(1.657786e-02 5.715268e-01 7.227665e-18)	(2.658697e-02 3.631046e-04 -6.537034e-19)
98            	(4.316212e-02 5.718878e-01 6.575210e-18)	(1.657455e-02 5.715247e-01 7.229044e-18)	(2.658756e-02 3.631059e-04 -6.538337e-19)
99            	(4.315938e-02 5.718721e-01 6.576354e-18)	(1.657114e-02 5.715090e-01 7.230310e-18)	(2.658824e-02 3.631091e-04 -6.539559e-19)
100           	(4.315650e-02 5.718446e-01 6.577414e-18)	(1.656774e-02 5.714815e-01 7.231490e-18)	(2.658875e-02 3.631074e-04 -6.540759e-19)
101           	(4.315380e-02 5.718076e-01 6.578394e-18)	(1.656446e-02 5.714445e-01 7.232574e-18)	(2.658934e-02 3.631071e-04 -6.541805e-19)
102           	(4.315113e-02 5.717628e-01 6.579309e-18)	(1.656136e-02 5.713997e-01 7.233597e-18)	(2.658977e-02 3.631021e-04 -6.542882e-19)
103           	(4.314878e-02 5.717122e-01 6.580165e-18)	(1.655850e-02 5.713491e-01 7.234547e-18)	(2.659028e-02 3.630984e-04 -6.543819e-19)
104           	(4.314632e-02 5.716506e-01 6.580989e-18)	(1.655571e-02 5.712875e-01 7.235710e-18)	(2.659061e-02 3.630921e-04 -6.547217e-19)
105           	(4.314382e-02 5.715888e-01 6.581963e-18)	(1.655276e-02 5.712257e-01 7.236681e-18)	(2.659106e-02 3.630784e-04 -6.547175e-19)
106           	(4.314165e-02 5.715243e-01 6.582787e-18)	(1.655021e-02 5.711612e-01 7.237543e-18)	(2.659144e-02 3.630517e-04 -6.547556e-19)
107           	(4.313987e-02 5.714600e-01 6.583511e-18)	(1.654803e-02 5.710970e-01 7.238328e-18)	(2.659184e-02 3.630380e-04 -6.548171e-19)
108           	(4.313831e-02 5.713968e-01 6.584216e-18)	(1.654625e-02 5.710338e-01 7.239087e-18)	(2.659207e-02 3.630240e-04 -6.548716e-19)
109           	(4.313719e-02 5.713358e-01 6.584872e-18)	(1.654480e-02 5.709728e-01 7.239824e-18)	(2.659238e-02 3.630148e-04 -6.549519e-19)
110           	(4.313623e-02 5.712770e-01 6.585553e-18)	(1.654368e-02 5.709140e-01 7.240578e-18)	(2.659256e-02 3.630004e-04 -6.550250e-19)
111           	(4.313565e-02 5.712214e-01 6.586223e-18)	(1.654280e-02 5.708584e-01 7.241329e-18)	(2.659285e-02 3.629900e-04 -6.551062e-19)
112           	(4.313513e-02 5.711687e-01 6.586918e-18)	(1.654214e-02 5.708057e-01 7.242096e-18)	(2.659299e-02 3.629748e-04 -6.551787e-19)
113           	(4.313488e-02 5.711194e-01 6.587604e-18)	(1.654163e-02 5.707565e-01 7.242850e-18)	(2.659325e-02 3.629638e-04 -6.552466e-19)
114           	(4.313461e-02 5.710732e-01 6.588297e-18)	(1.654123e-02 5.707102e-01 7.243605e-18)	(2.659338e-02 3.629492e-04 -6.553081e-19)
115           	(4.313453e-02 5.710302e-01 6.588972e-18)	(1.654090e-02 5.706673e-01 7.244332e-18)	(2.659363e-02 3.629387e-04 -6.553594e-19)
116           	(4.313438e-02 5.709898e-01 6.589639e-18)	(1.654064e-02 5.706268e-01 7.245052e-18)	(2.659373e-02 3.629247e-04 -6.554131e-19)
117           	(4.313437e-02 5.709521e-01 6.590285e-18)	(1.654040e-02 5.705891e-01 7.245742e-18)	(2.659397e-02 3.629152e-04 -6.554576e-19)
118           	(4.313421e-02 5.709163e-01 6.590919e-18)	(1.654015e-02 5.705534e-01 7.246424e-18)	(2.659406e-02 3.629019e-04 -6.555042e-19)
119           	(4.313415e-02 5.708827e-01 6.591531e-18)	(1.653987e-02 5.705198e-01 7.247072e-18)	(2.659429e-02 3.628926e-04 -6.555410e-19)
120           	(4.313392e-02 5.708505e-01 6.592128e-18)	(1.653955e-02 5.704876e-01 7.247710e-18)	(2.659437e-02 3.628802e-04 -6.555817e-19)
121           	(4.313376e-02 5.708199e-01 6.592700e-18)	(1.653916e-02 5.704570e-01 7.248311e-18)	(2.659459e-02 3.628723e-04 -6.556115e-19)
122           	(4.313339e-02 5.707900e-01 6.593252e-18)	(1.653872e-02 5.704272e-01 7.248899e-18)	(2.659466e-02 3.628613e-04 -6.556468e-19)
123           	(4.313307e-02 5.707613e-01 6.593776e-18)	(1.653820e-02 5.703985e-01 7.249445e-18)	(2.659487e-02 3.628550e-04 -6.556684e-19)
124           	(4.313253e-02 5.707329e-01 6.594274e-18)	(1.653761e-02 5.703701e-01 7.249968e-18)	(2.659493e-02 3.628452e-04 -6.556939e-19)
125           	(4.313205e-02 5.707054e-01 6.594737e-18)	(1.653694e-02 5.703425e-01 7.250443e-18)	(2.659511e-02 3.628396e-04 -6.557060e-19)
126           	(4.313139e-02 5.706778e-01 6.595167e-18)	(1.653623e-02 5.703150e-01 7.250888e-18)	(2.659516e-02 3.628301e-04 -6.557217e-19)
127           	(4.313083e-02 5.706510e-01 6.595557e-18)	(1.653550e-02 5.702882e-01 7.251284e-18)	(2.659533e-02 3.628252e-04 -6.557269e-19)
128           	(4.313015e-02 5.706247e-01 6.595920e-18)	(1.653478e-02 5.702619e-01 7.251661e-18)	(2.659537e-02 3.628153e-04 -6.557404e-19)
129           	(4.312962e-02 5.705996e-01 6.596256e-18)	(1.653406e-02 5.702368e-01 7.252010e-18)	(2.659556e-02 3.628067e-04 -6.557541e-19)
130           	(4.312896e-02 5.705751e-01 6.596576e-18)	(1.653336e-02 5.702123e-01 7.252347e-18)	(2.659560e-02 3.627942e-04 -6.557711e-19)
131           	(4.312842e-02 5.705515e-01 6.596868e-18)	(1.653266e-02 5.701887e-01 7.252645e-18)	(2.659576e-02 3.627871e-04 -6.557768e-19)
132           	(4.312776e-02 5.705282e-01 6.597139e-18)	(1.653197e-02 5.701654e-01 7.252929e-18)	(2.659578e-02 3.627772e-04 -6.557904e-19)
133           	(4.312723e-02 5.705057e-01 6.597382e-18)	(1.653130e-02 5.701429e-01 7.253175e-18)	(2.659593e-02 3.627715e-04 -6.557930e-19)
134           	(4.312658e-02 5.704835e-01 6.597604e-18)	(1.653064e-02 5.701208e-01 7.253405e-18)	(2.659594e-02 3.627623e-04 -6.558016e-19)
135           	(4.312610e-02 5.704620e-01 6.597800e-18)	(1.653001e-02 5.700993e-01 7.253606e-18)	(2.659608e-02 3.627571e-04 -6.558051e-19)
136           	(4.312551e-02 5.704407e-01 6.597983e-18)	(1.652943e-02 5.700780e-01 7.253799e-18)	(2.659608e-02 3.627483e-04 -6.558167e-19)
137           	(4.312507e-02 5.704202e-01 6.598146e-18)	(1.652886e-02 5.700575e-01 7.253965e-18)	(2.659621e-02 3.627435e-04 -6.558189e-19)
138           	(4.312454e-02 5.704000e-01 6.598298e-18)	(1.652834e-02 5.700372e-01 7.254128e-18)	(2.659620e-02 3.627351e-04 -6.558298e-19)
139           	(4.312417e-02 5.703806e-01 6.598433e-18)	(1.652784e-02 5.700178e-01 7.254264e-18)	(2.659633e-02 3.627307e-04 -6.558307e-19)
140           	(4.312369e-02 5.703615e-01 6.598559e-18)	(1.652739e-02 5.699988e-01 7.254399e-18)	(2.659631e-02 3.627225e-04 -6.558403e-19)
141           	(4.312338e-02 5.703434e-01 6.598669e-18)	(1.652695e-02 5.699807e-01 7.254508e-18)	(2.659643e-02 3.627185e-04 -6.558396e-19)
142           	(4.312296e-02 5.703257e-01 6.598770e-18)	(1.652656e-02 5.699630e-01 7.254617e-18)	(2.659640e-02 3.627107e-04 -6.558476e-19)
143           	(4.312270e-02 5.703090e-01 6.598857e-18)	(1.652619e-02 5.699462e-01 7.254703e-18)	(2.659651e-02 3.627069e-04 -6.558459e-19)
144           	(4.312234e-02 5.702927e-01 6.598937e-18)	(1.652587e-02 5.699300e-01 7.254790e-18)	(2.659647e-02 3.626994e-04 -6.558532e-19)
145           	(4.312214e-02 5.702774e-01 6.599004e-18)	(1.652557e-02 5.699147e-01 7.254855e-18)	(2.659658e-02 3.626961e-04 -6.558509e-19)
146           	(4.312184e-02 5.702626e-01 6.599067e-18)	(1.652530e-02 5.698999e-01 7.254925e-18)	(2.659654e-02 3.626891e-04 -6.558579e-19)
147           	(4.312170e-02 5.702488e-01 6.599119e-18)	(1.652506e-02 5.698861e-01 7.254973e-18)	(2.659664e-02 3.626862e-04 -6.558539e-19)
148           	(4.312144e-02 5.702355e-01 6.599166e-18)	(1.652484e-02 5.698728e-01 7.255026e-18)	(2.659659e-02 3.626795e-04 -6.558595e-19)
149           	(4.312126e-02 5.702225e-01 6.599202e-18)	(1.652458e-02 5.698598e-01 7.255061e-18)	(2.659668e-02 3.626771e-04 -6.558590e-19)
150           	(4.312102e-02 5.702108e-01 6.599238e-18)	(1.652442e-02 5.698482e-01 7.255097e-18)	(2.659660e-02 3.626722e-04 -6.558585e-19)
151           	(4.312092e-02 5.701991e-01 6.599259e-18)	(1.652421e-02 5.698365e-01 7.255116e-18)	(2.659670e-02 3.626687e-04 -6.558568e-19)
152           	(4.312066e-02 5.701882e-01 6.599282e-18)	(1.652403e-02 5.698255e-01 7.255144e-18)	(2.659663e-02 3.626641e-04 -6.558622e-19)
153           	(4.312064e-02 5.701787e-01 6.599297e-18)	(1.652394e-02 5.698160e-01 7.255147e-18)	(2.659670e-02 3.626622e-04 -6.558500e-19)
154           	(4.312046e-02 5.701688e-01 6.599307e-18)	(1.652380e-02 5.698061e-01 7.255170e-18)	(2.659667e-02 3.626555e-04 -6.558629e-19)
155           	(4.312038e-02 5.701602e-01 6.599319e-18)	(1.652366e-02 5.697975e-01 7.255177e-18)	(2.659672e-02 3.626552e-04 -6.558572e-19)
156           	(4.312027e-02 5.701522e-01 6.599329e-18)	(1.652360e-02 5.697895e-01 7.255185e-18)	(2.659666e-02 3.626497e-04 -6.558557e-19)
157           	(4.312025e-02 5.701445e-01 6.599331e-18)	(1.652350e-02 5.697818e-01 7.255190e-18)	(2.659676e-02 3.626478e-04 -6.558587e-19)
158           	(4.312012e-02 5.701377e-01 6.599341e-18)	(1.652344e-02 5.697750e-01 7.255199e-18)	(2.659668e-02 3.626440e-04 -6.558578e-19)
159           	(4.312012e-02 5.701311e-01 6.599342e-18)	(1.652335e-02 5.697684e-01 7.255201e-18)	(2.659677e-02 3.626427e-04 -6.558586e-19)
160           	(4.312000e-02 5.701252e-01 6.599348e-18)	(1.652331e-02 5.697626e-01 7.255206e-18)	(2.659669e-02 3.626388e-04 -6.558576e-19)
161           	(4.312004e-02 5.701199e-01 6.599345e-18)	(1.652327e-02 5.697572e-01 7.255198e-18)	(2.659677e-02 3.626376e-04 -6.558524e-19)
162           	(4.311994e-02 5.701147e-01 6.599345e-18)	(1.652323e-02 5.697521e-01 7.255204e-18)	(2.659671e-02 3.626336e-04 -6.558588e-19)
163           	(4.311996e-02 5.701102e-01 6.599344e-18)	(1.652318e-02 5.697475e-01 7.255197e-18)	(2.659678e-02 3.626335e-04 -6.558532e-19)
164           	(4.311986e-02 5.701057e-01 6.599343e-18)	(1.652314e-02 5.697431e-01 7.255201e-18)	(2.659671e-02 3.626298e-04 -6.558581e-19)
165           	(4.311988e-02 5.701018e-01 6.599340e-18)	(1.652310e-02 5.697391e-01 7.255192e-18)	(2.659678e-02 3.626300e-04 -6.558525e-19)
166           	(4.311980e-02 5.700980e-01 6.599338e-18)	(1.652306e-02 5.697353e-01 7.255195e-18)	(2.659673e-02 3.626258e-04 -6.558570e-19)
167           	(4.311981e-02 5.700946e-01 6.599333e-18)	(1.652302e-02 5.697320e-01 7.255184e-18)	(2.659678e-02 3.626242e-04 -6.558513e-19)
168           	(4.311973e-02 5.700912e-01 6.599329e-18)	(1.652300e-02 5.697286e-01 7.255184e-18)	(2.659674e-02 3.626206e-04 -6.558555e-19)
169           	(4.311975e-02 5.700882e-01 6.599322e-18)	(1.652296e-02 5.697256e-01 7.255172e-18)	(2.659679e-02 3.626204e-04 -6.558501e-19)
170           	(4.311968e-02 5.700852e-01 6.599318e-18)	(1.652294e-02 5.697226e-01 7.255172e-18)	(2.659674e-02 3.626181e-04 -6.558547e-19)
171           	(4.311970e-02 5.700826e-01 6.599311e-18)	(1.652290e-02 5.697200e-01 7.255160e-18)	(2.659679e-02 3.626187e-04 -6.558497e-19)
172           	(4.311961e-02 5.700799e-01 6.599306e-18)	(1.652288e-02 5.697173e-01 7.255161e-18)	(2.659673e-02 3.626164e-04 -6.558547e-19)
173           	(4.311963e-02 5.700777e-01 6.599300e-18)	(1.652285e-02 5.697150e-01 7.255150e-18)	(2.659678e-02 3.626176e-04 -6.558491e-19)
174           	(4.311955e-02 5.700753e-01 6.599296e-18)	(1.652283e-02 5.697126e-01 7.255150e-18)	(2.659672e-02 3.626151e-04 -6.558542e-19)
175           	(4.311957e-02 5.700733e-01 6.599290e-18)	(1.652280e-02 5.697107e-01 7.255139e-18)	(2.659677e-02 3.626160e-04 -6.558488e-19)
176           	(4.311950e-02 5.700712e-01 6.599286e-18)	(1.652279e-02 5.697086e-01 7.255139e-18)	(2.659671e-02 3.626133e-04 -6.558536e-19)
177           	(4.311952e-02 5.700695e-01 6.599280e-18)	(1.652276e-02 5.697069e-01 7.255129e-18)	(2.659676e-02 3.626142e-04 -6.558485e-19)
178           	(4.311945e-02 5.700677e-01 6.599276e-18)	(1.652275e-02 5.697051e-01 7.255129e-18)	(2.659670e-02 3.626118e-04 -6.558530e-19)
179           	(4.311948e-02 5.700663e-01 6.599271e-18)	(1.652273e-02 5.697036e-01 7.255119e-18)	(2.659674e-02 3.626128e-04 -6.558482e-19)
180           	(4.311942e-02 5.700647e-01 6.599266e-18)	(1.652273e-02 5.697021e-01 7.255119e-18)	(2.659669e-02 3.626106e-04 -6.558525e-19)
181           	(4.311944e-02 5.700634e-01 6.599262e-18)	(1.652271e-02 5.697008e-01 7.255110e-18)	(2.659673e-02 3.626117e-04 -6.558481e-19)
182           	(4.311939e-02 5.700621e-01 6.599258e-18)	(1.652271e-02 5.696995e-01 7.255110e-18)	(2.659669e-02 3.626098e-04 -6.558522e-19)
183           	(4.311942e-02 5.700611e-01 6.599254e-18)	(1.652270e-02 5.696984e-01 7.255102e-18)	(2.659672e-02 3.626108e-04 -6.558481e-19)
184           	(4.311941e-02 5.700601e-01 6.599251e-18)	(1.652269e-02 5.696975e-01 7.255105e-18)	(2.659672e-02 3.626105e-04 -6.558534e-19)
185           	(4.311940e-02 5.700591e-01 6.599249e-18)	(1.652268e-02 5.696965e-01 7.255097e-18)	(2.659672e-02 3.626110e-04 -6.558480e-19)
186           	(4.311938e-02 5.700583e-01 6.599247e-18)	(1.652267e-02 5.696956e-01 7.255100e-18)	(2.659670e-02 3.626102e-04 -6.558529e-19)
187           	(4.311936e-02 5.700577e-01 6.599245e-18)	(1.652266e-02 5.696951e-01 7.255095e-18)	(2.659669e-02 3.626098e-04 -6.558497e-19)
188           	(4.311933e-02 5.700570e-01 6.599245e-18)	(1.652266e-02 5.696944e-01 7.255099e-18)	(2.659668e-02 3.626097e-04 -6.558531e-19)
189           	(4.311933e-02 5.700566e-01 6.599244e-18)	(1.652265e-02 5.696940e-01 7.255094e-18)	(2.659669e-02 3.626097e-04 -6.558500e-19)
190           	(4.311931e-02 5.700560e-01 6.599244e-18)	(1.652264e-02 5.696934e-01 7.255098e-18)	(2.659667e-02 3.626096e-04 -6.558532e-19)
191           	(4.311931e-02 5.700557e-01 6.599243e-18)	(1.652263e-02 5.696930e-01 7.255094e-18)	(2.659668e-02 3.626092e-04 -6.558508e-19)
192           	(4.311929e-02 5.700552e-01 6.599245e-18)	(1.652263e-02 5.696926e-01 7.255098e-18)	(2.659666e-02 3.626089e-04 -6.558532e-19)
193           	(4.311930e-02 5.700549e-01 6.599243e-18)	(1.652262e-02 5.696923e-01 7.255092e-18)	(2.659668e-02 3.626085e-04 -6.558496e-19)
194           	(4.311927e-02 5.700544e-01 6.599243e-18)	(1.652261e-02 5.696918e-01 7.255095e-18)	(2.659665e-02 3.626082e-04 -6.558527e-19)
195           	(4.311928e-02 5.700541e-01 6.599241e-18)	(1.652261e-02 5.696915e-01 7.255090e-18)	(2.659668e-02 3.626079e-04 -6.558495e-19)
196           	(4.311923e-02 5.700533e-01 6.599239e-18)	(1.652260e-02 5.696907e-01 7.255090e-18)	(2.659663e-02 3.626077e-04 -6.558508e-19)
197           	(4.311925e-02 5.700531e-01 6.599235e-18)	(1.652259e-02 5.696905e-01 7.255083e-18)	(2.659665e-02 3.626072e-04 -6.558478e-19)
198           	(4.311924e-02 5.700528e-01 6.599233e-18)	(1.652259e-02 5.696902e-01 7.255085e-18)	(2.659665e-02 3.626077e-04 -6.558514e-19)
199           	(4.311928e-02 5.700524e-01 6.599231e-18)	(1.652259e-02 5.696897e-01 7.255079e-18)	(2.659669e-02 3.626092e-04 -6.558478e-19)
200           	(4.311926e-02 5.700520e-01 6.599231e-18)	(1.652259e-02 5.696894e-01 7.255082e-18)	(2.659667e-02 3.626090e-04 -6.558515e-19)
201           	(4.311926e-02 5.700519e-01 6.599229e-18)	(1.652258e-02 5.696892e-01 7.255078e-18)	(2.659667e-02 3.626092e-04 -6.558486e-19)
202           	(4.311923e-02 5.700516e-01 6.599230e-18)	(1.652259e-02 5.696890e-01 7.255082e-18)	(2.659664e-02 3.626089e-04 -6.558517e-19)
203           	(4.311927e-02 5.700511e-01 6.599229e-18)	(1.652258e-02 5.696884e-01 7.255077e-18)	(2.659669e-02 3.626088e-04 -6.558478e-19)
204           	(4.311925e-02 5.700507e-01 6.599230e-18)	(1.652259e-02 5.696881e-01 7.255081e-18)	(2.659666e-02 3.626095e-04 -6.558515e-19)
205           	(4.311925e-02 5.700506e-01 6.599228e-18)	(1.652258e-02 5.696880e-01 7.255077e-18)	(2.659667e-02 3.626087e-04 -6.558484e-19)
206           	(4.311920e-02 5.700502e-01 6.599228e-18)	(1.652258e-02 5.696875e-01 7.255079e-18)	(2.659662e-02 3.626066e-04 -6.558505e-19)
207           	(4.311921e-02 5.700500e-01 6.599226e-18)	(1.652257e-02 5.696874e-01 7.255075e-18)	(2.659664e-02 3.626066e-04 -6.558488e-19)
208           	(4.311921e-02 5.700499e-01 6.599227e-18)	(1.652258e-02 5.696873e-01 7.255078e-18)	(2.659664e-02 3.626074e-04 -6.558509e-19)
209           	(4.311925e-02 5.700497e-01 6.599225e-18)	(1.652257e-02 5.696871e-01 7.255073e-18)	(2.659668e-02 3.626074e-04 -6.558479e-19)
210           	(4.311923e-02 5.700496e-01 6.599226e-18)	(1.652257e-02 5.696870e-01 7.255077e-18)	(2.659666e-02 3.626082e-04 -6.558513e-19)
211           	(4.311923e-02 5.700495e-01 6.599224e-18)	(1.652257e-02 5.696869e-01 7.255072e-18)	(2.659666e-02 3.626076e-04 -6.558474e-19)
212           	(4.311922e-02 5.700494e-01 6.599225e-18)	(1.652258e-02 5.696868e-01 7.255076e-18)	(2.659664e-02 3.626075e-04 -6.558511e-19)
213           	(4.311925e-02 5.700491e-01 6.599224e-18)	(1.652257e-02 5.696865e-01 7.255071e-18)	(2.659668e-02 3.626076e-04 -6.558472e-19)
214           	(4.311924e-02 5.700490e-01 6.599224e-18)	(1.652258e-02 5.696864e-01 7.255075e-18)	(2.659665e-02 3.626080e-04 -6.558509e-19)