/*--------------------------------*- C++ -*----------------------------------*\
| =========                 |                                                 |
| \\      /  F ield         | OpenFOAM: The Open Source CFD Toolbox           |
|  \\    /   O peration     | Version:  v1912                                 |
|   \\  /    A nd           | Website:  www.openfoam.com                      |
|    \\/     M anipulation  |                                                 |
\*---------------------------------------------------------------------------*/
FoamFile
{
    version     2.0;
    format      ascii;
    class       volScalarField;
    location    "275";
    object      p;
}
// * * * * * * * * * * * * * * * * * * * * * * * * * * * * * * * * * * * * * //

dimensions      [0 2 -2 0 0 0 0];


internalField   nonuniform List<scalar> 
2000
(
-0.0412587
0.0761525
0.130732
0.123843
0.108015
0.101707
0.1011
0.10245
0.102668
0.10244
0.102573
0.10225
0.101988
0.101931
0.101981
0.101932
0.101771
0.101672
0.101619
0.101578
0.101511
0.101381
0.101213
0.101046
0.100924
0.100859
0.10083
0.100791
0.100718
0.100605
0.100467
0.100335
0.10025
0.100252
0.100371
0.100661
0.101085
0.101597
0.102142
0.102638
0.102995
0.103117
0.102783
0.102017
0.100821
0.0991973
0.0969938
0.0947154
0.0923419
0.0901228
0.0883188
0.087119
0.0865811
0.0866186
0.0869937
0.0872968
0.0869939
0.0856064
0.0832109
0.081085
0.0811714
0.0851397
0.0938199
0.105736
0.119189
0.132697
0.145354
0.156745
0.166678
0.17495
0.181329
0.18551
0.187037
0.18525
0.179128
0.167527
0.148852
0.122525
0.0824137
0.0413566
0.0119854
0.0971626
0.135981
0.122786
0.105045
0.100844
0.104375
0.106806
0.104059
0.100834
0.100394
0.101686
0.102142
0.102012
0.102166
0.101969
0.101746
0.101578
0.101517
0.101493
0.101466
0.101365
0.101192
0.101022
0.100901
0.100842
0.100833
0.100839
0.100802
0.10067
0.100469
0.100243
0.100049
0.0999582
0.100042
0.100296
0.100783
0.101455
0.10224
0.103031
0.103724
0.10398
0.103933
0.103373
0.102157
0.10024
0.0976508
0.0945546
0.0911836
0.0879411
0.0853112
0.0836424
0.0829977
0.0831274
0.0833652
0.0827307
0.0803845
0.0760504
0.0706076
0.0681374
0.0722633
0.0817555
0.0937794
0.107004
0.12068
0.133819
0.145738
0.156139
0.164914
0.171959
0.177065
0.17983
0.179701
0.175986
0.167706
0.153821
0.13294
0.10486
0.0652035
0.0293581
0.0630498
0.0968483
0.11954
0.117983
0.108784
0.104607
0.10464
0.104002
0.102104
0.101446
0.103046
0.104599
0.103557
0.101046
0.100132
0.101001
0.101871
0.101979
0.101709
0.101486
0.101296
0.10111
0.101006
0.100965
0.100956
0.100991
0.101057
0.101103
0.101044
0.100884
0.100557
0.1001
0.0996106
0.0992209
0.099075
0.0992875
0.0998911
0.100915
0.102276
0.103794
0.105199
0.10643
0.10706
0.106882
0.105585
0.103021
0.0992012
0.0943651
0.0890316
0.0839925
0.0801045
0.0779538
0.0776163
0.0787401
0.0802578
0.0812301
0.0809345
0.0794532
0.0779234
0.0775029
0.0807497
0.0880601
0.0984169
0.110224
0.12226
0.133687
0.143948
0.152731
0.159888
0.165294
0.16873
0.169821
0.16804
0.162735
0.153106
0.13839
0.117607
0.0909969
0.0555759
0.0249042
0.0880344
0.0980482
0.110598
0.114677
0.111983
0.108963
0.107301
0.105571
0.103956
0.103151
0.10296
0.102836
0.102475
0.101749
0.101207
0.102128
0.103308
0.10247
0.101147
0.100523
0.100301
0.100469
0.100764
0.100992
0.101181
0.101394
0.101621
0.101806
0.101792
0.10151
0.100922
0.100041
0.0989965
0.0980111
0.0973876
0.0974394
0.0981637
0.0997088
0.102081
0.10497
0.107935
0.110451
0.111903
0.11237
0.110892
0.107257
0.101538
0.0942122
0.0862025
0.0787928
0.0732714
0.0704677
0.0702666
0.0724328
0.0759476
0.0793826
0.08176
0.0828541
0.0833355
0.0844476
0.087787
0.0941064
0.102885
0.112892
0.123063
0.1327
0.14131
0.148549
0.154195
0.158075
0.159956
0.159498
0.156244
0.149661
0.139153
0.124206
0.104169
0.0794561
0.0480317
0.0206985
0.100373
0.103973
0.111493
0.115462
0.114332
0.112001
0.110619
0.10958
0.108279
0.10683
0.105473
0.10437
0.10363
0.102766
0.101768
0.101763
0.102276
0.102416
0.102093
0.101401
0.100828
0.100588
0.100641
0.100882
0.101196
0.101575
0.101974
0.102267
0.102422
0.102191
0.101398
0.100034
0.0982898
0.0965142
0.0951834
0.094792
0.0955649
0.097818
0.101322
0.105695
0.11031
0.11441
0.11739
0.11798
0.116162
0.111529
0.104161
0.0947379
0.0845053
0.0751092
0.0682491
0.0647986
0.0649749
0.0678083
0.0722826
0.0770408
0.0810671
0.0840567
0.0864619
0.0892251
0.0933464
0.0993289
0.106901
0.115295
0.123726
0.131613
0.138539
0.144195
0.148353
0.150811
0.151334
0.149617
0.145289
0.137936
0.127117
0.112479
0.0935572
0.0708133
0.042695
0.0180296
0.108812
0.110646
0.114599
0.116768
0.115951
0.114341
0.113379
0.112702
0.11174
0.110546
0.10941
0.108405
0.10737
0.106016
0.104605
0.103861
0.103685
0.103463
0.102727
0.101622
0.100796
0.100485
0.100575
0.100832
0.101145
0.101585
0.10219
0.102809
0.103148
0.102887
0.101808
0.0999421
0.0975948
0.0952447
0.0934923
0.0928757
0.0940518
0.0968443
0.101114
0.106411
0.111991
0.116938
0.120342
0.121238
0.119116
0.113793
0.105628
0.0955721
0.0850809
0.0758875
0.0694632
0.066556
0.0670407
0.0701372
0.0747727
0.0797708
0.0842932
0.0880791
0.0914132
0.0949066
0.0991753
0.104542
0.110885
0.117743
0.124565
0.130885
0.136348
0.140671
0.143616
0.144961
0.144472
0.141879
0.136874
0.129126
0.118283
0.104079
0.0861406
0.0649299
0.0390765
0.0163969
0.115621
0.116444
0.117681
0.118017
0.117228
0.11624
0.115577
0.115034
0.114363
0.1136
0.112865
0.112128
0.111244
0.110104
0.108899
0.108002
0.107427
0.106726
0.105602
0.104317
0.103336
0.102813
0.102631
0.102617
0.102718
0.102971
0.103349
0.103681
0.103723
0.103248
0.102103
0.100304
0.0981057
0.0959601
0.0945121
0.0942749
0.0956222
0.0985428
0.102803
0.107889
0.113075
0.117523
0.120404
0.120986
0.118822
0.113813
0.10633
0.0973079
0.0881139
0.080255
0.0749244
0.0726392
0.0732011
0.0759166
0.0798927
0.0842792
0.0884825
0.0922999
0.0958827
0.0995868
0.103773
0.108628
0.114075
0.119812
0.125438
0.130582
0.134934
0.138232
0.140244
0.140748
0.139521
0.136317
0.130868
0.122891
0.112089
0.0982465
0.08104
0.0609179
0.0365751
0.0153586
0.121497
0.121442
0.120526
0.119315
0.118489
0.117969
0.117488
0.117012
0.116563
0.116117
0.115653
0.115136
0.114512
0.113737
0.112892
0.11215
0.111541
0.110815
0.109816
0.108714
0.107786
0.107151
0.106762
0.106536
0.10644
0.106473
0.106584
0.106637
0.106445
0.105829
0.104681
0.10305
0.101187
0.0995024
0.0986032
0.098781
0.100285
0.103078
0.106889
0.111249
0.115537
0.119062
0.121157
0.121279
0.119129
0.114729
0.108492
0.101221
0.0939716
0.0878165
0.0835638
0.0815607
0.0816781
0.0834566
0.0863086
0.0896793
0.0931674
0.0966064
0.100046
0.103664
0.107644
0.112068
0.116854
0.121773
0.126519
0.130782
0.134291
0.136805
0.138102
0.137968
0.136185
0.132525
0.126745
0.118596
0.10782
0.0942328
0.0775447
0.0581836
0.0348856
0.0146532
0.126901
0.12591
0.122945
0.1204
0.119641
0.119548
0.11921
0.118795
0.118523
0.118294
0.11801
0.117665
0.117249
0.116737
0.116158
0.115614
0.115131
0.114568
0.113821
0.11298
0.112227
0.111668
0.111295
0.111058
0.110925
0.110873
0.110856
0.110771
0.110481
0.109863
0.108863
0.107556
0.106163
0.105034
0.104394
0.104705
0.106047
0.108351
0.111399
0.114818
0.118125
0.120789
0.122314
0.122307
0.120565
0.117121
0.112285
0.106626
0.100888
0.095834
0.0920686
0.0899057
0.0893422
0.0901386
0.0919421
0.0943964
0.0972207
0.100263
0.103499
0.106983
0.110778
0.114886
0.11921
0.123555
0.127668
0.131287
0.134167
0.136086
0.136832
0.136198
0.133977
0.129953
0.123901
0.1156
0.104822
0.0914123
0.0750978
0.0562819
0.0337343
0.0141208
0.13213
0.129942
0.124746
0.1211
0.120633
0.120955
0.120721
0.120391
0.120297
0.120254
0.120116
0.119903
0.119633
0.119287
0.118883
0.11849
0.118131
0.117712
0.117159
0.116531
0.11596
0.115535
0.115257
0.115085
0.114987
0.114936
0.114891
0.114772
0.114483
0.113943
0.113129
0.11211
0.111054
0.110202
0.109777
0.110093
0.111217
0.113088
0.115533
0.11826
0.120885
0.122992
0.124191
0.124175
0.122777
0.120013
0.116107
0.111479
0.106678
0.102281
0.0987686
0.0964329
0.0953518
0.0954307
0.0964743
0.0982586
0.100583
0.103308
0.106362
0.109724
0.113374
0.117259
0.121263
0.125205
0.128864
0.132007
0.134411
0.135868
0.136179
0.135144
0.132565
0.128235
0.121948
0.113506
0.102711
0.0894271
0.0733919
0.0549812
0.0329701
0.0137302
0.137368
0.133517
0.125823
0.12143
0.121518
0.122205
0.122027
0.121806
0.121899
0.122024
0.122018
0.121924
0.121775
0.121554
0.121275
0.120991
0.120718
0.120395
0.119971
0.119491
0.119056
0.118736
0.118533
0.118417
0.118357
0.118325
0.118285
0.118173
0.117916
0.117458
0.116788
0.115969
0.115132
0.114465
0.114172
0.114463
0.11541
0.116963
0.118982
0.121229
0.123395
0.125139
0.12614
0.126143
0.125005
0.122728
0.119474
0.115557
0.111394
0.107436
0.104079
0.101599
0.10013
0.0996743
0.100149
0.101425
0.103363
0.105838
0.108751
0.112025
0.115583
0.119325
0.123115
0.126775
0.130101
0.132883
0.134915
0.136005
0.135962
0.134598
0.131718
0.127127
0.120635
0.112064
0.101243
0.0880579
0.0722425
0.0541468
0.0324925
0.0134937
0.142734
0.136564
0.126148
0.121486
0.122349
0.123307
0.123151
0.123067
0.123343
0.123611
0.123723
0.123742
0.123702
0.123592
0.12342
0.123226
0.123026
0.122777
0.122447
0.122071
0.121731
0.121481
0.121329
0.121249
0.121214
0.121198
0.121167
0.121067
0.120842
0.120447
0.119882
0.119198
0.118509
0.117971
0.117754
0.118015
0.118824
0.120149
0.12187
0.123793
0.125659
0.127179
0.128078
0.128133
0.127211
0.125298
0.122511
0.119088
0.115359
0.111689
0.108417
0.105809
0.104029
0.103152
0.103176
0.104048
0.105678
0.107958
0.11077
0.113993
0.117502
0.12116
0.124807
0.128266
0.131344
0.133846
0.135585
0.136378
0.136048
0.13441
0.131279
0.126468
0.119799
0.111118
0.100274
0.0871783
0.0715471
0.0537093
0.0322521
0.0134453
0.148306
0.138977
0.125755
0.12139
0.123149
0.12426
0.12412
0.1242
0.124644
0.125032
0.125247
0.125368
0.125428
0.125416
0.125339
0.125228
0.125097
0.124917
0.124666
0.124374
0.124108
0.123914
0.123801
0.123748
0.123733
0.123731
0.123709
0.123623
0.123425
0.123084
0.122596
0.122012
0.121428
0.120977
0.1208
0.121027
0.121724
0.122871
0.124372
0.126063
0.127721
0.129097
0.129946
0.130066
0.129329
0.127704
0.125273
0.122221
0.118811
0.115346
0.11212
0.109386
0.107334
0.106091
0.105726
0.106251
0.107623
0.109745
0.112485
0.115687
0.119182
0.122797
0.126353
0.129669
0.132559
0.134842
0.136345
0.136896
0.136328
0.134466
0.131129
0.126138
0.119327
0.110561
0.0997094
0.086702
0.0712341
0.0536181
0.0322219
0.0136074
0.154125
0.140639
0.124742
0.121257
0.123914
0.125067
0.124966
0.125226
0.125817
0.126303
0.12661
0.126823
0.126971
0.127045
0.127051
0.127015
0.126949
0.126833
0.126652
0.126433
0.12623
0.126086
0.126008
0.125981
0.125985
0.125997
0.125987
0.125917
0.125749
0.125453
0.125029
0.124522
0.124014
0.123618
0.123457
0.123645
0.124244
0.125246
0.126575
0.128091
0.129603
0.130888
0.131724
0.131921
0.131351
0.129969
0.127826
0.125062
0.121892
0.118567
0.115349
0.112479
0.110169
0.10859
0.107874
0.10809
0.109237
0.111231
0.113925
0.117128
0.120633
0.124233
0.127733
0.130944
0.133689
0.135797
0.137108
0.137463
0.136704
0.134662
0.131164
0.126038
0.119125
0.110306
0.0994672
0.0865535
0.0712349
0.0538189
0.0323795
0.0139661
0.160198
0.141441
0.123255
0.121178
0.124627
0.125741
0.125716
0.12616
0.126873
0.127442
0.127832
0.128126
0.128351
0.1285
0.128578
0.128609
0.128603
0.128544
0.128424
0.128268
0.128121
0.128021
0.127975
0.127973
0.127996
0.128023
0.128029
0.127978
0.127838
0.127583
0.127213
0.126766
0.126313
0.125954
0.125796
0.125941
0.126453
0.127332
0.128522
0.129905
0.131312
0.132543
0.13339
0.133671
0.133253
0.132079
0.130171
0.127637
0.124647
0.121416
0.118176
0.115161
0.112598
0.110703
0.109662
0.109599
0.110549
0.112439
0.115104
0.11832
0.121846
0.125446
0.128908
0.132041
0.134671
0.13664
0.137798
0.137997
0.137089
0.134914
0.131301
0.126085
0.119113
0.110275
0.0994689
0.0866537
0.0714726
0.0542454
0.0326907
0.0145156
0.166505
0.141308
0.121469
0.121202
0.125265
0.1263
0.126393
0.127011
0.127824
0.128464
0.128928
0.129295
0.129588
0.129802
0.129944
0.130034
0.130081
0.130073
0.130007
0.129905
0.129807
0.129746
0.129729
0.129749
0.129791
0.129834
0.129855
0.129824
0.129712
0.129495
0.12917
0.128771
0.12836
0.128023
0.127859
0.127961
0.128392
0.129166
0.130241
0.131519
0.13285
0.134051
0.134923
0.135288
0.135008
0.134009
0.132294
0.129938
0.127079
0.123899
0.120609
0.117436
0.114628
0.112439
0.111103
0.110795
0.111577
0.113381
0.116025
0.119257
0.122803
0.126407
0.129841
0.132913
0.135454
0.137315
0.138356
0.13844
0.137425
0.135159
0.131477
0.126213
0.11922
0.110393
0.0996378
0.0869228
0.0718679
0.0548243
0.0331283
0.0151874
0.172995
0.140229
0.119566
0.121339
0.125806
0.126769
0.127014
0.127786
0.128678
0.129381
0.129913
0.130344
0.130697
0.130968
0.131166
0.131309
0.131403
0.131441
0.131422
0.131367
0.13131
0.131282
0.131291
0.131331
0.131389
0.131448
0.131484
0.131471
0.131384
0.131199
0.130912
0.130551
0.13017
0.129844
0.129665
0.12972
0.130076
0.130756
0.131733
0.132925
0.134199
0.135382
0.136284
0.136725
0.136559
0.135701
0.134132
0.131902
0.129124
0.125955
0.122592
0.119263
0.116234
0.11379
0.11221
0.111701
0.112347
0.11408
0.116705
0.119945
0.123505
0.127108
0.13052
0.133545
0.13602
0.137802
0.138761
0.138767
0.137685
0.135368
0.131652
0.126377
0.119394
0.110601
0.0999062
0.0872903
0.0723501
0.0554867
0.0336463
0.0159246
0.179583
0.138226
0.117704
0.121571
0.126245
0.127171
0.127587
0.128487
0.129442
0.130202
0.130793
0.13128
0.131683
0.132004
0.13225
0.132437
0.132572
0.132649
0.13267
0.132653
0.132631
0.13263
0.132659
0.132715
0.132786
0.132856
0.132903
0.132904
0.132838
0.132676
0.132415
0.13208
0.131714
0.131387
0.131184
0.131189
0.131473
0.132069
0.132962
0.134083
0.135311
0.136482
0.137408
0.137906
0.137826
0.137066
0.135594
0.133441
0.130701
0.127517
0.124079
0.120618
0.117414
0.114779
0.113015
0.112356
0.112897
0.114573
0.117176
0.120414
0.123976
0.127574
0.130966
0.133958
0.136388
0.138119
0.139026
0.138987
0.13787
0.135531
0.131811
0.126549
0.119595
0.110849
0.100222
0.0877011
0.0728583
0.0561763
0.0342057
0.0166811
0.186177
0.135397
0.115995
0.121855
0.126585
0.127521
0.128108
0.129107
0.13011
0.130915
0.131554
0.132085
0.132528
0.132886
0.133169
0.133391
0.133557
0.133664
0.133714
0.133726
0.133729
0.133746
0.133788
0.133853
0.13393
0.134005
0.134058
0.134065
0.134012
0.133855
0.133609
0.133285
0.132921
0.132582
0.132349
0.132308
0.13253
0.133056
0.133882
0.134948
0.136141
0.137301
0.138241
0.138777
0.138749
0.13805
0.136634
0.134521
0.131794
0.12859
0.125094
0.121541
0.11822
0.115458
0.113573
0.11281
0.113275
0.114903
0.117481
0.120709
0.124264
0.127852
0.131229
0.134197
0.136599
0.138301
0.139182
0.139121
0.137992
0.135655
0.131949
0.126713
0.1198
0.111108
0.100548
0.0881173
0.0733666
0.0568493
0.0347768
0.0174225
0.192685
0.131871
0.11451
0.122143
0.12683
0.127817
0.128553
0.129618
0.13065
0.131485
0.132156
0.132714
0.133182
0.133565
0.133872
0.134115
0.134301
0.134426
0.134495
0.134524
0.134541
0.134568
0.134616
0.134683
0.134761
0.134836
0.134889
0.1349
0.134837
0.134686
0.134444
0.13412
0.133751
0.133397
0.133139
0.13306
0.133237
0.133715
0.134495
0.135524
0.136692
0.137842
0.138789
0.139344
0.139346
0.138679
0.137292
0.135199
0.132477
0.129258
0.125727
0.122122
0.118735
0.1159
0.113943
0.113115
0.113526
0.115115
0.117666
0.120876
0.124419
0.127995
0.131359
0.134313
0.1367
0.138389
0.13926
0.139196
0.138071
0.135747
0.132065
0.126865
0.119995
0.111359
0.100863
0.0885143
0.0738474
0.0574809
0.0353385
0.0181268
0.199031
0.127807
0.113288
0.122397
0.126991
0.12804
0.12888
0.12998
0.131023
0.131874
0.132561
0.133134
0.133615
0.134011
0.13433
0.134585
0.134782
0.134916
0.134994
0.135032
0.135056
0.135086
0.135135
0.135202
0.135279
0.135351
0.135402
0.135408
0.135342
0.135192
0.134948
0.134621
0.134246
0.133881
0.133606
0.133505
0.133655
0.134105
0.134859
0.135865
0.137017
0.13816
0.139108
0.139672
0.139687
0.139037
0.137665
0.135582
0.132862
0.129637
0.126091
0.122463
0.119046
0.116175
0.114179
0.113311
0.113686
0.115242
0.117767
0.120957
0.124484
0.128049
0.131402
0.134348
0.13673
0.138416
0.139288
0.139232
0.138121
0.135818
0.132164
0.127
0.120174
0.11159
0.101155
0.0888827
0.0742895
0.0580582
0.0358758
0.0187839
0.205214
0.123473
0.112355
0.122589
0.127074
0.128172
0.129073
0.130185
0.131232
0.13209
0.132785
0.133364
0.133852
0.134254
0.134578
0.134839
0.13504
0.135179
0.135261
0.135303
0.13533
0.135362
0.135412
0.135478
0.135553
0.135623
0.135671
0.135675
0.135608
0.135455
0.135209
0.134879
0.1345
0.134129
0.133846
0.133734
0.133872
0.134308
0.135048
0.136043
0.137187
0.138325
0.139272
0.139838
0.13986
0.139217
0.137852
0.135776
0.13306
0.129835
0.126285
0.12265
0.119223
0.116338
0.114322
0.113432
0.113781
0.115311
0.117813
0.120984
0.124495
0.128049
0.131395
0.134337
0.136719
0.138409
0.13929
0.139246
0.138154
0.135874
0.132249
0.127119
0.120335
0.1118
0.101421
0.0892166
0.0746899
0.0585764
0.0363797
0.0193937
0.211377
0.119385
0.111721
0.122706
0.127091
0.12822
0.129152
0.13027
0.13132
0.132181
0.132879
0.133462
0.133952
0.134357
0.134685
0.134948
0.135151
0.135292
0.135376
0.135421
0.135449
0.135482
0.135531
0.135597
0.135671
0.135741
0.135787
0.13579
0.135723
0.135568
0.135321
0.134989
0.134607
0.134235
0.133948
0.133833
0.133966
0.134398
0.135132
0.136122
0.137262
0.138396
0.139341
0.139909
0.139935
0.139295
0.137935
0.135863
0.133151
0.12993
0.126382
0.122748
0.119319
0.116429
0.114405
0.1135
0.113831
0.115342
0.117824
0.120977
0.124476
0.12802
0.131361
0.134303
0.136688
0.138385
0.139278
0.13925
0.138177
0.13592
0.132323
0.127225
0.12048
0.111989
0.101662
0.0895201
0.0750552
0.0590435
0.0368529
0.0199735
0.217474
0.116179
0.111324
0.122755
0.127071
0.128214
0.129159
0.130285
0.131337
0.132201
0.132902
0.133486
0.133978
0.134384
0.134713
0.134978
0.135182
0.135324
0.135409
0.135454
0.135483
0.135517
0.135566
0.135632
0.135706
0.135775
0.135822
0.135825
0.135756
0.135602
0.135354
0.135021
0.134639
0.134265
0.133978
0.133863
0.133996
0.134426
0.13516
0.136148
0.137285
0.138419
0.139364
0.139934
0.139959
0.139324
0.137968
0.135901
0.133193
0.129975
0.126431
0.122798
0.11937
0.116478
0.114448
0.113533
0.11385
0.115345
0.117812
0.120951
0.12444
0.127978
0.131317
0.134261
0.136651
0.138358
0.139264
0.139253
0.138201
0.135968
0.132398
0.127331
0.12062
0.112171
0.10189
0.0898048
0.075397
0.059475
0.0373003
0.0205522
0.222201
0.114237
0.111099
0.122782
0.127049
0.128189
0.129143
0.130274
0.13133
0.132196
0.132897
0.133483
0.133975
0.134382
0.134711
0.134976
0.135181
0.135323
0.135408
0.135454
0.135483
0.135517
0.135568
0.135634
0.135709
0.135778
0.135825
0.135827
0.135758
0.135603
0.135354
0.135021
0.134639
0.134266
0.133979
0.133864
0.133998
0.134428
0.135162
0.13615
0.137288
0.138422
0.139368
0.139939
0.139967
0.139335
0.137983
0.135919
0.133215
0.130001
0.126459
0.122828
0.1194
0.116506
0.11447
0.113546
0.113851
0.115331
0.117786
0.120915
0.124397
0.127932
0.131272
0.134219
0.136616
0.138334
0.139253
0.139258
0.138224
0.136012
0.132465
0.127426
0.120747
0.112334
0.102094
0.0900563
0.0756956
0.0598516
0.0376838
0.0210964
)
;

boundaryField
{
    inlet
    {
        type            zeroGradient;
    }
    outlet
    {
        type            fixedValue;
        value           uniform 0;
    }
    fixedWalls
    {
        type            zeroGradient;
    }
    frontAndBack
    {
        type            empty;
    }
}


// ************************************************************************* //
