/*--------------------------------*- C++ -*----------------------------------*\
| =========                 |                                                 |
| \\      /  F ield         | OpenFOAM: The Open Source CFD Toolbox           |
|  \\    /   O peration     | Version:  v1912                                 |
|   \\  /    A nd           | Website:  www.openfoam.com                      |
|    \\/     M anipulation  |                                                 |
\*---------------------------------------------------------------------------*/
FoamFile
{
    version     2.0;
    format      ascii;
    class       volVectorField;
    location    "275";
    object      U;
}
// * * * * * * * * * * * * * * * * * * * * * * * * * * * * * * * * * * * * * //

dimensions      [0 1 -1 0 0 0 0];


internalField   nonuniform List<vector> 
2000
(
(0.84616 0.187395 0)
(0.515131 0.12409 0)
(0.223443 0.068443 0)
(0.0597998 0.0174437 6.19852e-20)
(-0.0045567 -0.0232172 1.26215e-17)
(-0.0642207 -0.0384545 1.09341e-17)
(-0.0776284 -0.0372325 0)
(-0.0716191 -0.016731 0)
(-0.0590633 0.0114995 0)
(-0.0420435 0.0252505 2.48204e-17)
(-0.0414194 0.0108886 -1.52134e-17)
(-0.0273454 -0.000798662 -1.42824e-17)
(-0.0164666 -0.0029744 0)
(-0.0197113 -0.00264336 0)
(-0.0206629 -0.00230672 -1.13513e-17)
(-0.0140363 -0.000821779 0)
(-0.00540186 0.000773358 1.02391e-17)
(-0.0025029 0.00407749 4.9623e-21)
(-0.00200963 0.00484167 9.94155e-18)
(-0.00144674 0.0027249 -4.90976e-18)
(0.000320048 -0.00037245 9.68488e-18)
(0.00427685 -0.00246477 0)
(0.00892046 -0.00321647 0)
(0.0132148 -0.00309447 -5.86308e-22)
(0.0162482 -0.00230661 0)
(0.0177352 -0.00111592 -4.60268e-18)
(0.0175502 0.000138599 0)
(0.0161303 0.0010575 4.60907e-18)
(0.0142932 0.00155254 0)
(0.0125783 0.00167514 0)
(0.011128 0.00152953 0)
(0.00993056 0.00124781 1.17631e-18)
(0.00898217 0.000916845 0)
(0.00833774 0.000576323 -5.97902e-19)
(0.00810438 0.000235864 2.00207e-14)
(0.00840373 -0.000130326 2.00502e-14)
(0.009252 -0.000529199 6.21674e-19)
(0.0105716 -0.00091419 -6.30832e-19)
(0.0122484 -0.00123745 0)
(0.0140805 -0.00144731 2.61291e-18)
(0.0157936 -0.00147803 0)
(0.0170013 -0.00126476 -2.70055e-18)
(0.0170861 -0.0008514 0)
(0.0155706 2.41906e-07 -5.56197e-18)
(0.012153 0.00129386 2.80347e-18)
(0.00670272 0.00280733 0)
(-0.000974981 0.00402772 0)
(-0.0108052 0.00478843 -2.76405e-18)
(-0.0222434 0.00511734 0)
(-0.0355271 0.00550328 2.60667e-18)
(-0.0509478 0.00680164 0)
(-0.0690977 0.0091609 5.07825e-18)
(-0.0903466 0.0117054 -5.01158e-18)
(-0.11472 0.0140905 4.96246e-18)
(-0.142683 0.0161364 -2.40237e-18)
(-0.174694 0.0160525 0)
(-0.20989 0.011728 2.27284e-18)
(-0.246045 0.00213075 -2.15731e-18)
(-0.279379 -0.0126533 -4.41849e-18)
(-0.304232 -0.0309493 3.95549e-18)
(-0.314687 -0.0479765 -4.15839e-18)
(-0.309269 -0.0587853 4.63845e-18)
(-0.295009 -0.0638337 -5.41862e-18)
(-0.271635 -0.0648843 6.4297e-18)
(-0.242046 -0.063488 5.13112e-20)
(-0.208035 -0.0604865 9.29745e-18)
(-0.170728 -0.0564582 0)
(-0.130515 -0.0517216 0)
(-0.087283 -0.0464683 8.62042e-20)
(-0.0410071 -0.0408388 0)
(0.00796386 -0.0348507 2.03205e-17)
(0.0599732 -0.0281478 0)
(0.117245 -0.0203709 1.9568e-17)
(0.178843 -0.0111474 -4.86897e-19)
(0.244448 -0.000429038 1.68198e-17)
(0.315758 0.0115955 2.93176e-17)
(0.389071 0.0245635 7.22712e-19)
(0.477742 0.0380695 -1.00293e-17)
(0.54454 0.050244 -6.46594e-18)
(0.705805 0.0610523 0)
(1.0153 0.210385 0)
(0.944632 0.194215 0)
(0.80447 0.179989 -3.66515e-18)
(0.65441 0.15232 7.57919e-18)
(0.509207 0.111176 0)
(0.360012 0.0683807 -7.64639e-18)
(0.216469 0.02934 0)
(0.0821081 -0.0052728 0)
(-0.0282758 -0.0180791 0)
(-0.0563093 -0.0189669 -1.81562e-17)
(-0.0668763 -0.0247176 1.65155e-17)
(-0.0719437 -0.0155086 1.5147e-17)
(-0.0639815 0.00653623 0)
(-0.0520282 0.0196035 6.62259e-18)
(-0.0563267 0.00775237 0)
(-0.0512444 -0.00557641 0)
(-0.0417548 -0.00709305 0)
(-0.0372521 -0.00411794 5.47997e-18)
(-0.0404551 -0.00191273 -1.07741e-17)
(-0.0420421 -0.00188948 -5.30455e-18)
(-0.042147 -0.00330888 0)
(-0.039908 -0.00547786 0)
(-0.0358578 -0.00664073 0)
(-0.030807 -0.00600257 -7.70282e-18)
(-0.025459 -0.00384482 0)
(-0.0205806 -0.00115193 5.17985e-18)
(-0.0162199 0.00118609 2.60776e-18)
(-0.0129597 0.00260704 0)
(-0.0110661 0.00300614 0)
(-0.010337 0.00293375 0)
(-0.0105459 0.00276588 0)
(-0.0114246 0.00253519 -6.64765e-19)
(-0.0127332 0.00211521 0)
(-0.0141884 0.00135704 3.37692e-19)
(-0.0155344 0.000225634 1.69595e-19)
(-0.0165389 -0.00120308 0)
(-0.0169773 -0.00279435 0)
(-0.0168616 -0.00425813 7.09497e-19)
(-0.0163969 -0.00523901 0)
(-0.0159472 -0.00534825 -1.47982e-18)
(-0.0159866 -0.00428319 0)
(-0.0173646 -0.00193189 -1.55775e-18)
(-0.0204213 0.00183401 0)
(-0.0254701 0.00688188 1.49992e-18)
(-0.0330229 0.0128106 1.55696e-18)
(-0.0432055 0.0190363 0)
(-0.0557809 0.024753 0)
(-0.0702343 0.0296241 -2.80417e-18)
(-0.0856253 0.0336601 0)
(-0.100638 0.0373037 -9.25358e-20)
(-0.113953 0.0407668 0)
(-0.124984 0.04391 0)
(-0.13356 0.0467678 0)
(-0.139363 0.0498676 0)
(-0.142201 0.0530953 5.24137e-18)
(-0.141917 0.0544811 0)
(-0.137364 0.0512195 -5.48024e-18)
(-0.127539 0.0412418 2.82624e-18)
(-0.11338 0.0246078 -2.7953e-18)
(-0.0887861 0.00426902 -5.96478e-18)
(-0.0461778 -0.0186237 6.58473e-18)
(-0.0194049 -0.0456884 -7.59844e-18)
(0.0109329 -0.066536 8.73156e-18)
(0.0444149 -0.0787555 0)
(0.0774088 -0.0839225 -1.59459e-17)
(0.111447 -0.0843014 -1.15009e-17)
(0.147279 -0.0820209 0)
(0.185194 -0.0785667 6.40338e-18)
(0.225518 -0.0747088 1.34847e-17)
(0.268614 -0.0706865 0)
(0.314788 -0.0663729 0)
(0.36414 -0.0613077 0)
(0.416566 -0.0549511 0)
(0.471937 -0.0468308 -1.32687e-17)
(0.530089 -0.0367766 5.79479e-18)
(0.591856 -0.024983 -1.14588e-17)
(0.655435 -0.0121974 9.92501e-18)
(0.728495 0.000668277 -3.4071e-18)
(0.7868 0.0108496 0)
(0.906113 0.0155326 0)
(0.978489 0.20154 0)
(0.978855 0.193012 -2.92762e-18)
(0.969154 0.205121 3.61577e-18)
(0.939079 0.208545 -3.19011e-18)
(0.878023 0.194622 3.0139e-18)
(0.785584 0.168736 2.97445e-18)
(0.669319 0.138095 0)
(0.540964 0.106032 0)
(0.408161 0.0750607 0)
(0.285842 0.0459179 7.20559e-18)
(0.173659 0.0179875 0)
(0.0720407 -0.00639806 0)
(-0.0211129 -0.0137168 0)
(-0.0461427 -0.00321923 -7.5343e-18)
(-0.0507327 -0.0113702 0)
(-0.0597728 -0.0177984 -6.32601e-18)
(-0.0618701 -0.0107199 0)
(-0.0535261 0.00869949 6.11254e-18)
(-0.0542626 0.0148073 2.98078e-18)
(-0.0601618 0.0097797 0)
(-0.0645678 0.00167657 -2.86671e-18)
(-0.0686241 -0.00607064 0)
(-0.0699697 -0.010595 0)
(-0.0689259 -0.0118608 5.53712e-18)
(-0.066201 -0.0109973 0)
(-0.0628571 -0.00897074 1.39284e-18)
(-0.0598328 -0.00635703 -4.19675e-18)
(-0.0578396 -0.0034522 0)
(-0.0571626 -0.00053296 0)
(-0.0576229 0.00196412 -7.07144e-19)
(-0.0592708 0.00394381 0)
(-0.0619278 0.00526246 -6.88275e-22)
(-0.0652322 0.00575274 0)
(-0.06871 0.00529967 6.99322e-19)
(-0.0718768 0.00390011 8.72427e-20)
(-0.0743209 0.001766 0)
(-0.0757487 -0.000589563 1.78961e-19)
(-0.0759452 -0.00283634 -3.66319e-19)
(-0.0750139 -0.0042443 -3.78221e-19)
(-0.0733756 -0.00409815 -7.85675e-19)
(-0.0717372 -0.00187552 8.17883e-19)
(-0.0706649 0.00262906 7.91825e-19)
(-0.0708454 0.00928339 0)
(-0.0730673 0.0175466 1.65228e-18)
(-0.0777086 0.0268092 -3.33692e-18)
(-0.0847573 0.0358364 0)
(-0.0936499 0.0432335 -1.57704e-18)
(-0.103221 0.0479901 2.9771e-18)
(-0.11158 0.0498853 0)
(-0.11631 0.0495313 -1.4669e-18)
(-0.115188 0.0479169 1.27681e-18)
(-0.106881 0.0458824 -1.28618e-18)
(-0.0907257 0.0437157 -1.352e-18)
(-0.0667783 0.0413715 0)
(-0.0357864 0.0387976 -3.43919e-18)
(0.00129735 0.0353038 -1.75759e-18)
(0.0435679 0.0292468 1.71057e-18)
(0.0890756 0.0179038 1.66717e-18)
(0.135949 -0.000400208 2.95211e-18)
(0.179976 -0.0238481 0)
(0.218951 -0.0474266 0)
(0.252497 -0.067267 0)
(0.282538 -0.0823209 -1.75238e-18)
(0.311733 -0.0926854 0)
(0.341843 -0.098614 4.14249e-18)
(0.373795 -0.100947 0)
(0.408052 -0.100906 -2.40085e-18)
(0.44474 -0.0996213 -5.16608e-18)
(0.48375 -0.0978294 0)
(0.524841 -0.0957862 -2.66662e-18)
(0.567698 -0.093322 2.69437e-18)
(0.611987 -0.0900116 0)
(0.657407 -0.0853849 0)
(0.703839 -0.0790981 0)
(0.751234 -0.0711536 -5.26071e-18)
(0.800219 -0.0619522 0)
(0.849876 -0.0525034 -1.84632e-18)
(0.905032 -0.0438545 3.29036e-18)
(0.94976 -0.0388138 0)
(1.03483 -0.0386218 3.89403e-19)
(0.970611 0.209119 0)
(0.963917 0.194771 1.60604e-18)
(0.966431 0.198524 0)
(0.977154 0.206423 1.76547e-18)
(0.982035 0.208906 -3.13806e-18)
(0.96829 0.204292 -1.40518e-18)
(0.930734 0.193752 0)
(0.870724 0.1779 0)
(0.791067 0.1566 0)
(0.695312 0.131358 1.41459e-18)
(0.589321 0.105448 1.44834e-18)
(0.479856 0.0807259 0)
(0.369041 0.05802 0)
(0.266525 0.0376504 0)
(0.179539 0.0185344 0)
(0.10027 0.00264251 6.7047e-18)
(0.0298168 -0.00969352 -3.54459e-18)
(-0.0303178 -0.00856602 0)
(-0.03318 0.00209049 -3.42727e-18)
(-0.0363722 0.00372707 1.68323e-18)
(-0.0386209 0.00185173 3.33314e-18)
(-0.0428647 -0.00231368 0)
(-0.0502736 -0.0061987 0)
(-0.0589407 -0.00804552 -3.17692e-18)
(-0.0659867 -0.00749288 0)
(-0.0702424 -0.00515353 -1.56391e-18)
(-0.0724515 -0.00180477 1.5648e-18)
(-0.0738525 0.00169067 0)
(-0.0752064 0.00471146 0)
(-0.0770006 0.00742936 7.79887e-19)
(-0.0794378 0.00971623 0)
(-0.0825201 0.011257 -7.69902e-19)
(-0.0860273 0.0116777 0)
(-0.0895335 0.0106605 -1.93649e-19)
(-0.0924274 0.00811129 -9.59542e-20)
(-0.0939357 0.00428466 -2.37648e-20)
(-0.0937766 -0.000329423 -2.94489e-19)
(-0.0916095 -0.00468901 4.04977e-19)
(-0.0870383 -0.00779905 4.19266e-19)
(-0.080331 -0.00872293 1.31786e-18)
(-0.0720704 -0.00667964 -4.49118e-19)
(-0.0631813 -0.00127261 4.64134e-19)
(-0.0546578 0.00713976 0)
(-0.0467804 0.0178288 1.06437e-18)
(-0.0399268 0.0292507 9.63967e-19)
(-0.0344889 0.0398431 0)
(-0.0299087 0.0476788 1.93712e-18)
(-0.0252068 0.0509507 9.33726e-19)
(-0.0190638 0.0485213 0)
(-0.00962992 0.0402914 -2.56992e-18)
(0.00542944 0.0270788 -1.71514e-18)
(0.0277083 0.0108486 9.06613e-19)
(0.05679 -0.00604784 1.61946e-18)
(0.0917031 -0.0219448 0)
(0.132664 -0.0357573 7.49997e-19)
(0.178686 -0.0473465 2.30798e-18)
(0.22856 -0.0574896 1.50364e-18)
(0.280559 -0.067432 -1.43697e-18)
(0.332338 -0.0779856 -7.21599e-19)
(0.381464 -0.0895509 0)
(0.426177 -0.101174 0)
(0.466059 -0.111635 0)
(0.502089 -0.119995 2.3588e-18)
(0.535864 -0.125922 8.71283e-19)
(0.568686 -0.129568 0)
(0.601372 -0.131372 -2.00515e-18)
(0.63441 -0.131877 2.16381e-18)
(0.668013 -0.131545 -2.22321e-18)
(0.702119 -0.130619 -2.30377e-18)
(0.736472 -0.12907 1.10963e-19)
(0.770752 -0.126657 -2.53193e-18)
(0.804712 -0.123037 0)
(0.83827 -0.117925 0)
(0.871595 -0.111224 0)
(0.904975 -0.103148 0)
(0.939165 -0.0942214 0)
(0.973813 -0.0854347 3.58629e-18)
(1.01226 -0.0776502 -1.31568e-18)
(1.04376 -0.0733025 0)
(1.10203 -0.0717886 -4.17816e-19)
(0.972988 0.216083 0)
(0.965832 0.201814 1.9624e-18)
(0.959207 0.19561 2.60087e-19)
(0.961491 0.195561 1.98884e-18)
(0.972672 0.197557 0)
(0.985525 0.199263 -1.67912e-18)
(0.992501 0.199329 0)
(0.988449 0.196293 -3.78571e-19)
(0.970196 0.189079 0)
(0.935583 0.177624 -1.68085e-18)
(0.884647 0.162832 -1.30196e-18)
(0.819487 0.145757 -3.29976e-19)
(0.743109 0.126809 3.27638e-19)
(0.657787 0.106171 0)
(0.568787 0.085345 3.27849e-19)
(0.478923 0.0663282 0)
(0.392987 0.0503803 2.77781e-18)
(0.313613 0.0365324 -3.67164e-19)
(0.246737 0.024614 0)
(0.192287 0.0151868 -1.97769e-18)
(0.147966 0.00834063 0)
(0.110815 0.00382175 0)
(0.0795763 0.00119191 0)
(0.0526008 -0.000755793 0)
(0.0301177 -0.0025847 -2.31053e-19)
(0.01243 -0.00391946 0)
(-0.00107304 -0.00391204 0)
(-0.00881321 -0.00183687 1.21412e-19)
(-0.0116393 0.00146364 0)
(-0.012045 0.00534306 0)
(-0.0111584 0.00902221 0)
(-0.00985189 0.0115616 -5.93896e-20)
(-0.00870307 0.0123506 0)
(-0.00746524 0.0110961 -2.64923e-19)
(-0.00575696 0.00755827 0)
(-0.00338907 0.00175535 3.02123e-20)
(0.000714463 -0.00556146 1.52587e-19)
(0.0066109 -0.0126683 3.07771e-20)
(0.0138866 -0.018482 -6.38178e-20)
(0.0227843 -0.0218631 -5.30394e-19)
(0.0337587 -0.0217259 -5.49699e-19)
(0.0472593 -0.0173942 5.67714e-19)
(0.0634686 -0.00871927 -1.49971e-19)
(0.0813976 0.00338074 -1.15295e-18)
(0.100891 0.0166831 1.11822e-18)
(0.122156 0.0290342 -1.35564e-19)
(0.145341 0.0382182 0)
(0.170901 0.0421975 -8.80454e-19)
(0.199652 0.0395739 0)
(0.232249 0.0297085 7.03291e-19)
(0.268176 0.0132548 0)
(0.306277 -0.0078273 5.86692e-19)
(0.347105 -0.0305225 0)
(0.389809 -0.0518558 -1.39099e-19)
(0.433411 -0.0702192 -5.78284e-19)
(0.477339 -0.0852237 -5.95189e-19)
(0.521008 -0.0973431 1.54337e-19)
(0.563641 -0.107564 0)
(0.604318 -0.116881 6.14087e-19)
(0.642093 -0.125899 -1.64808e-19)
(0.676281 -0.134532 0)
(0.706773 -0.142208 1.80555e-19)
(0.734069 -0.148346 -7.43559e-19)
(0.759001 -0.152707 -8.11934e-19)
(0.782369 -0.155365 0)
(0.804757 -0.156559 1.91158e-18)
(0.826523 -0.156574 0)
(0.847827 -0.155661 2.17024e-18)
(0.868667 -0.153952 2.2778e-18)
(0.888964 -0.151421 2.3672e-18)
(0.908678 -0.147923 2.89291e-19)
(0.927907 -0.143286 0)
(0.946923 -0.137417 0)
(0.966197 -0.130397 0)
(0.986232 -0.122532 -2.67499e-19)
(1.00781 -0.114336 0)
(1.03072 -0.106624 -1.62868e-18)
(1.05751 -0.100096 1.60546e-18)
(1.07974 -0.0964376 1.0134e-19)
(1.12277 -0.0951247 4.4097e-20)
(0.974194 0.218516 -1.28641e-18)
(0.970935 0.206369 1.24445e-18)
(0.96512 0.198181 -2.94311e-19)
(0.96114 0.194125 0)
(0.962201 0.191961 0)
(0.968267 0.190569 0)
(0.977782 0.189918 0)
(0.988515 0.189526 1.30681e-18)
(0.997444 0.188366 0)
(1.00094 0.185435 -1.16804e-18)
(0.995767 0.180055 -1.45713e-18)
(0.979813 0.172027 3.34745e-19)
(0.95261 0.161578 1.0091e-18)
(0.914206 0.148805 0)
(0.865427 0.133913 -1.54217e-18)
(0.807918 0.118035 0)
(0.745617 0.102688 -1.232e-18)
(0.683068 0.0882325 3.08365e-19)
(0.622239 0.0746782 -1.28634e-18)
(0.565244 0.0623924 -9.887e-19)
(0.512917 0.0515503 0)
(0.465504 0.0421715 0)
(0.423117 0.0341566 -7.09344e-19)
(0.385701 0.0273543 0)
(0.353054 0.0215538 -5.65034e-19)
(0.324668 0.0165834 0)
(0.299904 0.012346 0)
(0.278457 0.00890896 -1.01211e-19)
(0.260595 0.00667644 0)
(0.246899 0.00594241 0)
(0.238032 0.00650262 0)
(0.234213 0.00753831 5.18411e-20)
(0.234839 0.00796983 2.04181e-19)
(0.238851 0.00682594 1.25498e-19)
(0.245388 0.00324078 0)
(0.253297 -0.00288443 0)
(0.261868 -0.0105615 -2.48111e-20)
(0.270402 -0.0185342 -1.27251e-19)
(0.278096 -0.025821 5.26669e-20)
(0.284706 -0.0314555 0)
(0.290582 -0.0345711 0)
(0.296729 -0.0345763 -2.48229e-19)
(0.304676 -0.0313394 1.27128e-19)
(0.316028 -0.0252607 -5.21843e-19)
(0.332529 -0.017038 5.11749e-19)
(0.355369 -0.00863683 1.19652e-19)
(0.384712 -0.00274897 0)
(0.419938 -0.00194622 3.94547e-19)
(0.460004 -0.00803125 0)
(0.503363 -0.0211234 0)
(0.547951 -0.0395929 0)
(0.591924 -0.0607833 0)
(0.634152 -0.0820947 0)
(0.673805 -0.101505 1.19929e-19)
(0.710487 -0.117675 0)
(0.744221 -0.130165 5.58025e-19)
(0.775138 -0.139406 -1.40051e-19)
(0.803268 -0.146303 0)
(0.8285 -0.151815 6.36892e-19)
(0.850632 -0.156618 1.57523e-19)
(0.869533 -0.160937 7.00009e-19)
(0.885318 -0.164633 -1.77793e-19)
(0.898399 -0.167454 0)
(0.909392 -0.169244 -8.53101e-19)
(0.918937 -0.170002 0)
(0.927562 -0.169821 0)
(0.935651 -0.168831 -1.03512e-18)
(0.943462 -0.167139 0)
(0.951174 -0.164791 0)
(0.958946 -0.16175 -1.17765e-18)
(0.966993 -0.157932 -3.13848e-19)
(0.975626 -0.153264 0)
(0.985257 -0.147748 0)
(0.996389 -0.14151 0)
(1.00946 -0.134822 2.9806e-19)
(1.02506 -0.128093 -1.02e-18)
(1.04283 -0.121921 -2.34722e-19)
(1.06485 -0.116822 -1.83816e-19)
(1.0834 -0.113908 -1.14667e-19)
(1.12099 -0.112869 -2.3509e-19)
(0.974501 0.219012 4.53845e-18)
(0.973757 0.20804 -4.35677e-18)
(0.971715 0.200433 0)
(0.969161 0.196223 -2.6419e-18)
(0.967057 0.192955 0)
(0.966171 0.189335 -2.33063e-18)
(0.967429 0.185849 0)
(0.971684 0.18305 3.10371e-18)
(0.978999 0.180786 -3.85526e-18)
(0.988312 0.178559 1.76256e-18)
(0.997728 0.175873 1.64823e-18)
(1.00502 0.17228 0)
(1.00816 0.167426 -4.45513e-18)
(1.00549 0.160891 -2.8363e-18)
(0.99561 0.15233 3.98906e-18)
(0.977763 0.142047 0)
(0.952946 0.130918 1.22285e-18)
(0.923589 0.119685 0)
(0.891492 0.108497 1.21676e-18)
(0.857957 0.0973047 1.21462e-18)
(0.824017 0.0863032 0)
(0.790641 0.0757995 0)
(0.75869 0.0660398 -6.63537e-19)
(0.728822 0.0571278 0)
(0.701387 0.0490442 6.4661e-19)
(0.676467 0.0417845 0)
(0.654059 0.0354139 0)
(0.634212 0.0299949 0)
(0.617109 0.0254858 0)
(0.603063 0.0216595 0)
(0.592505 0.0181004 0)
(0.585855 0.0142949 0)
(0.583267 0.00976167 1.77666e-19)
(0.584572 0.00410469 -8.42543e-20)
(0.589344 -0.00285498 4.26201e-20)
(0.596271 -0.0107529 0)
(0.604374 -0.0187853 0)
(0.612805 -0.0262474 8.50006e-20)
(0.620901 -0.032407 -3.64821e-19)
(0.628351 -0.0366191 3.81969e-19)
(0.635214 -0.0385196 0)
(0.641911 -0.0381297 1.04161e-18)
(0.649184 -0.0359079 -8.59779e-19)
(0.657999 -0.0327402 -4.34948e-19)
(0.669547 -0.029762 -4.29707e-19)
(0.685095 -0.0283088 0)
(0.705543 -0.0297927 0)
(0.730931 -0.0354325 -1.05452e-18)
(0.760228 -0.0458651 0)
(0.791511 -0.0607637 0)
(0.822576 -0.0787859 0)
(0.851553 -0.0979219 5.19839e-19)
(0.877227 -0.116153 1.03533e-18)
(0.899044 -0.131906 0)
(0.916993 -0.144289 0)
(0.931466 -0.153205 -5.51721e-19)
(0.943017 -0.159199 0)
(0.952137 -0.163131 1.30415e-18)
(0.959152 -0.165859 7.17842e-19)
(0.96424 -0.168004 0)
(0.967531 -0.169851 8.01351e-19)
(0.969221 -0.1714 1.64324e-18)
(0.969642 -0.172516 1.7586e-18)
(0.969235 -0.173073 9.26545e-19)
(0.96847 -0.173025 -2.01601e-18)
(0.967763 -0.172394 2.14803e-18)
(0.967445 -0.17123 3.42175e-18)
(0.967775 -0.169575 0)
(0.968974 -0.167443 0)
(0.971258 -0.164812 1.32236e-18)
(0.974874 -0.161639 0)
(0.980117 -0.157892 2.66142e-18)
(0.987313 -0.153586 2.64132e-18)
(0.99681 -0.148812 0)
(1.00884 -0.143762 2.42462e-18)
(1.02376 -0.138725 -1.04539e-18)
(1.04102 -0.134141 0)
(1.06247 -0.130365 0)
(1.08056 -0.128234 0)
(1.11713 -0.127464 -1.87907e-19)
(0.974733 0.218939 -3.49349e-18)
(0.975458 0.208206 3.34385e-18)
(0.976058 0.201066 -6.4881e-18)
(0.975939 0.197378 2.98799e-18)
(0.974879 0.194476 0)
(0.973206 0.190807 2.63586e-18)
(0.971496 0.186613 -5.0432e-18)
(0.970486 0.182377 -4.6795e-18)
(0.971013 0.17818 -7.90274e-20)
(0.973734 0.174018 0)
(0.978852 0.169958 0)
(0.986034 0.165974 3.74544e-18)
(0.994463 0.161835 3.43185e-18)
(1.00297 0.157125 -3.40822e-18)
(1.01012 0.15145 -9.26729e-18)
(1.01446 0.144716 0)
(1.01511 0.137222 0)
(1.0121 0.129256 0)
(1.00592 0.12078 0)
(0.997028 0.111753 0)
(0.985903 0.102373 0)
(0.973157 0.0929467 0)
(0.959464 0.0837213 1.28723e-18)
(0.945443 0.074829 -2.68578e-18)
(0.931576 0.0663381 0)
(0.91822 0.0583334 0)
(0.905682 0.0509141 0)
(0.894275 0.0441185 0)
(0.884334 0.0378634 0)
(0.876203 0.0319357 -6.91335e-19)
(0.870204 0.0259977 0)
(0.866546 0.0196472 0)
(0.865224 0.0125201 1.33748e-20)
(0.86598 0.00436684 0)
(0.868109 -0.00461377 -3.97516e-20)
(0.870877 -0.0140364 0)
(0.873708 -0.0232644 1.69272e-19)
(0.876222 -0.0316032 0)
(0.878272 -0.0384097 7.04684e-19)
(0.879978 -0.0432312 -3.62782e-19)
(0.881733 -0.0459069 -7.79573e-19)
(0.884144 -0.0466136 -7.96523e-19)
(0.887936 -0.0458735 8.21139e-19)
(0.893824 -0.0445236 8.30989e-19)
(0.90238 -0.0436449 1.65676e-18)
(0.913906 -0.0444697 1.60996e-18)
(0.928268 -0.0482021 0)
(0.944777 -0.0556921 -7.54136e-19)
(0.962209 -0.0671158 0)
(0.97902 -0.0817903 0)
(0.993703 -0.0982926 -1.20793e-18)
(1.00516 -0.114868 -5.31048e-19)
(1.01288 -0.129924 1.11017e-19)
(1.01695 -0.142366 0)
(1.01786 -0.151728 0)
(1.01636 -0.15813 0)
(1.01323 -0.16213 1.4022e-18)
(1.00907 -0.164478 -1.42382e-18)
(1.0043 -0.165895 -1.51281e-18)
(0.99912 -0.166913 0)
(0.993646 -0.167816 -1.71674e-18)
(0.988002 -0.168662 5.17849e-20)
(0.982382 -0.169381 -1.97655e-18)
(0.977062 -0.16987 2.15793e-18)
(0.972353 -0.170061 -2.02019e-20)
(0.968549 -0.169927 -2.4339e-18)
(0.965897 -0.169464 -2.58233e-18)
(0.964602 -0.168675 0)
(0.964843 -0.16755 0)
(0.966791 -0.166063 0)
(0.970627 -0.164171 0)
(0.976545 -0.161839 -3.02268e-18)
(0.984736 -0.159056 -2.99737e-18)
(0.995382 -0.155866 0)
(1.00855 -0.152393 -2.74715e-18)
(1.02442 -0.14884 4.90084e-18)
(1.04236 -0.145551 0)
(1.06405 -0.142769 0)
(1.08226 -0.141266 0)
(1.11814 -0.140431 8.8827e-19)
(0.975035 0.218504 8.65524e-18)
(0.977128 0.20748 0)
(0.979624 0.200816 1.48451e-17)
(0.980945 0.197731 0)
(0.980752 0.195194 6.46709e-18)
(0.979845 0.19184 0)
(0.978666 0.187932 5.69909e-18)
(0.977196 0.183697 0)
(0.975624 0.17904 -5.23838e-18)
(0.974468 0.173959 0)
(0.974313 0.16863 9.2413e-18)
(0.975642 0.163216 -4.28126e-18)
(0.978755 0.157753 0)
(0.983675 0.152141 7.60831e-18)
(0.990058 0.146233 -1.86209e-19)
(0.997249 0.139946 -6.94493e-18)
(1.00439 0.133415 6.72733e-18)
(1.01079 0.126714 0)
(1.01607 0.119683 0)
(1.01997 0.112207 6.30854e-18)
(1.02233 0.104352 0)
(1.02316 0.0962773 -3.0669e-18)
(1.02267 0.0881323 0)
(1.02113 0.0800201 2.91114e-18)
(1.01881 0.0720262 0)
(1.01598 0.0642436 3.01312e-18)
(1.01292 0.056757 0)
(1.00992 0.0495928 0)
(1.00729 0.0426814 1.50783e-18)
(1.00529 0.0358459 7.25237e-19)
(1.0041 0.0288143 0)
(1.00373 0.0212844 0)
(1.00401 0.0130212 -1.09724e-18)
(1.00461 0.00400303 0)
(1.00505 -0.00547573 0)
(1.00486 -0.0150068 0)
(1.00384 -0.024043 -1.77023e-19)
(1.00199 -0.0320133 0)
(0.999509 -0.0384745 -1.16321e-18)
(0.996809 -0.0431782 -8.12959e-19)
(0.994464 -0.0461326 8.22792e-19)
(0.99312 -0.0476249 0)
(0.993388 -0.0482134 0)
(0.995727 -0.0486833 1.79235e-18)
(1.00036 -0.0499585 -1.7583e-18)
(1.00716 -0.0529723 -1.71276e-18)
(1.01565 -0.0584946 0)
(1.02493 -0.0669145 -7.60299e-20)
(1.03383 -0.0780779 1.54949e-18)
(1.04111 -0.091257 0)
(1.04578 -0.105301 1.32256e-18)
(1.0473 -0.118927 1.4132e-18)
(1.04566 -0.13104 -1.31321e-18)
(1.0413 -0.140932 0)
(1.03491 -0.14836 0)
(1.02725 -0.153487 0)
(1.01902 -0.156777 -1.58383e-18)
(1.01071 -0.158823 0)
(1.00263 -0.160192 0)
(0.994925 -0.161313 0)
(0.987658 -0.162424 4.14322e-18)
(0.980901 -0.163592 -2.15523e-18)
(0.974773 -0.164772 0)
(0.96945 -0.165876 -2.46059e-18)
(0.965141 -0.166831 -2.66988e-18)
(0.962055 -0.167592 5.58682e-18)
(0.960374 -0.168134 -5.86526e-18)
(0.960252 -0.168437 -6.11524e-18)
(0.961822 -0.168478 0)
(0.965211 -0.168218 -6.48033e-18)
(0.970541 -0.167606 0)
(0.977937 -0.166591 0)
(0.987501 -0.165134 0)
(0.999316 -0.163238 6.23685e-18)
(1.01335 -0.160974 -5.85464e-18)
(1.0297 -0.158496 -8.00973e-18)
(1.04771 -0.156088 0)
(1.06898 -0.153933 3.51734e-18)
(1.08676 -0.152788 0)
(1.12099 -0.151622 -1.45129e-18)
(0.975434 0.217691 -9.8177e-18)
(0.979143 0.206094 -9.55064e-18)
(0.983425 0.200251 -1.70878e-17)
(0.985583 0.198006 0)
(0.985491 0.195693 -1.47021e-17)
(0.984794 0.192433 -7.00128e-18)
(0.984212 0.188752 0)
(0.98347 0.184753 1.24784e-17)
(0.982377 0.180238 1.16544e-17)
(0.981065 0.175153 0)
(0.979747 0.169591 -1.04513e-17)
(0.978666 0.163647 0)
(0.978138 0.157387 0)
(0.9785 0.150835 9.04977e-18)
(0.979976 0.143995 8.39275e-18)
(0.982633 0.1369 -1.81562e-19)
(0.986327 0.129759 1.83645e-19)
(0.990787 0.122714 0)
(0.995714 0.115654 0)
(1.00074 0.108445 -7.22858e-18)
(1.00552 0.101062 -7.31315e-18)
(1.00978 0.0935597 1.07192e-17)
(1.01343 0.0860078 3.57289e-18)
(1.01645 0.0784651 3.54603e-18)
(1.01888 0.0709847 0)
(1.0208 0.0636229 -3.40245e-18)
(1.02234 0.0564268 0)
(1.02365 0.0494008 0)
(1.0249 0.0424774 -3.4364e-18)
(1.02621 0.0355094 0)
(1.02762 0.0282943 0)
(1.02902 0.020632 0)
(1.03016 0.0124126 8.28902e-19)
(1.03074 0.00371832 -4.30105e-19)
(1.03046 -0.00528851 2.13964e-19)
(1.02906 -0.0142062 0)
(1.02653 -0.0225891 0)
(1.02303 -0.0300378 0)
(1.01892 -0.0362505 8.78847e-19)
(1.01469 -0.041084 9.10431e-19)
(1.01093 -0.0445972 -1.92766e-18)
(1.00825 -0.0470617 0)
(1.00714 -0.0489434 0)
(1.00793 -0.050856 -4.05229e-18)
(1.01068 -0.0534876 -2.0404e-18)
(1.01518 -0.0575027 0)
(1.02085 -0.0634234 0)
(1.02687 -0.0714879 1.83144e-18)
(1.03227 -0.0815452 8.79352e-20)
(1.03615 -0.0930386 0)
(1.03787 -0.105109 0)
(1.03717 -0.116796 -1.60844e-18)
(1.03421 -0.127264 0)
(1.02938 -0.135962 0)
(1.02324 -0.142684 0)
(1.01633 -0.147544 0)
(1.00911 -0.150893 0)
(1.00191 -0.153204 -4.06824e-18)
(0.994941 -0.154941 0)
(0.988339 -0.156474 0)
(0.982186 -0.158031 1.00543e-19)
(0.976575 -0.159697 0)
(0.97163 -0.161456 0)
(0.967515 -0.163244 0)
(0.964416 -0.164989 1.20659e-17)
(0.962515 -0.166631 -6.33247e-18)
(0.96197 -0.168124 6.64015e-18)
(0.962917 -0.169428 1.49432e-21)
(0.965466 -0.170499 0)
(0.969719 -0.171285 7.31165e-18)
(0.975768 -0.171724 -7.34162e-18)
(0.983695 -0.171744 0)
(0.993551 -0.171281 0)
(1.00536 -0.170302 -1.07228e-19)
(1.01904 -0.16884 6.60033e-18)
(1.03465 -0.16703 5.97526e-18)
(1.05162 -0.165123 0)
(1.0715 -0.163313 -3.98596e-18)
(1.08809 -0.162264 0)
(1.11995 -0.160677 1.09116e-18)
(0.975986 0.216475 0)
(0.981693 0.204218 2.19908e-17)
(0.987771 0.199653 1.95545e-17)
(0.990445 0.19842 0)
(0.990128 0.196249 8.35384e-18)
(0.98928 0.192992 -8.07591e-18)
(0.988785 0.189413 0)
(0.9883 0.185495 -1.41098e-17)
(0.987638 0.18104 0)
(0.986889 0.17605 0)
(0.98609 0.170582 0)
(0.985213 0.164665 0)
(0.984297 0.158309 0)
(0.983465 0.151517 1.8218e-19)
(0.982864 0.144299 -9.89032e-18)
(0.982642 0.136705 -1.81519e-19)
(0.982945 0.128989 1.83004e-19)
(0.983871 0.121378 0)
(0.985414 0.113841 0)
(0.987438 0.106296 0)
(0.989736 0.0987218 -2.0422e-19)
(0.99212 0.0911524 2.08505e-19)
(0.994468 0.0836342 -4.09141e-18)
(0.99671 0.0762011 -4.06173e-18)
(0.998808 0.0688775 0)
(1.00075 0.0616861 -4.13197e-18)
(1.00257 0.0546415 4.12135e-18)
(1.00433 0.0477277 0)
(1.0061 0.0408778 1.99806e-18)
(1.00791 0.033972 2.04772e-18)
(1.00971 0.0268618 0)
(1.01137 0.0194125 0)
(1.01264 0.0115689 1.01886e-18)
(1.01327 0.00338548 -1.68364e-20)
(1.01304 -0.00498878 -4.96779e-19)
(1.0118 -0.0132265 0)
(1.00954 -0.0209792 0)
(1.00646 -0.0279422 -1.04097e-18)
(1.00288 -0.0338989 0)
(0.999251 -0.0387643 -1.09219e-18)
(0.996066 -0.0426166 -4.28268e-20)
(0.993826 -0.0457004 0)
(0.992945 -0.0484068 2.33903e-18)
(0.993683 -0.0512344 4.69106e-18)
(0.996091 -0.0547293 2.32505e-18)
(0.999974 -0.0594061 0)
(1.00489 -0.0656514 -4.60662e-18)
(1.01019 -0.073619 0)
(1.01517 -0.0831545 -2.09785e-18)
(1.01913 -0.0937897 0)
(1.02161 -0.104825 0)
(1.0224 -0.11548 0)
(1.02152 -0.125067 0)
(1.01919 -0.133117 0)
(1.0157 -0.139443 -4.1865e-18)
(1.01135 -0.14413 4.32052e-18)
(1.00643 -0.147477 0)
(1.00117 -0.149901 4.61282e-18)
(0.995764 -0.151829 -4.96556e-18)
(0.990384 -0.153611 0)
(0.985191 -0.155474 -5.45461e-18)
(0.980348 -0.157515 0)
(0.976032 -0.159729 0)
(0.972433 -0.162057 0)
(0.969739 -0.164415 -6.8464e-18)
(0.968123 -0.166729 7.24136e-18)
(0.96773 -0.168933 -7.54456e-18)
(0.968674 -0.170967 1.56034e-17)
(0.971046 -0.172775 -8.02216e-18)
(0.974922 -0.174289 0)
(0.980369 -0.175436 8.27235e-18)
(0.987438 -0.176123 -8.19624e-18)
(0.996151 -0.176262 0)
(1.00651 -0.175794 -8.17245e-20)
(1.01846 -0.174737 -7.25649e-18)
(1.03212 -0.173244 0)
(1.04702 -0.171553 0)
(1.06483 -0.169936 -4.40765e-18)
(1.07973 -0.168813 0)
(1.10933 -0.166967 -1.21192e-18)
(0.976761 0.214805 0)
(0.984937 0.202013 -1.26639e-17)
(0.992773 0.19921 -1.11191e-17)
(0.995653 0.199 0)
(0.994989 0.196884 1.91596e-17)
(0.993967 0.193652 1.80919e-17)
(0.993404 0.190163 0)
(0.99285 0.186235 1.62805e-17)
(0.992191 0.181724 -1.54567e-17)
(0.9916 0.176713 0)
(0.991129 0.171267 0)
(0.990709 0.165395 0)
(0.990281 0.159088 0)
(0.989824 0.152331 -1.17561e-17)
(0.989331 0.145111 -1.15335e-17)
(0.988812 0.13745 1.06107e-17)
(0.988344 0.12958 -3.13778e-17)
(0.988046 0.121745 0)
(0.987997 0.113955 0)
(0.988188 0.106167 1.00349e-17)
(0.988553 0.0983829 1.96241e-17)
(0.989025 0.0906454 -9.6098e-18)
(0.989563 0.0830006 0)
(0.99015 0.075479 0)
(0.990779 0.0680972 -4.82202e-18)
(0.991454 0.0608657 9.51042e-18)
(0.992199 0.053785 -9.49142e-18)
(0.993054 0.0468309 0)
(0.994062 0.0399403 0)
(0.995236 0.0330148 -2.33451e-18)
(0.996528 0.0259403 0)
(0.997812 0.0186203 2.38429e-18)
(0.998888 0.0110188 -1.16101e-18)
(0.999551 0.00317914 -1.60632e-20)
(0.999588 -0.00475454 -8.16204e-21)
(0.998852 -0.0125214 0)
(0.99733 -0.019841 0)
(0.995152 -0.0264795 -2.93251e-20)
(0.992568 -0.032284 1.23716e-18)
(0.989924 -0.0372143 3.77264e-18)
(0.987629 -0.0413639 5.13913e-18)
(0.986094 -0.0449597 2.64832e-18)
(0.985677 -0.048341 -2.65457e-18)
(0.986619 -0.0519234 -2.68158e-18)
(0.989002 -0.0561465 2.72951e-18)
(0.992709 -0.0614084 0)
(0.997427 -0.0679922 5.22068e-18)
(1.00268 -0.075989 -5.23225e-18)
(1.00791 -0.0852454 0)
(1.01257 -0.0953597 0)
(1.01624 -0.105742 0)
(1.01867 -0.115726 0)
(1.01977 -0.124708 0)
(1.01954 -0.132261 0)
(1.01807 -0.138204 4.72504e-18)
(1.01548 -0.142612 -9.86316e-18)
(1.01192 -0.145768 -5.17733e-18)
(1.00758 -0.148076 5.41587e-18)
(1.00267 -0.14996 5.60323e-18)
(0.997437 -0.151768 -6.01672e-18)
(0.99212 -0.153731 6.36452e-18)
(0.986957 -0.155949 0)
(0.982175 -0.158419 7.11521e-18)
(0.977984 -0.161073 -7.50003e-18)
(0.974572 -0.163816 0)
(0.972094 -0.166555 -1.64125e-17)
(0.970669 -0.169201 8.51938e-18)
(0.970381 -0.171676 -1.76702e-17)
(0.971292 -0.173905 9.06531e-18)
(0.973449 -0.175808 0)
(0.976896 -0.177297 9.30047e-18)
(0.981678 -0.178267 9.29313e-18)
(0.987836 -0.178621 -9.08267e-18)
(0.99544 -0.178302 -8.80749e-18)
(1.00453 -0.177344 8.28489e-18)
(1.01539 -0.175949 0)
(1.0277 -0.17435 0)
(1.04337 -0.172955 5.07219e-18)
(1.05662 -0.171752 0)
(1.08511 -0.170061 1.40195e-18)
(0.977833 0.212618 1.67275e-17)
(0.988996 0.199653 0)
(0.998474 0.199064 -2.50373e-17)
(1.00126 0.199742 2.27108e-17)
(1.00019 0.197601 -2.16463e-17)
(0.999041 0.19445 2.07477e-17)
(0.998415 0.191054 0)
(0.997746 0.187086 1.59951e-19)
(0.996977 0.182492 1.74506e-17)
(0.99632 0.177415 0)
(0.995849 0.171918 0)
(0.995519 0.166007 0)
(0.99529 0.15968 2.8747e-17)
(0.995138 0.152926 0)
(0.995021 0.145729 2.56121e-17)
(0.994893 0.138095 0)
(0.994744 0.13023 4.78415e-17)
(0.994613 0.122367 0)
(0.994537 0.114526 0)
(0.994508 0.106679 -2.28355e-17)
(0.994492 0.0988335 -1.11826e-17)
(0.99446 0.0910327 0)
(0.994412 0.0833215 0)
(0.994366 0.0757307 0)
(0.994347 0.0682768 5.44457e-18)
(0.994384 0.0609677 -5.43023e-18)
(0.994519 0.0537991 -1.06271e-19)
(0.9948 0.0467451 0)
(0.995274 0.0397483 5.51757e-18)
(0.995959 0.0327261 0)
(0.996823 0.0255895 0)
(0.99777 0.0182691 -2.69656e-18)
(0.998646 0.0107419 1.37524e-18)
(0.999253 0.00306333 -1.57096e-20)
(0.999401 -0.00462764 3.33111e-19)