# Solver information
# Time        	U_solver      	Ux_initial    	Ux_final      	Ux_iters      	Uy_initial    	Uy_final      	Uy_iters      	U_converged   	p_solver      	p_initial     	p_final       	p_iters       	p_converged   
1             	smoothSolver	1.000000e+00	9.699960e-02	10	1.000000e+00	8.375720e-02	5	false	GAMG	1.000000e+00	8.361710e-02	14	true
2             	smoothSolver	2.883230e-01	2.659540e-02	6	3.613010e-01	3.409710e-02	6	false	GAMG	2.804320e-01	1.827180e-02	10	true
3             	smoothSolver	1.509740e-01	1.280870e-02	6	2.170290e-01	1.812240e-02	6	false	GAMG	4.411870e-02	3.697900e-03	10	true
4             	smoothSolver	9.151910e-02	7.026700e-03	6	1.228070e-01	9.914670e-03	5	false	GAMG	3.600250e-02	3.373120e-03	9	true
5             	smoothSolver	6.991500e-02	6.942040e-03	5	9.026170e-02	6.632670e-03	5	false	GAMG	3.143340e-02	2.716810e-03	8	true
6             	smoothSolver	5.891160e-02	4.651570e-03	6	7.667340e-02	6.886460e-03	4	false	GAMG	2.483180e-02	2.417660e-03	8	true
7             	smoothSolver	5.082510e-02	4.565060e-03	6	6.714690e-02	6.195150e-03	4	false	GAMG	1.844100e-02	1.794150e-03	8	true
8             	smoothSolver	4.425260e-02	3.420640e-03	7	5.770660e-02	4.110260e-03	5	false	GAMG	1.495650e-02	1.147490e-03	7	true
9             	smoothSolver	3.849130e-02	3.326400e-03	7	4.861790e-02	3.968440e-03	5	false	GAMG	1.227870e-02	1.104770e-03	5	true
10            	smoothSolver	3.443100e-02	3.254040e-03	7	4.175480e-02	3.669880e-03	5	false	GAMG	1.037520e-02	9.110090e-04	5	true
11            	smoothSolver	3.151220e-02	2.532880e-03	8	3.649170e-02	3.517470e-03	5	false	GAMG	9.210440e-03	9.041890e-04	5	true
12            	smoothSolver	2.889600e-02	2.487040e-03	8	3.337950e-02	2.751870e-03	6	false	GAMG	8.571520e-03	8.206280e-04	6	true
13            	smoothSolver	2.713440e-02	2.414200e-03	8	3.013070e-02	2.810040e-03	6	false	GAMG	8.438130e-03	7.019250e-04	7	true
14            	smoothSolver	2.604440e-02	2.312360e-03	8	2.818060e-02	2.255260e-03	7	false	GAMG	8.307000e-03	6.673730e-04	7	true
15            	smoothSolver	2.477490e-02	2.206050e-03	8	2.600110e-02	2.279730e-03	7	false	GAMG	8.137720e-03	6.428790e-04	7	true
16            	smoothSolver	2.323710e-02	2.098560e-03	8	2.479670e-02	2.353480e-03	7	false	GAMG	7.832650e-03	6.269820e-04	7	true
17            	smoothSolver	2.161500e-02	1.994180e-03	8	2.424660e-02	2.423940e-03	7	false	GAMG	7.426990e-03	6.250370e-04	7	true
18            	smoothSolver	2.013310e-02	1.897430e-03	8	2.359370e-02	1.953940e-03	8	false	GAMG	6.986090e-03	6.412010e-04	7	true
19            	smoothSolver	1.883400e-02	1.815320e-03	8	2.241320e-02	1.915900e-03	8	false	GAMG	6.565720e-03	5.806740e-04	6	true
20            	smoothSolver	1.762050e-02	1.748500e-03	8	2.115060e-02	1.896290e-03	8	false	GAMG	6.250010e-03	5.687360e-04	6	true
21            	smoothSolver	1.668830e-02	1.347310e-03	9	2.017690e-02	1.869740e-03	8	false	GAMG	5.882280e-03	3.567510e-04	8	true
22            	smoothSolver	1.583460e-02	1.295430e-03	9	1.949660e-02	1.845140e-03	8	false	GAMG	5.440690e-03	3.591530e-04	8	true
23            	smoothSolver	1.487620e-02	1.243870e-03	9	1.837320e-02	1.777620e-03	8	false	GAMG	5.030440e-03	3.754990e-04	8	true
24            	smoothSolver	1.398890e-02	1.195080e-03	9	1.742550e-02	1.727310e-03	8	false	GAMG	4.708100e-03	3.795320e-04	8	true
25            	smoothSolver	1.313700e-02	1.146480e-03	9	1.652050e-02	1.358400e-03	9	false	GAMG	4.384030e-03	3.803230e-04	8	true
26            	smoothSolver	1.235070e-02	1.100920e-03	9	1.563830e-02	1.284700e-03	9	false	GAMG	4.060730e-03	3.554550e-04	8	true
27            	smoothSolver	1.159950e-02	1.052570e-03	9	1.494380e-02	1.227610e-03	9	false	GAMG	3.792020e-03	3.278460e-04	8	true
28            	smoothSolver	1.089180e-02	1.004480e-03	9	1.430630e-02	1.185460e-03	9	false	GAMG	3.587920e-03	2.989350e-04	8	true
29            	smoothSolver	1.026930e-02	9.582660e-04	9	1.372940e-02	1.147590e-03	9	false	GAMG	3.452190e-03	2.741780e-04	8	true
30            	smoothSolver	9.737860e-03	9.159260e-04	9	1.333220e-02	1.107320e-03	9	false	GAMG	3.334790e-03	2.559610e-04	8	true
31            	smoothSolver	9.302150e-03	8.781530e-04	9	1.304320e-02	1.065210e-03	9	false	GAMG	3.242510e-03	2.437420e-04	8	true
32            	smoothSolver	8.919860e-03	8.453020e-04	9	1.274300e-02	1.270510e-03	8	false	GAMG	3.171670e-03	2.328810e-04	8	true
33            	smoothSolver	8.577390e-03	8.149020e-04	9	1.253010e-02	1.025080e-03	9	false	GAMG	3.115130e-03	2.409250e-04	8	true
34            	smoothSolver	8.272690e-03	7.911160e-04	9	1.209790e-02	9.881510e-04	9	false	GAMG	3.072560e-03	2.417170e-04	8	true
35            	smoothSolver	7.977360e-03	7.701890e-04	9	1.170580e-02	9.548620e-04	9	false	GAMG	3.010010e-03	2.439530e-04	8	true
36            	smoothSolver	7.698650e-03	7.512250e-04	9	1.141490e-02	9.249250e-04	9	false	GAMG	2.918640e-03	2.459490e-04	8	true
37            	smoothSolver	7.433570e-03	7.337540e-04	9	1.111920e-02	1.111860e-03	8	false	GAMG	2.807580e-03	2.425890e-04	8	true
38            	smoothSolver	7.169180e-03	7.160650e-04	9	1.091950e-02	8.892740e-04	9	false	GAMG	2.705940e-03	2.465230e-04	8	true
39            	smoothSolver	6.925900e-03	5.769950e-04	10	1.051210e-02	8.614420e-04	9	false	GAMG	2.617800e-03	2.450930e-04	8	true
40            	smoothSolver	6.712020e-03	5.626240e-04	10	1.028080e-02	8.516850e-04	9	false	GAMG	2.537390e-03	2.424760e-04	8	true
41            	smoothSolver	6.516900e-03	5.495440e-04	10	1.002440e-02	8.364440e-04	9	false	GAMG	2.499310e-03	2.403290e-04	8	true
42            	smoothSolver	6.331550e-03	5.374740e-04	10	9.729950e-03	8.157620e-04	9	false	GAMG	2.469910e-03	2.395610e-04	8	true
43            	smoothSolver	6.158390e-03	5.263890e-04	10	9.467120e-03	7.929540e-04	9	false	GAMG	2.432820e-03	2.394450e-04	8	true
44            	smoothSolver	6.000710e-03	5.161990e-04	10	9.249850e-03	7.699990e-04	9	false	GAMG	2.387750e-03	2.377930e-04	8	true
45            	smoothSolver	5.855150e-03	5.068470e-04	10	9.033580e-03	7.479750e-04	9	false	GAMG	2.328020e-03	1.959820e-04	9	true
46            	smoothSolver	5.774430e-03	4.979610e-04	10	8.846600e-03	7.294750e-04	9	false	GAMG	2.221070e-03	1.556280e-04	9	true
47            	smoothSolver	5.605130e-03	4.892840e-04	10	8.584810e-03	7.158190e-04	9	false	GAMG	2.152420e-03	1.434280e-04	9	true
48            	smoothSolver	5.454600e-03	4.817150e-04	10	8.349040e-03	7.034040e-04	9	false	GAMG	2.102310e-03	2.078000e-04	8	true
49            	smoothSolver	5.323310e-03	4.754030e-04	10	8.101990e-03	6.922400e-04	9	false	GAMG	2.080260e-03	1.262810e-04	9	true
50            	smoothSolver	5.210910e-03	4.669710e-04	10	7.910460e-03	6.793380e-04	9	false	GAMG	2.016380e-03	1.926970e-04	8	true
51            	smoothSolver	5.106710e-03	4.613000e-04	10	7.695860e-03	6.668840e-04	9	false	GAMG	1.978740e-03	1.932910e-04	8	true
52            	smoothSolver	5.002960e-03	4.542600e-04	10	7.538280e-03	6.532330e-04	9	false	GAMG	1.922720e-03	1.903320e-04	7	true
53            	smoothSolver	4.903900e-03	4.472580e-04	10	7.364150e-03	6.387170e-04	9	false	GAMG	1.863320e-03	1.835010e-04	7	true
54            	smoothSolver	4.827710e-03	4.407980e-04	10	7.255640e-03	6.242490e-04	9	false	GAMG	1.803770e-03	1.740540e-04	7	true
55            	smoothSolver	4.737680e-03	4.344550e-04	10	7.129450e-03	6.104250e-04	9	false	GAMG	1.745160e-03	1.664740e-04	7	true
56            	smoothSolver	4.647610e-03	4.282890e-04	10	6.985400e-03	5.999880e-04	9	false	GAMG	1.688160e-03	1.604330e-04	7	true
57            	smoothSolver	4.559710e-03	4.222470e-04	10	6.835990e-03	5.900450e-04	9	false	GAMG	1.643730e-03	1.562370e-04	7	true
58            	smoothSolver	4.475260e-03	4.163520e-04	10	6.688750e-03	5.802840e-04	9	false	GAMG	1.609620e-03	1.537970e-04	7	true
59            	smoothSolver	4.394760e-03	4.107790e-04	10	6.549280e-03	5.706520e-04	9	false	GAMG	1.586650e-03	1.538480e-04	7	true
60            	smoothSolver	4.318870e-03	4.053570e-04	10	6.419900e-03	5.610320e-04	9	false	GAMG	1.565610e-03	1.535460e-04	7	true
61            	smoothSolver	4.247500e-03	4.001610e-04	10	6.294750e-03	5.514010e-04	9	false	GAMG	1.544160e-03	1.543170e-04	7	true
62            	smoothSolver	4.178050e-03	3.952270e-04	10	6.185170e-03	5.415990e-04	9	false	GAMG	1.521840e-03	1.196360e-04	8	true
63            	smoothSolver	4.112620e-03	3.904300e-04	10	6.135040e-03	5.334220e-04	9	false	GAMG	1.499440e-03	1.145860e-04	8	true
64            	smoothSolver	4.045480e-03	3.857570e-04	10	6.021070e-03	5.224050e-04	9	false	GAMG	1.466920e-03	1.158760e-04	8	true
65            	smoothSolver	3.986920e-03	3.812860e-04	10	5.918480e-03	5.119950e-04	9	false	GAMG	1.434710e-03	1.179280e-04	8	true
66            	smoothSolver	3.931470e-03	3.768470e-04	10	5.830860e-03	5.026310e-04	9	false	GAMG	1.405200e-03	1.203620e-04	8	true
67            	smoothSolver	3.877240e-03	3.725670e-04	10	5.744990e-03	4.951360e-04	9	false	GAMG	1.380720e-03	1.231830e-04	8	true
68            	smoothSolver	3.823100e-03	3.683030e-04	10	5.660250e-03	4.887610e-04	9	false	GAMG	1.360980e-03	1.254860e-04	8	true
69            	smoothSolver	3.769430e-03	3.642250e-04	10	5.574600e-03	4.831240e-04	9	false	GAMG	1.344100e-03	1.282970e-04	8	true
70            	smoothSolver	3.717340e-03	3.601980e-04	10	5.489730e-03	4.774610e-04	9	false	GAMG	1.327040e-03	1.306940e-04	8	true
71            	smoothSolver	3.666820e-03	3.562880e-04	10	5.412710e-03	4.718350e-04	9	false	GAMG	1.310330e-03	8.933450e-05	10	true
72            	smoothSolver	3.625560e-03	3.522190e-04	10	5.393380e-03	4.678740e-04	9	false	GAMG	1.293360e-03	1.274830e-04	8	true
73            	smoothSolver	3.563990e-03	3.488100e-04	10	5.230330e-03	4.587730e-04	9	false	GAMG	1.280740e-03	9.354100e-05	10	true
74            	smoothSolver	3.526220e-03	3.447520e-04	10	5.212880e-03	4.552540e-04	9	false	GAMG	1.267890e-03	8.958790e-05	10	true
75            	smoothSolver	3.479090e-03	3.411370e-04	10	5.126750e-03	4.485510e-04	9	false	GAMG	1.253530e-03	9.142640e-05	10	true
76            	smoothSolver	3.433600e-03	3.376600e-04	10	5.043960e-03	4.418820e-04	9	false	GAMG	1.238300e-03	9.391350e-05	10	true
77            	smoothSolver	3.391720e-03	3.341880e-04	10	4.980500e-03	4.358460e-04	9	false	GAMG	1.222090e-03	9.639000e-05	10	true
78            	smoothSolver	3.350920e-03	3.307730e-04	10	4.924760e-03	4.299700e-04	9	false	GAMG	1.204440e-03	9.876030e-05	10	true
79            	smoothSolver	3.311370e-03	3.274680e-04	10	4.871230e-03	4.239220e-04	9	false	GAMG	1.185690e-03	1.011100e-04	10	true
80            	smoothSolver	3.273540e-03	3.242510e-04	10	4.817570e-03	4.177850e-04	9	false	GAMG	1.169200e-03	1.034880e-04	10	true
81            	smoothSolver	3.236650e-03	3.210300e-04	10	4.763660e-03	4.119510e-04	9	false	GAMG	1.155550e-03	1.059260e-04	10	true
82            	smoothSolver	3.200470e-03	3.179300e-04	10	4.709770e-03	4.069840e-04	9	false	GAMG	1.145450e-03	1.084480e-04	10	true
83            	smoothSolver	3.164610e-03	3.148250e-04	10	4.655950e-03	4.026160e-04	9	false	GAMG	1.137720e-03	1.110210e-04	10	true
84            	smoothSolver	3.129360e-03	3.117190e-04	10	4.601970e-03	3.990220e-04	9	false	GAMG	1.129990e-03	1.105380e-04	11	true
85            	smoothSolver	3.093130e-03	3.086680e-04	10	4.568260e-03	3.958390e-04	9	false	GAMG	1.109550e-03	1.084460e-04	11	true
86            	smoothSolver	3.055430e-03	2.535050e-04	11	4.497060e-03	3.918200e-04	9	false	GAMG	1.104200e-03	8.357150e-05	12	true
87            	smoothSolver	3.036180e-03	3.015400e-04	10	4.513740e-03	3.946200e-04	9	false	GAMG	1.096800e-03	8.380000e-05	12	true
88            	smoothSolver	3.002390e-03	2.989130e-04	10	4.416740e-03	3.853820e-04	9	false	GAMG	1.085340e-03	8.473450e-05	12	true
89            	smoothSolver	2.964950e-03	2.961980e-04	10	4.336120e-03	3.796050e-04	9	false	GAMG	1.076230e-03	8.637220e-05	12	true
90            	smoothSolver	2.930140e-03	2.436120e-04	11	4.273950e-03	3.756970e-04	9	false	GAMG	1.075360e-03	8.985390e-05	12	true
91            	smoothSolver	2.907070e-03	2.899750e-04	10	4.279270e-03	3.782780e-04	9	false	GAMG	1.064840e-03	9.038650e-05	12	true
92            	smoothSolver	2.873890e-03	2.386340e-04	11	4.201860e-03	3.698420e-04	9	false	GAMG	1.060330e-03	9.261010e-05	12	true
93            	smoothSolver	2.846720e-03	2.841230e-04	10	4.200690e-03	3.700120e-04	9	false	GAMG	1.047420e-03	9.295910e-05	12	true
94            	smoothSolver	2.811800e-03	2.340250e-04	11	4.122110e-03	3.610840e-04	9	false	GAMG	1.040090e-03	9.501030e-05	12	true
95            	smoothSolver	2.785440e-03	2.314000e-04	11	4.124210e-03	3.613220e-04	9	false	GAMG	1.033100e-03	9.682610e-05	12	true
96            	smoothSolver	2.760420e-03	2.756630e-04	10	4.106680e-03	3.588230e-04	9	false	GAMG	1.018550e-03	9.640220e-05	12	true
97            	smoothSolver	2.725370e-03	2.272760e-04	11	4.015590e-03	3.498580e-04	9	false	GAMG	1.012820e-03	9.775800e-05	12	true
98            	smoothSolver	2.699660e-03	2.248640e-04	11	4.010190e-03	3.513530e-04	9	false	GAMG	1.010080e-03	9.928090e-05	12	true
99            	smoothSolver	2.676230e-03	2.225570e-04	11	3.990090e-03	3.509790e-04	9	false	GAMG	1.007350e-03	9.997580e-05	12	true
100           	smoothSolver	2.651120e-03	2.203990e-04	11	3.955920e-03	3.491930e-04	9	false	GAMG	1.004110e-03	1.003240e-04	12	true
101           	smoothSolver	2.624730e-03	2.183100e-04	11	3.915830e-03	3.470060e-04	9	false	GAMG	1.000230e-03	9.471000e-05	13	true
102           	smoothSolver	2.592600e-03	2.162360e-04	11	3.886210e-03	3.445070e-04	9	false	GAMG	9.877070e-04	9.695090e-05	12	true
103           	smoothSolver	2.568580e-03	2.143300e-04	11	3.823840e-03	3.428910e-04	9	false	GAMG	9.877790e-04	9.321100e-05	13	true
104           	smoothSolver	2.542730e-03	2.124180e-04	11	3.798140e-03	3.404400e-04	9	false	GAMG	9.760330e-04	9.620380e-05	12	true
105           	smoothSolver	2.521680e-03	2.105550e-04	11	3.744540e-03	3.389380e-04	9	false	GAMG	9.736730e-04	9.171840e-05	13	true
106           	smoothSolver	2.495460e-03	2.087300e-04	11	3.718500e-03	3.362640e-04	9	false	GAMG	9.618920e-04	9.456330e-05	12	true
107           	smoothSolver	2.474670e-03	2.069730e-04	11	3.668840e-03	3.346680e-04	9	false	GAMG	9.581570e-04	8.894260e-05	13	true
108           	smoothSolver	2.447980e-03	2.051950e-04	11	3.640470e-03	3.317380e-04	9	false	GAMG	9.464030e-04	9.333100e-05	12	true
109           	smoothSolver	2.427480e-03	2.034850e-04	11	3.595560e-03	3.301000e-04	9	false	GAMG	9.429970e-04	8.677640e-05	13	true
110           	smoothSolver	2.399840e-03	2.017350e-04	11	3.568560e-03	3.269650e-04	9	false	GAMG	9.314750e-04	8.436020e-05	13	true
111           	smoothSolver	2.373680e-03	1.999980e-04	11	3.538150e-03	3.246520e-04	9	false	GAMG	9.231720e-04	8.439610e-05	13	true
112           	smoothSolver	2.350630e-03	1.983390e-04	11	3.509520e-03	3.222550e-04	9	false	GAMG	9.153740e-04	8.416240e-05	13	true
113           	smoothSolver	2.328850e-03	1.966800e-04	11	3.481760e-03	3.197620e-04	9	false	GAMG	9.079480e-04	8.311660e-05	13	true
114           	smoothSolver	2.308900e-03	1.950820e-04	11	3.460070e-03	3.171990e-04	9	false	GAMG	8.994990e-04	7.942000e-05	13	true
115           	smoothSolver	2.289400e-03	1.935080e-04	11	3.436040e-03	3.145150e-04	9	false	GAMG	8.911430e-04	7.532090e-05	13	true
116           	smoothSolver	2.270260e-03	1.919610e-04	11	3.408880e-03	3.117000e-04	9	false	GAMG	8.837450e-04	7.458500e-05	13	true
117           	smoothSolver	2.250400e-03	1.904510e-04	11	3.380530e-03	3.088310e-04	9	false	GAMG	8.768850e-04	7.445500e-05	13	true
118           	smoothSolver	2.229670e-03	1.889350e-04	11	3.352240e-03	3.061620e-04	9	false	GAMG	8.707620e-04	7.382660e-05	13	true
119           	smoothSolver	2.208630e-03	1.874350e-04	11	3.324270e-03	3.038910e-04	9	false	GAMG	8.646710e-04	7.317890e-05	13	true
120           	smoothSolver	2.187600e-03	1.859770e-04	11	3.296210e-03	3.018840e-04	9	false	GAMG	8.594180e-04	7.231670e-05	13	true
121           	smoothSolver	2.167100e-03	1.845300e-04	11	3.268810e-03	3.001620e-04	9	false	GAMG	8.546670e-04	7.140400e-05	13	true
122           	smoothSolver	2.147170e-03	1.830970e-04	11	3.241700e-03	2.986930e-04	9	false	GAMG	8.503510e-04	7.046050e-05	13	true
123           	smoothSolver	2.128040e-03	1.816700e-04	11	3.214390e-03	2.971570e-04	9	false	GAMG	8.463380e-04	6.954900e-05	13	true
124           	smoothSolver	2.109230e-03	1.803040e-04	11	3.186620e-03	2.955600e-04	9	false	GAMG	8.423110e-04	6.856860e-05	13	true
125           	smoothSolver	2.091120e-03	1.789300e-04	11	3.158700e-03	2.938990e-04	9	false	GAMG	8.376860e-04	6.756950e-05	13	true
126           	smoothSolver	2.073400e-03	1.775500e-04	11	3.130730e-03	2.921990e-04	9	false	GAMG	8.323650e-04	6.652230e-05	13	true
127           	smoothSolver	2.055630e-03	1.761970e-04	11	3.102660e-03	2.904620e-04	9	false	GAMG	8.268970e-04	6.541210e-05	13	true
128           	smoothSolver	2.038000e-03	1.748830e-04	11	3.074640e-03	2.886710e-04	9	false	GAMG	8.214700e-04	6.425160e-05	13	true
129           	smoothSolver	2.020750e-03	1.735710e-04	11	3.047510e-03	2.868470e-04	9	false	GAMG	8.164180e-04	6.301970e-05	13	true
130           	smoothSolver	2.003720e-03	1.722800e-04	11	3.023320e-03	2.849630e-04	9	false	GAMG	8.109820e-04	6.184230e-05	13	true
131           	smoothSolver	1.986690e-03	1.709910e-04	11	3.002250e-03	2.830020e-04	9	false	GAMG	8.050810e-04	6.055540e-05	13	true
132           	smoothSolver	1.969850e-03	1.697040e-04	11	2.981970e-03	2.809990e-04	9	false	GAMG	7.989970e-04	5.926530e-05	13	true
133           	smoothSolver	1.953230e-03	1.684540e-04	11	2.961600e-03	2.789360e-04	9	false	GAMG	7.926740e-04	7.914220e-05	12	true
134           	smoothSolver	1.939520e-03	1.674050e-04	11	2.927380e-03	2.768970e-04	9	false	GAMG	7.888130e-04	5.779560e-05	13	true
135           	smoothSolver	1.922110e-03	1.659530e-04	11	2.929520e-03	2.751170e-04	9	false	GAMG	7.796530e-04	7.684240e-05	12	true
136           	smoothSolver	1.907590e-03	1.649270e-04	11	2.891750e-03	2.724660e-04	9	false	GAMG	7.749590e-04	7.670380e-05	12	true
137           	smoothSolver	1.892870e-03	1.637100e-04	11	2.874860e-03	2.704710e-04	9	false	GAMG	7.695400e-04	7.568650e-05	12	true
138           	smoothSolver	1.877520e-03	1.625220e-04	11	2.860090e-03	2.681990e-04	9	false	GAMG	7.644070e-04	7.446730e-05	12	true
139           	smoothSolver	1.862230e-03	1.613460e-04	11	2.842210e-03	2.657600e-04	9	false	GAMG	7.601400e-04	7.320460e-05	12	true
140           	smoothSolver	1.847300e-03	1.601950e-04	11	2.822920e-03	2.633130e-04	9	false	GAMG	7.565790e-04	7.189980e-05	12	true
141           	smoothSolver	1.832640e-03	1.590410e-04	11	2.803040e-03	2.608940e-04	9	false	GAMG	7.533920e-04	7.460430e-05	11	true
142           	smoothSolver	1.816440e-03	1.579800e-04	11	2.786870e-03	2.591070e-04	9	false	GAMG	7.489160e-04	7.091630e-05	12	true
143           	smoothSolver	1.805780e-03	1.567780e-04	11	2.768870e-03	2.568870e-04	9	false	GAMG	7.466210e-04	7.209150e-05	11	true
144           	smoothSolver	1.788750e-03	1.557910e-04	11	2.745310e-03	2.552160e-04	9	false	GAMG	7.425350e-04	7.251750e-05	11	true
145           	smoothSolver	1.776000e-03	1.547110e-04	11	2.728600e-03	2.535450e-04	9	false	GAMG	7.393380e-04	7.136560e-05	11	true
146           	smoothSolver	1.762760e-03	1.536350e-04	11	2.708070e-03	2.519250e-04	9	false	GAMG	7.371000e-04	7.028840e-05	11	true
147           	smoothSolver	1.749510e-03	1.525720e-04	11	2.686040e-03	2.503230e-04	9	false	GAMG	7.350760e-04	6.943560e-05	11	true
148           	smoothSolver	1.736440e-03	1.515300e-04	11	2.663760e-03	2.488860e-04	9	false	GAMG	7.328460e-04	6.914190e-05	11	true
149           	smoothSolver	1.723620e-03	1.504860e-04	11	2.642120e-03	2.474620e-04	9	false	GAMG	7.307350e-04	6.942970e-05	11	true
150           	smoothSolver	1.711040e-03	1.494540e-04	11	2.620750e-03	2.460370e-04	9	false	GAMG	7.286140e-04	7.007160e-05	11	true
151           	smoothSolver	1.698880e-03	1.484350e-04	11	2.599820e-03	2.446090e-04	9	false	GAMG	7.262870e-04	7.075580e-05	11	true
152           	smoothSolver	1.686950e-03	1.474560e-04	11	2.579060e-03	2.431700e-04	9	false	GAMG	7.238400e-04	7.143860e-05	11	true
153           	smoothSolver	1.674960e-03	1.464800e-04	11	2.558840e-03	2.417270e-04	9	false	GAMG	7.212620e-04	7.209380e-05	11	true
154           	smoothSolver	1.662800e-03	1.455050e-04	11	2.538630e-03	2.402890e-04	9	false	GAMG	7.184140e-04	6.553840e-05	12	true
155           	smoothSolver	1.651950e-03	1.444590e-04	11	2.516450e-03	2.385370e-04	9	false	GAMG	7.153870e-04	6.494830e-05	12	true
156           	smoothSolver	1.638710e-03	1.434820e-04	11	2.492810e-03	2.369250e-04	9	false	GAMG	7.112500e-04	6.531250e-05	12	true
157           	smoothSolver	1.626280e-03	1.425240e-04	11	2.476410e-03	2.354120e-04	9	false	GAMG	7.064180e-04	6.585820e-05	12	true
158           	smoothSolver	1.614120e-03	1.415910e-04	11	2.463850e-03	2.339810e-04	9	false	GAMG	7.018860e-04	6.643250e-05	12	true
159           	smoothSolver	1.601960e-03	1.406790e-04	11	2.451230e-03	2.325040e-04	9	false	GAMG	6.973170e-04	6.690210e-05	12	true
160           	smoothSolver	1.589950e-03	1.397790e-04	11	2.438140e-03	2.309930e-04	9	false	GAMG	6.924810e-04	6.720930e-05	12	true
161           	smoothSolver	1.577890e-03	1.388750e-04	11	2.425100e-03	2.294830e-04	9	false	GAMG	6.875740e-04	6.742500e-05	12	true
162           	smoothSolver	1.565870e-03	1.379680e-04	11	2.412040e-03	2.279770e-04	9	false	GAMG	6.824950e-04	6.755390e-05	12	true
163           	smoothSolver	1.554010e-03	1.370820e-04	11	2.398760e-03	2.264570e-04	9	false	GAMG	6.774450e-04	6.759110e-05	12	true
164           	smoothSolver	1.542510e-03	1.362030e-04	11	2.385170e-03	2.249300e-04	9	false	GAMG	6.728980e-04	5.259830e-05	13	true
165           	smoothSolver	1.534320e-03	1.352110e-04	11	2.383260e-03	2.236410e-04	9	false	GAMG	6.668210e-04	6.555250e-05	12	true
166           	smoothSolver	1.519320e-03	1.345060e-04	11	2.352660e-03	2.214370e-04	9	false	GAMG	6.644120e-04	5.271550e-05	13	true
167           	smoothSolver	1.512430e-03	1.335240e-04	11	2.350620e-03	2.205460e-04	9	false	GAMG	6.611880e-04	6.475650e-05	12	true
168           	smoothSolver	1.498630e-03	1.328250e-04	11	2.322430e-03	2.184560e-04	9	false	GAMG	6.602500e-04	6.595460e-05	12	true
169           	smoothSolver	1.489290e-03	1.319890e-04	11	2.310260e-03	2.172600e-04	9	false	GAMG	6.599860e-04	6.577000e-05	12	true
170           	smoothSolver	1.480300e-03	1.311640e-04	11	2.299610e-03	2.157850e-04	9	false	GAMG	6.596380e-04	6.529130e-05	12	true
171           	smoothSolver	1.471140e-03	1.303660e-04	11	2.287170e-03	2.141910e-04	9	false	GAMG	6.591490e-04	6.474170e-05	12	true
172           	smoothSolver	1.461880e-03	1.295770e-04	11	2.273660e-03	2.126960e-04	9	false	GAMG	6.582190e-04	6.404080e-05	12	true
173           	smoothSolver	1.452790e-03	1.287900e-04	11	2.259200e-03	2.112910e-04	9	false	GAMG	6.570860e-04	6.334460e-05	12	true
174           	smoothSolver	1.443890e-03	1.280080e-04	11	2.245050e-03	2.099790e-04	9	false	GAMG	6.557750e-04	6.259940e-05	12	true
175           	smoothSolver	1.434970e-03	1.272350e-04	11	2.230910e-03	2.087360e-04	9	false	GAMG	6.542920e-04	6.173730e-05	12	true
176           	smoothSolver	1.426050e-03	1.264670e-04	11	2.216280e-03	2.075520e-04	9	false	GAMG	6.526810e-04	6.089770e-05	12	true
177           	smoothSolver	1.417200e-03	1.257240e-04	11	2.201940e-03	2.064000e-04	9	false	GAMG	6.510140e-04	6.000600e-05	12	true
178           	smoothSolver	1.408620e-03	1.249840e-04	11	2.187630e-03	2.052890e-04	9	false	GAMG	6.491900e-04	5.900280e-05	12	true
179           	smoothSolver	1.400050e-03	1.242540e-04	11	2.173330e-03	2.042290e-04	9	false	GAMG	6.472070e-04	5.799180e-05	12	true
180           	smoothSolver	1.391560e-03	1.235350e-04	11	2.159180e-03	2.032740e-04	9	false	GAMG	6.450440e-04	5.734480e-05	12	true
181           	smoothSolver	1.383160e-03	1.228150e-04	11	2.145140e-03	2.023270e-04	9	false	GAMG	6.428130e-04	5.660170e-05	12	true
182           	smoothSolver	1.374830e-03	1.220970e-04	11	2.131140e-03	2.013680e-04	9	false	GAMG	6.406110e-04	5.521360e-05	12	true
183           	smoothSolver	1.366850e-03	1.213860e-04	11	2.117070e-03	2.004050e-04	9	false	GAMG	6.384240e-04	5.171070e-05	12	true
184           	smoothSolver	1.359030e-03	1.206790e-04	11	2.102940e-03	1.994470e-04	9	false	GAMG	6.361620e-04	4.677630e-05	12	true
185           	smoothSolver	1.351020e-03	1.200010e-04	11	2.087250e-03	1.984860e-04	9	false	GAMG	6.335040e-04	4.593420e-05	12	true
186           	smoothSolver	1.342580e-03	1.193320e-04	11	2.071830e-03	1.975550e-04	9	false	GAMG	6.305690e-04	4.728810e-05	12	true
187           	smoothSolver	1.333960e-03	1.186710e-04	11	2.057870e-03	1.966540e-04	9	false	GAMG	6.277650e-04	4.890890e-05	12	true
188           	smoothSolver	1.325370e-03	1.180170e-04	11	2.045520e-03	1.957510e-04	9	false	GAMG	6.250840e-04	5.022940e-05	12	true
189           	smoothSolver	1.316900e-03	1.173630e-04	11	2.035230e-03	1.948120e-04	9	false	GAMG	6.224240e-04	5.120040e-05	12	true
190           	smoothSolver	1.308520e-03	1.167080e-04	11	2.025750e-03	1.938410e-04	9	false	GAMG	6.196220e-04	5.209310e-05	12	true
191           	smoothSolver	1.300190e-03	1.160580e-04	11	2.016180e-03	1.928460e-04	9	false	GAMG	6.168250e-04	5.278790e-05	12	true
192           	smoothSolver	1.291970e-03	1.154080e-04	11	2.007320e-03	1.918470e-04	9	false	GAMG	6.139740e-04	5.333900e-05	12	true
193           	smoothSolver	1.283970e-03	1.147730e-04	11	1.997970e-03	1.908300e-04	9	false	GAMG	6.109290e-04	5.368220e-05	12	true
194           	smoothSolver	1.275910e-03	1.141490e-04	11	1.988270e-03	1.897900e-04	9	false	GAMG	6.081280e-04	5.410390e-05	12	true
195           	smoothSolver	1.267930e-03	1.135250e-04	11	1.978340e-03	1.887350e-04	9	false	GAMG	6.054290e-04	5.446390e-05	12	true
196           	smoothSolver	1.260030e-03	1.129020e-04	11	1.968200e-03	1.876730e-04	9	false	GAMG	6.027590e-04	5.463740e-05	12	true
197           	smoothSolver	1.252230e-03	1.122840e-04	11	1.958880e-03	1.866130e-04	9	false	GAMG	6.002780e-04	5.468780e-05	12	true
198           	smoothSolver	1.244450e-03	1.116840e-04	11	1.949450e-03	1.855470e-04	9	false	GAMG	5.982120e-04	5.481910e-05	12	true
199           	smoothSolver	1.236890e-03	1.110880e-04	11	1.939410e-03	1.844670e-04	9	false	GAMG	5.962640e-04	5.492000e-05	12	true
200           	smoothSolver	1.229730e-03	1.104940e-04	11	1.929400e-03	1.833910e-04	9	false	GAMG	5.944400e-04	5.507810e-05	12	true
201           	smoothSolver	1.222930e-03	1.099070e-04	11	1.919350e-03	1.823150e-04	9	false	GAMG	5.928740e-04	5.512960e-05	12	true
202           	smoothSolver	1.216200e-03	1.093260e-04	11	1.909600e-03	1.812410e-04	9	false	GAMG	5.913430e-04	5.501850e-05	12	true
203           	smoothSolver	1.209460e-03	1.087580e-04	11	1.900120e-03	1.801670e-04	9	false	GAMG	5.897970e-04	5.497600e-05	12	true
204           	smoothSolver	1.202790e-03	1.081900e-04	11	1.890200e-03	1.790950e-04	9	false	GAMG	5.884830e-04	5.474650e-05	12	true
205           	smoothSolver	1.196290e-03	1.076250e-04	11	1.881010e-03	1.780260e-04	9	false	GAMG	5.870410e-04	5.464470e-05	12	true
206           	smoothSolver	1.189740e-03	1.070700e-04	11	1.870820e-03	1.769410e-04	9	false	GAMG	5.857450e-04	5.457280e-05	12	true
207           	smoothSolver	1.183350e-03	1.065220e-04	11	1.860690e-03	1.758700e-04	9	false	GAMG	5.845680e-04	5.449690e-05	12	true
208           	smoothSolver	1.177060e-03	1.059800e-04	11	1.850820e-03	1.748530e-04	9	false	GAMG	5.833690e-04	5.451860e-05	12	true
209           	smoothSolver	1.170770e-03	1.054420e-04	11	1.840700e-03	1.738950e-04	9	false	GAMG	5.822990e-04	5.431760e-05	12	true
210           	smoothSolver	1.164620e-03	1.049060e-04	11	1.831370e-03	1.729720e-04	9	false	GAMG	5.811780e-04	5.415610e-05	12	true
211           	smoothSolver	1.158480e-03	1.043730e-04	11	1.821230e-03	1.720650e-04	9	false	GAMG	5.800660e-04	5.400260e-05	12	true
212           	smoothSolver	1.152350e-03	1.038480e-04	11	1.811070e-03	1.711870e-04	9	false	GAMG	5.789070e-04	5.384280e-05	12	true
213           	smoothSolver	1.146220e-03	1.033250e-04	11	1.801100e-03	1.703360e-04	9	false	GAMG	5.776890e-04	5.367340e-05	12	true
214           	smoothSolver	1.140180e-03	1.028020e-04	11	1.791240e-03	1.695050e-04	9	false	GAMG	5.764670e-04	5.349450e-05	12	true
215           	smoothSolver	1.134120e-03	1.022850e-04	11	1.781410e-03	1.686940e-04	9	false	GAMG	5.750630e-04	5.299670e-05	12	true
216           	smoothSolver	1.128040e-03	1.017790e-04	11	1.771560e-03	1.678960e-04	9	false	GAMG	5.734850e-04	5.277840e-05	12	true
217           	smoothSolver	1.122120e-03	1.012780e-04	11	1.761570e-03	1.671280e-04	9	false	GAMG	5.716110e-04	5.255320e-05	12	true
218           	smoothSolver	1.116200e-03	1.007760e-04	11	1.751560e-03	1.663860e-04	9	false	GAMG	5.697260e-04	5.232110e-05	12	true
219           	smoothSolver	1.110270e-03	1.002740e-04	11	1.741640e-03	1.656810e-04	9	false	GAMG	5.678380e-04	5.208420e-05	12	true
220           	smoothSolver	1.104360e-03	9.977110e-05	11	1.731680e-03	1.650260e-04	9	false	GAMG	5.659370e-04	5.183960e-05	12	true
221           	smoothSolver	1.098390e-03	9.926880e-05	11	1.721700e-03	1.643570e-04	9	false	GAMG	5.639280e-04	5.158410e-05	12	true
222           	smoothSolver	1.092340e-03	9.877130e-05	11	1.711640e-03	1.636770e-04	9	false	GAMG	5.619130e-04	5.132290e-05	12	true
223           	smoothSolver	1.086410e-03	9.827750e-05	11	1.701570e-03	1.629920e-04	9	false	GAMG	5.599010e-04	5.105560e-05	12	true
224           	smoothSolver	1.080460e-03	9.778780e-05	11	1.691520e-03	1.623100e-04	9	false	GAMG	5.579380e-04	5.078120e-05	12	true
225           	smoothSolver	1.074480e-03	9.730150e-05	11	1.681670e-03	1.616270e-04	9	false	GAMG	5.559170e-04	5.050050e-05	12	true
226           	smoothSolver	1.068470e-03	9.681440e-05	11	1.672010e-03	1.609390e-04	9	false	GAMG	5.538270e-04	5.021230e-05	12	true
227           	smoothSolver	1.062420e-03	9.632900e-05	11	1.662540e-03	1.602420e-04	9	false	GAMG	5.517170e-04	4.991530e-05	12	true
228           	smoothSolver	1.056330e-03	9.585200e-05	11	1.653760e-03	1.595320e-04	9	false	GAMG	5.496070e-04	4.960880e-05	12	true
229           	smoothSolver	1.050350e-03	9.537760e-05	11	1.645560e-03	1.588120e-04	9	false	GAMG	5.474730e-04	4.929650e-05	12	true