/*--------------------------------*- C++ -*----------------------------------*\
| =========                 |                                                 |
| \\      /  F ield         | OpenFOAM: The Open Source CFD Toolbox           |
|  \\    /   O peration     | Version:  v1912                                 |
|   \\  /    A nd           | Website:  www.openfoam.com                      |
|    \\/     M anipulation  |                                                 |
\*---------------------------------------------------------------------------*/
FoamFile
{
    version     2.0;
    format      ascii;
    class       volScalarField;
    location    "450";
    object      epsilon;
}
// * * * * * * * * * * * * * * * * * * * * * * * * * * * * * * * * * * * * * //

dimensions      [0 2 -3 0 0 0 0];


internalField   nonuniform List<scalar> 
12441
(
0.0102964
0.00908494
0.00832705
0.00770259
0.00718363
0.00674886
0.00638215
0.00607066
0.00580473
0.00557624
0.0053789
0.00520887
0.00504213
0.00491679
0.00480226
0.0046916
0.00488377
0.0203289
0.275854
3.04113
20.9511
39.25
0.0101189
0.00892008
0.00818394
0.00757683
0.00707188
0.00664853
0.00629124
0.00598761
0.00572834
0.00550553
0.00531312
0.00514758
0.00498306
0.00486125
0.00475029
0.00464466
0.00480436
0.0200904
0.259827
3.03344
21.2411
40.2318
0.00989686
0.00871731
0.00800025
0.00740903
0.00691743
0.0065054
0.0061578
0.00586257
0.00561066
0.00539442
0.00520795
0.00504793
0.00488824
0.00477253
0.00466672
0.004565
0.0046443
0.0182045
0.21993
3.00232
21.6203
41.3784
0.00967328
0.00851367
0.00781488
0.00723879
0.00675985
0.00635852
0.00602006
0.00573274
0.00548775
0.00527765
0.00509674
0.00494176
0.00478818
0.00467594
0.00457493
0.00448036
0.0045004
0.0159324
0.181034
2.97932
22.0878
42.5504
0.00942905
0.00828904
0.00760899
0.00704853
0.00658277
0.00619268
0.00586391
0.00558506
0.00534756
0.00514423
0.00496953
0.00482037
0.0046721
0.00456672
0.00447158
0.00438251
0.00435119
0.0138865
0.161084
2.9858
22.6057
43.6698
0.00922308
0.00809943
0.00743458
0.00688674
0.00643154
0.00605038
0.0057292
0.0054569
0.00522509
0.00502677
0.00485655
0.0047114
0.00456858
0.00446555
0.00437447
0.00429173
0.00427689
0.0139877
0.180492
3.09243
23.2371
44.7472
0.00900241
0.00789582
0.00724743
0.00671331
0.00626969
0.00589839
0.00558571
0.00532083
0.00509557
0.00490313
0.00473829
0.00459811
0.00445955
0.00436338
0.00427529
0.00419947
0.00603004
0.0230258
0.28621
3.39409
24.0828
45.7945
0.00882396
0.00773117
0.00709561
0.0065721
0.00613731
0.00577343
0.005467
0.00520746
0.00498678
0.0047983
0.00463694
0.00449983
0.00436619
0.00427101
0.0041909
0.0051626
0.0342941
0.0792164
0.600244
4.03162
25.2683
46.8732
0.00862981
0.00755196
0.00693092
0.00641953
0.00599494
0.00563977
0.00534083
0.00508783
0.0048729
0.00468958
0.00453287
0.00440002
0.00427022
0.00414095
0.00539259
0.0268453
0.173353
0.295064
1.28766
5.15781
26.9268
48.0153
0.00847513
0.00740908
0.00679903
0.00629668
0.00587961
0.00553071
0.00523705
0.00498851
0.00477737
0.0045973
0.00444342
0.00431324
0.0041888
0.00427095
0.025064
0.146245
0.507547
0.775444
2.36922
6.83188
29.1551
49.2846
0.00830568
0.00725261
0.00665529
0.00616357
0.00575546
0.0054142
0.0051271
0.00488428
0.00467816
0.00450257
0.0043527
0.00422706
0.00407523
0.00947407
0.111038
0.41082
0.975656
1.45597
3.62571
8.94728
31.9796
50.6975
0.00817067
0.00712792
0.00654016
0.00605629
0.00565467
0.00531881
0.00503622
0.0047972
0.00459429
0.00442142
0.00427391
0.0041517
0.00415376
0.0476322
0.302749
0.742729
1.40907
2.12744
4.79837
11.2833
35.3447
52.295
0.00802152
0.00699025
0.00641384
0.00593944
0.00554579
0.00521672
0.00493998
0.00470602
0.00450755
0.00433861
0.00419459
0.00403768
0.00832502
0.157695
0.540579
1.02432
1.72889
2.65913
5.77246
13.6222
39.1382
54.0597
0.00790064
0.00687862
0.00631077
0.00584339
0.00545555
0.00513131
0.00485861
0.00462806
0.00443246
0.00426598
0.00412409
0.00388175
0.0363738
0.315991
0.7385
1.22177
1.94612
3.04268
6.54908
15.8171
43.2207
56.0037
0.00776923
0.00675725
0.00619943
0.00574041
0.00535961
0.00504135
0.00477378
0.00454767
0.00435595
0.00419287
0.00405398
0.00426289
0.107758
0.464641
0.87952
1.35533
2.09397
3.31583
7.16857
17.7967
47.4578
58.0812
0.00766018
0.00665659
0.00610649
0.0056538
0.00527824
0.00496435
0.00470042
0.00447739
0.00428828
0.00412744
0.00399054
0.0094316
0.205485
0.578846
0.976763
1.44786
2.19818
3.51571
7.67252
19.5417
51.7329
60.2902
0.00754422
0.00654951
0.00600833
0.00556307
0.00519372
0.0048851
0.00462567
0.00440651
0.00422074
0.00406281
0.00392889
0.0316426
0.29969
0.661637
1.04566
1.51473
2.27503
3.66853
8.0936
21.0609
55.9583
62.571
0.00744271
0.00645593
0.00592204
0.00548278
0.00511842
0.00481397
0.00455805
0.00434188
0.00415868
0.00400297
0.00387365
0.0774721
0.376314
0.72194
1.0966
1.56528
2.33447
3.79126
8.45527
22.3746
60.072
64.9213
0.00734008
0.00636102
0.00583497
0.00540221
0.00504328
0.00474341
0.00449139
0.00427854
0.0040982
0.00394497
0.00380983
0.133965
0.434872
0.767402
1.13597
1.6052
2.38265
3.89468
8.77375
23.5071
64.0386
67.2818
0.00724546
0.00627389
0.00575468
0.00532757
0.00497336
0.00467746
0.0044288
0.00421884
0.00404098
0.00388993
0.00427744
0.187257
0.479459
0.803101
1.16768
1.63805
2.42354
3.9857
9.06001
24.4812
67.8419
69.6617
0.00715522
0.00619037
0.00567804
0.00525659
0.00490707
0.00461509
0.00436972
0.00416253
0.00398702
0.00383806
0.00986593
0.232363
0.51431
0.832265
1.19423
1.66617
2.4598
4.06872
9.32129
25.3179
71.4855
72.0102
0.00706446
0.00610696
0.00560135
0.0051855
0.0048407
0.00455273
0.00431078
0.00410656
0.00393364
0.00378743
0.0276699
0.269187
0.542542
0.856936
1.21724
1.69117
2.49331
4.1464
9.56229
26.0358
74.9862
74.3523
0.00698515
0.00603334
0.00553363
0.00512259
0.00478174
0.00449703
0.0042578
0.00405584
0.00388484
0.00374236
0.0564447
0.299232
0.566237
0.878462
1.23785
1.71417
2.52536
4.22025
9.78593
26.6511
78.3765
76.6493
0.00689867
0.00595395
0.00546074
0.00505516
0.00471893
0.00443818
0.00420235
0.00400337
0.00383495
0.00370259
0.0876803
0.324096
0.586761
0.89776
1.25687
1.736
2.55686
4.29096
9.99413
27.1783
81.6992
78.9445
0.00683038
0.00589044
0.00540221
0.00500061
0.00466759
0.00438942
0.0041557
0.0039584
0.0037914
0.00368406
0.115972
0.345154
0.605021
0.915486
1.27488
1.75726
2.58831
4.35884
10.1881
27.6302
85.01
81.212
0.0067447
0.00581208
0.00533057
0.00493468
0.00460654
0.00433259
0.00410254
0.00390847
0.0037443
0.00364501
0.140142
0.363456
0.621631
0.932114
1.29232
1.77835
2.61991
4.42405
10.3688
28.0179
88.3729
83.5114
0.00668553
0.00575674
0.00527928
0.00488656
0.00456092
0.00428894
0.00406045
0.0038676
0.00370449
0.00383898
0.160797
0.379753
0.637026
0.948
1.30951
1.79951
2.65165
4.48672
10.5371
28.3513
91.8608
85.8273
0.00660182
0.00568032
0.00520959
0.00482262
0.00450194
0.00423429
0.00400956
0.00382004
0.00365993
0.00577144
0.178835
0.394576
0.651517
0.963401
1.32663
1.82087
2.6834
4.54698
10.6935
28.6386
95.5494
88.2307
0.00655214
0.00563358
0.00516602
0.00478141
0.00446249
0.00419612
0.00397236
0.00378352
0.00362435
0.01107
0.19499
0.408294
0.665336
0.978505
1.34382
1.84243
2.71502
4.60501
10.8389
28.8868
99.5155
90.7106
0.00646806
0.00555716
0.00509668
0.00471819
0.00440459
0.00414289
0.0039232
0.00373796
0.00358292
0.0205842
0.209769
0.421169
0.678653
0.993438
1.36112
1.86415
2.74638
4.66095
10.9739
29.1019
103.829
93.3406
0.00642581
0.005517
0.00505883
0.00468197
0.00436948
0.00410852
0.00388932
0.00370438
0.00355181
0.0341372
0.223497
0.433393
0.691596
1.00828
1.37855
1.88595
2.77739
4.71495
11.0993
29.2888
108.551
96.1058
0.00634337
0.00544219
0.00499111
0.00462042
0.00431334
0.00405713
0.00384208
0.00366081
0.0035159
0.0505866
0.236381
0.445103
0.704254
1.02308
1.39605
1.90776
2.80799
4.76713
11.2158
29.4518
113.728
99.0732
0.00630966
0.00540981
0.00496023
0.0045904
0.00428372
0.00402759
0.00381245
0.00363096
0.00349484
0.0685341
0.24856
0.456404
0.716691
1.03785
1.41361
1.92951
2.83815
4.81758
11.3241
29.5954
119.394
102.217
0.00622521
0.00533355
0.00489161
0.00452849
0.00422773
0.00397684
0.00376628
0.00358881
0.00347375
0.0867819
0.260127
0.46737
0.728946
1.05258
1.43116
1.95112
2.86782
4.86634
11.4249
29.7236
125.57
105.592
0.00619835
0.00530724
0.00486599
0.00450299
0.00420197
0.00395058
0.00373944
0.00356137
0.00347852
0.10453
0.271149
0.478055
0.741039
1.06725
1.44864
1.97255
2.89698
4.91345
11.519
29.8404
132.27
109.157
0.00611138
0.00522914
0.00479613
0.00444041
0.00414581
0.0039001
0.00369392
0.00352018
0.00354844
0.121281
0.281669
0.488494
0.752976
1.08185
1.46601
1.99376
2.92561
4.95891
11.6071
29.9495
139.499
112.957
0.00608781
0.00520577
0.00477302
0.00441702
0.0041218
0.00387528
0.00366828
0.00349377
0.0062247
0.136727
0.29171
0.49871
0.76475
1.09633
1.48322
2.01468
2.95368
5.00267
11.6899
30.0538
147.258
116.938
0.00599584
0.00512377
0.00470018
0.00435223
0.00406412
0.00382384
0.00362227
0.00345248
0.0261004
0.1506
0.301282
0.508711
0.776345
1.11065
1.50021
2.03529
2.98114
5.04469
11.7682
30.1551
155.531
121.137
0.00596751
0.0050963
0.0046735
0.00432569
0.00403731
0.00379657
0.0035945
0.00342478
0.0493771
0.162487
0.310381
0.518494
0.787738
1.12477
1.51693
2.05553
3.00795
5.08488
11.8428
30.2539
164.266
125.495
0.00586285
0.00500339
0.00459135
0.00425298
0.00397291
0.00373946
0.00354375
0.00338449
0.0625326
0.17231
0.319002
0.528049
0.7989
1.13865
1.53334
2.07537
3.03405
5.12315
11.9144
30.3496
173.33
130.045
0.00582124
0.00496393
0.00455382
0.00421657
0.00393711
0.00370402
0.00350862
0.00334517
0.0698145
0.18034
0.327139
0.537357
0.809796
1.15223
1.54938
2.09473
3.05936
5.15942
11.9836
30.4407
182.452
134.727
0.00569962
0.00485639
0.00445875
0.00413219
0.003862
0.00363702
0.0034487
0.0034523
0.0742115
0.186912
0.334789
0.546394
0.820395
1.16545
1.56498
2.11358
3.08381
5.1936
12.0508
30.5261
191.155
139.588
0.00561731
0.00478986
0.00440427
0.00408605
0.00382148
0.00360016
0.00341401
0.00384433
0.0770744
0.192321
0.341959
0.555129
0.830659
1.17825
1.5801
2.13182
3.1073
5.22563
12.116
30.6061
198.744
144.654
0.00525489
0.00446057
0.00411229
0.00382673
0.00358949
0.00339097
0.00322368
0.00402063
0.0790337
0.196792
0.348655
0.563525
0.840556
1.19056
1.59466
2.14939
3.12971
5.25556
12.1783
30.6823
204.414
150.447
95.0235
45.3861
30.2609
24.0282
24.0151
20.5728
19.8412
17.703
16.5697
15.972
15.3441
14.5775
15.3511
17.5947
20.7252
23.7019
26.4787
29.1523
31.8002
33.6968
34.7824
35.6379
36.4716
37.1037
37.6696
37.8299
37.4928
36.5683
35.0618
33.7054
34.437
39.9985
6.51298
3.46073
3.00853
94.6475
45.399
30.3067
24.2754
24.4887
20.9336
20.1977
17.9769
16.8104
16.1734
15.4487
14.6829
15.4814
17.7653
20.9211
23.8146
26.5419
29.2881
32.0808
34.2159
35.4953
36.3702
37.1318
37.6851
38.2089
38.3494
38.0054
37.0624
35.5046
34.0583
34.8185
40.6074
6.5443
3.45779
3.0052
93.9266
45.4115
30.3945
24.7733
25.4278
21.6531
20.8883
18.5029
17.2799
16.5728
15.6656
14.8984
15.7533
18.1224
21.3002
24.0422
26.6733
29.524
32.5964
35.2612
37.0099
37.9614
38.5714
38.9362
39.3441
39.4228
39.0553
38.0748
36.4146
34.7863
35.6082
40.2796
6.58547
3.45195
2.99854
92.8104
45.4151
30.5298
25.5423
26.8179
22.7301
21.8852
19.2641
17.9721
17.1664
16.0214
15.2571
16.2077
18.7084
21.9242
24.4766
26.9355
29.9051
33.4092
36.9505
39.5237
40.6596
41.0254
41.0411
41.2075
41.1439
40.7149
39.6719
37.8575
35.9336
36.8522
39.566
6.64221
3.44329
2.98858
91.3035
45.4016
30.7212
26.598
28.637
24.1575
23.164
20.252
18.8813
17.9489
16.5464
15.7979
16.8904
19.5786
22.8702
25.2363
27.4478
30.5316
34.6362
39.4786
43.3532
44.8748
44.8929
44.3155
44.0235
43.6683
43.1003
41.9559
39.9303
37.5691
38.62
38.8911
6.72202
3.43193
2.97532
89.3553
45.3636
30.9807
27.9592
30.8779
25.9385
24.7183
21.4731
20.0132
18.9242
17.2689
16.557
17.8402
20.7839
24.2142
26.4483
28.3843
31.5772
36.4703
43.1341
48.9605
51.2419
50.8253
49.286
48.1641
47.2471
46.3913
45.077
42.7725
39.7924
41.0083
38.5461
6.83368
3.418
2.9588
87.0012
45.295
31.3247
29.6553
33.5522
28.093
26.5634
22.9493
21.3886
20.112
18.22
17.5697
19.0934
22.3913
26.0629
28.2529
29.9575
33.3061
39.2133
48.3275
56.9848
60.6978
59.8578
56.8211
54.2418
52.2821
50.8627
49.2529
46.58
42.7437
44.1474
38.7376
6.98726
3.40165
2.93905
84.2135
45.1903
31.7754
31.7251
36.68
30.6527
28.7316
24.7162
23.0437
21.5495
19.4422
18.879
20.696
24.5064
28.6005
30.8534
32.4208
36.0772
43.3097
55.6288
68.2522
74.521
73.5595
68.3262
63.2577
59.4122
56.9316
54.7969
51.6254
46.6161
48.2071
39.644
7.1945
3.38305
2.9161
81.0699
45.0447
32.3615
34.207
40.2764
33.6524
31.266
26.8203
25.028
23.2917
20.9975
20.5462
22.7135
27.2775
32.1207
34.583
36.1138
40.3549
49.3779
65.7848
83.6809
94.1484
94.0256
85.9352
76.7996
69.6357
65.2219
62.1539
58.2831
51.6713
53.4016
41.4655
7.46932
3.36237
2.89
77.574
44.8542
33.1196
37.1253
44.3397
37.1215
34.2139
29.3155
27.4018
25.411
22.9731
22.6568
25.2321
30.8737
37.0357
39.9732
41.5371
46.7319
58.1938
79.5983
103.858
120.308
123.073
112.282
97.1371
84.4205
76.6288
71.9361
67.0521
58.2551
59.9867
44.4706
7.82847
3.33976
2.86082
73.8369
44.6088
34.0947
40.4758
48.8443
41.0767
37.6204
32.2591
30.2322
27.9961
25.4852
25.3306
28.361
35.4351
43.8156
47.7802
49.398
55.8997
70.5
97.4091
128
151.019
159.439
148.51
126.524
105.556
92.2927
84.9164
78.5519
66.8004
68.237
49.0405
8.29172
3.31536
2.82861
69.8857
44.2961
35.3405
44.216
53.7413
45.519
41.5217
35.7052
33.5855
31.1477
28.6801
28.7241
32.2306
40.9894
52.7559
58.8319
60.4966
68.365
86.3616
118.015
152.77
180.026
195.044
189.191
164.085
133.994
113.207
101.859
93.4206
77.7849
78.3787
55.7097
8.88104
3.2892
2.79347
65.8489
43.9025
36.9171
48.2691
58.9645
50.4347
45.9383
39.6979
37.5175
34.9664
32.7253
33.0334
36.9832
47.3561
63.4541
73.3175
75.1191
83.6711
104.123
137.998
173.122
200.007
218.187
220.192
200.699
166.759
138.943
122.942
111.963
91.5715
90.4381
65.1602
9.61729
3.2612
2.7555
61.7626
43.4135
38.8849
52.5432
64.4407
55.8018
50.8745
44.263
42.0599
39.5347
37.7859
38.4645
42.7374
54.0802
74.2423
89.3255
91.694
99.4461
120.268
153.405
185.847
208.712
224.641
230.524
221.685
194.401
165.571
146.581
133.379
108.014
103.98
78.0537
10.512
3.23105
2.71481
57.7502
42.8142
41.2923
56.9601
70.1011
61.6016
56.3187
49.4034
47.2106
44.8883
43.9721
45.1854
49.5118
60.5111
82.4979
102.137
105.92
111.95
131.689
162.76
191.59
209.348
219.774
223.394
221.379
206.581
185.597
168.416
154.788
125.794
117.796
94.4523
11.551
3.19814
2.67153
53.8399
42.0907
44.16
61.4778
75.8958
67.8086
62.245
55.1043
52.9369
50.9949
51.2705
53.1743
57.1203
66.0597
86.412
107.332
113.236
118.779
138.04
167.515
193.04
206.027
210.41
208.669
207.291
202.141
193.074
182.673
171.328
141.934
129.833
112.681
12.6702
3.1615
2.62581
50.1273
41.235
47.4679
66.0915
81.7895
74.3879
68.6188
61.3413
59.1833
57.7506
59.4747
62.1339
65.1257
70.5065
86.3707
104.996
113.012
120.645
141.229
169.99
192.47
201.061
200.067
192.956
189.155
188.266
188.608
186.123
178.637
152.531
137.759
128.513
13.7354
3.1198
2.5778
46.6135
40.2515
51.1528
70.7857
87.7695
81.2902
75.3961
68.0873
65.8925
65.0033
68.2105
71.4652
72.9416
74.0823
84.3039
98.9018
108.501
120.079
143.37
171.719
190.889
195.078
189.542
178.428
172.105
172.186
177.335
180.154
175.838
154.998
140.091
136.837
14.5564
3.0716
2.52768
43.349
39.1698
55.1167
75.5495
93.8111
88.4381
82.5162
75.3111
73.0201
72.6046
77.0456
80.5392
80.1673
77.3106
82.1142
92.6492
103.353
119.439
145.774
173.202
188.382
187.954
178.619
165.151
157.481
157.485
164.041
168.628
165.556
149.736
136.964
135.43
14.952
3.01566
2.47564
40.3033
38.0561
59.1994
80.3919
99.8701
95.7199
89.8935
82.9564
80.5405
80.4604
85.6934
88.99
86.8062
80.7767
81.0273
88.1618
99.7383
120.112
148.888
174.267
184.641
179.49
167.096
152.746
145.072
145.042
151.211
154.954
151.476
139.383
129.804
126.196
14.8272
2.95132
2.42186
37.4893
37.0135
63.2551
85.2884
105.882
102.994
97.4143
90.9381
88.4321
88.5523
94.1314
96.9673
93.3221
85.0278
81.6384
86.0709
98.5104
122.706
152.681
174.511
179.38
169.705
155.088
141.006
134.348
134.587
139.562
141.077
136.421
126.868
120.368
112.726
14.2047
2.8787
2.36658
34.8769
36.1306
67.188
90.1843
111.767
110.11
104.944
99.1359
96.6597
96.9121
102.554
104.944
100.376
90.5554
84.2619
86.5336
99.93
127.382
156.844
173.539
172.493
158.861
142.961
129.953
124.871
125.564
128.987
127.809
121.961
114.215
110.028
97.914
13.1982
2.79871
2.31
32.4767
35.495
70.924
95.0023
117.442
116.923
112.341
107.402
105.157
105.58
111.255
113.524
108.658
97.8494
89.0956
89.5622
104.076
134.111
161.051
171.111
164.119
147.391
131.151
119.714
116.353
117.46
119.15
115.398
108.759
102.435
99.5904
83.4212
11.9603
2.71283
2.25236
30.2708
35.1937
74.4088
99.6503
122.825
123.316
119.473
115.584
113.83
114.564
120.427
123.12
118.646
107.394
96.4192
95.2848
111.074
142.778
164.98
167.176
154.585
135.785
120.035
110.394
108.603
109.889
109.761
103.893
96.9883
91.8485
89.4274
70.0472
10.6366
2.62278
2.19389
28.2673
35.3153
77.6114
104.031
127.843
129.2
126.227
123.541
122.571
123.841
130.172
133.983
130.641
119.644
106.613
103.939
121.123
153.25
168.448
161.884
144.35
124.505
109.861
102.029
101.478
102.597
100.665
93.303
86.5955
82.4278
79.6747
58.1361
9.33906
2.53029
2.1348
26.4614
35.9472
80.5237
108.058
132.439
134.525
132.523
131.166
131.272
133.378
140.543
146.198
144.783
134.961
120.259
116.017
134.542
165.34
171.317
155.537
133.907
113.916
100.749
94.5764
94.8543
95.4431
91.837
83.6345
77.4372
74.0045
70.3816
47.8013
8.13933
2.43689
2.07533
24.8623
37.1697
83.1562
111.665
136.58
139.274
138.319
138.399
139.864
143.151
151.609
159.921
161.338
153.717
138.021
132.185
151.69
178.793
173.547
148.537
123.723
104.26
92.7056
87.939
88.6187
88.3726
83.3446
74.8878
69.345
66.3861
61.5931
39.0262
7.07345
2.34385
2.01568
23.4808
39.0475
85.5299
114.824
140.259
143.471
143.614
145.231
148.336
153.206
163.521
175.448
180.867
176.564
160.739
153.37
172.913
193.152
175.015
141.28
114.16
95.6547
85.6633
81.9904
82.6756
81.4018
75.2983
67.0444
62.155
59.4067
53.3755
31.7113
6.15172
2.25209
1.95604
22.3333
41.622
87.6671
117.538
143.497
147.166
148.448
151.704
156.737
163.664
176.558
193.371
204.479
204.821
189.477
180.521
198.285
207.717
175.579
134.101
105.459
88.1126
79.5083
76.5992
76.9561
74.5945
67.8066
60.0602
55.7199
52.9475
45.8094
25.7064
5.36854
2.1623
1.89661
21.4546
44.9029
89.5853
119.839
146.334
150.429
152.89
157.901
165.174
174.728
191.14
214.586
233.915
240.718
225.913
214.616
227.365
221.433
174.945
127.197
97.7219
81.5678
74.1072
71.6431
71.4216
68.04
60.9494
53.8688
49.9161
46.938
38.9674
20.8364
4.71006
2.07489
1.83755
20.8892
48.8576
91.2972
121.772
148.824
153.34
157.029
163.936
173.812
186.683
207.851
240.377
271.629
287.327
272.135
256.101
258.714
232.97
172.851
120.644
90.9427
75.9072
69.3228
67.0212
66.0658
61.8315
54.7655
48.3891
44.6446
41.3488
32.8952
16.922
4.15931
1.99011
1.779
20.7351
53.4006
92.8118
123.392
151.025
155.98
160.965
169.95
182.861
199.907
227.449
272.355
320.422
347.544
329.602
304.132
289.613
240.825
169.016
114.387
85.0255
70.9921
65.0278
62.6564
60.9077
56.0486
49.2543
43.5343
39.8308
36.1781
27.6016
13.7942
3.69924
1.9081
1.72111
21.1259
58.389
94.1384
124.754
153.003
158.431
164.811
176.108
192.591
214.878
250.891
312.439
382.423
421.071
395.83
354.478
315.853
243.679
163.361
108.325
79.8301
66.6789
61.11
58.4987
55.9836
50.7463
44.3837
39.2191
35.4214
31.438
23.0595
11.3031
3.31422
1.82889
1.664
22.2957
63.6322
95.2903
125.914
154.821
160.775
168.689
182.608
203.339
232.214
279.384
362.549
456.595
499.323
460.264
398.233
332.559
240.707
155.924
102.338
75.1929
62.83
57.4769
54.5205
51.3344
45.951
40.1012
35.3654
31.3803
27.1418
19.2137
9.32042
2.99071
1.75245
1.60777
24.5223
68.9173
96.2855
126.924
156.546
163.101
172.746
189.701
215.547
252.73
314.455
424.069
535.408
563.298
504.452
423.575
335.883
231.94
146.985
96.3505
70.961
59.3238
54.0559
50.7133
46.9969
41.6622
36.3437
31.905
27.6841
23.2959
15.9916
7.74044
2.7173
1.67873
1.55252
28.1637
74.0411
97.1452
127.829
158.249
165.511
177.163
197.721
229.832
277.575
358.064
496.353
603.299
592.522
513.27
423.131
325.238
218.27
136.899
90.327
67.0002
56.0575
50.7941
47.0799
42.9963
37.8581
33.0451
28.7809
24.317
19.895
13.3134
6.47751
2.48461
1.60765
1.49833
33.4954
78.8397
97.8908
128.673
160.008
168.128
182.188
207.15
247.114
308.467
412.609
573.988
642.187
580.321
487.098
399.255
303.582
201.213
126.121
84.2841
63.2125
52.9518
47.6555
43.6289
39.3432
34.502
30.1421
25.947
21.2672
16.9216
11.0994
5.4635
2.285
1.53914
1.44529
40.701
83.2065
98.5418
129.496
161.919
171.124
188.187
218.748
268.873
348.098
480.192
643.054
641.731
536.665
439.73
361.658
275.704
182.361
115.044
78.2609
59.531
49.9495
44.619
40.3687
36.0334
31.5491
27.5768
23.3672
18.5237
14.3483
9.27525
4.64476
2.11231
1.47314
1.39345
49.6321
87.0995
99.1157
130.343
164.109
174.751
195.744
233.788
297.637
400.612
559.235
682.386
604.626
477.228
385.729
319.799
245.748
163.026
104.03
72.3202
55.9239
47.0161
41.675
37.3045
33.0503
28.9513
25.2986
21.0138
16.074
12.1405
7.77481
3.97938
1.96158
1.40958
1.34288
59.8743
90.535
99.6283
131.267
166.763
179.416
205.855
254.551
337.846
471.168
636.084
674.881
542.012
413.923
333.751
279.386
216.272
144.061
93.3364
66.5291
52.3832
44.1363
38.8229
34.4362
30.3684
26.661
23.2642
18.8659
13.9032
10.2602
6.5408
3.43475
1.82883
1.3484
1.29365
70.5911
93.5757
100.096
132.344
170.176
185.819
220.335
285.304
396.882
560.234
679.394
620.449
467.146
353.383
286.958
242.42
188.332
125.953
83.1722
60.9619
48.9221
41.3118
36.0687
31.7595
27.9565
24.633
21.4374
16.9075
11.9941
8.66815
5.52491
2.98552
1.71086
1.28959
1.24581
80.9187
96.3078
100.537
133.692
174.86
195.269
242.706
334.042
483.208
644.89
659.077
534.473
391.07
298.751
246.022
209.216
162.195
108.932
73.6715
55.6877
45.5649
38.5564
33.4239
29.267
25.7815
22.8265
19.788
15.126
10.3275
7.32652
4.68697
2.612
1.60508
1.23311
1.19943
89.3733
98.8279
100.979
135.513
181.791
210.414
280.068
413.211
586.98
667.855
576.372
437.409
321.202
251.359
210.773
179.463
137.795
93.1175
64.9384
50.7708
42.3442
35.8927
30.9047
26.9515
23.811
21.2044
18.2908
13.5112
8.88236
6.20008
3.99402
2.29887
1.50942
1.17895
1.15457
95.1437
101.254
101.467
138.193
193.026
237.017
345.547
522.089
638.034
593.187
461.183
345.433
261.034
211.367
180.957
153.052
115.169
78.5912
57.0223
46.2553
39.2916
33.3473
28.5308
24.8084
22.0161
19.7343
16.9245
12.0534
7.63729
5.257
3.41918
2.03418
1.42218
1.12709
1.11126
0.00337789
0.00250553
0.002279
0.00216805
0.00212775
0.00213155
0.00216333
0.00407532
0.0800743
0.199572
0.353316
0.56947
0.847528
1.19914
1.60479
2.1616
3.1452
5.2761
12.2217
30.7403
206.674
160.168
0.00334448
0.00224261
0.00184288
0.00160747
0.00148686
0.00144957
0.00148178
0.00410474
0.0805869
0.201077
0.355991
0.572761
0.85117
1.20345
1.60976
2.16757
3.15293
5.28697
12.2479
30.7838
207.604
170.305
0.00354052
0.00237581
0.00188219
0.00154477
0.00132332
0.00119307
0.00116261
0.00412549
0.0809233
0.202179
0.358076
0.575157
0.853535
1.206
1.61254
2.17085
3.15736
5.29395
12.2675
30.8285
207.685
179.983
0.00367089
0.0025174
0.00200375
0.00162962
0.00135798
0.00116692
0.00103221
0.00413964
0.0811082
0.202904
0.359568
0.576642
0.854595
1.20678
1.61308
2.17139
3.15838
5.29684
12.2788
30.875
206.981
189.069
0.00392263
0.00276387
0.00222615
0.00182173
0.0015138
0.00127962
0.00099809
0.00414851
0.0811565
0.203269
0.36046
0.577202
0.854333
1.20576
1.61136
2.16915
3.1559
5.29547
12.2804
30.9236
205.535
198.023
0.0040603
0.0029297
0.00239825
0.00199164
0.00167465
0.00142456
0.000986835
0.00415294
0.0810765
0.203284
0.360749
0.57683
0.85274
1.20294
1.60737
2.16411
3.14987
5.28967
12.2707
30.9746
203.381
207.017
0.00434054
0.00320792
0.00265921
0.00223293
0.00189537
0.00162383
0.00105575
0.0041534
0.0808733
0.202955
0.360434
0.575525
0.849815
1.19833
1.60113
2.15624
3.14023
5.27931
12.2483
31.0275
200.559
216.047
0.00447867
0.00337925
0.00284365
0.002423
0.00208587
0.00181057
0.00118233
0.00414998
0.0805499
0.20229
0.35952
0.573292
0.845573
1.19195
1.59264
2.14556
3.12692
5.26424
12.2121
31.0815
197.115
225.052
0.0047841
0.00368457
0.0031343
0.00269636
0.00234131
0.00204811
0.00130695
0.00414244
0.0801077
0.201292
0.358015
0.570147
0.840038
1.18383
1.58194
2.13208
3.1099
5.24435
12.1611
31.1352
193.108
233.963
0.00490879
0.00384886
0.00331928
0.0028942
0.00254628
0.0022556
0.00139736
0.00413035
0.0795476
0.19997
0.355936
0.566111
0.833245
1.174
1.5691
2.11584
3.08915
5.21952
12.0944
31.1862
188.598
242.694
0.00522944
0.00417117
0.00362972
0.00318992
0.00282639
0.00252006
0.00151135
0.0041132
0.0788695
0.198329
0.353303
0.561215
0.825242
1.16254
1.55417
2.09687
3.06465
5.18963
12.0114
31.2313
183.65
251.135
0.00533939
0.00432471
0.00380966
0.00338863
0.003038
0.00273974
0.00163095
0.00409023
0.078072
0.19638
0.35014
0.555497
0.816085
1.1495
1.53724
2.07526
3.03637
5.15458
11.9116
31.2664
178.331
259.152
0.00567213
0.00466085
0.00413642
0.00370282
0.00333842
0.00302618
0.00183529
0.00406059
0.0771526
0.194129
0.346475
0.549003
0.805839
1.13497
1.51841
2.05108
3.00433
5.11423
11.7948
31.2861
172.711
266.597
0.00575636
0.00479293
0.00430096
0.00389252
0.00354732
0.00324927
0.00211298
0.00402296
0.0761056
0.191586
0.342337
0.541782
0.794576
1.11903
1.49777
2.02446
2.96855
5.06847
11.6608
31.2842
166.855
273.317
0.00609211
0.00513323
0.00463401
0.00421503
0.00385799
0.00354791
0.00251741
0.00397578
0.0749222
0.188756
0.337755
0.533892
0.782374
1.10179
1.47545
1.9955
2.92908
5.01715
11.5096
31.2535
160.828
279.164
0.00615227
0.00524299
0.00477999
0.00439064
0.00405759
0.00376665
0.00298353
0.00391634
0.0735873
0.185641
0.332755
0.525391
0.769318
1.08334
1.45158
1.96436
2.88602
4.96012
11.3412
31.1858
154.691
284.006
0.00648675
0.005583
0.0051145
0.00471622
0.00437277
0.00407116
0.0034958
0.00384157
0.072078
0.182239
0.32736
0.51634
0.755493
1.06378
1.42628
1.93119
2.83946
4.89723
11.156
31.0725
148.499
287.732
0.00651845
0.0056655
0.00523636
0.00487158
0.00455639
0.00427839
0.00389226
0.00374551
0.0703595
0.178537
0.321589
0.506799
0.740991
1.04324
1.39969
1.89615
2.78956
4.82832
10.9543
30.9044
142.298
290.26
0.006839
0.00599237
0.00555953
0.00518767
0.00486388
0.00457707
0.00426895
0.00362738
0.0683801
0.174508
0.315449
0.496825
0.725902
1.02182
1.37195
1.85943
2.73649
4.75326
10.7367
30.6723
136.131
291.532
0.00685359
0.00605579
0.00566219
0.00532466
0.00503067
0.00476952
0.00452427
0.0034961
0.0660644
0.170106
0.308936
0.48647
0.710319
0.999633
1.34319
1.8212
2.68046
4.67192
10.5038
30.3673
130.031
291.517
0.00716008
0.00636933
0.00597352
0.00563031
0.00532896
0.00506004
0.00481946
0.00341801
0.0633046
0.165259
0.302025
0.475774
0.69433
0.976796
1.31356
1.78166
2.6217
4.5842
10.2565
29.9813
124.025
290.202
0.00715672
0.00641255
0.00605544
0.00574696
0.00547648
0.00523478
0.00502
0.00356944
0.0599499
0.159854
0.294666
0.464761
0.678022
0.953421
1.28319
1.74098
2.56046
4.49006
9.99553
29.5069
118.135
287.591
0.00744654
0.00670959
0.0063512
0.006038
0.00576108
0.00551243
0.00528922
0.0040413
0.0557979
0.153726
0.286772
0.453431
0.661469
0.929621
1.25221
1.69935
2.49703
4.38951
9.722
28.9386
112.375
283.702
0.00743064
0.00673706
0.00641564
0.00613631
0.00589007
0.00566899
0.00546836
0.00463856
0.0505948
0.146642
0.2782
0.441748
0.64473
0.905506
1.22075
1.65695
2.4317
4.28261
9.43693
28.2728
106.754
278.56
0.00770414
0.00701771
0.00669564
0.00641226
0.00616016
0.00593261
0.00572455
0.00523329
0.0440798
0.138274
0.268738
0.429625
0.627837
0.88118
1.18893
1.61396
2.36478
4.16953
9.14143
27.5082
101.277
272.199
0.00767679
0.00703045
0.00674334
0.00649259
0.00627057
0.00607048
0.00588647
0.00561433
0.0361317
0.128188
0.258073
0.416902
0.61078
0.856735
1.15688
1.57056
2.2966
4.05054
8.83657
26.6461
95.945
264.661
0.00793327
0.0072937
0.00700622
0.00675181
0.00652432
0.00631807
0.00612793
0.00592212
0.0270964
0.115864
0.245757
0.40332
0.593486
0.832241
1.12472
1.52689
2.22748
3.92599
8.52344
25.6906
90.7543
255.998
0.00789957
0.00729641
0.00704131
0.00681757
0.00661875
0.00643901
0.00627292
0.00610917
0.0181313
0.100799
0.231173
0.388477
0.575791
0.807724
1.09253
1.48314
2.15778
3.79637
8.20308
24.6489
85.6985
246.273
0.00814115
0.00754426
0.00728885
0.00706164
0.00685754
0.00667173
0.00649976
0.00633575
0.0111708
0.0828159
0.213504
0.371785
0.557395
0.783143
1.06041
1.43945
2.08786
3.66233
7.87647
23.5306
80.769
235.565
0.00810339
0.00753941
0.00731377
0.00711518
0.00693816
0.0067777
0.00662903
0.00648706
0.00751628
0.0626288
0.191774
0.352404
0.537816
0.75834
1.02838
1.39595
2.0181
3.52465
7.54459
22.3478
75.954
223.969
0.0083302
0.00777192
0.00754597
0.00734404
0.0071619
0.0069955
0.00684102
0.00669465
0.00654562
0.0423648
0.165076
0.329168
0.516321
0.732994
0.996408
1.35276
1.94887
3.38427
7.20847
21.1147
71.2408
211.601
0.00829267
0.0077638
0.00756482
0.00738913
0.0072321
0.00708941
0.00695695
0.00683067
0.0065884
0.0252241
0.133175
0.300566
0.491834
0.706539
0.964305
1.30992
1.88057
3.24232
6.86922
19.8468
66.6154
198.594
0.00850598
0.00798227
0.00778296
0.0076041
0.00744214
0.00729366
0.00715544
0.00702441
0.00684226
0.0139954
0.0976312
0.264895
0.462821
0.678087
0.931694
1.26739
1.81351
3.10009
6.52818
18.5605
62.0656
185.101
0.00847103
0.00797347
0.00779842
0.00764342
0.00750452
0.00737802
0.00726034
0.00714806
0.00702042
0.00873942
0.0627907
0.220916
0.427184
0.646302
0.897898
1.22496
1.74798
2.95899
6.18703
17.2721
57.5817
171.29
0.00867162
0.00817873
0.00800334
0.00784533
0.00770175
0.00756968
0.00744637
0.00732924
0.00721022
0.00713842
0.0348179
0.169381
0.382321
0.60926
0.86184
1.18218
1.68408
2.8205
5.84787
15.9979
53.1611
157.335
0.00864159
0.00817179
0.00801803
0.00788152
0.00775888
0.00764693
0.00754257
0.00744279
0.00734279
0.00695892
0.0177473
0.115093
0.325753
0.564266
0.821891
1.13826
1.62169
2.68601
5.51328
14.7532
48.8087
143.42
0.00883157
0.00836595
0.00821178
0.00807238
0.00794525
0.00782792
0.00771803
0.00761336
0.00751081
0.00720431
0.0102882
0.0671765
0.257046
0.507869
0.775682
1.09197
1.56036
2.55671
5.18624
13.5523
44.5414
129.723
0.00880915
0.00836382
0.00822882
0.00810862
0.00800034
0.00790123
0.00780859
0.00771977
0.00763179