/*--------------------------------*- C++ -*----------------------------------*\
| =========                 |                                                 |
| \\      /  F ield         | OpenFOAM: The Open Source CFD Toolbox           |
|  \\    /   O peration     | Version:  v1912                                 |
|   \\  /    A nd           | Website:  www.openfoam.com                      |
|    \\/     M anipulation  |                                                 |
\*---------------------------------------------------------------------------*/
FoamFile
{
    version     2.0;
    format      ascii;
    class       volScalarField;
    location    "450";
    object      p;
}
// * * * * * * * * * * * * * * * * * * * * * * * * * * * * * * * * * * * * * //

dimensions      [0 2 -2 0 0 0 0];


internalField   nonuniform List<scalar> 
12441
(
8.96953
9.27159
10.1333
11.4714
13.2035
15.3765
18.0858
21.4336
25.6005
30.7522
37.0814
44.8402
54.5201
66.3363
81.9875
101.564
129.809
165.157
222.565
285.271
376.158
438.398
8.96952
9.27158
10.1332
11.4714
13.2035
15.3765
18.0857
21.4335
25.6004
30.752
37.081
44.8396
54.5191
66.3346
81.9845
101.557
129.793
165.132
222.484
285.196
376.111
438.206
8.96951
9.27156
10.1332
11.4714
13.2035
15.3764
18.0856
21.4333
25.6001
30.7515
37.0803
44.8384
54.5172
66.3311
81.9784
101.543
129.768
165.075
222.316
285.016
375.981
437.857
8.96948
9.27154
10.1332
11.4713
13.2034
15.3763
18.0854
21.433
25.5996
30.7508
37.0792
44.8366
54.5142
66.3259
81.9694
101.522
129.735
164.988
222.139
284.74
375.746
437.314
8.96945
9.2715
10.1331
11.4713
13.2033
15.3761
18.0852
21.4326
25.5991
30.7498
37.0778
44.8342
54.5103
66.319
81.9574
101.495
129.691
164.879
221.974
284.393
375.413
436.573
8.96941
9.27146
10.1331
11.4712
13.2031
15.3759
18.0849
21.4321
25.5983
30.7487
37.0759
44.8312
54.5054
66.3103
81.9424
101.461
129.637
164.751
221.788
283.974
374.99
435.636
8.96936
9.2714
10.133
11.4711
13.203
15.3757
18.0845
21.4315
25.5974
30.7473
37.0737
44.8277
54.4995
66.2999
81.9245
101.421
129.573
164.601
221.57
283.486
374.479
434.501
8.96931
9.27134
10.1329
11.4709
13.2028
15.3754
18.0841
21.4308
25.5964
30.7456
37.0712
44.8235
54.4927
66.2878
81.9036
101.375
129.503
164.429
221.333
282.941
373.886
433.166
8.96925
9.27127
10.1328
11.4708
13.2026
15.3751
18.0836
21.4301
25.5952
30.7438
37.0683
44.8187
54.4848
66.274
81.8803
101.325
129.431
164.246
221.096
282.349
373.215
431.626
8.96918
9.27119
10.1327
11.4706
13.2023
15.3747
18.0831
21.4292
25.5939
30.7417
37.065
44.8133
54.476
66.2587
81.8558
101.274
129.364
164.06
220.885
281.722
372.465
429.876
8.9691
9.2711
10.1326
11.4705
13.2021
15.3743
18.0825
21.4282
25.5924
30.7393
37.0614
44.8073
54.4662
66.242
81.8316
101.23
129.319
163.895
220.733
281.07
371.634
427.909
8.96901
9.271
10.1325
11.4703
13.2018
15.3739
18.0818
21.4271
25.5908
30.7367
37.0574
44.8008
54.4556
66.2251
81.8117
101.205
129.332
163.787
220.671
280.397
370.716
425.716
8.96891
9.27089
10.1323
11.4701
13.2015
15.3734
18.0811
21.4259
25.589
30.7339
37.053
44.7936
54.4442
66.2102
81.8069
101.223
129.453
163.788
220.708
279.695
369.702
423.284
8.96881
9.27077
10.1322
11.4698
13.2011
15.3729
18.0803
21.4246
25.5871
30.7309
37.0482
44.7859
54.4329
66.2029
81.8351
101.318
129.732
163.939
220.814
278.945
368.583
420.601
8.9687
9.27065
10.132
11.4696
13.2008
15.3723
18.0795
21.4232
25.585
30.7276
37.0431
44.7776
54.4234
66.213
81.9169
101.516
130.193
164.244
220.925
278.123
367.35
417.654
8.96858
9.27051
10.1318
11.4693
13.2004
15.3717
18.0786
21.4217
25.5828
30.7241
37.0376
44.7689
54.4191
66.253
82.0686
101.826
130.813
164.647
220.965
277.201
365.992
414.428
8.96846
9.27037
10.1317
11.469
13.1999
15.3711
18.0776
21.4201
25.5804
30.7203
37.0317
44.7606
54.426
66.3332
82.294
102.234
131.515
165.042
220.872
276.161
364.504
410.909
8.96832
9.27021
10.1315
11.4687
13.1995
15.3704
18.0766
21.4184
25.5779
30.7163
37.0254
44.7539
54.4521
66.4583
82.5831
102.702
132.181
165.313
220.618
274.992
362.879
407.083
8.96818
9.27005
10.1312
11.4684
13.199
15.3697
18.0755
21.4167
25.5752
30.7121
37.0187
44.7511
54.5036
66.6235
82.912
103.172
132.688
165.383
220.205
273.691
361.113
402.933
8.96803
9.26988
10.131
11.4681
13.1985
15.3689
18.0743
21.4148
25.5724
30.7076
37.0116
44.7562
54.5826
66.8176
83.2476
103.576
132.94
165.237
219.657
272.261
359.205
398.445
8.96787
9.2697
10.1308
11.4677
13.198
15.3681
18.0731
21.4128
25.5694
30.7029
37.0045
44.7738
54.6856
67.0242
83.5524
103.857
132.906
164.918
219.005
270.71
357.153
393.602
8.96771
9.26951
10.1305
11.4674
13.1974
15.3673
18.0719
21.4107
25.5663
30.6979
36.9979
44.8072
54.8048
67.2264
83.7929
103.982
132.623
164.49
218.279
269.045
354.957
388.388
8.96753
9.26932
10.1303
11.467
13.1969
15.3664
18.0706
21.4085
25.563
30.6926
36.9929
44.8568
54.9309
67.4069
83.946
103.949
132.172
164.011
217.495
267.275
352.618
382.784
8.96735
9.26911
10.13
11.4666
13.1963
15.3655
18.0692
21.4063
25.5596
30.687
36.9912
44.9199
55.0542
67.5533
84.0049
103.783
131.646
163.517
216.665
265.409
350.14
376.772
8.96716
9.26889
10.1297
11.4661
13.1956
15.3646
18.0677
21.4039
25.556
30.6811
36.9951
44.9916
55.1675
67.6559
83.9773
103.527
131.118
163.019
215.794
263.457
347.524
370.333
8.96697
9.26867
10.1294
11.4657
13.195
15.3636
18.0662
21.4014
25.5523
30.675
37.0064
45.0667
55.2644
67.7136
83.8825
103.227
130.626
162.515
214.883
261.429
344.773
363.445
8.96676
9.26844
10.1291
11.4652
13.1943
15.3626
18.0647
21.3988
25.5484
30.6688
37.026
45.1404
55.342
67.7281
83.743
102.915
130.18
161.999
213.931
259.333
341.89
356.086
8.96655
9.26819
10.1288
11.4648
13.1936
15.3615
18.063
21.3961
25.5443
30.6626
37.0533
45.2088
55.3978
67.7076
83.5799
102.615
129.775
161.463
212.938
257.179
338.876
348.231
8.96633
9.26794
10.1285
11.4643
13.1928
15.3604
18.0614
21.3934
25.5401
30.6567
37.0862
45.2693
55.4328
67.6594
83.4088
102.334
129.397
160.906
211.903
254.973
335.73
339.854
8.9661
9.26768
10.1281
11.4638
13.1921
15.3592
18.0596
21.3905
25.5357
30.6512
37.1225
45.3201
55.4477
67.5933
83.2398
102.073
129.035
160.326
210.825
252.72
332.452
330.926
8.96586
9.26741
10.1278
11.4632
13.1913
15.358
18.0578
21.3875
25.5311
30.6463
37.16
45.3604
55.4459
67.5152
83.0773
101.83
128.679
159.722
209.706
250.421
329.036
321.418
8.96562
9.26714
10.1274
11.4627
13.1905
15.3568
18.0559
21.3844
25.5263
30.6426
37.1972
45.3901
55.4297
67.4316
82.9233
101.599
128.324
159.098
208.543
248.077
325.475
311.295
8.96537
9.26685
10.127
11.4621
13.1896
15.3555
18.054
21.3812
25.5214
30.6404
37.2327
45.4093
55.4029
67.345
82.7767
101.376
127.967
158.453
207.339
245.688
321.761
300.523
8.96511
9.26655
10.1266
11.4615
13.1887
15.3542
18.052
21.3779
25.5163
30.6404
37.2656
45.4191
55.3675
67.2587
82.6366
101.158
127.604
157.79
206.094
243.253
317.883
289.065
8.96484
9.26625
10.1262
11.4609
13.1879
15.3529
18.05
21.3745
25.511
30.6431
37.2952
45.4204
55.3266
67.1726
82.5011
100.941
127.236
157.11
204.807
240.772
313.829
276.881
8.96456
9.26593
10.1258
11.4603
13.1869
15.3515
18.0479
21.371
25.5056
30.6493
37.3213
45.4145
55.2814
67.0887
82.3692
100.726
126.862
156.414
203.479
238.246
309.586
263.929
8.96428
9.26561
10.1254
11.4597
13.186
15.3501
18.0457
21.3674
25.5001
30.6601
37.3441
45.4027
55.234
67.0059
82.2392
100.509
126.482
155.703
202.112
235.677
305.144
250.165
8.96399
9.26528
10.125
11.459
13.185
15.3486
18.0435
21.3637
25.4949
30.6778
37.364
45.3862
55.1848
66.9254
82.1108
100.291
126.096
154.979
200.707
233.071
300.492
235.543
8.96369
9.26494
10.1245
11.4584
13.184
15.3471
18.0412
21.3598
25.4915
30.7036
37.3815
45.3661
55.1353
66.8459
81.9829
100.071
125.705
154.242
199.265
230.433
295.623
220.013
8.96338
9.26459
10.1241
11.4577
13.183
15.3455
18.0389
21.3559
25.494
30.738
37.3969
45.3436
55.0851
66.7688
81.8555
99.8488
125.31
153.494
197.789
227.768
290.531
203.524
8.96307
9.26423
10.1236
11.457
13.1819
15.344
18.0365
21.3518
25.5089
30.7813
37.4102
45.3193
55.0353
66.6928
81.7281
99.6254
124.911
152.734
196.284
225.08
285.215
186.02
8.96274
9.26386
10.1231
11.4563
13.1809
15.3423
18.034
21.3479
25.5422
30.8327
37.4214
45.2941
54.985
66.6197
81.6013
99.401
124.508
151.964
194.754
222.373
279.671
167.454
8.96241
9.26349
10.1226
11.4555
13.1798
15.3407
18.0314
21.3451
25.5979
30.8908
37.4301
45.2688
54.9349
66.5482
81.4745
99.1756
124.102
151.181
193.202
219.642
273.876
147.74
8.96207
9.2631
10.1221
11.4548
13.1786
15.339
18.0288
21.3482
25.675
30.953
37.4361
45.244
54.8844
66.4801
81.3486
98.9503
123.695
150.382
191.637
216.876
267.749
126.131
-19.8492
-21.323
-21.0093
-21.1129
-18.2863
-17.0553
-15.2951
-14.6696
-14.0616
-13.8338
-12.5251
-9.73954
-3.94823
2.08371
4.5506
1.3209
-1.89298
0.688586
7.86076
12.6377
14.3735
12.6694
11.0897
9.58943
8.11853
6.87261
5.46309
3.98411
2.50239
1.02232
1.48739
-3.90028
-3.81824
3.59529
1.02589
-19.8482
-21.3019
-21.0346
-21.1166
-18.2868
-17.0539
-15.2955
-14.6692
-14.0607
-13.8323
-12.5233
-9.73823
-3.94773
2.08388
4.55363
1.32914
-1.88172
0.697617
7.86536
12.6408
14.377
12.673
11.0927
9.5918
8.1204
6.87413
5.46445
3.9855
2.50333
1.02263
1.49293
-3.90039
-3.8434
3.5842
1.02626
-19.8459
-21.2805
-21.0721
-21.1227
-18.2878
-17.0523
-15.2956
-14.6684
-14.0596
-13.8309
-12.5223
-9.73731
-3.94609
2.08691
4.56126
1.34437
-1.85894
0.723015
7.88475
12.6522
14.3846
12.6793
11.0978
9.59585
8.12372
6.87697
5.46702
3.98799
2.50515
1.0235
1.49962
-3.90204
-3.866
3.57315
1.02674
-19.8423
-21.266
-21.1206
-21.1307
-18.2898
-17.051
-15.2955
-14.6675
-14.0584
-13.8294
-12.5218
-9.73628
-3.94332
2.091
4.5697
1.36127
-1.83017
0.760975
7.91849
12.6725
14.397
12.689
11.1055
9.602
8.12875
6.88126
5.47087
3.99172
2.5081
1.02487
1.50708
-3.90572
-3.87528
3.56269
1.02727
-19.8378
-21.2628
-21.1771
-21.1399
-18.2921
-17.0493
-15.2947
-14.6663
-14.0572
-13.8281
-12.5219
-9.73601
-3.94043
2.09509
4.57665
1.37427
-1.80601
0.797558
7.95568
12.6972
14.4128
12.7016
11.1157
9.61012
8.13536
6.88686
5.47585
3.99653
2.51206
1.02681
1.515
-3.90881
-3.87168
3.55339
1.02787
-19.8323
-21.2758
-21.2387
-21.1497
-18.2937
-17.0467
-15.2928
-14.665
-14.0563
-13.8274
-12.5229
-9.73663
-3.93766
2.09942
4.58236
1.38283
-1.78963
0.82599
7.98894
12.7221
14.4303
12.7162
11.1278
9.61993
8.14333
6.89353
5.48174
4.00221
2.51688
1.0293
1.52326
-3.90911
-3.8565
3.54531
1.02857
-19.8261
-21.3092
-21.3026
-21.1594
-18.2939
-17.043
-15.2897
-14.6637
-14.0557
-13.8276
-12.525
-9.73807
-3.93467
2.10506
4.58836
1.38887
-1.77948
0.845881
8.01568
12.7448
14.448
12.7317
11.141
9.631
8.15237
6.90103
5.48827
4.00852
2.52235
1.03224
1.53182
-3.9053
-3.83041
3.53839
1.02938
-19.8192
-21.3661
-21.3665
-21.1687
-18.2931
-17.0384
-15.2856
-14.6624
-14.0554
-13.8288
-12.5282
-9.74001
-3.93106
2.11265
4.59557
1.39404
-1.77303
0.859423
8.03619
12.7641
14.4643
12.7465
11.1544
9.64265
8.16208
6.90904
5.49519
4.01518
2.52824
1.03553
1.54065
-3.8968
-3.79384
3.53261
1.03031
-19.8119
-21.4483
-21.428
-21.1776
-18.2915
-17.0334
-15.2807
-14.6611
-14.0555
-13.8312
-12.5326
-9.74241
-3.92682
2.12215
4.60425
1.39914
-1.76852
0.868924
8.05158
12.7795
14.4777
12.7591
11.1666
9.65395
8.17188
6.91723
5.50221
4.02192
2.5343
1.03904
1.54968
-3.88352
-3.74732
3.52793
1.03136
-19.8044
-21.5563
-21.4852
-21.1861
-18.2896
-17.0284
-15.2756
-14.6601
-14.0561
-13.8346
-12.5378
-9.74514
-3.92224
2.13269
4.61381
1.4042
-1.76498
0.876011
8.06291
12.7905
14.4872
12.7684
11.1763
9.66384
8.18108
6.92515
5.50903
4.02847
2.54024
1.04264
1.55881
-3.8658
-3.69169
3.52439
1.03254
-19.7966
-21.6886
-21.5369
-21.1942
-18.2875
-17.0239
-15.2706
-14.6592
-14.0572
-13.8392
-12.544
-9.74833
-3.91787
2.14327
4.62355
1.409
-1.76211
0.881405
8.07069
12.7971
14.4923
12.7737
11.1826
9.67136
8.1889
6.9323
5.51532
4.03455
2.54579
1.04616
1.56795
-3.84438
-3.62811
3.52204
1.03386
-19.7887
-21.8421
-21.5821
-21.2022
-18.2856
-17.0202
-15.266
-14.6587
-14.0587
-13.8446
-12.5509
-9.75192
-3.91411
2.15279
4.63244
1.41323
-1.75976
0.885331
8.07518
12.7994
14.493
12.7748
11.1852
9.67591
8.19467
6.93816
5.52076
4.0399
2.55067
1.04942
1.577
-3.82036
-3.55818
3.52103
1.03531
-19.781
-22.0114
-21.6206
-21.2099
-18.2839
-17.0177
-15.2623
-14.6586
-14.0607
-13.851
-12.5584
-9.75601
-3.91132
2.16051
4.63978
1.41667
-1.75791
0.887749
8.07657
12.7979
14.49
12.7724
11.1845
9.67745
8.19805
6.94234
5.52501
4.04427
2.55463
1.05224
1.58589
-3.79514
-3.48398
3.52157
1.03691
-19.7737
-22.1896
-21.6524
-21.2175
-18.2827
-17.0163
-15.2597
-14.659
-14.0632
-13.858
-12.5664
-9.76054
-3.90957
2.16598
4.64498
1.41918
-1.75645
0.88876
8.0753
12.7932
14.4838
12.7672
11.1812
9.67642
8.19911
6.94464
5.52786
4.04751
2.5575
1.05447
1.59456
-3.77019
-3.40809
3.52402
1.03866
-19.7672
-22.3685
-21.678
-21.2248
-18.2822
-17.0165
-15.2584
-14.6601
-14.0664
-13.866
-12.575
-9.76558
-3.90886
2.16924
4.64798
1.42077
-1.75536
0.888586
8.07189
12.786
14.4754
12.7603
11.1761
9.67355
8.19828
6.9452
5.52926
4.04952
2.55918
1.05596
1.60299
-3.74677
-3.33362
3.52881
1.04054
-19.7619
-22.54
-21.6982
-21.2317
-18.2824
-17.0182
-15.2585
-14.662
-14.0703
-13.8748
-12.5841
-9.77109
-3.90903
2.1706
4.64889
1.42143
-1.7546
0.887667
8.06699
12.7769
14.4649
12.7519
11.17
9.66957
8.19616
6.94435
5.52936
4.0504
2.55973
1.05664
1.61117
-3.72568
-3.264
3.53649
1.04258
-19.7581
-22.6966
-21.7138
-21.2378
-18.2837
-17.0219
-15.2603
-14.665
-14.0752
-13.8847
-12.5941
-9.77722
-3.90996
2.17065
4.64824
1.42128
-1.7542
0.886404
8.06106
12.766
14.4527
12.7425
11.1632
9.66503
8.1933
6.94256
5.52845
4.05031
2.55925
1.05655
1.61915
-3.70701
-3.20267
3.54753
1.04476
-19.7559
-22.8329
-21.7257
-21.2428
-18.2863
-17.0276
-15.2639
-14.6692
-14.0813
-13.8958
-12.605
-9.78405
-3.91154
2.16985
4.64645
1.42032
-1.75409
0.885244
8.05451
12.7535
14.4385
12.7319
11.1558
9.66019
8.19008
6.9402
5.52685
4.04953
2.55796
1.05576
1.62697
-3.69028
-3.15245
3.56222
1.04709
-19.7555
-22.9468
-21.7349
-21.2469
-18.2902
-17.0355
-15.2696
-14.6749
-14.0888
-13.9086
-12.6174
-9.792
-3.91384
2.16866
4.64415
1.41872
-1.75422
0.884468
8.04748
12.7394
14.4224
12.7199
11.1478
9.65509
8.18668
6.93754
5.52485
4.04827
2.55605
1.05445
1.63477
-3.67469
-3.11478
3.58045
1.04957
-19.7568
-23.0394
-21.7421
-21.2503
-18.2954
-17.046
-15.2778
-14.6826
-14.0983
-13.9233
-12.6319
-9.80151
-3.91706
2.16709
4.64153
1.41652
-1.75438
0.884387
8.0401
12.7236
14.404
12.7065
11.1391
9.64968
8.18315
6.93474
5.52264
4.04674
2.55372
1.05274
1.64269
-3.6595
-3.08916
3.60173
1.05219
-19.7593
-23.1158
-21.7471
-21.2538
-18.3016
-17.0591
-15.2889
-14.6928
-14.1102
-13.9407
-12.6495
-9.81353
-3.92173
2.16504
4.63882
1.41387
-1.75441
0.885115
8.03227
12.7059
14.3834
12.6916
11.1295
9.64387
8.17945
6.93185
5.52033
4.04507
2.55109
1.05074
1.65083
-3.6442
-3.07341
3.6252
1.05495
-19.7625
-23.1817
-21.7498
-21.2585
-18.3086
-17.0752
-15.3034
-14.7061
-14.1251
-13.9613
-12.6713
-9.8291
-3.92861
2.16194
4.63567
1.41068
-1.75405
0.88679
8.02393
12.6863
14.3605
12.6753
11.1192
9.63762
8.17555
6.92889
5.51796
4.04331
2.54828
1.04855
1.65929
-3.62856
-3.06462
3.64997
1.05785
-19.766
-23.2412
-21.7511
-21.2655
-18.3163
-17.0946
-15.3219
-14.7234
-14.1441
-13.9864
-12.699
-9.84985
-3.93882
2.15718
4.63184
1.40692
-1.7532
0.889315
8.01487
12.6646
14.3353
12.6575
11.108
9.63089
8.1714
6.92584
5.51556
4.04152
2.54532
1.04622
1.66806
-3.61259
-3.05993
3.6752
1.06088
-19.769
-23.2979
-21.7517
-21.2764
-18.3244
-17.1176
-15.3451
-14.7454
-14.1677
-14.0166
-12.7337
-9.8772
-3.95365
2.14972
4.62659
1.40229
-1.75169
0.892633
8.00496
12.6409
14.3079
12.6385
11.0961
9.62372
8.167
6.92269
5.51311
4.0397
2.54227
1.0438
1.67713
-3.59638
-3.05714
3.70037
1.06403
-19.7711
-23.3549
-21.7514
-21.2921
-18.3332
-17.1449
-15.3738
-14.7728
-14.1971
-14.0532
-12.7769
-9.91267
-3.97423
2.13878
4.61954
1.39666
-1.7496
0.896465
7.99384
12.615
14.2783
12.6182
11.0836
9.61611
8.16236
6.91943
5.51058
4.03784
2.53913
1.04134
1.68643
-3.58009
-3.05463
3.72513
1.06729
-19.7721
-23.415
-21.7489
-21.3136
-18.3428
-17.1769
-15.4086
-14.8063
-14.2327
-14.0965
-12.8285
-9.95656
-4.00084
2.12355
4.60981
1.38955
-1.74694
0.900639
7.9813
12.5869
14.2467
12.5968
11.0704
9.60812
8.15751
6.91604
5.50795
4.03593
2.53591
1.03887
1.69589
-3.56387
-3.0513
3.74947
1.07066
-19.7716
-23.4806
-21.7427
-21.341
-18.3534
-17.2141
-15.45
-14.8459
-14.2748
-14.1469
-12.8884
-10.0085
-4.03253
2.10456
4.59717
1.38063
-1.74396
0.904779
7.9669
12.5566
14.2132
12.5745
11.0567
9.59978
8.15245
6.91251
5.50518
4.03397
2.53262
1.03642
1.7054
-3.54788
-3.04632
3.77344
1.07413
-19.7697
-23.554
-21.7311
-21.3736
-18.3652
-17.2563
-15.4975
-14.8907
-14.3227
-14.2031
-12.9542
-10.066
-4.06676
2.0832
4.58121
1.36925
-1.74086
0.908674
7.95045
12.5238
14.1779
12.5512
11.0425
9.59114
8.14722
6.9088
5.50226
4.03195
2.52929
1.03404
1.71485
-3.53225
-3.03907
3.79727
1.0777
-19.7662
-23.6375
-21.7134
-21.4097
-18.3782
-17.3024
-15.5491
-14.9384
-14.3746
-14.2634
-13.0232
-10.1257
-4.09982
2.06272
4.56292
1.35525
-1.73806
0.911932
7.93157
12.4884
14.1408
12.5272
11.0279
9.58224
8.1418
6.90489
5.49917
4.02986
2.52594
1.03174
1.72412
-3.51716
-3.02904
3.82114
1.08136
-19.7611
-23.7334
-21.6905
-21.4469
-18.3922
-17.3502
-15.6014
-14.985
-14.4268
-14.324
-13.0907
-10.1824
-4.12739
2.04603
4.54325
1.33866
-1.73564
0.914467
7.91024
12.4505
14.1022
12.5025
11.0129
9.57312
8.1362
6.90075
5.49587
4.0277
2.5226
1.02954
1.73306
-3.50275
-3.01586
3.84532
1.08512
-19.7542
-23.8455
-21.6647
-21.4819
-18.4072
-17.3965
-15.6492
-15.0255
-14.4752
-14.3814
-13.1525
-10.2313
-4.14571
2.03582
4.52402
1.3205
-1.73365
0.916132
7.88635
12.4099
14.062
12.4772
10.9975
9.56381
8.13041
6.89636
5.49235
4.02548
2.5193
1.02748
1.74151
-3.48922
-2.99923
3.86998
1.08896
-19.7455
-23.9793
-21.6384
-21.5106
-18.4226
-17.4368
-15.6863
-15.0539
-14.5145
-14.4303
-13.2033
-10.2675
-4.15256
2.03206
4.50551
1.30181
-1.73152
0.917283
7.86032
12.3669
14.0202
12.4513
10.9819
9.55434
8.12441
6.89165
5.48858
4.02321
2.5161
1.02556
1.74931
-3.47677
-2.97896
3.89539
1.0929
-19.7345
-24.1426
-21.6134
-21.5287
-18.438
-17.4664
-15.7066
-15.0647
-14.5401
-14.4674
-13.24
-10.2882
-4.14831
2.03311
4.48765
1.28375
-1.72876
0.918221
7.83243
12.3217
13.9771
12.425
10.9662
9.54473
8.11816
6.88661
5.48457
4.0209
2.51303
1.0238
1.75627
-3.46563
-2.95492
3.92166
1.09692
-19.7208
-24.3465
-21.5895
-21.5329
-18.4526
-17.4809
-15.7051
-15.054
-14.5486
-14.4895
-13.2601
-10.2926
-4.13614
2.03478
4.46851
1.26646
-1.72461
0.919663
7.80347
12.2749
13.9328
12.3983
10.9502
9.535
8.11165
6.88119
5.48027
4.01858
2.51017
1.02224
1.76217
-3.45602
-2.92703
3.949
1.10103
-19.7038
-24.6048
-21.5637
-21.5217
-18.4657
-17.4776
-15.6797
-15.0205
-14.539
-14.4966
-13.2641
-10.283
-4.12101
2.03323
4.44642
1.24974
-1.71882
0.921909
7.77384
12.2268
13.8875
12.3712
10.9342
9.52517
8.10482
6.87535
5.4757
4.01626
2.50756
1.0209
1.76677
-3.44822
-2.89526
3.97747
1.10523
-19.6823
-24.9335
-21.5314
-21.4969
-18.4771
-17.4562
-15.6311
-14.966
-14.5127
-14.4897
-13.2533
-10.2638
-4.10776
2.02521
4.41927
1.23269
-1.71118
0.925439
7.74432
12.1783
13.8416
12.3441
10.9181
9.51523
8.09765
6.86906
5.47083
4.01398
2.50527
1.01982
1.76979
-3.44245
-2.85962
4.00725
1.10953
-19.6548
-25.3485
-21.4872
-21.4626
-18.4866
-17.4189
-15.5638
-14.8954
-14.4736
-14.4719
-13.2314
-10.241
-4.09927
2.00995
4.3865
1.21475
-1.70208
0.93015
7.71503
12.1299
13.7954
12.3168
10.9021
9.50519
8.09009
6.8623
5.46569
4.01174
2.50339
1.01904
1.77093
-3.43902
-2.82016
4.0384
1.11391
-19.6198
-25.8594
-21.4257
-21.4245
-18.4949
-17.3699
-15.4839
-14.8151
-14.4268
-14.4458
-13.2025
-10.2191
-4.0957
1.98783
4.34773
1.19529
-1.69153
0.936321
7.68648
12.0822
13.7495
12.2897
10.8861
9.49503
8.0821
6.85502
5.46027
4.00959
2.50201
1.01864
1.76983
-3.43817
-2.7769
4.07108
1.11838
-19.5768
-26.4568
-21.3411
-21.3873
-18.5023
-17.3142
-15.3984
-14.7323
-14.3768
-14.414
-13.1724
-10.2008
-4.0956
1.96034
4.30382
1.17452
-1.67966
0.943856
7.65846
12.0353
13.704
12.2628
10.8702
9.48474
8.07365
6.84725
5.4546
4.00755
2.50123
1.01866
1.76607
-3.44025
-2.72979
4.10538
1.12295
-19.5256
-27.0957
-21.227
-21.3544
-18.5093
-17.2563
-15.3133
-14.6526
-14.3265
-14.3794
-13.1459
-10.1852
-4.09751
1.92801
4.25513
1.153
-1.66563
0.953146
7.63107
11.9892
13.6593
12.2363
10.8543
9.47434
8.06476
6.83898
5.44869
4.00566
2.50117
1.01916
1.75909
-3.44547
-2.67863
4.14148
1.1276
-19.4571
-27.6847
-21.0763
-21.3266
-18.5156
-17.1994
-15.2333
-14.5794
-14.2776
-14.3472
-13.1253
-10.1708
-4.10142
1.89107
4.20313
1.13259
-1.64875
0.963606
7.60316
11.9433
13.6152
12.2101
10.8387
9.46393
8.05551
6.83029
5.44257
4.00389
2.5019
1.02015
1.74844
-3.454
-2.62352
4.17917
1.13233
-19.343
-28.0844
-20.8824
-21.3029
-18.5197
-17.1451
-15.1611
-14.5141
-14.2338
-14.3222
-13.1089
-10.1565
-4.1084
1.84959
4.14989
1.11548
-1.62867
0.973678
7.5734
11.8968
13.5718
12.1848
10.8237
9.45377
8.04601
6.82113
5.43615
4.0022
2.50348
1.02176
1.73442
-3.46562
-2.56645
4.21764
1.13714
-19.1908
-28.1279
-20.6389
-21.2812
-18.5192
-17.0934
-15.0972
-14.4585
-14.2007
-14.3051
-13.0952
-10.1442
-4.11926
1.80672
4.10052
1.10374
-1.60842
0.978725
7.53926
11.8496
13.5298
12.1611
10.81
9.44413
8.03617
6.81131
5.42927
4.00046
2.50602
1.02431
1.7179
-3.48073
-2.51014
4.2563
1.14203
-19.28
-27.6813
-20.3374
-21.2613
-18.5152
-17.0462
-15.0416
-14.4165
-14.1803
-14.2938
-13.0841
-10.1347
-4.13213
1.76649
4.05739
1.09467
-1.5941
0.974465
7.50137
11.8042
13.4924
12.1411
10.7983
9.43449
8.02476
6.79973
5.42144
3.99898
2.51077
1.02838
1.69266
-3.50379
-2.44126
4.30405
1.14734
8.96181
9.26279
10.1217
11.4542
13.1777
15.3376
18.0267
21.3668
25.7478
31.0006
37.4377
45.2255
54.8462
66.4298
81.2523
98.7755
123.378
149.747
190.419
214.686
262.686
104.41
8.96161
9.26257
10.1214
11.4537
13.1771
15.3366
18.0251
21.3955
25.8008
31.0298
37.4354
45.212
54.8191
66.3968
81.1847
98.6495
123.149
149.281
189.538
213.095
258.819
101.461
8.9614
9.26233
10.1211
11.4533
13.1764
15.3355
18.0235
21.431
25.8463
31.0515
37.4299
45.1974
54.7923
66.3622
81.1157
98.5195
122.911
148.795
188.636
211.444
254.792
103.127
8.96118
9.26208
10.1207
11.4528
13.1756
15.3344
18.0217
21.4668
25.8838
31.067
37.4227
45.182
54.7648
66.3276
81.0457
98.3849
122.663
148.29
187.71
209.724
250.652
103.002
8.96095
9.26181
10.1204
11.4523
13.1749
15.3332
18.0199
21.4979
25.9138
31.0774
37.415
45.1663
54.7381
66.291
80.9737
98.2447
122.404
147.763
186.756
207.935
246.387
101.195
8.9607
9.26154
10.12
11.4517
13.174
15.332
18.018
21.5191
25.9369
31.0837
37.4077
45.1506
54.7114
66.2544
80.9005
98.0987
122.131
147.213
185.767
206.08
241.994
99.1339
8.96044
9.26124
10.1196
11.4511
13.1732
15.3307
18.016
21.5268
25.9533
31.0866
37.4011
45.1353
54.686
66.216
80.8251
97.946
121.842
146.641
184.737
204.16
237.477
97.2148
8.96017
9.26093
10.1192
11.4505
13.1723
15.3293
18.0138
21.5215
25.9636
31.0867
37.3957
45.1206
54.661
66.1777
80.7481
97.7867
121.536
146.043
183.66
202.174
232.841
95.2748
8.95988
9.2606
10.1188
11.4499
13.1713
15.3278
18.0115
21.5065
25.9678
31.0845
37.3915
45.1066
54.6373
66.1377
80.6685
97.6201
121.212
145.419
182.531
200.125
228.09
93.2154
8.95958
9.26026
10.1183
11.4492
13.1703
15.3262
18.0091
21.485
25.9661
31.0803
37.3883
45.0934
54.6141
66.0978
80.5869
97.4464
120.867
144.768
181.341
198.01
223.229
91.061
8.95926
9.25989
10.1178
11.4485
13.1692
15.3245
18.0066
21.4588
25.9583
31.0741
37.3862
45.0812
54.5921
66.0561
80.5025
97.265
120.502
144.087
180.087
195.83
218.263
88.8465
8.95892
9.2595
10.1173
11.4477
13.1681
15.3228
18.004
21.4298
25.944
31.0658
37.3847
45.0698
54.5704
66.0144
80.4156
97.0761
120.115
143.375
178.763
193.584
213.197
86.5828
8.95856
9.2591
10.1168
11.4469
13.1669
15.3209
18.0011
21.3995
25.9224
31.055
37.3834
45.0593
54.5496
65.9705
80.3253
96.8793
119.707
142.631
177.363
191.27
208.035
84.2739
8.95818
9.25866
10.1162
11.4461
13.1656
15.3189
17.9981
21.3697
25.8929
31.0411
37.3818
45.0495
54.5288
65.9262
80.2318
96.6746
119.278
141.852
175.886
188.886
202.783
81.9285
8.95778
9.25821
10.1156
11.4452
13.1643
15.3169
17.9949
21.342
25.8548
31.0231
37.3791
45.0403
54.5086
65.8793
80.1342
96.4612
118.827
141.038
174.327
186.432
197.445
79.5587
8.95736
9.25772
10.115
11.4443
13.1629
15.3146
17.9915
21.3175
25.8077
31.0001
37.3742
45.0316
54.488
65.8311
80.0326
96.239
118.355
140.187
172.685
183.906
192.027
77.1776
8.95691
9.25721
10.1143
11.4433
13.1614
15.3123
17.9879
21.297
25.752
30.9707
37.3661
45.0229
54.4678
65.7798
79.9259
96.0072
117.86
139.297
170.958
181.306
186.532
74.7993
8.95644
9.25667
10.1136
11.4422
13.1598
15.3098
17.9841
21.2805
25.6889
30.9335
37.3529
45.0137
54.4469
65.7266
79.814
95.7652
117.341
138.367
169.145
178.63
180.965
72.4376
8.95593
9.25609
10.1128
11.4411
13.1581
15.3072
17.9801
21.2675
25.6207
30.8869
37.3326
45.0033
54.4261
65.6694
79.6958
95.512
116.799
137.396
167.244
175.878
175.329
70.1053
8.9554
9.25548
10.112
11.4399
13.1563
15.3043
17.9758
21.2573
25.5508
30.8299
37.3027
44.9902
54.4042
65.6095
79.5711
95.247
116.231
136.383
165.256
173.047
169.63
67.8128
8.95483
9.25484
10.1111
11.4386
13.1544
15.3014
17.9712
21.2486
25.4828
30.7623
37.26
44.9725
54.3816
65.545
79.4386
94.969
115.635
135.325
163.18
170.137
163.871
65.5672
8.95424
9.25415
10.1102
11.4373
13.1524
15.2982
17.9663
21.2407
25.4203
30.6849
37.2015
44.9473
54.3567
65.477
79.2982
94.6772
115.012
134.222
161.016
167.146
158.057
63.3715
8.9536
9.25343
10.1093
11.4359
13.1503
15.2949
17.9611
21.2329
25.3662
30.6004
37.1241
44.9105
54.3288
65.4038
79.1483
94.3703
114.358
133.071
158.762
164.071
152.195
61.2237
8.95292
9.25266
10.1082
11.4344
13.148
15.2913
17.9556
21.2249
25.3216
30.5126
37.0261
44.8565
54.2947
65.326
78.9889
94.0476
113.673
131.87
156.42
160.912
146.291
59.1171
8.9522
9.25184
10.1072
11.4328
13.1456
15.2876
17.9497
21.2164
25.2861
30.4263
36.9084
44.7783
54.2507
65.2416
78.8185
93.7076
112.954
130.618
153.987
157.668
140.355
57.0396
8.95144
9.25097
10.106
11.4311
13.1431
15.2836
17.9435
21.2073
25.2579
30.3457
36.7748
44.6688
54.1893
65.15
78.6369
93.3496
112.201
129.313
151.465
154.335
134.394
54.9752
8.95063
9.25004
10.1048
11.4293
13.1403
15.2793
17.9368
21.1976
25.2346
30.2738
36.6323
44.5226
54.1007
65.0467
78.4421
92.9722
111.411
127.953
148.852
150.913
128.42
52.9038
8.94977
9.24906
10.1035
11.4273
13.1375
15.2748
17.9298
21.1872
25.2139
30.2117
36.4894
44.3392
53.9706
64.9266
78.2329
92.5746
110.584
126.535
146.15
147.4
122.446
50.8032
8.94885
9.24802
10.1021
11.4253
13.1344
15.27
17.9223
21.176
25.1943
30.1588
36.3544
44.1253
53.785
64.778
78.0049
92.1549
109.719
125.059
143.358
143.794
116.483
48.6499
8.94788
9.24691
10.1006
11.4231
13.1312
15.265
17.9143
21.1641
25.1746
30.1131
36.2326
43.8941
53.5333
64.5858
77.7521
91.7113
108.815
123.523
140.476
140.094
110.545
46.4207
8.94684
9.24573
10.099
11.4208
13.1277
15.2596
17.9059
21.1514
25.1543
30.072
36.1264
43.6623
53.2165
64.3282
77.4618
91.2397
107.87
121.924
137.506
136.299
104.647
44.0937
8.94574
9.24447
10.0974
11.4184
13.124
15.2538
17.8969
21.1379
25.1328
30.033
36.0346
43.4445
52.8498
63.9863
77.1157
90.7334
106.884
120.262
134.449
132.409
98.8036
41.65
8.94456
9.24313
10.0956
11.4158
13.1201
15.2477
17.8874
21.1235
25.11
29.9943
35.9538
43.2498
52.4611
63.5503
76.6874
90.1804
105.852
118.536
131.307
128.424
93.0291
39.0743
8.9433
9.2417
10.0937
11.413
13.1159
15.2412
17.8772
21.1082
25.0857
29.9544
35.8795
43.0799
52.0806
63.0312
76.1507
89.5624
104.771
116.743
128.081
124.345
87.3382
36.3561
8.94197
9.24018
10.0916
11.41
13.1114
15.2343
17.8664
21.0918
25.0598
29.9126
35.8075
42.9307
51.7313
62.4602
75.4893
88.8546
103.629
114.883
124.774
120.176
81.7452
33.4904
8.94054
9.23856
10.0895
11.4068
13.1067
15.2269
17.8549
21.0744
25.0322
29.8685
35.7348
42.7952
51.4229
61.8806
74.7108
88.0307
102.413
112.953
121.389
115.92
76.264
30.4779
8.93902
9.23683
10.0872
11.4035
13.1016
15.2191
17.8427
21.0559
25.0029
29.8216
35.6592
42.6656
51.1518
61.3303
73.8511
87.0735
101.103
110.951
117.933
111.584
70.9079
27.3253
8.9374
9.23499
10.0847
11.3999
13.0962
15.2107
17.8297
21.0361
24.9716
29.7717
35.5797
42.5356
50.9067
60.83
72.9654
85.9865
99.6796
108.876
114.412
107.174
65.6901
24.0455
8.93567
9.23302
10.0821
11.396
13.0905
15.2018
17.8158
21.015
24.9383
29.7187
35.4954
42.401
50.6737
60.3796
72.1063
84.8002
98.1318
106.725
110.839
102.703
60.6238
20.6565
8.93382
9.23092
10.0793
11.3919
13.0844
15.1923
17.8011
20.9926
24.9029
29.6624
35.4061
42.2595
50.441
59.9644
71.3047
83.5655
96.4631
104.5
107.233
98.1858
55.7229
17.1818
8.93184
9.22868
10.0763
11.3876
13.0778
15.1822
17.7854
20.9686
24.8651
29.6026
35.3112
42.1099
50.2004
59.564
70.5627
82.3339
94.6974
102.207
103.619
93.6431
51.0027
13.6491
8.92973
9.22628
10.0731
11.3829
13.0708
15.1714
17.7686
20.9431
24.8249
29.5388
35.2104
41.9514
49.9475
59.1603
69.8599
81.1377
92.8724
99.8576
100.031
89.1034
46.4806
10.0902
8.92748
9.22373
10.0697
11.3779
13.0633
15.1599
17.7508
20.9158
24.7821
29.471
35.1033
41.7833
49.6804
58.7408
69.1679
79.9818
91.0258
97.4641
96.5028
84.6029
42.1766
6.54051
8.92506
9.22099
10.066
11.3726
13.0554
15.1476
17.7317
20.8867
24.7364
29.3989
34.9895
41.6049
49.398
58.2994
68.4611
78.8477
89.1815
95.0358
93.0651
80.1842
38.1126
3.03898
8.92249
9.21807
10.0621
11.3669
13.0468
15.1345
17.7114
20.8557
24.6878
29.3221
34.8685
41.4157
49.0994
57.8335
67.7225
77.7066
87.3446
92.5707
89.7294
75.8922
34.3114
-0.372984
8.91973
9.21495
10.058
11.3608
13.0377
15.1205
17.6898
20.8226
24.6359
29.2404
34.74
41.2149
48.7834
57.3421
66.9448
76.5311
85.5031
90.0581
86.478
71.7648
30.7934
-3.65242
8.91678
9.21161
10.0535
11.3543
13.028
15.1056
17.6666
20.7873
24.5807
29.1534
34.6034
41.0018
48.449
56.8239
66.1264
75.3031
83.6335
87.489
83.262
67.8191
27.572
-6.75683
8.91362
9.20803
10.0487
11.3473
13.0176
15.0896
17.642
20.7496
24.5217
29.0608
34.4583
40.7758
48.0953
56.2775
65.2677
74.0157
81.7101
84.8605
80.0188
64.039
24.647
-9.6471
8.91024
9.2042
10.0436
11.3399
13.0064
15.0726
17.6157
20.7093
24.4589
28.9623
34.304
40.5362
47.7212
55.7014
64.3684
72.6694
79.7161
82.1699
76.7031
60.3717
21.9966
-12.2915
8.90662
9.20011
10.0381
11.3319
12.9945
15.0544
17.5876
20.6663
24.3919
28.8574
34.1402