/*--------------------------------*- C++ -*----------------------------------*\
| =========                 |                                                 |
| \\      /  F ield         | OpenFOAM: The Open Source CFD Toolbox           |
|  \\    /   O peration     | Version:  v1912                                 |
|   \\  /    A nd           | Website:  www.openfoam.com                      |
|    \\/     M anipulation  |                                                 |
\*---------------------------------------------------------------------------*/
FoamFile
{
    version     2.0;
    format      ascii;
    class       volVectorField;
    location    "450";
    object      U;
}
// * * * * * * * * * * * * * * * * * * * * * * * * * * * * * * * * * * * * * //

dimensions      [0 1 -1 0 0 0 0];


internalField   nonuniform List<vector> 
12441
(
(29.9988 1.7088e-05 0)
(29.9854 5.18562e-05 0)
(29.9561 8.99879e-05 0)
(29.9116 0.000138245 0)
(29.8534 0.000201589 0)
(29.779 0.00028657 0)
(29.6871 0.000397603 0)
(29.5719 0.00056443 0)
(29.4281 0.000780563 0)
(29.2512 0.00109395 0)
(29.0296 0.00151669 0)
(28.7439 0.00209687 0)
(28.4473 0.0030483 0)
(27.9665 0.0044286 0)
(27.4007 0.0061816 0)
(26.6344 0.011262 0)
(25.5837 0.0150722 0)
(23.923 0.0314465 0)
(21.5786 0.052817 0)
(17.8929 0.0912547 0)
(12.1115 0.122163 0)
(5.81078 0.196576 0)
(29.9988 5.07899e-05 0)
(29.9853 0.000154867 0)
(29.9561 0.000268199 0)
(29.9115 0.000412015 0)
(29.8535 0.000601453 0)
(29.7789 0.000855581 0)
(29.6871 0.00118769 0)
(29.5719 0.00168888 0)
(29.428 0.00233439 0)
(29.251 0.00327348 0)
(29.0299 0.00453915 0)
(28.7406 0.00626621 0)
(28.4522 0.00911078 0)
(27.9731 0.0133016 0)
(27.4013 0.0186533 0)
(26.6337 0.0334855 0)
(25.589 0.0479448 0)
(23.9256 0.0902101 0)
(21.5782 0.137942 0)
(17.8901 0.264059 0)
(12.1119 0.35893 0)
(5.81447 0.587095 0)
(29.9988 8.43579e-05 0)
(29.9853 0.000257916 0)
(29.9561 0.000445754 0)
(29.9115 0.000684879 0)
(29.8535 0.0010002 0)
(29.7789 0.00142396 0)
(29.6871 0.00197649 0)
(29.5719 0.00281107 0)
(29.428 0.00388766 0)
(29.2511 0.00545132 0)
(29.0298 0.00755089 0)
(28.7404 0.0104707 0)
(28.4533 0.0151149 0)
(27.9669 0.0221673 0)
(27.3984 0.0312147 0)
(26.6341 0.0548375 0)
(25.5904 0.0813634 0)
(23.9309 0.147286 0)
(21.5817 0.220627 0)
(17.8901 0.434521 0)
(12.1179 0.592196 0)
(5.82269 0.975662 0)
(29.9988 0.000118356 0)
(29.9853 0.000361682 0)
(29.9561 0.000624159 0)
(29.9115 0.00095898 0)
(29.8535 0.00140058 0)
(29.7789 0.00199422 0)
(29.6872 0.00276762 0)
(29.572 0.00393682 0)
(29.4281 0.00544436 0)
(29.2511 0.0076339 0)
(29.03 0.0105713 0)
(28.7408 0.014676 0)
(28.4519 0.0211378 0)
(27.9739 0.0310726 0)
(27.4026 0.0438008 0)
(26.6339 0.0762416 0)
(25.593 0.114043 0)
(23.9362 0.207327 0)
(21.5904 0.328047 0)
(17.8949 0.613017 0)
(12.1303 0.829433 0)
(5.83564 1.36589 0)
(29.9988 0.000152416 0)
(29.9853 0.000465319 0)
(29.9561 0.00080236 0)
(29.9115 0.00123284 0)
(29.8535 0.00180057 0)
(29.7789 0.00256383 0)
(29.6872 0.00355808 0)
(29.572 0.00506158 0)
(29.4281 0.00699986 0)
(29.2512 0.0098155 0)
(29.0299 0.0135903 0)
(28.7408 0.0188767 0)
(28.4534 0.0271706 0)
(27.9671 0.0399406 0)
(27.4003 0.0563883 0)
(26.6361 0.09743 0)
(25.5949 0.146237 0)
(23.9408 0.268129 0)
(21.6017 0.418289 0)
(17.9055 0.7877 0)
(12.1505 1.06646 0)
(5.85362 1.75739 0)
(29.9988 0.000186472 0)
(29.9853 0.000568881 0)
(29.9561 0.000980538 0)
(29.9116 0.0015067 0)
(29.8535 0.00220052 0)
(29.779 0.00313345 0)
(29.6872 0.00434862 0)
(29.572 0.00618641 0)
(29.4282 0.00855565 0)
(29.2512 0.0119969 0)
(29.0302 0.0166105 0)
(28.7413 0.023079 0)
(28.4513 0.0331988 0)
(27.9754 0.0488379 0)
(27.405 0.0689987 0)
(26.6357 0.11851 0)
(25.5979 0.178168 0)
(23.9452 0.328389 0)
(21.6146 0.506971 0)
(17.9227 0.96107 0)
(12.1801 1.30319 0)
(5.87702 2.15001 0)
(29.9988 0.000220524 0)
(29.9853 0.000672399 0)
(29.9561 0.0011587 0)
(29.9116 0.00178058 0)
(29.8535 0.00260041 0)
(29.779 0.003703 0)
(29.6872 0.00513913 0)
(29.572 0.00731111 0)
(29.4282 0.0101112 0)
(29.2513 0.0141787 0)
(29.0301 0.0196298 0)
(28.7416 0.0272807 0)
(28.4533 0.0392388 0)
(27.9671 0.0576602 0)
(27.4025 0.081577 0)
(26.6386 0.139452 0)
(25.6007 0.209406 0)
(23.9492 0.38611 0)
(21.632 0.597782 0)
(17.9498 1.13454 0)
(12.2215 1.54002 0)
(5.90635 2.54403 0)
(29.9988 0.000254574 0)
(29.9853 0.000775883 0)
(29.9561 0.00133686 0)
(29.9116 0.00205443 0)
(29.8535 0.00300022 0)
(29.779 0.00427247 0)
(29.6873 0.00592957 0)
(29.5721 0.00843565 0)
(29.4283 0.0116667 0)
(29.2514 0.0163598 0)
(29.0305 0.0226499 0)
(28.7419 0.0314836 0)
(28.4502 0.045268 0)
(27.9769 0.0665186 0)
(27.4083 0.0940291 0)
(26.6382 0.160029 0)
(25.6055 0.242207 0)
(23.9546 0.445744 0)
(21.6631 0.689648 0)
(17.9939 1.30751 0)
(12.2781 1.77716 0)
(5.9422 2.93994 0)
(29.9988 0.000288622 0)
(29.9853 0.000879327 0)
(29.9561 0.00151499 0)
(29.9116 0.00232828 0)
(29.8535 0.00339995 0)
(29.779 0.00484187 0)
(29.6873 0.00671997 0)
(29.5721 0.00956007 0)
(29.4283 0.013222 0)
(29.2515 0.0185414 0)
(29.0303 0.0256687 0)
(28.7423 0.0356899 0)
(28.4537 0.051304 0)
(27.9684 0.0754106 0)
(27.4053 0.106551 0)
(26.6365 0.180937 0)
(25.6127 0.273432 0)
(23.9659 0.50475 0)
(21.72 0.781191 0)
(18.0632 1.47967 0)
(12.3534 2.01491 0)
(5.98524 3.33825 0)
(29.9988 0.000322669 0)
(29.9853 0.000982737 0)
(29.9561 0.00169312 0)
(29.9116 0.0026021 0)
(29.8536 0.0037996 0)
(29.7791 0.00541117 0)
(29.6874 0.00751032 0)
(29.5722 0.0106843 0)
(29.4285 0.0147773 0)
(29.2515 0.0207221 0)
(29.0309 0.0286878 0)
(28.7425 0.0398992 0)
(28.4478 0.0573323 0)
(27.9769 0.0841483 0)
(27.4121 0.119791 0)
(26.6342 0.20215 0)
(25.6271 0.305226 0)
(23.9932 0.561829 0)
(21.8049 0.872459 0)
(18.1603 1.65135 0)
(12.45 2.2537 0)
(6.03615 3.73957 0)
(29.9988 0.000356713 0)
(29.9853 0.00108611 0)
(29.9561 0.00187123 0)
(29.9116 0.00287592 0)
(29.8536 0.00419919 0)
(29.7791 0.00598041 0)
(29.6874 0.00830062 0)
(29.5722 0.0118084 0)
(29.4285 0.0163325 0)
(29.2516 0.0229026 0)
(29.0308 0.031707 0)
(28.7428 0.0441145 0)
(28.4522 0.0633828 0)
(27.9773 0.0928407 0)
(27.4144 0.132363 0)
(26.6336 0.222282 0)
(25.6461 0.337954 0)
(24.0371 0.618091 0)
(21.9018 0.96353 0)
(18.2785 1.82252 0)
(12.5683 2.49387 0)
(6.09558 4.14453 0)
(29.9988 0.000390754 0)
(29.9853 0.00118945 0)
(29.9561 0.00204934 0)
(29.9116 0.00314973 0)
(29.8536 0.0045987 0)
(29.7791 0.00654956 0)
(29.6875 0.00909089 0)
(29.5723 0.0129322 0)
(29.4287 0.017888 0)
(29.2516 0.0250814 0)
(29.0315 0.03473 0)
(28.7431 0.0483373 0)
(28.4431 0.069328 0)
(27.9825 0.101874 0)
(27.4171 0.145983 0)
(26.6356 0.24269 0)
(25.6644 0.370344 0)
(24.084 0.67253 0)
(21.9917 1.05359 0)
(18.4059 1.99263 0)
(12.7065 2.73557 0)
(6.16406 4.55378 0)
(29.9988 0.000424791 0)
(29.9853 0.00129275 0)
(29.9561 0.00222746 0)
(29.9116 0.00342352 0)
(29.8536 0.00499815 0)
(29.7792 0.00711864 0)
(29.6874 0.00988111 0)
(29.5723 0.0140557 0)
(29.4287 0.019444 0)
(29.2515 0.0272584 0)
(29.0317 0.0377498 0)
(28.7431 0.0526612 0)
(28.4411 0.0751982 0)
(27.9785 0.111099 0)
(27.4163 0.159767 0)
(26.6388 0.26261 0)
(25.6784 0.402109 0)
(24.1231 0.724972 0)
(22.066 1.14224 0)
(18.5316 2.16104 0)
(12.8609 2.97867 0)
(6.24189 4.96792 0)
(29.9988 0.000458822 0)
(29.9853 0.00139601 0)
(29.9561 0.00240558 0)
(29.9116 0.0036973 0)
(29.8536 0.00539752 0)
(29.7792 0.00768764 0)
(29.6875 0.0106713 0)
(29.5724 0.015179 0)
(29.4289 0.0210003 0)
(29.2515 0.0294354 0)
(29.0323 0.0407879 0)
(28.7445 0.0570281 0)
(28.4294 0.0814215 0)
(27.9729 0.120383 0)
(27.4157 0.173066 0)
(26.6419 0.281889 0)
(25.6877 0.433299 0)
(24.1519 0.775859 0)
(22.1251 1.22949 0)
(18.649 2.32732 0)
(13.0272 3.22284 0)
(6.32904 5.38749 0)
(29.9988 0.000492848 0)
(29.9853 0.00149924 0)
(29.9561 0.0025837 0)
(29.9116 0.00397107 0)
(29.8536 0.00579684 0)
(29.7792 0.00825657 0)
(29.6875 0.0114614 0)
(29.5724 0.0163018 0)
(29.4289 0.0225578 0)
(29.2515 0.0316082 0)
(29.0324 0.0438418 0)
(28.7473 0.0613187 0)
(28.4225 0.0876129 0)
(27.9683 0.129323 0)
(27.4154 0.186147 0)
(26.6444 0.300955 0)
(25.6935 0.464201 0)
(24.1724 0.825706 0)
(22.1723 1.31544 0)
(18.7556 2.49118 0)
(13.2012 3.46767 0)
(6.42528 5.81289 0)
(29.9988 0.000526868 0)
(29.9853 0.00160244 0)
(29.9561 0.00276184 0)
(29.9116 0.00424482 0)
(29.8536 0.00619609 0)
(29.7792 0.00882542 0)
(29.6876 0.0122515 0)
(29.5725 0.0174245 0)
(29.4291 0.0241146 0)
(29.2515 0.0337853 0)
(29.0327 0.0468927 0)
(28.7513 0.0657393 0)
(28.4159 0.0938064 0)
(27.9659 0.138074 0)
(27.4154 0.199129 0)
(26.6463 0.319964 0)
(25.6969 0.494955 0)
(24.1869 0.874861 0)
(22.2109 1.40021 0)
(18.8512 2.65245 0)
(13.3797 3.71272 0)
(6.53017 6.24449 0)
(29.9988 0.000560881 0)
(29.9854 0.00170559 0)
(29.9562 0.00293999 0)
(29.9116 0.00451857 0)
(29.8536 0.00659528 0)
(29.7793 0.00939419 0)
(29.6876 0.0130416 0)
(29.5725 0.0185468 0)
(29.4292 0.0256728 0)
(29.2514 0.035956 0)
(29.0334 0.0500016 0)
(28.7542 0.0702193 0)
(28.4118 0.0999548 0)
(27.9644 0.146753 0)
(27.4155 0.212092 0)
(26.6477 0.338966 0)
(25.6988 0.525617 0)
(24.1973 0.923515 0)
(22.2438 1.48389 0)
(18.937 2.81102 0)
(13.5602 3.9576 0)
(6.64318 6.68254 0)
(29.9988 0.000594887 0)
(29.9853 0.00180872 0)
(29.9562 0.00311815 0)
(29.9116 0.0047923 0)
(29.8537 0.00699441 0)
(29.7793 0.00996286 0)
(29.6877 0.0138317 0)
(29.5726 0.0196687 0)
(29.4294 0.0272323 0)
(29.2513 0.038118 0)
(29.0344 0.053131 0)
(28.7547 0.0747399 0)
(28.4089 0.106054 0)
(27.9638 0.155417 0)
(27.4156 0.225066 0)
(26.6489 0.35797 0)
(25.6997 0.556208 0)
(24.205 0.971774 0)
(22.2729 1.56653 0)
(19.0144 2.96681 0)
(13.7414 4.20193 0)
(6.76377 7.12727 0)
(29.9988 0.000628885 0)
(29.9854 0.0019118 0)
(29.9562 0.00329633 0)
(29.9116 0.00506601 0)
(29.8536 0.00739348 0)
(29.7793 0.0105314 0)
(29.6876 0.0146217 0)
(29.5726 0.0207903 0)
(29.4294 0.0287918 0)
(29.2513 0.0402867 0)
(29.0353 0.0562539 0)
(28.7536 0.0791152 0)
(28.4072 0.112166 0)
(27.9634 0.164072 0)
(27.4157 0.23804 0)
(26.6498 0.376979 0)
(25.7 0.586746 0)
(24.2111 1.0197 0)
(22.2998 1.6482 0)
(19.0852 3.11978 0)
(13.9225 4.44541 0)
(6.89141 7.57885 0)
(29.9988 0.000662875 0)
(29.9854 0.00201485 0)
(29.9562 0.00347453 0)
(29.9117 0.00533971 0)
(29.8537 0.0077925 0)
(29.7794 0.0110999 0)
(29.6878 0.0154118 0)
(29.5728 0.0219116 0)
(29.4296 0.0303531 0)
(29.2515 0.0424628 0)
(29.0354 0.0594377 0)
(28.7523 0.0833869 0)
(28.4061 0.118273 0)
(27.9634 0.172739 0)
(27.4159 0.251017 0)
(26.6507 0.395995 0)
(25.7 0.617242 0)
(24.2164 1.06731 0)
(22.3258 1.72894 0)
(19.1511 3.26992 0)
(14.1034 4.68774 0)
(7.02567 8.03745 0)
(29.9988 0.000696857 0)
(29.9854 0.00211786 0)
(29.9562 0.00365274 0)
(29.9117 0.00561339 0)
(29.8537 0.00819147 0)
(29.7794 0.0116683 0)
(29.6877 0.0162017 0)
(29.5727 0.0230324 0)
(29.4296 0.0319135 0)
(29.2519 0.0446541 0)
(29.0343 0.0626427 0)
(28.7511 0.0876414 0)
(28.4055 0.124395 0)
(27.9634 0.181405 0)
(27.4161 0.26399 0)
(26.6517 0.415019 0)
(25.7001 0.647705 0)
(24.2215 1.11463 0)
(22.3515 1.80878 0)
(19.2134 3.41722 0)
(14.2844 4.9287 0)
(7.16618 8.50321 0)
(29.9988 0.00073083 0)
(29.9854 0.00222084 0)
(29.9562 0.00383097 0)
(29.9117 0.00588706 0)
(29.8537 0.00859037 0)
(29.7794 0.0122366 0)
(29.6878 0.0169916 0)
(29.5729 0.0241537 0)
(29.4297 0.0334692 0)
(29.2526 0.0469056 0)
(29.0323 0.0658268 0)
(28.7503 0.0919014 0)
(28.4051 0.130518 0)
(27.9636 0.190077 0)
(27.4163 0.276959 0)
(26.6527 0.434052 0)
(25.7004 0.678145 0)
(24.2268 1.16162 0)
(22.3777 1.88774 0)
(19.2733 3.56168 0)
(14.466 5.16808 0)
(7.31268 8.9763 0)
(29.9988 0.000764794 0)
(29.9854 0.00232378 0)
(29.9562 0.00400921 0)
(29.9117 0.00616071 0)
(29.8537 0.00898921 0)
(29.7795 0.0128048 0)
(29.6878 0.0177813 0)
(29.5729 0.0252748 0)
(29.4297 0.0350219 0)
(29.2532 0.0492025 0)
(29.0303 0.0689901 0)
(28.7497 0.0961842 0)
(28.405 0.136647 0)
(27.9638 0.198744 0)
(27.4167 0.289922 0)
(26.6539 0.453092 0)
(25.7014 0.708562 0)
(24.2328 1.20824 0)
(22.4047 1.96584 0)
(19.3321 3.7033 0)
(14.6491 5.40572 0)
(7.46501 9.45688 0)
(29.9988 0.00079875 0)
(29.9854 0.00242668 0)
(29.9562 0.00418748 0)
(29.9117 0.00643434 0)
(29.8537 0.009388 0)
(29.7795 0.0133728 0)
(29.6879 0.018571 0)
(29.5731 0.0263963 0)
(29.4298 0.0365709 0)
(29.2536 0.0515304 0)
(29.0289 0.0720565 0)
(28.7494 0.100482 0)
(28.4049 0.142775 0)
(27.9642 0.207412 0)
(27.4172 0.302881 0)
(26.6555 0.472133 0)
(25.7032 0.738945 0)
(24.2395 1.25447 0)
(22.4326 2.04311 0)
(19.3905 3.84206 0)
(14.8349 5.64149 0)
(7.62311 9.94513 0)
(29.9988 0.000832696 0)
(29.9854 0.00252955 0)
(29.9562 0.00436575 0)
(29.9117 0.00670795 0)
(29.8537 0.00978671 0)
(29.7795 0.0139409 0)
(29.6879 0.0193603 0)
(29.5731 0.0275178 0)
(29.4299 0.0381161 0)
(29.2536 0.05384 0)
(29.0281 0.0750539 0)
(28.7493 0.104788 0)
(28.405 0.148904 0)
(27.9646 0.216075 0)
(27.4179 0.315831 0)
(26.6573 0.491167 0)
(25.706 0.769269 0)
(24.2472 1.3003 0)
(22.4616 2.11956 0)
(19.4492 3.97793 0)
(15.0245 5.87525 0)
(7.78701 10.4413 0)
(29.9988 0.000866633 0)
(29.9854 0.00263238 0)
(29.9562 0.00454405 0)
(29.9117 0.00698154 0)
(29.8538 0.0101854 0)
(29.7796 0.0145087 0)
(29.688 0.0201499 0)
(29.5732 0.0286377 0)
(29.4302 0.0396768 0)
(29.2534 0.0561299 0)
(29.0276 0.0780234 0)
(28.7492 0.109099 0)
(28.4051 0.15503 0)
(27.9651 0.224734 0)
(27.4188 0.328771 0)
(26.6596 0.510182 0)
(25.7098 0.799509 0)
(24.2559 1.34573 0)
(22.4915 2.1952 0)
(19.509 4.11086 0)
(15.219 6.10691 0)
(7.95684 10.9455 0)
(29.9988 0.00090056 0)
(29.9854 0.00273518 0)
(29.9562 0.00472236 0)
(29.9117 0.0072551 0)
(29.8538 0.010584 0)
(29.7796 0.0150764 0)
(29.688 0.0209395 0)
(29.5731 0.0297584 0)
(29.4305 0.041246 0)
(29.2527 0.0585173 0)
(29.0273 0.0810011 0)
(28.7492 0.113412 0)
(28.4053 0.161153 0)
(27.9657 0.233389 0)
(27.4199 0.341694 0)
(26.6624 0.529162 0)
(25.7147 0.829647 0)
(24.2657 1.39078 0)
(22.5223 2.27003 0)
(19.57 4.24076 0)
(15.4199 6.33636 0)
(8.1328 11.4581 0)
(29.9988 0.000934478 0)
(29.9854 0.00283794 0)
(29.9562 0.00490069 0)
(29.9117 0.00752864 0)
(29.8538 0.0109826 0)
(29.7796 0.015644 0)
(29.6882 0.0217289 0)
(29.5732 0.0308783 0)
(29.431 0.0428252 0)
(29.2517 0.0608686 0)
(29.0272 0.0840044 0)
(28.7493 0.117725 0)
(28.4056 0.167271 0)
(27.9664 0.242036 0)
(27.4212 0.354594 0)
(26.6656 0.548092 0)
(25.7206 0.859678 0)
(24.2766 1.43545 0)
(22.5539 2.34404 0)
(19.6327 4.36751 0)
(15.6283 6.56353 0)
(8.31515 11.9794 0)
(29.9988 0.000968387 0)
(29.9854 0.00294066 0)
(29.9562 0.00507904 0)
(29.9117 0.00780215 0)
(29.8538 0.0113811 0)
(29.7797 0.0162113 0)
(29.6881 0.0225189 0)
(29.5732 0.0319934 0)
(29.4313 0.0444589 0)
(29.2508 0.0630781 0)
(29.0272 0.0870351 0)
(28.7495 0.122037 0)
(28.4059 0.173386 0)
(27.9671 0.250675 0)
(27.4227 0.367467 0)
(26.6693 0.566962 0)
(25.7275 0.889602 0)
(24.2888 1.47976 0)
(22.5864 2.41723 0)
(19.697 4.49098 0)
(15.8451 6.78833 0)
(8.50422 12.5097 0)
(29.9988 0.00100229 0)
(29.9854 0.00304335 0)
(29.9562 0.0052574 0)
(29.9118 0.00807563 0)
(29.8538 0.0117796 0)
(29.7797 0.0167785 0)
(29.6883 0.023309 0)
(29.5733 0.0331078 0)
(29.4318 0.0461159 0)
(29.25 0.0652633 0)
(29.0273 0.0900858 0)
(28.7497 0.126349 0)
(28.4063 0.179496 0)
(27.968 0.259302 0)
(27.4245 0.380308 0)
(26.6734 0.585764 0)
(25.7353 0.919413 0)
(24.3022 1.5237 0)
(22.6196 2.4896 0)
(19.7628 4.61101 0)
(16.0711 7.01066 0)
(8.70033 13.0493 0)
(29.9988 0.00103618 0)
(29.9854 0.003146 0)
(29.9562 0.00543577 0)
(29.9118 0.00834908 0)
(29.8538 0.012178 0)
(29.7797 0.0173455 0)
(29.6883 0.0240989 0)
(29.5733 0.0342217 0)
(29.4319 0.0477827 0)
(29.2496 0.0674398 0)
(29.0275 0.0931479 0)
(28.7499 0.130659 0)
(28.4067 0.185601 0)
(27.9689 0.267916 0)
(27.4265 0.393111 0)
(26.678 0.604493 0)
(25.744 0.949104 0)
(24.3169 1.56727 0)
(22.6537 2.56113 0)
(19.8301 4.72743 0)
(16.3069 7.23042 0)
(8.90385 13.5987 0)
(29.9988 0.00107006 0)
(29.9854 0.00324861 0)
(29.9562 0.00561415 0)
(29.9118 0.0086225 0)
(29.8539 0.0125763 0)
(29.7798 0.0179124 0)
(29.6884 0.0248889 0)
(29.5735 0.035335 0)
(29.4321 0.0494591 0)
(29.2495 0.0695955 0)
(29.0277 0.0962165 0)
(28.7501 0.134967 0)
(28.4072 0.1917 0)
(27.9699 0.276516 0)
(27.4287 0.405876 0)
(26.6829 0.623142 0)
(25.7534 0.978662 0)
(24.333 1.61049 0)
(22.6887 2.63183 0)
(19.8987 4.84007 0)
(16.5525 7.4475 0)
(9.11513 14.1581 0)
(29.9988 0.00110393 0)
(29.9854 0.00335119 0)
(29.9562 0.00579254 0)
(29.9118 0.00889589 0)
(29.8539 0.0129746 0)
(29.7798 0.0184792 0)
(29.6884 0.0256785 0)
(29.5735 0.0364481 0)
(29.4321 0.0511408 0)
(29.2497 0.0717366 0)
(29.0279 0.0992892 0)
(28.7504 0.139274 0)
(28.4077 0.197794 0)
(27.971 0.285099 0)
(27.431 0.418599 0)
(26.6881 0.641707 0)
(25.7637 1.00808 0)
(24.3504 1.65333 0)
(22.7246 2.7017 0)
(19.9684 4.94877 0)
(16.8078 7.66178 0)
(9.33448 14.728 0)
(29.9988 0.00113779 0)
(29.9854 0.00345374 0)
(29.9562 0.00597095 0)
(29.9118 0.00916924 0)
(29.8539 0.0133728 0)
(29.7799 0.0190459 0)
(29.6885 0.0264676 0)
(29.5738 0.0375619 0)
(29.432 0.0528258 0)
(29.25 0.0738653 0)
(29.0282 0.102365 0)
(28.7507 0.143579 0)
(28.4082 0.20388 0)
(27.9722 0.293664 0)
(27.4336 0.431278 0)
(26.6937 0.66018 0)
(25.7747 1.03733 0)
(24.3693 1.69581 0)
(22.7616 2.77074 0)
(20.0393 5.05335 0)
(17.0727 7.87313 0)
(9.5622 15.3089 0)
(29.9988 0.00117165 0)
(29.9855 0.00355626 0)
(29.9562 0.00614935 0)
(29.9118 0.00944257 0)
(29.8539 0.0137709 0)
(29.7799 0.0196127 0)
(29.6884 0.0272561 0)
(29.5739 0.0386715 0)
(29.4317 0.0545112 0)
(29.2504 0.075985 0)
(29.0285 0.105444 0)
(28.7511 0.147883 0)
(28.4087 0.20996 0)
(27.9734 0.30221 0)
(27.4362 0.443912 0)
(26.6995 0.678555 0)
(25.7864 1.06641 0)
(24.3897 1.73792 0)
(22.7998 2.83897 0)
(20.1113 5.15367 0)
(17.3469 8.0814 0)
(9.79855 15.901 0)
(29.9988 0.00120549 0)
(29.9855 0.00365874 0)
(29.9562 0.00632777 0)
(29.9118 0.00971583 0)
(29.854 0.0141691 0)
(29.78 0.0201786 0)
(29.6886 0.0280477 0)
(29.5742 0.0397776 0)
(29.4314 0.0561169 0)
(29.2509 0.0780968 0)
(29.0288 0.108525 0)
(28.7514 0.152184 0)
(28.4093 0.216032 0)
(27.9747 0.310737 0)
(27.439 0.456499 0)
(26.7056 0.696826 0)
(25.7987 1.0953 0)
(24.4115 1.77965 0)
(22.8394 2.90638 0)
(20.1848 5.24959 0)
(17.6301 8.28646 0)
(10.0438 16.5048 0)
(29.9988 0.00123933 0)
(29.9855 0.00376119 0)
(29.9562 0.00650617 0)
(29.9118 0.00998912 0)
(29.8539 0.0145668 0)
(29.78 0.0207462 0)
(29.6885 0.0288295 0)
(29.5744 0.0409419 0)
(29.4307 0.0574878 0)
(29.2514 0.0802119 0)
(29.0292 0.111607 0)
(28.7518 0.156484 0)
(28.41 0.222097 0)
(27.976 0.319243 0)
(27.442 0.469036 0)
(26.712 0.714987 0)
(25.8118 1.12398 0)
(24.4347 1.82099 0)
(22.8805 2.97297 0)
(20.2597 5.34097 0)
(17.9224 8.48814 0)
(10.2981 17.1208 0)
(29.9988 0.00127316 0)
(29.9855 0.00386361 0)
(29.9563 0.00668457 0)
(29.9119 0.0102623 0)
(29.854 0.0149646 0)
(29.7801 0.0213121 0)
(29.6886 0.0296208 0)
(29.5749 0.0420634 0)
(29.4299 0.059394 0)
(29.2518 0.08236 0)
(29.0295 0.114691 0)
(28.7522 0.160782 0)
(28.4106 0.228154 0)
(27.9774 0.327728 0)
(27.445 0.481522 0)
(26.7185 0.733031 0)
(25.8255 1.15245 0)
(24.4593 1.86192 0)
(22.9234 3.03874 0)
(20.3364 5.42768 0)
(18.2241 8.6863 0)
(10.5616 17.7492 0)
(29.9988 0.00130698 0)
(29.9855 0.00396599 0)
(29.9563 0.00686299 0)
(29.9119 0.0105355 0)
(29.854 0.0153626 0)
(29.7801 0.0218779 0)
(29.6885 0.0304053 0)
(29.575 0.0432402 0)
(29.4295 0.0611959 0)
(29.2523 0.0845386 0)
(29.0299 0.117776 0)
(28.7526 0.165077 0)
(28.4113 0.234203 0)
(27.9788 0.336192 0)
(27.4482 0.493955 0)
(26.7254 0.750952 0)
(25.8398 1.18069 0)
(24.4853 1.90243 0)
(22.9683 3.10368 0)
(20.4149 5.50958 0)
(18.5354 8.88079 0)
(10.8348 18.3907 0)
(29.9988 0.0013408 0)
(29.9855 0.00406834 0)
(29.9563 0.00704135 0)
(29.9119 0.0108088 0)
(29.8541 0.0157593 0)
(29.7802 0.022449 0)
(29.6888 0.0311685 0)
(29.5751 0.0444385 0)
(29.4292 0.0627013 0)
(29.2527 0.0867274 0)
(29.0302 0.12086 0)
(28.753 0.169371 0)
(28.4119 0.240244 0)
(27.9803 0.344634 0)
(27.4515 0.506333 0)
(26.7324 0.768745 0)
(25.8547 1.20867 0)
(24.5125 1.9425 0)
(23.0156 3.16779 0)
(20.495 5.58652 0)
(18.8566 9.07143 0)
(11.1177 19.0455 0)
(29.9988 0.00137462 0)
(29.9855 0.00417066 0)
(29.9563 0.00721975 0)
(29.9119 0.0110817 0)
(29.854 0.0161576 0)
(29.7802 0.02301 0)
(29.6889 0.0319972 0)
(29.5744 0.0453161 0)
(29.4291 0.0641466 0)
(29.253 0.0889156 0)
(29.0306 0.123945 0)
(28.7535 0.173662 0)
(28.4126 0.246278 0)
(27.9818 0.353051 0)
(27.4548 0.518653 0)
(26.7397 0.786405 0)
(25.8701 1.2364 0)
(24.541 1.9821 0)
(23.0657 3.23108 0)
(20.5761 5.65839 0)
(19.1867 9.25811 0)
(11.4106 19.7141 0)
(29.9988 0.00140841 0)
(29.9855 0.00427301 0)
(29.9563 0.00739816 0)
(29.9119 0.0113548 0)
(29.8542 0.016555 0)
(29.7801 0.0235773 0)
(29.6898 0.0327977 0)
(29.5713 0.0466751 0)
(29.4289 0.0656249 0)
(29.2532 0.0911013 0)
(29.0309 0.127028 0)
(28.7539 0.17795 0)
(28.4133 0.252302 0)
(27.9833 0.361444 0)
(27.4582 0.530915 0)
(26.7472 0.803928 0)
(25.886 1.26385 0)
(24.5705 2.0212 0)
(23.1189 3.29354 0)
(20.6575 5.72509 0)
(19.5228 9.44083 0)
(11.7136 20.3977 0)
(29.9988 0.00144203 0)
(29.9855 0.00437523 0)
(29.9563 0.00757663 0)
(29.9119 0.0116277 0)
(29.8542 0.0169535 0)
(29.78 0.024141 0)
(29.6904 0.0336186 0)
(29.5689 0.048094 0)
(29.4288 0.0671393 0)
(29.2534 0.0932877 0)
(29.0312 0.13011 0)
(28.7543 0.182236 0)
(28.414 0.258318 0)
(27.9848 0.369812 0)
(27.4617 0.543112 0)
(26.7548 0.821307 0)
(25.9023 1.29102 0)
(24.601 2.05974 0)
(23.1756 3.35519 0)
(20.7386 5.78659 0)
(19.8578 9.61927 0)
(12.0265 21.1038 0)
(29.9988 0.0014752 0)
(29.9855 0.00447637 0)
(29.9563 0.00775365 0)
(29.9119 0.0118979 0)
(29.8543 0.0173489 0)
(29.78 0.0246929 0)
(29.6907 0.0344942 0)
(29.568 0.0492248 0)
(29.4287 0.0686623 0)
(29.2535 0.095472 0)
(29.0315 0.133193 0)
(28.7547 0.186519 0)
(28.4147 0.264333 0)
(27.9863 0.378156 0)
(27.4653 0.555244 0)
(26.7626 0.838538 0)
(25.9189 1.31789 0)
(24.6323 2.09765 0)
(23.2364 3.41605 0)
(20.8195 5.84298 0)
(20.1804 9.79139 0)
(12.4354 21.8537 0)
(0.347867 0.00708432 0)
(-0.998647 0.023326 0)
(-1.79421 0.00865594 0)
(-1.84238 -0.00243608 0)
(-1.5076 -0.00647892 0)
(-1.07749 -0.00519315 0)
(-0.846473 -0.00225119 0)
(-0.774884 -0.000117097 0)
(-0.838087 0.000289687 0)
(-0.833846 0.000202223 0)
(-0.890295 1.06379e-05 0)
(-0.859756 -0.000913134 0)
(-0.651727 -0.00215745 0)
(-0.336243 -0.00257311 0)
(-0.00611791 -0.00309293 0)
(0.456972 -0.00449266 0)
(1.22041 -0.00635488 0)
(2.35632 -0.0078624 0)
(3.789 -0.00833491 0)
(5.32142 -0.0079191 0)
(6.85505 -0.00724353 0)
(8.38245 -0.00661522 0)
(9.88034 -0.00595062 0)
(11.3291 -0.00529188 0)
(12.7217 -0.00468086 0)
(14.0521 -0.00412001 0)
(15.3156 -0.00365263 0)
(16.5422 -0.00340314 0)
(17.83 -0.00300976 0)
(18.9462 -0.00181842 0)
(19.3875 -0.00448106 0)
(23.1833 -0.00953719 0)
(29.1279 -0.00610596 0)
(29.831 -0.000551293 0)
(29.7757 4.37953e-05 0)
(0.369956 0.0204649 0)
(-0.979019 0.0697927 0)
(-1.76938 0.02578 0)
(-1.81509 -0.00721859 0)
(-1.48243 -0.0194155 0)
(-1.05426 -0.0155201 0)
(-0.823126 -0.0067463 0)
(-0.748124 -0.000251129 0)
(-0.81214 0.00109167 0)
(-0.820443 0.000885782 0)
(-0.89863 0.000246141 0)
(-0.884692 -0.00286336 0)
(-0.67452 -0.00693794 0)
(-0.322768 -0.00817459 0)
(0.0463292 -0.00918261 0)
(0.505883 -0.0127898 0)
(1.22297 -0.0182303 0)
(2.31703 -0.0229994 0)
(3.74205 -0.0246956 0)
(5.2917 -0.0236572 0)
(6.84714 -0.0217406 0)
(8.38329 -0.0198305 0)
(9.87532 -0.0178286 0)
(11.3168 -0.0158665 0)
(12.7041 -0.0140384 0)
(14.0324 -0.012358 0)
(15.2968 -0.0109493 0)
(16.5232 -0.0101907 0)
(17.8094 -0.0090565 0)
(18.9407 -0.0054845 0)
(19.3922 -0.0129141 0)
(22.8989 -0.0283523 0)
(29.0496 -0.0188829 0)
(29.8345 -0.00174157 0)
(29.778 0.000134717 0)
(0.397568 0.0327044 0)
(-0.956519 0.116216 0)
(-1.74045 0.0426613 0)
(-1.77894 -0.0119804 0)
(-1.44365 -0.0324341 0)
(-1.01956 -0.0258093 0)
(-0.789859 -0.0113415 0)
(-0.714911 -0.000447522 0)
(-0.783828 0.00198815 0)
(-0.808008 0.0019984 0)
(-0.907728 0.000796044 0)
(-0.906463 -0.00434611 0)
(-0.683092 -0.0118358 0)
(-0.28652 -0.0143581 0)
(0.117103 -0.0156754 0)
(0.559668 -0.0208235 0)
(1.22191 -0.0293716 0)
(2.27706 -0.0374961 0)
(3.70261 -0.0408167 0)
(5.27615 -0.0394991 0)
(6.85575 -0.0363307 0)
(8.40131 -0.0330023 0)
(9.8878 -0.0295931 0)
(11.3213 -0.0263333 0)
(12.7026 -0.0233291 0)
(14.0276 -0.020571 0)
(15.2915 -0.0182406 0)
(16.5169 -0.0169701 0)
(17.8006 -0.0151282 0)
(18.9446 -0.0092122 0)
(19.4093 -0.0208352 0)
(22.6544 -0.0471371 0)
(28.9756 -0.0320339 0)
(29.8374 -0.00308654 0)
(29.7803 0.000225885 0)
(0.430899 0.0436817 0)
(-0.931701 0.162682 0)
(-1.70717 0.0592184 0)
(-1.7334 -0.0170318 0)
(-1.39263 -0.0454318 0)
(-0.974654 -0.0359712 0)
(-0.748831 -0.0158522 0)
(-0.675889 -0.000525076 0)
(-0.75004 0.00317833 0)
(-0.789633 0.0035373 0)
(-0.911344 0.0017392 0)
(-0.921694 -0.00597309 0)
(-0.681672 -0.017399 0)
(-0.237669 -0.0213198 0)
(0.201054 -0.0223892 0)
(0.624882 -0.0284886 0)
(1.22756 -0.0401682 0)
(2.24051 -0.0521243 0)
(3.66852 -0.0573686 0)
(5.2718 -0.0557497 0)
(6.8807 -0.0511412 0)
(8.43797 -0.0462212 0)
(9.91966 -0.0413246 0)
(11.3445 -0.0367643 0)
(12.7187 -0.0325978 0)
(14.0387 -0.0287762 0)
(15.3006 -0.0255289 0)
(16.5238 -0.0237406 0)
(17.8042 -0.0212254 0)
(18.9586 -0.0129995 0)
(19.4391 -0.0282595 0)
(22.4501 -0.0655751 0)
(28.9055 -0.0456728 0)
(29.8396 -0.00455855 0)
(29.7826 0.000318053 0)
(0.47015 0.0532109 0)
(-0.90475 0.20917 0)
(-1.66901 0.0752985 0)
(-1.6778 -0.0224688 0)
(-1.32986 -0.0583924 0)
(-0.919814 -0.0459175 0)
(-0.700623 -0.020236 0)
(-0.630846 -0.00050081 0)
(-0.710214 0.00461428 0)
(-0.764686 0.00548894 0)
(-0.908177 0.00307389 0)
(-0.929172 -0.00766876 0)
(-0.669647 -0.02356 0)
(-0.175942 -0.0290109 0)
(0.299412 -0.0292727 0)
(0.705281 -0.0356271 0)
(1.24417 -0.0503148 0)
(2.2094 -0.0665724 0)
(3.64091 -0.0741946 0)
(5.28119 -0.0723891 0)
(6.9258 -0.0661848 0)
(8.49757 -0.0594853 0)
(9.97482 -0.0530014 0)
(11.3898 -0.0471296 0)
(12.755 -0.0418185 0)
(14.0679 -0.0369544 0)
(15.3258 -0.0328023 0)
(16.5455 -0.0304956 0)
(17.8216 -0.0273375 0)
(18.9838 -0.0168463 0)
(19.4826 -0.0352669 0)
(22.2835 -0.083766 0)
(28.839 -0.0596618 0)
(29.8412 -0.00615468 0)
(29.7847 0.000409814 0)
(0.515426 0.061098 0)
(-0.875761 0.255708 0)
(-1.62531 0.0907306 0)
(-1.61121 -0.0284113 0)
(-1.25535 -0.071342 0)
(-0.854928 -0.0555951 0)
(-0.645228 -0.0244473 0)
(-0.579152 -0.000362941 0)
(-0.66351 0.00628913 0)
(-0.732391 0.00784121 0)
(-0.89675 0.00477678 0)
(-0.927226 -0.00945421 0)
(-0.646449 -0.0303179 0)
(-0.1024 -0.037402 0)
(0.41108 -0.0363012 0)
(0.802632 -0.0421676 0)
(1.27704 -0.0596431 0)
(2.18926 -0.0806833 0)
(3.62436 -0.0912492 0)
(5.30986 -0.0894504 0)
(6.99788 -0.0814941 0)
(8.58757 -0.0728026 0)
(10.0601 -0.0646135 0)
(11.4628 -0.0574107 0)
(12.8161 -0.0509716 0)
(14.119 -0.0450885 0)
(15.3702 -0.0400478 0)
(16.5844 -0.037226 0)
(17.8548 -0.0334531 0)
(19.0219 -0.0207518 0)
(19.5415 -0.0419071 0)
(22.151 -0.101717 0)
(28.7759 -0.0739217 0)
(29.8422 -0.00786763 0)
(29.7867 0.00050027 0)
(0.56667 0.0671482 0)
(-0.844735 0.302311 0)
(-1.57524 0.105328 0)
(-1.53214 -0.0349765 0)
(-1.16851 -0.0842772 0)
(-0.7794 -0.0649449 0)
(-0.582065 -0.0284436 0)
(-0.519823 -0.000110882 0)
(-0.60876 0.00819271 0)
(-0.691647 0.0105775 0)
(-0.875509 0.00682578 0)
(-0.914153 -0.0113625 0)
(-0.611641 -0.0376687 0)
(-0.0178241 -0.0464918 0)
(0.535518 -0.0435235 0)
(0.918307 -0.0481769 0)
(1.33183 -0.0681431 0)
(2.18875 -0.0944011 0)
(3.62736 -0.10855 0)
(5.36718 -0.107011 0)
(7.10812 -0.097124 0)
(8.72033 -0.0861896 0)
(10.1868 -0.0761477 0)
(11.5728 -0.0675801 0)
(12.9093 -0.0600298 0)
(14.1974 -0.053156 0)
(15.4382 -0.0472496 0)
(16.6445 -0.0439211 0)
(17.907 -0.0395606 0)
(19.0753 -0.0247126 0)
(19.6181 -0.0482203 0)
(22.0495 -0.119404 0)
(28.716 -0.0883907 0)
(29.8425 -0.00969104 0)
(29.7887 0.000588556 0)
(0.623594 0.0711691 0)
(-0.811565 0.348971 0)
(-1.51781 0.118867 0)
(-1.43869 -0.0422776 0)
(-1.0685 -0.0971614 0)
(-0.692372 -0.0738961 0)
(-0.510184 -0.0321835 0)
(-0.451631 0.00024915 0)
(-0.544513 0.0103126 0)
(-0.640954 0.0136773 0)
(-0.842637 0.00918083 0)
(-0.888031 -0.0134013 0)
(-0.564184 -0.0456115 0)
(0.0788901 -0.0563103 0)
(0.674914 -0.0510251 0)
(1.05541 -0.0537683 0)
(1.41456 -0.0758892 0)
(2.21855 -0.107732 0)
(3.66248 -0.126132 0)
(5.46745 -0.125166 0)
(7.27387 -0.113146 0)
(8.91573 -0.0996672 0)
(10.3739 -0.0875808 0)
(11.7351 -0.0775943 0)
(13.046 -0.0689503 0)
(14.3119 -0.0611234 0)
(15.5365 -0.054385 0)
(16.7311 -0.0505664 0)
(17.983 -0.0456444 0)
(19.1474 -0.0287233 0)
(19.716 -0.0542341 0)
(21.9774 -0.136793 0)
(28.6594 -0.103014 0)
(29.8422 -0.011619 0)
(29.7905 0.000673822 0)
(0.685602 0.0729726 0)
(-0.776034 0.395647 0)
(-1.4518 0.131085 0)
(-1.32881 -0.0504224 0)
(-0.954639 -0.109933 0)
(-0.593029 -0.0823781 0)
(-0.428479 -0.0356299 0)
(-0.373203 0.000704532 0)
(-0.469094 0.0126321 0)
(-0.5784 0.0171141 0)
(-0.795816 0.0118109 0)
(-0.846362 -0.0155841 0)
(-0.501768 -0.0541464 0)
(0.191271 -0.0669068 0)
(0.834658 -0.0589046 0)
(1.21998 -0.0590555 0)
(1.53259 -0.0829895 0)
(2.29082 -0.120743 0)
(3.74647 -0.144059 0)
(5.63115 -0.144041 0)
(7.52043 -0.129667 0)
(9.20392 -0.113269 0)
(10.6517 -0.0988748 0)
(11.9749 -0.0873812 0)
(13.2445 -0.0776623 0)
(14.4753 -0.0689376 0)
(15.6745 -0.0614197 0)
(16.8519 -0.0571409 0)
(18.0894 -0.0516831 0)
(19.2433 -0.032775 0)
(19.8395 -0.0599653 0)
(21.9347 -0.153843 0)
(28.6063 -0.117736 0)
(29.8412 -0.0136454 0)
(29.7922 0.000755223 0)
(0.751716 0.0724002 0)
(-0.737786 0.44225 0)
(-1.37582 0.141685 0)
(-1.2008 -0.0595063 0)
(-0.826724 -0.122508 0)
(-0.480902 -0.0903311 0)
(-0.33588 -0.0387565 0)
(-0.283141 0.00123365 0)
(-0.380682 0.0151255 0)
(-0.501667 0.0208519 0)
(-0.73207 0.0146667 0)
(-0.785727 -0.0179116 0)
(-0.420423 -0.0632792 0)
(0.325312 -0.0783518 0)
(1.02334 -0.0672808 0)
(1.42165 -0.0641564 0)
(1.69604 -0.089566 0)
(2.42006 -0.133562 0)
(3.90071 -0.162475 0)
(5.8856 -0.163835 0)
(7.88069 -0.14686 0)
(9.62519 -0.127066 0)
(11.0648 -0.109978 0)
(12.3317 -0.0968239 0)
(13.5338 -0.0860492 0)
(14.7073 -0.0765116 0)
(15.8663 -0.0683 0)
(17.0179 -0.0636133 0)
(18.2353 -0.0576465 0)
(19.3695 -0.036853 0)
(19.9949 -0.0654211 0)
(21.9241 -0.170508 0)
(28.557 -0.1325 0)
(29.8397 -0.0157638 0)
(29.7937 0.000831934 0)
(0.82088 0.0692936 0)
(-0.696408 0.488641 0)
(-1.28828 0.150349 0)
(-1.05381 -0.0695986 0)
(-0.685275 -0.134781 0)
(-0.356122 -0.0977137 0)