/*--------------------------------*- C++ -*----------------------------------*\
| =========                 |                                                 |
| \\      /  F ield         | OpenFOAM: The Open Source CFD Toolbox           |
|  \\    /   O peration     | Version:  v1912                                 |
|   \\  /    A nd           | Website:  www.openfoam.com                      |
|    \\/     M anipulation  |                                                 |
\*---------------------------------------------------------------------------*/
FoamFile
{
    version     2.0;
    format      ascii;
    class       volScalarField;
    location    "450";
    object      yPlus;
}
// * * * * * * * * * * * * * * * * * * * * * * * * * * * * * * * * * * * * * //

dimensions      [0 0 0 0 0 0 0];


internalField   uniform 0;

boundaryField
{
    inlet
    {
        type            calculated;
        value           uniform 0;
    }
    outlet
    {
        type            calculated;
        value           uniform 0;
    }
    lowerSymmetry
    {
        type            symmetryPlane;
    }
    obstical
    {
        type            calculated;
        value           nonuniform List<scalar> 
88
(
479.259
481.46
485.857
492.427
501.104
511.798
524.422
538.887
555.107
573.002
592.496
613.515
635.976
659.791
684.865
711.103
738.416
766.723
795.95
826.04
856.941
888.617
921.039
954.188
988.054
1022.63
1057.93
1093.96
1130.73
1168.25
1206.56
1245.67
1285.6
1326.38
1368.03
1410.56
1454
1498.37
1543.69
1589.99
1637.29
1685.65
1735.48
1790.72
40.4793
42.6266
45.3051
48.5032
52.2121
56.4186
61.0997
66.2168
71.7087
77.4864
83.4589
89.5262
95.5614
101.412
106.903
111.845
116.044
119.311
121.479
122.412
122.014
120.233
117.064
112.551
106.787
99.9203
92.1662
83.8315
75.3679
67.4695
61.1944
57.9406
58.8989
64.1894
72.8859
83.8847
96.4465
110.247
125.274
141.704
159.883
180.18
202.915
228.905
)
;
    }
    obsticalTop
    {
        type            calculated;
        value           nonuniform List<scalar> 
20
(
53.3931
38.8023
47.1538
53.239
56.0807
57.713
58.3139
58.004
57.0518
55.5885
53.5887
50.941
47.5494
43.2242
37.9351
31.0409
24.6351
15.0868
13.6073
11.3741
)
;
    }
    top
    {
        type            calculated;
        value           uniform 0;
    }
    defaultFaces
    {
        type            empty;
    }
}


// ************************************************************************* //
