/*--------------------------------*- C++ -*----------------------------------*\
| =========                 |                                                 |
| \\      /  F ield         | OpenFOAM: The Open Source CFD Toolbox           |
|  \\    /   O peration     | Version:  v1912                                 |
|   \\  /    A nd           | Website:  www.openfoam.com                      |
|    \\/     M anipulation  |                                                 |
\*---------------------------------------------------------------------------*/
FoamFile
{
    version     2.0;
    format      ascii;
    class       volScalarField;
    location    "140";
    object      epsilon;
}
// * * * * * * * * * * * * * * * * * * * * * * * * * * * * * * * * * * * * * //

dimensions      [0 2 -3 0 0 0 0];


internalField   nonuniform List<scalar> 
12441
(
0.0102961
0.00908241
0.00832485
0.00770068
0.00718053
0.00674489
0.00637859
0.00606759
0.00580153
0.0055734
0.00537611
0.0052063
0.00504369
0.00491729
0.0047943
0.00469365
0.00469054
0.0180002
0.246771
2.89662
20.9895
39.25
0.0101184
0.00891659
0.00818082
0.00757405
0.00706753
0.00664305
0.00628625
0.0059832
0.00572377
0.0055014
0.00530905
0.00514382
0.00498416
0.0048616
0.00474176
0.00464564
0.00467785
0.0177396
0.232747
2.89013
21.2823
40.2318
0.00989637
0.00871401
0.00799721
0.00740624
0.00691316
0.0065001
0.00615292
0.0058582
0.00560612
0.00539026
0.00520381
0.00504408
0.00488884
0.00477189
0.00465681
0.00456608
0.00458606
0.0161717
0.198511
2.86316
21.6648
41.3784
0.00967276
0.0085104
0.00781184
0.00723595
0.00675542
0.00635305
0.00601498
0.00572816
0.00548297
0.00527325
0.00509234
0.0049377
0.00478886
0.0046759
0.00456653
0.00448058
0.00447795
0.0142749
0.164233
2.84463
22.1342
42.5504
0.00942858
0.00828609
0.00760617
0.00704583
0.00657865
0.00618767
0.00585923
0.00558082
0.00534311
0.00514011
0.00496537
0.00481652
0.00467239
0.00456572
0.00446165
0.00438294
0.00434315
0.0125744
0.14728
2.85499
22.6493
43.6698
0.00922257
0.00809642
0.00743171
0.00688399
0.00642722
0.00604511
0.00572428
0.00545243
0.00522041
0.00502242
0.00485217
0.00470739
0.00456913
0.00446541
0.00436667
0.00429144
0.00426934
0.0129298
0.167912
2.9611
23.2678
44.7472
0.00900196
0.00789315
0.00724481
0.00671072
0.00626571
0.00589365
0.00558124
0.00531675
0.00509125
0.0048991
0.00473418
0.00459433
0.00445975
0.0043623
0.00426606
0.00419855
0.00602947
0.0222302
0.272029
3.25053
24.0805
45.7945
0.00882347
0.00772837
0.00709289
0.00656944
0.00613309
0.00576835
0.00546224
0.00520311
0.00498221
0.00479405
0.00463263
0.0044959
0.00436662
0.00427079
0.00418478
0.00517518
0.0349358
0.0799402
0.577862
3.84989
25.1964
46.8732
0.00862938
0.00754952
0.00692846
0.00641704
0.00599111
0.00563526
0.00533656
0.0050839
0.00486872
0.00468565
0.00452885
0.00439632
0.00427006
0.00413969
0.00540191
0.0275368
0.184063
0.309637
1.24943
4.89379
26.7298
48.0153
0.00847464
0.00740644
0.00679642
0.00629411
0.0058755
0.00552581
0.00523244
0.00498428
0.00477293
0.00459315
0.0044392
0.00430941
0.00418875
0.00427465
0.0257801
0.158416
0.58005
0.856963
2.33656
6.43799
28.7638
49.2846
0.00830527
0.00725036
0.00665298
0.00616119
0.00575177
0.00540991
0.00512302
0.00488051
0.00467414
0.00449876
0.00434878
0.00422347
0.0040745
0.00962839
0.121401
0.491326
1.23736
1.72311
3.67781
8.40281
31.3246
50.6975
0.00817019
0.00712543
0.00653768
0.00605381
0.00565067
0.00531408
0.00503177
0.0047931
0.00458998
0.00441739
0.00426982
0.004148
0.00415653
0.0506277
0.366028
1.00395
1.98336
2.70125
5.02633
10.6083
34.3707
52.295
0.00802112
0.00698816
0.00641166
0.00593716
0.00554225
0.00521266
0.00493609
0.00470241
0.00450368
0.00433494
0.0041908
0.00403437
0.0084364
0.183199
0.741231
1.55162
2.64572
3.57896
6.22392
12.8647
37.8129
54.0597
0.00790017
0.00687627
0.00630839
0.00584099
0.00545167
0.00512677
0.00485431
0.0046241
0.0044283
0.00426208
0.00412014
0.00387933
0.0386109
0.412228
1.13277
2.0189
3.16273
4.27467
7.22854
15.0326
41.5365
56.0037
0.00776885
0.00675533
0.00619738
0.00573824
0.00535622
0.00503751
0.00477009
0.00454422
0.00435224
0.00418934
0.00405034
0.00427281
0.124947
0.677209
1.47136
2.38484
3.54996
4.80255
8.0599
17.0352
45.4282
58.0812
0.00765972
0.00665437
0.00610422
0.00565149
0.00527448
0.00495998
0.00469629
0.00447358
0.00428428
0.00412369
0.00398675
0.0096617
0.264969
0.923308
1.7423
2.66601
3.84056
5.20448
8.75429
18.843
49.387
60.2902
0.00754386
0.00654772
0.0060064
0.00556101
0.0051905
0.00488147
0.00462217
0.00440323
0.0042172
0.00405943
0.00392542
0.034233
0.427038
1.13172
1.95633
2.88412
4.06306
5.51864
9.34543
20.4545
53.3349
62.571
0.00744226
0.00645384
0.00591987
0.00548054
0.00511477
0.00480976
0.00455407
0.0043382
0.00415482
0.00399935
0.0038701
0.0912666
0.582803
1.30302
2.12744
3.05672
4.23809
5.77293
9.85938
21.8814
57.2152
64.9213
0.00733973
0.00635937
0.00583316
0.00540026
0.00504022
0.00473999
0.00448807
0.00427543
0.00409482
0.00394173
0.00380747
0.173754
0.720031
1.44456
2.26706
3.19655
4.37984
5.98627
10.3148
23.1407
60.9938
67.2818
0.00724502
0.00627191
0.0057526
0.00532541
0.00496982
0.00467342
0.00442497
0.0042153
0.00403727
0.00388644
0.00429697
0.265063
0.837449
1.56361
2.38359
3.31258
4.49801
6.17109
10.7242
24.2499
64.6539
69.6617
0.00715489
0.00618883
0.00567634
0.00525475
0.00490417
0.00461186
0.00436659
0.00415957
0.00398381
0.00383496
0.0102485
0.354101
0.938232
1.66593
2.48304
3.41119
4.59936
6.3353
11.0957
25.2255
68.1965
72.0102
0.00706403
0.00610508
0.00559936
0.00518341
0.00483727
0.00454883
0.00430709
0.00410315
0.00393007
0.00378409
0.0307692
0.436147
1.02624
1.75569
2.56977
3.49694
4.68858
6.48351
11.4344
26.0825
71.6351
74.3523
0.00698483
0.00603192
0.00553204
0.00512086
0.00477898
0.00449399
0.00425484
0.00405304
0.00388178
0.00373945
0.0687273
0.510533
1.1047
1.83596
2.647
3.57317
4.76892
6.61815
11.7432
26.8342
74.9982
76.6493
0.00689825
0.00595219
0.00545883
0.00505313
0.0047156
0.00443443
0.0041988
0.00400009
0.00383153
0.00369963
0.117031
0.578078
1.17606
1.90901
2.71715
3.6423
4.84244
6.74028
12.0238
27.4924
78.3244
78.9445
0.00683008
0.00588912
0.00540074
0.004999
0.004665
0.00438657
0.00415291
0.00395576
0.0037885
0.00368193
0.167908
0.64013
1.24212
1.97658
2.78202
3.70609
4.91034
6.85034
12.2772
28.0677
81.6653
81.212
0.00674429
0.00581041
0.00532873
0.00493269
0.0046033
0.00432898
0.00409911
0.00390531
0.00374101
0.00364462
0.217541
0.698046
1.30422
2.04001
2.84299
3.76571
4.97313
6.94863
12.5042
28.5691
85.0809
83.5114
0.00668525
0.00575551
0.00527791
0.00488505
0.00455847
0.00428626
0.00405782
0.0038651
0.00370173
0.0038608
0.265122
0.752988
1.36335
2.10036
2.90102
3.82194
5.03097
7.0355
12.7055
29.0045
88.6403
85.8273
0.00660142
0.00567875
0.00520781
0.00482069
0.0044988
0.0042308
0.00400625
0.003817
0.00365677
0.00595611
0.311117
0.805886
1.42031
2.15842
2.95681
3.87519
5.0839
7.11138
12.882
29.3804
92.4158
88.2307
0.00655187
0.00563244
0.00516474
0.00478001
0.0044602
0.00419362
0.00396989
0.00378116
0.00362174
0.0120021
0.356301
0.857458
1.47572
2.21482
3.0108
3.92572
5.13196
7.17683
13.0346
29.702
96.4811
90.7106
0.00646767
0.00555568
0.00509496
0.0047163
0.00440153
0.00413953
0.00392001
0.00373503
0.00357992
0.0238987
0.401392
0.908268
1.53009
2.27001
3.06328
3.97366
5.17529
7.23242
13.1645
29.9733
100.903
93.3406
0.00642555
0.00551593
0.00505764
0.00468066
0.00436731
0.00410616
0.00388698
0.00370214
0.00354942
0.0431132
0.44695
0.958761
1.58383
2.32434
3.11445
4.01916
5.21411
7.27881
13.2729
30.1977
105.741
96.1058
0.00634298
0.00544078
0.00498945
0.00461857
0.00431035
0.00405388
0.003839
0.00365799
0.00351323
0.0702196
0.493385
1.0093
1.63726
2.37806
3.16446
4.06236
5.24871
7.31668
13.3612
30.3784
111.04
99.0732
0.00630941
0.00540881
0.00495913
0.0045892
0.0042817
0.00402539
0.00381026
0.00362885
0.00349298
0.105126
0.540983
1.06018
1.69064
2.43136
3.21343
4.10347
5.27943
7.34675
13.4309
30.5182
116.83
102.217
0.00622482
0.00533221
0.00488999
0.00452666
0.00422481
0.00397368
0.00376328
0.00358608
0.00347189
0.147309
0.589931
1.11163
1.7442
2.48441
3.26153
4.14273
5.30668
7.36976
13.4836
30.6204
123.131
105.592
0.00619811
0.0053063
0.00486496
0.00450187
0.00420006
0.0039485
0.00373737
0.00355936
0.00347808
0.196124
0.640323
1.16384
1.79809
2.53736
3.30892
4.18042
5.33093
7.38654
13.5211
30.6884
129.953
109.157
0.006111
0.00522788
0.00479455
0.00443858
0.00414293
0.00389702
0.003691
0.00351752
0.00355471
0.2508
0.69215
1.21694
1.85245
2.59033
3.3558
4.21687
5.35267
7.39793
13.5452
30.7254
137.298
112.957
0.00608757
0.00520489
0.00477206
0.00441595
0.00411996
0.00387329
0.00366629
0.00349183
0.0066211
0.310327
0.745284
1.27102
1.90735
2.64348
3.4024
4.25247
5.37247
7.40483
13.5579
30.7341
145.163
116.938
0.00599546
0.00512258
0.00469862
0.00435039
0.00406124
0.0038208
0.00361939
0.00344986
0.0362257
0.373129
0.799473
1.3261
1.96286
2.69693
3.44897
4.28759
5.3909
7.4082
13.5612
30.7168
153.524
121.137
0.00596728
0.0050955
0.00467258
0.00432463
0.00403551
0.00379464
0.00359254
0.00342301
0.0984758
0.436193
0.854347
1.38217
2.01902
2.75083
3.49578
4.32268
5.40863
7.40908
13.5573
30.6749
162.319
125.495
0.00586247
0.00500229
0.00458978
0.00425106
0.00397
0.00373644
0.00354086
0.00338271
0.15727
0.496097
0.909462
1.43915
2.07585
2.8053
3.54311
4.35819
5.4263
7.40854
13.5487
30.6095
171.403
130.045
0.005821
0.00496318
0.00455285
0.00421537
0.00393519
0.003702
0.00350654
0.00339386
0.202354
0.551012
0.964362
1.49693
2.13331
2.86045
3.59123
4.39461
5.44463
7.40778
13.5376
30.5218
180.487
134.727
0.00569927
0.00485543
0.00445718
0.00413013
0.00385904
0.00363401
0.00344577
0.00460409
0.236167
0.600453
1.01864
1.55534
2.19141
2.91634
3.64042
4.4324
5.46433
7.40803
13.5266
30.4139
189.068
139.588
0.00561708
0.00478929
0.00440334
0.0040848
0.00381955
0.00359813
0.00341198
0.00778413
0.26183
0.644567
1.07194
1.61417
2.2501
2.97304
3.69094
4.47205
5.48614
7.41064
13.5181
30.2892
196.427
144.654
0.00525447
0.00445973
0.00411009
0.00382413
0.00358703
0.00338901
0.00322224
0.0100905
0.281494
0.683654
1.12399
1.67317
2.30934
3.03051
3.74304
4.51401
5.51079
7.41705
13.5143
30.151
201.739
150.447
95.0235
115.809
74.8972
58.63
49.1602
40.3295
37.7546
34.2963
32.366
32.4083
33.4648
30.4975
30.8082
36.0635
45.3672
50.1492
47.3918
47.8923
51.8296
46.7782
33.7972
25.161
20.6428
16.7669
12.2945
7.11873
5.43274
5.0314
4.92169
5.13539
5.52542
5.756
5.72441
5.13703
4.38682
94.6475
116.687
76.9792
62.4897
52.8452
42.9829
40.1617
36.1403
33.8389
33.7635
34.5559
31.6636
31.6763
36.5309
45.8134
51.2364
48.3579
48.4032
52.2751
47.6382
34.5106
25.5526
20.8825
16.8665
12.3081
7.1187
5.42613
5.02516
4.91588
5.12959
5.51883
5.74799
5.71577
5.12864
4.38
93.9266
118.189
80.5538
68.8839
59.2039
47.5624
44.1122
39.1943
36.5933
36.4991
36.7896
34.1998
33.7116
37.7636
45.9559
51.2823
48.9546
48.6557
52.0929
47.9221
35.3081
26.2228
21.3584
17.0661
12.2624
7.09614
5.41219
5.01271
4.90431
5.11802
5.50569
5.73201
5.69854
5.11188
4.3664
92.8104
120.131
85.494
77.5161
67.922
53.9998
49.6038
43.6257
40.7741
40.6694
40.3728
38.5107
37.4598
40.469
47.0664
51.431
49.6548
49.0216
51.7983
48.1102
36.3768
27.2458
22.1103
17.3983
12.1876
7.05545
5.39111
4.99413
4.88704
5.10074
5.48604
5.70809
5.67277
5.08682
4.34604
91.3035
122.336
91.5467
87.3499
78.3757
62.2315
56.6604
49.4711
46.3597
46.2446
45.4629
45.0101
43.5919
45.4559
50.4397
53.096
51.137
49.9861
51.9371
48.683
37.9383
28.7258
23.1965
17.9036
12.1118
7.00084
5.36312
4.9695
4.86415
5.07779
5.45992
5.67626
5.63851
5.05348
4.31898
89.3553
124.612
98.2601
96.9212
89.6302
72.0426
65.2974
56.7645
53.3024
53.1058
52.0277
53.6466
52.5019
53.3977
57.1872
57.9315
54.6558
52.4379
53.3262
50.2911
40.3155
30.8201
24.7011
18.6347
12.0621
6.93636
5.32849
4.93889
4.83575
5.04926
5.42738
5.63659
5.59584
5.01195
4.28529
87.0012
126.767
105.009
104.986
100.569
82.9252
75.45
65.487
61.488
61.0266
59.7071
63.3523
63.5962
64.4443
68.0535
67.5357
62.0677
57.8916
57.2541
53.9076
44.0165
33.7707
26.7456
19.6605
12.0648
6.86598
5.28754
4.90244
4.80195
5.0152
5.38848
5.58911
5.54484
4.9623
4.24504
84.2135
128.616
111.137
111.153
110.228
93.9393
86.8285
75.4744
70.6755
69.6237
67.7649
71.9731
74.6595
77.4838
82.8839
82.9892
75.5173
68.5497
65.664
61.0133
49.8556
37.9541
29.5047
21.0726
12.1466
6.79354
5.24062
4.86026
4.76289
4.97571
5.3433
5.53389
5.48562
4.90464
4.19834
81.0699
130.012
116.182
115.96
118.213
103.821
98.7559
86.3045
80.4394
78.3786
75.2638
77.6242
82.6673
89.6215
99.5002
103.377
96.1289
86.6587
81.0193
73.7325
59.1018
43.946
33.2254
22.992
12.3363
6.72287
5.18813
4.81253
4.71872
4.93089
5.29193
5.47103
5.41834
4.83911
4.14532
77.574
130.863
120.066
120.367
124.861
111.492
110.128
97.2287
90.186
86.722
81.444
80.3074
86.3089
97.6669
113.648
123.937
120.738
111.51
104.373
94.1427
73.4647
52.5695
38.2421
25.5759
12.6655
6.65772
5.13049
4.75941
4.66963
4.88087
5.23447
5.40064
5.34314
4.76587
4.08614
73.8369
131.142
123.178
125.218
130.968
116.679
119.661
107.245
99.2562
94.2198
86.2604
81.5215
86.9351
100.948
122.118
138.476
141.067
135.464
130.343
120.694
94.0912
64.76
44.9544
29.017
13.1694
6.60176
5.06816
4.70111
4.61582
4.82579
5.17105
5.32285
5.26026
4.68514
4.02099
69.8857
130.882
126.333
130.993
137.344
120.086
126.45
115.388
107.116
100.665
90.2347
82.8198
86.8133
101.47
125.483
145.262
151.511
149.311
147.654
143.676
118.235
80.7819
53.6805
33.5196
13.886
6.55844
5.00163
4.63788
4.55751
4.76582
5.10182
5.23784
5.16994
4.59718
3.95011
65.8489
130.151
130.591
137.85
144.502
122.955
130.466
121.139
113.515
106.177
94.1048
85.0533
87.4556
101.576
126.456
147.165
154.046
152.423
151.702
152.572
136.752
98.4012
64.2329
39.2185
14.852
6.53085
4.93137
4.56996
4.49495
4.70112
5.02697
5.14583
5.07247
4.50229
3.87377
61.7626
129.017
137.06
145.751
152.597
126.471
132.585
124.755
118.592
111.071
98.3523
88.5198
89.4381
102.557
127.159
147.289
152.983
149.818
147.308
148.221
141.484
111.925
75.2328
46.0007
16.0937
6.5214
4.85782
4.49762
4.4284
4.63192
4.94668
5.04706
4.96822
4.40083
3.79227
57.7502
127.497
146.539
154.553
161.509
131.37
134.218
127.137
122.777
115.781
103.379
93.2187
92.7798
104.736
128.428
147.059
150.694
145.15
139.765
137.763
134.098
116.034
83.9365
53.2534
17.6108
6.53147
4.78141
4.42116
4.35813
4.55842
4.8612
4.94184
4.85757
4.29322
3.70597
53.8399
125.504
158.897
164.041
171.028
137.962
136.557
129.395
126.725
120.788
109.417
99.1842
97.3939
108.028
130.317
146.712
147.756
139.613
131.315
125.932
121.326
110.882
87.6759
59.758
19.3585
6.561
4.70247
4.34085
4.28441
4.48086
4.77076
4.8305
4.74095
4.17991
3.61525
50.1273
122.828
172.469
173.928
181.019
146.192
140.367
132.512
131.166
126.638
116.827
106.558
103.301
112.321
132.661
146.117
144.122
133.351
122.482
114.357
107.858
100.695
85.9014
64.0726
21.2369
6.60819
4.62128
4.257
4.20753
4.39948
4.67564
4.71341
4.61886
4.06143
3.52052
46.6135
119.213
184.362
183.879
191.307
155.921
146.041
137.196
136.759
133.788
125.904
115.692
110.767
117.667
135.339
145.145
139.731
126.386
113.403
103.411
95.5105
89.3606
80.268
65.3293
23.1032
6.66945
4.53799
4.16988
4.12777
4.31454
4.57614
4.59101
4.49182
3.93831
3.42225
43.349
114.535
192.181
193.488
201.726
166.957
153.712
143.878
144.003
142.687
137.098
127.024
120.225
124.284
138.346
143.779
134.657
118.876
104.277
93.2167
84.6991
78.8504
72.9892
63.7144
24.8038
6.73957
4.45268
4.07977
4.0454
4.2263
4.47257
4.46373
4.36038
3.81116
3.32089
40.3033
108.97
195.814
202.382
212.105
179.063
163.327
152.752
153.231
153.64
150.72
141.102
132.262
132.524
141.769
142.083
129.08
111.101
95.3871
83.8981
75.3922
69.7875
65.6286
60.1656
26.2081
6.81213
4.36535
3.98695
3.96068
4.13502
4.36525
4.33207
4.22513
3.68059
3.21694
37.4893
103.03
196.954
210.33
222.271
191.948
174.697
163.82
164.618
166.918
167.172
158.43
147.481
142.812
145.776
140.205
123.251
103.381
87.0159
75.5623
67.4551
62.1943
58.9427
55.7281
27.2296
6.87997
4.27589
3.89166
3.87388
4.04097
4.25452
4.19655
4.08667
3.54724
3.1109
34.8769
97.5917
197.14
217.345
232.068
205.285
187.525
176.914
178.185
182.625
186.617
179.48
166.479
155.618
150.577
138.331
117.44
96.0221
79.3893
68.2636
60.7368
55.8975
53.1679
51.1598
27.8301
6.9356
4.18416
3.79417
3.78524
3.94442
4.14074
4.05771
3.94562
3.41177
3.00328
32.4767
93.5164
197.153
223.556
241.367
218.728
201.439
191.73
193.825
200.83
209.244
204.497
189.621
171.336
156.391
136.662
111.907
89.2721
72.6461
61.9928
55.0877
50.6881
48.2912
46.8741
28.0127
6.97166
4.08997
3.69469
3.695
3.84563
4.02426
3.91611
3.80261
3.27484
2.89456
30.2708
90.8461
197.35
229.089
250.064
231.937
216.026
207.878
211.34
221.469
234.984
233.513
216.887
190.104
163.327
135.335
106.847
83.2967
66.8446
56.6905
50.3631
46.3746
44.2073
43.0374
27.8104
6.98123
3.99311
3.59348
3.6034
3.74487
3.90547
3.77233
3.65826
3.1371
2.78525
28.2673
89.7186
197.56
234.008
258.062
244.599
230.87
224.945
230.5
244.543
263.903
266.245
247.584
211.436
171.239
134.376
102.369
78.1687
61.9719
52.2662
46.4284
42.7945
40.79
39.677
27.2727
6.95823
3.8934
3.49075
3.51064
3.6424
3.78473
3.62695
3.51319
2.99919
2.67583
26.4614
90.1973
197.676
238.337
265.282
256.45
245.585
242.548
251.105
270.061
295.992
302.298
280.492
233.98
179.535
133.627
98.4655
73.8724
57.9658
48.6154
43.1613
39.8148
37.9212
36.7551
26.4548
6.89778
3.79071
3.38674
3.41695
3.5385
3.66243
3.48056
3.36801
2.86174
2.56674
24.8623
92.2293
197.691
242.068
271.658
267.296
259.859
260.392
273.051
298.234
331.537
341.168
314.032
255.655
187.164
132.782
95.0474
70.3238
54.7281
45.6322
40.4548
37.3263
35.4988
34.2091
25.411
6.7966
3.685
3.28168
3.32253
3.43343
3.53894
3.33374
3.2233
2.72533
2.45843
23.4808
95.5439
197.648
245.185
277.154
277.034
273.486
278.307
296.363
329.353
370.747
382.318
346.703
274.432
192.885
131.466
91.9759
67.3991
52.1426
43.215
38.216
35.2407
33.438
31.9721
24.1899
6.65333
3.5763
3.17582
3.22758
3.32745
3.41466
3.18709
3.07961
2.59051
2.35128
22.3333
99.4885
197.584
247.67
281.766
285.654
286.382
296.26
321.204
363.862
413.818
424.824
376.99
288.943
195.855
129.426
89.1247
64.9639
50.0844
41.2697
36.3657
33.4855
31.6689
29.9815
22.8347
6.46875
3.46478
3.06941
3.1323
3.22083
3.28995
3.04114
2.93746
2.4578
2.24568
21.4546
103.035
197.525
249.516
285.529
293.223
298.574
314.339
347.833
402.07
460.228
467.047
403.338
298.59
195.911
126.605
86.4052
62.8938
48.4345
39.7098
34.8366
32.0016
30.1344
28.1822
21.3828
6.24583
3.35073
2.96271
3.03689
3.11383
3.16519
2.89644
2.79734
2.32767
2.14194
20.8892
105.191
197.476
250.728
288.5
299.856
310.172
332.719
376.55
444.055
508.5
506.127
423.819
303.185
193.411
123.134
83.7721
61.0838
47.0836
38.4563
33.571
30.7397
28.7873
26.527
19.8678
5.98956
3.23457
2.85598
2.94155
3.0067
3.04075
2.75351
2.6597
2.20053
2.04037
20.7351
105.717
197.428
251.322
290.759
305.695
321.341
351.628
407.611
489.251
555.451
537.997
436.295
302.691
188.828
119.186
81.1968
59.4491
45.9401
37.437
32.5189
29.6593
27.5888
24.9775
18.3205
5.70647
3.11679
2.7495
2.84645
2.8997
2.91699
2.61282
2.52494
2.07676
1.94122
21.1259
105.361
197.351
251.324
292.394
310.895
332.275
371.32
441.19
536.319
596.458
557.926
438.688
297.081
182.549
114.894
78.6512
57.92
44.928
36.587
31.6368
28.7259
26.5066
23.5023
16.769
5.40409
2.99798
2.64355
2.75179
2.79308
2.79424
2.47481
2.39341
1.95666
1.84473
22.2957
105.259
197.203
250.765
293.502
315.618
343.201
392.092
477.361
582.827
625.842
561.936
429.765
286.437
174.801
110.31
76.0938
56.4377
43.987
35.8497
30.8859
27.9108
25.5138
22.0778
15.2396
5.09021
2.87875
2.53841
2.65775
2.68709
2.67285
2.3399
2.26544
1.84052
1.75107
24.5223
106.217
196.928
249.668
294.177
320.04
354.397
414.338
516.147
625.341
638.576
548.204
409.646
271.07
165.713
105.423
73.4727
54.9495
43.0681
35.1768
30.2317
27.1889
24.5881
20.6868
13.7555
4.77224
2.75972
2.43434
2.56451
2.58196
2.55312
2.20846
2.14131
1.72857
1.66041
28.1637
108.483
196.469
248.05
294.522
324.374
366.249
438.675
557.517
659.3
631.436
517.849
380.035
251.644
155.375
100.187
70.7275
53.4065
42.1307
34.5287
29.6437
26.5388
23.7107
19.3183
12.3368
4.45673
2.6415
2.33161
2.47225
2.47793
2.43537
2.08081
2.02126
1.62097
1.57288
33.4954
111.901
195.774
245.917
294.655
328.92
379.376
466.164
601.157
679.399
604.203
474.406
343.698
229.152
143.922
94.5507
67.7988
51.7631
41.1392
33.8732
29.0952
25.942
22.8661
17.9667
10.9994
4.14897
2.52461
2.23047
2.38113
2.37521
2.31989
1.95726
1.90549
1.51789
1.48859
40.701
116.132
194.797
243.266
294.735
334.162
394.853
498.586
645.457
679.965
559.191
422.629
303.796
204.813
131.564
88.4851
64.634
49.9773
40.0624
33.1839
28.5636
25.3822
22.0414
16.6311
9.75506
3.85294
2.40955
2.13118
2.29133
2.27403
2.20695
1.83808
1.79418
1.41944
1.40761
49.6321
120.812
193.501
240.095
295.007
340.943
414.591
538.554
685.188
656.506
500.84
367.223
263.167
179.875
118.617
82.008
61.1984
48.0141
38.8724
32.4394
28.0301
24.8455
21.2261
15.3141
8.61082
3.57127
2.29673
2.03396
2.20301
2.17462
2.09684
1.7235
1.68747
1.32571
1.33001
59.8743
125.655
191.851
236.408
295.878
350.767
441.884
588.432
708.558
607.423
434.453
312.132
224.027
155.466
105.465
75.1935
57.4827
45.8492
37.5477
31.6228
27.4801
24.3201
20.4115
14.021
7.56979
3.30546
2.18648
1.93903
2.11633
2.07717
1.98979
1.61373
1.58548
1.23674
1.25585
70.5911
130.494
189.815
232.227
298.042
366.296
481.752
645.196
698.295
535.909
365.658
260.256
187.851
132.462
92.5258
68.1763
53.5121
43.4751
36.0749
30.723
26.9029
23.7962
19.5906
12.7589
6.63155
3.05605
2.07908
1.8466
2.03146
1.98192
1.88608
1.50895
1.48831
1.15259
1.18515
80.9187
135.291
187.358
227.605
302.721
392.002
538.843
688.535
641.529
449.765
299.351
213.506
155.504
111.454
80.182
61.1332
49.3479
40.9057
34.4535
29.7357
26.2916
23.2662
18.7583
11.5359
5.79294
2.82292
1.97478
1.75689
1.94856
1.88908
1.78592
1.40932
1.39602
1.07324
1.11794
89.3733
140.144
184.429
222.661
312.053
433.867
605.045
677.312
541.946
359.588
239.344
172.911
127.35
92.7576
68.7394
54.2606
45.0851
38.1796
32.6994
28.6659
25.644
22.7246
17.9109
10.3607
5.04885
2.60546
1.87376
1.67008
1.8678
1.79888
1.68954
1.31495
1.30866
0.998683
1.05421
95.1437
145.353
180.943
217.622
329.538
491.472
633.773
586.884
420.873
275.436
187.805
138.736
103.393
76.4684
58.3994
47.7402
40.8372
35.3575
30.8466
27.5295
24.9626
22.1688
17.0467
9.24205
4.39291
2.4028
1.77619
1.58637
1.78934
1.71151
1.59714
1.22591
1.22624
0.928876
0.993969
0.00337749
0.00251225
0.0022617
0.00213448
0.00210467
0.00211734
0.00214837
0.0108911
0.292843
0.709396
1.16176
1.7169
2.35335
3.07303
3.78209
4.54624
5.53111
7.42545
13.517
30.0431
203.634
159.867
0.00334396
0.00224366
0.00183575
0.00158962
0.00146962
0.00143534
0.00146629
0.0112364
0.298555
0.723408
1.18367
1.74205
2.37785
3.09579
3.80264
4.56343
5.5432
7.43231
13.5233
29.9805
204.281
169.772
0.00354013
0.0023748
0.00188083
0.00153997
0.00131635
0.00118546
0.00115425
0.0114435
0.302371
0.733608
1.20083
1.76141
2.39574
3.11135
3.81626
4.57523
5.55329
7.44053
13.5337
29.936
204.099
179.227
0.00367037
0.00251565
0.00200358
0.00162963
0.00135586
0.00116358
0.00103121
0.0115585
0.304515
0.740155
1.21313
1.77479
2.40687
3.11967
3.82297
4.58174
5.56156
7.45048
13.5477
29.9102
203.154
188.076
0.00392228
0.00276203
0.00222737
0.001825
0.00151515
0.00127968
0.00100258
0.0116035
0.305133
0.743165
1.22044
1.78205
2.41112
3.12073
3.8228
4.58304
5.56813
7.46247
13.5648
29.9037
201.495
196.787
0.0040598
0.00292772
0.00239883
0.00199452
0.00167591
0.00142499
0.000993489
0.0115902
0.304324
0.742746
1.22272
1.78311
2.40847
3.11456
3.81579
4.57913
5.57294
7.47665
13.584
29.9171
199.158
205.535
0.00434023
0.00320599
0.00266084
0.00223757
0.00189826
0.00162572
0.00106444
0.0115242
0.302169
0.739011
1.21999
1.77799
2.39891
3.10122
3.80196
4.56997
5.57587
7.49309
13.6047
29.951
196.186
214.322
0.00447819
0.00337725
0.00284433
0.00242636
0.00208761
0.00181165
0.00119198
0.0114068
0.298741
0.7321
1.21237
1.76677
2.38257
3.08079
3.78136
4.55545
5.57662
7.51168
13.6257
30.0054
192.632
223.089
0.00478383
0.00368261
0.00313619
0.00270165
0.00234476
0.00205057
0.00131748
0.0112372
0.294115
0.722182
1.20005
1.74963
2.35961
3.05342
3.75404
4.53543
5.57481
7.53215
13.6462
30.0803
188.553
231.77
0.00490833
0.00384692
0.00331994
0.00289766
0.0025481
0.00225682
0.00140701
0.0110135
0.288367
0.709458
1.18331
1.72682
2.33026
3.01929
3.72006
4.50969
5.56989
7.55404
13.6652
30.175
184.011
240.285
0.00522922
0.00416928
0.00363177
0.00319557
0.00283017
0.00252285
0.00152092
0.0107339
0.281578
0.694158
1.16248
1.69869
2.29484
2.97863
3.67949
4.47803
5.56124
7.57673
13.6816
30.2881
179.073
248.53
0.00533896
0.00432287
0.00381027
0.00339202
0.00303977
0.00274096
0.00163918
0.0103956
0.273826
0.676534
1.13795
1.66563
2.25372
2.9317
3.63245
4.44018
5.54808
7.59933
13.6941
30.4172
173.808
256.377
0.00567195
0.00465906
0.00413858
0.0037087
0.00334245
0.00302925
0.00184365
0.00999502
0.265188
0.656848
1.11013
1.62811
2.20733
2.87883
3.57905
4.39591
5.52958
7.62076
13.7017
30.559
168.284
263.684
0.00575596
0.00479124
0.00430144
0.00389564
0.00354892
0.0032504
0.0021205
0.00952656
0.255724
0.635363
1.07946
1.58663
2.15613
2.82036
3.51948
4.34498
5.50483
7.6397
13.703
30.709
162.568
270.305
0.00609197
0.0051316
0.0046362
0.0042209
0.00386212
0.00355112
0.00252605
0.00898422
0.245479
0.612327
1.04635
1.54171
2.10064
2.7567
3.45395
4.28724
5.47287
7.65459
13.6964
30.8615
156.726
276.1
0.0061519
0.00524147
0.00478034
0.0043934
0.00405894
0.00376761
0.00299143
0.00835947
0.234468
0.587962
1.01121
1.49391
2.0414
2.68828
3.38273
4.22253
5.43277
7.66364
13.6803
31.0096
150.816
280.944
0.00648666
0.00558155
0.00511669
0.00472195
0.00437691
0.00407445
0.00350474
0.00764622
0.222673
0.562448
0.974418
1.44376
1.97895
2.61559
3.30611
4.15082
5.38364
7.66488
13.6527
31.1452
144.893
284.734
0.00651812
0.00566417
0.00523655
0.00487388
0.00455744
0.00427916
0.00389836
0.00683934
0.21003
0.53591
0.936287
1.3918
1.91388
2.53911
3.22446
4.07214
5.32468
7.65616
13.6117
31.2588
139.005
287.393
0.00683895
0.00599114
0.00556162
0.00519302
0.00486786
0.00458028
0.00427564
0.00596163
0.196425
0.508404
0.897077
1.33851
1.84674
2.45937
3.13819
3.98662
5.25523
7.63525
13.555
31.3401
133.191
288.868
0.00685329
0.00605462
0.00566226
0.00532655
0.00503146
0.00477008
0.00452789
0.00507473
0.181693
0.479897
0.856968
1.28433
1.77811
2.37692
3.04775
3.89449
5.17479
7.59987
13.48
31.3778
127.486
289.129
0.00716007
0.00636831
0.0059755
0.00563529
0.00533278
0.00506318
0.00482473
0.00434782
0.165621
0.450258
0.816041
1.22963
1.70852
2.2923
2.95363
3.79609
5.08311
7.54783
13.3842
31.3601
121.914
288.164
0.00715646
0.00641155
0.0060554
0.00574844
0.005477
0.00523516
0.00502256
0.00403796
0.147981
0.419245
0.774259
1.1747
1.63847
2.20606
2.85637
3.69184
4.9801
7.47711
13.265
31.2744
116.494
285.976
0.00744656
0.00670878
0.00635305
0.00604255
0.00576467
0.00551546
0.00529393
0.00423806
0.128586
0.386503
0.731443
1.11969
1.56842
2.11879
2.75653
3.58228
4.866
7.38599
13.1195
31.1088
111.241
282.575
0.00743041
0.00673619
0.00641552
0.00613745
0.00589038
0.00566921
0.00547041
0.00470798
0.107425
0.351586
0.687246
1.06462
1.49874
2.031
2.65468
3.468
4.7412
7.2731
12.9453
30.8513
106.16
277.979
0.00770419
0.00701708
0.00669737
0.00641633
0.00616349
0.00593546
0.00572886
0.00525764
0.0848942
0.314014
0.641131
1.00928
1.42966
1.94323
2.55141
3.3497
4.60641
7.13758
12.7401
30.4912
101.252
272.21
0.0076766
0.00702971
0.00674316
0.00649342
0.00627069
0.00607055
0.00588812
0.00562315
0.0621152
0.273402
0.592373
0.953272
1.36131
1.85593
2.44733
3.2281
4.4625
6.97909
12.5018
30.0191
96.513
265.298
0.00793335
0.00729324
0.00700782
0.00675541
0.00652737
0.00632072
0.00613182
0.00592875
0.0410829
0.229717
0.540077
0.895872
1.29354
1.76949
2.34302
3.10398
4.31057
6.79792
12.2291
29.428
91.9345
257.278
0.00789941
0.00729577
0.00704108
0.00681816
0.00661874
0.00643899
0.00627423
0.00611246
0.0242352
0.183673
0.483277
0.836042
1.22594
1.68414
2.23903
2.97815
4.15186
6.59493
11.9209
28.7133
87.5017
248.196
0.00814125
0.00754393
0.00729034
0.00706484
0.00686034
0.00667422
0.00650328
0.0063403
0.0133395
0.137181
0.421149
0.772397
1.1577
1.5999
2.13584
2.85141
3.98778
6.37165
11.5772
27.8739
83.1963
238.115
0.00810325
0.00753886
0.00731354
0.0071156
0.00693805
0.00677761
0.00663009
0.00648937
0.00819465
0.0936011
0.353444
0.703247
1.08757
1.51646
2.03379
2.72452
3.81982
6.13015
11.1985
26.9119
78.9942
227.114
0.00833032
0.00777172
0.00754734
0.00734686
0.00716443
0.00699779
0.0068442
0.00669856
0.00674473
0.0571122
0.281204
0.626758
1.01376
1.43304
1.93298
2.5982
3.64957
5.87311
10.7863
25.8339
74.8685
215.291
0.00829256
0.00776333
0.00756459
0.00738944
0.00723195
0.0070893
0.00695783
0.00683257
0.0066396
0.030984
0.207637
0.54139
0.933942
1.34828
1.83317
2.47296
3.47858
5.6037
10.3428
24.6498
70.7883
202.77
0.00850611
0.00798216
0.00778423
0.00760658
0.00744443
0.00729578
0.00715831
0.00702788
0.00685558
0.0159247
0.138585
0.446795
0.845294
1.26013
1.73356
2.34907
3.30835
5.32556
9.87156
23.3737
66.7228
189.692
0.00847094
0.00797307
0.00779821
0.00764366
0.00750437
0.00737791
0.00726109
0.0071497
0.00702426
0.00935073
0.081451
0.345308
0.744874
1.16577
1.63269
2.22637
3.14014
5.04261
9.37689
22.0231
62.6426
176.219
0.00867176
0.00817869
0.0080045
0.00784752
0.00770382
0.00757163
0.00744898
0.00733237
0.0072136
0.0073404
0.0418691
0.243523
0.630539
1.06162
1.52823
2.10408
2.97484
4.75893
8.86435
20.6183
58.5257
162.523
0.00864153
0.00817144
0.00801786
0.00788173
0.00775876
0.00764686
0.00754324
0.00744424
0.00734467
0.00703067
0.0201095
0.152243
0.50293
0.943605
1.41691
1.98067
2.81268
4.4784
8.34056
19.1817
54.3605
148.782
0.00883172
0.00836597
0.00821285
0.00807432
0.00794715
0.00782975
0.00772043
0.00761621
0.00751361
0.00722962
0.0110497
0.0827141
0.368333
0.808185
1.29447
1.85365
2.65314
4.20438
7.81298
17.7375
50.152
135.173
0.00880911
0.00836353
0.00822869
0.00810884
0.00800028
0.00790122
0.00780923
0.00772111
0.00763347
0.0074609
0.00823168
0.0398785
0.240417
0.654575
1.15587
1.71952
2.49464
3.93919
7.2894
16.3096
45.923
121.865
0.00898974
0.00854811
0.00841364
0.0082915