/*--------------------------------*- C++ -*----------------------------------*\
| =========                 |                                                 |
| \\      /  F ield         | OpenFOAM: The Open Source CFD Toolbox           |
|  \\    /   O peration     | Version:  v1912                                 |
|   \\  /    A nd           | Website:  www.openfoam.com                      |
|    \\/     M anipulation  |                                                 |
\*---------------------------------------------------------------------------*/
FoamFile
{
    version     2.0;
    format      ascii;
    class       volScalarField;
    location    "140";
    object      nut;
}
// * * * * * * * * * * * * * * * * * * * * * * * * * * * * * * * * * * * * * //

dimensions      [0 2 -1 0 0 0 0];


internalField   nonuniform List<scalar> 
12441
(
5.82204e-24
1.79098e-20
8.10688e-20
3.32616e-19
1.06875e-18
3.89062e-18
1.01114e-17
2.50186e-17
6.14199e-17
1.27601e-16
3.05829e-16
7.71712e-16
2.18164e-15
7.40198e-15
1.03736e-13
1.8944e-11
0.000201806
0.00105862
0.00337156
0.00274858
0.00364054
0.00775321
6.34215e-24
3.03457e-20
1.1177e-19
4.24088e-19
1.30286e-18
4.81122e-18
1.22082e-17
3.00331e-17
7.36704e-17
1.54575e-16
3.80107e-16
1.02974e-15
2.82953e-15
9.37628e-15
1.132e-13
3.90043e-11
5.92892e-05
0.00128572
0.00385529
0.00299166
0.00400209
0.00781733
6.36491e-24
3.59077e-20
1.2082e-19
4.48283e-19
1.37854e-18
4.91065e-18
1.29391e-17
3.20656e-17
8.05809e-17
1.7191e-16
4.18232e-16
1.11806e-15
2.7863e-15
7.66571e-15
5.35856e-14
6.57341e-12
1.12472e-05
0.000938371
0.00152692
0.00282011
0.00415449
0.0078909
6.31939e-24
3.77047e-20
1.18575e-19
4.2946e-19
1.32616e-18
4.71751e-18
1.25238e-17
3.13523e-17
7.85632e-17
1.73823e-16
4.24132e-16
1.15469e-15
2.61175e-15
8.47632e-15
3.8552e-14
1.54336e-12
1.6343e-06
0.000649768
0.00113367
0.00273706
0.00431668
0.0079647
6.28533e-24
4.3897e-20
1.29822e-19
4.5847e-19
1.40351e-18
4.78307e-18
1.3101e-17
3.28197e-17
8.43677e-17
1.87678e-16
4.54551e-16
1.28541e-15
3.02062e-15
4.07265e-14
2.47533e-13
2.29796e-12
1.39974e-07
0.000454846
0.00110529
0.00272029
0.00445742
0.00803394
6.23517e-24
4.13017e-20
1.20581e-19
4.29341e-19
1.34356e-18
4.62595e-18
1.2761e-17
3.24195e-17
8.29677e-17
1.92855e-16
4.7738e-16
1.44647e-15
4.53483e-15
1.32936e-12
1.19123e-11
5.10472e-11
4.5961e-07
0.00041129
0.00116022
0.00277585
0.00458598
0.00809948
6.20026e-24
5.02789e-20
1.3784e-19
4.7593e-19
1.461e-18
4.79613e-18
1.36035e-17
3.44797e-17
9.07779e-17
2.11299e-16
5.21296e-16
2.0013e-15
2.50363e-14
4.14636e-11
6.58733e-10
9.37749e-09
1.87634e-05
0.00041656
0.00133459
0.00296634
0.00473678
0.00816218
6.1505e-24
4.34662e-20
1.23214e-19
4.40315e-19
1.40906e-18
4.72676e-18
1.35235e-17
3.48735e-17
9.14014e-17
2.24047e-16
5.73043e-16
5.43959e-15
6.10029e-13
2.25433e-09
8.42556e-08
4.97027e-06
0.000192912
0.000462517
0.00178762
0.00336401
0.00493829
0.00822577
6.11769e-24
5.57201e-20
1.46176e-19
4.99847e-19
1.55503e-18
4.9624e-18
1.46228e-17
3.75988e-17
1.02159e-16
2.51155e-16
6.45919e-16
6.13895e-14
2.59189e-11
7.42906e-08
1.04234e-05
0.000151802
0.000769654
0.000802355
0.00273749
0.00405126
0.00522566
0.00829204
6.07086e-24
4.43636e-20
1.25478e-19
4.56795e-19
1.50851e-18
4.95779e-18
1.47598e-17
3.87573e-17
1.04973e-16
2.75368e-16
7.49326e-16
1.68313e-12
1.08352e-09
4.43391e-06
0.000188142
0.000586391
0.00155788
0.00146691
0.00445053
0.00510727
0.00561414
0.00836448
6.04167e-24
6.02766e-20
1.53481e-19
5.26084e-19
1.6737e-18
5.20982e-18
1.60371e-17
4.2066e-17
1.19394e-16
3.17635e-16
8.92871e-16
5.2344e-11
5.50623e-08
8.12399e-05
0.000684567
0.00153173
0.00319098
0.00279507
0.00729175
0.00662452
0.00611683
0.00844366
5.99628e-24
4.46428e-20
1.27779e-19
4.77114e-19
1.63476e-18
5.28539e-18
1.6416e-17
4.41014e-17
1.25613e-16
3.64958e-16
1.1597e-15
1.4578e-09
3.24564e-06
0.000335092
0.00141612
0.0031842
0.00622824
0.00534159
0.0116201
0.00863398
0.00672029
0.00853143
5.97065e-24
6.41662e-20
1.60498e-19
5.53994e-19
1.81602e-18
5.54596e-18
1.79217e-17
4.82574e-17
1.46825e-16
4.45097e-16
1.69606e-15
3.5248e-08
7.21422e-05
0.000995219
0.00323119
0.00655215
0.0117403
0.00985296
0.0175296
0.0111036
0.00741191
0.00862633
5.92671e-24
4.43387e-20
1.29713e-19
4.99493e-19
1.78436e-18
5.69667e-18
1.85479e-17
5.14261e-17
1.59996e-16
5.59656e-16
3.60476e-15
7.97177e-07
0.000335553
0.00240133
0.00667946
0.012379
0.0205961
0.0169324
0.0247077
0.0138941
0.00815553
0.00872852
5.9043e-24
6.75326e-20
1.66703e-19
5.82812e-19
1.97913e-18
5.94435e-18
2.02837e-17
5.68236e-17
1.96215e-16
7.79349e-16
1.65316e-14
1.51688e-05
0.001041
0.00528775
0.0125604
0.0212644
0.0330999
0.0265857
0.0324369
0.0168388
0.00892797
0.00883515
5.86065e-24
4.39719e-20
1.32041e-19
5.24994e-19
1.95908e-18
6.19068e-18
2.12197e-17
6.17295e-17
2.28372e-16
1.21735e-15
3.02441e-13
0.000135602
0.00243527
0.0102733
0.0214065
0.0333069
0.0486854
0.037927
0.0398704
0.0197341
0.00968971
0.00894576
5.84152e-24
7.05573e-20
1.73553e-19
6.15321e-19
2.17183e-18
6.44401e-18
2.33271e-17
6.94274e-17
3.08479e-16
2.30681e-15
1.26133e-11
0.000502179
0.00523269
0.0178371
0.0330689
0.0480137
0.0657855
0.0493606
0.0462863
0.0224433
0.0104247
0.00905718
5.79761e-24
4.35148e-20
1.34537e-19
5.53338e-19
2.1621e-18
6.77719e-18
2.46387e-17
7.72926e-17
4.0883e-16
5.45043e-15
5.4848e-10
0.00122956
0.00995762
0.0281104
0.047147
0.0641914
0.0820972
0.0591519
0.0513444
0.0248492
0.0111042
0.00916919
5.78121e-24
7.32809e-20
1.80338e-19
6.49342e-19
2.38935e-18
7.01642e-18
2.72015e-17
8.91332e-17
6.62249e-16
1.69366e-14
4.41137e-08
0.00283139
0.0170894
0.0405079
0.0624456
0.0801761
0.0952251
0.0661625
0.0550445
0.0269274
0.0117284
0.00927899
5.73672e-24
4.30655e-20
1.36916e-19
5.82618e-19
2.38847e-18
7.44428e-18
2.90312e-17
1.02399e-16
1.08138e-15
7.53372e-14
8.52721e-06
0.00570623
0.0265646
0.0543382
0.0777794
0.0941005
0.103427
0.0701982
0.0576708
0.0286561
0.012283
0.00938714
5.72361e-24
7.57466e-20
1.86853e-19
6.83396e-19
2.63072e-18
7.67814e-18
3.23262e-17
1.2233e-16
2.19546e-15
7.80807e-13
0.000163731
0.0104409
0.0378628
0.0684468
0.0915169
0.104465
0.106196
0.0719285
0.0595624
0.03008
0.0127825
0.00949146
5.6783e-24
4.24461e-20
1.38617e-19
6.11153e-19
2.63689e-18
8.19999e-18
3.49684e-17
1.46581e-16
4.34393e-15
1.34174e-11
0.000617594
0.01727
0.050161
0.0819631
0.102583
0.110436
0.104331
0.0723692
0.0610469
0.0312178
0.0132249
0.00959327
5.66788e-24
7.80397e-20
1.92521e-19
7.15706e-19
2.89145e-18
8.42375e-18
3.94594e-17
1.83705e-16
1.02835e-14
1.66227e-10
0.00154831
0.0259936
0.0625705
0.0938265
0.110031
0.112118
0.0995243
0.0724143
0.0623291
0.0321365
0.0136364
0.00969106
5.62203e-24
4.19758e-20
1.39837e-19
6.3824e-19
2.90455e-18
9.04493e-18
4.35364e-17
2.31675e-16
2.24395e-14
1.55925e-09
0.00337404
0.0361093
0.0743101
0.103472
0.113856
0.110339
0.0936272
0.0725603
0.063543
0.0328704
0.014025
0.00978684
5.61513e-24
8.02923e-20
1.97629e-19
7.46042e-19
3.17287e-18
9.27317e-18
5.02968e-17
3.06626e-16
5.6482e-14
1.37882e-08
0.0064534
0.0468256
0.084789
0.110403
0.114376
0.106376
0.0880492
0.0729605
0.0647331
0.0334984
0.0144254
0.00987966
5.56749e-24
4.18033e-20
1.40809e-19
6.64118e-19
3.19417e-18
1.00005e-17
5.7198e-17
4.08778e-16
1.30591e-13
3.1901e-07
0.0110259
0.0574639
0.0936121
0.114706
0.112532
0.101474
0.0835103
0.0735616
0.0659218
0.0340677
0.0148519
0.00997203
5.5631e-24
8.25008e-20
2.02147e-19
7.74244e-19
3.47469e-18
1.02385e-17
6.85033e-17
5.73721e-16
3.92823e-13
1.86484e-05
0.0169438
0.0673834
0.100576
0.116571
0.109169
0.096604
0.0801621
0.0742571
0.0670938
0.0346616
0.0153425
0.0100634
5.51432e-24
4.18706e-20
1.41267e-19
6.87783e-19
3.50387e-18
1.10777e-17
8.13931e-17
8.11013e-16
1.83145e-12
0.00020757
0.0238875
0.0762147
0.105642
0.116564
0.105198
0.0923134
0.0778431
0.0749484
0.0682389
0.0353234
0.0159101
0.0101564
5.5133e-24
8.46924e-20
2.05846e-19
7.99444e-19
3.79815e-18
1.13509e-17
1.02576e-16
1.20513e-15
1.28103e-11
0.000675537
0.0313211
0.0836877
0.108921
0.115161
0.101153
0.0888184
0.0762987
0.0755779
0.0693289
0.0361171
0.0165854
0.0102507
5.46227e-24
4.20453e-20
1.41012e-19
7.08685e-19
3.83618e-18
1.23143e-17
1.28929e-16
1.7971e-15
7.41508e-11
0.00131451
0.0388264
0.0897193
0.110625
0.112934
0.0974459
0.0861051
0.0752945
0.0761166
0.0703472
0.0370563
0.0173683
0.0103488
5.46327e-24
8.68232e-20
2.09026e-19
8.22026e-19
4.14522e-18
1.26604e-17
1.7258e-16
2.81127e-15
3.56635e-10
0.0021922
0.0459834
0.0942806
0.111029
0.110241
0.0941923
0.0840648
0.0746546
0.0765622
0.0712652
0.0381656
0.0182719
0.01045
5.41118e-24
4.22572e-20
1.39944e-19
7.26887e-19
4.19365e-18
1.37522e-17
2.30311e-16
4.3929e-15
1.38788e-09
0.0033614
0.0525455
0.0974624
0.11042
0.107424
0.0914608
0.0825554
0.0742603
0.076921
0.072066
0.0394193
0.019275
0.0105565
5.41528e-24
8.89347e-20
2.1146e-19
8.42602e-19
4.52476e-18
1.4201e-17
3.26585e-16
7.08769e-15
4.74891e-09
0.00489184
0.0582925
0.0993773
0.109073
0.10463
0.0891803
0.0814503
0.0740372
0.0772087
0.0727226
0.0408081
0.0203697
0.010667
5.35973e-24
4.22893e-20
1.37853e-19
7.43167e-19
4.58801e-18
1.54656e-17
4.58608e-16
1.13041e-14
1.44596e-08
0.00681763
0.0631587
0.100206
0.107221
0.102003
0.0873107
0.0806426
0.0739408
0.0774391
0.0732191
0.0422852
0.0215149
0.0107831
5.36576e-24
8.84736e-20
2.10383e-19
8.57449e-19
4.93883e-18
1.60564e-17
6.78358e-16
1.85177e-14
4.28122e-08
0.00915526
0.0671143
0.100121
0.105058
0.099558
0.0857541
0.0800534
0.0739459
0.0776285
0.0735312
0.0438348
0.0226902
0.0109032
5.30618e-24
4.14961e-20
1.32618e-19
7.5192e-19
5.01351e-18
1.74762e-17
9.81229e-16
2.99406e-14
2.1943e-07
0.0119523
0.0702517
0.0993215
0.102728
0.097341
0.0844651
0.079622
0.0740396
0.0777897
0.0736454
0.0454212
0.0238478
0.0110282
5.3126e-24
8.52784e-20
2.03867e-19
8.62277e-19
5.38349e-18
1.81961e-17
1.47551e-15
5.74912e-14
1.09428e-05
0.0152936
0.0726763
0.0979756
0.100339
0.0953189
0.083367
0.0793077
0.0742162
0.077937
0.0735421
0.0470549
0.02497
0.0111563
5.24625e-24
4.16248e-20
1.27367e-19
7.58008e-19
5.48643e-18
1.98725e-17
2.14402e-15
4.65377e-13
0.000171765
0.0193625
0.0745563
0.0962544
0.0979644
0.093508
0.0824344
0.07908
0.0744748
0.0780816
0.073215
0.048736
0.0260203
0.0112883
5.24955e-24
5.37989e-20
1.54754e-19
7.99686e-19
5.77143e-18
2.06497e-17
3.20329e-15
2.31412e-11
0.00100292
0.0243957
0.076023
0.0942881
0.0956538
0.0918696
0.0816153
0.0789214
0.0748175
0.0782362
0.0726552
0.0505128
0.027004
0.011422
5.17285e-24
4.32903e-20
1.14511e-19
7.24591e-19
5.94456e-18
2.35632e-17
4.66633e-15
1.03343e-09
0.00345148
0.030539
0.0772063
0.0922021
0.0934338
0.0904216
0.0809053
0.0788197
0.075248
0.0784088
0.0718718
0.0524116
0.0279152
0.0115584
5.16614e-24
1.93983e-21
1.12116e-20
4.00765e-19
5.45175e-18
2.44512e-17
7.21139e-15
1.81986e-07
0.00854656
0.037727
0.0781583
0.0900827
0.0913165
0.089134
0.0802702
0.0787717
0.0757702
0.0786071
0.0708761
0.0544722
0.0287953
0.0116955
5.07806e-24
1.712e-20
4.47887e-20
4.17582e-19
5.46628e-18
3.62361e-17
1.80205e-14
4.12781e-05
0.0170399
0.0457732
0.0789087
0.0880147
0.0892971
0.0880379
0.0797257
0.0787762
0.0763865
0.0788299
0.0697031
0.0566375
0.0296624
0.0118345
5.03919e-24
6.72108e-22
8.46107e-23
2.35316e-19
5.06883e-18
8.28632e-17
3.71e-13
0.000698455
0.0293745
0.0544149
0.079418
0.0860512
0.0873614
0.0871066
0.0792465
0.0788422
0.0770974
0.0790707
0.0683931
0.0587321
0.0305212
0.011976
4.83859e-24
2.10365e-19
4.58383e-19
1.03023e-18
7.26547e-18
9.1408e-16
7.18548e-12
0.00372687
0.0456591
0.0635334
0.0797662
0.0842859
0.085494
0.0863705
0.0788489
0.0789693
0.0778903
0.0792697
0.0669998
0.0603062
0.031067
0.0121338
0.00987657
0.0127758
0.0140601
0.00537161
0.0047814
0.00490472
0.0051111
0.00524466
0.00521234
0.00532513
0.00720323
0.00723804
0.00707869
0.00689339
0.00685835
0.00793275
0.010375
0.0118644
0.0112557
0.0107978
0.0131937
0.0175942
0.0220709
0.0280277
0.0396819
0.0707434
0.0948713
0.104256
0.107523
0.102796
0.0956425
0.091772
0.0924669
0.102925
0.120743
0.00986353
0.012913
0.0133302
0.00495968
0.00449165
0.00462834
0.00493605
0.00511343
0.0050773
0.00519219
0.00687917
0.00683643
0.00675883
0.00667159
0.00666533
0.00764816
0.0101302
0.0118693
0.0113824
0.0107464
0.0129494
0.0172993
0.0217758
0.027797
0.0395421
0.0705683
0.0947627
0.10416
0.107464
0.102713
0.0955853
0.0917258
0.09245
0.10291
0.120741
0.00983842
0.0129625
0.0121574
0.00438145
0.00414462
0.00427646
0.00475972
0.00497706
0.00488573
0.00496623
0.0060717
0.00585916
0.0059564
0.00602659
0.00604652
0.00675843
0.0087885
0.0105457
0.0105731
0.0102503
0.0124377
0.01669
0.0211394
0.0272964
0.0394502
0.0703726
0.0944814
0.103896
0.107289
0.102495
0.0954252
0.0915902
0.0923772
0.102839
0.120697
0.00979929
0.0129399
0.0107608
0.00383665
0.00383567
0.0039479
0.00458996
0.00478118
0.0046443
0.00469084
0.00517544
0.00476352
0.00497196
0.00524563
0.00537338
0.00584158
0.00724677
0.00876151
0.00926885
0.00945058
0.0116922
0.0157881
0.0201759
0.0264973
0.0393121
0.0701163
0.0940289
0.103466
0.106999
0.102141
0.0951623
0.0913648
0.0922481
0.102712
0.12061
0.00974597
0.0128148
0.00930999
0.00338861
0.00357339
0.00364066
0.00438915
0.00451255
0.00435286
0.00436896
0.00437178
0.00379278
0.00403976
0.00449106
0.00474368
0.00505963
0.00591562
0.00704548
0.00781568
0.0084673
0.0107503
0.0146297
0.0189163
0.0253856
0.0390473
0.0697771
0.0934236
0.102891
0.106611
0.101667
0.0948077
0.0910599
0.0920717
0.10254
0.120491
0.00967615
0.0125672
0.00793348
0.00304743
0.00336305
0.00335331
0.00414132
0.00418473
0.00402186
0.00400867
0.00369907
0.00302906
0.00324743
0.00377594
0.00411108
0.00434746
0.00483556
0.00559142
0.00641045
0.0073797
0.00964668
0.0132608
0.0174068
0.0239639
0.0385868
0.0693442
0.0926956
0.102201
0.106146
0.101092
0.0943792
0.0906926
0.0918631
0.102339
0.120358
0.00959042
0.0121926
0.0067154
0.00280464
0.00321756
0.00310394
0.00386221
0.00382994
0.00367751
0.00363634
0.00315513
0.00248134
0.00262685
0.00310923
0.00344755
0.00362195
0.00389973
0.00438079
0.0051193
0.00622773
0.00841118
0.0117338
0.0157052
0.0222539
0.0378722
0.0688143
0.0918817
0.101433
0.105634
0.100446
0.093899
0.0902844
0.0916415
0.10213
0.120231
0.00948687
0.0116907
0.00569361
0.00264182
0.0031473
0.00291908
0.00358644
0.00348591
0.0033511
0.00328548
0.00273378
0.00213117
0.00219341
0.00254571
0.00281252
0.00290521
0.00304535
0.00334419
0.00394776
0.00504113
0.0070796
0.0101068
0.0138778
0.0202975
0.0368567
0.0681878
0.0910219
0.100628
0.105109
0.0997572
0.0933918
0.0898596
0.0914286
0.101937
0.120135
0.00936733
0.0110717
0.00486683
0.00253733
0.00315223
0.0028216
0.00335218
0.00318579
0.00306883
0.00298236
0.00242667
0.00193761
0.00193385
0.00213703
0.00229863
0.00230013
0.00232197
0.00248118
0.0029272
0.00388534
0.00571387
0.00844747
0.0119972
0.018158
0.0355076
0.0674661
0.0901559
0.0998268
0.104601
0.0990577
0.0928837
0.089444
0.0912474
0.101786
0.120097
0.0092307
0.0103441
0.00421086
0.00247375
0.00322219
0.00282404
0.0031919
0.00295449
0.00284812
0.0027414
0.00221877
0.00184507
0.00180248
0.0018837
0.00195
0.00188197
0.00181106
0.0018546
0.00214027
0.00288138
0.00441903
0.00683949
0.0101418
0.0159184
0.0338117
0.0666488
0.0893206
0.0990672
0.104143
0.0983782
0.092401
0.0890639
0.091122
0.101705
0.120143
0.00908003
0.00952361
0.00369241
0.00244246
0.00334263
0.00292706
0.00312849
0.0028082
0.0026977
0.00256564
0.00208592
0.00180178
0.00174153
0.00174243
0.00174417
0.00164284
0.00152293
0.00149045
0.00164948
0.00215872
0.00333395
0.00538572
0.00839565
0.0136782
0.0317815
0.0657331
0.088548
0.0983845
0.103763
0.0977479
0.091969
0.0887454
0.0910758
0.101719
0.1203
0.00891508
0.008625
0.00327952
0.00244334
0.00350215
0.0031208
0.00317473
0.00275628
0.00262024
0.00245243
0.00200517
0.00177289
0.00170329
0.00165901
0.00162652
0.00152168
0.00139347
0.00133075
0.00142165
0.00176126
0.00257639
0.00419686
0.00684678
0.0115459
0.0294632
0.064714
0.0878643
0.0978088
0.103487
0.0971936
0.0916114
0.0885133
0.0911322
0.101856
0.120595
0.00874002
0.00767412
0.00294714
0.00248146
0.0036979
0.0033892
0.00333394
0.00280259
0.00261519
0.0023958
0.00195954
0.0017443
0.00166212
0.00159433
0.00154889
0.00145772
0.00134674
0.00128817
0.00136305
0.00162405
0.00217271
0.0033569
0.00557837
0.00962847
0.0269411
0.0635861
0.0872894
0.0973645
0.103335
0.0967383
0.0913499
0.0883911
0.0913127
0.10214
0.121053
0.00855535
0.00670069
0.00268021
0.00256395
0.00393706
0.00371626
0.00360154
0.00294544
0.00268037
0.00239095
0.00194297
0.00171579
0.00161201
0.00153054
0.00148471
0.00141501
0.00133291
0.00129779
0.00139001
0.00164624
0.00205612
0.00288233
0.00464967
0.00801717
0.0243353
0.0623469
0.0868376
0.0970709
0.103324
0.096402
0.0912036
0.0884003
0.0916381
0.102598
0.121699
0.00836592
0.00574655
0.00247459
0.00269886
0.00423544
0.00409494
0.00396506
0.00317905
0.00281389
0.00243465
0.00195308
0.00169419
0.00155847
0.00146527
0.00142552
0.00138063
0.0013314
0.00132818
0.0014551
0.00175094
0.00213065
0.00272154
0.00407485
0.0067715
0.0217888
0.0610017
0.0865181
0.0969422
0.103466
0.0962009
0.0911891
0.0885605
0.0921272
0.103251
0.122555
0.00817267
0.00485569
0.00233954
0.00289592
0.00461409
0.00453089
0.00441469
0.0034966
0.00301331
0.0025251
0.00199194
0.00168587
0.00150913
0.00140198
0.00137143
0.00135318
0.00133827
0.00137046
0.00154071
0.00189825
0.00231869
0.00279375
0.00382032
0.00590809
0.0194422
0.0595665
0.0863365
0.0969886
0.103771
0.0961482
0.0913211
0.0888895
0.0927976
0.104122
0.123643
0.00798033
0.00407369
0.00229698
0.00316851
0.00509647
0.00504643
0.00494851
0.00389333
0.00327626
0.00266066
0.00206029
0.0016958
0.00147005
0.00134446
0.00132432
0.00133447
0.00135531
0.00142538
0.00164463
0.00207493
0.0025731
0.00302347
0.00382447
0.00540215
0.0174032
0.0580705
0.0862956
0.0972169
0.104244
0.0962541
0.0916114
0.0894036
0.0936653
0.105231
0.124981
0.00778933
0.0034378
0.00237801
0.00353553
0.00571313
0.00567481
0.00557591
0.00437068
0.00360293
0.002843
0.00216216
0.00172686
0.00144457
0.00129499
0.00128548
0.00132605
0.0013848
0.00149566
0.00176907
0.00227963
0.00287091
0.00335382
0.00402028
0.00520121
0.0157272
0.0565543
0.0863971
0.0976316
0.104889
0.0965266
0.0920708
0.0901175
0.0947454
0.1066
0.126589
0.00760307
0.00296886
0.00261792
0.004024
0.00650139
0.00645962
0.00631859
0.00493951
0.00399874
0.00307646
0.00230209
0.00178308
0.00143591
0.0012555
0.00125571
0.00132903
0.00142866
0.00158377
0.0019162
0.00251352
0.00320211
0.0037468
0.00434866
0.00524209
0.0144176
0.0550657
0.0866427
0.0982357
0.105709
0.0969718
0.092708
0.091045
0.096052
0.108246
0.128482
0.00742066
0.00266742
0.00305417
0.00466954
0.00750575
0.00745252
0.00720898
0.00562145
0.00447575
0.00337149
0.00249116
0.00187039
0.00144843
0.00122867
0.00123615
0.0013446
0.00148869
0.00169155
0.00208644
0.00277574
0.00356107
0.00417802
0.00476287
0.00546318
0.0134436
0.0536546
0.0870344
0.0990314
0.106704
0.0975947
0.0935311
0.0921993
0.0975986
0.110189
0.130679
0.00724378
0.00251804
0.00373243
0.00551635
0.00877758
0.00870978
0.00828607
0.00644654
0.00505221
0.00374202
0.00274276
0.00199932
0.00148997
0.00121937
0.00122908
0.00137469
0.00156734
0.00182103
0.002279
0.00306262
0.00394208
0.00463135
0.00522832
0.00581106
0.0127606
0.0523689
0.0875762
0.100021
0.107877
0.0983991
0.094547
0.093593
0.0993982
0.112447
0.133193
0.00707145
0.0024945
0.00472041
0.00661725
0.0103753
0.0102893
0.00959135
0.00744877
0.00575004
0.0042057
0.00307536
0.00218399
0.00157229
0.0012354
0.00123878
0.00142272
0.0016683
0.0019749
0.00249224
0.00336764
0.00433793
0.00509488
0.00572016
0.00624291
0.012324
0.051252
0.0882738
0.101207
0.109228
0.0993889
0.0957626
0.0952388
0.101464
0.11504
0.136039
0.00690537
0.00256945
0.00610709
0.00804147
0.012369
0.012253
0.0111675
0.00866099
0.00659063
0.00477677
0.00350263
0.00244128
0.00171224
0.00128954
0.00127268
0.00149453
0.0017975
0.00215779
0.00272541
0.00368303
0.00474008
0.00555911
0.00622096
0.00672651
0.0120955
0.0503424
0.0891354
0.102593
0.110757
0.100567
0.0971842
0.0971497
0.103808
0.117987
0.139233
0.00674534
0.00273686
0.0079873
0.00988715
0.0148485
0.0146729
0.013061
0.0101121
0.0075904
0.00546315
0.00403098
0.00278429
0.00192885
0.00140141
0.00134345
0.00159996
0.00196417
0.00237709
0.00297997
0.00400092
0.00513962
0.00601598
0.00671866
0.00723908
0.0120454
0.0496741
0.0901717
0.104184
0.112466
0.101937
0.0988184
0.0993389
0.106445
0.121307
0.142787
0.00659312
0.00298891
0.0104597
0.0122925
0.0179285
0.0176337
0.0153208
0.011823
0.00875473
0.00625698
0.00464675
0.00321594
0.00223832
0.00159878
0.00147237
0.00175495
0.00218234
0.00264449
0.00326203
0.00431601
0.00552836
0.00645907
0.00720533
0.00776589
0.0121528
0.049278
0.0913958
0.105985
0.114358
0.103503
0.100671
0.10182
0.109386
0.125019
0.146715
0.00644962
0.00332162
0.0136004
0.0154363
0.0217419
0.0212189
0.0179869
0.013797
0.0100697
0.00713159
0.00531712
0.00372075
0.00264428
0.00191268
0.00169311
0.00198476
0.00247221
0.00297612
0.00358299
0.00462709
0.00590004
0.00688362
0.00767635
0.00829877
0.0124047
0.0491836
0.0928232
0.108005
0.116434
0.105268
0.10275
0.104607
0.112646
0.129145
0.15103
0.00631698
0.0037352
0.0174466
0.0195233
0.0264146
0.0254737
0.0210616
0.0160011
0.0114902
0.00803376
0.00598604
0.00426487
0.00313305
0.00236557
0.00205193
0.00232701
0.00286171
0.00339301
0.00396025
0.00493975
0.0062514
0.00728709
0.00812996
0.00883515
0.0127962
0.0494194
0.0944712
0.110252
0.118698
0.107236
0.105061
0.107715
0.116238
0.133705
0.155743
0.00619775
0.00424337
0.0220072
0.0247558
0.0320262
0.0303572
0.0244739
0.0183455
0.012931
0.00888769
0.00658784
0.00480058
0.00367345
0.00295706
0.00259663
0.00283128
0.00338582
0.00391914
0.00441486
0.00526651
0.00658316
0.00766917
0.00856691
0.00937702
0.0133293
0.0500141
0.0963581
0.112737
0.121154
0.109411
0.10761
0.111159
0.120175
0.138721
0.160866
0.00609509
0.00488519
0.0272968
0.0313038
0.0385668
0.035701
0.0280527
0.020673
0.0142664
0.00960115
0.0070564
0.00527969
0.00422597
0.00366044
0.003353
0.00354792
0.00408193
0.00457856
0.00496906
0.00562747
0.00690084
0.00803231
0.00899025
0.00993042
0.0140132
0.0509962
0.0985031
0.115469
0.123804
0.111796
0.110405
0.114955
0.124472
0.144215
0.166409
0.00601408
0.00574191
0.0333752
0.0392674
0.0458944
0.0411928
0.0315243
0.0227679
0.0153464
0.0100866
0.00734678
0.00566531
0.00475137
0.00442835
0.00430292
0.00450307
0.00497607
0.00538721
0.00564008
0.00604719
0.00721516
0.00838143
0.00940499
0.0105048
0.0148639
0.0523941
0.100924
0.11846
0.126652
0.114394
0.113452
0.119117
0.129143
0.150209
0.172383
0.00596079
0.0069354
0.0403435
0.048603
0.053686
0.0463844
0.0345368
0.024384
0.0160225
0.0102788
0.00744235
0.00594251
0.00522111
0.0052051
0.00538202
0.00567134
0.00606328
0.00634244
0.00643363
0.00655183
0.007542
0.00872419
0.00981788
0.0111125
0.015904
0.0542351
0.103639
0.121721
0.129701
0.117209
0.116758
0.123664
0.134203
0.156727
0.178796
0.00594609
0.00860809
0.0482959
0.0589989
0.0613939
0.0507286
0.03671
0.025288
0.0161814
0.0101543
0.00736132
0.006118
0.00562026
0.00593604
0.00649506
0.00696683
0.00728994
0.00740959
0.00733334
0.00716129
0.0079014
0.00907025
0.0102368
0.0117687
0.0171627
0.0565442
0.106662
0.125264
0.132955
0.120243
0.12033
0.128612
0.139667
0.163795
0.185659
0.00598322
0.010876
0.057202
0.0697524
0.0682516
0.0536567
0.0377047
0.0253076
0.0157698
0.00973264
0.00714336
0.00621405
0.005948
0.00657806
0.00754038
0.00826327
0.00855638
0.0085192
0.0082954
0.00788192
0.00831562
0.00943103
0.0106702
0.0124903
0.0186761
0.0593431
0.110004
0.129097
0.136416
0.123498
0.124177
0.13398
0.145554
0.171442
0.192983
0.00609167
0.0138036
0.0667851
0.0797722
0.0733805
0.0546971
0.0373022
0.0243755
0.0148099
0.00907294
0.00683889
0.00625578
0.00621039
0.00710263
0.00843078
0.00942821
0.00973783
0.00957495
0.00924817
0.00869524
0.00880497
0.00981803
0.0111266
0.0132961
0.0204864
0.0626483
0.113671
0.13323
0.140086
0.126976
0.128308
0.139792
0.151884
0.1797
0.200781
0.00628805
0.0173954
0.0764458
0.0877903
0.0759983
0.0536022
0.0354646
0.0225504
0.0133942
0.00825593
0.00649169
0.0062627
0.00641528
0.00749906
0.00911105
0.0103585
0.0107204
0.0104788
0.0101076
0.00955554
0.00938191
0.0102415
0.011613
0.0142059
0.0226425
0.0664698
0.117666
0.137668
0.143967
0.130679
0.132736
0.146072
0.158682
0.188609
0.209071
0.00658505
0.0216312
0.0853663
0.0927353
0.0756472
0.0504286
0.0323546
0.0200095
0.0116688
0.00737053
0.00613607
0.00624402
0.00656671
0.00776951
0.00956165
0.0109969
0.0114251
0.0111523
0.0107953
0.0103922
0.010043
0.0107069
0.0121341
0.0152396
0.0251989
0.0708107
0.121986
0.142419
0.148062
0.134613
0.137478
0.152855
0.165979
0.198216
0.217875
0.00697682
0.0264443
0.0927027
0.0940456
0.0723234
0.0455224
0.0282948
0.0170074
0.00980553
0.00649724
0.00579312
0.00620173
0.00666632
0.00792788
0.00979742
0.0113381
0.0118237
0.0115566
0.0112612
0.0111292
0.0107625
0.0112122
0.0126912
0.0164174
0.0282156
0.0756666
0.126627
0.14749
0.152376
0.138787
0.142555
0.16018
0.173811
0.208579
0.227224
0.00744499
0.0316947
0.0977763
0.0917523
0.0664417
0.0394181
0.0236878
0.0138239
0.00797761
0.00570035
0.00547735
0.00613436
0.00671434
0.00799226
0.00985346
0.0114138
0.0119305
0.0116916
0.011489
0.0117016
0.0114913
0.0117438
0.0132806
0.0177591
0.0317572
0.0810272
0.131582
0.152891
0.156917
0.143213
0.147996
0.168099
0.182227
0.21977
0.237157
0.00795396
0.0369913
0.100086
0.086314
0.0586682
0.0326971
0.018928
0.0107192
0.00633629
0.00501962
0.00519569
0.00604122
0.00671331
0.00798404
0.00977538
0.0112803
0.0117932
0.0115923
0.0114992
0.0120751
0.0121647
0.0122754
0.0138939
0.0192844
0.0358926
0.0868795
0.136849
0.158637
0.161698
0.147913
0.153837
0.176676
0.191283
0.231874
0.247726
0.00846726
0.0416243
0.0992698
0.0783781
0.0497263
0.0258756
0.0143494
0.0079187
0.00498954
0.00447111
0.00495029
0.00592152
0.00666638
0.00792013
0.00960379
0.0109964
0.0114719
0.0113114
0.0113346
0.0122453
0.0127168
0.0127697
0.0145186
0.0210148
0.0406955
0.0932126
0.142432
0.164749
0.166737
0.152915
0.160126
0.18599
0.201047
0.244995
0.258991
0.00894498
0.044515
0.0950392
0.0685974
0.0402603
0.019357
0.0102209
0.00560813
0.00397797
0.00404751
0.004733
0.00577222
0.00657591
0.00781277
0.00937061
0.0106153
0.0110286
0.01091
0.0110526
0.0122391
0.0130973
0.0131856
0.0151406
0.0229761
0.0462452
0.100024
0.148347
0.171263
0.172061
0.158259
0.166918
0.196133
0.211601
0.259249
0.271026
0.0093615
0.0445771
0.0872338
0.0575835
0.0308069
0.0134633
0.00677928
0.00390699
0.00327124
0.00372354
0.00452549
0.00558331
0.00643806
0.00766325
0.00909213
0.0101733
0.0105126
0.0104419
0.010709
0.0120981
0.0132809
0.0134865
0.015748
0.0252015
0.052629
0.10733
0.154625
0.178221
0.177705
0.163994
0.174277
0.20721
0.223033
0.274771
0.283914
0.0096768
0.0409045
0.0758473
0.0459375
0.021866
0.00851515
0.00423013
0.00280173
0.0027937
0.00345756
0.00429714
0.00533799
0.00624258
0.00746722
0.0087764
0.00969353
0.00996066
0.0099527
0.0103556
0.0118746
0.0132723
0.0136508
0.0163349
0.0277365
0.0599452
0.115166
0.161315
0.185681
0.183713
0.17018
0.182277
0.219338
0.235442
0.291701
0.297744
0.00988074
0.0334782
0.0612617
0.0342483
0.0139578
0.00482523
0.0026091
0.00212463
0.00244046
0.00318265
0.00399821
0.00500039
0.0059567
0.0071992
0.00841053
0.00917164
0.00938208
0.00946418
0.0100284
0.0116175
0.0131006
0.0136743
0.0169042
0.0306432
0.0683053
0.123602
0.168481
0.193707
0.190135
0.176881
0.190992
0.232637
0.248928
0.310189
0.312611
4.88286e-24
3.14273e-19
1.14917e-18
4.37279e-18
2.52279e-17
3.16935e-14
9.08487e-11
0.0131557
0.0607443
0.0704944
0.0798644
0.08312
0.0841502
0.0859829
0.0786314
0.0791572
0.07859
0.0792767
0.0659144
0.0608375
0.0307362
0.0121626
4.9967e-24
7.38976e-20
8.38048e-20
6.30805e-18
6.30497e-17
2.47708e-13
9.31491e-10
0.0244149
0.0709365
0.0746805
0.0797316
0.082425
0.0833764
0.0858808
0.0786357
0.0793865
0.0791799
0.0792591
0.0653884
0.0608159
0.0303428
0.0122261
5.10266e-24
2.76729e-19
8.78357e-19
8.92331e-18
1.22749e-16
9.32486e-13
9.37038e-09
0.037749
0.0800644
0.0781406
0.0795308
0.0818633
0.0827801
0.0859148
0.0787743
0.0796955
0.0798393
0.0792371
0.0651492
0.0603719
0.0298443
0.0123977
5.06252e-24
5.72973e-20
2.14785e-20
6.84904e-18
1.92487e-16
2.28274e-12
1.69679e-07
0.0518184
0.0880249
0.0810173
0.0794236
0.0814773
0.0823877
0.0861051
0.0790633
0.0800687
0.0805381
0.0792103
0.0651826
0.0595364
0.0292751
0.0126686
5.16621e-24
2.21455e-19
6.31892e-19
7.21759e-18
2.87895e-16
3.6084e-12
6.52699e-06
0.0645456
0.0948537
0.0834475
0.079522
0.0812986
0.0822255
0.0864407
0.0794879
0.0804959
0.0812438
0.0791747
0.0654533
0.058382
0.0286812
0.0130301
5.11451e-24
4.59537e-20
1.20646e-20
4.6087e-18
4.09399e-16
4.86887e-12
1.85339e-05
0.0736356
0.100633
0.0855725
0.0799173
0.0813634
0.0823148
0.0869478
0.080068
0.0809676
0.0819242
0.0791226
0.0659229
0.056969
0.0280727
0.0134994
5.22965e-24
1.78798e-19
4.73092e-19
4.62732e-18
5.7945e-16
5.05475e-12
3.42252e-05
0.0779693
0.105476
0.0875061
0.0806608
0.0816959
0.0826757
0.0876186
0.0807906
0.0814841
0.0825511
0.0790478
0.0665349
0.0553841
0.0274757
0.0140904
5.17063e-24
3.80623e-20
7.8788e-21
2.7761e-18
7.71479e-16
4.37276e-12
2.56021e-05
0.0778463
0.109464
0.0893511
0.0817952
0.0823256
0.0833228
0.0884841
0.0816813
0.0820476
0.0831027
0.0789402
0.0672387
0.0536868
0.0268877
0.014821
5.29828e-24
1.46737e-19
3.69342e-19
2.85583e-18
9.84391e-16
2.87654e-12
2.72086e-05
0.0744051
0.112658
0.0911727
0.0833333
0.0832696
0.0842699
0.089538
0.0827302
0.082671
0.0835675
0.078793
0.0679733
0.0519555
0.0263282
0.0156952
5.2239e-24
3.24572e-20
5.88638e-21
1.6848e-18
1.1469e-15
1.6877e-12
3.50616e-05
0.0686966
0.115044
0.0930186
0.0852883
0.0845515
0.0855259
0.0908122
0.0839669
0.0833684
0.0839463
0.0785975
0.0686936
0.0502344
0.025788
0.0167166
5.35801e-24
1.21987e-19
2.97229e-19
1.83896e-18
1.25045e-15
8.51379e-13
3.98913e-05
0.0613579
0.116561
0.0948924
0.0876473
0.0861829
0.0871005
0.092299
0.0853836
0.0841631
0.0842529
0.0783513
0.0693487
0.0485848
0.0252827
0.0178705
5.27149e-24
2.84392e-20
4.6911e-21
1.07942e-18
1.23791e-15
4.16205e-13
4.08944e-05
0.0529711
0.117059
0.0967749
0.090401
0.088184
0.0890006
0.0940287
0.0870115
0.0850763
0.0845127
0.0780525
0.0699106
0.047032