/*--------------------------------*- C++ -*----------------------------------*\
| =========                 |                                                 |
| \\      /  F ield         | OpenFOAM: The Open Source CFD Toolbox           |
|  \\    /   O peration     | Version:  v1912                                 |
|   \\  /    A nd           | Website:  www.openfoam.com                      |
|    \\/     M anipulation  |                                                 |
\*---------------------------------------------------------------------------*/
FoamFile
{
    version     2.0;
    format      ascii;
    class       surfaceScalarField;
    location    "140";
    object      phi;
}
// * * * * * * * * * * * * * * * * * * * * * * * * * * * * * * * * * * * * * //

dimensions      [0 3 -1 0 0 0 0];
oriented        oriented;


internalField   nonuniform List<scalar> 
24588
(
6.81664e-05
2.27357e-08
6.81169e-05
5.96755e-08
6.80371e-05
7.21554e-08
6.79209e-05
1.05489e-07
6.7783e-05
1.45248e-07
6.7599e-05
1.91079e-07
6.73662e-05
2.27227e-07
6.70717e-05
2.90982e-07
6.6715e-05
3.59051e-07
6.62668e-05
4.47e-07
6.57153e-05
5.52523e-07
6.49997e-05
6.97567e-07
6.41557e-05
9.01502e-07
6.29553e-05
1.13962e-06
6.15553e-05
1.43953e-06
5.92892e-05
2.242e-06
5.65292e-05
2.76374e-06
5.20339e-05
4.4942e-06
4.56244e-05
6.4095e-06
3.45765e-05
1.10483e-05
2.06901e-05
1.38864e-05
2.06901e-05
6.81657e-05
4.74776e-08
6.81142e-05
1.24977e-07
6.80357e-05
1.40079e-07
6.79249e-05
2.01946e-07
6.77844e-05
2.95546e-07
6.75977e-05
3.86961e-07
6.73655e-05
4.52269e-07
6.70727e-05
5.79457e-07
6.67161e-05
7.18524e-07
6.62665e-05
8.95235e-07
6.57175e-05
1.10275e-06
6.49933e-05
1.40091e-06
6.41616e-05
1.79585e-06
6.29529e-05
2.28516e-06
6.15591e-05
2.87507e-06
5.93429e-05
4.43467e-06
5.65321e-05
5.58166e-06
5.19938e-05
9.03094e-06
4.56568e-05
1.27467e-05
3.44716e-05
2.22341e-05
2.06353e-05
2.77226e-05
4.13255e-05
6.81658e-05
7.201e-08
6.81144e-05
1.89696e-07
6.80353e-05
2.09085e-07
6.79242e-05
2.9966e-07
6.77843e-05
4.44749e-07
6.75978e-05
5.82042e-07
6.73653e-05
6.77907e-07
6.70725e-05
8.6817e-07
6.67159e-05
1.07786e-06
6.62662e-05
1.34356e-06
6.57175e-05
1.65264e-06
6.49952e-05
2.10196e-06
6.41591e-05
2.69943e-06
6.29495e-05
3.424e-06
6.15536e-05
4.3159e-06
5.9372e-05
6.58821e-06
5.65275e-05
8.43424e-06
5.20096e-05
1.35464e-05
4.56213e-05
1.91351e-05
3.44775e-05
3.33788e-05
2.06453e-05
4.15547e-05
6.19708e-05
6.81658e-05
9.66496e-08
6.81144e-05
2.54425e-07
6.8036e-05
2.76839e-07
6.7925e-05
3.96466e-07
6.77844e-05
5.95366e-07
6.75979e-05
7.77564e-07
6.73657e-05
9.02788e-07
6.70729e-05
1.15683e-06
6.67161e-05
1.4375e-06
6.62664e-05
1.79196e-06
6.57169e-05
2.20335e-06
6.49936e-05
2.80441e-06
6.41602e-05
3.59447e-06
6.29529e-05
4.57e-06
6.15518e-05
5.757e-06
5.93925e-05
8.72483e-06
5.65511e-05
1.12836e-05
5.20228e-05
1.80729e-05
4.56006e-05
2.55576e-05
3.44941e-05
4.44861e-05
2.067e-05
5.53788e-05
8.26408e-05
6.8166e-05
1.20944e-07
6.81149e-05
3.18165e-07
6.80358e-05
3.45868e-07
6.79244e-05
4.95021e-07
6.77844e-05
7.4459e-07
6.75982e-05
9.71968e-07
6.73657e-05
1.12838e-06
6.70728e-05
1.44583e-06
6.67161e-05
1.79702e-06
6.62665e-05
2.2403e-06
6.57176e-05
2.75339e-06
6.49965e-05
3.50449e-06
6.41586e-05
4.50086e-06
6.29506e-05
5.70746e-06
6.15482e-05
7.20492e-06
5.94001e-05
1.08447e-05
5.65766e-05
1.41154e-05
5.20222e-05
2.26245e-05
4.56137e-05
3.19662e-05
3.45301e-05
5.55706e-05
2.07103e-05
6.91985e-05
0.000103351
6.81658e-05
1.45486e-07
6.81148e-05
3.8229e-07
6.80365e-05
4.13135e-07
6.79254e-05
5.92064e-07
6.77846e-05
8.95812e-07
6.75983e-05
1.16714e-06
6.73662e-05
1.35293e-06
6.70733e-05
1.73464e-06
6.67164e-05
2.15686e-06
6.62667e-05
2.6887e-06
6.57168e-05
3.30453e-06
6.49938e-05
4.20678e-06
6.41596e-05
5.39453e-06
6.29546e-05
6.85422e-06
6.15472e-05
8.64992e-06
5.94025e-05
1.29679e-05
5.65958e-05
1.693e-05
5.203e-05
2.71887e-05
4.56411e-05
3.83555e-05
3.45866e-05
6.6626e-05
2.07677e-05
8.30173e-05
0.000124119
6.81661e-05
1.69598e-07
6.81154e-05
4.45155e-07
6.80362e-05
4.82002e-07
6.79245e-05
6.91438e-07
6.77845e-05
1.04533e-06
6.75985e-05
1.36086e-06
6.73662e-05
1.57835e-06
6.70731e-05
2.02385e-06
6.67163e-05
2.51655e-06
6.62669e-05
3.13695e-06
6.57179e-05
3.85466e-06
6.49972e-05
4.90709e-06
6.41567e-05
6.30286e-06
6.29514e-05
7.98774e-06
6.15438e-05
1.01033e-05
5.93971e-05
1.50866e-05
5.66143e-05
1.97195e-05
5.2044e-05
3.17562e-05
4.56801e-05
4.47195e-05
3.4667e-05
7.76397e-05
2.08439e-05
9.68403e-05
0.000144963
6.81658e-05
1.94063e-07
6.81151e-05
5.08774e-07
6.8037e-05
5.4878e-07
6.79258e-05
7.88617e-07
6.77847e-05
1.19721e-06
6.75985e-05
1.55571e-06
6.73666e-05
1.80258e-06
6.70736e-05
2.31279e-06
6.67167e-05
2.87657e-06
6.62671e-05
3.58528e-06
6.57168e-05
4.4063e-06
6.49937e-05
5.60963e-06
6.41587e-05
7.19378e-06
6.29566e-05
9.13557e-06
6.15361e-05
1.15592e-05
5.93877e-05
1.72166e-05
5.66331e-05
2.24801e-05
5.20721e-05
3.63162e-05
4.57345e-05
5.10576e-05
3.47761e-05
8.85988e-05
2.09412e-05
0.000110675
0.000165904
6.81662e-05
2.18022e-07
6.81157e-05
5.70944e-07
6.80367e-05
6.17492e-07
6.79247e-05
8.88486e-07
6.77846e-05
1.34695e-06
6.75989e-05
1.74887e-06
6.73666e-05
2.02788e-06
6.70735e-05
2.60218e-06
6.67166e-05
3.2364e-06
6.62673e-05
4.03338e-06
6.57188e-05
4.95611e-06
6.49996e-05
6.30923e-06
6.41536e-05
8.10888e-06
6.29461e-05
1.02726e-05
6.15117e-05
1.30335e-05
5.9382e-05
1.93258e-05
5.6621e-05
2.52444e-05
5.21192e-05
4.08158e-05
4.5806e-05
5.73707e-05
3.49176e-05
9.94877e-05
2.10621e-05
0.000124531
0.000186966
6.81659e-05
2.42405e-07
6.81153e-05
6.34125e-07
6.80375e-05
6.83911e-07
6.79261e-05
9.85697e-07
6.77849e-05
1.4994e-06
6.75988e-05
1.94342e-06
6.7367e-05
2.25189e-06
6.7074e-05
2.89121e-06
6.6717e-05
3.59652e-06
6.62676e-05
4.48156e-06
6.57167e-05
5.50827e-06
6.49927e-05
7.01309e-06
6.41488e-05
9.00291e-06
6.29413e-05
1.14324e-05
6.1483e-05
1.45152e-05
5.93795e-05
2.14206e-05
5.65724e-05
2.80549e-05
5.21729e-05
4.52151e-05
4.58946e-05
6.36495e-05
3.50926e-05
0.00011029
2.12087e-05
0.000138414
0.000208175
6.81663e-05
2.66186e-07
6.81161e-05
6.95592e-07
6.8037e-05
7.52658e-07
6.79248e-05
1.08616e-06
6.77847e-05
1.6493e-06
6.75992e-05
2.13597e-06
6.73669e-05
2.47716e-06
6.70738e-05
3.18074e-06
6.67169e-05
3.95642e-06
6.62678e-05
4.92948e-06
6.57193e-05
6.05803e-06
6.5001e-05
7.71312e-06
6.41454e-05
9.92532e-06
6.29315e-05
1.25872e-05
6.14461e-05
1.60229e-05
5.93563e-05
2.34995e-05
5.65083e-05
3.09037e-05
5.22281e-05
4.94937e-05
4.59982e-05
6.98792e-05
3.52976e-05
0.000120991
2.13818e-05
0.00015233
0.000229557
6.8166e-05
2.9046e-07
6.81155e-05
7.58348e-07
6.80378e-05
8.18901e-07
6.79264e-05
1.1834e-06
6.7785e-05
1.80219e-06
6.75991e-05
2.3302e-06
6.73673e-05
2.70105e-06
6.70743e-05
3.46984e-06
6.67173e-05
4.31658e-06
6.62682e-05
5.37739e-06
6.57168e-05
6.61068e-06
6.49891e-05
8.42231e-06
6.41312e-05
1.08225e-05
6.29296e-05
1.37604e-05
6.14001e-05
1.7561e-05
5.93207e-05
2.55774e-05
5.64556e-05
3.37705e-05
5.22837e-05
5.36661e-05
4.61098e-05
7.60534e-05
3.55245e-05
0.000131577
2.15803e-05
0.000166274
0.000251137
6.81664e-05
3.14053e-07
6.81164e-05
8.19218e-07
6.80372e-05
8.87859e-07
6.79249e-05
1.28423e-06
6.77849e-05
1.95204e-06
6.75995e-05
2.52223e-06
6.73673e-05
2.92646e-06
6.70742e-05
3.75945e-06
6.67173e-05
4.67648e-06
6.62687e-05
5.82483e-06
6.57171e-05
7.16346e-06
6.49903e-05
9.1332e-06
6.41169e-05
1.17517e-05
6.2915e-05
1.49329e-05
6.13516e-05
1.91341e-05
5.92867e-05
2.76372e-05
5.64226e-05
3.66344e-05
5.23342e-05
5.77535e-05
4.6221e-05
8.21663e-05
3.57642e-05
0.000142034
2.18022e-05
0.000180236
0.000272939
6.8166e-05
3.38197e-07
6.81157e-05
8.81564e-07
6.80381e-05
9.54091e-07
6.79266e-05
1.38145e-06
6.77851e-05
2.10524e-06
6.75993e-05
2.71615e-06
6.73676e-05
3.15036e-06
6.70747e-05
4.04858e-06
6.67176e-05
5.03663e-06
6.62694e-05
6.27188e-06
6.5712e-05
7.72208e-06
6.49734e-05
9.85722e-06
6.40923e-05
1.265e-05
6.2892e-05
1.6126e-05
6.13106e-05
2.07167e-05
5.92603e-05
2.96885e-05
5.6404e-05
3.94918e-05
5.23762e-05
6.17818e-05
4.6326e-05
8.82167e-05
3.60091e-05
0.000152351
2.20443e-05
0.000194201
0.000294983
6.81666e-05
3.61567e-07
6.81167e-05
9.41764e-07
6.80374e-05
1.02341e-06
6.79249e-05
1.48283e-06
6.77849e-05
2.25499e-06
6.75998e-05
2.90757e-06
6.73675e-05
3.37595e-06
6.70745e-05
4.33822e-06
6.67177e-05
5.3964e-06
6.62701e-05
6.71832e-06
6.57092e-05
8.28414e-06
6.49666e-05
1.05887e-05
6.40742e-05
1.35712e-05
6.28662e-05
1.73208e-05
6.12796e-05
2.23078e-05
5.92405e-05
3.17244e-05
5.63929e-05
4.2339e-05
5.24097e-05
6.57642e-05
4.64224e-05
9.42037e-05
3.62541e-05
0.000162519
2.23035e-05
0.000208152
0.000317287
6.81661e-05
3.85557e-07
6.81159e-05
1.00369e-06
6.80383e-05
1.08977e-06
6.79268e-05
1.58007e-06
6.77852e-05
2.40842e-06
6.75995e-05
3.10115e-06
6.73678e-05
3.59994e-06
6.70749e-05
4.62744e-06
6.67181e-05
5.75629e-06
6.62712e-05
7.1641e-06
6.57045e-05
8.85199e-06
6.49603e-05
1.13239e-05
6.40528e-05
1.4479e-05
6.28437e-05
1.85302e-05
6.12568e-05
2.38939e-05
5.92253e-05
3.37574e-05
5.63851e-05
4.51799e-05
5.24365e-05
6.97133e-05
4.65101e-05
0.00010013
3.64964e-05
0.000172533
2.25769e-05
0.000222071
0.000339864
6.81667e-05
4.087e-07
6.8117e-05
1.06331e-06
6.80375e-05
1.1596e-06
6.79249e-05
1.68179e-06
6.77851e-05
2.55788e-06
6.76001e-05
3.29206e-06
6.73677e-05
3.82585e-06
6.70747e-05
4.91721e-06
6.67182e-05
6.11571e-06
6.62726e-05
7.60856e-06
6.56962e-05
9.42955e-06
6.49603e-05
1.20549e-05
6.40339e-05
1.54214e-05
6.28252e-05
1.97318e-05
6.12397e-05
2.54823e-05
5.9213e-05
3.57817e-05
5.63787e-05
4.80138e-05
5.24585e-05
7.36328e-05
4.65904e-05
0.000105998
3.67348e-05
0.000182389
2.28624e-05
0.000235943
0.000362726
6.81662e-05
4.32524e-07
6.81161e-05
1.12484e-06
6.80385e-05
1.22618e-06
6.79269e-05
1.77902e-06
6.77853e-05
2.71143e-06
6.75998e-05
3.48528e-06
6.7368e-05
4.04998e-06
6.70752e-05
5.20648e-06
6.67184e-05
6.47548e-06
6.62743e-05
8.05153e-06
6.56858e-05
1.00191e-05
6.49577e-05
1.27797e-05
6.40169e-05
1.63577e-05
6.28104e-05
2.09406e-05
6.12265e-05
2.7065e-05
5.92029e-05
3.78069e-05
5.63729e-05
5.08443e-05
5.24776e-05
7.75286e-05
4.66649e-05
0.000111811
3.69693e-05
0.000192084
2.31583e-05
0.000249754
0.000385884
6.81669e-05
4.55418e-07
6.81173e-05
1.18382e-06
6.80376e-05
1.29658e-06
6.79249e-05
1.88124e-06
6.77851e-05
2.86063e-06
6.76004e-05
3.67559e-06
6.73679e-05
4.27622e-06
6.7075e-05
5.49624e-06
6.67183e-05
6.83505e-06
6.62753e-05
8.49354e-06
6.56775e-05
1.06177e-05
6.4952e-05
1.3504e-05
6.40032e-05
1.73165e-05
6.27984e-05
2.21403e-05
6.12161e-05
2.86496e-05
5.91941e-05
3.98268e-05
5.63674e-05
5.36707e-05
5.24952e-05
8.14001e-05
4.67357e-05
0.00011757
3.72009e-05
0.000201619
2.34638e-05
0.000263491
0.000409348
6.81663e-05
4.79065e-07
6.81162e-05
1.24493e-06
6.80387e-05
1.36346e-06
6.7927e-05
1.97849e-06
6.77854e-05
3.01426e-06
6.76e-05
3.86845e-06
6.73682e-05
4.50055e-06
6.70756e-05
5.78546e-06
6.67184e-05
7.19518e-06
6.62726e-05
8.93819e-06
6.56735e-05
1.12175e-05
6.4944e-05
1.42323e-05
6.39918e-05
1.82632e-05
6.27885e-05
2.33462e-05
6.12075e-05
3.02293e-05
5.91865e-05
4.18492e-05
5.63624e-05
5.64953e-05
5.25129e-05
8.52501e-05
4.68045e-05
0.000123279
3.74309e-05
0.000210993
2.37783e-05
0.000277144
0.000433126
6.8167e-05
5.01718e-07
6.81175e-05
1.30337e-06
6.80376e-05
1.43448e-06
6.79248e-05
2.08103e-06
6.77853e-05
3.16305e-06
6.76007e-05
4.05824e-06
6.73682e-05
4.72714e-06
6.70754e-05
6.07521e-06
6.67183e-05
7.55505e-06
6.6265e-05
9.39053e-06
6.56736e-05
1.18092e-05
6.49359e-05
1.49699e-05
6.39824e-05
1.92244e-05
6.27802e-05
2.45444e-05
6.12004e-05
3.18109e-05
5.918e-05
4.3868e-05
5.63582e-05
5.93168e-05
5.25316e-05
8.9076e-05
4.68732e-05
0.000128937
3.76609e-05
0.000220205
2.41019e-05
0.000290703
0.000457228
6.81665e-05
5.25182e-07
6.81164e-05
1.36408e-06
6.80388e-05
1.50171e-06
6.79271e-05
2.17825e-06
6.77855e-05
3.31669e-06
6.76003e-05
4.25073e-06
6.73685e-05
4.95164e-06
6.70758e-05
6.36456e-06
6.67188e-05
7.91496e-06
6.62557e-05
9.8525e-06
6.56739e-05
1.23911e-05
6.49281e-05
1.57151e-05
6.39745e-05
2.01728e-05
6.2773e-05
2.57485e-05
6.11945e-05
3.33883e-05
5.91744e-05
4.58894e-05
5.6355e-05
6.21366e-05
5.25522e-05
9.28792e-05
4.6943e-05
0.000134547
3.78927e-05
0.000229255
2.44353e-05
0.00030416
0.000481664
6.81672e-05
5.4758e-07
6.81178e-05
1.42191e-06
6.80376e-05
1.57338e-06
6.79247e-05
2.28128e-06
6.77853e-05
3.46514e-06
6.76009e-05
4.43994e-06
6.73685e-05
5.17848e-06
6.70755e-05
6.65459e-06
6.67192e-05
8.27393e-06
6.6248e-05
1.03229e-05
6.56723e-05
1.2967e-05
6.49212e-05
1.64662e-05
6.39676e-05
2.11329e-05
6.27668e-05
2.69458e-05
6.11895e-05
3.49672e-05
5.91698e-05
4.79074e-05
5.63532e-05
6.49529e-05
5.25753e-05
9.66566e-05
4.7015e-05
0.000140107
3.81285e-05
0.000238142
2.47791e-05
0.00031751
0.000506443
6.81666e-05
5.70855e-07
6.81166e-05
1.48221e-06
6.80389e-05
1.64099e-06
6.79272e-05
2.3785e-06
6.77856e-05
3.61876e-06
6.76005e-05
4.63208e-06
6.73689e-05
5.40309e-06
6.70759e-05
6.9443e-06
6.67201e-05
8.6325e-06
6.62426e-05
1.07993e-05
6.56689e-05
1.35407e-05
6.49151e-05
1.72196e-05
6.39616e-05
2.20812e-05
6.27613e-05
2.81486e-05
6.11853e-05
3.65422e-05
5.91664e-05
4.99276e-05
5.6353e-05
6.77668e-05
5.26009e-05
0.000100409
4.709e-05
0.000145618
3.83701e-05
0.000246862
2.51345e-05
0.000330745
0.000531577
6.81673e-05
5.93008e-07
6.8118e-05
1.53953e-06
6.80376e-05
1.71336e-06
6.79247e-05
2.48182e-06
6.77855e-05
3.76672e-06
6.76012e-05
4.82082e-06
6.73688e-05
5.63023e-06
6.70756e-05
7.23468e-06
6.67206e-05
8.99019e-06
6.62389e-05
1.12802e-05
6.56648e-05
1.41149e-05
6.49095e-05
1.79749e-05
6.39562e-05
2.30404e-05
6.27565e-05
2.93451e-05
6.11818e-05
3.81184e-05
5.91642e-05
5.19435e-05
5.63545e-05
7.05762e-05
5.26291e-05
0.000104134
4.71684e-05
0.000151078
3.86196e-05
0.000255411
2.55028e-05
0.000343862
0.00055708
6.81667e-05
6.16095e-07
6.81167e-05
1.59945e-06
6.8039e-05
1.78138e-06
6.79273e-05
2.57901e-06
6.77857e-05
3.92025e-06
6.76008e-05
5.0126e-06
6.73692e-05
5.855e-06
6.70761e-05
7.52461e-06
6.67201e-05
9.34891e-06
6.62372e-05
1.17622e-05
6.56605e-05
1.46915e-05
6.49045e-05
1.87305e-05
6.39514e-05
2.39886e-05
6.27522e-05
3.05468e-05
6.1179e-05
3.96905e-05
5.91633e-05
5.39605e-05
5.6358e-05
7.33819e-05
5.26599e-05
0.000107833
4.72507e-05
0.000156487
3.88791e-05
0.000263782
2.58853e-05
0.000356856
0.000582965
6.81675e-05
6.37998e-07
6.81183e-05
1.6562e-06
6.80376e-05
1.85443e-06
6.79246e-05
2.68278e-06
6.77856e-05
4.06781e-06
6.76015e-05
5.20081e-06
6.73691e-05
6.08242e-06
6.70759e-05
7.81503e-06
6.67157e-05
9.71168e-06
6.62388e-05
1.22389e-05
6.56564e-05
1.52739e-05
6.49e-05
1.94871e-05
6.39469e-05
2.49471e-05
6.27483e-05
3.17423e-05
6.11768e-05
4.12634e-05
5.91636e-05
5.59722e-05
5.63634e-05
7.61818e-05
5.26929e-05
0.000111502
4.73368e-05
0.000161843
3.91503e-05
0.000271969
2.62838e-05
0.000369722
0.000609249
6.81668e-05
6.60897e-07
6.81169e-05
1.71575e-06
6.80391e-05
1.92287e-06
6.79274e-05
2.77997e-06
6.77858e-05
4.22129e-06
6.7601e-05
5.39222e-06
6.73695e-05
6.3074e-06
6.70765e-05
8.1049e-06
6.67096e-05
1.00812e-05
6.62421e-05
1.27059e-05
6.56526e-05
1.58633e-05
6.48957e-05
2.02436e-05
6.39428e-05
2.58953e-05
6.27448e-05
3.29428e-05
6.11753e-05
4.28319e-05
5.91649e-05
5.79839e-05
5.63706e-05
7.89766e-05
5.2728e-05
0.000115146
4.74267e-05
0.000167145
3.94349e-05
0.000279961
2.66996e-05
0.000382457
0.000635949
6.81676e-05
6.82566e-07
6.81184e-05
1.77203e-06
6.80376e-05
1.99661e-06
6.79246e-05
2.88399e-06
6.77857e-05
4.36834e-06
6.76018e-05
5.57995e-06
6.73694e-05
6.53521e-06
6.70764e-05
8.39518e-06
6.67046e-05
1.04554e-05
6.62443e-05
1.31663e-05
6.56489e-05
1.64588e-05
6.48918e-05
2.10008e-05
6.3939e-05
2.68532e-05
6.27417e-05
3.4137e-05
6.11742e-05
4.44007e-05
5.91674e-05
5.99891e-05
5.63796e-05
8.1764e-05
5.2765e-05
0.00011876
4.75202e-05
0.000172389
3.97339e-05
0.000287747
2.71342e-05
0.000395057
0.000663083
6.81669e-05
7.05281e-07
6.8117e-05
1.83121e-06
6.80391e-05
2.06548e-06
6.79274e-05
2.98117e-06
6.77859e-05
4.52173e-06
6.76013e-05
5.77097e-06
6.73698e-05
6.76042e-06
6.70771e-05
8.68482e-06
6.67017e-05
1.08333e-05
6.6245e-05
1.36227e-05
6.56454e-05
1.70583e-05
6.48881e-05
2.17579e-05
6.39354e-05
2.78014e-05
6.27389e-05
3.53359e-05
6.11737e-05
4.59649e-05
5.91707e-05
6.19934e-05
5.63903e-05
8.4545e-05
5.28039e-05
0.000122346
4.76169e-05
0.000177577
4.00481e-05
0.000295316
2.75888e-05
0.000407516
0.000690672
6.81678e-05
7.2671e-07
6.81187e-05
1.88695e-06
6.80376e-05
2.13988e-06
6.79245e-05
3.08566e-06
6.77858e-05
4.66842e-06
6.76021e-05
5.95816e-06
6.73697e-05
6.98853e-06
6.7077e-05
8.97473e-06
6.66994e-05
1.12133e-05
6.62447e-05
1.40776e-05
6.56421e-05
1.76609e-05
6.48846e-05
2.25155e-05
6.3932e-05
2.87589e-05
6.27364e-05
3.65285e-05
6.11735e-05
4.75292e-05
5.91748e-05
6.39905e-05
5.64026e-05
8.73169e-05
5.28444e-05
0.000125904
4.77165e-05
0.000182704
4.03777e-05
0.000302655
2.80643e-05
0.00041983
0.000718736
6.8167e-05
7.49253e-07
6.81172e-05
1.9458e-06
6.80392e-05
2.20916e-06
6.79275e-05
3.18281e-06
6.7786e-05
4.82174e-06
6.76016e-05
6.1488e-06
6.73701e-05
7.21397e-06
6.70778e-05
9.26408e-06
6.66981e-05
1.15953e-05
6.62438e-05
1.45318e-05
6.56389e-05
1.82657e-05
6.48812e-05
2.32729e-05
6.39288e-05
2.97069e-05
6.27341e-05
3.77256e-05
6.11738e-05
4.90886e-05
5.91797e-05
6.59859e-05
5.64164e-05
9.00807e-05
5.28866e-05
0.000129434
4.78186e-05
0.000187772
4.07224e-05
0.000309751
2.85611e-05
0.000431991
0.000747297
6.81679e-05
7.7046e-07
6.81189e-05
2.00109e-06
6.80376e-05
2.28423e-06
6.79244e-05
3.28759e-06
6.77859e-05
4.96794e-06
6.76024e-05
6.33551e-06
6.737e-05
7.44245e-06
6.70777e-05
9.55367e-06
6.66967e-05
1.19785e-05
6.62424e-05
1.49864e-05
6.56358e-05
1.88723e-05
6.4878e-05
2.40309e-05
6.39257e-05
3.06639e-05
6.27321e-05
3.89161e-05
6.11743e-05
5.06477e-05
5.91852e-05
6.79732e-05
5.64318e-05
9.28338e-05
5.29304e-05
0.000132935
4.7923e-05
0.00019278
4.10817e-05
0.000316592
2.90796e-05
0.000443993
0.000776377
6.81671e-05
7.92847e-07
6.81173e-05
2.05966e-06
6.80393e-05
2.35388e-06
6.79276e-05
3.38465e-06
6.77861e-05
5.12122e-06
6.76018e-05
6.52579e-06
6.73704e-05
7.66812e-06
6.70786e-05
9.84268e-06
6.6696e-05
1.23632e-05
6.62406e-05
1.54416e-05
6.56328e-05
1.948e-05
6.48749e-05
2.47885e-05
6.39228e-05
3.16117e-05
6.27303e-05
4.01112e-05
6.11752e-05
5.22019e-05
5.91913e-05
6.99584e-05
5.64485e-05
9.55771e-05
5.29757e-05
0.000136408
4.80293e-05
0.000197726
4.14549e-05
0.000323167
2.96199e-05
0.000455828
0.000805997
6.81681e-05
8.13868e-07
6.8119e-05
2.11462e-06
6.80375e-05
2.42954e-06
6.79244e-05
3.48959e-06
6.7786e-05
5.26701e-06
6.76027e-05
6.71208e-06
6.73702e-05
7.89696e-06
6.70784e-05
1.01319e-05
6.66948e-05
1.27488e-05
6.62387e-05
1.5898e-05
6.56299e-05
2.00888e-05
6.48719e-05
2.55467e-05
6.392e-05
3.25681e-05
6.27287e-05
4.12993e-05
6.11763e-05
5.37555e-05
5.9198e-05
7.19349e-05
5.64666e-05
9.83081e-05
5.30226e-05
0.000139852
4.81376e-05
0.000202611
4.18414e-05
0.000329463
3.0182e-05
0.000467487
0.000836179
6.81672e-05
8.3611e-07
6.81174e-05
2.17289e-06
6.80394e-05
2.49949e-06
6.79277e-05
3.58665e-06
6.77861e-05
5.42035e-06
6.76021e-05
6.90196e-06
6.73706e-05
8.12281e-06
6.70791e-05
1.04208e-05
6.66943e-05
1.31354e-05
6.62365e-05
1.63557e-05
6.5627e-05
2.06982e-05
6.4869e-05
2.63044e-05
6.39174e-05
3.35155e-05
6.27272e-05
4.24921e-05
6.11776e-05
5.53042e-05
5.92051e-05
7.39089e-05
5.64859e-05
0.000101028
5.30711e-05
0.000143267
4.82479e-05
0.000207434
4.22408e-05
0.00033547
3.07659e-05
0.000478962
0.000866944
6.81682e-05
8.56956e-07
6.81192e-05
2.22743e-06
6.80376e-05
2.57559e-06
6.79244e-05
3.69193e-06
6.7786e-05
5.56596e-06
6.76029e-05
7.08777e-06
6.73705e-05
8.35186e-06
6.70773e-05
1.07114e-05
6.66953e-05
1.35187e-05
6.62342e-05
1.6817e-05
6.56242e-05
2.13083e-05
6.48662e-05
2.70626e-05
6.39148e-05
3.44714e-05
6.27259e-05
4.36776e-05
6.11793e-05
5.6852e-05
5.92127e-05
7.58737e-05
5.65064e-05
0.000103734
5.31213e-05
0.000146651
4.83604e-05
0.000212195
4.26529e-05
0.000341178
3.13719e-05
0.000490243
0.000898316
6.81673e-05
8.79074e-07
6.81175e-05
2.2854e-06
6.80395e-05
2.64574e-06
6.79278e-05
3.789e-06
6.77861e-05
5.71952e-06
6.76023e-05
7.27725e-06
6.73708e-05
8.57792e-06
6.70716e-05
1.10082e-05
6.67007e-05
1.38903e-05
6.62318e-05
1.72857e-05
6.56214e-05
2.19186e-05
6.48634e-05
2.78203e-05
6.39124e-05
3.54182e-05
6.27249e-05
4.48678e-05
6.11812e-05
5.83949e-05
5.92207e-05
7.78356e-05
5.65279e-05
0.000106427
5.31731e-05
0.000150007
4.8475e-05
0.000216893
4.30777e-05
0.000346575
3.20005e-05
0.00050132
0.000930317
6.81683e-05
8.99706e-07
6.81194e-05
2.33942e-06
6.80376e-05
2.72243e-06
6.79242e-05
3.89495e-06
6.7786e-05
5.86485e-06
6.76032e-05
7.46246e-06
6.73706e-05
8.80729e-06
6.70654e-05
1.13111e-05
6.67052e-05
1.42508e-05
6.62293e-05
1.77617e-05
6.56187e-05
2.25293e-05
6.48608e-05
2.85783e-05
6.39101e-05
3.63735e-05
6.27239e-05
4.60507e-05
6.11833e-05
5.99367e-05
5.92291e-05
7.9788e-05
5.65503e-05
0.000109105
5.32267e-05
0.00015333
4.85916e-05
0.000221528
4.35154e-05
0.000351651
3.26522e-05
0.000512183
0.000962969
6.81674e-05
9.21694e-07
6.81176e-05
2.39707e-06
6.80396e-05
2.79281e-06
6.79278e-05
3.99213e-06
6.77861e-05
6.01853e-06
6.76026e-05
7.65154e-06
6.7371e-05
9.03353e-06
6.70631e-05
1.16168e-05
6.67062e-05
1.46078e-05
6.62268e-05
1.82409e-05
6.5616e-05
2.314e-05
6.48582e-05
2.93359e-05
6.39078e-05
3.73193e-05
6.27232e-05
4.72382e-05
6.11857e-05
6.14733e-05
5.9238e-05
8.17372e-05
5.65736e-05
0.00011177
5.32822e-05
0.000156622
4.87099e-05
0.000226101
4.39654e-05
0.000356396
3.33272e-05
0.000522821
0.000996296
6.81683e-05
9.42309e-07
6.81194e-05
2.45104e-06
6.80378e-05
2.86932e-06
6.79245e-05
4.09768e-06
6.77861e-05
6.1643e-06
6.76035e-05
7.83655e-06
6.73697e-05
9.26425e-06
6.70625e-05
1.19225e-05
6.67056e-05
1.49647e-05
6.62243e-05
1.87224e-05
6.56134e-05
2.3751e-05
6.48556e-05
3.00938e-05
6.39057e-05
3.82748e-05
6.27226e-05
4.84176e-05
6.11884e-05
6.30089e-05
5.92472e-05
8.36765e-05
5.65975e-05
0.000114419
5.33397e-05
0.000159879
4.88292e-05
0.000230611
4.44258e-05
0.000360799
3.40249e-05
0.000533222
0.00103032
6.81675e-05
9.64048e-07
6.81179e-05
2.5081e-06
6.80395e-05
2.94049e-06
6.79276e-05
4.19565e-06
6.77862e-05
6.31732e-06
6.76029e-05
8.0249e-06
6.73639e-05
9.49839e-06
6.70682e-05
1.22172e-05
6.67046e-05
1.53283e-05
6.62218e-05
1.92049e-05
6.56108e-05
2.4362e-05
6.48531e-05
3.08512e-05
6.39037e-05
3.92193e-05
6.27223e-05
4.96022e-05
6.11913e-05
6.4539e-05
5.92567e-05
8.56128e-05
5.6622e-05
0.000117055
5.33994e-05
0.000163102
4.89486e-05
0.000235062
4.48915e-05
0.000364857
3.47418e-05
0.000543372
0.00106506
6.81685e-05
9.8439e-07
6.81197e-05
2.56139e-06
6.80377e-05
3.01783e-06
6.79242e-05
4.30222e-06
6.77861e-05
6.46234e-06
6.76034e-05
8.20969e-06
6.73574e-05
9.74157e-06
6.70756e-05
1.24989e-05
6.67033e-05
1.57005e-05
6.62194e-05
1.96891e-05
6.56082e-05
2.49733e-05
6.48507e-05
3.16089e-05
6.39018e-05
4.01739e-05
6.27221e-05
5.07782e-05
6.11946e-05
6.60677e-05
5.92667e-05
8.75387e-05
5.66469e-05
0.000119674
5.34615e-05
0.000166287
4.90674e-05
0.000239456
4.53526e-05
0.000368571
3.54697e-05
0.000553255
0.00110053
6.81672e-05
1.00656e-06
6.81171e-05
2.61947e-06
6.80399e-05
3.08728e-06
6.79284e-05
4.39808e-06
6.77863e-05
6.61752e-06
6.76024e-05
8.39903e-06
6.73553e-05
9.9835e-06
6.70789e-05
1.27751e-05
6.6702e-05
1.60775e-05
6.6217e-05
2.01739e-05
6.56056e-05
2.55846e-05
6.48483e-05
3.23659e-05
6.39e-05
4.11173e-05
6.27222e-05
5.19591e-05
6.11981e-05
6.75908e-05
5.92771e-05
8.94614e-05
5.66718e-05
0.00012228
5.3527e-05
0.000169432
4.91841e-05
0.000243799
4.58048e-05
0.000371951
3.62866e-05
0.000562773
0.00113682
-1.04172e-05
1.04168e-05
-1.86286e-05
8.21104e-06
-1.96606e-05
1.03159e-06
-1.56642e-05
-3.99652e-06
-1.20543e-05
-3.61096e-06
-1.03643e-05
-1.69083e-06
-9.59327e-06
-7.71794e-07
-8.96387e-06
-6.29219e-07
-7.66438e-06
-1.30424e-06
-5.56383e-06
-2.09149e-06
-2.97942e-06
-2.47072e-06
-8.14499e-09
-3.06047e-06
3.66981e-06
-3.68631e-06
8.51732e-06
-4.84939e-06
1.4499e-05
-5.97994e-06
2.06773e-05
-6.1765e-06
2.61563e-05
-5.47891e-06
3.11084e-05
-4.95215e-06
3.60341e-05
-4.92642e-06
4.06522e-05
-4.61798e-06
4.4398e-05
-3.7445e-06
4.72073e-05
-2.81038e-06
4.95816e-05
-2.37408e-06
5.33209e-05
-3.73988e-06
5.90686e-05
-5.74818e-06
6.36897e-05
-4.62072e-06
6.55147e-05
-1.82483e-06
6.60593e-05
-5.44656e-07
6.63758e-05
-3.1658e-07
6.6667e-05
-2.91127e-07
6.69194e-05
-2.52441e-07
6.71226e-05
-2.03149e-07
6.72838e-05
-1.61197e-07
6.74202e-05
-1.36363e-07
-6.19941e-08
-1.02983e-05
2.07144e-05
-1.83856e-05
1.62977e-05
-1.93144e-05
1.95957e-06
-1.52438e-05
-8.06731e-06
-1.16894e-05
-7.16715e-06
-1.00019e-05
-3.38013e-06
-9.22069e-06
-1.55446e-06
-8.63722e-06
-1.21241e-06
-7.51543e-06
-2.43504e-06
-5.60528e-06
-3.98329e-06
-3.03499e-06
-4.85431e-06
-1.70849e-08
-6.22113e-06
3.64037e-06
-7.36045e-06
8.23963e-06
-9.45244e-06
1.39492e-05
-1.16859e-05
2.00839e-05
-1.23075e-05
2.56712e-05
-1.1066e-05
3.06473e-05
-9.92834e-06
3.55047e-05
-9.78531e-06
4.01542e-05
-9.2671e-06
4.40708e-05
-7.65884e-06
4.70445e-05
-5.78611e-06
4.94816e-05
-4.8108e-06
5.31485e-05
-7.40796e-06
5.88536e-05
-1.1454e-05
6.35813e-05
-9.34774e-06
6.54983e-05
-3.74148e-06
6.60641e-05
-1.11062e-06
6.63785e-05
-6.31135e-07
6.66676e-05
-5.80215e-07
6.692e-05
-5.04803e-07
6.71237e-05
-4.06759e-07
6.7285e-05
-3.22504e-07
6.74213e-05
-2.72615e-07
-1.2407e-07
-1.01681e-05
3.08819e-05
-1.80637e-05
2.41928e-05
-1.88569e-05
2.75188e-06
-1.4725e-05
-1.21995e-05
-1.12114e-05
-1.06827e-05
-9.54971e-06
-5.04343e-06
-8.81764e-06
-2.28791e-06
-8.35356e-06
-1.67614e-06
-7.38134e-06
-3.41584e-06
-5.55969e-06
-5.78802e-06
-2.96703e-06
-7.24483e-06
9.16457e-08
-9.44118e-06
3.67547e-06
-1.09614e-05
8.0449e-06
-1.38257e-05
1.35073e-05
-1.7145e-05
1.95759e-05
-1.83725e-05
2.5244e-05
-1.67338e-05
3.02469e-05
-1.49313e-05
3.50473e-05
-1.45872e-05
3.97156e-05
-1.39351e-05
4.37777e-05
-1.17185e-05
4.69019e-05
-8.91227e-06
4.94006e-05
-7.30915e-06
5.2999e-05
-1.10074e-05
5.86584e-05
-1.71142e-05
6.34803e-05
-1.4169e-05
6.54834e-05
-5.74428e-06
6.60694e-05
-1.69679e-06
6.63817e-05
-9.4365e-07
6.66689e-05
-8.67256e-07
6.69211e-05
-7.57037e-07
6.71252e-05
-6.10769e-07
6.72865e-05
-4.8382e-07
6.74226e-05
-4.08667e-07
-1.86123e-07
-9.99053e-06
4.08716e-05
-1.76685e-05
3.187e-05
-1.82891e-05
3.37157e-06
-1.40734e-05
-1.64154e-05
-1.06274e-05
-1.41307e-05
-9.02313e-06
-6.64967e-06
-8.36137e-06
-2.9512e-06
-8.00879e-06
-2.0284e-06
-7.15989e-06
-4.27406e-06
-5.41696e-06
-7.51055e-06
-2.80577e-06
-9.66576e-06
2.9691e-07
-1.2694e-05
3.81485e-06
-1.45007e-05
7.97245e-06
-1.7988e-05
1.31869e-05
-2.23554e-05
1.91424e-05
-2.43232e-05
2.48515e-05
-2.24425e-05
2.98856e-05
-1.99656e-05
3.46469e-05
-1.93503e-05
3.93299e-05
-1.86177e-05
4.3516e-05
-1.59021e-05
4.67781e-05
-1.21766e-05
4.93376e-05
-9.86832e-06
5.28723e-05
-1.45434e-05
5.84822e-05
-2.27248e-05
6.33861e-05
-1.90721e-05
6.54699e-05
-7.82776e-06
6.60753e-05
-2.30244e-06
6.63856e-05
-1.25411e-06
6.66707e-05
-1.15219e-06
6.69227e-05
-1.00908e-06
6.71271e-05
-8.15089e-07
6.72883e-05
-6.45042e-07
6.74241e-05
-5.44397e-07
-2.48055e-07
-9.76823e-06
5.06393e-05
-1.71949e-05
3.92962e-05
-1.76005e-05
3.776e-06
-1.32845e-05
-2.07317e-05
-9.93178e-06
-1.74855e-05
-8.41284e-06
-8.17037e-06
-7.83753e-06
-3.52787e-06
-7.58465e-06
-2.28088e-06
-6.83649e-06
-5.0311e-06
-5.15791e-06
-9.17078e-06
-2.51663e-06
-1.21115e-05
6.38324e-07
-1.60135e-05
4.09285e-06
-1.79781e-05
8.05323e-06
-2.19531e-05
1.30258e-05
-2.73241e-05
1.88225e-05
-3.01153e-05
2.45175e-05
-2.81372e-05
2.95734e-05
-2.50217e-05
3.43086e-05
-2.40873e-05
3.90014e-05
-2.33101e-05
4.32891e-05
-2.01872e-05
4.66748e-05
-1.55646e-05
4.92931e-05
-1.24862e-05
5.2768e-05
-1.80194e-05
5.83245e-05
-2.8282e-05
6.32987e-05
-2.40456e-05
6.54578e-05
-9.98656e-06
6.60819e-05
-2.92677e-06
6.63902e-05
-1.56249e-06
6.6673e-05
-1.43495e-06
6.69248e-05
-1.26085e-06
6.71294e-05
-1.01964e-06
6.72904e-05
-8.06064e-07
6.74258e-05
-6.79691e-07
-3.09774e-07
-9.50281e-06
6.01413e-05
-1.66394e-05
4.64321e-05
-1.67924e-05
3.92766e-06
-1.23671e-05
-2.51572e-05
-9.12108e-06
-2.07336e-05
-7.70601e-06
-9.58767e-06
-7.22882e-06
-4.00667e-06
-7.0623e-06
-2.447e-06
-6.39512e-06
-5.70838e-06
-4.75979e-06
-1.07822e-05
-2.05786e-06
-1.4619e-05
1.16554e-06
-1.93982e-05
4.55258e-06
-2.13947e-05
8.32442e-06
-2.57313e-05
1.30683e-05
-3.2063e-05
1.86745e-05
-3.57153e-05
2.42956e-05
-3.37577e-05
2.93456e-05
-3.0072e-05
3.40546e-05
-2.87989e-05
3.87442e-05
-2.79992e-05
4.3105e-05
-2.4545e-05
4.65961e-05
-1.90584e-05
4.92689e-05
-1.51587e-05
5.26861e-05
-2.1438e-05
5.81846e-05
-3.37813e-05
6.32181e-05
-2.90783e-05
6.54472e-05
-1.22153e-05
6.60892e-05
-3.56903e-06
6.63953e-05
-1.86879e-06
6.6676e-05
-1.71549e-06
6.69274e-05
-1.5123e-06
6.71322e-05
-1.22432e-06
6.72929e-05
-9.66774e-07
6.74276e-05
-8.14425e-07
-3.71183e-07
-9.19557e-06
6.93364e-05
-1.60012e-05
5.32372e-05
-1.58785e-05
3.80343e-06
-1.13452e-05
-2.96909e-05
-8.19795e-06
-2.38829e-05
-6.88926e-06
-1.08983e-05
-6.51688e-06
-4.38052e-06
-6.42354e-06
-2.53981e-06
-5.82009e-06
-6.32158e-06
-4.2013e-06
-1.23796e-05
-1.39373e-06
-1.7237e-05
1.92361e-06
-2.28788e-05
5.24067e-06
-2.4742e-05
8.83126e-06
-2.93284e-05
1.33649e-05
-3.65919e-05
1.87673e-05
-4.11117e-05
2.42619e-05
-3.92519e-05
2.92631e-05
-3.50734e-05
3.39263e-05
-3.34646e-05
3.85839e-05
-3.26563e-05
4.29784e-05
-2.89362e-05
4.65495e-05
-2.26325e-05
4.92687e-05
-1.78774e-05
5.26271e-05
-2.47976e-05
5.80621e-05
-3.92171e-05
6.31443e-05
-3.41598e-05
6.5438e-05
-1.45087e-05
6.60971e-05
-4.2283e-06
6.64012e-05
-2.17298e-06
6.66795e-05
-1.99375e-06
6.69306e-05
-1.76335e-06
6.71353e-05
-1.42904e-06
6.72956e-05
-1.12706e-06
6.74297e-05
-9.48483e-07
-4.32189e-07
-8.84784e-06
7.81834e-05
-1.52837e-05
5.96722e-05
-1.48804e-05
3.39834e-06
-1.02531e-05
-3.43185e-05
-7.17703e-06
-2.69611e-05
-5.95553e-06
-1.21222e-05
-5.68604e-06
-4.65171e-06
-5.65374e-06
-2.57159e-06
-5.09984e-06
-6.88658e-06
-3.47019e-06
-1.39809e-05
-5.17409e-07
-1.99984e-05
2.92199e-06
-2.64724e-05
6.18783e-06
-2.80456e-05
9.623e-06
-3.27721e-05
1.39796e-05
-4.09419e-05
1.91864e-05
-4.63099e-05
2.4516e-05
-4.45807e-05
2.94163e-05
-3.9974e-05
3.399e-05
-3.80421e-05
3.85629e-05
-3.72286e-05
4.29334e-05
-3.33026e-05
4.65476e-05
-2.62504e-05
4.92984e-05