/*--------------------------------*- C++ -*----------------------------------*\
| =========                 |                                                 |
| \\      /  F ield         | OpenFOAM: The Open Source CFD Toolbox           |
|  \\    /   O peration     | Version:  v1912                                 |
|   \\  /    A nd           | Website:  www.openfoam.com                      |
|    \\/     M anipulation  |                                                 |
\*---------------------------------------------------------------------------*/
FoamFile
{
    version     2.0;
    format      ascii;
    class       volVectorField;
    location    "140";
    object      U;
}
// * * * * * * * * * * * * * * * * * * * * * * * * * * * * * * * * * * * * * //

dimensions      [0 1 -1 0 0 0 0];


internalField   nonuniform List<vector> 
12441
(
(29.9996 1.97635e-05 0)
(29.9837 5.62416e-05 0)
(29.9574 7.30611e-05 0)
(29.9175 0.000124027 0)
(29.8591 0.000205568 0)
(29.7865 0.000287493 0)
(29.6992 0.00038184 0)
(29.5861 0.000550596 0)
(29.4424 0.000772261 0)
(29.2679 0.001081 0)
(29.0491 0.0014964 0)
(28.7722 0.00212754 0)
(28.4509 0.00306501 0)
(27.9821 0.00438376 0)
(27.4424 0.00618918 0)
(26.6653 0.010866 0)
(25.6642 0.0141628 0)
(24.1014 0.0294574 0)
(21.9018 0.0505104 0)
(18.3541 0.0900193 0)
(12.5744 0.124598 0)
(6.07975 0.204585 0)
(29.9998 5.95125e-05 0)
(29.9825 0.00017279 0)
(29.9561 0.000223151 0)
(29.9186 0.000367725 0)
(29.8604 0.000594903 0)
(29.7861 0.000866336 0)
(29.6987 0.0011428 0)
(29.5862 0.00165435 0)
(29.4428 0.00230723 0)
(29.2684 0.00322431 0)
(29.0489 0.00446426 0)
(28.7701 0.00637173 0)
(28.4532 0.00921962 0)
(27.982 0.0131388 0)
(27.4432 0.0185962 0)
(26.6683 0.0325288 0)
(25.6607 0.0452161 0)
(24.0959 0.0842986 0)
(21.8957 0.131616 0)
(18.3462 0.260406 0)
(12.571 0.365919 0)
(6.07973 0.610477 0)
(29.9998 9.97255e-05 0)
(29.9826 0.000295022 0)
(29.9562 0.000368724 0)
(29.9182 0.00059706 0)
(29.8602 0.000987025 0)
(29.7862 0.00145078 0)
(29.6987 0.00190621 0)
(29.5861 0.00275047 0)
(29.4427 0.00383539 0)
(29.2684 0.00536962 0)
(29.0488 0.00743335 0)
(28.7705 0.0106305 0)
(28.4543 0.0153406 0)
(27.98 0.0218992 0)
(27.4427 0.031019 0)
(26.6681 0.053344 0)
(25.6609 0.0770742 0)
(24.0994 0.137326 0)
(21.8952 0.210309 0)
(18.3406 0.428507 0)
(12.5702 0.603845 0)
(6.08314 1.0142 0)
(29.9998 0.000140685 0)
(29.9826 0.000416926 0)
(29.9563 0.00051347 0)
(29.9187 0.000826463 0)
(29.8604 0.00138643 0)
(29.7862 0.00204041 0)
(29.6988 0.00267 0)
(29.5863 0.00384564 0)
(29.4429 0.00536773 0)
(29.2685 0.00752368 0)
(29.049 0.0104082 0)
(28.7703 0.0148934 0)
(28.4532 0.0214817 0)
(27.9828 0.0306791 0)
(27.4435 0.0434613 0)
(26.6695 0.0742579 0)
(25.6627 0.108184 0)
(24.1038 0.19345 0)
(21.9007 0.31379 0)
(18.3412 0.604603 0)
(12.5767 0.845745 0)
(6.09168 1.41942 0)
(29.9998 0.000181569 0)
(29.9828 0.000537519 0)
(29.9565 0.000657474 0)
(29.9184 0.00105789 0)
(29.8602 0.00178789 0)
(29.7864 0.00262686 0)
(29.6989 0.00342931 0)
(29.5863 0.00493992 0)
(29.4428 0.00690249 0)
(29.2685 0.00967802 0)
(29.0491 0.0133806 0)
(28.7711 0.0191514 0)
(28.455 0.0276311 0)
(27.9809 0.0394426 0)
(27.4439 0.0559323 0)
(26.6694 0.0949301 0)
(25.6649 0.138775 0)
(24.108 0.250324 0)
(21.9107 0.400008 0)
(18.3487 0.776924 0)
(12.5917 1.08737 0)
(6.10563 1.82576 0)
(29.9998 0.000222321 0)
(29.9826 0.000657522 0)
(29.9565 0.000801355 0)
(29.919 0.00129032 0)
(29.8605 0.00218912 0)
(29.7863 0.00321104 0)
(29.6991 0.00418828 0)
(29.5865 0.00603675 0)
(29.443 0.00843932 0)
(29.2687 0.0118316 0)
(29.0493 0.0163528 0)
(28.7706 0.0234061 0)
(28.4532 0.0337747 0)
(27.9842 0.0482148 0)
(27.4447 0.0684104 0)
(26.671 0.1155 0)
(25.668 0.169095 0)
(24.1125 0.306583 0)
(21.9231 0.484686 0)
(18.3629 0.948025 0)
(12.6163 1.32865 0)
(6.12528 2.23304 0)
(29.9998 0.000262948 0)
(29.9829 0.000776676 0)
(29.9567 0.000944921 0)
(29.9185 0.00152347 0)
(29.8602 0.00259071 0)
(29.7865 0.00379457 0)
(29.6991 0.00494783 0)
(29.5865 0.00713453 0)
(29.443 0.0099756 0)
(29.2688 0.0139837 0)
(29.0495 0.019325 0)
(28.7717 0.0276664 0)
(28.455 0.0399294 0)
(27.9811 0.0569406 0)
(27.4454 0.0808817 0)
(26.6712 0.135907 0)
(25.6713 0.198763 0)
(24.1172 0.360575 0)
(21.9381 0.571632 0)
(18.3845 1.11931 0)
(12.6519 1.57 0)
(6.15101 2.64157 0)
(29.9998 0.000303481 0)
(29.9827 0.000895401 0)
(29.9567 0.00108817 0)
(29.9192 0.00175688 0)
(29.8606 0.00299287 0)
(29.7864 0.00437773 0)
(29.6993 0.00570704 0)
(29.5868 0.00823204 0)
(29.4432 0.0115117 0)
(29.2689 0.0161358 0)
(29.0497 0.0222995 0)
(28.7709 0.0319211 0)
(28.4528 0.0460664 0)
(27.9859 0.0656708 0)
(27.4468 0.0932148 0)
(26.6728 0.156017 0)
(25.6762 0.22992 0)
(24.1225 0.416803 0)
(21.957 0.659861 0)
(18.4155 1.29016 0)
(12.7002 1.81155 0)
(6.18328 3.05179 0)
(29.9997 0.000343911 0)
(29.983 0.00101346 0)
(29.9569 0.00123108 0)
(29.9187 0.00199062 0)
(29.8603 0.00339557 0)
(29.7867 0.00496032 0)
(29.6994 0.00646587 0)
(29.5867 0.00932973 0)
(29.4432 0.0130482 0)
(29.269 0.0182878 0)
(29.0499 0.0252727 0)
(28.7726 0.0361849 0)
(28.4561 0.0522282 0)
(27.9814 0.07447 0)
(27.4461 0.105665 0)
(26.6726 0.176563 0)
(25.6773 0.259693 0)
(24.1226 0.472742 0)
(21.9798 0.747848 0)
(18.4579 1.46002 0)
(12.7631 2.05341 0)
(6.22259 3.46414 0)
(29.9998 0.000384244 0)
(29.9828 0.00113113 0)
(29.9568 0.0013738 0)
(29.9195 0.00222461 0)
(29.8607 0.00379877 0)
(29.7865 0.00554217 0)
(29.6995 0.00722432 0)
(29.587 0.0104277 0)
(29.4434 0.0145851 0)
(29.2691 0.0204395 0)
(29.0501 0.0282474 0)
(28.7711 0.0404385 0)
(28.4519 0.0583764 0)
(27.9865 0.0830988 0)
(27.4466 0.118735 0)
(26.6698 0.197493 0)
(25.6699 0.289932 0)
(24.1135 0.527058 0)
(22.0067 0.835354 0)
(18.5131 1.62878 0)
(12.842 2.2957 0)
(6.26943 3.87911 0)
(29.9997 0.000424457 0)
(29.9832 0.00124812 0)
(29.9571 0.00151636 0)
(29.9188 0.00245911 0)
(29.8602 0.0042025 0)
(29.7868 0.00612341 0)
(29.6995 0.00798266 0)
(29.5869 0.0115258 0)
(29.4434 0.0161222 0)
(29.2692 0.022591 0)
(29.0503 0.0312218 0)
(28.7733 0.0447009 0)
(28.4574 0.0645779 0)
(27.9873 0.091767 0)
(27.4449 0.131153 0)
(26.6559 0.217502 0)
(25.6539 0.321417 0)
(24.101 0.581009 0)
(22.0374 0.922426 0)
(18.5793 1.79616 0)
(12.9369 2.5385 0)
(6.32421 4.29721 0)
(29.9997 0.000464556 0)
(29.9828 0.00136473 0)
(29.9569 0.0016589 0)
(29.9196 0.00269387 0)
(29.8607 0.00460662 0)
(29.7866 0.00670389 0)
(29.6996 0.00874082 0)
(29.5871 0.0126242 0)
(29.4436 0.0176593 0)
(29.2694 0.0247409 0)
(29.0506 0.0341991 0)
(28.7714 0.0489511 0)
(28.4513 0.0706631 0)
(27.9945 0.100752 0)
(27.4357 0.144501 0)
(26.634 0.238121 0)
(25.6369 0.353222 0)
(24.0938 0.633745 0)
(22.0694 1.00851 0)
(18.6517 1.96175 0)
(13.0467 2.78183 0)
(6.38722 4.71896 0)
(29.9997 0.000504517 0)
(29.9833 0.00148076 0)
(29.9573 0.00180153 0)
(29.9188 0.00292881 0)
(29.8603 0.00501077 0)
(29.787 0.00728388 0)
(29.6997 0.00949926 0)
(29.587 0.0137227 0)
(29.4436 0.0191964 0)
(29.2694 0.0268911 0)
(29.051 0.0371797 0)
(28.7726 0.0532785 0)
(28.4548 0.0767275 0)
(27.9925 0.109896 0)
(27.4192 0.158455 0)
(26.6122 0.258672 0)
(25.6238 0.384891 0)
(24.0924 0.684956 0)
(22.0993 1.09341 0)
(18.7251 2.12524 0)
(13.1689 3.02555 0)
(6.45856 5.14485 0)
(29.9997 0.000544346 0)
(29.9829 0.00159643 0)
(29.957 0.00194431 0)
(29.9198 0.00316398 0)
(29.8608 0.00541515 0)
(29.7867 0.00786303 0)
(29.6998 0.0102577 0)
(29.5872 0.0148213 0)
(29.4439 0.0207334 0)
(29.2696 0.0290396 0)
(29.0516 0.0401823 0)
(28.771 0.057626 0)
(28.447 0.0830729 0)
(27.9842 0.119269 0)
(27.4019 0.172251 0)
(26.5953 0.278703 0)
(25.6145 0.416184 0)
(24.0938 0.734884 0)
(22.1252 1.17721 0)
(18.7956 2.28652 0)
(13.3008 3.26945 0)
(6.53813 5.5753 0)
(29.9996 0.000584015 0)
(29.9835 0.00171144 0)
(29.9574 0.00208729 0)
(29.9188 0.00339956 0)
(29.8602 0.00581964 0)
(29.7871 0.00844169 0)
(29.6999 0.0110165 0)
(29.5871 0.0159198 0)
(29.4438 0.0222707 0)
(29.2697 0.031184 0)
(29.0522 0.0432148 0)
(28.7729 0.0618965 0)
(28.4432 0.0893739 0)
(27.9723 0.128568 0)
(27.3877 0.186009 0)
(26.5832 0.29848 0)
(25.6076 0.447248 0)
(24.0956 0.783913 0)
(22.1473 1.26006 0)
(18.861 2.44549 0)
(13.4395 3.51324 0)
(6.6257 6.01068 0)
(29.9997 0.000623536 0)
(29.9831 0.00182608 0)
(29.9571 0.00223055 0)
(29.9199 0.00363543 0)
(29.8608 0.00622432 0)
(29.7868 0.00901942 0)
(29.6999 0.0117753 0)
(29.5874 0.0170186 0)
(29.444 0.0238063 0)
(29.27 0.0333288 0)
(29.0529 0.0462511 0)
(28.7758 0.0663127 0)
(28.4338 0.0957424 0)
(27.9615 0.137811 0)
(27.377 0.199672 0)
(26.5744 0.318163 0)
(25.6021 0.478194 0)
(24.0969 0.832367 0)
(22.1661 1.34209 0)
(18.921 2.60211 0)
(13.5828 3.75664 0)
(6.7209 6.4513 0)
(29.9996 0.000662882 0)
(29.9836 0.00194016 0)
(29.9575 0.00237423 0)
(29.9188 0.00387142 0)
(29.8602 0.00662862 0)
(29.7873 0.00959679 0)
(29.7 0.0125347 0)
(29.5872 0.0181177 0)
(29.444 0.025342 0)
(29.2702 0.0354652 0)
(29.0541 0.0493518 0)
(28.778 0.0707862 0)
(28.4254 0.102181 0)
(27.9525 0.147035 0)
(27.3688 0.213325 0)
(26.5678 0.337793 0)
(25.5975 0.509065 0)
(24.0973 0.880428 0)
(22.1828 1.42336 0)
(18.9758 2.75632 0)
(13.729 3.99935 0)
(6.82332 6.89742 0)
(29.9997 0.000702071 0)
(29.9832 0.00205388 0)
(29.9572 0.00251829 0)
(29.92 0.00410769 0)
(29.8608 0.007033 0)
(29.787 0.0101731 0)
(29.7 0.0132944 0)
(29.5875 0.0192168 0)
(29.4442 0.0268774 0)
(29.2702 0.0375899 0)
(29.0556 0.0524753 0)
(28.7772 0.0753384 0)
(28.4171 0.108599 0)
(27.9454 0.156252 0)
(27.3624 0.226967 0)
(26.5627 0.357402 0)
(25.5933 0.539888 0)
(24.0971 0.928205 0)
(22.1981 1.50392 0)
(19.0262 2.9081 0)
(13.877 4.24112 0)
(6.93255 7.34926 0)
(29.9996 0.000741074 0)
(29.9838 0.00216697 0)
(29.9576 0.00266279 0)
(29.9188 0.00434426 0)
(29.8602 0.00743716 0)
(29.7874 0.0107491 0)
(29.7001 0.0140547 0)
(29.5873 0.0203161 0)
(29.4443 0.0284125 0)
(29.2702 0.0397203 0)
(29.0571 0.0555978 0)
(28.7742 0.0798287 0)
(28.4105 0.115066 0)
(27.9397 0.165458 0)
(27.3573 0.24061 0)
(26.5587 0.376993 0)
(25.5894 0.570679 0)
(24.0965 0.975752 0)
(22.2131 1.58379 0)
(19.0733 3.05741 0)
(14.0265 4.4817 0)
(7.04822 7.807 0)
(29.9996 0.000779913 0)
(29.9833 0.0022797 0)
(29.9572 0.00280772 0)
(29.9201 0.0045812 0)
(29.8608 0.00784142 0)
(29.7871 0.011324 0)
(29.7002 0.0148151 0)
(29.5875 0.0214151 0)
(29.4445 0.0299501 0)
(29.2701 0.0418503 0)
(29.0582 0.0588102 0)
(28.7701 0.0842708 0)
(28.405 0.121532 0)
(27.9351 0.174672 0)
(27.3531 0.254243 0)
(26.5555 0.396578 0)
(25.5859 0.601451 0)
(24.0957 1.0231 0)
(22.2283 1.66299 0)
(19.1181 3.20423 0)
(14.1773 4.7209 0)
(7.17 8.27084 0)
(29.9995 0.000818562 0)
(29.984 0.0023919 0)
(29.9577 0.00295323 0)
(29.9188 0.00481814 0)
(29.8602 0.00824506 0)
(29.7876 0.0118987 0)
(29.7003 0.0155764 0)
(29.5874 0.0225138 0)
(29.4445 0.0314892 0)
(29.27 0.0439902 0)
(29.0583 0.0620535 0)
(28.766 0.088729 0)
(28.4006 0.128026 0)
(27.9312 0.183882 0)
(27.3495 0.267871 0)
(26.5528 0.416161 0)
(25.5827 0.632217 0)
(24.0952 1.07023 0)
(22.2444 1.74151 0)
(19.1616 3.34856 0)
(14.33 4.95853 0)
(7.29766 8.74094 0)
(29.9996 0.000857043 0)
(29.9834 0.00250374 0)
(29.9573 0.00309923 0)
(29.9201 0.00505544 0)
(29.8608 0.00864873 0)
(29.7872 0.0124721 0)
(29.7003 0.0163378 0)
(29.5877 0.0236131 0)
(29.4447 0.0330252 0)
(29.2704 0.0461875 0)
(29.0569 0.0652602 0)
(28.7623 0.0932128 0)
(28.3969 0.134521 0)
(27.9279 0.193096 0)
(27.3465 0.28149 0)
(26.5506 0.435748 0)
(25.5799 0.662987 0)
(24.0951 1.11713 0)
(22.2618 1.81934 0)
(19.2047 3.49037 0)
(14.485 5.19446 0)
(7.43104 9.21749 0)
(29.9995 0.000895329 0)
(29.9841 0.00261499 0)
(29.9578 0.00324576 0)
(29.9187 0.0052929 0)
(29.8601 0.00905196 0)
(29.7878 0.0130455 0)
(29.7004 0.0170997 0)
(29.5876 0.0247128 0)
(29.4445 0.0345597 0)
(29.2709 0.0484276 0)
(29.0548 0.0684663 0)
(28.759 0.0977364 0)
(28.3937 0.141028 0)
(27.925 0.202306 0)
(27.3439 0.295103 0)
(26.5487 0.455342 0)
(25.5777 0.693767 0)
(24.0957 1.16374 0)
(22.2805 1.89649 0)
(19.2483 3.62966 0)
(14.6433 5.42855 0)
(7.57009 9.70069 0)
(29.9996 0.000933447 0)
(29.9836 0.00272587 0)
(29.9573 0.0033928 0)
(29.9202 0.00553083 0)
(29.8609 0.00945526 0)
(29.7874 0.0136175 0)
(29.7004 0.0178617 0)
(29.5879 0.0258134 0)
(29.4446 0.0360895 0)
(29.2716 0.0506987 0)
(29.0524 0.0716141 0)
(28.7561 0.102287 0)
(28.391 0.147534 0)
(27.9224 0.211514 0)
(27.3416 0.308709 0)
(26.5473 0.474942 0)
(25.5761 0.724543 0)
(24.0971 1.21001 0)
(22.3008 1.97294 0)
(19.2928 3.76638 0)
(14.8059 5.6607 0)
(7.71483 10.1907 0)
(29.9995 0.000971366 0)
(29.9843 0.00283627 0)
(29.9578 0.00354051 0)
(29.9186 0.00576861 0)
(29.8601 0.0098577 0)
(29.788 0.0141897 0)
(29.7005 0.0186242 0)
(29.5878 0.0269151 0)
(29.4445 0.0376134 0)
(29.2722 0.0529517 0)
(29.0502 0.0747178 0)
(28.7535 0.106857 0)
(28.3886 0.154044 0)
(27.9201 0.22072 0)
(27.3396 0.322309 0)
(26.5461 0.494544 0)
(25.5753 0.755292 0)
(24.0993 1.25594 0)
(22.3224 2.04871 0)
(19.339 3.90049 0)
(14.9738 5.89082 0)
(7.86535 10.6879 0)
(29.9995 0.00100912 0)
(29.9837 0.00294631 0)
(29.9574 0.00368875 0)
(29.9202 0.00600685 0)
(29.8609 0.0102602 0)
(29.7875 0.0147603 0)
(29.7005 0.019387 0)
(29.5881 0.0280158 0)
(29.4447 0.0391521 0)
(29.2726 0.0551896 0)
(29.0481 0.077808 0)
(28.7512 0.111437 0)
(28.3863 0.160551 0)
(27.9181 0.229925 0)
(27.3378 0.335903 0)
(26.5453 0.514139 0)
(25.5752 0.785987 0)
(24.1024 1.30153 0)
(22.3452 2.12377 0)
(19.3871 4.0319 0)
(15.1482 6.11884 0)
(8.02185 11.1924 0)
(29.9994 0.00104667 0)
(29.9845 0.00305581 0)
(29.9579 0.00383758 0)
(29.9186 0.00624511 0)
(29.8601 0.010662 0)
(29.7882 0.0153312 0)
(29.7006 0.0201506 0)
(29.5879 0.0291186 0)
(29.4447 0.0406941 0)
(29.2728 0.0575654 0)
(29.0463 0.0809194 0)
(28.7492 0.116023 0)
(28.3843 0.16706 0)
(27.9162 0.239126 0)
(27.3363 0.349485 0)
(26.5449 0.533715 0)
(25.5758 0.816613 0)
(24.1064 1.34676 0)
(22.3692 2.1981 0)
(19.4376 4.16051 0)
(15.3305 6.34467 0)
(8.18458 11.7046 0)
(29.9995 0.00108407 0)
(29.9838 0.00316496 0)
(29.9574 0.00398693 0)
(29.9202 0.00648394 0)
(29.8609 0.011064 0)
(29.7877 0.0159006 0)
(29.7007 0.0209137 0)
(29.5882 0.030222 0)
(29.445 0.0422371 0)
(29.2727 0.0599241 0)
(29.0446 0.0840688 0)
(28.7473 0.120614 0)
(28.3825 0.173567 0)
(27.9144 0.248326 0)
(27.3349 0.363055 0)
(26.5447 0.553263 0)
(25.5771 0.847165 0)
(24.1114 1.39166 0)
(22.3941 2.27169 0)
(19.4904 4.28618 0)
(15.5216 6.56825 0)
(8.35384 12.2248 0)
(29.9994 0.00112126 0)
(29.9846 0.00327367 0)
(29.958 0.00413699 0)
(29.9185 0.00672245 0)
(29.8601 0.011465 0)
(29.7884 0.0164702 0)
(29.7008 0.0216784 0)
(29.5881 0.0313219 0)
(29.445 0.0438301 0)
(29.2726 0.0621273 0)
(29.0431 0.0872585 0)
(28.7455 0.125209 0)
(28.3807 0.180075 0)
(27.9128 0.257521 0)
(27.3338 0.376606 0)
(26.5448 0.572775 0)
(25.5791 0.877641 0)
(24.1172 1.43621 0)
(22.4198 2.34451 0)
(19.5455 4.40875 0)
(15.7226 6.7895 0)
(8.52997 12.7533 0)
(29.9995 0.0011583 0)
(29.984 0.00338205 0)
(29.9574 0.00428757 0)
(29.9203 0.00696159 0)
(29.8609 0.0118661 0)
(29.7878 0.0170381 0)
(29.7008 0.0224429 0)
(29.5883 0.0324219 0)
(29.4454 0.0454433 0)
(29.2723 0.0643066 0)
(29.0416 0.0904805 0)
(28.7439 0.129805 0)
(28.3791 0.186582 0)
(27.9112 0.26671 0)
(27.3328 0.390138 0)
(26.5452 0.592246 0)
(25.5815 0.908039 0)
(24.124 1.48042 0)
(22.4461 2.41654 0)
(19.6029 4.52803 0)
(15.934 7.00835 0)
(8.71336 13.2905 0)
(29.9994 0.00119515 0)
(29.9848 0.00348991 0)
(29.9581 0.00443873 0)
(29.9184 0.0072006 0)
(29.8601 0.0122666 0)
(29.7885 0.0176065 0)
(29.7009 0.0232083 0)
(29.5882 0.0335222 0)
(29.4455 0.0470613 0)
(29.272 0.0664969 0)
(29.0402 0.0937246 0)
(28.7424 0.134403 0)
(28.3775 0.193088 0)
(27.9098 0.275894 0)
(27.332 0.403647 0)
(26.5458 0.611674 0)
(25.5845 0.938354 0)
(24.1317 1.52428 0)
(22.4731 2.48776 0)
(19.6621 4.64384 0)
(16.1564 7.2247 0)
(8.90438 13.8369 0)
(29.9995 0.00123185 0)
(29.9841 0.00359745 0)
(29.9574 0.0045904 0)
(29.9203 0.00744033 0)
(29.8609 0.0126672 0)
(29.788 0.0181729 0)
(29.701 0.0239737 0)
(29.5884 0.0346217 0)
(29.4459 0.0486879 0)
(29.2716 0.0686818 0)
(29.0388 0.0969837 0)
(28.7409 0.139002 0)
(28.376 0.199594 0)
(27.9084 0.28507 0)
(27.3313 0.417135 0)
(26.5466 0.631057 0)
(25.5879 0.968576 0)
(24.1402 1.5678 0)
(22.5006 2.55816 0)
(19.723 4.75598 0)
(16.3897 7.43844 0)
(9.10339 14.3928 0)
(29.9993 0.00126837 0)
(29.9849 0.00370457 0)
(29.9581 0.00474273 0)
(29.9183 0.00767965 0)
(29.8601 0.0130668 0)
(29.7887 0.01874 0)
(29.7011 0.0247401 0)
(29.5883 0.0357207 0)
(29.446 0.0503215 0)
(29.2711 0.070865 0)
(29.0375 0.100253 0)
(28.7395 0.143603 0)
(28.3746 0.206098 0)
(27.9072 0.294238 0)
(27.3308 0.430599 0)
(26.5475 0.650393 0)
(25.5917 0.998697 0)
(24.1497 1.61097 0)
(22.5287 2.62773 0)
(19.7854 4.86424 0)
(16.6339 7.64946 0)
(9.31074 14.9587 0)
(29.9994 0.00130476 0)
(29.9842 0.00381143 0)
(29.9575 0.00489547 0)
(29.9203 0.00791966 0)
(29.861 0.0134668 0)
(29.7881 0.0193051 0)
(29.7012 0.0255063 0)
(29.5885 0.036819 0)
(29.4465 0.0519611 0)
(29.2704 0.073047 0)
(29.0362 0.103531 0)
(28.7381 0.148204 0)
(28.3732 0.212602 0)
(27.906 0.303397 0)
(27.3303 0.444041 0)
(26.5486 0.66968 0)
(25.5958 1.02871 0)
(24.16 1.65379 0)
(22.5573 2.69646 0)
(19.8489 4.96845 0)
(16.8885 7.85763 0)
(9.52671 15.535 0)
(29.9993 0.00134098 0)
(29.9851 0.00391799 0)
(29.9581 0.00504885 0)
(29.9183 0.008159 0)
(29.8601 0.0138658 0)
(29.7889 0.0198711 0)
(29.7012 0.0262737 0)
(29.5884 0.0379134 0)
(29.4466 0.0536025 0)
(29.2697 0.075232 0)
(29.0349 0.106815 0)
(28.7368 0.152805 0)
(28.3719 0.219103 0)
(27.9048 0.312547 0)
(27.33 0.457458 0)
(26.5499 0.688913 0)
(25.6002 1.0586 0)
(24.1711 1.69626 0)
(22.5865 2.76434 0)
(19.9136 5.06842 0)
(17.1532 8.0628 0)
(9.7516 16.1221 0)
(29.9994 0.00137709 0)
(29.9843 0.00402425 0)
(29.9575 0.00520256 0)
(29.9204 0.00839917 0)
(29.861 0.0142653 0)
(29.7882 0.0204347 0)
(29.7013 0.0270425 0)
(29.5886 0.0390069 0)
(29.4471 0.0551893 0)
(29.2689 0.0774213 0)
(29.0336 0.110104 0)
(28.7356 0.157407 0)
(28.3706 0.225603 0)
(27.9038 0.321688 0)
(27.3297 0.470851 0)
(26.5513 0.708093 0)
(25.605 1.08836 0)
(24.183 1.73837 0)
(22.6163 2.83137 0)
(19.9795 5.16398 0)
(17.4278 8.26483 0)
(9.98563 16.7204 0)
(29.9993 0.00141305 0)
(29.9852 0.00413014 0)
(29.9582 0.00535672 0)
(29.9183 0.00863881 0)
(29.8601 0.014664 0)
(29.789 0.0210001 0)
(29.7014 0.0278086 0)
(29.5884 0.0401255 0)
(29.4475 0.0566665 0)
(29.268 0.079623 0)
(29.0324 0.113397 0)
(28.7343 0.16201 0)
(28.3693 0.232101 0)
(27.9027 0.330819 0)
(27.3296 0.48422 0)
(26.5527 0.727215 0)
(25.61 1.11798 0)
(24.1956 1.78012 0)
(22.6468 2.89754 0)
(20.0465 5.25498 0)
(17.7122 8.46356 0)
(10.229 17.3305 0)
(29.9994 0.00144891 0)
(29.9844 0.00423575 0)
(29.9575 0.00551118 0)
(29.9204 0.00887959 0)
(29.861 0.0150631 0)
(29.7883 0.0215621 0)
(29.7015 0.0285791 0)
(29.5886 0.0412283 0)
(29.4481 0.0583968 0)
(29.267 0.0818587 0)
(29.0311 0.116691 0)
(28.7331 0.166612 0)
(28.3681 0.238597 0)
(27.9018 0.33994 0)
(27.3295 0.497563 0)
(26.5544 0.746279 0)
(25.6152 1.14746 0)
(24.2089 1.82151 0)
(22.6781 2.96285 0)
(20.1145 5.34124 0)
(18.0065 8.65881 0)
(10.4821 17.9526 0)
(29.9992 0.00148459 0)
(29.9853 0.00434082 0)
(29.9583 0.00566606 0)
(29.9182 0.00912041 0)
(29.86 0.0154622 0)
(29.7891 0.0221239 0)
(29.7016 0.0293489 0)
(29.5884 0.0423553 0)
(29.4484 0.0601482 0)
(29.2659 0.084132 0)
(29.0299 0.119988 0)
(28.7319 0.171214 0)
(28.367 0.245091 0)
(27.9009 0.349051 0)
(27.3296 0.51088 0)
(26.5561 0.765283 0)
(25.6207 1.17679 0)
(24.2228 1.86251 0)
(22.7104 3.02729 0)
(20.1835 5.42261 0)
(18.3109 8.85041 0)
(10.7449 18.5874 0)
(29.9994 0.00152021 0)
(29.9845 0.00444558 0)
(29.9576 0.00582076 0)
(29.9205 0.00936216 0)
(29.861 0.0158634 0)
(29.7884 0.022686 0)
(29.7017 0.030104 0)
(29.5886 0.0435063 0)
(29.4484 0.0616962 0)
(29.2649 0.086428 0)
(29.0287 0.123286 0)
(28.7308 0.175815 0)
(28.3658 0.251582 0)
(27.9001 0.358151 0)
(27.3297 0.524171 0)
(26.558 0.784226 0)
(25.6264 1.20597 0)
(24.2371 1.90313 0)
(22.7439 3.09086 0)
(20.2528 5.49891 0)
(18.6254 9.03818 0)
(11.0178 19.2351 0)
(29.9992 0.00155571 0)
(29.9854 0.00455073 0)
(29.9583 0.00597585 0)
(29.9183 0.00959951 0)
(29.8601 0.0162646 0)
(29.7891 0.0232536 0)
(29.7018 0.0308852 0)
(29.5882 0.0445063 0)
(29.4483 0.0631802 0)
(29.2638 0.0887355 0)
(29.0275 0.126585 0)
(28.7296 0.180416 0)
(28.3647 0.258073 0)
(27.8993 0.367238 0)
(27.3299 0.537435 0)
(26.56 0.803105 0)
(25.6322 1.23498 0)
(24.2518 1.94334 0)
(22.7786 3.15356 0)
(20.3218 5.56999 0)
(18.9491 9.22197 0)
(11.301 19.8962 0)
(29.9993 0.0015909 0)
(29.9846 0.00465538 0)
(29.9577 0.00613451 0)
(29.9203 0.00983665 0)
(29.8609 0.0166536 0)
(29.7886 0.0238238 0)
(29.7019 0.0316834 0)
(29.5886 0.0456264 0)
(29.4482 0.0646982 0)
(29.2628 0.0910496 0)
(29.0263 0.129884 0)
(28.7285 0.185016 0)
(28.3636 0.264559 0)
(27.8986 0.376313 0)
(27.3303 0.55067 0)
(26.5622 0.821919 0)
(25.6383 1.26383 0)
(24.2669 1.98314 0)
(22.815 3.21542 0)
(20.3895 5.63571 0)
(19.2786 9.40173 0)
(11.5947 20.572 0)
(29.9992 0.00162574 0)
(29.9855 0.00475688 0)
(29.9584 0.00629792 0)
(29.9181 0.0100935 0)
(29.86 0.0170229 0)
(29.7893 0.0243759 0)
(29.7016 0.0324914 0)
(29.5897 0.04692 0)
(29.4481 0.0662635 0)
(29.2618 0.0933701 0)
(29.0252 0.133181 0)
(28.7274 0.189612 0)
(28.3626 0.271043 0)
(27.8979 0.385375 0)
(27.3307 0.563874 0)
(26.5645 0.840668 0)
(25.6445 1.29251 0)
(24.2821 2.0225 0)
(22.8532 3.27648 0)
(20.455 5.69606 0)
(19.6065 9.57714 0)
(11.8984 21.2697 0)
(29.9994 0.00166237 0)
(29.9844 0.00485106 0)
(29.9573 0.00644451 0)
(29.9209 0.0103875 0)
(29.8611 0.0174165 0)
(29.7886 0.0248878 0)
(29.7014 0.0332942 0)
(29.5905 0.0480888 0)
(29.4479 0.0678571 0)
(29.2608 0.0956994 0)
(29.024 0.136476 0)
(28.7263 0.194195 0)
(28.3616 0.277525 0)
(27.8973 0.394432 0)
(27.3313 0.577056 0)
(26.5671 0.859353 0)
(25.6509 1.32104 0)
(24.2974 2.06138 0)
(22.8934 3.33679 0)
(20.5182 5.7511 0)
(19.921 9.74614 0)
(12.2975 22.011 0)
(-2.22141 0.106848 0)
(-7.19741 0.078538 0)
(-9.28566 0.00975321 0)
(-7.91767 -0.0318091 0)
(-5.78444 -0.0268436 0)
(-4.79291 -0.011661 0)
(-4.31337 -0.00505258 0)
(-4.12673 -0.00400392 0)
(-3.75071 -0.00737124 0)
(-2.96003 -0.0105769 0)
(-1.888 -0.0114096 0)
(-0.685155 -0.013264 0)
(0.734277 -0.0148253 0)
(2.56558 -0.0178778 0)
(5.02744 -0.0202348 0)
(7.84555 -0.0192603 0)
(10.4535 -0.0158694 0)
(12.6506 -0.0133874 0)
(14.8104 -0.0122151 0)
(16.9863 -0.0103624 0)
(18.8624 -0.00764171 0)
(20.2636 -0.00531546 0)
(21.321 -0.00420257 0)
(22.3517 -0.00618384 0)
(24.6623 -0.00869549 0)
(27.4286 -0.00637994 0)
(28.6678 -0.00231213 0)
(28.9982 -0.000640988 0)
(29.1395 -0.000348704 0)
(29.2766 -0.000295934 0)
(29.395 -0.000236405 0)
(29.4981 -0.000175526 0)
(29.5727 -0.000128693 0)
(29.6397 -0.000100572 0)
(29.6921 -4.21852e-05 0)
(-2.22573 0.3189 0)
(-7.12513 0.232253 0)
(-9.14192 0.0263795 0)
(-7.72531 -0.0965575 0)
(-5.61631 -0.079899 0)
(-4.63951 -0.0346964 0)
(-4.14372 -0.0147523 0)
(-3.96497 -0.0109493 0)
(-3.64615 -0.0205276 0)
(-2.95515 -0.0305759 0)
(-1.91746 -0.0337819 0)
(-0.690458 -0.0392122 0)
(0.744216 -0.0434417 0)
(2.51238 -0.0524052 0)
(4.82532 -0.0597192 0)
(7.56281 -0.0572867 0)
(10.2182 -0.0472713 0)
(12.4613 -0.0393873 0)
(14.592 -0.0360989 0)
(16.7371 -0.0313281 0)
(18.6759 -0.0236016 0)
(20.1661 -0.0163722 0)
(21.2773 -0.0126756 0)
(22.3076 -0.0182956 0)
(24.5515 -0.0260304 0)
(27.3517 -0.0194377 0)
(28.6519 -0.00711952 0)
(29.0004 -0.00195639 0)
(29.1414 -0.00104173 0)
(29.277 -0.000884708 0)
(29.3952 -0.000709273 0)
(29.4985 -0.000527324 0)
(29.5733 -0.000386278 0)
(29.6402 -0.000301666 0)
(29.6927 -0.000126712 0)
(-2.21084 0.527829 0)
(-7.02015 0.382839 0)
(-8.96502 0.0417065 0)
(-7.49016 -0.16227 0)
(-5.39761 -0.132651 0)
(-4.43877 -0.0578793 0)
(-3.94729 -0.0245659 0)
(-3.80838 -0.0172297 0)
(-3.55653 -0.0319655 0)
(-2.93005 -0.0489476 0)
(-1.90264 -0.0555058 0)
(-0.642369 -0.0661612 0)
(0.792953 -0.0718124 0)
(2.48973 -0.0845179 0)
(4.67094 -0.0966315 0)
(7.32529 -0.094606 0)
(10.0101 -0.0788573 0)
(12.2951 -0.0652176 0)
(14.4048 -0.0592464 0)
(16.5205 -0.0521036 0)
(18.5086 -0.040094 0)
(20.0787 -0.0280615 0)
(21.2412 -0.0214193 0)
(22.2724 -0.0301763 0)
(24.4525 -0.0431903 0)
(27.28 -0.0327351 0)
(28.6369 -0.0121638 0)
(29.003 -0.00332736 0)
(29.1436 -0.0017306 0)
(29.2777 -0.00146895 0)
(29.3956 -0.00118176 0)
(29.4991 -0.000879788 0)
(29.574 -0.000643929 0)
(29.6407 -0.000502501 0)
(29.6932 -0.000211258 0)
(-2.18006 0.733821 0)
(-6.88949 0.529885 0)
(-8.75023 0.0541572 0)
(-7.19222 -0.22963 0)
(-5.1259 -0.18457 0)
(-4.19826 -0.0804319 0)
(-3.72582 -0.0334495 0)
(-3.63004 -0.0219675 0)
(-3.43484 -0.0418586 0)
(-2.85993 -0.0665491 0)
(-1.8476 -0.0777369 0)
(-0.551168 -0.0936843 0)
(0.8843 -0.0998205 0)
(2.51505 -0.115548 0)
(4.57646 -0.132619 0)
(7.13447 -0.132178 0)
(9.81981 -0.111559 0)
(12.1413 -0.0916982 0)
(14.2401 -0.0825242 0)
(16.332 -0.0731609 0)
(18.3593 -0.0572393 0)
(20.0006 -0.0403175 0)
(21.2123 -0.0303691 0)
(22.2459 -0.0418363 0)
(24.3651 -0.0602119 0)
(27.2132 -0.0463037 0)
(28.6229 -0.0174277 0)
(29.0058 -0.00474468 0)
(29.146 -0.00241472 0)
(29.2787 -0.00204902 0)
(29.3962 -0.00165402 0)
(29.4999 -0.00123293 0)
(29.5749 -0.000901534 0)
(29.6414 -0.00070296 0)
(29.6938 -0.00029572 0)
(-2.13471 0.935879 0)
(-6.73412 0.672511 0)
(-8.49207 0.0632027 0)
(-6.82822 -0.298395 0)
(-4.79989 -0.235153 0)
(-3.91412 -0.101921 0)
(-3.47486 -0.0413048 0)
(-3.4216 -0.0254636 0)
(-3.27348 -0.050533 0)
(-2.73964 -0.0833837 0)
(-1.74015 -0.100213 0)
(-0.39858 -0.121746 0)
(1.03481 -0.127489 0)
(2.60191 -0.145151 0)
(4.5556 -0.166865 0)
(7.00995 -0.168835 0)
(9.66188 -0.144533 0)
(12.0061 -0.118519 0)
(14.1 -0.105744 0)
(16.1734 -0.0942976 0)
(18.2299 -0.074865 0)
(19.9328 -0.0530868 0)
(21.1911 -0.0395367 0)
(22.2282 -0.0533 0)
(24.2888 -0.0770799 0)
(27.1514 -0.0600875 0)
(28.6098 -0.0228944 0)
(29.0088 -0.00620777 0)
(29.1487 -0.0030943 0)
(29.2799 -0.00262476 0)
(29.3971 -0.00212586 0)
(29.5009 -0.00158655 0)
(29.5759 -0.00115891 0)
(29.6423 -0.000902866 0)
(29.6945 -0.000379957 0)
(-2.07578 1.13294 0)
(-6.55452 0.81001 0)
(-8.1867 0.0681681 0)
(-6.40404 -0.368775 0)
(-4.42112 -0.284184 0)
(-3.58138 -0.122069 0)
(-3.18792 -0.047979 0)
(-3.17428 -0.0278685 0)
(-3.06474 -0.0582292 0)
(-2.56286 -0.0996343 0)
(-1.56617 -0.122988 0)
(-0.161848 -0.150363 0)
(1.26543 -0.154647 0)
(2.7672 -0.173239 0)
(4.62408 -0.199315 0)
(6.97541 -0.204061 0)
(9.56428 -0.177061 0)
(11.9083 -0.145351 0)
(13.9966 -0.128828 0)
(16.0526 -0.115431 0)
(18.1251 -0.0928517 0)
(19.8776 -0.0663015 0)
(21.1787 -0.048909 0)
(22.2194 -0.0645739 0)
(24.2231 -0.0937803 0)
(27.0943 -0.0740505 0)
(28.5977 -0.0285484 0)
(29.0122 -0.00771452 0)
(29.1517 -0.00376933 0)
(29.2814 -0.00319604 0)
(29.3981 -0.00259716 0)
(29.5022 -0.00194048 0)
(29.5771 -0.00141588 0)
(29.6432 -0.00110204 0)
(29.6952 -0.000463838 0)
(-2.0041 1.32413 0)
(-6.35102 0.941648 0)
(-7.83301 0.0684786 0)
(-5.93374 -0.440908 0)
(-3.99592 -0.331651 0)
(-3.19552 -0.140736 0)
(-2.8575 -0.0533598 0)
(-2.87942 -0.0293416 0)
(-2.80131 -0.0651533 0)
(-2.32312 -0.115555 0)
(-1.31302 -0.146482 0)
(0.177562 -0.179659 0)
(1.59731 -0.181263 0)
(3.03117 -0.199921 0)
(4.80131 -0.230194 0)
(7.05624 -0.237843 0)
(9.56248 -0.208728 0)
(11.8794 -0.171903 0)
(13.9518 -0.151694 0)
(15.9833 -0.136465 0)
(18.0533 -0.111056 0)
(19.8394 -0.0798779 0)
(21.1774 -0.0584634 0)
(22.2207 -0.0756595 0)
(24.1676 -0.110298 0)
(27.0422 -0.0881631 0)
(28.5866 -0.0343757 0)
(29.0159 -0.00926289 0)
(29.155 -0.00443978 0)
(29.2832 -0.00376275 0)
(29.3994 -0.00306776 0)
(29.5036 -0.00229456 0)
(29.5785 -0.00167227 0)
(29.6443 -0.0013003 0)
(29.6959 -0.000547232 0)
(-1.9203 1.50862 0)
(-6.12418 1.06667 0)
(-7.43331 0.0638504 0)
(-5.43497 -0.514681 0)
(-3.53679 -0.377832 0)
(-2.75648 -0.158025 0)
(-2.47706 -0.057406 0)
(-2.52971 -0.0300317 0)
(-2.47752 -0.0714774 0)
(-2.01578 -0.131432 0)
(-0.974465 -0.171144 0)
(0.618424 -0.209857 0)
(2.03985 -0.207419 0)
(3.41303 -0.225392 0)
(5.11162 -0.259802 0)
(7.28484 -0.270406 0)
(9.69986 -0.239432 0)
(11.9633 -0.197924 0)
(14.0004 -0.174174 0)
(15.9889 -0.157219 0)
(18.0281 -0.129276 0)
(19.8255 -0.0936996 0)
(21.1906 -0.0681612 0)
(22.2335 -0.0865481 0)
(24.1221 -0.126615 0)
(26.9949 -0.102397 0)
(28.5765 -0.0403627 0)
(29.0199 -0.0108508 0)
(29.1585 -0.00510562 0)
(29.2852 -0.00432479 0)
(29.401 -0.00353755 0)
(29.5053 -0.00264863 0)
(29.58 -0.00192789 0)
(29.6455 -0.00149747 0)
(29.6967 -0.00063001 0)
(-1.82496 1.68561 0)
(-5.8748 1.18439 0)
(-6.99278 0.0543261 0)
(-4.92241 -0.589758 0)
(-3.06017 -0.423218 0)
(-2.27247 -0.174356 0)
(-2.0438 -0.0602215 0)
(-2.1211 -0.0300764 0)
(-2.09133 -0.0773341 0)
(-1.6408 -0.147539 0)
(-0.555013 -0.197393 0)
(1.13174 -0.240952 0)
(2.57447 -0.233332 0)
(3.91541 -0.249981 0)
(5.57287 -0.288508 0)
(7.69604 -0.302058 0)
(10.0289 -0.269293 0)
(12.2199 -0.223301 0)
(14.1956 -0.196057 0)
(16.1069 -0.177408 0)
(18.072 -0.147225 0)
(19.8474 -0.107594 0)
(21.224 -0.077935 0)
(22.2604 -0.0972142 0)
(24.0866 -0.142703 0)
(26.9525 -0.116725 0)
(28.5676 -0.0464956 0)
(29.0241 -0.0124758 0)
(29.1624 -0.00576682 0)
(29.2876 -0.00488208 0)
(29.4028 -0.00400639 0)
(29.5072 -0.0030025 0)
(29.5816 -0.00218255 0)
(29.6468 -0.00169337 0)
(29.6975 -0.000712041 0)
(-1.71855 1.8543 0)
(-5.60404 1.29422 0)
(-6.51791 0.0401737 0)
(-4.40399 -0.665635 0)
(-2.58147 -0.468278 0)
(-1.76086 -0.19041 0)
(-1.56159 -0.0621284 0)
(-1.65492 -0.0296058 0)
(-1.64586 -0.0827997 0)
(-1.20387 -0.164003 0)
(-0.0716346 -0.225106 0)
(1.6785 -0.272906 0)
(3.1586 -0.259431 0)
(4.5102 -0.274286 0)
(6.17312 -0.316864 0)
(8.29733 -0.333184 0)
(10.5868 -0.298496 0)
(12.7099 -0.248014 0)
(14.6054 -0.217124 0)
(16.3948 -0.196637 0)
(18.2206 -0.16448 0)
(19.9231 -0.1213 0)
(21.2858 -0.0876721 0)
(22.3051 -0.107608 0)
(24.0615 -0.158526 0)
(26.9151 -0.131118 0)
(28.5599 -0.0527606 0)
(29.0287 -0.0141356 0)
(29.1665 -0.00642339 0)
(29.2903 -0.00543453 0)
(29.4049 -0.00447413 0)
(29.5094 -0.00335599 0)
(29.5834 -0.00243605 0)
(29.6483 -0.00188782 0)
(29.6984 -0.000793193 0)
(-1.60156 2.01396 0)
(-5.31306 1.39575 0)
(-6.01429 0.0217348 0)
(-3.88184 -0.741683 0)
(-2.11068 -0.51321 0)
(-1.24384 -0.206933 0)
(-1.04275 -0.0636842 0)
(-1.13959 -0.0287701 0)
(-1.1499 -0.0879018 0)
(-0.715564 -0.180813 0)
(0.454083 -0.253948 0)
(2.23266 -0.305482 0)
(3.75336 -0.286121 0)