/*--------------------------------*- C++ -*----------------------------------*\
| =========                 |                                                 |
| \\      /  F ield         | OpenFOAM: The Open Source CFD Toolbox           |
|  \\    /   O peration     | Version:  v1912                                 |
|   \\  /    A nd           | Website:  www.openfoam.com                      |
|    \\/     M anipulation  |                                                 |
\*---------------------------------------------------------------------------*/
FoamFile
{
    version     2.0;
    format      ascii;
    class       volScalarField;
    location    "140";
    object      yPlus;
}
// * * * * * * * * * * * * * * * * * * * * * * * * * * * * * * * * * * * * * //

dimensions      [0 0 0 0 0 0 0];


internalField   uniform 0;

boundaryField
{
    inlet
    {
        type            calculated;
        value           uniform 0;
    }
    outlet
    {
        type            calculated;
        value           uniform 0;
    }
    lowerSymmetry
    {
        type            symmetryPlane;
    }
    obstical
    {
        type            calculated;
        value           nonuniform List<scalar> 
88
(
499.013
500.999
505.157
511.573
520.18
530.881
543.574
558.158
574.532
592.594
612.246
633.39
655.926
679.756
704.781
730.908
758.051
786.133
815.087
844.859
875.405
906.689
938.688
971.386
1004.77
1038.85
1073.63
1109.11
1145.31
1182.26
1219.97
1258.47
1297.77
1337.91
1378.9
1420.77
1463.53
1507.22
1551.85
1597.44
1644.03
1691.67
1740.76
1795.2
197.564
199.473
201.381
203.503
205.88
208.516
211.397
214.49
217.753
221.137
224.593
228.075
231.536
234.938
238.243
241.416
244.427
247.254
249.889
252.346
254.659
256.885
259.042
261.039
262.894
264.566
266.003
267.17
268.04
268.623
268.977
269.253
269.656
270.371
271.38
272.284
272.18
269.733
263.37
251.528
232.793
205.962
170.009
124.126
)
;
    }
    obsticalTop
    {
        type            calculated;
        value           nonuniform List<scalar> 
20
(
52.946
37.7712
46.4345
52.7298
55.6945
57.4264
58.1109
57.9018
57.0472
55.6852
53.8012
51.2975
48.092
44.0204
39.0512
32.5763
26.3872
17.3105
15.1841
9.69872
)
;
    }
    top
    {
        type            calculated;
        value           uniform 0;
    }
    defaultFaces
    {
        type            empty;
    }
}


// ************************************************************************* //
