/*--------------------------------*- C++ -*----------------------------------*\
| =========                 |                                                 |
| \\      /  F ield         | OpenFOAM: The Open Source CFD Toolbox           |
|  \\    /   O peration     | Version:  v1912                                 |
|   \\  /    A nd           | Website:  www.openfoam.com                      |
|    \\/     M anipulation  |                                                 |
\*---------------------------------------------------------------------------*/
FoamFile
{
    version     2.0;
    format      ascii;
    class       volScalarField;
    location    "200";
    object      p;
}
// * * * * * * * * * * * * * * * * * * * * * * * * * * * * * * * * * * * * * //

dimensions      [0 2 -2 0 0 0 0];


internalField   nonuniform List<scalar> 
2000
(
-0.0370389
0.0803722
0.134952
0.128062
0.112234
0.105926
0.105318
0.106666
0.106883
0.106653
0.106786
0.106475
0.106227
0.106172
0.106226
0.106182
0.106006
0.105869
0.10577
0.105695
0.105559
0.105326
0.105015
0.104692
0.104424
0.104212
0.104019
0.103745
0.103377
0.102962
0.102568
0.102287
0.102222
0.102456
0.103025
0.103991
0.105224
0.106609
0.107994
0.109199
0.110055
0.110453
0.109946
0.108606
0.106428
0.103386
0.0995389
0.095091
0.0903358
0.0856209
0.0813079
0.077695
0.0749691
0.0731334
0.0719598
0.0710001
0.069773
0.0685588
0.0690257
0.0728858
0.0823881
0.0968756
0.114558
0.133361
0.151477
0.16772
0.181453
0.192391
0.200399
0.205468
0.207654
0.206949
0.203282
0.196343
0.185509
0.170053
0.148623
0.120714
0.0804025
0.0398026
0.0162052
0.101382
0.1402
0.127005
0.109264
0.105064
0.108596
0.111024
0.108271
0.105049
0.104616
0.105912
0.10637
0.106239
0.106408
0.106218
0.105972
0.105752
0.105649
0.105592
0.105506
0.105289
0.104985
0.104689
0.104443
0.104245
0.104056
0.103856
0.10348
0.102953
0.102355
0.101818
0.101502
0.101567
0.102092
0.103133
0.104616
0.106408
0.108314
0.110092
0.111473
0.112159
0.112194
0.111212
0.108985
0.10544
0.100603
0.0946804
0.0881117
0.0815099
0.0755108
0.07061
0.0669647
0.0642491
0.0617652
0.0588285
0.0549715
0.0516874
0.0541961
0.0647453
0.0798176
0.0973178
0.11626
0.13512
0.15277
0.168271
0.181076
0.190962
0.197866
0.201789
0.202707
0.200573
0.195323
0.186661
0.17399
0.156607
0.133306
0.103905
0.0640578
0.028518
0.0672698
0.101068
0.12376
0.122203
0.113004
0.108826
0.108859
0.108217
0.106313
0.105662
0.107285
0.108847
0.107795
0.105299
0.104393
0.105245
0.10609
0.106167
0.105805
0.105449
0.105144
0.104897
0.104788
0.104756
0.104771
0.104811
0.104787
0.104539
0.104115
0.103272
0.102114
0.100858
0.0998036
0.0992866
0.0995599
0.100705
0.102737
0.105589
0.108954
0.112395
0.115407
0.117521
0.118532
0.117924
0.115282
0.110383
0.103244
0.0942488
0.084213
0.0743138
0.0658864
0.0598275
0.0562629
0.0548645
0.0545071
0.0548046
0.055751
0.0580337
0.062828
0.0721513
0.0855068
0.101626
0.11898
0.136096
0.151925
0.165714
0.176967
0.185423
0.190986
0.193639
0.193379
0.190173
0.183904
0.174298
0.160871
0.14309
0.120075
0.0920478
0.0558892
0.0249159
0.0922548
0.102269
0.114818
0.118897
0.116203
0.113181
0.111518
0.109787
0.10817
0.107372
0.107193
0.107071
0.106712
0.106029
0.105531
0.106432
0.107501
0.106562
0.105045
0.104251
0.103957
0.104192
0.104568
0.104964
0.105414
0.105894
0.106264
0.106306
0.10566
0.104255
0.102108
0.0995112
0.0969905
0.0952603
0.0951036
0.0959713
0.0988094
0.103559
0.109532
0.115857
0.121638
0.126017
0.128083
0.127935
0.12449
0.117482
0.10711
0.0941528
0.0799983
0.0662862
0.0552164
0.0480419
0.0443945
0.0445659
0.0474645
0.0516443
0.0565124
0.0620899
0.0691623
0.0789624
0.0916421
0.106267
0.121565
0.136446
0.150101
0.161917
0.171444
0.178414
0.182705
0.184276
0.183097
0.179102
0.172147
0.161993
0.14827
0.130607
0.1084
0.0820425
0.0493312
0.0212204
0.104594
0.108194
0.115713
0.119682
0.118551
0.11622
0.114837
0.113797
0.112497
0.111052
0.1097
0.108602
0.107874
0.107039
0.106059
0.106021
0.106471
0.106525
0.105996
0.105052
0.104349
0.104133
0.104359
0.104912
0.105693
0.106602
0.107443
0.107884
0.107373
0.105506
0.102242
0.0980158
0.0936397
0.0901454
0.0884988
0.0895553
0.0937604
0.100696
0.109436
0.11875
0.127314
0.133909
0.137749
0.137598
0.133303
0.124464
0.111398
0.0951955
0.0776626
0.0610542
0.0477884
0.03941
0.0369961
0.0385623
0.043291
0.0498905
0.0573689
0.0654372
0.0744245
0.0848835
0.0969231
0.110003
0.123298
0.136029
0.147571
0.157443
0.165288
0.170874
0.174069
0.174797
0.172986
0.168534
0.161287
0.151032
0.137476
0.120363
0.0992618
0.0746417
0.044804
0.0189319
0.113034
0.114867
0.11882
0.120989
0.120171
0.11856
0.117597
0.116919
0.115958
0.114765
0.113633
0.112634
0.111608
0.110265
0.108854
0.108077
0.107839
0.107513
0.106589
0.105269
0.104332
0.104055
0.104326
0.104931
0.105841
0.107103
0.108478
0.109306
0.108742
0.106291
0.10203
0.0966136
0.0910691
0.0866465
0.0845143
0.0863336
0.0915033
0.0997566
0.11008
0.121082
0.131239
0.139058
0.143345
0.143109
0.137971
0.128206
0.114297
0.0975157
0.0798207
0.0634155
0.0506287
0.0427309
0.0404388
0.042573
0.0479473
0.0552429
0.0634213
0.0720569
0.0812189
0.0911565
0.101935
0.113254
0.124574
0.135328
0.145026
0.153284
0.159805
0.164365
0.166806
0.167009
0.164859
0.160224
0.152939
0.142803
0.129569
0.113044
0.0928948
0.0696181
0.0417251
0.01752
0.119844
0.120666
0.121902
0.122238
0.121448
0.120459
0.119795
0.119251
0.118579
0.117817
0.117084
0.116349
0.115467
0.114328
0.113115
0.112185
0.111542
0.110734
0.109456
0.108016
0.106967
0.106509
0.106537
0.106903
0.107577
0.108505
0.109382
0.109658
0.108722
0.106168
0.10202
0.0968698
0.0917411
0.0879169
0.0866373
0.0888341
0.09428
0.102456
0.112339
0.122607
0.131926
0.139071
0.143027
0.143038
0.138703
0.129598
0.116133
0.0998927
0.0831654
0.0681594
0.0567385
0.0501088
0.0484161
0.0506991
0.055752
0.0624832
0.0700913
0.0782047
0.0867862
0.0959144
0.10557
0.115522
0.125375
0.134689
0.143069
0.150186
0.15577
0.159606
0.161519
0.161364
0.159001
0.154279
0.147021
0.137031
0.124085
0.108025
0.0885701
0.0662325
0.0396066
0.0166377
0.12572
0.125665
0.124748
0.123536
0.12271
0.122188
0.121706
0.121229
0.120779
0.120332
0.119867
0.11935
0.118723
0.117943
0.117082
0.116305
0.115631
0.114812
0.113696
0.112487
0.111521
0.110958
0.110765
0.110865
0.111208
0.111689
0.112038
0.111828
0.110596
0.10805
0.104291
0.099891
0.0957896
0.0931031
0.092747
0.0952494
0.100464
0.10782
0.116427
0.125173
0.132931
0.138658
0.141469
0.140753
0.136184
0.127747
0.116339
0.103104
0.0894927
0.0774002
0.068206
0.0626658
0.0608076
0.0620534
0.0656175
0.0707927
0.0770417
0.0840573
0.0917131
0.0999438
0.108628
0.117526
0.126298
0.134571
0.141997
0.14828
0.153171
0.15646
0.15797
0.15754
0.155016
0.150231
0.142999
0.133122
0.120386
0.104652
0.0856742
0.0639685
0.0381919
0.0160428
0.131124
0.130133
0.127167
0.124621
0.123862
0.123768
0.123427
0.123012
0.122737
0.122507
0.122222
0.121873
0.121452
0.12093
0.120331
0.11975
0.119207
0.118564
0.117725
0.116808
0.116033
0.115538
0.115324
0.115335
0.115503
0.115715
0.115754
0.115306
0.114051
0.111827
0.108777
0.105387
0.102383
0.100571
0.100635
0.102914
0.107266
0.113237
0.12013
0.127081
0.133206
0.137696
0.139887
0.139322
0.135759
0.129227
0.120251
0.109702
0.0987201
0.0886309
0.0804943
0.0749528
0.0721847
0.0719701
0.0738949
0.0775348
0.0825182
0.0885599
0.0954508
0.103007
0.111015
0.1192
0.127236
0.134786
0.141535
0.147212
0.151586
0.154457
0.15565
0.155001
0.152346
0.147508
0.140291
0.13049
0.117895
0.102379
0.0837197
0.0624354
0.037244
0.0155843
0.136353
0.134165
0.128968
0.125322
0.124853
0.125175
0.124939
0.124607
0.124511
0.124465
0.124324
0.124107
0.12383
0.123471
0.123044
0.122613
0.122198
0.121708
0.12108
0.120393
0.119809
0.119439
0.119288
0.1193
0.119405
0.119496
0.1194
0.118889
0.117751
0.115904
0.113484
0.110871
0.108604
0.107275
0.107453
0.109375
0.112941
0.117807
0.123428
0.129121
0.134173
0.137919
0.139803
0.139425
0.136578
0.131313
0.124008
0.11533
0.106134
0.0973854
0.0899253
0.0843269
0.080863
0.0795472
0.0802336
0.0827104
0.0867311
0.0920348
0.0983595
0.105437
0.112981
0.12068
0.128208
0.135245
0.141502
0.146727
0.150705
0.153249
0.15419
0.153366
0.150606
0.145725
0.138515
0.128764
0.116259
0.100883
0.0824306
0.0614257
0.0366277
0.0152287
0.141591
0.137741
0.130046
0.125652
0.125739
0.126425
0.126245
0.126022
0.126113
0.126234
0.126224
0.126124
0.125965
0.12573
0.125427
0.125105
0.124779
0.124392
0.123903
0.123375
0.122931
0.122658
0.122558
0.122582
0.122661
0.122698
0.122551
0.122047
0.121038
0.11948
0.117496
0.115388
0.113583
0.112565
0.112773
0.114404
0.117397
0.121482
0.126222
0.131057
0.135387
0.138645
0.140353
0.140167
0.137911
0.133616
0.127552
0.120214
0.112261
0.104427
0.09739
0.0916766
0.0876299
0.0854298
0.0851288
0.086682
0.0899465
0.0946879
0.100607
0.107365
0.114613
0.121999
0.129187
0.135865
0.141762
0.146645
0.150316
0.152601
0.153341
0.152376
0.149534
0.144621
0.137417
0.127698
0.115247
0.0999583
0.0816362
0.0608186
0.0362538
0.0149884
0.146958
0.140788
0.130371
0.125708
0.12657
0.127527
0.127369
0.127282
0.127556
0.12782
0.127927
0.127938
0.127888
0.127762
0.127565
0.127333
0.127082
0.126774
0.126386
0.125969
0.125622
0.125412
0.125344
0.125373
0.125436
0.125443
0.125276
0.124796
0.123892
0.122541
0.120852
0.11908
0.117581
0.116755
0.116951
0.11835
0.120921
0.124451
0.12858
0.132839
0.136708
0.139685
0.141342
0.141361
0.139572
0.13598
0.130787
0.124381
0.11728
0.110069
0.103312
0.0974863
0.092972
0.0900588
0.0889518
0.0897503
0.0924086
0.0967225
0.102361
0.108925
0.116
0.123194
0.130156
0.136582
0.142213
0.146834
0.150264
0.152343
0.152922
0.151848
0.148946
0.144014
0.136819
0.127123
0.114707
0.0994762
0.0812386
0.0605551
0.0360835
0.014905
0.15253
0.143201
0.129979
0.125612
0.12737
0.12848
0.128338
0.128415
0.128856
0.12924
0.129449
0.129562
0.129611
0.129582
0.129479
0.12933
0.12915
0.128915
0.12861
0.128282
0.128009
0.127848
0.127804
0.127838
0.127891
0.127884
0.127713
0.127263
0.126447
0.125255
0.123781
0.122246
0.120955
0.12024
0.120398
0.121598
0.123836
0.126947
0.130631
0.134484
0.138044
0.140856
0.142521
0.142736
0.141333
0.138296
0.133778
0.128084
0.121631
0.114889
0.108327
0.102375
0.0974291
0.0938671
0.0920295
0.0921544
0.0942924
0.0982686
0.10372
0.110181
0.117175
0.124267
0.13109
0.137341
0.142776
0.147196
0.150436
0.152351
0.152802
0.151642
0.148699
0.143761
0.136582
0.126913
0.114526
0.0993435
0.0811695
0.0605957
0.0361025
0.0150135
0.158348
0.144862
0.128965
0.125479
0.128135
0.129287
0.129183
0.129441
0.130029
0.13051
0.130811
0.131015
0.131151
0.131206
0.131186
0.131113
0.131
0.130831
0.1306
0.130346
0.130137
0.130019
0.129998
0.130041
0.130093
0.130083
0.12992
0.129506
0.128771
0.127708
0.1264
0.125039
0.123885
0.123227
0.123326
0.124346
0.126305
0.129082
0.132426
0.135984
0.139339
0.142067
0.143787
0.144204
0.143143
0.140569
0.136593
0.131459
0.125503
0.11911
0.112668
0.10656
0.10119
0.09701
0.0944873
0.093997
0.0956844
0.099399
0.104739
0.111171
0.118152
0.125205
0.131948
0.13808
0.14337
0.147635
0.150726
0.152509
0.15286
0.151637
0.148669
0.14374
0.136589
0.126956
0.114608
0.0994781
0.0813649
0.0608969
0.036302
0.0152821
0.164422
0.145665
0.127478
0.1254
0.128849
0.12996
0.129933
0.130374
0.131084
0.131648
0.132031
0.132316
0.132529
0.132658
0.13271
0.132704
0.132651
0.132542
0.132375
0.132185
0.13203
0.131952
0.131953
0.132007
0.132065
0.132061
0.131914
0.13154
0.130879
0.129925
0.128749
0.127515
0.126453
0.125818
0.125845
0.126698
0.128418
0.13092
0.133999
0.137342
0.140565
0.143265
0.145072
0.145689
0.144933
0.14275
0.139219
0.134534
0.128972
0.122844
0.116468
0.11018
0.104385
0.0996043
0.0964327
0.095379
0.096677
0.100191
0.105475
0.111923
0.118931
0.125983
0.132683
0.138734
0.143918
0.148065
0.15104
0.152723
0.152999
0.151733
0.148758
0.143851
0.136742
0.12716
0.114864
0.099801
0.081755
0.061402
0.0366641
0.015784
0.170729
0.145532
0.125693
0.125424
0.129486
0.130519
0.130611
0.131226
0.132034
0.132669
0.133127
0.133484
0.133763
0.133958
0.134073
0.134127
0.134128
0.134071
0.13396
0.133825
0.133717
0.133672
0.133696
0.133762
0.133829
0.133836
0.13371
0.133377
0.132783
0.131922
0.130851
0.129714
0.128713
0.128077
0.128026
0.128723
0.130233
0.132505
0.135372
0.138557
0.1417
0.144411
0.146323
0.147132
0.146647
0.144797
0.141633
0.13731
0.132053
0.126115
0.11975
0.113254
0.107037
0.101692
0.0979329
0.0963874
0.0973612
0.100723
0.105981
0.112463
0.119511
0.126577
0.133253
0.139249
0.144357
0.148418
0.151309
0.152921
0.153147
0.15186
0.148893
0.144022
0.136968
0.12745
0.115222
0.100238
0.0822682
0.0620463
0.0371247
0.0164313
0.177219
0.144453
0.123789
0.125561
0.130028
0.130988
0.131232
0.132
0.132888
0.133586
0.134111
0.134532
0.13487
0.135122
0.135293
0.135399
0.135448
0.135438
0.135375
0.135288
0.13522
0.135204
0.135247
0.135326
0.135403
0.135423
0.13532
0.135026
0.134491
0.133708
0.132721
0.131658
0.130695
0.13004
0.129904
0.130454
0.131776
0.133853
0.13655
0.139618
0.142716
0.145459
0.147483
0.148468
0.148216
0.146638
0.143762
0.139712
0.134671
0.128844
0.12244
0.115727
0.109132
0.103309
0.0990665
0.0971248
0.0978407
0.101082
0.106318
0.112825
0.119904
0.126982
0.133643
0.139601
0.144657
0.14866
0.151497
0.153066
0.153266
0.151977
0.149032
0.144209
0.137219
0.127775
0.115624
0.100729
0.0828407
0.0627661
0.0376992
0.0171659
0.183807
0.14245
0.121927
0.125794
0.130467
0.13139
0.131804
0.132701
0.133652
0.134406
0.13499
0.135467
0.135856
0.136156
0.136375
0.136526
0.136617
0.136647
0.136624
0.136575
0.13654
0.136548
0.136606
0.136695
0.136781
0.136813
0.136729
0.136468
0.135982
0.13526
0.134335
0.133321
0.132372
0.131684
0.13146
0.131873
0.133033
0.134948
0.137512
0.140496
0.143572
0.146354
0.148475
0.149607
0.149538
0.148163
0.145492
0.141624
0.136713
0.130931
0.124465
0.117568
0.110684
0.104509
0.0999145
0.0976806
0.0981984
0.101336
0.106539
0.113048
0.120137
0.127217
0.133865
0.139799
0.144822
0.148793
0.151601
0.153151
0.153346
0.152071
0.14916
0.14439
0.137468
0.128101
0.11603
0.101227
0.0834244
0.0634939
0.0383201
0.0179417
0.190401
0.13962
0.120219
0.126078
0.130806
0.131741
0.132326
0.133322
0.13432
0.135119
0.135751
0.136271
0.136699
0.137037
0.137293
0.137478
0.137601
0.137661
0.137668
0.137648
0.137637
0.137661
0.137728
0.137822
0.137912
0.137951
0.13788
0.137641
0.137194
0.136501
0.135617
0.134626
0.133673
0.132944
0.132639
0.13294
0.133972
0.135765
0.138233
0.14116
0.144226
0.14705
0.149238
0.150475
0.15053
0.149291
0.146747
0.142984
0.138138
0.132368
0.125847
0.118827
0.11176
0.105365
0.100545
0.098113
0.098482
0.101525
0.10668
0.113168
0.120248
0.127319
0.133954
0.139873
0.144879
0.148836
0.151635
0.153185
0.153391
0.152142
0.149271
0.144556
0.137701
0.128409
0.116416
0.101704
0.0839887
0.0642159
0.0389528
0.0187232
0.196909
0.136094
0.118733
0.126366
0.131051
0.132037
0.13277
0.133832
0.134859
0.135689
0.136352
0.1369
0.137353
0.137716
0.137994
0.138202
0.138345
0.138424
0.13845
0.138447
0.138449
0.138481
0.138551
0.138646
0.138736
0.138776
0.138711
0.138483
0.138046
0.137375
0.13651
0.135525
0.13456
0.133795
0.13343
0.133654
0.134601
0.136315
0.138721
0.141611
0.144671
0.147517
0.149752
0.151056
0.151187
0.150026
0.147554
0.143845
0.13903
0.13326
0.126706
0.119623
0.112463
0.105954
0.101007
0.0984503
0.09871
0.101668
0.106766
0.113216
0.120273
0.127328
0.13395
0.139859
0.14486
0.148816
0.151621
0.153184
0.153412
0.152195
0.149368
0.144706
0.137913
0.128689
0.116771
0.102146
0.0845153
0.0648983
0.0395771
0.0194841
0.203255
0.132031
0.117511
0.126619
0.131212
0.132259
0.133098
0.134194
0.135233
0.136078
0.136757
0.137319
0.137786
0.138161
0.138452
0.138672
0.138825
0.138914
0.13895
0.138956
0.138964
0.138999
0.13907
0.139163
0.13925
0.139289
0.139225
0.139001
0.138566
0.137905
0.137044
0.136059
0.135083
0.134296
0.133898
0.134078
0.134977
0.136646
0.139017
0.141885
0.14494
0.147797
0.150059
0.151398
0.151571
0.150451
0.148016
0.144335
0.139533
0.133763
0.127197
0.120091
0.112899
0.106343
0.101336
0.0987053
0.0988863
0.101771
0.10681
0.113214
0.120241
0.127277
0.133892
0.139792
0.144795
0.148759
0.151578
0.153162
0.153418
0.152237
0.149452
0.14484
0.138103
0.12894
0.117089
0.102547
0.0849984
0.065527
0.0401798
0.0202076
0.209437
0.127697
0.116579
0.126812
0.131295
0.132391
0.13329
0.134399
0.135442
0.136294
0.13698
0.137549
0.138022
0.138403
0.1387
0.138925
0.139084
0.139177
0.139218
0.139228
0.139239
0.139276
0.139346
0.139438
0.139524
0.139561
0.139495
0.13927
0.138839
0.138178
0.137318
0.13633
0.135349
0.134552
0.134138
0.134298
0.135176
0.136824
0.139177
0.142034
0.145084
0.147944
0.150218
0.151574
0.151767
0.150669
0.148252
0.144585
0.139792
0.134024
0.127458
0.12035
0.113155
0.10659
0.101559
0.0988869
0.0990124
0.101837
0.106814
0.113181
0.120177
0.127193
0.133799
0.139702
0.144708
0.148684
0.151522
0.15313
0.153417
0.152272
0.149531
0.144963
0.138274
0.129166
0.117376
0.102905
0.0854356
0.0660958
0.0407503
0.0208874
0.215601
0.123609
0.115944
0.126929
0.131313
0.13244
0.133369
0.134484
0.135529
0.136385
0.137075
0.137647
0.138122
0.138506
0.138807
0.139034
0.139195
0.139291
0.139333
0.139346
0.139359
0.139396
0.139467
0.139558
0.139644
0.139679
0.139612
0.139385
0.138955
0.138293
0.137431
0.136442
0.135459
0.134658
0.13424
0.134395
0.135266
0.136907
0.13925
0.142103
0.145149
0.148008
0.150286
0.15165
0.151853
0.150765
0.14836
0.144701
0.139914
0.134151
0.127589
0.120487
0.113299
0.106739
0.101701
0.0990056
0.0990924
0.101871
0.106796
0.113129
0.120097
0.127096
0.133695
0.1396
0.144618
0.14861
0.151467
0.153101
0.153417
0.152302
0.149595
0.145065
0.13842
0.129364
0.11763
0.103229
0.085834
0.0666118
0.0412897
0.0215369
0.221698
0.120403
0.115548
0.126977
0.131293
0.132433
0.133377
0.134499
0.135547
0.136405
0.137097
0.137671
0.138148
0.138534
0.138835
0.139064
0.139226
0.139322
0.139366
0.13938
0.139393
0.139432
0.139503
0.139595
0.13968
0.139715
0.139647
0.139418
0.138986
0.138324
0.137461
0.136472
0.135488
0.134687
0.134269
0.134424
0.135295
0.136935
0.139274
0.142126
0.14517
0.148029
0.150309
0.151676
0.151885
0.150803
0.148406
0.144755
0.139974
0.134216
0.127659
0.120565
0.113384
0.106828
0.101786
0.0990724
0.0991299
0.101872
0.106757
0.113063
0.120008
0.126996
0.133591
0.1395
0.144529
0.148537
0.151416
0.153074
0.153418
0.152333
0.14966
0.145167
0.138563
0.129553
0.117873
0.103536
0.0862108
0.067092
0.0417998
0.0221824
0.226425
0.11846
0.115322
0.127005
0.131271
0.132409
0.133361
0.134489
0.13554
0.1364
0.137093
0.137668
0.138145
0.138531
0.138833
0.139062
0.139224
0.139321
0.139365
0.139379
0.139394
0.139433
0.139504
0.139597
0.139682
0.139718
0.139649
0.13942
0.138986
0.138323
0.137458
0.136469
0.135485
0.134685
0.134268
0.134425
0.135296
0.136937
0.139276
0.142128
0.145172
0.148031
0.150313
0.151683
0.151897
0.150821
0.148432
0.144787
0.140012
0.134259
0.127707
0.120618
0.113441
0.106885
0.101836
0.0991054
0.0991354
0.101846
0.106703
0.112986
0.119918
0.126899
0.133496
0.139411
0.14445
0.148474
0.151371
0.153052
0.153422
0.152365
0.149722
0.145262
0.138693
0.129725
0.118092
0.103812
0.0865445
0.0675166
0.0422408
0.0227848
)
;

boundaryField
{
    inlet
    {
        type            zeroGradient;
    }
    outlet
    {
        type            fixedValue;
        value           uniform 0;
    }
    fixedWalls
    {
        type            zeroGradient;
    }
    frontAndBack
    {
        type            empty;
    }
}


// ************************************************************************* //
