/*--------------------------------*- C++ -*----------------------------------*\
| =========                 |                                                 |
| \\      /  F ield         | OpenFOAM: The Open Source CFD Toolbox           |
|  \\    /   O peration     | Version:  v1912                                 |
|   \\  /    A nd           | Website:  www.openfoam.com                      |
|    \\/     M anipulation  |                                                 |
\*---------------------------------------------------------------------------*/
FoamFile
{
    version     2.0;
    format      ascii;
    class       surfaceScalarField;
    location    "200";
    object      phi;
}
// * * * * * * * * * * * * * * * * * * * * * * * * * * * * * * * * * * * * * //

dimensions      [0 3 -1 0 0 0 0];
oriented        oriented;


internalField   nonuniform List<scalar> 
3895
(
0.000814744
0.000381432
0.000499356
0.000315388
0.000251556
0.000247799
6.48545e-05
0.000186702
-6.22026e-05
0.000127057
-0.000127347
6.51447e-05
-0.000137682
1.03345e-05
-0.000113696
-2.3986e-05
-9.02579e-05
-2.34379e-05
-8.46455e-05
-5.61241e-06
-6.60716e-05
-1.8574e-05
-4.53578e-05
-2.07138e-05
-4.14139e-05
-3.94391e-06
-4.8822e-05
7.40813e-06
-4.26938e-05
-6.12815e-06
-2.35299e-05
-1.91639e-05
-9.53407e-06
-1.39959e-05
-2.68824e-06
-6.84583e-06
1.98283e-06
-4.67108e-06
9.97014e-06
-7.98731e-06
2.45791e-05
-1.46089e-05
4.34776e-05
-1.88985e-05
6.24613e-05
-1.89837e-05
7.73205e-05
-1.48592e-05
8.65579e-05
-9.23743e-06
8.99491e-05
-3.39126e-06
8.793e-05
2.01918e-06
8.20833e-05
5.84668e-06
7.44469e-05
7.63636e-06
6.61768e-05
8.2701e-06
5.7924e-05
8.25284e-06
5.05028e-05
7.42116e-06
4.48775e-05
5.62533e-06
4.20018e-05
2.87566e-06
4.34694e-05
-1.46753e-06
4.91571e-05
-5.68772e-06
5.82884e-05
-9.13136e-06
7.00113e-05
-1.17229e-05
8.28941e-05
-1.28828e-05
9.50555e-05
-1.21614e-05
0.000104478
-9.4228e-06
0.000109293
-4.81445e-06
0.000104831
4.46213e-06
9.12059e-05
1.36248e-05
6.79134e-05
2.32925e-05
3.49929e-05
3.29205e-05
-7.24445e-06
4.22374e-05
-5.85183e-05
5.12739e-05
-0.000118432
5.99142e-05
-0.000186429
6.79969e-05
-0.000262021
7.55919e-05
-0.000344547
8.2526e-05
-0.000433504
8.89564e-05
-0.000527625
9.41218e-05
-0.000623202
9.55768e-05
-0.000713584
9.03823e-05
-0.000790245
7.66604e-05
-0.000843075
5.28305e-05
-0.000856897
1.38214e-05
-0.000834094
-2.28026e-05
-0.000781938
-5.21565e-05
-0.000706774
-7.51633e-05
-0.000615837
-9.09376e-05
-0.000516192
-9.96446e-05
-0.000413278
-0.000102914
-0.000310754
-0.000102524
-0.000210627
-0.000100126
-0.000113863
-9.67644e-05
-2.07666e-05
-9.30964e-05
6.87574e-05
-8.9524e-05
0.000155134
-8.63762e-05
0.000239414
-8.42801e-05
0.000321973
-8.25589e-05
0.000403008
-8.1035e-05
0.000482615
-7.96074e-05
0.000561121
-7.85059e-05
0.000638733
-7.76117e-05
0.000718137
-7.94047e-05
0.000798883
-8.07451e-05
-0.000102931
0.00108795
0.000349295
0.00104738
0.000355953
0.000933267
0.000361914
0.000775723
0.000344246
0.00059839
0.00030439
0.000410339
0.000253196
0.000221217
0.000199457
5.38593e-05
0.000143372
-6.05262e-05
9.09476e-05
-0.000110287
4.41482e-05
-0.000131773
2.91243e-06
-0.000123726
-2.87605e-05
-0.000106298
-2.13723e-05
-0.00010971
1.08197e-05
-0.000107726
-8.11133e-06
-9.93804e-05
-2.75099e-05
-9.00183e-05
-2.33579e-05
-9.43207e-05
-2.54352e-06
-0.000102845
3.85361e-06
-0.000106657
-4.1759e-06
-0.000103706
-1.75599e-05
-9.53706e-05
-2.72338e-05
-8.27319e-05
-3.16224e-05
-6.74095e-05
-3.01816e-05
-5.24107e-05
-2.42362e-05
-3.96713e-05
-1.61306e-05
-2.98881e-05
-7.76409e-06
-2.38899e-05
-1.51451e-07
-2.26974e-05
6.44381e-06
-2.55247e-05
1.10974e-05
-3.13422e-05
1.40703e-05
-3.87325e-05
1.48115e-05
-4.59279e-05
1.28207e-05
-5.12322e-05
8.18002e-06
-5.33131e-05
6.13361e-07
-5.11736e-05
-7.82722e-06
-4.48893e-05
-1.54157e-05
-3.57375e-05
-2.08747e-05
-2.57797e-05
-2.28406e-05
-1.76633e-05
-2.02778e-05
-1.4306e-05
-1.278e-05
-1.97439e-05
6.23432e-07
-3.26557e-05
1.7374e-05
-5.57678e-05
3.67369e-05
-8.93296e-05
5.68543e-05
-0.000132182
7.57727e-05
-0.000182239
9.22945e-05
-0.000236517
0.000105552
-0.000291257
0.000114654
-0.000342009
0.000118749
-0.000384668
0.00011825
-0.000416103
0.000113962
-0.000434016
0.000106869
-0.000436638
9.67432e-05
-0.000422601
8.15399e-05
-0.000390428
5.8209e-05
-0.000340026
2.62584e-05
-0.000277838
-9.35673e-06
-0.000205987
-5.803e-05
-0.000132306
-9.64836e-05
-5.75383e-05
-0.000126924
1.63722e-05
-0.000149074
8.80727e-05
-0.000162638
0.000157822
-0.000169394
0.000225648
-0.00017074
0.000291488
-0.000168364
0.0003551
-0.000163738
0.000416318
-0.000157983
0.000475142
-0.00015192
0.000531761
-0.000146144
0.000586398
-0.000141013
0.000638764
-0.000136646
0.000689051
-0.000132846
0.000737391
-0.000129375
0.000783899
-0.000126116
0.000828626
-0.000123232
0.000872105
-0.00012109
0.000913924
-0.000121224
0.000956215
-0.000123036
-0.00013722
0.000975283
0.000305927
0.00102604
0.000305195
0.00106097
0.000326988
0.00105861
0.000346605
0.00101215
0.000350847
0.000925009
0.000340337
0.000805692
0.000318774
0.000661689
0.000287375
0.000504784
0.000247853
0.000345495
0.000203437
0.000189825
0.000158582
4.72658e-05
0.000113799
-4.84908e-05
7.43844e-05
-8.41845e-05
4.65133e-05
-0.000104967
1.26708e-05
-0.000115193
-1.72831e-05
-0.000108569
-2.9982e-05
-0.000107124
-3.98874e-06
-0.00012321
1.9939e-05
-0.000140741
1.33552e-05
-0.000155918
-2.38238e-06
-0.000167013
-1.61388e-05
-0.000170215
-2.84202e-05
-0.000167903
-3.24942e-05
-0.000162601
-2.95378e-05
-0.000156817
-2.19151e-05
-0.000153323
-1.12581e-05
-0.000153414
-6.04107e-08
-0.000157307
1.0337e-05
-0.0001662
1.99902e-05
-0.000178945
2.68161e-05
-0.000193644
2.95103e-05
-0.000207858
2.70344e-05
-0.000218807
1.91295e-05
-0.000224973
6.77925e-06
-0.000225017
-7.78384e-06
-0.000218197
-2.2235e-05
-0.000205239
-3.38335e-05
-0.000188888
-3.91912e-05
-0.000172636
-3.65301e-05
-0.000160301
-2.51144e-05
-0.000153461
-6.21733e-06
-0.000154331
1.82445e-05
-0.000164408
4.68138e-05
-0.000183359
7.5805e-05
-0.000208832
0.000101246
-0.000236658
0.00012012
-0.000261471
0.000130365
-0.000277701
0.000130884
-0.000280841
0.000121889
-0.000266298
0.000103708
-0.000232362
8.00259e-05
-0.000178612
5.31191e-05
-0.000104968
2.30995e-05
-1.60246e-05
-7.40397e-06
8.11886e-05
-3.90042e-05
0.000177341
-6.98939e-05
0.000268848
-0.000100863
0.00034336
-0.000132542
0.000407362
-0.000160486
0.000462705
-0.000182268
0.00051107
-0.000197438
0.00055491
-0.000206479
0.000595706
-0.00021019
0.000634503
-0.000209537
0.000671756
-0.000205616
0.000707567
-0.000199549
0.000741902
-0.000192319
0.000774679
-0.000184697
0.000805762
-0.000177226
0.000834959
-0.000170211
0.000862046
-0.000163732
0.000886893
-0.000157693
0.000909448
-0.00015193
0.000929721
-0.000146388
0.000947723
-0.000141234
0.000963619
-0.000136987
0.000976916
-0.000134521
0.000988604
-0.000134724
-0.000142026
0.00085711
0.000271375
0.000897356
0.000264948
0.000950166
0.000274178
0.00100471
0.000292063
0.00104637
0.000309184
0.00106529
0.000321414
0.00105661
0.000327462
0.00101787
0.000326111
0.000949423
0.0003163
0.000854865
0.000297995
0.000740602
0.000272845
0.000611527
0.000242874
0.000476088
0.000209824
0.000347879
0.000174722
0.000223035
0.000137515
0.000102396
0.000103355
2.37186e-06
7.00426e-05
-4.7509e-05
4.58921e-05
-6.03551e-05
3.27852e-05
-6.8009e-05
2.1009e-05
-8.08174e-05
1.04261e-05
-9.80197e-05
1.06351e-06
-0.000119531
-6.90905e-06
-0.000139854
-1.21709e-05
-0.000154357
-1.50346e-05
-0.000163199
-1.30737e-05
-0.000168822
-5.63523e-06
-0.000174362
5.47979e-06
-0.000181911
1.78859e-05
-0.000192464
3.05429e-05
-0.000205902
4.02546e-05
-0.000220954
4.4562e-05
-0.000235344
4.14241e-05
-0.000246151
2.99371e-05
-0.000249666
1.02939e-05
-0.000248789
-8.66066e-06
-0.000238768
-3.22555e-05
-0.000219082
-5.35202e-05
-0.00019261
-6.56623e-05
-0.000161946
-6.71948e-05
-0.000130337
-5.67235e-05
-0.000102089
-3.44648e-05
-7.78855e-05
-5.95918e-06
-5.80231e-05
2.69514e-05
-4.38673e-05
6.16493e-05
-3.40573e-05
9.1436e-05
-2.59609e-05
0.000112024
-1.62994e-05
0.000120703
-1.5262e-06
0.000116111
2.26818e-05
9.7681e-05
5.99787e-05
6.6411e-05
0.00011455
2.54547e-05
0.000181937
-1.42676e-05
0.000261053
-5.60165e-05
0.000347695
-9.40467e-05
0.000436146
-0.000127455
0.000522235
-0.000155983
0.000601588
-0.000180216
0.000669746
-0.0002007
0.000726234
-0.000216973
0.000772343
-0.000228377
0.000809793
-0.000234888
0.000840223
-0.000236908
0.000865097
-0.000235064
0.000885681
-0.000230122
0.00090298
-0.000222915
0.000917702
-0.00021427
0.000930298
-0.000204915
0.000941017
-0.000195416
0.000949941
-0.00018615
0.000957041
-0.000177311
0.000962242
-0.000168933
0.000965496
-0.000160947
0.000966829
-0.000153263
0.000966331
-0.00014589
0.000964102
-0.000139006
0.000960209
-0.000133093
0.000954382
-0.000128694
0.000946637
-0.000126979
-0.000129199
0.000759397
0.000238012
0.000790536
0.000233809
0.000828353
0.000236361
0.000874989
0.000245427
0.000927007
0.000257165
0.000978876
0.000269544
0.00102441
0.000281925
0.00105753
0.000292991
0.00107314
0.000300696
0.00106776
0.000303372
0.00104025
0.000300355
0.000991266
0.000291857
0.000922739
0.000278351
0.00083812
0.000259342
0.000740559
0.000235075
0.000635443
0.000208472
0.000530759
0.000174727
0.000433199
0.000143452
0.000349581
0.000116403
0.000277922
9.26676e-05
0.000215787
7.25611e-05
0.000161064
5.57864e-05
0.000112076
4.20786e-05
6.94821e-05
3.04234e-05
3.42926e-05
2.0155e-05
9.17846e-06
1.20405e-05
-4.33409e-06
7.87732e-06
-8.68911e-06
9.8348e-06
-8.90205e-06
1.80988e-05
-8.37784e-06
3.00187e-05
-8.93483e-06
4.08116e-05
-1.0533e-05
4.61602e-05
-1.2374e-05
4.32651e-05
-1.30224e-05
3.05855e-05
-1.12085e-05
8.47989e-06
-4.75275e-06
-1.51164e-05
4.79632e-06
-4.18046e-05
1.59865e-05
-6.47104e-05
3.14554e-05
-8.11312e-05
5.26e-05
-8.83394e-05
8.06776e-05
-8.48011e-05
0.0001161
-6.98874e-05
0.000155291
-4.51499e-05
0.000195905
-1.36626e-05
0.000237719
1.98351e-05
0.000280114
4.90411e-05
0.000323146
6.89923e-05
0.000367666
7.61829e-05
0.00041508
6.8697e-05
0.000466313
4.64474e-05
0.000521192
1.15322e-05
0.000578637
-3.19901e-05
0.000641461
-7.70917e-05
0.0007058
-0.000120355
0.000769497
-0.000157744
0.000829619
-0.000187577
0.000883593
-0.000209957
0.000929329
-0.000225952
0.000965458
-0.00023683
0.000991919
-0.000243434
0.00100971
-0.000246167
0.00102021
-0.000245385
0.00102485
-0.000241549
0.00102499
-0.000235211
0.00102184
-0.000226967
0.00101633
-0.00021741
0.00100917
-0.000207102
0.00100078
-0.000196531
0.00099144
-0.000186073
0.000981263
-0.000175973
0.000970303
-0.000166351
0.000958589
-0.00015722
0.000946178
-0.000148536
0.000933164
-0.000140249
0.000919658
-0.000132385
0.000905725
-0.000125073
0.000891309
-0.000118677
0.00087613
-0.000113515
0.000859724
-0.000110573
-0.000110057
0.000672434
0.000206415
0.000702275
0.000203968
0.000733373
0.000205264
0.000767842
0.000210958
0.000806619
0.000218388
0.000850045
0.000226119
0.000897313
0.000234657
0.000946043
0.000244261
0.000992646
0.000254094
0.00103304
0.000262977
0.00106345
0.000269947
0.00108108
0.00027423
0.00108425
0.000275181
0.00107171
0.000271875
0.00104312
0.000263669
0.00100017
0.000251421
0.000947874
0.000227023
0.000890406
0.00020092
0.000830896
0.000175913
0.000771699
0.000151865
0.000714782
0.000129478
0.000661249
0.000109319
0.000611774
9.15541e-05
0.000566237
7.59597e-05
0.00052389
6.25028e-05
0.000484325
5.16052e-05
0.000448406
4.37966e-05
0.000418799
3.94409e-05
0.000398622
3.82766e-05
0.000389647
3.89937e-05
0.000391273
3.91851e-05
0.000401301
3.61321e-05
0.000416888
2.76782e-05
0.000434846
1.26273e-05
0.000451763
-8.43666e-06
0.000467614
-3.09677e-05
0.000478257
-5.24478e-05
0.000482936
-6.93892e-05
0.00048147
-7.96651e-05
0.000475563
-8.24321e-05
0.000468654
-7.78919e-05
0.000465865
-6.70987e-05
0.000472445
-5.17295e-05
0.000492166
-3.33842e-05
0.000525433
-1.34318e-05
0.000569389
5.08534e-06
0.000619474
1.89075e-05
0.000672714
2.29428e-05
0.000728016
1.33949e-05
0.000784666
-1.02027e-05
0.000841837
-4.56391e-05
0.000897293
-8.74459e-05
0.000949571
-0.000129369
0.00099601
-0.000166795
0.00103504
-0.000196774
0.00106572
-0.00021826
0.00108768
-0.000231915
0.00110098
-0.000239246
0.00110602
-0.000241871
0.00110363
-0.000241043
0.00109501
-0.000237549
0.00108153
-0.000231907
0.00106452
-0.000224542
0.00104517
-0.000215861
0.00102446
-0.000206253
0.00100313
-0.000196086
0.000981727
-0.000185696
0.000960568
-0.000175373
0.000939838
-0.000165343
0.000919616
-0.000155751
0.000899932
-0.000146667
0.000880802
-0.00013809
0.000862248
-0.000129982
0.000844294
-0.000122294
0.000826931
-0.000115022
0.000810075
-0.000108216
0.000793517
-0.000102119
0.000776846
-9.68447e-05
0.000759586
-9.33127e-05
-9.09684e-05
0.000594386
0.000177666
0.00062317
0.000175183
0.000652324
0.00017611
0.000682117
0.000181166
0.000712928
0.000187577
0.000745619
0.000193427
0.000781191
0.000199085
0.000820209
0.000205243
0.000862432
0.00021187
0.000906735
0.000218675
0.00095125
0.000225432
0.000993697
0.000231782
0.00103174
0.000237139
0.00106297
0.000240641
0.00108523
0.000241413
0.00109736
0.000239286
0.00109951
0.000224874
0.0010934
0.000207037
0.00108056
0.000188747
0.00106246
0.000169965
0.00104072
0.000151223
0.00101682
0.000133215
0.000991962
0.000116413
0.000966845
0.000101076
0.000941856
8.74913e-05
0.000917416
7.6045e-05
0.000894197
6.7016e-05
0.000873353
6.02853e-05
0.000856566
5.50637e-05
0.000845702
4.98578e-05
0.000842057
4.28301e-05
0.000845793
3.23953e-05
0.000855914
1.75575e-05
0.000870414
-1.87251e-06
0.000885867
-2.38893e-05
0.000900228
-4.53289e-05
0.000911387
-6.36072e-05
0.000918446
-7.64478e-05
0.000921173
-8.23922e-05
0.000919856
-8.11153e-05
0.000915192
-7.32277e-05
0.000908247
-6.01543e-05
0.000900526
-4.40083e-05
0.000894405
-2.72633e-05
0.000893609
-1.2635e-05
0.000901393
-2.69894e-06
0.00092007
2.30602e-07
0.000949267
-6.25478e-06
0.000986538
-2.38758e-05
0.00102751
-5.11759e-05
0.00106718
-8.53091e-05
0.00110143
-0.000121694
0.00112767
-0.000155612
0.00114452
-0.00018364
0.00115184
-0.000204094
0.00115042
-0.00021684
0.00114145
-0.000222952
0.00112625
-0.000224038
0.00110603
-0.000221659
0.001082
-0.000217011
0.0010553
-0.000210848
0.00102701
-0.000203612
0.000998051
-0.000195588
0.000969192
-0.000187002
0.000940995
-0.000178056
0.000913853
-0.000168943
0.000887999
-0.000159842
0.00086354
-0.000150913
0.000840486
-0.000142289
0.000818797
-0.000134062
0.000798404
-0.000126274
0.000779238
-0.000118923
0.000761223
-0.000111967
0.000744273
-0.000105344
0.000728258
-9.90076e-05
0.000712969
-9.29277e-05
0.000698108
-8.72576e-05
0.00068319
-8.1926e-05
0.000667882
-7.80051e-05
-7.38976e-05
0.000525111
0.000151817
0.000551937
0.000148357
0.000579147
0.0001489
0.00060647
0.000153843
0.00063401
0.000160037
0.000661959
0.000165478
0.000690636
0.000170408
0.000720618
0.000175262
0.000752554
0.000179934
0.000786903
0.000184325
0.00082377
0.000188565
0.000862803
0.000192749
0.000903187
0.000196755
0.000943636
0.000200193
0.000982511
0.000202538
0.0010183
0.000203499
0.00104868
0.000194494
0.00107324
0.00018247
0.00109219
0.000169805
0.00110583
0.000156323
0.00111474
0.000142308
0.00111967
0.000128287
0.00112135
0.000114729
0.00112044
0.000101987
0.00111754
9.03908e-05
0.00111333
8.02581e-05
0.00110862
7.17257e-05
0.00110439
6.45186e-05
0.00110166
5.77936e-05
0.0011013
5.02199e-05
0.00110377
4.03614e-05
0.00110896
2.71974e-05
0.00111585
1.06692e-05
0.00112285
-8.87559e-06
0.00112803
-2.90686e-05
0.00113037
-4.7665e-05
0.00112927
-6.25092e-05
0.00112483
-7.20031e-05
0.00111774
-7.53078e-05
0.00110913
-7.24977e-05
0.00110035
-6.4451e-05
0.00109288
-5.26838e-05
0.00108799
-3.91189e-05
0.00108656
-2.58324e-05
0.00108902
-1.51004e-05
0.0010957
-9.37229e-06
0.00110677
-1.08405e-05
0.00112137
-2.0853e-05
0.0011371
-3.96065e-05
0.00115125
-6.53307e-05
0.00116092
-9.4978e-05
0.00116396
-0.000124735
0.00115941
-0.00015106
0.00114739
-0.00017162
0.00112884
-0.000185545
0.00110515
-0.000193149
0.00107774
-0.000195545
0.00104786
-0.000194156
0.0010165
-0.000190302
0.000984464
-0.000184972
0.000952406
-0.00017879
0.000920889
-0.000172094
0.000890365
-0.000165065
0.000861177
-0.000157814
0.000833555
-0.000150434
0.000807625
-0.000143013
0.000783426
-0.000135643
0.000760925
-0.000128412
0.000740041
-0.000121406
0.000720668
-0.000114689
0.00070269
-0.000108297
0.00068599
-0.000102224
0.00067045
-9.64272e-05
0.000655935
-9.08285e-05
0.000642265
-8.53384e-05
0.000629191
-7.98533e-05
0.000616386
-7.44531e-05
0.000603381
-6.8921e-05
0.000589943
-6.45671e-05
-5.86371e-05
0.00046394
0.000128552
0.00048864
0.000123657
0.000513481
0.000124058
0.000538161
0.000129163
0.000563126
0.000135072
0.000588451
0.000140153
0.000613979
0.00014488
0.000639776
0.000149465
0.0006661
0.00015361
0.000693271
0.000157154
0.000721651
0.000160185
0.000751584
0.000162816
0.000783272
0.000165067
0.000816633
0.000166832
0.000851243
0.000167928
0.000886479
0.000168264
0.000920207
0.000160766
0.000951533
0.000151144
0.000980046
0.000141292
0.00100541
0.000130955
0.0010275
0.000120222
0.00104638
0.000109411
0.00106225
9.88547e-05
0.00107541
8.8826e-05
0.00108623
7.95714e-05
0.0010952
7.1292e-05
0.00110291
6.40133e-05
0.00111
5.74234e-05
0.001117
5.07929e-05
0.00112414
4.30796e-05
0.00113126
3.32503e-05
0.00113776
2.06885e-05
0.00114282
5.61038e-06
0.00114522
-1.12711e-05
0.00114427
-2.81218e-05
0.00113975
-4.31431e-05
0.00113194
-5.46983e-05
0.00112161
-6.16743e-05
0.0011099
-6.35957e-05
0.00109809
-6.06924e-05
0.00108745
-5.38055e-05
0.001079
-4.42341e-05
0.00107347
-3.35892e-05
0.00107129
-2.36557e-05
0.00107253
-1.63363e-05
0.00107669
-1.35363e-05
0.0010827
-1.68449e-05
0.00108891
-2.70664e-05
0.00109324
-4.39398e-05
0.00109375
-6.58343e-05
0.0010889
-9.01315e-05
0.00107801
-0.000113847
0.00106131
-0.000134355
0.00103966
-0.000149978
0.00101427
-0.00016015
0.000986336
-0.000165216
0.000956915
-0.000166124
0.000926817
-0.000164059
0.000896643
-0.000160127
0.000866841
-0.000155171
0.00083777
-0.000149718
0.000809721
-0.000144046
0.000782929
-0.000138272
0.000757558
-0.000132443
0.000733706
-0.000126582
0.000711408
-0.000120715
0.000690645
-0.00011488
0.000671357
-0.000109124
0.000653456
-0.000103504
0.000636838
-9.80709e-05
0.000621397
-9.28554e-05
0.000607028
-8.7855e-05
0.000593627
-8.30265e-05
0.000581069
-7.82704e-05
0.000569176
-7.34456e-05
0.000557702
-6.83787e-05
0.000546325
-6.30765e-05
0.000534648
-5.72436e-05
0.000522445
-5.23641e-05
-4.46925e-05
0.000410014
0.000107502
0.000432754
0.000100917
0.000455184
0.000101629
0.000477154
0.000107193
0.000499459
0.000112768
0.000522209
0.000117403
0.000545212
0.000121877
0.000568453
0.000126224
0.000591958
0.000130105
0.000615712
0.000133401
0.000639759
0.000136137
0.000664245
0.00013833
0.000689365
0.000139947
0.000715282
0.000140915
0.000742065
0.000141145
0.000769695
0.000140633
0.000796885
0.000133576
0.000823142
0.000124887
0.000848212
0.000116222
0.000871778
0.00010739
0.000893575
9.84249e-05
0.000913458
8.95292e-05
0.000931387
8.09256e-05
0.000947416
7.27966e-05
0.000961696
6.52915e-05
0.000974481
5.85071e-05
0.000986098
5.23957e-05
0.000996863
4.66589e-05
0.00100695
4.07095e-05
0.00101626
3.37694e-05
0.00102439
2.51143e-05
0.00103071
1.43759e-05
0.00103451
1.80755e-06
0.0010351
-1.18636e-05
0.00103226
-2.52853e-05
0.00102613
-3.70066e-05
0.00101724
-4.58063e-05
0.00100647
-5.09046e-05
0.000994901
-5.20311e-05
0.000983666
-4.94574e-05
0.000973784
-4.39235e-05
0.000966065
-3.65153e-05
0.000961026
-2.85496e-05
0.000958833
-2.14632e-05
0.000959233
-1.6736e-05
0.000961497
-1.58006e-05
0.000964464
-1.98115e-05
0.000966682
-2.92849e-05
0.000966614
-4.3871e-05
0.000963011
-6.22317e-05
0.000955162
-8.22824e-05
0.000942983
-0.000101668
0.000926919
-0.000118291
0.000907694
-0.000130753
0.000886085
-0.000138542
0.000862804
-0.000141935
0.000838449
-0.000141769
0.000813511
-0.00013912
0.000788397
-0.000135013
0.000763455
-0.000130229
0.000738989
-0.000125252
0.000715256
-0.000120313
0.000692466
-0.000115482
0.00067077
-0.000110747
0.000650263
-0.000106075
0.000630986
-0.000101438
0.000612932
-9.68265e-05
0.000596062
-9.22532e-05
0.000580308
-8.77506e-05
0.000565591
-8.33541e-05
0.000551831
-7.9095e-05
0.000538951
-7.4975e-05
0.000526874
-7.09492e-05
0.000515493
-6.68902e-05
0.000504644
-6.25965e-05
0.0004941
-5.78346e-05
0.000483566
-5.25418e-05
0.000472748
-4.64258e-05
0.000461369
-4.09848e-05
-3.18589e-05
0.000362528
8.82942e-05
0.000383496
7.99484e-05
0.000403598
8.15274e-05
0.000423066
8.77244e-05
0.000442884
9.29496e-05
0.000463084
9.72035e-05
0.000483533
0.000101428
0.00050431
0.000105447
0.000525438
0.000108977
0.000546832
0.000112007
0.000568404
0.000114565
0.000590112
0.000116622
0.000611943
0.000118116
0.000633897
0.000118961
0.00065598
0.000119062
0.000678216
0.000118398
0.000699697
0.000112095
0.000720223
0.000104361
0.000739783
9.6662e-05
0.000758279
8.88935e-05
0.000775599
8.11046e-05
0.000791667
7.34607e-05
0.000806455
6.61378e-05
0.000819983
5.9269e-05
0.00083233
5.29444e-05
0.000843642
4.71956e-05
0.000854101
4.19361e-05
0.000863865
3.68948e-05
0.000872971
3.16033e-05
0.00088126
2.54811e-05
0.000888352
1.80224e-05
0.000893716
9.01143e-06
0.000896845
-1.32115e-06
0.000897325
-1.2344e-05
0.000895027
-2.29869e-05
0.000890115
-3.20948e-05
0.000883048
-3.87395e-05
0.000874512
-4.23683e-05
0.000865329
-4.28478e-05
0.000856348
-4.04769e-05
0.000848347
-3.5922e-05
0.000841941
-3.01101e-05
0.000837522
-2.413e-05
0.000835201
-1.91421e-05
0.000834775
-1.63103e-05
0.000835697
-1.67227e-05
0.000837105
-2.12195e-05
0.000837955
-3.01347e-05
0.000837205
-4.31208e-05
0.000834045
-5.90717e-05
0.000828034
-7.62717e-05
0.000819105
-9.27386e-05
0.000807459
-0.000106645
0.000793416
-0.000116709
0.000777303
-0.000122429
0.000759445
-0.000124077
0.000740182
-0.000122506
0.000719885
-0.000118824
0.000698948
-0.000114076
0.000677759
-0.000109041
0.000656677
-0.00010417
0.000636006
-9.96428e-05
0.000615989
-9.54644e-05
0.000596798
-9.15564e-05
0.000578544
-8.78209e-05
0.000561279
-8.41731e-05
0.000545012
-8.05588e-05
0.000529712
-7.69536e-05
0.000515328
-7.33669e-05
0.000501796
-6.98217e-05
0.000489055
-6.63535e-05
0.00047705
-6.29707e-05
0.000465726
-5.96251e-05
0.000454994
-5.61585e-05
0.000444712
-5.23138e-05
0.000434697
-4.78194e-05
0.000424709
-4.25547e-05
0.000414586
-3.6302e-05
0.000403977
-3.03757e-05
-2.02553e-05
0.000320758
7.05694e-05
0.000340087
6.0619e-05
0.000357963
6.36515e-05
0.000375208
7.04795e-05
0.000392823
7.53346e-05
0.000410695
7.9331e-05
0.000428765
8.33577e-05
0.000447174
8.70378e-05
0.000465957
9.01942e-05
0.000485049
9.29149e-05
0.000504384
9.52301e-05
0.000523899
9.71063e-05
0.000543522
9.84941e-05
0.000563163
9.93191e-05
0.000582732
9.94928e-05
0.000602158
9.89726e-05
0.000620592
9.36612e-05
0.000637872
8.70815e-05
0.000654047
8.04872e-05
0.000669119
7.38215e-05
0.000683079
6.71442e-05
0.000695936
6.06043e-05
0.000707718
5.43551e-05
0.000718482
4.85055e-05
0.000728313
4.31136e-05
0.000737332
3.81762e-05
0.000745679
3.35892e-05
0.000753466
2.91078e-05
0.000760719
2.43506e-05
0.000767325
1.88748e-05
0.000773018
1.23294e-05
0.00077743
4.59928e-06
0.000780184
-4.07469e-06
0.000780961
-1.31215e-05
0.000779628
-2.16541e-05
0.000776276
-2.8742e-05
0.0007712
-3.36641e-05
0.000764869
-3.60374e-05
0.000757867
-3.58452e-05
0.000750819
-3.34295e-05
0.000744323
-2.94255e-05
0.000738874
-2.46616e-05
0.000734814
-2.00698e-05
0.000732282
-1.66098e-05
0.000731181
-1.521e-05
0.000731163
-1.67037e-05
0.000731645
-2.17018e-05
0.000731914
-3.04039e-05
0.000731251
-4.24579e-05
0.000729075
-5.68959e-05
0.000725028
-7.22247e-05
0.000718956
-8.66668e-05
0.000710822
-9.8511e-05
0.000700618
-0.000106504
0.000688347
-0.000110158
0.000674093
-0.000109822
0.000658069
-0.000106483
0.000640632
-0.000101386
0.000622223
-9.5667e-05
0.000603301
-9.01191e-05
0.000584286
-8.51539e-05
0.000565521
-8.08779e-05
0.000547267
-7.72108e-05
0.000529705
-7.39939e-05
0.000512943
-7.10589e-05
0.000497032
-6.82627e-05
0.000481979
-6.55058e-05
0.000467754
-6.27283e-05
0.000454306
-5.99192e-05
0.000441577
-5.70929e-05
0.000429518
-5.42938e-05
0.000418087
-5.15396e-05
0.000407242
-4.87805e-05
0.00039692
-4.58364e-05
0.00038702
-4.24137e-05
0.000377432
-3.82318e-05
0.000368
-3.31227e-05
0.000358685
-2.69865e-05
0.000349084
-2.07747e-05
-1.02082e-05
0.000284047
5.39959e-05
0.000301804
4.28614e-05
0.000317588
4.78679e-05
0.000332895
5.51726e-05
0.000348562
5.96672e-05
0.000364361
6.35322e-05
0.000380328
6.73902e-05
0.000396623
7.07436e-05
0.000413254
7.35633e-05
0.000430171
7.59976e-05
0.000447337
7.80635e-05
0.000464714
7.97294e-05
0.000482242
8.09659e-05
0.000499841
8.17204e-05
0.000517412
8.19221e-05
0.000534856
8.15287e-05
0.000551364
7.71533e-05
0.00056675
7.16948e-05
0.000581044
6.61939e-05
0.000594251
6.0614e-05
0.000606382
5.50136e-05
0.000617462
4.95236e-05
0.000627541
4.42769e-05
0.000636683
3.93629e-05
0.000644979
3.4818e-05
0.000652538
3.06169e-05
0.00065948
2.66474e-05
0.000665901
2.26867e-05
0.000671836
1.84155e-05
0.000677222
1.3489e-05
0.000681884
7.6667e-06
0.000685565
9.18647e-07
0.000687978
-6.48738e-06
0.000688866
-1.40095e-05
0.0006881
-2.08886e-05
0.000685714
-2.63553e-05
0.000681892
-2.98431e-05
0.00067696
-3.11051e-05
0.000671344
-3.0229e-05
0.000665525
-2.76109e-05
0.000659981
-2.38815e-05
0.000655127
-1.98072e-05
0.000651264
-1.62073e-05
0.000648542
-1.38874e-05
0.000646928
-1.35959e-05
0.0006462
-1.59754e-05
0.000645964
-2.14665e-05
0.000645726
-3.01654e-05
0.000644977
-4.17096e-05
0.000643296
-5.52145e-05
0.000640375
-6.93036e-05
0.000635977
-8.22688e-05
0.000629859
-9.23929e-05
0.000621758
-9.84038e-05
0.000611475
-9.98746e-05
0.000598985
-9.73327e-05
0.000584503
-9.20005e-05
0.000568443
-8.53264e-05
0.000551323
-7.85473e-05
0.000533663
-7.24587e-05
0.000515911
-6.74019e-05
0.000498416
-6.33832e-05
0.000481426
-6.02202e-05
0.000465098
-5.76659e-05
0.00044952
-5.54809e-05
0.000434724
-5.34671e-05
0.000420702
-5.14839e-05
0.000407414
-4.94406e-05
0.000394807
-4.73115e-05
0.000382822
-4.51083e-05
0.000371416
-4.28878e-05
0.000360555
-4.06789e-05
0.000350212
-3.84374e-05
0.000340355
-3.59793e-05
0.000330944
-3.30022e-05
0.000321954
-2.92419e-05
0.000313316
-2.44846e-05
0.000305091
-1.87623e-05
0.000296862
-1.25453e-05
-2.06427e-06
0.000251798
3.8284e-05
0.000267991
2.6668e-05
0.000281862
3.39976e-05
0.000295503
4.15315e-05
0.000309436
4.57342e-05
0.000323395
4.95728e-05
0.000337526
5.3259e-05
0.000351971
5.62991e-05
0.000366708
5.88264e-05
0.000381693
6.10126e-05
0.000396901
6.28555e-05
0.000412302
6.43279e-05
0.000427852
6.54158e-05
0.00044349
6.60827e-05
0.000459139
6.62733e-05
0.000474715
6.59531e-05
0.000489485
6.23826e-05
0.000503269
5.79106e-05
0.00051608
5.33835e-05
0.000527916
4.87777e-05
0.000538782
4.41475e-05
0.000548698
3.96074e-05
0.000557704
3.52709e-05
0.000565858
3.12093e-05
0.000573235
2.74411e-05
0.000579927
2.39246e-05
0.000586032
2.05426e-05
0.000591628
1.70904e-05
0.000596749
1.32948e-05
0.000601355
8.88265e-06
0.000605325
3.6969e-06
0.000608469
-2.22508e-06
0.000610573
-8.59107e-06
0.000611441
-1.48775e-05
0.00061096
-2.04081e-05
0.000609133
-2.45283e-05
0.00060608
-2.67897e-05
0.000602031
-2.70568e-05
0.000597313
-2.5511e-05
0.000592309
-2.26067e-05
0.000587413
-1.89853e-05
0.000582979
-1.53734e-05
0.000579277
-1.25048e-05
0.000576451
-1.10616e-05
0.000574504
-1.16486e-05
0.000573287
-1.4759e-05
0.000572522
-2.07018e-05
0.000571849
-2.94922e-05
0.000570891
-4.07512e-05
0.000569298
-5.36218e-05
0.000566738
-6.67439e-05
0.000562847
-7.83773e-05
0.000557217
-8.6763e-05
0.000549479
-9.06656e-05
0.000539431
-8.98264e-05
0.000527137
-8.50392e-05
0.00051293
-7.77937e-05
0.000497321
-6.9717e-05
0.000480875
-6.21016e-05
0.000464111
-5.56948e-05
0.000447443
-5.07339e-05
0.000431167
-4.71067e-05
0.000415472
-4.45252e-05
0.000400466
-4.26599e-05
0.000386195
-4.12104e-05
0.000372663
-3.99347e-05
0.000359841
-3.86616e-05
0.000347679
-3.7279e-05
0.000336122
-3.57542e-05
0.000325113
-3.41e-05
0.000314611
-3.23854e-05
0.000304583
-3.06514e-05
0.000295015
-2.88694e-05
0.000285912
-2.68759e-05
0.000277297
-2.4387e-05
0.000269227
-2.11718e-05
0.000261703
-1.69614e-05
0.000254863
-1.19221e-05
0.000248319
-6.00054e-06
4.0081e-06
0.000223468
2.31983e-05
0.000238065
1.20712e-05
0.000250246
2.18161e-05
0.000262462
2.93164e-05
0.000274842
3.33538e-05
0.000287181
3.72334e-05
0.000299713
4.0727e-05
0.000312541
4.34718e-05
0.000325621
4.57463e-05
0.000338917
4.77159e-05
0.00035241
4.93624e-05
0.000366072
5.06665e-05
0.000379861
5.16262e-05
0.000393729
5.22155e-05
0.000407612
5.23904e-05
0.000421441
5.21235e-05
0.000434569
4.92548e-05
0.000446833
4.56468e-05
0.000458243
4.19728e-05
0.000468802
3.82194e-05
0.00047851
3.4439e-05
0.000487384
3.07335e-05
0.000495454
2.72007e-05
0.000502767
2.38969e-05
0.000509382
2.08256e-05
0.000515374
1.79325e-05
0.000520819
1.50979e-05
0.000525778
1.21315e-05
0.000530278
8.79522e-06
0.00053429
4.87007e-06
0.000537727
2.60174e-07
0.000540449
-4.94754e-06
0.000542293
-1.04351e-05
0.000543102
-1.56861e-05
0.000542772
-2.00779e-05
0.000541283
-2.30392e-05
0.00053871
-2.42172e-05
0.000535227
-2.35737e-05
0.000531095
-2.13785e-05
0.000526634
-1.81459e-05
0.000522184
-1.45358e-05
0.000518055
-1.12441e-05
0.000514485
-8.9344e-06
0.000511604
-8.18082e-06
0.000509422
-9.46653e-06
0.000507821
-1.3158e-05
0.000506571
-1.94518e-05
0.000505362
-2.82838e-05
0.000503839
-3.92282e-05
0.000501612
-5.13948e-05
0.000498256
-6.33875e-05
0.000493328
-7.34492e-05
0.000486445
-7.988e-05
0.000477393
-8.16135e-05
0.000466206
-7.86392e-05
0.000453169
-7.20025e-05
0.000438749
-6.33735e-05
0.000423484
-5.4452e-05
0.000407885
-4.65026e-05
0.000392367
-4.01766e-05
0.000377226
-3.55929e-05
0.000362648
-3.25288e-05
0.000348732
-3.06093e-05
0.000335517
-2.94447e-05
0.000323002
-2.86953e-05
0.00031116
-2.80931e-05
0.00029995
-2.74518e-05
0.00028932
-2.66485e-05
0.000279214
-2.56485e-05
0.000269579
-2.44646e-05
0.000260367
-2.31736e-05
0.000251546
-2.18311e-05
0.000243115
-2.04384e-05
0.000235118
-1.88782e-05
0.000227636
-1.69053e-05
0.000220792
-1.43279e-05
0.000214634
-1.08035e-05
0.000209347
-6.63533e-06
0.000204584
-1.23695e-06
8.02293e-06
0.00019856
8.56742e-06