/*--------------------------------*- C++ -*----------------------------------*\
| =========                 |                                                 |
| \\      /  F ield         | OpenFOAM: The Open Source CFD Toolbox           |
|  \\    /   O peration     | Version:  v1912                                 |
|   \\  /    A nd           | Website:  www.openfoam.com                      |
|    \\/     M anipulation  |                                                 |
\*---------------------------------------------------------------------------*/
FoamFile
{
    version     2.0;
    format      ascii;
    class       volVectorField;
    location    "200";
    object      U;
}
// * * * * * * * * * * * * * * * * * * * * * * * * * * * * * * * * * * * * * //

dimensions      [0 1 -1 0 0 0 0];


internalField   nonuniform List<vector> 
2000
(
(0.84616 0.187394 0)
(0.515131 0.12409 0)
(0.223442 0.0684431 0)
(0.059799 0.0174434 6.19733e-20)
(-0.00455528 -0.0232201 1.31145e-17)
(-0.0642146 -0.0384542 1.13899e-17)
(-0.0776237 -0.0372178 0)
(-0.0716194 -0.0166983 0)
(-0.0590723 0.011542 0)
(-0.0420797 0.0253041 2.58434e-17)
(-0.0414204 0.0110559 -1.58462e-17)
(-0.0273826 -0.000511094 -1.48736e-17)
(-0.0168668 -0.00276482 0)
(-0.0204357 -0.00257486 0)
(-0.0213568 -0.0025257 -1.1814e-17)
(-0.014765 -0.00128888 0)
(-0.00588292 -0.000265051 1.06578e-17)
(-0.00182858 0.00234458 6.18104e-21)
(-0.000143725 0.00262809 1.03532e-17)
(0.00195074 0.000297614 -5.09698e-18)
(0.005857 -0.00284306 9.99827e-18)
(0.0118271 -0.00483576 0)
(0.0185956 -0.00562575 0)
(0.0247219 -0.00540155 -6.89758e-23)
(0.0289385 -0.00426914 0)
(0.0310147 -0.00248581 -4.68152e-18)
(0.0307696 -0.000428725 0)
(0.0287989 0.00140022 4.67002e-18)
(0.0260536 0.00279648 0)
(0.0231602 0.00358038 0)
(0.020326 0.00375134 0)
(0.0176942 0.00342751 1.18398e-18)
(0.0155228 0.00275193 0)
(0.0141145 0.00181929 -6.04009e-19)
(0.0138858 0.000771385 2.03545e-14)
(0.0150787 -0.00038019 2.04716e-14)
(0.0175454 -0.00148535 6.37708e-19)
(0.0210276 -0.00241792 -6.49939e-19)
(0.025155 -0.00304961 0)
(0.0294202 -0.00330633 2.71615e-18)
(0.0332205 -0.00315386 0)
(0.0358541 -0.00251176 -2.81536e-18)
(0.0361688 -0.0014389 0)
(0.0334032 0.000576094 -5.7848e-18)
(0.0274732 0.00335936 2.89298e-18)
(0.0181054 0.00596522 0)
(0.00504915 0.00778594 0)
(-0.011253 0.00905278 -2.74107e-18)
(-0.0306727 0.0105094 0)
(-0.0533401 0.0127963 2.35028e-18)
(-0.0794269 0.0157376 0)
(-0.109105 0.0187575 4.23688e-18)
(-0.142212 0.0215162 -4.00914e-18)
(-0.178826 0.0227375 3.82722e-18)
(-0.218362 0.020335 -1.7023e-18)
(-0.259132 0.0127431 0)
(-0.298585 -0.000730884 1.5265e-18)
(-0.332332 -0.0196598 -1.46001e-18)
(-0.35374 -0.0409716 -3.41404e-18)
(-0.357294 -0.0582981 3.45602e-18)
(-0.346252 -0.0680548 -4.19992e-18)
(-0.325097 -0.0722094 5.25533e-18)
(-0.294443 -0.0724425 -6.61681e-18)
(-0.257623 -0.0698877 8.19564e-18)
(-0.21663 -0.0655666 4.57413e-20)
(-0.173115 -0.0600855 1.22434e-17)
(-0.127988 -0.0538379 0)
(-0.0816455 -0.0470891 0)
(-0.0343455 -0.0400588 1.35316e-19)
(0.0134392 -0.0328708 0)
(0.0619341 -0.0253055 2.21966e-17)
(0.113148 -0.0174363 0)
(0.166525 -0.00892866 1.98746e-17)
(0.222738 0.000406472 -4.82533e-19)
(0.282143 0.0106195 1.67417e-17)
(0.346612 0.021693 2.89562e-17)
(0.413046 0.0334659 6.8297e-19)
(0.49441 0.0456945 -9.77788e-18)
(0.555798 0.0568768 -6.28416e-18)
(0.706887 0.0666561 0)
(1.0153 0.210385 0)
(0.944632 0.194216 0)
(0.804469 0.17999 -3.78669e-18)
(0.654408 0.15232 7.83858e-18)
(0.509204 0.111175 0)
(0.360007 0.0683798 -7.96512e-18)
(0.21646 0.0293377 0)
(0.0820941 -0.00527002 0)
(-0.0282762 -0.0180936 0)
(-0.056269 -0.0190748 -1.89122e-17)
(-0.0668115 -0.0247448 1.72055e-17)
(-0.0717243 -0.0152899 1.57821e-17)
(-0.0635549 0.00699933 0)
(-0.0516448 0.0200796 6.90012e-18)
(-0.0558523 0.00821668 0)
(-0.0512377 -0.00551195 0)
(-0.0430012 -0.00772561 0)
(-0.0398638 -0.00533667 5.68633e-18)
(-0.043323 -0.00328289 -1.11739e-17)
(-0.0449892 -0.00366601 -5.49056e-18)
(-0.0447371 -0.00634777 0)
(-0.0418582 -0.00931904 0)
(-0.0368047 -0.0105686 0)
(-0.0302363 -0.00925199 -7.96787e-18)
(-0.0235034 -0.00607042 0)
(-0.0175903 -0.00233616 5.36685e-18)
(-0.0125886 0.00075037 2.70823e-18)
(-0.00959683 0.00266333 0)
(-0.00851289 0.00381886 0)
(-0.00889286 0.0047053 0)
(-0.0105278 0.00528784 0)
(-0.0129713 0.00525937 -6.76934e-19)
(-0.0156787 0.00424871 0)
(-0.0179614 0.00210376 3.46104e-19)
(-0.0193386 -0.000945776 1.72709e-19)
(-0.0192925 -0.00455923 0)
(-0.0176549 -0.00819548 0)
(-0.0146609 -0.0111356 7.44264e-19)
(-0.0109456 -0.0126267 0)
(-0.00749054 -0.0120562 -1.59281e-18)
(-0.00530276 -0.00908769 0)
(-0.00573218 -0.00370616 -1.72984e-18)
(-0.00923804 0.00390023 0)
(-0.0162548 0.0132955 1.57909e-18)
(-0.0274152 0.0234848 1.67053e-18)
(-0.0427056 0.033457 0)
(-0.06164 0.0428453 0)
(-0.0832676 0.0513323 -2.69393e-18)
(-0.106145 0.0582805 0)
(-0.128557 0.0631153 -1.60602e-19)
(-0.14897 0.0659659 0)
(-0.165947 0.0677431 0)
(-0.178221 0.0689739 0)
(-0.185236 0.0687687 0)
(-0.18635 0.0651286 3.67536e-18)
(-0.180612 0.0556833 0)
(-0.16885 0.0391319 -3.81285e-18)
(-0.15144 0.016627 2.07712e-18)
(-0.117624 -0.00899582 -2.18451e-18)
(-0.0740109 -0.0378532 -5.42708e-18)
(-0.0433713 -0.0670984 6.8026e-18)
(-0.0083378 -0.0880292 -8.57715e-18)
(0.0284883 -0.0999072 1.01992e-17)
(0.0650049 -0.104346 0)
(0.102124 -0.103195 -1.9013e-17)
(0.140491 -0.098294 -1.36943e-17)
(0.180119 -0.0911145 0)
(0.220852 -0.082682 7.4033e-18)
(0.262676 -0.0736844 1.54475e-17)
(0.305784 -0.0645716 0)
(0.350416 -0.0554754 0)
(0.396867 -0.0463886 0)
(0.445258 -0.037149 0)
(0.495906 -0.0275095 -1.39343e-17)
(0.549044 -0.0172914 6.02569e-18)
(0.605786 -0.00644056 -1.16489e-17)
(0.664568 0.00470245 9.96162e-18)
(0.733099 0.0155704 -3.42929e-18)
(0.787683 0.0241995 0)
(0.902119 0.0269715 0)
(0.978489 0.20154 0)
(0.978855 0.193013 -3.05436e-18)
(0.969153 0.205122 3.73567e-18)
(0.939078 0.208547 -3.30593e-18)
(0.87802 0.194624 3.129e-18)
(0.785579 0.168739 3.09183e-18)
(0.669311 0.138097 0)
(0.540954 0.106035 0)
(0.408149 0.0750605 0)
(0.285844 0.0459009 7.50633e-18)
(0.173623 0.0179428 0)
(0.0719212 -0.00647504 0)
(-0.0211236 -0.0138474 0)
(-0.0455315 -0.0032073 -7.85192e-18)
(-0.0499248 -0.0110804 0)
(-0.0586252 -0.0168874 -6.60373e-18)
(-0.060653 -0.00941572 0)
(-0.0534232 0.00945773 6.36399e-18)
(-0.0569645 0.0140724 3.09088e-18)
(-0.0644778 0.00743372 0)
(-0.0710221 -0.00206749 -2.9461e-18)
(-0.0760985 -0.0104945 0)
(-0.0778924 -0.0151102 0)
(-0.0767851 -0.0160968 5.67537e-18)
(-0.0737082 -0.0144473 0)
(-0.0700381 -0.0110019 1.43638e-18)
(-0.0670391 -0.00628481 -4.31581e-18)
(-0.0657285 -0.000969783 0)
(-0.0661772 0.00399313 0)
(-0.0686323 0.00815892 -7.11009e-19)
(-0.0729981 0.011098 0)
(-0.0785941 0.0122828 -7.95144e-21)
(-0.0845032 0.0112926 0)
(-0.089643 0.00805517 6.79589e-19)
(-0.0931209 0.00296661 8.43647e-20)
(-0.0943685 -0.00291835 0)
(-0.0928643 -0.00903594 1.76957e-19)
(-0.0886016 -0.0138685 -3.72749e-19)
(-0.082353 -0.0159247 -3.97502e-19)
(-0.075475 -0.0143457 -8.51729e-19)
(-0.0695414 -0.00872228 9.09572e-19)
(-0.0657089 0.000811127 8.43816e-19)
(-0.0649172 0.0135768 0)
(-0.067976 0.0281771 1.78722e-18)
(-0.0752802 0.0430266 -3.5869e-18)
(-0.0863906 0.0564325 0)
(-0.099884 0.0673094 -1.59392e-18)
(-0.113476 0.0750371 2.85147e-18)
(-0.124418 0.0792104 0)
(-0.130059 0.079792 -1.31984e-18)
(-0.128299 0.0771965 9.62235e-19)
(-0.117658 0.0722117 -8.97463e-19)
(-0.0973433 0.0650318 -8.92111e-19)
(-0.0677255 0.055695 0)
(-0.0302094 0.0433747 -2.44464e-18)
(0.0135464 0.0272013 -1.15011e-18)
(0.0623111 0.00660879 1.12876e-18)
(0.112917 -0.0193088 1.18486e-18)
(0.161019 -0.047049 2.17461e-18)
(0.203058 -0.0716282 0)
(0.240163 -0.0913908 0)
(0.273793 -0.106222 0)
(0.305594 -0.115911 -1.98506e-18)
(0.337051 -0.120662 0)
(0.368917 -0.121037 4.96717e-18)
(0.401598 -0.117958 0)
(0.435336 -0.112451 -2.83478e-18)
(0.470263 -0.105425 -6.13159e-18)
(0.506455 -0.0976094 0)
(0.543968 -0.0895336 -3.08608e-18)
(0.582832 -0.0815322 3.07998e-18)
(0.623061 -0.0737465 0)
(0.664662 -0.0660988 0)
(0.707749 -0.0584037 0)
(0.75239 -0.0505558 -5.56685e-18)
(0.799229 -0.0426146 0)
(0.847255 -0.0350997 -1.92762e-18)
(0.901318 -0.0286224 3.33283e-18)
(0.945122 -0.0252141 0)
(1.03021 -0.0269342 3.98013e-19)
(0.970611 0.209119 0)
(0.963917 0.194772 1.67831e-18)
(0.966431 0.198526 0)
(0.977154 0.206425 1.82894e-18)
(0.982034 0.208909 -3.2579e-18)
(0.968288 0.204296 -1.4626e-18)
(0.930731 0.193758 0)
(0.870719 0.177906 0)
(0.791056 0.156601 0)
(0.695293 0.131355 1.47144e-18)
(0.589285 0.105445 1.50713e-18)
(0.479787 0.0807216 0)
(0.368949 0.0579844 0)
(0.266432 0.0375788 0)
(0.179404 0.018427 0)
(0.100172 0.00255242 6.98787e-18)
(0.0301451 -0.00944121 -3.68825e-18)
(-0.028775 -0.00742327 0)
(-0.0305464 0.00380299 -3.56706e-18)
(-0.0349038 0.00469964 1.74774e-18)
(-0.038491 0.00163638 3.45415e-18)
(-0.0453673 -0.00403863 0)
(-0.0560191 -0.00870381 0)
(-0.0669538 -0.0105889 -3.25954e-18)
(-0.0748632 -0.00937377 0)
(-0.0794202 -0.00579626 -1.60966e-18)
(-0.0818919 -0.000871585 1.61449e-18)
(-0.083878 0.00438909 0)
(-0.0864049 0.00990638 0)
(-0.0903276 0.015158 7.79207e-19)
(-0.0957696 0.0190651 0)
(-0.102345 0.0206002 -7.45087e-19)
(-0.109111 0.018907 0)
(-0.114826 0.013659 -1.91264e-19)
(-0.118052 0.00525825 -9.26633e-20)
(-0.11851 -0.00521507 -2.2083e-20)
(-0.115719 -0.015648 -2.85278e-19)
(-0.108499 -0.0238835 4.06418e-19)
(-0.0974691 -0.0276942 4.35054e-19)
(-0.0838758 -0.0262225 1.42358e-18)
(-0.0691035 -0.0189884 -4.84074e-19)
(-0.0550162 -0.00637034 5.10474e-19)
(-0.042959 0.0104302 0)
(-0.0331464 0.0295028 1.23058e-18)
(-0.0258219 0.0484597 1.03318e-18)
(-0.0210046 0.0648069 0)
(-0.0176028 0.0762 1.9957e-18)
(-0.0138104 0.0809317 9.17863e-19)
(-0.00760376 0.0780596 0)
(0.00198768 0.0675 -2.13174e-18)
(0.0198679 0.0499748 -1.29788e-18)
(0.0468915 0.0279324 6.93572e-19)
(0.0812002 0.0038855 1.05481e-18)
(0.121774 -0.0200127 0)
(0.168965 -0.0426056 4.32156e-19)
(0.220665 -0.0634607 1.41399e-18)
(0.274538 -0.0824828 9.59274e-19)
(0.328245 -0.0998228 -9.80925e-19)
(0.379203 -0.115814 -5.63615e-19)
(0.425269 -0.129554 0)
(0.466013 -0.140299 0)
(0.502254 -0.147589 0)
(0.535184 -0.151312 2.65657e-18)
(0.565823 -0.151762 9.96425e-19)
(0.594964 -0.149462 0)
(0.623272 -0.145032 -2.36055e-18)
(0.651321 -0.13911 2.59891e-18)
(0.679548 -0.132276 -2.63234e-18)
(0.70825 -0.125007 -2.71963e-18)
(0.737599 -0.117646 1.45688e-19)
(0.767678 -0.110387 -2.94343e-18)
(0.798518 -0.103271 0)
(0.830137 -0.0962203 0)
(0.862637 -0.089119 0)
(0.896109 -0.0819455 0)
(0.931063 -0.0748282 0)
(0.966864 -0.0682899 3.78484e-18)
(1.00679 -0.0627866 -1.38898e-18)
(1.03947 -0.0601754 0)
(1.10027 -0.0606115 -4.26136e-19)
(0.972988 0.216083 0)
(0.965832 0.201814 2.04425e-18)
(0.959207 0.195611 2.6979e-19)
(0.961491 0.195563 2.06176e-18)
(0.972672 0.19756 0)
(0.985525 0.199267 -1.74318e-18)
(0.992501 0.199335 0)
(0.988447 0.196299 -3.92921e-19)
(0.970191 0.189084 0)
(0.935568 0.177628 -1.74789e-18)
(0.88462 0.162842 -1.35478e-18)
(0.819441 0.145773 -3.43088e-19)
(0.743029 0.126819 3.4081e-19)
(0.657631 0.106182 0)
(0.568538 0.0853813 3.41435e-19)
(0.478579 0.0664066 0)
(0.39263 0.0504746 2.89145e-18)
(0.313289 0.0367241 -3.81606e-19)
(0.246833 0.0249652 0)
(0.193068 0.0155931 -2.04731e-18)
(0.149163 0.00858103 0)
(0.111765 0.00373919 0)
(0.0799602 0.00045305 0)
(0.0522244 -0.00260349 0)
(0.0289967 -0.00542984 -2.41902e-19)
(0.0111516 -0.0064883 0)
(0.00025987 -0.00387579 0)
(-0.00413167 0.00218204 1.28772e-19)
(-0.00547713 0.00977278 0)
(-0.00537072 0.0173363 0)
(-0.00553036 0.0228468 0)
(-0.00630682 0.0248569 -5.7152e-20)
(-0.00710185 0.0224669 0)
(-0.0073656 0.0152953 -2.50588e-19)
(-0.00678268 0.0036995 0)
(-0.00395411 -0.0111982 2.86319e-20)
(0.000257437 -0.0259774 1.47279e-19)
(0.00620133 -0.0384908 3.08009e-20)
(0.0139674 -0.0465148 -6.71909e-20)
(0.0235493 -0.048388 -5.74553e-19)
(0.0363926 -0.0429316 -6.12217e-19)
(0.0534386 -0.0298684 6.43962e-19)
(0.0741506 -0.0102564 -1.73945e-19)
(0.0963672 0.0127708 -1.29148e-18)
(0.119534 0.0353106 1.20855e-18)
(0.143742 0.0544354 -1.43402e-19)
(0.168942 0.0675921 0)
(0.195579 0.0728943 -8.28469e-19)
(0.224492 0.069448 0)
(0.256672 0.0570721 5.53487e-19)
(0.292686 0.0367694 0)
(0.330876 0.0100803 3.70793e-19)
(0.372268 -0.0207627 0)
(0.417367 -0.0515705 -7.9178e-20)
(0.46434 -0.0795884 -3.38728e-19)
(0.511559 -0.103642 -3.6762e-19)
(0.557538 -0.123504 1.07035e-19)
(0.60079 -0.139634 0)
(0.640032 -0.152646 4.92464e-19)
(0.674443 -0.162705 -1.49888e-19)
(0.703952 -0.16971 0)
(0.729148 -0.173637 1.90444e-19)
(0.750922 -0.174673 -8.42532e-19)
(0.770197 -0.173179 -9.48968e-19)
(0.787815 -0.169602 0)
(0.804504 -0.164428 2.29883e-18)
(0.820861 -0.158152 0)
(0.837336 -0.151239 2.61712e-18)
(0.854235 -0.144067 2.73187e-18)
(0.871752 -0.136904 2.81225e-18)
(0.89001 -0.129892 3.3869e-19)
(0.909107 -0.123063 0)
(0.929159 -0.11638 0)
(0.950361 -0.109795 0)
(0.9729 -0.103338 -2.97193e-19)
(0.997264 -0.0971584 0)
(1.02297 -0.0916799 -1.73082e-18)
(1.05254 -0.0872758 1.69583e-18)
(1.07694 -0.085235 1.08133e-19)
(1.1234 -0.0855736 4.69733e-20)
(0.974194 0.218515 -1.33471e-18)
(0.970935 0.20637 1.29065e-18)
(0.96512 0.198183 -3.05291e-19)
(0.96114 0.194127 0)
(0.962201 0.191964 0)
(0.968267 0.190573 0)
(0.977783 0.189924 0)
(0.988516 0.189533 1.35556e-18)
(0.997443 0.188375 0)
(1.00093 0.185446 -1.21152e-18)
(0.995753 0.180072 -1.51241e-18)
(0.979785 0.172052 3.48038e-19)
(0.952559 0.161613 1.04763e-18)
(0.914112 0.148865 0)
(0.865273 0.134021 -1.60373e-18)
(0.807689 0.118196 0)
(0.745314 0.102884 -1.28017e-18)
(0.682698 0.0884636 3.20564e-19)
(0.621897 0.0748975 -1.33381e-18)
(0.565118 0.0625168 -1.02378e-18)
(0.513072 0.0515125 0)
(0.465864 0.0419319 0)
(0.42354 0.0336375 -7.36536e-19)
(0.385912 0.0264324 0)
(0.352445 0.0201533 -5.93506e-19)
(0.322328 0.014755 0)
(0.294989 0.0105626 0)
(0.271002 0.00855372 -1.07649e-19)
(0.252402 0.00957502 0)
(0.241171 0.0132409 0)
(0.237633 0.0176782 0)
(0.240562 0.0204446 4.94199e-20)
(0.248099 0.0195834 1.86439e-19)
(0.25859 0.0139336 1.12384e-19)
(0.26982 0.00348326 0)
(0.280493 -0.0101289 0)
(0.28956 -0.0245407 -2.32244e-20)
(0.295017 -0.0373756 -1.26334e-19)
(0.296732 -0.0471034 5.52092e-20)
(0.295182 -0.0527201 0)
(0.29172 -0.0535321 0)
(0.28904 -0.0491298 -2.95534e-19)
(0.290773 -0.0394886 1.52712e-19)
(0.300089 -0.0248573 -6.28296e-19)
(0.31894 -0.00673283 5.99538e-19)
(0.346688 0.0114556 1.33165e-19)
(0.380499 0.025585 0)
(0.418188 0.0321519 3.97933e-19)
(0.458612 0.0285201 0)
(0.501613 0.0135014 0)
(0.546944 -0.0112873 0)
(0.593317 -0.0419405 0)
(0.639334 -0.0740978 0)
(0.683722 -0.104596 6.94395e-20)
(0.724947 -0.130966 0)
(0.761997 -0.151918 3.89258e-19)
(0.794383 -0.167448 -9.91614e-20)
(0.821861 -0.178307 0)
(0.844372 -0.185441 5.54041e-19)
(0.862077 -0.189585 1.46593e-19)
(0.875434 -0.191203 7.00093e-19)
(0.885207 -0.190636 -1.91618e-19)
(0.892321 -0.188208 0)
(0.897704 -0.184254 -9.67758e-19)
(0.902192 -0.179117 0)
(0.906479 -0.173142 0)
(0.911121 -0.166658 -1.22501e-18)
(0.916534 -0.159963 0)
(0.92301 -0.153292 0)
(0.930751 -0.146804 -1.39233e-18)
(0.939908 -0.14058 -3.69066e-19)
(0.950627 -0.134634 0)
(0.963073 -0.128946 0)
(0.977471 -0.123492 0)
(0.994 -0.118302 3.31164e-19)
(1.01306 -0.113481 -1.13369e-18)
(1.03412 -0.109321 -2.54439e-19)
(1.05932 -0.106071 -1.97402e-19)
(1.08034 -0.104556 -1.22294e-19)
(1.12172 -0.104859 -2.53437e-19)
(0.974501 0.219011 4.70274e-18)
(0.973757 0.208041 -4.51357e-18)
(0.971715 0.200434 0)
(0.969161 0.196225 -2.73584e-18)
(0.967057 0.192957 0)
(0.966172 0.189339 -2.41455e-18)
(0.967429 0.185854 0)
(0.971685 0.183057 3.21574e-18)
(0.978999 0.180796 -3.99591e-18)
(0.988311 0.178573 1.82882e-18)
(0.997724 0.175895 1.71074e-18)
(1.00501 0.172313 0)
(1.00814 0.167477 -4.62317e-18)
(1.00546 0.160974 -2.94283e-18)
(0.995561 0.15246 4.14191e-18)
(0.977698 0.142229 0)
(0.952866 0.131149 1.27048e-18)
(0.923506 0.119951 0)
(0.891427 0.108736 1.26158e-18)
(0.857929 0.097416 1.25789e-18)
(0.824012 0.0862164 0)
(0.7906 0.0754917 0)
(0.758487 0.0655202 -6.89113e-19)
(0.72821 0.0564453 0)
(0.69993 0.0483741 6.78095e-19)
(0.673622 0.0415175 0)
(0.649343 0.0361291 0)
(0.627454 0.0322704 0)
(0.60879 0.0295607 0)
(0.594571 0.0272238 0)
(0.585978 0.0242649 0)
(0.583513 0.0196672 0)
(0.586659 0.0125423 1.67397e-19)
(0.594614 0.002348 -7.61776e-20)
(0.605094 -0.0101776 3.88265e-20)
(0.615878 -0.0231098 0)
(0.625618 -0.0349078 0)
(0.633237 -0.0440155 8.55714e-20)
(0.638325 -0.0492727 -3.8865e-19)
(0.640982 -0.0502127 4.24678e-19)
(0.641536 -0.0470335 0)
(0.640525 -0.0405448 1.23013e-18)
(0.638812 -0.0321181 -1.02938e-18)
(0.637621 -0.0233578 -5.19975e-19)
(0.639071 -0.0155633 -5.21333e-19)
(0.64592 -0.00972843 0)
(0.661068 -0.00719963 0)
(0.685535 -0.0100066 -1.12545e-18)
(0.718522 -0.0199472 0)
(0.757478 -0.0375751 0)
(0.798847 -0.0616698 0)
(0.838867 -0.0894665 3.83861e-19)
(0.874767 -0.117375 7.28268e-19)
(0.904943 -0.142417 0)
(0.928666 -0.162664 0)
(0.946016 -0.177424 -3.86703e-19)
(0.957645 -0.187098 0)
(0.964392 -0.192658 1.09332e-18)
(0.967095 -0.195173 6.48979e-19)
(0.966544 -0.195493 0)
(0.963536 -0.194176 7.95508e-19)
(0.958897 -0.191567 1.72501e-18)
(0.953452 -0.187917 1.91735e-18)
(0.947952 -0.183449 1.05998e-18)
(0.943031 -0.178381 -2.30952e-18)
(0.939191 -0.172925 2.49679e-18)
(0.936814 -0.167287 4.03309e-18)
(0.936171 -0.161649 0)
(0.937448 -0.156163 0)
(0.940773 -0.150938 1.56566e-18)
(0.94625 -0.146035 0)
(0.953991 -0.141475 3.10291e-18)
(0.964122 -0.137244 3.05457e-18)
(0.976809 -0.13332 0)
(0.992145 -0.129701 2.75154e-18)
(1.0104 -0.126426 -1.18922e-18)
(1.03093 -0.123665 0)
(1.05565 -0.121535 0)
(1.07637 -0.120645 0)
(1.11712 -0.12098 -2.08526e-19)
(0.974733 0.218939 -3.61772e-18)
(0.975458 0.208207 3.46239e-18)
(0.976058 0.201068 -6.71298e-18)
(0.975939 0.19738 3.09423e-18)
(0.974879 0.194479 0)
(0.973207 0.190811 2.73077e-18)
(0.971496 0.186618 -5.22282e-18)
(0.970487 0.182384 -4.84944e-18)
(0.971014 0.17819 -7.89936e-20)
(0.973734 0.174032 0)
(0.978852 0.169981 0)
(0.986034 0.16601 3.8807e-18)
(0.994464 0.16189 3.55974e-18)
(1.00297 0.15721 -3.52809e-18)
(1.01014 0.151579 -9.60817e-18)
(1.01451 0.144896 0)
(1.0152 0.137447 0)
(1.01224 0.129504 0)
(1.00612 0.120996 0)
(0.997246 0.111859 0)
(0.986078 0.102317 0)
(0.973187 0.0927272 0)
(0.959219 0.0833939 1.3364e-18)
(0.944745 0.0745222 -2.79351e-18)
(0.930206 0.0663051 0)
(0.915986 0.0589669 0)
(0.902539 0.0526562 0)
(0.890444 0.047286 0)
(0.880397 0.0424332 0)
(0.873103 0.0373574 -7.02285e-19)
(0.869074 0.0311642 0)
(0.868413 0.0230915 0)
(0.870704 0.0126915 1.76217e-20)
(0.874836 0.000204485 0)
(0.879076 -0.0134929 -3.63958e-20)
(0.882226 -0.0269292 0)
(0.883611 -0.0386944 1.6755e-19)
(0.883002 -0.0475444 0)
(0.880678 -0.0526691 7.5872e-19)
(0.877361 -0.0538297 -4.08866e-19)
(0.874026 -0.0513214 -8.91478e-19)
(0.871788 -0.0458661 -9.4623e-19)
(0.871802 -0.0384573 9.85779e-19)
(0.875005 -0.0302762 9.98448e-19)
(0.88188 -0.022898 1.93731e-18)
(0.892768 -0.0185067 1.84172e-18)
(0.908295 -0.0191972 0)
(0.928386 -0.0265076 -7.95359e-19)
(0.951849 -0.0408928 0)
(0.976467 -0.0615796 0)
(0.999628 -0.0864935 -1.02291e-18)
(1.01889 -0.112599 -3.85019e-19)
(1.03263 -0.136824 1.60317e-19)
(1.04031 -0.157006 0)
(1.04225 -0.172141 0)
(1.03934 -0.182226 0)
(1.03274 -0.187988 1.1449e-18)
(1.02354 -0.190473 -1.19525e-18)
(1.01268 -0.19069 -1.35217e-18)
(1.00089 -0.18942 0)
(0.988787 -0.187172 -1.72389e-18)
(0.976926 -0.184243 3.03676e-20)
(0.965828 -0.18082 -2.15984e-18)
(0.955951 -0.17704 2.38928e-18)
(0.947678 -0.173025 1.37261e-20)
(0.941304 -0.168889 -2.8302e-18)
(0.937046 -0.164744 -3.02941e-18)
(0.93505 -0.160697 0)
(0.935411 -0.156845 0)
(0.938199 -0.153268 0)
(0.94347 -0.150017 0)
(0.951297 -0.147107 -3.52164e-18)
(0.96176 -0.144527 -3.46455e-18)
(0.974973 -0.142238 0)
(0.990965 -0.140203 -3.11641e-18)
(1.00991 -0.138392 5.5303e-18)
(1.03107 -0.136882 0)
(1.05619 -0.135663 0)
(1.07725 -0.135335 0)
(1.11774 -0.135416 9.7648e-19)
(0.975035 0.218503 8.93712e-18)
(0.977128 0.207481 0)
(0.979625 0.200817 1.53553e-17)
(0.980945 0.197732 0)
(0.980752 0.195196 6.69421e-18)
(0.979846 0.191844 0)
(0.978667 0.187937 5.90207e-18)
(0.977198 0.183705 0)
(0.975626 0.17905 -5.42022e-18)
(0.974469 0.173974 0)
(0.974314 0.168653 9.56758e-18)
(0.975645 0.163251 -4.43584e-18)
(0.978763 0.157805 0)
(0.983693 0.15222 7.88451e-18)
(0.9901 0.146349 -1.85262e-19)
(0.997335 0.140106 -7.18816e-18)
(1.00454 0.133613 6.96002e-18)
(1.01102 0.126928 0)
(1.01638 0.11987 0)
(1.02032 0.112314 6.51822e-18)
(1.02264 0.104347 0)
(1.02334 0.096176 -3.17181e-18)
(1.02261 0.088007 0)
(1.02074 0.0800156 3.02631e-18)
(1.01804 0.0723781 0)
(1.01488 0.065262 3.1359e-18)
(1.0117 0.0587415 0)
(1.00902 0.0526939 0)
(1.00733 0.0467297 1.54711e-18)
(1.00695 0.0402166 7.35587e-19)
(1.00791 0.0324504 0)
(1.00983 0.0229081 0)
(1.01204 0.0114573 -1.05885e-18)
(1.01353 -0.00135225 0)
(1.01331 -0.0145617 0)
(1.01087 -0.0269428 0)
(1.00622 -0.0373454 -1.7634e-19)
(0.999801 -0.044889 0)
(0.992417 -0.0490987 -1.24915e-18)
(0.985141 -0.0499733 -8.9649e-19)
(0.97912 -0.0479515 9.45739e-19)
(0.975393 -0.0438479 0)
(0.974768 -0.0387821 0)
(0.97779 -0.0340701 2.07444e-18)
(0.98476 -0.0311421 -2.04425e-18)
(0.995639 -0.0314191 -1.94342e-18)
(1.00984 -0.0360974 0)
(1.02616 -0.045926 -9.16623e-20)
(1.04285 -0.0609438 1.53698e-18)
(1.05786 -0.0800495 0)
(1.06926 -0.101306 1.10666e-18)
(1.07573 -0.122414 1.18412e-18)
(1.07683 -0.141299 -9.96669e-19)
(1.07293 -0.156595 0)
(1.06497 -0.167774 0)
(1.05404 -0.175005 0)
(1.04121 -0.178941 -1.29277e-18)
(1.02737 -0.180438 0)
(1.01319 -0.18031 0)
(0.999173 -0.179186 0)
(0.98574 -0.177475 4.10449e-18)
(0.973256 -0.175405 -2.24068e-18)
(0.962063 -0.1731 0)
(0.952465 -0.170632 -2.72179e-18)
(0.944716 -0.168064 -2.9507e-18)
(0.939015 -0.165457 6.34323e-18)
(0.935501 -0.162881 -6.7398e-18)
(0.934273 -0.160408 -7.08676e-18)
(0.935399 -0.158118 0)
(0.938928 -0.156077 -7.57267e-18)
(0.944908 -0.154334 0)
(0.953405 -0.152908 0)
(0.964497 -0.151787 0)
(0.978293 -0.15092 7.22323e-18)
(0.9948 -0.150228 -6.7361e-18)
(1.01413 -0.149615 -9.11942e-18)
(1.03551 -0.149068 0)
(1.06049 -0.148483 3.94754e-18)
(1.08144 -0.148505 0)
(1.12069 -0.148055 -1.60809e-18)
(0.975434 0.217691 -1.01374e-17)
(0.979144 0.206095 -9.85656e-18)
(0.983425 0.200253 -1.76668e-17)
(0.985584 0.198008 0)
(0.985492 0.195695 -1.52165e-17)
(0.984795 0.192436 -7.24414e-18)
(0.984214 0.188757 0)
(0.983472 0.184761 1.29125e-17)
(0.982379 0.180248 1.20653e-17)
(0.981068 0.175168 0)
(0.97975 0.169613 -1.08203e-17)
(0.978671 0.163681 0)
(0.978148 0.157436 0)
(0.978521 0.150907 9.36266e-18)
(0.980019 0.144098 8.68875e-18)
(0.982717 0.137037 -1.80791e-19)
(0.986473 0.129925 1.83113e-19)
(0.991009 0.122892 0)
(0.99601 0.115812 0)
(1.00108 0.108548 -7.46871e-18)
(1.00584 0.101093 -7.55206e-18)
(1.01001 0.0935381 1.10787e-17)
(1.01349 0.0860043 3.69552e-18)
(1.01631 0.0786084 3.67223e-18)
(1.01859 0.0714656 0)
(1.02051 0.0646711 -3.53895e-18)
(1.02236 0.0582389 0)
(1.02446 0.0520271 0)
(1.02705 0.0456966 -3.51895e-18)
(1.03017 0.038754 0)
(1.03354 0.0307006 0)
(1.03661 0.0212268 0)
(1.03861 0.0104354 8.04163e-19)
(1.03883 -0.00122086 -4.16943e-19)
(1.0367 -0.0129502 2.08253e-19)
(1.03209 -0.0237939 0)
(1.0253 -0.0328919 0)
(1.01704 -0.0396502 0)
(1.00824 -0.0437912 9.43938e-19)
(1.00001 -0.0453999 1.00674e-18)
(0.993424 -0.0448961 -2.15128e-18)
(0.989426 -0.0429635 0)
(0.988716 -0.0404703 0)
(0.991689 -0.0383888 -4.65144e-18)
(0.998383 -0.0377766 -2.30843e-18)
(1.00838 -0.0397518 0)
(1.02077 -0.0452986 0)
(1.03419 -0.0549466 1.90351e-18)
(1.04696 -0.0685617 1.13275e-19)
(1.05746 -0.085225 0)
(1.06443 -0.103421 0)
(1.06724 -0.121371 -1.34458e-18)
(1.06595 -0.137452 0)
(1.06112 -0.150548 0)
(1.05349 -0.160199 0)
(1.0438 -0.166526 0)
(1.03271 -0.170061 0)
(1.02078 -0.171533 -3.5471e-18)
(1.00847 -0.171656 0)
(0.996209 -0.171002 0)
(0.984379 -0.16995 7.45527e-20)
(0.973342 -0.168713 0)
(0.963435 -0.167396 0)
(0.95496 -0.166049 0)
(0.948167 -0.164702 1.3407e-17)
(0.943253 -0.163382 -7.18276e-18)
(0.940366 -0.162125 7.62399e-18)
(0.939607 -0.160978 4.74093e-20)
(0.94105 -0.159997 0)
(0.944751 -0.159237 8.5437e-18)
(0.950763 -0.158745 -8.57903e-18)
(0.959163 -0.158544 0)
(0.970049 -0.158624 0)
(0.983541 -0.158917 -8.63517e-20)
(0.999631 -0.159293 7.58648e-18)
(1.01838 -0.159589 6.8105e-18)
(1.03901 -0.159706 0)
(1.06293 -0.159509 -4.46438e-18)
(1.08299 -0.159631 0)
(1.12011 -0.15851 1.21001e-18)
(0.975986 0.216475 0)
(0.981693 0.204219 2.26865e-17)
(0.987772 0.199654 2.02116e-17)
(0.990446 0.198422 0)
(0.990129 0.196252 8.64497e-18)
(0.989282 0.192996 -8.35075e-18)
(0.988788 0.189418 0)
(0.988303 0.185502 -1.46006e-17)
(0.987641 0.181051 0)
(0.986893 0.176065 0)
(0.986096 0.170604 0)
(0.985222 0.164697 0)
(0.984312 0.158356 0)
(0.98349 0.151584 1.81592e-19)
(0.982909 0.144391 -1.02238e-17)
(0.982721 0.136826 -1.80871e-19)
(0.983074 0.129132 1.82563e-19)
(0.984062 0.121528 0)
(0.985663 0.113976 0)
(0.987721 0.106393 0)
(0.990006 0.0987703 -2.05667e-19)
(0.992317 0.0911755 2.09406e-19)
(0.994543 0.0836944 -4.23142e-18)
(0.996654 0.0764042 -4.20566e-18)
(0.998682 0.0693693 0)
(1.00073 0.0626291 -4.27403e-18)
(1.00296 0.0561568 4.25494e-18)
(1.00555 0.0498107 0)
(1.0086 0.0433137 2.04397e-18)
(1.01202 0.0362971 2.07333e-18)
(1.0155 0.0284131 0)
(1.01845 0.0194806 0)
(1.02022 0.00960587 1.00496e-18)
(1.02027 -0.000861403 -2.03402e-20)
(1.01821 -0.0112637 -4.85799e-19)
(1.01399 -0.0208418 0)
(1.00793 -0.0289482 0)
(1.00066 -0.0351464 -1.07673e-18)
(0.992996 -0.0392577 0)
(0.985874 -0.0413916 -1.18407e-18)
(0.980216 -0.0419205 -2.31368e-20)
(0.97683 -0.0414241 0)
(0.97632 -0.0406348 2.64019e-18)
(0.979018 -0.0403862 5.32142e-18)
(0.984933 -0.0415676 2.62629e-18)
(0.993699 -0.045045 0)
(1.00453 -0.0515069 -4.97951e-18)
(1.01629 -0.0612722 0)
(1.02766 -0.0741586 -2.09811e-18)
(1.03741 -0.0893946 0)
(1.04464 -0.105736 0)
(1.04894 -0.121726 0)
(1.05028 -0.136017 0)
(1.04891 -0.147642 0)
(1.04513 -0.156168 -3.4739e-18)
(1.03923 -0.161684 3.59925e-18)
(1.0315 -0.164678 0)
(1.02232 -0.165847 4.02084e-18)
(1.01212 -0.165894 -4.50235e-18)
(1.00139 -0.165383 0)
(0.990624 -0.164685 -5.37237e-18)
(0.980292 -0.163997 0)
(0.970815 -0.163396 0)
(0.962549 -0.162896 0)
(0.955781 -0.162485 -7.57773e-18)
(0.950727 -0.162156 8.09987e-18)
(0.947543 -0.161913 -8.55812e-18)
(0.946336 -0.161777 1.79391e-17)
(0.947177 -0.161787 -9.27915e-18)
(0.950113 -0.161989 0)
(0.955199 -0.162431 9.6748e-18)
(0.962519 -0.163143 -9.59828e-18)
(0.972182 -0.164115 0)
(0.984312 -0.165257 -5.7046e-20)
(0.998889 -0.166379 -8.42101e-18)
(1.01597 -0.16727 0)
(1.0348 -0.167759 0)
(1.05686 -0.167771 -4.97688e-18)
(1.07536 -0.167783 0)
(1.11016 -0.16609 -1.34568e-18)
(0.976761 0.214805 0)
(0.984937 0.202014 -1.30596e-17)
(0.992773 0.199211 -1.14917e-17)
(0.995654 0.199001 0)
(0.994991 0.196886 1.98183e-17)
(0.993969 0.193656 1.87135e-17)
(0.993407 0.190168 0)
(0.992853 0.186242 1.68352e-17)
(0.992195 0.181734 -1.59813e-17)
(0.991606 0.176727 0)
(0.991138 0.171288 0)
(0.990722 0.165426 0)
(0.9903 0.159133 0)
(0.989856 0.152394 -1.21547e-17)
(0.989383 0.145196 -1.19088e-17)
(0.988896 0.137559 1.09654e-17)
(0.98847 0.129707 -3.2401e-17)
(0.988221 0.121877 0)
(0.988216 0.114075 0)
(0.98843 0.106259 1.03501e-17)
(0.988779 0.0984446 2.02471e-17)
(0.989186 0.0906997 -9.92184e-18)
(0.989622 0.0831028 0)
(0.990102 0.0757153 0)
(0.990681 0.0685784 -4.98251e-18)
(0.991454 0.0617045 9.82957e-18)
(0.992552 0.0550501 -9.79211e-18)
(0.994108 0.0484846 0)
(0.996188 0.0417832 0)
(0.998711 0.0346648 -2.36585e-18)
(1.00141 0.0268803 0)
(1.00381 0.0183185 2.38125e-18)
(1.0054 0.00907082 -1.14238e-18)
(1.00569 -0.000552017 -1.87554e-20)
(1.00431 -0.010005 -9.29705e-21)
(1.00119 -0.018682 0)
(0.996537 -0.0260749 0)
(0.990812 -0.0318641 -2.70467e-20)
(0.984659 -0.035954 1.30476e-18)
(0.978832 -0.0384882 4.07181e-18)
(0.974112 -0.0398249 5.65602e-18)
(0.971214 -0.040485 2.94327e-18)
(0.970701 -0.0410989 -2.99477e-18)
(0.972924 -0.0423539 -3.02698e-18)
(0.977961 -0.0449465 3.04606e-18)
(0.985577 -0.0495304 0)
(0.99519 -0.0566216 5.64138e-18)
(1.00593 -0.0664503 -5.50656e-18)
(1.01678 -0.0788414 0)
(1.02678 -0.0931526 0)
(1.0352 -0.108344 0)
(1.04162 -0.123157 0)
(1.04584 -0.136363 0)
(1.04773 -0.147014 0)
(1.04716 -0.154645 3.9167e-18)
(1.04401 -0.159325 -8.24062e-18)
(1.03833 -0.161569 -4.40629e-18)
(1.03041 -0.16213 4.73694e-18)
(1.02076 -0.161763 5.08492e-18)
(1.01003 -0.161064 -5.66434e-18)
(0.99887 -0.160407 6.22281e-18)
(0.98789 -0.159968 0)
(0.977599 -0.159792 7.42762e-18)
(0.968401 -0.159849 -8.0363e-18)
(0.960605 -0.160092 0)
(0.954431 -0.160472 -1.83463e-17)
(0.950029 -0.160964 9.68339e-18)
(0.947489 -0.161558 -2.02641e-17)
(0.946858 -0.162274 1.05042e-17)
(0.948165 -0.163145 0)
(0.951447 -0.164222 1.08747e-17)
(0.956782 -0.165541 1.08857e-17)
(0.964276 -0.167091 -1.06502e-17)
(0.974053 -0.168755 -1.02613e-17)
(0.986111 -0.170304 9.58973e-18)
(1.00059 -0.171514 0)
(1.01685 -0.17217 0)
(1.03664 -0.172345 5.71035e-18)
(1.05328 -0.172177 0)
(1.08658 -0.170286 1.55463e-18)
(0.977833 0.212618 1.71942e-17)
(0.988996 0.199654 0)
(0.998474 0.199065 -2.58817e-17)
(1.00126 0.199743 2.35011e-17)
(1.00019 0.197603 -2.23904e-17)
(0.999043 0.194453 2.14496e-17)
(0.998418 0.191059 0)
(0.99775 0.187093 1.59914e-19)
(0.996982 0.182501 1.80428e-17)
(0.996328 0.177428 0)
(0.99586 0.171938 0)
(0.995535 0.166037 0)
(0.995314 0.159723 2.96963e-17)
(0.995175 0.152985 0)
(0.99508 0.145808 2.64601e-17)
(0.994983 0.138195 0)
(0.994874 0.130345 4.9379e-17)
(0.994788 0.122487 0)
(0.994748 0.114638 0)
(0.994736 0.106771 -2.3547e-17)
(0.994702 0.0989078 -1.15342e-17)
(0.994613 0.0911131 0)
(0.994477 0.0834572 0)
(0.994342 0.0759934 0)
(0.994286 0.068752 5.62537e-18)
(0.994414 0.0617327 -5.60798e-18)
(0.994855 0.054886 -1.02195e-19)
(0.995732 0.0480929 0)
(0.997111 0.0411658 5.63389e-18)
(0.998942 0.0338838 0)
(1.00102 0.0260674 0)
(1.00298 0.0176536 -2.69461e-18)
(1.0044 0.00874794 1.36275e-18)
(1.00481 -0.000351812 -1.7844e-20)
(1.00388 -0.00918269 3.28627e-19)
(1.00149 -0.0172458 0)
(0.997759 -0.0241367 0)