/*--------------------------------*- C++ -*----------------------------------*\
| =========                 |                                                 |
| \\      /  F ield         | OpenFOAM: The Open Source CFD Toolbox           |
|  \\    /   O peration     | Version:  v1912                                 |
|   \\  /    A nd           | Website:  www.openfoam.com                      |
|    \\/     M anipulation  |                                                 |
\*---------------------------------------------------------------------------*/
FoamFile
{
    version     2.0;
    format      ascii;
    class       volScalarField;
    location    "50";
    object      epsilon;
}
// * * * * * * * * * * * * * * * * * * * * * * * * * * * * * * * * * * * * * //

dimensions      [0 2 -3 0 0 0 0];


internalField   nonuniform List<scalar> 
12441
(
0.0102845
0.00888145
0.00798051
0.00733887
0.00685751
0.00645336
0.00610339
0.00581201
0.00554111
0.00532698
0.0051415
0.00497259
0.00483334
0.00468904
0.00457739
0.00447976
0.00403748
0.0138646
0.195933
2.57484
20.7654
39.25
0.0101024
0.0084325
0.00754645
0.00693916
0.00649555
0.00612301
0.00579841
0.00552961
0.00527507
0.00507783
0.00490716
0.00475136
0.00462455
0.00449286
0.00439122
0.00430539
0.00406897
0.013645
0.185299
2.57395
21.0889
40.2318
0.00988134
0.00798332
0.00716197
0.00659358
0.00617219
0.00581878
0.00551139
0.00525719
0.00501792
0.00483262
0.00467297
0.00452784
0.00441107
0.00428473
0.00419094
0.0041135
0.00402724
0.0125235
0.160003
2.55666
21.5036
41.3784
0.00965824
0.00756307
0.00677975
0.00624227
0.00584305
0.00550848
0.00521788
0.00497781
0.00475232
0.00457861
0.00442968
0.00429576
0.00418886
0.00407721
0.00399188
0.00392343
0.00390176
0.011129
0.133234
2.5468
21.9934
42.5504
0.00941535
0.00716573
0.00644052
0.00593725
0.0055569
0.00523831
0.00496178
0.00473361
0.00452036
0.00435606
0.00421567
0.00408996
0.0039906
0.00388181
0.00380251
0.0037413
0.00371549
0.00993842
0.121454
2.56408
22.51
43.6698
0.00920958
0.00681746
0.00611694
0.00563664
0.00527459
0.00497155
0.00470896
0.00449247
0.00429044
0.00413565
0.004004
0.00388736
0.00379582
0.00370057
0.0036284
0.00357399
0.00357652
0.0106702
0.14476
2.67296
23.105
44.7472
0.00899022
0.00649193
0.00584028
0.00538796
0.00504096
0.00475057
0.00449898
0.00429176
0.00409902
0.00395121
0.00382571
0.00371485
0.00362845
0.00353366
0.00346485
0.00342284
0.00531446
0.0203674
0.251109
2.96045
23.8558
45.7945
0.00881174
0.00620807
0.00557314
0.00513777
0.00480599
0.00452859
0.00428871
0.00409124
0.00390782
0.00376787
0.00364954
0.00354596
0.00346589
0.00338389
0.00333388
0.00444659
0.035533
0.0816685
0.573507
3.55733
24.8534
46.8732
0.00861883
0.00594061
0.0053485
0.00493619
0.00461661
0.0043494
0.00411818
0.00392805
0.00375172
0.00361697
0.00350311
0.00340371
0.00332833
0.00321711
0.00465098
0.0286191
0.202885
0.345926
1.33997
4.61686
26.1949
48.0153
0.00846402
0.00570569
0.00512506
0.00472589
0.00441917
0.00416301
0.0039419
0.0037601
0.00359189
0.00346387
0.00335614
0.00326302
0.00319439
0.00336365
0.0267812
0.178463
0.707897
1.07081
2.73256
6.22971
27.9528
49.2846
0.00829579
0.00548557
0.00494225
0.0045624
0.00426557
0.00401757
0.00380324
0.00362716
0.00346431
0.00334008
0.00323548
0.0031465
0.00306406
0.00903553
0.136245
0.610744
1.73825
2.47567
4.68465
8.34444
30.1557
50.6975
0.00816055
0.0052887
0.00475353
0.00438394
0.00409813
0.00385968
0.00365424
0.00348542
0.0033298
0.00321145
0.00311222
0.00303027
0.00315368
0.0540179
0.447515
1.42296
3.23253
4.42311
6.87584
10.7846
32.7789
52.295
0.00801257
0.00510491
0.00460336
0.00425
0.00397237
0.00374055
0.00354042
0.00337609
0.00322451
0.00310891
0.00301188
0.00290146
0.00759924
0.211548
1.01922
2.5284
4.88627
6.45439
8.98621
13.3501
35.7626
54.0597
0.00789143
0.00493565
0.00444001
0.00409535
0.00382734
0.00360398
0.0034119
0.00325411
0.00310924
0.002999
0.00290686
0.00275336
0.0396897
0.526715
1.76039
3.70069
6.39142
8.21821
10.8617
15.8898
39.0273
56.0037
0.00776118
0.00478231
0.00431598
0.00398504
0.00372379
0.00350574
0.00331772
0.00316335
0.00302138
0.00291301
0.00282228
0.00318991
0.140289
0.965648
2.54706
4.77396
7.62051
9.62772
12.476
18.3128
42.4916
58.0812
0.00765179
0.00463509
0.00417334
0.00384974
0.0035948
0.00338456
0.0032041
0.00305588
0.00292042
0.00281715
0.00273121
0.00871823
0.328269
1.45684
3.28642
5.67678
8.57104
10.7236
13.8514
20.5704
46.0789
60.2902
0.00753695
0.00450659
0.00407099
0.00375871
0.00350997
0.00330381
0.00312623
0.00298041
0.00284674
0.0027445
0.00265984
0.0349942
0.585564
1.94453
3.93697
6.39904
9.28276
11.5672
15.0171
22.6391
49.7252
62.571
0.0074351
0.00437486
0.00394333
0.00363801
0.0033939
0.00319507
0.00302475
0.00288481
0.00275752
0.00266023
0.00258403
0.102057
0.87601
2.3971
4.48686
6.9568
9.79859
12.2081
15.9956
24.5076
53.3777
64.9213
0.00733355
0.0042676
0.00385831
0.00356236
0.00332365
0.00312792
0.00295951
0.00282117
0.0026948
0.00259792
0.002535
0.213321
1.17053
2.8021
4.93851
7.37298
10.153
12.6791
16.8009
26.1709
56.9989
67.2818
0.00723855
0.00414866
0.00374336
0.00345386
0.00321907
0.00303016
0.00286865
0.00273591
0.00261568
0.00252354
0.00311299
0.355601
1.45194
3.15702
5.30015
7.66932
10.3708
13
17.4406
27.627
60.5624
69.6617
0.00714934
0.00405981
0.00367352
0.00339134
0.00316143
0.0029748
0.00281434
0.00268247
0.00256238
0.00247017
0.00942083
0.513729
1.71357
3.46316
5.58152
7.86389
10.4688
13.1807
17.9186
28.8767
64.0559
72.0102
0.00705819
0.00394941
0.00356785
0.00329233
0.00306589
0.00288576
0.00273204
0.00260563
0.00249162
0.00240466
0.0320302
0.676191
1.95349
3.72359
5.79237
7.97083
10.4578
13.2266
18.2392
29.923
67.4775
74.3523
0.00697989
0.00387685
0.00351038
0.0032405
0.00301846
0.00283987
0.00268648
0.00256032
0.00244582
0.0023607
0.077864
0.83681
2.17211
3.94169
5.94145
8.00109
10.3454
13.1431
18.4098
30.7724
70.8395
76.6493
0.00689298
0.00377378
0.00341296
0.00314969
0.0029307
0.00275831
0.00261147
0.00249064
0.00238213
0.00231095
0.143125
0.992526
2.37019
4.12132
6.0366
7.96341
10.1384
12.9392
18.4419
31.4343
74.1644
78.9445
0.00682565
0.00371641
0.00336721
0.00310767
0.00289279
0.00272123
0.00257397
0.00245277
0.00234306
0.00230142
0.219612
1.14214
2.54884
4.26618
6.08462
7.86557
9.84647
12.6299
18.3522
31.9221
77.488
81.212
0.00673956
0.00361711
0.00327544
0.00302321
0.00281116
0.00264569
0.002505
0.00238913
0.00228554
0.00230285
0.301299
1.28537
2.709
4.3801
6.0918
7.71556
9.48327
12.2351
18.1609
32.252
80.8556
83.5114
0.00668132
0.00357273
0.00323878
0.00298879
0.00278057
0.00261533
0.00247364
0.00235691
0.00225168
0.00268357
0.385449
1.42226
2.85181
4.46667
6.06411
7.52244
9.06698
11.7778
17.891
32.4431
84.3226
85.8273
0.00659717
0.00347718
0.00315232
0.00290994
0.00270429
0.00254503
0.00240985
0.00229842
0.00219947
0.00504836
0.47137
1.55294
2.97835
4.52952
6.00765
7.29664
8.61817
11.2821
17.5656
32.5162
87.9481
88.2307
0.00654837
0.00344479
0.00312425
0.00288243
0.00268045
0.00252082
0.00238402
0.00227124
0.00217067
0.011594
0.559279
1.67754
3.08991
4.57202
5.92861
7.04953
8.15729
10.7704
17.2071
32.4938
91.7937
90.7106
0.00646387
0.00335189
0.00304226
0.00280869
0.00260916
0.00245545
0.0023252
0.0022177
0.00212444
0.0247426
0.64967
1.79616
3.18769
4.59763
5.83336
6.79256
7.70273
10.263
16.8356
32.3988
95.9152
93.3406
0.00642247
0.00332752
0.00301952
0.00278569
0.0025896
0.0024351
0.00230285
0.00219373
0.00210071
0.0470383
0.743036
1.90896
3.27307
4.6095
5.72799
6.53631
7.26954
9.77609
16.4682
32.2538
100.361
96.1058
0.00633958
0.00324092
0.00294377
0.00271773
0.0025239
0.00237515
0.00224928
0.00214523
0.00206327
0.0805991
0.839808
2.01611
3.34721
4.61075
5.61819
6.28978
6.86906
9.32246
16.1189
32.0804
105.167
99.0732
0.00630669
0.00322072
0.00292465
0.00269799
0.0025075
0.0023576
0.00222944
0.00212362
0.00204983
0.127277
0.940349
2.11783
3.41142
4.60403
5.50879
6.05998
6.50895
8.91096
15.7982
31.899
110.359
102.217
0.00622179
0.0031435
0.00285651
0.00263677
0.00244842
0.00230408
0.00218201
0.00208092
0.00203303
0.188768
1.04496
2.21437
3.46666
4.59175
5.40372
5.85187
6.19364
8.5472
15.514
31.7278
115.952
105.592
0.0061957
0.00311773
0.00283501
0.00261613
0.00243106
0.00228556
0.0021614
0.00205889
0.00204735
0.26696
1.15387
2.30599
3.51394
4.57568
5.30576
5.66848
5.92484
8.23398
15.2716
31.5831
121.959
109.157
0.0061083
0.00306056
0.00277955
0.00256448
0.00238129
0.00224083
0.00212201
0.00202336
0.00214796
0.363861
1.26715
2.39295
3.55385
4.55721
5.21673
5.51109
5.70212
7.97196
15.0746
31.4792
128.384
112.957
0.00608548
0.00301553
0.00274873
0.00253872
0.0023588
0.00221772
0.00209765
0.00199859
0.00536045
0.481315
1.38463
2.47547
3.58696
4.537
5.13731
5.37951
5.5234
7.76015
14.9256
31.4293
135.229
116.938
0.0059931
0.00298201
0.00270572
0.00249509
0.0023166
0.0021798
0.0020641
0.00196793
0.0396019
0.620083
1.50583
2.55373
3.61341
4.51534
5.06734
5.27235
5.38541
7.5964
14.8264
31.4459
142.472
121.137
0.00596549
0.00292436
0.00267088
0.0024686
0.00229368
0.00215675
0.00204035
0.00194513
0.137677
0.777304
1.62986
2.62791
3.63333
4.49186
5.00579
5.18721
5.28392
7.47774
14.7789
31.5416
150.048
125.495
0.00586042
0.0028864
0.00262388
0.00242181
0.00224828
0.00211593
0.00200429
0.00192149
0.271461
0.94567
1.75552
2.69817
3.64654
4.46597
4.95096
5.12091
5.214
7.40063
14.7859
31.7304
157.806
130.045
0.00581958
0.00282609
0.00258564
0.00239166
0.00222145
0.00208916
0.00197699
0.00204119
0.41162
1.11764
1.88144
2.76477
3.65307
4.43662
4.90054
5.06964
5.17012
7.36116
14.8513
32.0291
165.458
134.727
0.00569749
0.00281053
0.00255381
0.00235642
0.00218834
0.00205991
0.0019511
0.0046324
0.546728
1.28765
2.0064
2.82804
3.65289
4.40286
4.85188
5.02913
5.14632
7.3551
14.9813
32.4593
172.549
139.588
0.00561536
0.00262572
0.00244158
0.00227664
0.00211541
0.001993
0.00189102
0.0149617
0.672874
1.45211
2.12948
2.88851
3.64649
4.36365
4.80199
4.9948
5.13626
7.37803
15.185
33.0506
178.484
144.654
0.00525133
0.00289277
0.0025372
0.00229441
0.00211081
0.00197255
0.0018583
0.0307735
0.787745
1.60846
2.25009
2.94685
3.63462
4.31851
4.74799
4.96194
5.13342
7.42546
15.4757
33.8479
182.65
150.447
95.0235
69.5499
42.719
87.997
98.7577
85.9685
62.457
43.5537
29.3758
22.0859
19.1385
16.7542
14.704
13.917
15.1229
17.9229
21.8796
26.7344
31.49
34.0885
35.2258
33.0939
19.5694
10.609
7.6525
6.69115
6.25997
5.94439
5.80808
6.1056
6.65994
6.97518
6.85635
5.96317
4.98103
94.6475
69.9507
43.6645
106.863
99.7251
84.9715
63.4448
44.3097
29.8914
22.3247
19.228
16.7855
14.6581
13.8034
14.9722
17.7389
21.6538
26.4714
31.2039
33.7869
34.8655
32.7617
19.4418
10.5519
7.62036
6.66651
6.23914
5.92689
5.79345
6.09382
6.64853
6.9623
6.84349
5.95165
4.9723
93.9266
70.4866
44.3848
92.0126
76.6027
71.9771
58.3601
41.8567
29.5123
22.5806
19.3999
16.8549
14.5804
13.5871
14.6754
17.3611
21.1546
25.8366
30.4456
32.9255
33.7565
31.2897
18.875
10.4189
7.55586
6.61786
6.19815
5.89243
5.76458
6.07051
6.62589
6.93671
6.81791
5.92872
4.9549
92.8104
71.1886
44.4008
71.1948
70.8657
74.9821
60.2735
41.761
29.7736
23.0534
19.6656
16.9731
14.4862
13.2862
14.2533
16.8143
20.4091
24.8644
29.2796
31.6242
32.1537
29.2452
18.0302
10.2193
7.46109
6.54675
6.13827
5.84201
5.72225
6.03613
6.59234
6.8987
6.77983
5.89454
4.92895
91.3035
71.9454
43.9945
59.0987
78.4882
89.0002
68.0598
44.2809
30.9426
23.7585
20.026
17.1475
14.3895
12.9246
13.7395
16.1455
19.4688
23.5986
27.7633
29.9903
30.2677
27.0193
17.0413
9.96441
7.33877
6.45514
6.06112
5.77689
5.6674
5.99128
6.5483
6.84861
6.72954
5.84931
4.89457
89.3553
72.6631
43.4681
55.1713
97.7602
106.913
78.4932
48.4663
32.778
24.6247
20.4715
17.3818
14.3052
12.531
13.174
15.4178
18.4261
22.135
25.9903
28.1428
28.2648
24.8331
16.0026
9.66621
7.19217
6.34536
5.9686
5.69853
5.60116
5.93665
6.49424
6.78687
6.66741
5.79331
4.85194
87.0012
73.2687
43.0607
57.3839
127.041
119.121
87.2604
53.0048
34.9032
25.5829
21.0017
17.688
14.2556
12.1349
12.5902
14.6838
17.3857
20.619
24.1037
26.2131
26.271
22.7937
14.9735
9.33621
7.02495
6.21997
5.86278
5.60857
5.52479
5.87304
6.43072
6.71396
6.59384
5.72684
4.80127
84.2135
73.7094
42.9426
64.1684
158.091
121.119
91.2398
56.6602
37.0015
26.623
21.6529
18.1058
14.281
11.7699
12.0142
13.9744
16.4218
19.196
22.2691
24.3307
24.3755
20.9428
13.9876
8.9849
6.84101
6.08171
5.7459
5.50877
5.43963
5.80128
6.35836
6.63041
6.50929
5.65026
4.7428
81.0699
73.952
43.2297
73.6776
176.645
116.692
90.7615
58.9818
38.9882
27.8315
22.5211
18.7211
14.4526
11.4812
11.4731
13.3076
15.5672
17.9584
20.6233
22.6004
22.6357
19.2878
13.0621
8.62156
6.64438
5.93344
5.62025
5.40091
5.34709
5.72227
6.27778
6.53682
6.41429
5.56397
4.67681
77.574
73.983
44.0047
83.8441
176.571
111.364
88.6081
60.6156
41.1239
29.423
23.7867
19.6873
14.8884
11.3363
11.0039
12.7024
14.8305
16.9377
19.2409
21.0882
21.0824
17.8205
12.2043
8.25421
6.43907
5.77801
5.48814
5.28682
5.24858
5.63695
6.18968
6.43381
6.30942
5.46845
4.60361
73.8369
73.8146
45.3646
93.144
165.327
108.64
87.6828
62.9268
44.0239
31.7763
25.7462
21.2548
15.7803
11.4407
10.6604
12.1868
14.2169
16.1297
18.1391
19.8219
19.7267
16.5262
11.416
7.88965
6.22896
5.6182
5.3518
5.16827
5.14551
5.54622
6.09474
6.32203
6.19528
5.36419
4.52356
69.8857
73.487
47.4514
100.833
152.957
110.248
90.1474
67.5206
48.6275
35.4933
28.8709
23.8231
17.4485
11.9685
10.5249
11.8044
13.7403
15.5219
17.3039
18.8028
18.5673
15.389
10.6963
7.53353
6.01767
5.45664
5.21333
5.04693
5.03919
5.451
5.99365
6.20218
6.07255
5.25176
4.43706
65.8489
73.0767
50.5162
106.981
145.146
117.411
97.6691
76.0858
56.212
41.4955
33.8926
28.0215
20.4429
13.2308
10.7317
11.6226
13.4305
15.1106
16.7144
18.0203
17.5969
14.3943
10.0431
7.19045
5.8085
5.29574
5.07467
4.92435
4.93089
5.35214
5.88709
6.07494
5.9419
5.13174
4.34453
61.7626
72.6953
54.9938
113.046
144.334
131.03
111.654
90.2526
68.3448
51.1002
41.8812
34.7851
25.7024
15.8264
11.522
11.7517
13.3423
14.9101
16.3581
17.4629
16.8074
13.5303
9.45371
6.86404
5.60432
5.13762
4.93752
4.80189
4.82171
5.25044
5.77572
5.94101
5.80405
5.00478
4.24642
57.7502
72.4923
61.5746
122.106
151.718
151.468
132.794
110.845
86.3285
65.7661
54.0745
45.2178
34.6301
20.9503
13.3763
12.3882
13.5711
14.9614
16.2402
17.1267
16.1938
12.7881
8.92554
6.55702
5.40755
4.98409
4.80332
4.68075
4.71265
5.14661
5.66013
5.80106
5.65972
4.87152
4.14322
53.8399
72.6411
71.2043
137.714
168.306
177.804
159.852
136.351
109.621
85.8773
70.943
59.7442
48.3902
30.7826
17.3146
13.915
14.2888
15.3456
16.3898
17.0196
15.7565
12.162
8.45619
6.27135
5.22014
4.83662
4.67324
4.56187
4.60455
5.04128
5.54088
5.65573
5.50963
4.73263
4.03543
50.1273
73.3195
85.0592
162.997
194.412
207.61
189.085
162.46
134.39
108.764
90.464
76.4876
65.3949
47.7067
25.4406
17.1239
15.8192
16.2114
16.8708
17.1669
15.5043
11.6496
8.04353
6.00829
5.04358
4.69635
4.54817
4.446
4.49806
4.93497
5.41847
5.50564
5.3545
4.58881
3.92356
46.6135
74.6559
104.397
198.776
228.698
237.699
216.031
184.772
155.476
129.144
108.124
91.2744
79.8947
68.9422
41.0147
23.6313
18.7908
17.8272
17.7987
17.6169
15.4561
11.2518
7.6858
5.76854
4.8789
4.56406
4.42872
4.33366
4.39369
4.8281
5.29331
5.35134
5.19502
4.44072
3.80814
43.349
76.6651
130.285
241.04
267.444
265.553
238.326
201.964
170.704
143.594
120.63
101.225
87.702
82.9
64.2073
36.1131
24.3863
20.6745
19.371
18.4502
15.6448
10.9737
7.38169
5.55233
4.72675
4.44023
4.31522
4.22515
4.29178
4.72094
5.16575
5.19335
5.03187
4.28903
3.68969
40.3033
79.1398
163.1
281.29
305.257
289.866
256.119
215.272
181.454
152.93
128.492
107.102
90.688
84.7964
83.1532
55.9811
34.4147
25.5601
21.91
19.7926
16.1212
10.8249
7.13047
5.3595
4.58739
4.32505
4.20778
4.12056
4.19253
4.6137
5.03607
5.03212
4.86568
4.1344
3.56872
37.4893
81.5928
201.598
312.814
337.615
310.248
270.532
226.269
189.892
159.652
134.022
111.253
92.4961
82.1885
86.2277
76.2949
49.8837
33.5452
25.8921
21.8295
16.9606
10.8211
6.93207
5.18962
4.46079
4.21844
4.10624
4.01981
4.09598
4.50646
4.90447
4.86804
4.69705
3.97746
3.44574
34.8769
83.312
240.9
334.55
362.433
326.726
282.452
235.827
197.305
165.5
138.947
115.352
95.0928
80.9091
80.9189
84.5623
66.9343
45.0462
31.8511
24.8055
18.2684
10.9856
6.78732
5.04205
4.34664
4.12008
4.01026
3.92262
4.00206
4.3992
4.7711
4.70146
4.52656
3.81881
3.32125
32.4767
83.7598
271.941
348.934
380.032
339.602
292.388
244.27
204.163
171.144
143.931
119.996
98.9607
82.1479
76.6426
81.5686
77.1318
57.8644
39.9242
28.9692
20.1822
11.3512
6.69803
4.91594
4.2444
4.02945
3.9193
3.82857
3.91056
4.29181
4.63603
4.53269
4.35474
3.65902
3.19573
30.2708
82.994
287.54
358.424
391.76
349.31
300.625
251.705
210.566
176.714
149.063
125.164
103.921
85.5178
75.6163
76.5457
78.0081
67.2293
49.0501
34.3995
22.8586
11.9618
6.66719
4.81034
4.15328
3.94582
3.83268
3.73713
3.8212
4.18413
4.49931
4.362
4.18208
3.49865
3.06963
28.2673
81.5913
289.252
364.926
399.125
356.394
307.417
258.239
216.537
182.162
154.227
130.584
109.519
90.357
77.2799
73.7913
74.8276
70.5531
56.8667
40.7181
26.4239
12.8721
6.69894
4.72412
4.07235
3.86832
3.74955
3.64765
3.7336
4.07594
4.36095
4.18966
4.00906
3.33822
2.9434
26.4614
80.8639
284.742
369.351
403.366
361.391
313.012
264.014
222.126
187.457
159.324
135.995
115.282
95.9762
80.7521
73.5841
72.0048
69.7996
61.3851
46.9364
30.8746
14.1426
6.79839
4.656
4.00048
3.79592
3.66897
3.55939
3.64734
3.96696
4.22094
4.01591
3.83614
3.17824
2.81744
24.8623
81.6441
280.712
372.567
405.494
364.818
317.672
269.216
227.426
192.607
164.304
141.22
120.845
101.727
85.2275
75.2036
70.7857
67.9745
62.6527
51.8175
35.9439
15.827
6.97094
4.60446
3.93634
3.72746
3.58992
3.47159
3.56193
3.85691
4.07927
3.84104
3.66373
3.0192
2.69215
23.4808
84.0353
280.218
375.273
406.268
367.104
321.629
274.029
232.559
197.673
169.19
146.202
126.03
107.156
90.0141
77.89
70.978
66.6109
62.1092
54.6372
41.0327
17.9481
7.22096
4.56768
3.87848
3.66168
3.51131
3.38345
3.47689
3.74552
3.93596
3.66536
3.49228
2.86157
2.56792
22.3333
88.0582
283.734
378.047
406.302
368.619
325.094
278.621
237.651
202.741
174.04
150.958
130.789
112.043
94.5929
81.0098
72.0687
66.0181
61.0649
55.5599
45.3477
20.4645
7.54968
4.54337
3.82528
3.59726
3.43206
3.2942
3.3917
3.63253
3.79106
3.48924
3.32221
2.70584
2.4451
21.4546
93.6599
290.805
381.342
406.088
369.679
328.247
283.13
242.819
207.914
178.948
155.567
135.176
116.36
98.6851
84.1018
73.5788
66.0178
60.1503
55.2784
48.2536
23.2403
7.95205
4.52868
3.77499
3.53282
3.3511
3.2031
3.3059
3.51774
3.64466
3.31308
3.15393
2.55245
2.32403
20.8892
100.784
300.879
385.603
406.107
370.62
331.274
287.666
248.152
213.285
184.011
160.13
139.281
120.168
102.208
86.8859
75.1498
66.3331
59.507
54.4627
49.5722
26.0327
8.41332
4.52005
3.72574
3.467
3.26744
3.10952
3.21904
3.40099
3.49693
3.13738
2.98788
2.40187
2.20503
20.7351
109.4
313.561
391.262
406.864
371.841
334.391
292.314
253.699
218.918
189.321
164.758
143.218
123.573
105.193
89.2392
76.553
66.7259
59.0628
53.5121
49.5619
28.5209
8.90626
4.51316
3.67563
3.39849
3.1802
3.01295
3.13075
3.28221
3.3481
2.96269
2.82449
2.25455
2.08842
21.1259
119.577
328.609
398.773
408.955
373.882
337.897
297.147
259.437
224.803
194.917
169.541
147.086
126.674
107.711
91.1339
77.6637
67.0294
58.693
52.578
48.6553
30.3828
9.39097
4.50297
3.62277
3.3261
3.0887
2.91302
3.0407
3.16143
3.19847
2.78963
2.66421
2.11093
1.97448
22.2957
131.464
345.8
408.55
413.051
377.445
342.195
302.215
265.238
230.806
200.744
174.509
150.954
129.55
109.829
92.5841
78.4244
67.1389
58.2843
51.6683
47.2292
31.3944
9.81871
4.48396
3.56535
3.24881
2.99242
2.80954
2.9487
3.03875
3.04845
2.61887
2.50748
1.97145
1.86349
24.5223
145.252
364.847
420.889
419.862
383.392
347.776
307.501
270.793
236.575
206.552
179.563
154.808
132.224
111.58
93.6019
78.8077
66.9917
57.7515
50.7316
45.5205
31.495
10.1398
4.45058
3.50174
3.1658
2.8911
2.70251
2.85464
2.91442
2.8985
2.45112
2.35474
1.83652
1.75572
28.1637
161.012
385.081
435.797
429.975
392.57
355.046
312.772
275.483
241.423
211.78
184.373
158.481
134.62
112.931
94.1713
78.7884
66.5453
57.0328
49.7038
43.6455
30.778
10.3131
4.39777
3.43063
3.07654
2.78475
2.59214
2.75851
2.78874
2.74917
2.28713
2.20643
1.70654
1.65141
33.4954
178.543
405.514
452.786
443.583
405.378
363.884
317.267
278.192
244.183
215.402
188.229
161.537
136.49
113.749
94.2203
78.3226
65.7606
56.0801
48.5266
41.648
29.4265
10.3136
4.32154
3.35102
2.98081
2.67362
2.47883
2.66043
2.66215
2.60105
2.12765
2.06299
1.58187
1.55078
40.701
197.215
424.694
470.615
460.007
420.834
372.729
319.167
277.093
243.148
215.865
189.927
163.155
137.328
113.748
93.6004
77.3331
64.5901
54.8495
47.1507
39.5383
27.6409
10.1358
4.21945
3.26236
2.87868
2.55822
2.36313
2.56063
2.53516
2.45482
1.9734
1.92482
1.46284
1.45405
49.6321
216.014
440.81
487.14
477.077
435.205
377.418
315.154
269.668
236.238
211.239
187.791
162.079
136.318
112.461
92.0688
75.7011
62.9711
53.2958
45.534
37.3157
25.5944
9.79199
4.09075
3.16455
2.77054
2.43928
2.24579
2.45944
2.40834
2.31114
1.82508
1.79229
1.34974
1.3614
59.8743
233.744
451.946
499.346
490.521
441.051
371.018
300.878
253.375
221.68
199.832
180.082
156.83
132.413
109.265
89.3038
73.2716
60.8262
51.3706
43.6409
34.979
23.417
9.307
3.93638
3.05793
2.65703
2.31772
2.12764
2.35729
2.28234
2.17072
1.68333
1.66576
1.24281
1.27299
70.5911
249.415
456.49
503.697
493.961
429.031
346.877
273.314
227.154
199.048
181.123
165.809
146.283
124.681
103.548
84.9723
69.8809
58.0741
49.0277
41.4443
32.5301
21.1986
8.7122
3.75874
2.94324
2.53907
2.1946
2.00961
2.25468
2.15785
2.03425
1.54869
1.5455
1.14222
1.18896
80.9187
262.533
453.466
496.643
480.225
393.646
304.25
233.831
192.857
170.03
156.431
145.561
130.453
112.855
95.013
78.8704
65.4143
54.6532
46.2343
38.9311
29.9772
18.9988
8.0401
3.56127
2.82157
2.41775
2.07109
1.89267
2.15219
2.03556
1.9024
1.42164
1.43177
1.04809
1.10942
89.3733
273.357
442.74
475.138
444.309
338.378
250.367
188.505
154.963
138.024
128.585
121.535
110.8
97.7117
83.9693
71.0822
59.8802
50.5561
42.99
36.1119
27.3363
16.8576
7.32111
3.34813
2.69428
2.29433
1.94839
1.77781
2.05041
1.91618
1.77576
1.30252
1.32473
0.960456
1.03443
95.1437
283.063
425.029
437.204
386.239
273.397
195.414
144.552
118.405
106.698
100.754
96.6242
89.6759
80.8823
71.3575
62.0531
53.4634
45.8612
39.3451
33.0294
24.6346
14.8044
6.58197
3.12385
2.56295
2.17012
1.82769
1.66594
1.94998
1.80037
1.65488
1.19155
1.22449
0.8793
0.964037
0.00337494
0.00119466
0.00169744
0.00172669
0.00146027
0.00134377
0.00129672
0.0401237
0.86417
1.71782
2.33667
2.9862
3.61809
4.27634
4.70095
4.93597
5.13627
7.47761
15.7703
34.6403
184.209
158.752
0.00334171
0.000913325
0.00117267
0.00124882
0.00105031
0.000967664
0.000944953
0.0445632
0.905099
1.77847
2.38378
3.00136
3.59506
4.23697
4.66252
4.91688
5.14518
7.5141
15.9749
35.202
184.995
167.761
0.00353801
0.00115475
0.00104208
0.0010091
0.000839307
0.00076037
0.000749029
0.0473616
0.934497
1.82364
2.41778
3.00537
3.56277
4.18913
4.6186
4.89505
5.15773
7.54708
16.1664
35.7345
185.351
176.347
0.0036684
0.00105968
0.000928064
0.00085225
0.000693277
0.000621782
0.00059512
0.0489036
0.953239
1.85401
2.43941
2.99969
3.52336
4.13432
4.56934
4.86892
5.17088
7.57387
16.34
36.2364
185.297
184.298
0.00392042
0.0013524
0.00102318
0.000854559
0.00069103
0.000605067
0.000538342
0.0494094
0.961956
1.87029
2.44958
2.98587
3.47906
4.07412
4.51507
4.83733
5.18192
7.59211
16.4908
36.7069
184.834
192.104
0.00405808
0.00126891
0.00102217
0.000851368
0.000679469
0.000594854
0.000457855
0.0490282
0.961188
1.8732
2.44927
2.96546
3.43193
4.01027
4.45651
4.79964
5.18866
7.59983
16.6138
37.1451
183.953
199.974
0.00433866
0.00158092
0.00118674
0.000954214
0.000768701
0.000668643
0.000464595
0.0478705
0.951498
1.8635
2.43949
2.93995
3.38401
3.94459
4.39464
4.75579
5.18943
7.59554
16.704
37.5501
182.649
207.936
0.00447671
0.00150971
0.00122182
0.00100869
0.000809168
0.000711737
0.000493644
0.046025
0.933515
1.842
2.42118
2.91066
3.33707
3.87903
4.33084
4.7063
5.18324
7.57827
16.7571
37.9204
180.925
215.955
0.00478254
0.00183757
0.00141819
0.00115575
0.000941546
0.000829121
0.000542034
0.0435808
0.907974
1.8095
2.39515
2.87868
3.29275
3.81552
4.26672
4.65223
5.16972
7.54767
16.7693
38.2536
178.793
223.984
0.00490712
0.00177771
0.00147018
0.00123551
0.00100622
0.000898011
0.000566219
0.0406406
0.875708
1.76683
2.36202
2.84484
3.25229
3.75607
4.20421
4.59516
5.14923
7.50402
16.7376
38.5466
176.271
231.969
0.00522826
0.00211429
0.00168599
0.00140808
0.00116605
0.00104338
0.000615887
0.037317
0.837645
1.71486
2.32219
2.80958
3.2167
3.7025
4.14539
4.53711
5.12273
7.44821
16.6601
38.7947
173.383
239.834
0.005338
0.00206664
0.0017491
0.00150235
0.00124611
0.00112928
0.000652341
0.0337222
0.794759
1.65447
2.27586
2.77301
3.18645
3.65656
4.09248
4.48046
5.09184
7.38182
16.5361
38.9923
170.157
247.483
0.0056713
0.00241191
0.00198201
0.00169524
0.00143003
0.00129902
0.00073296
0.0299612
0.748042
1.5866
2.22306
2.73482
3.16163
3.61961
4.04771
4.42789
5.0587
7.307
16.3659
39.1325
166.626
254.801
0.00575526
0.00237131
0.00205193
0.00179928
0.00152245
0.00139906
0.000831853
0.0261241
0.698447
1.51225
2.16369
2.69434
3.14169
3.59275
4.01327
4.38224
5.02598
7.22651
16.1514
39.2075
162.822
261.668
0.00609166
0.00272104
0.00229771
0.00200842
0.00172775
0.00159061
0.00100695
0.0222967
0.646844
1.43243
2.09766
2.6506
3.12558
3.57644
3.9911
4.34645
4.99672
7.14365
15.8957
39.2086
158.782
267.966
0.00615145
0.0026866
0.00237162
0.00211855
0.00183003
0.0017023
0.00122424
0.018553
0.593976
1.34822
2.0249
2.60241
3.11156
3.57059
3.98286
4.32346
4.97434
7.06221
15.6031
39.1268
154.537
273.583
0.00648665
0.00303996
0.00262869
0.00234154
0.00205558
0.00191443
0.00152839
0.014974
0.540439
1.26067
1.94548
2.54849
3.09744
3.5742
3.98966
4.31608
4.96248
6.98646
15.2795
38.9533
150.121
278.416
0.00651792
0.00300907
0.00270397
0.002455
0.00216613
0.00203617
0.00178839
0.0116357
0.486663
1.17075
1.85965
2.48757
3.08045
3.58547
4.01192
4.32681
4.96493
6.92111
14.9319
38.6795
145.561
282.377
0.00683926
0.0033575
0.00296591
0.00268667
0.00240761
0.00226484
0.00207309
0.00865537
0.432933
1.07933
1.76782
2.4186
3.0577
3.60148
4.04904
4.35772
4.98549
6.87121
14.5685
38.2987
140.883
285.39
0.00685331
0.00333384
0.00304182
0.00280086
0.0025245
0.00239448
0.00225948
0.00614871
0.379428
0.987112
1.67061
2.34083
3.02607
3.61843
4.09923
4.41011
5.02783
6.84214
14.1985
37.8056
136.11
287.389
0.00716065
0.0036785
0.00330873
0.00304006
0.00278113
0.00263865
0.00250098
0.00428732
0.32629
0.89456
1.5687
2.25391
2.98284
3.6316
4.15919
4.48424
5.09519
6.83949
13.832
37.1981
131.26
288.315
0.00715668
0.00365932
0.00338345
0.00315325
0.00290302
0.00277474
0.00265712
0.0031539
0.273732
0.801938
1.4628
2.15792
2.92564
3.63578
4.22403
4.57886
5.19012
6.86888
13.4801
36.4772
126.351
288.114
0.00744742
0.00399815
0.00365277
0.0033975
0.00317198
0.00303149
0.00289618
0.00274832
0.222191
0.709345
1.3535
2.05334
2.85301
3.6256
4.28722
4.69082
5.31396
6.9357
13.1541
35.6485
121.398
286.738
0.00743081
0.00398475
0.00372622
0.00350864
0.00329763
0.00317245
0.00305241
0.00277949
0.172522
0.616827
1.24118
1.94091
2.7642
3.59621
4.34095
4.81461
5.46627
7.04471
12.8656
34.7223
116.415
284.141
0.00770528
0.00431695
0.00399639
0.0037559
0.00357713
0.00344001
0.00330269
0.00305494
0.126193
0.524564
1.12599
1.82146
2.65956
3.54372
4.37668
4.94215
5.64409
7.19938
12.6258
33.7142
111.415
280.285
0.00767717
0.00430906
0.00406855
0.00386462
0.00370017
0.00357987
0.00346084
0.00329922
0.0853053
0.433139
1.00783
1.69568
2.54003
3.46582
4.38611
5.06286
5.84115
7.40098
12.4454
32.6446
106.413
275.141
0.00793465
0.00463249
0.00433719
0.00411231
0.00396742
0.0038371
0.00370513
0.00356457
0.0521949
0.343858
0.886539
1.56394
2.40721
3.36184
4.36215
5.16436
6.04732
7.64739
12.3335
31.5387
101.425
268.696
0.00790011
0.00463215
0.00440922
0.0042192
0.00408992
0.00397584
0.00386191
0.00374811
0.0285036
0.259051
0.762158
1.42612
2.26264
3.23291
4.30008
5.23361
6.24837
7.93169
12.2967
30.4243
96.4697
260.957
0.00814272
0.00494763
0.00467668
0.00446737
0.00435008
0.00422707
0.00410209
0.00397928
0.0142268
0.18211
0.635358
1.28171
2.10766
3.08133
4.198
5.25872
6.42668
8.24071
12.3377
29.3307
91.5672
251.957
0.00810408
0.00495494
0.00474916
0.00457296
0.00446245
0.0043562
0.00424998
0.00414371
0.00739498
0.11708
0.508043
1.13001
1.94282
2.91018
4.05711
5.23069
6.56285
8.55414
12.4537
28.2852
86.7393
241.758
0.00833195
0.00526144
0.00501432
0.00482057
0.00471119
0.00459658
0.00448035
0.00436493
0.00507231
0.0674712
0.383973
0.970645
1.76787
2.72232
3.88101
5.14487
6.63834
8.84471
12.6344
27.3109
82.0111
230.457
0.0082935
0.0052783
0.00508867
0.00492583
0.00482323
0.00472445
0.00462548
0.0045256
0.00456547
0.0345138
0.269085
0.804479
1.58177
2.51982
3.67484
5.00153
6.63862
9.08029
12.8599
26.4227
77.4056
218.186
0.00850785
0.00557592
0.00535139
0.0051727
0.00506978
0.00496285
0.00485417
0.00474549
0.00463949
0.0163336
0.170845
0.63479
1.38333
2.30338
3.44376
4.80529
6.55574
9.228
13.0998
25.6251
72.9459
205.109
0.00847197
0.00560282
0.00542849
0.00527842
0.00518352
0.00509193
0.00499971
0.00490602
0.00479744
0.00836367
0.0960332
0.468512
1.17212
2.07242
3.19199
4.56358
6.38966
9.25998
13.3134
24.909
68.6486
191.42
0.00867361
0.00589141
0.00568825
0.00552402
0.00542745
0.00532803
0.00522676
0.00512476
0.00501083
0.00573225
0.0473836
0.316509
0.950372
1.82538
2.92175
4.28474
6.14751
9.15911
13.4531
24.2508
64.5234
177.336
0.00864263
0.00592899
0.00576899
0.005631
0.00554347
0.0054588
0.00537312
0.00528546
0.00518595
0.00515563
0.0214598
0.191322
0.725076
1.56119
2.63324
3.97598
5.84127
8.92268
13.4711
23.6129
60.5671
163.085
0.00883364
0.00620935
0.00602599
0.0058754
0.00578502
0.00569281
0.00559864
0.0055031
0.0053981
0.00523321
0.0104939
0.101991
0.509896
1.28124
2.32504
3.64222
5.48444
8.56241
13.328
22.9475
56.7629
148.894
0.00881027
0.00625885
0.00611201
0.00598516
0.00590455
0.00582638
0.00574682
0.00566483
0.00557231
0.00543329
0.00681811
0.0486552
0.323469
0.992791
1.99561
3.28559
5.08907
8.10055
13.0013
22.2022
53.0778
134.981
0.00899173
0.00653135
0.00636628
0.00622843
0.00614392
0.00605851
0.00597107
0.00588167
0.00578367
0.00566598
0.00589888