/*--------------------------------*- C++ -*----------------------------------*\
| =========                 |                                                 |
| \\      /  F ield         | OpenFOAM: The Open Source CFD Toolbox           |
|  \\    /   O peration     | Version:  v1912                                 |
|   \\  /    A nd           | Website:  www.openfoam.com                      |
|    \\/     M anipulation  |                                                 |
\*---------------------------------------------------------------------------*/
FoamFile
{
    version     2.0;
    format      ascii;
    class       volScalarField;
    location    "50";
    object      nut;
}
// * * * * * * * * * * * * * * * * * * * * * * * * * * * * * * * * * * * * * //

dimensions      [0 2 -1 0 0 0 0];


internalField   nonuniform List<scalar> 
12441
(
5.82859e-24
1.8315e-20
8.45668e-20
3.49015e-19
1.11909e-18
4.06637e-18
1.05673e-17
2.61187e-17
6.43066e-17
1.33504e-16
3.19783e-16
8.07982e-16
2.27659e-15
7.76229e-15
1.08651e-13
1.98485e-11
0.000234448
0.00137439
0.00424637
0.00309208
0.00367984
0.00775321
6.3522e-24
3.20878e-20
1.21166e-19
4.6289e-19
1.41758e-18
5.21985e-18
1.32353e-17
3.24967e-17
7.99369e-17
1.67469e-16
4.11237e-16
1.11479e-15
3.04955e-15
1.01458e-14
1.22236e-13
4.20867e-11
6.81613e-05
0.00167154
0.0048425
0.00335915
0.0040388
0.00781733
6.37459e-24
3.91943e-20
1.3491e-19
5.03533e-19
1.54403e-18
5.48564e-18
1.44452e-17
3.57315e-17
9.00265e-17
1.91746e-16
4.65742e-16
1.24554e-15
3.08809e-15
8.53728e-15
5.95423e-14
7.29663e-12
1.28079e-05
0.00121173
0.00189441
0.0031582
0.00418562
0.0078909
6.32889e-24
4.24275e-20
1.36626e-19
4.97824e-19
1.53324e-18
5.44081e-18
1.44369e-17
3.60783e-17
9.0642e-17
2.00194e-16
4.8758e-16
1.32725e-15
2.98584e-15
9.72097e-15
4.41017e-14
1.76252e-12
1.87565e-06
0.000833437
0.00139744
0.00305714
0.0043443
0.0079647
6.29417e-24
5.07603e-20
1.53318e-19
5.44074e-19
1.66157e-18
5.64993e-18
1.54706e-17
3.86937e-17
9.97236e-17
2.21458e-16
5.35386e-16
1.51375e-15
3.53669e-15
4.79017e-14
2.90442e-13
2.69206e-12
1.6362e-07
0.000575484
0.00134033
0.00302892
0.00448501
0.00803394
6.24397e-24
4.905e-20
1.46498e-19
5.24351e-19
1.63716e-18
5.62488e-18
1.55124e-17
3.93469e-17
1.00951e-16
2.34207e-16
5.78504e-16
1.7516e-15
5.4587e-15
1.60412e-12
1.43361e-11
6.12945e-11
5.48642e-07
0.000498389
0.00134578
0.00307509
0.00461831
0.00809948
6.20836e-24
6.11312e-20
1.70988e-19
5.92772e-19
1.81597e-18
5.95018e-18
1.6876e-17
4.27143e-17
1.12752e-16
2.61989e-16
6.45086e-16
2.4751e-15
3.07723e-14
5.11867e-11
8.11056e-10
1.15027e-08
2.12878e-05
0.000454657
0.00144578
0.003257
0.00478139
0.00816218
6.15869e-24
5.41107e-20
1.56813e-19
5.63011e-19
1.79815e-18
6.02076e-18
1.7224e-17
4.4351e-17
1.16531e-16
2.85066e-16
7.27404e-16
6.89682e-15
7.68567e-13
2.84517e-09
1.0576e-07
5.78468e-06
0.00018967
0.000452729
0.00180119
0.00364067
0.00500642
0.00822577
6.12518e-24
7.08109e-20
1.89357e-19
6.498e-19
2.01801e-18
6.42948e-18
1.89491e-17
4.86625e-17
1.32575e-16
3.25363e-16
8.35048e-16
7.92924e-14
3.32524e-11
9.55953e-08
1.21063e-05
0.000146061
0.000698251
0.000718183
0.00255253
0.00429426
0.00533238
0.00829204
6.07848e-24
5.75876e-20
1.66399e-19
6.08376e-19
2.00564e-18
6.58078e-18
1.9592e-17
5.13755e-17
1.39489e-16
3.65143e-16
9.91143e-16
2.22288e-12
1.42081e-09
5.63477e-06
0.000181109
0.00052052
0.00127652
0.00117396
0.00380557
0.00527803
0.00577703
0.00836448
6.04857e-24
7.96684e-20
2.06607e-19
7.1044e-19
2.25684e-18
7.01535e-18
2.16022e-17
5.66016e-17
1.61089e-16
4.27824e-16
1.2001e-15
7.026e-11
7.32202e-08
8.65704e-05
0.000609981
0.00123223
0.00227146
0.00194541
0.00572457
0.00667086
0.00635395
0.00844366
6.00337e-24
6.01469e-20
1.75738e-19
6.58849e-19
2.25407e-18
7.27702e-18
2.26043e-17
6.06476e-17
1.73152e-16
5.02004e-16
1.59105e-15
1.99552e-09
4.27774e-06
0.000314061
0.00115826
0.00224655
0.00382141
0.00326217
0.00849443
0.0084929
0.00704665
0.00853143
5.97702e-24
8.78378e-20
2.23545e-19
7.73918e-19
2.53371e-18
7.7286e-18
2.49866e-17
6.72157e-17
2.0507e-16
6.20626e-16
2.35994e-15
4.9011e-08
8.00896e-05
0.000861855
0.00234989
0.00402091
0.00635694
0.00546347
0.0121412
0.0107
0.00783684
0.00862633
5.93327e-24
6.1772e-20
1.84297e-19
7.12401e-19
2.54165e-18
8.10367e-18
2.63892e-17
7.30766e-17
2.27872e-16
7.95366e-16
5.10932e-15
1.12318e-06
0.000326432
0.00187937
0.00429808
0.0067533
0.0101918
0.00880733
0.0164432
0.0131445
0.00867989
0.00872852
5.91014e-24
9.53943e-20
2.39371e-19
8.39219e-19
2.84675e-18
8.54163e-18
2.91631e-17
8.16283e-17
2.82644e-16
1.12082e-15
2.3725e-14
2.03183e-05
0.000927161
0.0037083
0.00725578
0.0106227
0.0154194
0.0132617
0.0209553
0.0156641
0.00954499
0.00883515
5.86672e-24
6.31282e-20
1.93132e-19
7.70701e-19
2.87447e-18
9.07228e-18
3.1102e-17
9.03673e-17
3.35024e-16
1.78194e-15
4.41474e-13
0.000150276
0.00196567
0.00651099
0.0113487
0.015642
0.0218152
0.0184071
0.0251987
0.0180769
0.0103853
0.00894576
5.84688e-24
1.02514e-19
2.56063e-19
9.10368e-19
3.21168e-18
9.52119e-18
3.44895e-17
1.02571e-16
4.56985e-16
3.41204e-15
1.86149e-11
0.000491256
0.00381607
0.0103812
0.0164324
0.0216403
0.0287943
0.0235496
0.028805
0.0202776
0.0111815
0.00905718
5.80319e-24
6.41935e-20
2.01971e-19
8.33584e-19
3.25838e-18
1.02022e-17
3.70961e-17
1.16233e-16
6.15994e-16
8.1941e-15
8.2146e-10
0.00109956
0.00662473
0.0152803
0.0223547
0.0282048
0.0355088
0.0279716
0.0316478
0.0221864
0.0119026
0.00916919
5.78608e-24
1.092e-19
2.72643e-19
9.84352e-19
3.62338e-18
1.06325e-17
4.12508e-17
1.35079e-16
1.0063e-15
2.56973e-14
6.62571e-08
0.00230622
0.0105122
0.0208829
0.0286661
0.0347603
0.0410786
0.0312376
0.033794
0.0238096
0.0125504
0.00927899
5.74185e-24
6.51061e-20
2.10404e-19
8.98322e-19
3.68749e-18
1.14813e-17
4.47814e-17
1.57769e-16
1.66909e-15
1.16025e-13
1.17704e-05
0.0042534
0.015322
0.0269126
0.034979
0.0406445
0.0448583
0.0333231
0.0354617
0.0251532
0.0131128
0.00938714
5.72805e-24
1.15469e-19
2.88726e-19
1.0589e-18
4.0809e-18
1.19035e-17
5.01555e-17
1.8969e-16
3.41335e-15
1.21221e-12
0.000178115
0.00719663
0.0207311
0.0329258
0.0407129
0.0453145
0.046656
0.0345724
0.0368829
0.0262766
0.0136087
0.00949146
5.683e-24
6.56142e-20
2.17544e-19
9.62193e-19
4.1604e-18
1.29257e-17
5.51281e-17
2.30825e-16
6.85176e-15
2.11143e-11
0.000593282
0.0111393
0.0263515
0.038646
0.0455106
0.0484501
0.046775
0.0354744
0.0382712
0.0272111
0.0140397
0.00959327
5.67189e-24
1.2142e-19
3.03396e-19
1.13101e-18
4.57788e-18
1.33303e-17
6.24958e-17
2.9081e-16
1.6321e-14
2.63311e-10
0.00136663
0.0158585
0.0318223
0.0437025
0.0490203
0.0500704
0.0458778
0.0364641
0.0397585
0.0280238
0.0144369
0.00969106
5.62632e-24
6.62063e-20
2.23662e-19
1.02394e-18
4.67353e-18
1.45412e-17
6.99989e-17
3.7208e-16
3.60927e-14
2.49622e-09
0.00275889
0.0210312
0.0368718
0.0479285
0.0512477
0.0504669
0.0447193
0.0377981
0.0414289
0.0287484
0.0148117
0.00978684
5.61877e-24
1.27233e-19
3.16981e-19
1.20008e-18
5.11667e-18
1.49482e-17
8.11501e-17
4.94518e-16
9.13259e-14
2.20591e-08
0.00493404
0.0262441
0.0413199
0.0511512
0.0522951
0.050122
0.0439093
0.0395732
0.0433049
0.0294536
0.0152031
0.00987966
5.5714e-24
6.71515e-20
2.29078e-19
1.08358e-18
5.23049e-18
1.63632e-17
9.35972e-17
6.68193e-16
2.13753e-13
5.04882e-07
0.00796081
0.0312069
0.0450685
0.0534238
0.0525178
0.0495262
0.0437937
0.0417777
0.0453884
0.0301774
0.015628
0.00997203
5.56637e-24
1.32905e-19
3.29418e-19
1.26547e-18
5.69641e-18
1.67798e-17
1.12375e-16
9.40844e-16
6.45795e-13
2.68292e-05
0.0116544
0.035675
0.0480816
0.054815
0.0522257
0.0490818
0.0444793
0.0443576
0.0476475
0.030988
0.0161281
0.0100634
5.51788e-24
6.83809e-20
2.33382e-19
1.1394e-18
5.82896e-18
1.84153e-17
1.35312e-16
1.34685e-15
3.04491e-12
0.000244893
0.0157664
0.039551
0.0503785
0.0555456
0.0517756
0.0490269
0.04592
0.0472419
0.0500441
0.0319169
0.0167183
0.0101564
5.51624e-24
1.38477e-19
3.40287e-19
1.32574e-18
6.32003e-18
1.88832e-17
1.70809e-16
2.00631e-15
2.13739e-11
0.00069932
0.0199538
0.0427763
0.0520202
0.0557872
0.0513694
0.0494609
0.0480015
0.0503609
0.0525177
0.033014
0.0174324
0.0102507
5.46548e-24
6.9689e-20
2.36156e-19
1.19001e-18
6.47145e-18
2.07601e-17
2.17358e-16
3.02666e-15
1.24952e-10
0.00126968
0.0239885
0.0453685
0.0531003
0.0557595
0.0511719
0.0503716
0.0505887
0.0536402
0.0550077
0.0342822
0.0182715
0.0103488
5.46589e-24
1.43924e-19
3.50115e-19
1.38121e-18
6.99083e-18
2.13484e-17
2.91297e-16
4.74431e-15
6.02581e-10
0.00200927
0.0276599
0.0473518
0.0537267
0.055589
0.0512146
0.0516912
0.0535463
0.0570045
0.0574375
0.0357327
0.0192515
0.01045
5.41409e-24
7.09403e-20
2.37194e-19
1.23528e-18
7.16198e-18
2.34721e-17
3.93089e-16
7.49065e-15
2.36322e-09
0.00292852
0.0308703
0.0487915
0.054011
0.0554054
0.0515155
0.0533198
0.0567429
0.060371
0.0597364
0.0373279
0.0203513
0.0105565
5.41762e-24
1.49355e-19
3.58559e-19
1.43324e-18
7.72627e-18
2.42469e-17
5.58156e-16
1.21115e-14
8.09231e-09
0.0040405
0.0335356
0.0497479
0.0540547
0.0552547
0.0520214
0.0551535
0.0600518
0.0636556
0.0618251
0.0390416
0.0215641
0.010667
5.36235e-24
7.1734e-20
2.35988e-19
1.27583e-18
7.91673e-18
2.66724e-17
7.90954e-16
1.94805e-14
2.46933e-08
0.00532027
0.0356561
0.0503042
0.053947
0.0551898
0.0526983
0.0570894
0.0633521
0.0667713
0.0636366
0.0408093
0.0228469
0.0107831
5.36785e-24
1.5058e-19
3.61024e-19
1.47551e-18
8.53266e-18
2.77389e-17
1.17298e-15
3.20129e-14
7.273e-08
0.00672596
0.037244
0.0505312
0.0537586
0.055208
0.0534802
0.0590382
0.0665335
0.069639
0.0651028
0.0425932
0.0241775
0.0109032
5.30853e-24
7.08813e-20
2.28758e-19
1.30142e-18
8.72241e-18
3.03926e-17
1.70674e-15
5.20504e-14
3.6314e-07
0.00823839
0.0383734
0.0505102
0.053547
0.0553289
0.0543344
0.0609237
0.0695022
0.0721883
0.0661736
0.0443336
0.0255037
0.0110282
5.31442e-24
1.47193e-19
3.53934e-19
1.49988e-18
9.403e-18
3.17799e-17
2.57891e-15
1.00446e-13
1.35163e-05
0.00986053
0.0391184
0.0503052
0.0533547
0.0555375
0.0552134
0.0626921
0.0721881
0.0743685
0.066803
0.0460141
0.0268043
0.0111563
5.24832e-24
7.15042e-20
2.21178e-19
1.32165e-18
9.61826e-18
3.48329e-17
3.75953e-15
8.15823e-13
0.000157121
0.0116512
0.0395833
0.049983
0.0532159
0.0558507
0.0561071
0.0643095
0.0745507
0.0761472
0.0669672
0.047606
0.0280388
0.0112883
5.25113e-24
9.3741e-20
2.70735e-19
1.40093e-18
1.01543e-17
3.63315e-17
5.64017e-15
4.07236e-11
0.000717354
0.0136899
0.03985
0.0495916
0.0531544
0.0562613
0.0569959
0.0657679
0.0765832
0.0775178
0.0666497
0.0491249
0.0292125
0.011422
5.17465e-24
7.50243e-20
2.00306e-19
1.27189e-18
1.04968e-17
4.16094e-17
8.24374e-15
1.8193e-09
0.00199961
0.0160207
0.0399975
0.0491787
0.0531886
0.0567983
0.0578991
0.0670802
0.0783119
0.0784925
0.0658579
0.0505602
0.0303206
0.0115584
5.1674e-24
3.40672e-21
1.97417e-20
7.06361e-19
9.65749e-18
4.33277e-17
1.27907e-14
3.02587e-07
0.00420153
0.0186
0.0400613
0.0487734
0.0533268
0.0574678
0.0588238
0.0682831
0.0797932
0.0791049
0.0646067
0.0519086
0.0314108
0.0116955
5.07964e-24
2.95763e-20
7.81701e-20
7.31902e-19
9.63954e-18
6.39263e-17
3.18254e-14
4.10258e-05
0.00736062
0.0213448
0.0400615
0.0484054
0.0535705
0.058314
0.0598191
0.069429
0.0811066
0.0793971
0.0629351
0.0530685
0.0325021
0.0118345
5.04074e-24
1.22592e-21
1.52594e-22
4.22209e-19
9.1522e-18
1.496e-16
6.69396e-13
0.000363385
0.0114302
0.0241539
0.0399777
0.0480877
0.0539071
0.0593474
0.0609111
0.0705906
0.0823494
0.0794201
0.0608858
0.0538251
0.0335895
0.011976
4.84148e-24
3.24316e-19
7.42549e-19
1.71711e-18
1.23466e-17
1.57047e-15
1.24594e-11
0.00122203
0.0163159
0.0270039
0.0398458
0.0478561
0.0543204
0.0606104
0.0621598
0.0718405
0.0836163
0.0791798
0.058508
0.0537195
0.0343137
0.0121338
0.00987657
0.0212732
0.0246509
0.00357896
0.00238011
0.0023009
0.0030896
0.0041299
0.00574291
0.00781398
0.0125953
0.0131753
0.0148315
0.017863
0.0205744
0.0221962
0.0224726
0.021254
0.0185259
0.0148173
0.0126586
0.0133767
0.0232815
0.0442962
0.0637531
0.0752641
0.0823345
0.0882436
0.0911133
0.0864615
0.0793498
0.0757314
0.0772011
0.0886657
0.106339
0.00986353
0.0215405
0.0235007
0.00290025
0.00238016
0.00234125
0.00312461
0.00417067
0.00574781
0.00785259
0.012363
0.012896
0.0146059
0.0176565
0.0203952
0.0220906
0.0226231
0.0217031
0.0190687
0.0151521
0.0128176
0.0134926
0.0233894
0.0444316
0.0638666
0.075355
0.0824143
0.0883127
0.0911855
0.0864608
0.0793437
0.0757278
0.0772154
0.0886793
0.106358
0.00983842
0.021735
0.0220645
0.00328011
0.00320325
0.00282588
0.00359769
0.00466048
0.00605799
0.00802738
0.0115143
0.0118886
0.0137718
0.0167502
0.0189346
0.0199635
0.0203378
0.0198598
0.0180908
0.014919
0.0130094
0.0139873
0.0239208
0.0447114
0.0640238
0.0754585
0.0825006
0.0883843
0.0912776
0.0864128
0.0792922
0.0756837
0.0772108
0.0886705
0.106361
0.00979929
0.0218362
0.0207199
0.0041773
0.00367634
0.00284315
0.00377744
0.00499467
0.00636022
0.0082753
0.010625
0.0108081
0.012857
0.0159779
0.0177437
0.017868
0.0176312
0.0172738
0.0163975
0.0143773
0.0132278
0.0147087
0.0247416
0.0451114
0.0642155
0.0755646
0.0825835
0.0884495
0.091382
0.0863129
0.0791925
0.0755966
0.0771852
0.0886379
0.106346
0.00974597
0.0217903
0.0193728
0.00500848
0.00356826
0.00254565
0.003654
0.00504147
0.00652167
0.00850395
0.0099248
0.00995563
0.0122382
0.0157951
0.0174148
0.016639
0.015538
0.0149236
0.0146209
0.0137449
0.0134747
0.0155537
0.0257488
0.0456116
0.064443
0.0756758
0.0826648
0.0885107
0.0915005
0.0861656
0.0790499
0.0754722
0.0771445
0.0885888
0.106322
0.00967615
0.0215519
0.0179337
0.00535351
0.00308337
0.00225962
0.00344511
0.00490122
0.00654021
0.00864514
0.00940107
0.00934881
0.0119184
0.0160902
0.0178459
0.0163354
0.0143433
0.0132461
0.0131528
0.0131875
0.0137595
0.0164578
0.0268685
0.0461981
0.0647145
0.0758029
0.0827544
0.0885773
0.0916407
0.0859814
0.0788747
0.0753214
0.0770991
0.0885359
0.106301
0.00959042
0.0210952
0.0163763
0.00513116
0.00254712
0.00216079
0.00333947
0.00473186
0.00647856
0.00867429
0.00896991
0.00888729
0.0117187
0.016512
0.0186349
0.0166585
0.0139222
0.0122999
0.01216
0.0128074
0.0140928
0.0173846
0.0280526
0.0468631
0.0650424
0.0759614
0.0828666
0.0886627
0.0918136
0.0857744
0.0786805
0.0751582
0.0770625
0.0884952
0.106302
0.00948687
0.0203991
0.0147353
0.00457619
0.00219442
0.00226402
0.00341305
0.00464341
0.00640083
0.00859207
0.00855563
0.00847173
0.0114669
0.0167589
0.0194031
0.0172531
0.0140043
0.0119422
0.0116406
0.0126415
0.01448
0.0183163
0.0292731
0.0476045
0.0654413
0.0761689
0.0830178
0.0887823
0.092032
0.085561
0.0784826
0.0749989
0.0770503
0.0884852
0.106344
0.00936733
0.0194648
0.0130798
0.00399347
0.0021095
0.00251037
0.00364745
0.00466157
0.00633152
0.00839887
0.00810973
0.008034
0.0110614
0.0166815
0.0199348
0.017868
0.0143384
0.011973
0.0114996
0.0126757
0.0149189
0.019247
0.0305167
0.0484237
0.0659253
0.0764423
0.0832241
0.0889515
0.0923086
0.0853582
0.0782974
0.0748607
0.0770793
0.0885258
0.106449
0.0092307
0.0182969
0.0114892
0.00355133
0.00227854
0.00282729
0.0039671
0.00473906
0.00624603
0.00808006
0.00759692
0.00752631
0.0104491
0.0162288
0.0201396
0.0183623
0.0147442
0.0122098
0.01161
0.0128631
0.0153988
0.0201761
0.0317792
0.0493236
0.0665065
0.0767962
0.0834998
0.0891842
0.0926553
0.0851829
0.0781414
0.0747617
0.0771668
0.0886378
0.106638
0.00908003
0.0169201
0.010026
0.0032835
0.00264795
0.00314363
0.00426948
0.00478599
0.00608224
0.00760736
0.0069887
0.00691062
0.00959427
0.0153745
0.0199801
0.0186672
0.0151112
0.0125174
0.0118527
0.0131442
0.0159021
0.0211046
0.0330607
0.0503066
0.0671929
0.0772408
0.0838552
0.0894916
0.0930818
0.0850509
0.0780306
0.0747194
0.0773302
0.0888423
0.106934
0.00891508
0.0153613
0.00873127
0.00317415
0.00314466
0.0033993
0.0044532
0.00471029
0.00577182
0.00695549
0.00626709
0.00616338
0.00847455
0.0140652
0.019392
0.0187254
0.0153656
0.012801
0.0121309
0.013458
0.0164063
0.0220308
0.0343612
0.0513722
0.0679873
0.077781
0.0842963
0.0898814
0.0935952
0.0849764
0.0779801
0.074751
0.0775864
0.0891602
0.10736
0.00874002
0.0136677
0.00761879
0.00319749
0.00368149
0.00354924
0.00445345
0.00446209
0.00528114
0.00613024
0.00544078
0.00529445
0.00711061
0.0122401
0.0182512
0.0184576
0.0154468
0.012994
0.0123712
0.0137503
0.016885
0.0229481
0.0356777
0.052516
0.0688869
0.078416
0.0848244
0.0903574
0.0941996
0.0849714
0.0780033
0.0748724
0.0779517
0.0896118
0.107936
0.00855535
0.0118921
0.00667982
0.00330573
0.00416245
0.00358696
0.00427671
0.00407145
0.00465099
0.00519694
0.00456279
0.00436627
0.00560941
0.00991806
0.0163855
0.017735
0.0152831
0.0130403
0.0125173
0.0139729
0.0173084
0.023843
0.0370022
0.0537286
0.0698826
0.0791396
0.0854359
0.0909199
0.094896
0.0850455
0.0781123
0.0750986
0.0784415
0.0902166
0.108684
0.00836592
0.0101068
0.00588919
0.00341603
0.00450877
0.00355159
0.00400759
0.00364631
0.00400193
0.00428619
0.0037339
0.00349265
0.00417539
0.00732526
0.0136866
0.0163892
0.014784
0.0128856
0.0125227
0.0140842
0.0176436
0.024694
0.0383202
0.0549954
0.07096
0.0799405
0.0861235
0.0915658
0.0956827
0.0852064
0.0783177
0.0754434
0.07907
0.0909937
0.109622
0.00817267
0.0083893
0.00522084
0.00344953
0.0046887
0.00351561
0.00377133
0.00331819
0.00348345
0.00355161
0.00307223
0.00279879
0.0030374
0.00492007
0.0103219
0.0142672
0.0138386
0.0124683
0.0123442
0.0140456
0.0178541
0.0254707
0.03961
0.0562967
0.0720998
0.0808034
0.0868766
0.0922896
0.096556
0.0854597
0.0786284
0.0759196
0.0798509
0.0919614
0.110769
0.00798033
0.00682443
0.00465742
0.003381
0.00474536
0.00355351
0.00367351
0.00317563
0.00319767
0.0030979
0.00266071
0.00236249
0.00232215
0.0031654
0.00690571
0.0113869
0.0123477
0.0117249
0.01194
0.0138221
0.0179002
0.0261338
0.0408437
0.0576087
0.0732793
0.0817105
0.0876827
0.0930841
0.0975107
0.0858095
0.0790523
0.076539
0.0807969
0.0931373
0.112143
0.00778933
0.00548961
0.00419951
0.00327057
0.00477907
0.00372244
0.00376943
0.0032453
0.0031692
0.00294524
0.0025177
0.00218881
0.00200276
0.00221023
0.00424179
0.0081447
0.0102975
0.0106034
0.0112716
0.0133813
0.0177407
0.0266357
0.0419865
0.0589043
0.0744735
0.0826427
0.0885289
0.0939418
0.0985407
0.0862592
0.0795966
0.0773133
0.0819206
0.0945393
0.113761
0.00760307
0.00443539
0.00386165
0.00323016
0.00490382
0.00406125
0.00407526
0.00351888
0.00337327
0.00305703
0.00261637
0.00223753
0.00196841
0.00188224
0.00270565
0.00529132
0.00788882
0.00910655
0.0103152
0.0126992
0.0173359
0.0269224
0.0429989
0.0601544
0.0756566
0.083581
0.0894027
0.0948556
0.0996401
0.0868114
0.0802677
0.078254
0.0832341
0.0961853
0.11564
0.00742066
0.00367286
0.00366676
0.00335964
0.00521531
0.00460374
0.00459714
0.00398885
0.0037796
0.00338714
0.00292213
0.00246415
0.00211244
0.00192023
0.00210752
0.00341265
0.00558365
0.00735259
0.0090835
0.011766
0.0166537
0.0269355
0.0438373
0.0613295
0.0768041
0.0845081
0.0902938
0.0958202
0.100804
0.087469
0.0810724
0.0793729
0.0847501
0.0980939
0.117797
0.00724378
0.0031796
0.00364643
0.00370909
0.00577877
0.00538868
0.00535076
0.00466734
0.00437978
0.00391231
0.00342119
0.00284715
0.00237568
0.00211879
0.00207787
0.00252624
0.00387254
0.00561214
0.00765907
0.0106012
0.0156783
0.0266188
0.0444558
0.0624014
0.0778934
0.0854099
0.0911946
0.0968325
0.102027
0.0882351
0.0820173
0.0806829
0.0864814
0.100285
0.12025
0.00707145
0.00292206
0.00386294
0.00429898
0.00664335
0.00646489
0.00636786
0.00558797
0.00519281
0.00464086
0.00413045
0.00339814
0.00275261
0.00237614
0.00230516
0.00232735
0.00292712
0.00420976
0.00621194
0.00926761
0.0144223
0.0259241
0.0448084
0.0633445
0.0789062
0.086276
0.0921019
0.0978928
0.10331
0.0891142
0.0831103
0.0821982
0.0884419
0.102779
0.123015
0.00690537
0.00286875
0.00442754
0.00515204
0.00785586
0.0078918
0.00769381
0.00679809
0.0062569
0.00560531
0.00509206
0.0041604
0.00328087
0.00268959
0.00259692
0.00250398
0.00260791
0.00332899
0.00495916
0.00788153
0.0129381
0.0248239
0.0448517
0.064138
0.0798294
0.0871014
0.0930168
0.0990054
0.104652
0.090112
0.0843598
0.0839345
0.0906466
0.105599
0.126111
0.00674534
0.0029958
0.005482
0.00631942
0.00947789
0.0097426
0.0093855
0.00835138
0.0076183
0.00684678
0.00635447
0.00519452
0.00402558
0.0031153
0.00290177
0.00282878
0.00269031
0.0029452
0.00406105
0.00659354
0.0113239
0.0233233
0.0445486
0.064767
0.0806563
0.087887
0.0939462
0.100179
0.106056
0.0912356
0.0857758
0.0859098
0.0931121
0.108771
0.129559
0.00659312
0.00328664
0.00714399
0.0078825
0.011592
0.0121024
0.0115059
0.0102987
0.00931927
0.00839968
0.00795121
0.00655694
0.00506006
0.00374116
0.00326251
0.00319583
0.00298557
0.00292994
0.00355488
0.00554007
0.00971367
0.0214739
0.0438734
0.0652243
0.0813874
0.08864
0.0949023
0.101426
0.107528
0.0924941
0.0873696
0.0881447
0.0958565
0.112322
0.133378
0.00644962
0.00370501
0.00944179
0.00996081
0.014299
0.0150573
0.0141123
0.0126752
0.0113834
0.0102742
0.00987815
0.00827073
0.0064338
0.00466291
0.00376428
0.00360427
0.00338072
0.00314977
0.00338341
0.00479262
0.008248
0.019379
0.0428184
0.0655117
0.0820315
0.0893744
0.0959033
0.102766
0.109079
0.0938986
0.0891543
0.0906623
0.0988999
0.116284
0.137591
0.00631698
0.00421947
0.0122867
0.0126849
0.0176963
0.0186641
0.0172286
0.0154766
0.0137953
0.0124395
0.0120788
0.0103033
0.00814164
0.00594502
0.00450613
0.00410864
0.00384256
0.00351028
0.00345934
0.0043501
0.00703593
0.0171858
0.041401
0.0656412
0.0826053
0.0901109
0.0969733
0.104221
0.11072
0.0954619
0.0911447
0.0934891
0.102264
0.120691
0.142222
0.00619775
0.00482451
0.0155225
0.0161742
0.021848
0.0229089
0.0208105
0.0186319
0.0164787
0.0148082
0.014436
0.0125535
0.0101055
0.00757318
0.00556413
0.00477877
0.00438746
0.00396551
0.00370641
0.00416551
0.00613124
0.0150583
0.0396706
0.0656358
0.0831341
0.0908763
0.0981415
0.105818
0.112466
0.0971986
0.0933575
0.0966545
0.105975
0.12558
0.147295
0.00609509
0.0055193
0.0190087
0.0205081
0.0267457
0.0276658
0.0247121
0.0219817
0.0192822
0.0172313
0.0167781
0.014858
0.012181
0.0094397
0.00694238
0.00566835
0.00504798
0.00450544
0.00407554
0.00418006
0.005534
0.0131431
0.0377117
0.0655305
0.0836505
0.0917035
0.0994421
0.107589
0.114335
0.0991251
0.0958112
0.100192
0.110057
0.130995
0.152837
0.00601408
0.00631667
0.0226696
0.0256931
0.0322693
0.0326735
0.0286745
0.0252775
0.0219834
0.0195057
0.0188948
0.0170085
0.0141771
0.0113635
0.00854222
0.0067788
0.00584351
0.00513228
0.00454153
0.00434406
0.00520898
0.0115411
0.0356404
0.0653716
0.0841941
0.0926298
0.100913
0.109569
0.116346
0.101259
0.0985266
0.104137
0.114542
0.136981
0.158877
0.00596079
0.00723865
0.0264787
0.0316028
0.0381387
0.037528
0.0323369
0.0282029
0.0243128
0.0214003
0.0205663
0.0187827
0.0158873
0.0131325
0.0101846
0.00803737
0.00675894
0.00584054
0.00509048
0.00462628
0.00510754
0.0103016
0.0335932
0.0652166
0.0848094
0.093696
0.102597
0.111796
0.118521
0.103621
0.101526
0.108533
0.119463
0.143589
0.165444
0.00594609
0.00831831
0.0304086
0.0378972
0.0438741
0.0417046
0.0352773
0.0304192
0.0259982
0.0226934
0.0215975
0.0199775
0.0171214
0.0145403
0.0116591
0.00930473
0.00773215
0.00660153
0.00570401
0.00501003
0.00518433
0.00943227
0.0317103
0.0651321
0.0855443
0.0949444
0.104535
0.114311
0.120882
0.10623
0.104836
0.113423
0.124855
0.150878
0.172574
0.00598322
0.00958293
0.0343536
0.043961
0.0487985
0.0446173
0.0370774
0.0316248
0.0268176
0.0232195
0.0218591
0.0204493
0.0177401
0.0154272
0.0127795
0.0104177
0.00866517
0.00736143
0.00634991
0.00548473
0.00540701
0.00891674
0.0301174
0.0651907
0.0864475
0.0964178
0.106773
0.117155
0.123455
0.109109
0.108483
0.11886
0.13076
0.158913
0.180301
0.00609167
0.0110521
0.0380863
0.0489635
0.052142
0.0457376
0.0374119
0.0316246
0.026654
0.0229108
0.021321
0.0201442
0.0176809
0.015704
0.0134182
0.0112333
0.00944845
0.00804881
0.00697957
0.00603312
0.00575807
0.0087286
0.0289123
0.0654667
0.0875663
0.0981569
0.109353
0.120372
0.126263
0.112281
0.112499
0.124901
0.137224
0.167766
0.188668
0.00628805
0.0127205
0.0412621
0.0520764
0.0532483
0.044745
0.0361398
0.0303852
0.0255301
0.021823
0.0200697
0.01912
0.0169758
0.0153737
0.0135313
0.0116667
0.00999463
0.00859514
0.0075377
0.00662571
0.00623085
0.00884122
0.0281603
0.0660305
0.0889438
0.100199
0.112319
0.124007
0.129335
0.115772
0.11692
0.131611
0.1443
0.177522
0.197721
0.00658505
0.0145741
0.0435541
0.0527838
0.0518164
0.0416683
0.0333755
0.0280641
0.023615
0.0201281
0.0182951
0.0175376
0.0157469
0.0145235
0.0131553
0.0116994
0.0102562
0.00895036
0.00797461
0.00721934
0.0068211
0.00923215
0.0278972
0.0669438
0.0906172
0.102577
0.115711
0.128105
0.132697
0.11961
0.121786
0.139065
0.152049
0.188278
0.207515
0.00697682
0.0165739
0.0447549
0.051078
0.0480416
0.0369364
0.0294994
0.0249893
0.0211892
0.0180775
0.0162497
0.0156306
0.0141838
0.0133101
0.0123963
0.0113778
0.010235
0.00909675
0.00826097
0.00776859
0.00751868
0.00988452
0.0281372
0.0682551
0.0926155
0.10532
0.11957
0.132713
0.136379
0.123828
0.127145
0.147352
0.160541
0.200144
0.218111
0.00744499
0.0186637
0.0448477
0.0474278
0.0425704
0.0312999
0.0250938
0.0215949
0.0185829
0.0159411
0.0141889
0.0136503
0.0125022
0.0119197
0.0113968
0.0107901
0.00997133
0.00904649
0.00839163
0.00823541
0.00830162
0.0107841
0.02888
0.069998
0.0949599
0.10845
0.123935
0.137884
0.140414
0.128462
0.133053
0.156572
0.169859
0.21325
0.229583
0.00795396
0.0206885
0.0439346
0.0425413
0.0362784
0.0256152
0.0207923
0.0183177
0.0160996
0.0139495
0.0123188
0.0118135
0.0109003
0.0105352
0.0103105
0.0100477
0.0095339
0.00883889
0.00838716
0.00860254
0.00913763
0.0119162
0.0301177
0.0721929
0.0976646
0.111989
0.128852
0.143673
0.144838
0.133558
0.139573
0.166842
0.180095
0.227745
0.242015
0.00846726
0.0223763
0.0421399
0.037107
0.0299945
0.0205788
0.0170902
0.0154867
0.0139532
0.0122512
0.0107624
0.0102636
0.00952274
0.009299
0.00926983
0.00925892
0.00899988
0.00852627
0.00828465
0.00887312
0.00999058
0.0132622
0.0318411
0.0748528
0.10074
0.11596
0.134367
0.150145
0.149693
0.139169
0.14678
0.1783
0.191359
0.243799
0.255503
0.00894498
0.0232903
0.0395187
0.0316264
0.024292
0.0165265
0.014195
0.0132388
0.0122287
0.0108974
0.00955514
0.00906016
0.00844453
0.00830031
0.0083732
0.00851701
0.00844528
0.0081674
0.00813257
0.00907296
0.0108316
0.0148013
0.0340459
0.0779914
0.104197
0.120391
0.140539
0.157371
0.155026
0.145356
0.154759
0.1911
0.20377
0.261602
0.270157
0.0093615
0.0229719
0.0360423
0.0263898
0.0194199
0.013407
0.0120065
0.0115045
0.0108816
0.00984954
0.0086601
0.00818949
0.00767436
0.00756812
0.00767291
0.00788541
0.00793061
0.00781536
0.00798031
0.00924053
0.011648
0.0165157
0.0367415
0.0816344
0.108052
0.125316
0.147435
0.165435
0.160892
0.152193
0.163607
0.205414
0.217465
0.281364
0.286093
0.0096768
0.0209707
0.0315952
0.0215274
0.0153572
0.0109181
0.0102227
0.0100668
0.00977029
0.00900783
0.00799854
0.00759449
0.00717508
0.00708863
0.00718458
0.00739956
0.0074996
0.00751621
0.00787676
0.00942612
0.0124506
0.0184017
0.0399629
0.0858303
0.112332
0.130784
0.155136
0.17443
0.167352
0.159762
0.173427
0.22143
0.232586
0.303311
0.303437
0.00988074
0.0171911
0.0260803
0.0170473
0.0119088
0.00867405
0.00846191
0.00862606
0.00867468
0.00821591
0.00745261
0.00717974
0.00686788
0.00680634
0.00688322
0.00705615
0.00716636
0.00729658
0.00786229
0.00968301
0.0132751
0.0204766
0.0437801
0.0906595
0.117076
0.136854
0.163734
0.184456
0.174472
0.168151
0.184328
0.239347
0.249284
0.327678
0.322317
4.88656e-24
6.60887e-19
1.53118e-18
5.4055e-18
3.63607e-17
4.99387e-14
1.50515e-10
0.00357095
0.0205845
0.0291116
0.0397076
0.0477895
0.0547346
0.0617883
0.0632619
0.0729071
0.0846315
0.0787237
0.0564963
0.0527636
0.0339774
0.012248
5.00007e-24
1.81536e-19
1.31192e-19
8.02949e-18
8.82211e-17
3.67428e-13
1.4454e-09
0.00615612
0.0233991
0.0303769
0.0395906
0.047841
0.055147
0.0627496
0.0641334
0.0736799
0.085305
0.0783964
0.0553533
0.0517951
0.0335061
0.0123726
5.10572e-24
5.69108e-19
1.58533e-18
1.36177e-17
1.92517e-16
1.4538e-12
1.44397e-08
0.00912087
0.025906
0.0314342
0.0395005
0.0479791
0.0556645
0.0638108
0.0650896
0.0744885
0.0859623
0.0781184
0.0545395
0.0505756
0.032863
0.0126001
5.06525e-24
1.36022e-19
4.63696e-20
1.30964e-17
3.76452e-16
4.27184e-12
2.94015e-07
0.0122474
0.0281198
0.0323436
0.0394977
0.0482068
0.0562805
0.064973
0.0661489
0.0753461
0.0866232
0.0779199
0.0540436
0.0491424
0.0320963
0.0129284
5.16866e-24
4.52281e-19
1.37557e-18
1.54139e-17
6.31235e-16
7.63156e-12
1.21556e-05
0.0151581
0.0300876
0.0331581
0.0396198
0.0485213
0.0569854
0.0662128
0.0673005
0.0762644
0.0872988
0.0778227
0.0538395
0.0475616
0.0312665
0.0133478
5.11668e-24
1.06028e-19
2.83132e-20
1.07969e-17
1.00978e-15
1.16635e-11
4.02163e-05
0.0174074
0.0318616
0.0339306
0.0398961
0.0489233
0.057767
0.0675276
0.0685564
0.0772477
0.0879917
0.0778401
0.053901
0.0458836
0.0303931
0.0138749
5.23154e-24
3.62589e-19
1.06074e-18
1.08508e-17
1.43092e-15
1.229e-11
7.84136e-05
0.0187701
0.0334961
0.0347023
0.0403385
0.0494071
0.0586084
0.0688853
0.0698947
0.0783003
0.0886983
0.0779816
0.0541897
0.0441758
0.0295122
0.014523
5.17234e-24
8.51464e-20
1.83413e-20
6.67776e-18
1.99037e-15
1.11304e-11
6.18204e-05
0.0192934
0.0350306
0.0355124
0.0409577
0.0499717
0.0594902
0.0702755
0.071318
0.0794178
0.0894098
0.0782464
0.0546739
0.042481
0.0286275
0.0153105
5.2997e-24
2.94071e-19
8.16764e-19
6.6757e-18
2.45146e-15
7.11423e-12
6.61341e-05
0.0191851
0.0364927
0.0363876
0.0417528
0.0506103
0.0603884
0.0716539
0.0727896
0.0805954
0.0901156
0.0786309
0.0553143
0.0408547
0.0277654
0.0162408
5.22519e-24
7.02366e-20
1.32925e-20
3.95139e-18
2.90436e-15
4.2414e-12
8.71254e-05
0.0186167
0.0378836
0.0373509
0.0427272
0.0513229
0.0612792
0.0729987
0.0742974
0.0818178
0.0908043
0.0791215
0.0560841
0.0393245
0.0269203
0.0173158
5.35899e-24
2.40552e-19
6.40256e-19
4.17343e-18
3.03502e-15
2.0586e-12
9.85104e-05
0.0176491
0.0391823
0.0384115
0.0438759
0.0521066
0.0621388
0.0742538
0.0757874
0.0830671
0.0914649
0.0797032
0.0569503
0.0379315
0.0261124
0.0185184
5.27243e-24
5.94873e-20
1.02192e-20
2.43714e-18
3.01976e-15
1.0102e-12
0.000102758
0.0163295
0.0403316
0.0395725
0.0452013
0.0529684
0.0629488
0.075389
0.0772305
0.0843113
0.0920852
0.0803524
0.0578956
0.0366888
0.0253304
0.019829
5.41302e-24
1.98779e-19
5.17881e-19
2.75828e-18
2.68014e-15
4.41003e-13
8.74315e-05
0.0146838
0.0412453
0.0408185