/*--------------------------------*- C++ -*----------------------------------*\
| =========                 |                                                 |
| \\      /  F ield         | OpenFOAM: The Open Source CFD Toolbox           |
|  \\    /   O peration     | Version:  v1912                                 |
|   \\  /    A nd           | Website:  www.openfoam.com                      |
|    \\/     M anipulation  |                                                 |
\*---------------------------------------------------------------------------*/
FoamFile
{
    version     2.0;
    format      ascii;
    class       volScalarField;
    location    "50";
    object      p;
}
// * * * * * * * * * * * * * * * * * * * * * * * * * * * * * * * * * * * * * //

dimensions      [0 2 -2 0 0 0 0];


internalField   nonuniform List<scalar> 
12441
(
7.22777
9.57553
16.7275
9.54712
6.89509
10.9669
18.5746
23.5293
28.3474
31.8996
36.296
43.6482
54.9187
67.2251
79.1608
93.9206
116.13
145.804
196.031
256.422
351.964
437.473
7.22794
9.57536
16.7267
9.54796
6.89518
10.9667
18.5744
23.5299
28.3466
31.8992
36.2948
43.6477
54.9192
67.2253
79.1586
93.9134
116.114
145.784
195.932
256.337
351.887
437.204
7.22833
9.5752
16.7247
9.54957
6.89548
10.9664
18.5738
23.5312
28.3453
31.8987
36.2923
43.6462
54.9199
67.2258
79.1546
93.9
116.088
145.733
195.745
256.136
351.695
436.702
7.22896
9.5749
16.7216
9.55197
6.89607
10.9661
18.573
23.533
28.3435
31.8976
36.2882
43.6439
54.9212
67.2271
79.149
93.8801
116.051
145.657
195.558
255.828
351.365
435.944
7.2298
9.57451
16.7174
9.5551
6.89692
10.9659
18.5719
23.5354
28.341
31.896
36.2825
43.6409
54.9233
67.2291
79.1416
93.8535
116.002
145.565
195.389
255.44
350.912
434.926
7.23085
9.574
16.7123
9.55894
6.898
10.9656
18.5705
23.5383
28.3379
31.8939
36.2753
43.6375
54.9262
67.2317
79.132
93.82
115.942
145.457
195.198
254.972
350.338
433.646
7.2321
9.5734
16.7061
9.56343
6.8993
10.9654
18.5687
23.5416
28.3343
31.8914
36.2666
43.6336
54.9298
67.2349
79.1201
93.7796
115.872
145.331
194.975
254.425
349.649
432.105
7.23355
9.57265
16.6992
9.56861
6.90081
10.9653
18.5667
23.5454
28.3301
31.8883
36.2564
43.6294
54.9342
67.2385
79.1058
93.7321
115.795
145.187
194.73
253.81
348.855
430.304
7.23519
9.57183
16.6913
9.57437
6.90252
10.9653
18.5644
23.5496
28.3252
31.8847
36.2448
43.6249
54.9393
67.2427
79.0889
93.6777
115.716
145.032
194.472
253.141
347.96
428.24
7.237
9.57086
16.6826
9.58077
6.90445
10.9654
18.5618
23.5541
28.3198
31.8806
36.2318
43.6202
54.9452
67.2474
79.0692
93.6175
115.638
144.866
194.21
252.43
346.971
425.91
7.239
9.56981
16.6731
9.58771
6.90658
10.9656
18.5588
23.559
28.3137
31.8759
36.2175
43.6154
54.9519
67.2528
79.0455
93.554
115.566
144.694
193.951
251.687
345.889
423.312
7.24116
9.5686
16.6628
9.59526
6.90892
10.9659
18.5556
23.5641
28.307
31.8706
36.2019
43.6106
54.9595
67.2586
79.0172
93.4928
115.506
144.523
193.706
250.916
344.711
420.441
7.2435
9.56733
16.6517
9.60331
6.91146
10.9664
18.5521
23.5696
28.2998
31.8649
36.1852
43.6058
54.9688
67.264
78.9874
93.4422
115.467
144.367
193.479
250.114
343.432
417.293
7.24598
9.56589
16.6399
9.61193
6.9142
10.967
18.5483
23.5752
28.2919
31.8586
36.1674
43.6013
54.9809
67.2664
78.9616
93.4095
115.454
144.236
193.259
249.262
342.045
413.861
7.24863
9.5644
16.6274
9.62101
6.91716
10.9677
18.5442
23.581
28.2834
31.8518
36.1484
43.5976
54.9958
67.2648
78.9466
93.3983
115.472
144.131
193.022
248.34
340.539
410.138
7.25142
9.56274
16.6142
9.63062
6.92033
10.9685
18.5399
23.5869
28.2743
31.8445
36.1284
43.5955
55.0126
67.2605
78.9463
93.408
115.513
144.039
192.736
247.325
338.906
406.114
7.25437
9.56103
16.6003
9.64065
6.92371
10.9696
18.5353
23.5929
28.2647
31.8367
36.1074
43.5963
55.0282
67.2582
78.9603
93.4343
115.565
143.934
192.378
246.205
337.14
401.781
7.25744
9.55916
16.5859
9.65118
6.92732
10.9707
18.5304
23.599
28.2545
31.8285
36.0855
43.6011
55.0409
67.2601
78.9833
93.4697
115.607
143.789
191.938
244.973
335.237
397.128
7.26066
9.55726
16.5707
9.66207
6.93115
10.972
18.5253
23.6052
28.2438
31.8198
36.0628
43.6107
55.0502
67.2664
79.0089
93.5043
115.615
143.587
191.421
243.632
333.195
392.147
7.26399
9.55518
16.555
9.67344
6.93521
10.9734
18.5199
23.6113
28.2326
31.8106
36.0395
43.6256
55.0582
67.2722
79.0298
93.5265
115.571
143.326
190.838
242.186
331.014
386.824
7.26747
9.55309
16.5387
9.68513
6.93951
10.9749
18.5142
23.6175
28.2209
31.8009
36.0165
43.6457
55.0649
67.2746
79.0404
93.5263
115.47
143.018
190.206
240.643
328.696
381.149
7.27104
9.55082
16.5219
9.69726
6.94405
10.9765
18.5083
23.6235
28.2088
31.7907
35.9954
43.6699
55.0711
67.2684
79.0347
93.4973
115.317
142.679
189.537
239.012
326.244
375.11
7.27475
9.54856
16.5044
9.70966
6.94883
10.9783
18.502
23.6296
28.1962
31.7798
35.9786
43.6954
55.0736
67.253
79.0106
93.4386
115.129
142.327
188.844
237.3
323.66
368.693
7.27855
9.54612
16.4866
9.72249
6.95386
10.9801
18.4956
23.6354
28.1833
31.7682
35.9685
43.7199
55.073
67.225
78.9663
93.3544
114.922
141.971
188.128
235.515
320.948
361.882
7.28247
9.54369
16.4681
9.73554
6.95915
10.9821
18.4889
23.6413
28.1701
31.7558
35.9662
43.7423
55.0659
67.1869
78.9054
93.2526
114.714
141.616
187.395
233.664
318.113
354.663
7.28648
9.54109
16.4493
9.74899
6.96469
10.9841
18.482
23.6469
28.1565
31.7425
35.9713
43.7631
55.0544
67.1366
78.8301
93.1415
114.514
141.263
186.641
231.755
315.159
347.017
7.2906
9.53852
16.4299
9.76263
6.9705
10.9862
18.4747
23.6524
28.1427
31.728
35.9825
43.7822
55.0357
67.0788
78.7471
93.0286
114.328
140.91
185.869
229.793
312.088
338.927
7.2948
9.53577
16.4101
9.77663
6.97658
10.9884
18.4673
23.6578
28.1286
31.7121
35.999
43.7998
55.013
67.0122
78.6586
92.9186
114.153
140.553
185.073
227.784
308.905
330.368
7.2991
9.53306
16.3898
9.79078
6.98292
10.9907
18.4596
23.6629
28.1141
31.6954
36.0191
43.8152
54.9837
66.9423
78.5701
92.8139
113.989
140.191
184.253
225.733
305.609
321.322
7.30347
9.53018
16.3692
9.80528
6.98955
10.9929
18.4517
23.6679
28.0993
31.6794
36.0409
43.8286
54.9519
66.8672
78.4808
92.7143
113.831
139.82
183.403
223.642
302.2
311.76
7.30794
9.52735
16.3481
9.81989
6.99645
10.9953
18.4435
23.6727
28.0842
31.6655
36.0616
43.8394
54.9148
66.7923
78.3944
92.619
113.676
139.439
182.523
221.511
298.673
301.658
7.31247
9.52434
16.3267
9.83482
7.00363
10.9977
18.4351
23.6773
28.0686
31.6541
36.0805
43.8479
54.8766
66.7142
78.3074
92.5255
113.519
139.043
181.606
219.341
295.022
290.982
7.31708
9.5214
16.3048
9.84983
7.0111
11.0001
18.4264
23.6816
28.0527
31.6443
36.0969
43.854
54.8343
66.6382
78.2228
92.4321
113.358
138.63
180.653
217.129
291.24
279.705
7.32176
9.51829
16.2827
9.86515
7.01887
11.0025
18.4176
23.6858
28.0364
31.6355
36.1112
43.8581
54.7922
66.5594
78.1356
92.336
113.187
138.197
179.658
214.874
287.315
267.79
7.32651
9.51523
16.2601
9.88052
7.02693
11.005
18.4084
23.6897
28.0198
31.6274
36.1235
43.8599
54.747
66.4831
78.0492
92.2357
113.004
137.742
178.622
212.574
283.236
255.204
7.33132
9.51199
16.2372
9.89618
7.03531
11.0074
18.3991
23.6933
28.0026
31.6197
36.1339
43.8601
54.7026
66.4037
77.9585
92.129
112.806
137.262
177.542
210.232
278.992
241.907
7.3362
9.50883
16.2139
9.91185
7.04399
11.01
18.3895
23.6967
27.9848
31.6124
36.1424
43.8582
54.6556
66.3268
77.8672
92.0152
112.592
136.757
176.418
207.849
274.572
227.864
7.34112
9.50556
16.1904
9.92774
7.05296
11.0125
18.3798
23.6998
27.9659
31.6062
36.1494
43.855
54.6099
66.2468
77.7709
91.8932
112.358
136.225
175.25
205.429
269.967
213.028
7.34612
9.50246
16.1665
9.94358
7.06216
11.015
18.3699
23.7027
27.9452
31.6022
36.1549
43.85
54.562
66.1694
77.6738
91.7632
112.107
135.666
174.041
202.976
265.172
197.362
7.35114
9.49916
16.1425
9.9597
7.07162
11.0174
18.3597
23.7054
27.9225
31.6011
36.1592
43.844
54.5159
66.0897
77.572
91.6248
111.837
135.083
172.79
200.498
260.184
180.813
7.35623
9.49574
16.1182
9.97589
7.08137
11.0198
18.3491
23.7077
27.8992
31.6017
36.1622
43.8367
54.4681
66.0135
77.4695
91.4796
111.553
134.48
171.505
198
255.003
163.341
7.36137
9.49202
16.0936
9.99239
7.09161
11.022
18.3382
23.709
27.878
31.6027
36.1642
43.829
54.4232
65.9347
77.3621
91.3278
111.258
133.858
170.184
195.489
249.629
144.901
7.36655
9.48874
16.0685
10.0087
7.10249
11.0243
18.3271
23.7085
27.8617
31.6027
36.1654
43.8212
54.3762
65.8573
77.2538
91.1731
110.957
133.214
168.833
192.964
244.04
125.411
7.37174
9.48562
16.0432
10.0246
7.11376
11.0261
18.3165
23.7058
27.85
31.6015
36.1684
43.8151
54.33
65.7748
77.144
91.018
110.645
132.54
167.449
190.42
238.161
104.24
-36.7961
-59.3198
-73.1167
-51.9864
-16.1855
18.2714
50.3794
59.4962
63.27
57.2641
50.1278
40.8542
33.0737
26.0768
20.4738
16.0481
12.5462
9.88777
7.55888
4.93797
1.39976
-2.17851
-1.10556
2.14712
6.05328
6.1631
5.59166
4.83247
4.13121
3.65447
2.79061
2.52456
1.87801
1.0525
1.00982
-36.8365
-59.2535
-72.9234
-51.9212
-16.1963
18.2312
50.3346
59.4558
63.2432
57.2469
50.1309
40.8627
33.0809
26.0839
20.4831
16.0605
12.5575
9.89475
7.56171
4.93985
1.40139
-2.18379
-1.12265
2.1301
6.04768
6.16186
5.59111
4.83214
4.13095
3.65438
2.79053
2.52448
1.87796
1.0524
1.00974
-36.896
-59.1995
-72.82
-51.8974
-16.2352
18.184
50.2855
59.4107
63.2132
57.2283
50.1424
40.8768
33.0919
26.0938
20.4978
16.0823
12.5805
9.91221
7.57054
4.94309
1.40118
-2.19423
-1.14316
2.11316
6.04209
6.16051
5.59045
4.83173
4.13064
3.65428
2.79045
2.5244
1.87789
1.05227
1.00965
-36.964
-59.1719
-72.8518
-51.9331
-16.307
18.1355
50.2403
59.3656
63.1796
57.2054
50.1559
40.8925
33.1043
26.1027
20.5115
16.1067
12.6103
9.93794
7.58498
4.94739
1.40002
-2.20723
-1.16451
2.0976
6.03682
6.1593
5.58985
4.83135
4.13034
3.65422
2.79038
2.52434
1.87784
1.05216
1.00957
-37.0403
-59.1847
-73.025
-52.0287
-16.3899
18.0954
50.2095
59.3298
63.1465
57.1806
50.1642
40.9042
33.1129
26.1049
20.516
16.1226
12.6347
9.96191
7.59975
4.95126
1.39782
-2.22177
-1.18617
2.08419
6.03215
6.15823
5.5893
4.83099
4.13002
3.65419
2.79033
2.52429
1.87779
1.05205
1.00951
-37.1234
-59.2474
-73.3182
-52.1791
-16.4733
18.0511
50.1849
59.3006
63.1149
57.156
50.1654
40.91
33.1167
26.1004
20.5106
16.1272
12.6488
9.97859
7.61105
4.95356
1.39464
-2.23677
-1.2077
2.07286
6.02809
6.15728
5.58877
4.83063
4.12968
3.65418
2.79028
2.52424
1.87776
1.05194
1.00945
-37.212
-59.3669
-73.707
-52.3748
-16.5599
17.9866
50.1506
59.2688
63.0829
57.1327
50.1606
40.9114
33.118
26.0934
20.4991
16.1232
12.6535
9.98716
7.61748
4.95385
1.39063
-2.25157
-1.22864
2.06335
6.0246
6.15642
5.58824
4.83025
4.12931
3.65418
2.79024
2.5242
1.87772
1.05182
1.00939
-37.3037
-59.5505
-74.1683
-52.6011
-16.657
17.8989
50.0952
59.2255
63.0476
57.1108
50.1511
40.9104
33.1196
26.0881
20.4864
16.1144
12.6517
9.98917
7.61923
4.95213
1.38593
-2.26585
-1.24861
2.0554
6.02163
6.15564
5.58769
4.82985
4.1289
3.65418
2.79019
2.52414
1.87769
1.0517
1.00934
-37.3975
-59.8029
-74.6785
-52.8401
-16.7748
17.7936
50.0156
59.1674
63.0072
57.0896
50.1388
40.9083
33.123
26.087
20.4755
16.1039
12.6461
9.98669
7.61729
4.94874
1.38074
-2.27958
-1.26738
2.04881
6.01912
6.15492
5.58713
4.82942
4.12845
3.65418
2.79013
2.52408
1.87765
1.05157
1.0093
-37.4916
-60.1246
-75.218
-53.0811
-16.918
17.6794
49.9156
59.0964
62.9619
57.0681
50.1242
40.9054
33.1288
26.0905
20.4678
16.0935
12.6386
9.98159
7.61286
4.94415
1.37523
-2.29278
-1.28484
2.04341
6.01702
6.15423
5.58652
4.82894
4.12793
3.65416
2.79006
2.52401
1.8776
1.05142
1.00926
-37.5856
-60.5143
-75.7666
-53.3236
-17.0872
17.562
49.8028
59.017
62.9134
57.0461
50.107
40.9022
33.137
26.0988
20.4639
16.084
12.6305
9.97518
7.60705
4.9389
1.36965
-2.30558
-1.301
2.03911
6.01532
6.15357
5.58587
4.82841
4.12735
3.65412
2.78996
2.52392
1.87755
1.05126
1.00922
-37.6775
-60.9666
-76.3101
-53.5764
-17.2751
17.4466
49.6862
58.9345
62.8635
57.0233
50.0876
40.899
33.147
26.1117
20.4644
16.0761
12.6225
9.96837
7.60075
4.93351
1.36423
-2.31797
-1.31582
2.03587
6.01398
6.15293
5.58516
4.82782
4.1267
3.65405
2.78982
2.5238
1.87748
1.05108
1.00919
-37.767
-61.4732
-76.8357
-53.848
-17.4723
17.3347
49.5718
58.8526
62.8132
56.9982
50.066
40.895
33.1583
26.1294
20.4703
16.0706
12.6152
9.96175
7.59462
4.92847
1.35929
-2.32991
-1.32925
2.03373
6.01303
6.15231
5.58441
4.82717
4.12597
3.65392
2.78965
2.52366
1.8774
1.05088
1.00915
-37.8522
-62.0215
-77.3407
-54.1429
-17.6642
17.2292
49.4623
58.7715
62.7607
56.9684
50.0401
40.8892
33.1698
26.1512
20.4831
16.069
12.6092
9.95585
7.58915
4.92419
1.35515
-2.34119
-1.34114
2.03276
6.01249
6.15172
5.58361
4.82646
4.12517
3.65375
2.78944
2.52348
1.8773
1.05066
1.00912
-37.933
-62.5972
-77.8207
-54.4548
-17.8404
17.128
49.3545
58.6872
62.7023
56.9307
50.0087
40.8797
33.1792
26.1749
20.5033
16.0725
12.6055
9.95114
7.58475
4.92108
1.35228
-2.3515
-1.35128
2.0331
6.01242
6.1512
5.58277
4.8257
4.1243
3.65353
2.78918
2.52327
1.87718
1.05041
1.00909
-38.0074
-63.1823
-78.2785
-54.7726
-17.9909
17.0301
49.2427
58.5941
62.6324
56.8813
49.9694
40.8649
33.1838
26.1976
20.5298
16.0826
12.605
9.94819
7.58183
4.91947
1.35111
-2.3603
-1.35934
2.03494
6.01288
6.15074
5.58191
4.82488
4.12335
3.65323
2.78887
2.52302
1.87704
1.05013
1.00907
-38.0758
-63.7588
-78.709
-55.0809
-18.1167
16.929
49.1191
58.4856
62.5462
56.8175
49.9209
40.843
33.1819
26.2154
20.5587
16.0993
12.6085
9.94756
7.58075
4.91975
1.35228
-2.36698
-1.36494
2.03847
6.01396
6.1504
5.58104
4.82403
4.12233
3.65288
2.7885
2.52273
1.87688
1.04983
1.00904
-38.1364
-64.3058
-79.1135
-55.3715
-18.2206
16.8208
48.9774
58.3572
62.4404
56.7374
49.8617
40.8136
33.1726
26.226
20.5849
16.1205
12.6164
9.94971
7.58186
4.92221
1.35637
-2.37067
-1.3676
2.04392
6.01573
6.15019
5.58017
4.82314
4.12124
3.65245
2.78808
2.52239
1.87669
1.04949
1.00902
-38.1896
-64.8074
-79.485
-55.6421
-18.3144
16.6987
48.8124
58.2061
62.3139
56.6413
49.7925
40.7762
33.156
26.2286
20.604
16.1422
12.6278
9.95476
7.58539
4.92717
1.36406
-2.37047
-1.36684
2.05147
6.01828
6.15015
5.57932
4.82223
4.1201
3.65194
2.7876
2.522
1.87647
1.04911
1.009
-38.2318
-65.2528
-79.8278
-55.9003
-18.4069
16.5614
48.6225
58.0317
62.1667
56.5299
49.7131
40.7318
33.1329
26.2239
20.6148
16.1602
12.6407
9.96226
7.59133
4.93472
1.37591
-2.36527
-1.36211
2.06133
6.02165
6.1503
5.5785
4.8213
4.11889
3.65136
2.78705
2.52156
1.87624
1.0487
1.00899
-38.262
-65.6363
-80.1416
-56.1521
-18.5099
16.4059
48.4074
57.8348
62.0006
56.405
49.6247
40.6808
33.1046
26.2131
20.6176
16.1715
12.6522
9.97103
7.59927
4.94482
1.39239
-2.35411
-1.35293
2.07365
6.02593
6.15067
5.57773
4.82035
4.11762
3.6507
2.78645
2.52108
1.87597
1.04826
1.00899
-38.2754
-65.9568
-80.4411
-56.4064
-18.6278
16.2347
48.1687
57.6168
61.8171
56.2678
49.5275
40.6241
33.0719
26.1977
20.614
16.176
12.6601
9.97937
7.60828
4.95702
1.41358
-2.33597
-1.33877
2.08854
6.03113
6.15127
5.577
4.8194
4.1163
3.64996
2.78578
2.52054
1.87568
1.04777
1.00899
-38.2707
-66.2181
-80.7396
-56.667
-18.7673
16.0474
47.9084
57.3794
61.6185
56.1206
49.4231
40.5619
33.0355
26.1789
20.6059
16.1749
12.6635
9.98568
7.61715
4.9706
1.43921
-2.31025
-1.31921
2.10607
6.03729
6.15211
5.57633
4.81844
4.11493
3.64914
2.78505
2.51994
1.87537
1.04724
1.009
-38.2434
-66.4228
-81.0652
-56.9441
-18.9281
15.8476
47.6288
57.1247
61.4061
55.9643
49.3117
40.4942
32.9949
26.1572
20.5949
16.1696
12.6626
9.98901
7.62455
4.98443
1.46841
-2.27672
-1.29391
2.12626
6.0444
6.15318
5.5757
4.81746
4.1135
3.64824
2.78426
2.51928
1.87503
1.04667
1.00903
-38.1952
-66.5761
-81.4361
-57.2498
-19.1151
15.6346
47.3315
56.8547
61.1825
55.8015
49.1957
40.4214
32.95
26.1323
20.5817
16.1618
12.6585
9.98929
7.62965
4.99744
1.49993
-2.23592
-1.26271
2.14905
6.05245
6.15449
5.57511
4.81646
4.11201
3.64724
2.7834
2.51857
1.87466
1.04605
1.00906
-38.1248
-66.6825
-81.871
-57.6062
-19.3269
15.4127
47.0196
56.572
60.9497
55.6338
49.0759
40.344
32.9003
26.1033
20.5664
16.1523
12.6521
9.9869
7.63215
5.00868
1.53224
-2.18909
-1.22561
2.17439
6.06138
6.156
5.57454
4.81544
4.11046
3.64616
2.78247
2.51779
1.87428
1.04539
1.00911
-38.0354
-66.7502
-82.3704
-58.0349
-19.5671
15.1839
46.6968
56.2807
60.7115
55.4646
48.9558
40.2636
32.8464
26.0698
20.5482
16.1413
12.6441
9.98245
7.63226
5.01776
1.56396
-2.13832
-1.18295
2.20214
6.07115
6.15771
5.57399
4.81437
4.10885
3.64498
2.78149
2.51695
1.87386
1.04467
1.00918
-37.9241
-66.7867
-82.9367
-58.5602
-19.8298
14.9595
46.371
55.9874
60.4725
55.2967
48.8373
40.1816
32.7891
26.0315
20.5262
16.1284
12.6347
9.97635
7.63035
5.02466
1.59416
-2.08608
-1.13544
2.23217
6.08168
6.15956
5.57341
4.81324
4.10716
3.64372
2.78043
2.51604
1.87343
1.04389
1.00926
-37.7935
-66.8044
-83.5712
-59.203
-20.1123
14.7505
46.0528
55.7008
60.2393
55.1353
48.7247
40.1011
32.7303
25.9895
20.5001
16.113
12.6239
9.96889
7.62679
5.02968
1.62251
-2.0349
-1.08424
2.26432
6.09292
6.16154
5.5728
4.81204
4.1054
3.64236
2.77932
2.51506
1.87297
1.04306
1.00937
-37.6417
-66.8097
-84.2785
-59.9773
-20.3981
14.5781
45.7578
55.4324
60.0189
54.9835
48.6197
40.0241
32.6715
25.9452
20.4702
16.0947
12.6113
9.96009
7.6218
5.03307
1.6491
-1.98671
-1.03091
2.29846
6.10477
6.16357
5.57212
4.81073
4.10353
3.64091
2.77813
2.51401
1.87249
1.04217
1.00949
-37.4736
-66.8161
-85.0689
-60.8892
-20.671
14.461
45.502
55.1935
59.8185
54.8464
48.5259
39.9534
32.6154
25.9008
20.4376
16.0735
12.5968
9.94996
7.61555
5.03511
1.67427
-1.94262
-0.977391
2.33443
6.11718
6.16566
5.57135
4.80931
4.10157
3.63936
2.77688
2.51287
1.87198
1.04121
1.00964
-37.2897
-66.8352
-85.9586
-61.9208
-20.8966
14.4252
45.3021
54.9946
59.6428
54.7246
48.4427
39.8899
32.563
25.8579
20.4039
16.0503
12.5806
9.93852
7.60814
5.0359
1.69827
-1.90276
-0.925702
2.37215
6.13009
6.16773
5.57044
4.80773
4.09948
3.63771
2.77557
2.51166
1.87145
1.04017
1.00982
-37.098
-66.8882
-86.9584
-63.0342
-21.0421
14.4874
45.1692
54.8409
59.494
54.6192
48.3709
39.8349
32.5159
25.8184
20.371
16.026
12.563
9.92599
7.5998
5.03557
1.72122
-1.8667
-0.877716
2.4115
6.14349
6.16979
5.5694
4.80599
4.09727
3.63598
2.7742
2.51037
1.87089
1.03906
1.01002
-36.9023
-66.9839
-88.0653
-64.1562
-21.0618
14.6623
45.1083
54.7324
59.369
54.5258
48.3065
39.787
32.4737
25.7828
20.3403
16.0019
12.5447
9.91275
7.59078
5.03423
1.74308
-1.83364
-0.834775
2.45242
6.15735
6.17177
5.56818
4.80406
4.0949
3.63415
2.77276
2.50898
1.8703
1.03786
1.01026
-36.7128
-67.1422
-89.2655
-65.2096
-20.93
14.9443
45.1122
54.6609
59.2609
54.44
48.2463
39.7445
32.4364
25.7516
20.3125
15.9791
12.5266
9.89926
7.58152
5.0322
1.76373
-1.8029
-0.797592
2.49487
6.17172
6.17369
5.56678
4.8019
4.09238
3.63222
2.77125
2.5075
1.86968
1.03657
1.01052
-36.5321
-67.38
-90.524
-66.1144
-20.635
15.3136
45.1631
54.6116
59.158
54.3526
48.1837
39.7038
32.4018
25.7239
20.2877
15.958
12.5091
9.88598
7.57241
5.02981
1.78309
-1.77391
-0.766109
2.53886
6.18662
6.17552
5.56516
4.7995
4.08967
3.63021
2.76968
2.50593
1.86904
1.03517
1.01082
-36.3675
-67.7258
-91.8108
-66.8293
-20.2063
15.7266
45.2316
54.5646
59.0478
54.2563
48.1144
39.662
32.3686
25.6989
20.2658
15.9391
12.4928
9.87331
7.56386
5.02759
1.80118
-1.74639
-0.739709
2.58446
6.20216
6.17731
5.56336
4.79684
4.08677
3.6281
2.76804
2.50424
1.86834
1.03366
1.01116
-36.213
-68.1846
-93.0817
-67.3365
-19.692
16.1327
45.285
54.4998
58.9177
54.143
48.0325
39.6151
32.3344
25.675
20.2461
15.922
12.4777
9.86147
7.55612
5.02592
1.81813
-1.72016
-0.717263
2.63192
6.21844
6.17903
5.56132
4.79388
4.08365
3.62591
2.76633
2.50244
1.86762
1.03202
1.01153
-36.0643
-68.7684
-94.2984
-67.6607
-19.1668
16.4759
45.292
54.3997
58.7593
54.0085
47.9356
39.5608
32.2977
25.6511
20.2275
15.9063
12.4638
9.85059
7.54933
5.02518
1.83426
-1.69513
-0.697409
2.68157
6.23561
6.18075
5.55908
4.79059
4.0803
3.62362
2.76454
2.50052
1.86683
1.03025
1.01194
-35.904
-69.4581
-95.413
-67.8393
-18.6939
16.7175
45.2323
54.2535
58.5672
53.8498
47.8216
39.4971
32.257
25.6259
20.2094
15.8917
12.451
9.8406
7.54343
5.0254
1.84996
-1.67101
-0.678643
2.73383
6.25378
6.18247
5.55661
4.78695
4.07667
3.62123
2.76266
2.49845
1.866
1.02831
1.0124
-35.7359
-70.2032
-96.3805
-67.9237
-18.3218
16.8387
45.0977
54.0565
58.3407
53.668
47.692
39.4246
32.2122
25.599
20.191
15.8776
12.4389
9.83143
7.53829
5.02668
1.86588
-1.64751
-0.66005
2.78863
6.27296
6.18424
5.55393
4.78293
4.07277
3.61874
2.7607
2.49623
1.86508
1.02621
1.0129
-35.5766
-70.8936
-97.1436
-67.9523
-18.0658
16.8476
44.8909
53.8104
58.0811
53.4655
47.5485
39.3441
32.1631
25.5702
20.1722
15.8638
12.4275
9.82296
7.53375
5.029
1.88264
-1.62495
-0.642318
2.84478
6.29281
6.18591
5.55096
4.77847
4.06853
3.61616
2.75862
2.49385
1.86411
1.02392
1.01345
-35.393
-71.4034
-97.6689
-67.9561
-17.9303
16.7655
44.62
53.525
57.7966
53.2513
47.3973
39.2591
32.1119
25.5404
20.1529
15.85
12.4164
9.81487
7.52967
5.03264
1.90028
-1.60529
-0.626818
2.90229
6.31368
6.18753
5.54768
4.77357
4.06401
3.61345
2.75642
2.49128
1.86307
1.02142
1.01404
-34.9449
-71.6688
-98.0418
-67.9713
-17.8789
16.6389
44.3165
53.2258
57.5063
53.0381
47.246
39.1729
32.0597
25.509
20.1319
15.8343
12.4039
9.8057
7.52489
5.0362
1.916
-1.58985
-0.603129
2.97879
6.34201
6.19017
5.54432
4.76811
4.05896
3.61066
2.75415
2.48851
1.86195
1.01859
1.01475
7.37584
9.48275
16.0246
10.037
7.12301
11.026
18.3093
23.7013
27.8386
31.6029
36.1852
43.8216
54.284
65.7026
77.0664
90.9183
110.395
131.969
166.339
188.384
233.27
83.068
7.37888
9.48028
16.0115
10.0463
7.13002
11.0251
18.3046
23.6961
27.825
31.6065
36.2124
43.8381
54.2454
65.635
77.0143
90.866
110.203
131.515
165.508
186.884
229.495
80.503
7.3821
9.4779
15.9971
10.0555
7.13731
11.0246
18.2993
23.6926
27.8086
31.6085
36.2417
43.8566
54.2014
65.5666
76.9637
90.8136
109.996
131.032
164.655
185.335
225.598
82.6229
7.38548
9.47525
15.9816
10.0653
7.14521
11.0242
18.2933
23.6893
27.7911
31.6093
36.2691
43.8747
54.1617
65.4915
76.9055
90.754
109.784
130.538
163.784
183.746
221.613
83.0108
7.38906
9.47264
15.9652
10.0756
7.15378
11.0239
18.2863
23.6852
27.7725
31.6091
36.2938
43.8911
54.12
65.4201
76.8454
90.6878
109.565
130.038
162.895
182.112
217.509
81.5982
7.39282
9.46976
15.948
10.0868
7.16307
11.0234
18.2786
23.679
27.7528
31.6085
36.3166
43.906
54.0819
65.345
76.7795
90.6129
109.335
129.528
161.981
180.436
213.294
79.8254
7.39678
9.46693
15.9297
10.0984
7.1729
11.0229
18.2702
23.6714
27.732
31.6073
36.3375
43.9187
54.0402
65.2737
76.7131
90.531
109.094
129.005
161.039
178.71
208.981
78.2147
7.40093
9.46381
15.9105
10.1107
7.18339
11.0224
18.2613
23.6616
27.7106
31.6059
36.3572
43.9293
54.0004
65.1973
76.641
90.4408
108.839
128.468
160.061
176.937
204.578
76.6429
7.40529
9.46075
15.8901
10.1235
7.1945
11.0222
18.2516
23.651
27.6885
31.6041
36.3753
43.9376
53.9558
65.1229
76.5676
90.3435
108.572
127.915
159.044
175.114
200.082
74.9706
7.40985
9.4574
15.8687
10.1371
7.20638
11.0219
18.2413
23.6392
27.666
31.6021
36.3925
43.9436
53.9122
65.0416
76.4867
90.2369
108.29
127.344
157.981
173.242
195.5
73.1856
7.41464
9.4541
15.8461
10.1512
7.21895
11.0219
18.23
23.6272
27.6428
31.5997
36.4081
43.947
53.8627
64.9608
76.4027
90.1215
107.993
126.756
156.87
171.315
190.835
71.3247
7.41963
9.45049
15.8225
10.1661
7.23234
11.0219
18.2179
23.6143
27.6191
31.5972
36.4228
43.9479
53.8132
64.8715
76.3091
89.9946
107.68
126.147
155.705
169.335
186.094
69.4112
7.42486
9.44695
15.7974
10.1816
7.24644
11.0222
18.2048
23.6012
27.5945
31.5941
36.4359
43.9457
53.7571
64.7811
76.2103
89.8564
107.349
125.516
154.484
167.297
181.279
67.4537
7.43031
9.44309
15.7713
10.198
7.26142
11.0225
18.1911
23.5873
27.5692
31.5908
36.448
43.9409
53.7001
64.6804
76.0994
89.7037
106.999
124.861
153.202
165.201
176.395
65.4594
7.43601
9.4393
15.7437
10.2148
7.27717
11.0231
18.1763
23.5734
27.5428
31.5867
36.4585
43.9329
53.6359
64.5771
75.9809
89.5363
106.629
124.179
151.857
163.044
171.443
63.4417
7.44193
9.43517
15.7148
10.2327
7.29385
11.0238
18.1607
23.5588
27.5154
31.582
36.4677
43.922
53.5703
64.4624
75.8475
89.3507
106.235
123.469
150.445
160.825
166.428
61.4176
7.44811
9.43113
15.6844
10.251
7.31133
11.0249
18.1441
23.5442
27.4869
31.5762
36.4749
43.9078
53.4976
64.344
75.704
89.1464
105.817
122.729
148.966
158.54
161.351
59.4029
7.45453
9.42673
15.6526
10.2704
7.3298
11.0261
18.1266
23.5291
27.4572
31.569
36.4804
43.8907
53.4234
64.214
75.5435
88.9197
105.371
121.955
147.415
156.19
156.215
57.411
7.46122
9.42243
15.6192
10.2903
7.34911
11.0276
18.1078
23.5141
27.4267
31.56
36.4831
43.87
53.3426
64.0802
75.3713
88.6705
104.896
121.146
145.793
153.771
151.02
55.4519
7.46815
9.41777
15.5844
10.3112
7.36948
11.0294
18.0879
23.4988
27.3954
31.5486
36.4831
43.8461
53.2602
63.9356
75.1812
88.3955
104.388
120.299
144.096
151.283
145.772
53.5337
7.47537
9.4132
15.5478
10.3327
7.39073
11.0315
18.0667
23.4841
27.3638
31.5343
36.4786
43.818
53.1717
63.788
74.9791
88.0953
103.846
119.411
142.326
148.723
140.471
51.6598
7.48282
9.40825
15.5096
10.3553
7.41309
11.0338
18.0445
23.4704
27.3308
31.5167
36.4692
43.7856
53.0812
63.6313
74.76
87.7677
103.266
118.479
140.478
146.092
135.122
49.8311
7.49058
9.40343
15.4695
10.3785
7.43638
11.0366
18.0209
23.4583
27.2967
31.4958
36.4527
43.7472
52.9845
63.4723
74.5298
87.4144
102.65
117.503
138.556
143.385
129.729
48.0416
7.49859
9.3982
15.4278
10.4028
7.46086
11.0395
17.9962
23.4471
27.2601
31.4721
36.4281
43.7017
52.8845
63.3056
74.2846
87.0345
101.995
116.478
136.555
140.603
124.301
46.2818
7.50691
9.3931
15.3841
10.4276
7.48631
11.0429
17.9702
23.4364
27.2217
31.4467
36.3933
43.6463
52.7764
63.1364
74.0298
86.6303
101.301
115.404
134.481
137.743
118.843
44.5347
7.51547
9.38758
15.3387
10.4536
7.51303
11.0465
17.943
23.4253
27.1812
31.4209
36.3482
43.5786
52.6615
62.9598
73.7619
86.2018
100.57
114.28
132.33
134.806
113.367
42.7806
7.52436
9.38221
15.2911
10.4802
7.54078
11.0506
17.9144
23.4137
27.1395
31.3954
36.2924
43.4952
52.5336
62.7786
73.485
85.7512
99.8021
113.104
130.108
131.789
107.881
40.9943
7.5335
9.37641
15.2416
10.5079
7.5699
11.0548
17.8846
23.401
27.0968
31.3694
36.2282
43.3939
52.3916
62.5873
73.1953
85.2783
98.9978
111.878
127.814
128.692
102.401
39.1506
7.54297
9.37076
15.1899
10.5362
7.6001
11.0596
17.8535
23.3872
27.0545
31.3406
36.1581
43.2732
52.228
62.3857
72.8946
84.7844
98.1586
110.6
125.453
125.515
96.9387
37.2223
7.55268
9.36466
15.1362
10.5657
7.63178
11.0645
17.8211
23.3718
27.0131
31.306
36.086
43.1341
52.0409
62.1659
72.578
84.268
97.2836
109.27
123.023
122.26
91.5108
35.1847
7.56273
9.35875
15.0802
10.5956
7.6646
11.0699
17.7872
23.355
26.9722
31.2638
36.0145
42.9795
51.8261
61.9245
72.244
83.7286
96.3726
107.889
120.53
118.925
86.1314
33.0134
7.57303
9.35235
15.0221
10.6267
7.69902
11.0755
17.7521
23.3365
26.9308
31.2133
35.9452
42.8143
51.586
61.6527
71.8846
83.1628
95.4228
106.455
117.969
115.516
80.8197
30.6893
7.58366
9.34616
14.9615
10.6582
7.73466
11.0815
17.7155
23.3162
26.888
31.1553
35.8771
42.6443
51.3231
61.3486
71.4939
82.5671
94.4319
104.966
115.345
112.032
75.5907
28.1955
7.59453
9.33947
14.8987
10.691
7.77202
11.0878
17.6775
23.2938
26.8432
31.0905
35.8074
42.4745
51.0446
61.0101
71.0624
81.935
93.3948
103.418
112.651
108.477
70.464
25.5218
7.60574
9.33301
14.8333
10.724
7.81071
11.0944
17.638
23.2693
26.7967
31.02
35.7327
42.3084
50.7564
60.6427
70.5856
81.2595
92.3066
101.807
109.888
104.853
65.4537
22.6617
7.61718
9.32602
14.7657
10.7582
7.85127
11.1013
17.597
23.2421
26.7482
30.9445
35.6509
42.146
50.4651
60.2516
70.0613
80.532
91.1603
100.127
107.052
101.161
60.5775
19.6164
7.62895
9.31928
14.6953
10.7924
7.89323
11.1085
17.5545
23.2124
26.698
30.8645
35.5615
41.9849
50.1741
59.8438
69.4961
79.7472
89.9498
98.3716
104.142
97.401
55.8455
16.3925
7.64093
9.31199
14.6227
10.8277
7.93724
11.116
17.5105
23.1797
26.6458
30.7799
35.4651
41.8217
49.8847
59.4221
68.8984
78.9026
88.6689
96.5353
101.155
93.5733
51.2692
13.0059
7.65324
9.30497
14.5472
10.8629
7.98275
11.1238
17.4648
23.1439
26.5916
30.6909
35.3623
41.6532
49.5947
58.9882
68.2785
78.0028
87.3152
94.6139
98.0922
89.6766
46.8508
9.47819
7.66575
9.29737
14.4694
10.8991
8.03047
11.132
17.4175
23.1046
26.5352
30.5971
35.2535
41.4774
49.3004
58.5406
67.6412
77.0558
85.8896
92.6055
94.9553
85.7147
42.5934
5.84073
7.67856
9.29007
14.3888
10.9349
8.07979
11.1403
17.3686
23.0618
26.4767
30.4987
35.1385
41.2927
48.9974
58.0775
66.9874
76.0706
84.3981
90.5137
91.752
81.6912
38.4922
2.13049
7.69154
9.28215
14.3058
10.9715
8.13146
11.1491
17.3179
23.0149
26.4155
30.3953
35.0175
41.0973
48.6826
57.5958
66.3122
75.052
82.8488
88.3449
88.492
77.6175
34.5467
-1.60708
7.70482
9.27453
14.22
11.0073
8.18482
11.1581
17.2655
22.9639
26.3517
30.2869
34.8904
40.8897
48.3539
57.0935
65.6101
73.9997
81.251
86.1085
85.1924
73.5076
30.7534
-5.3246
7.71822
9.26627
14.1318
11.0437
8.24068
11.1676
17.2113
22.9084
26.2848
30.1736
34.7557
40.6689
48.0104
56.5682
64.8742
72.909
79.6105
83.8108
81.8708
69.385
27.1166
-8.97098
7.7319
9.25832
14.0408
11.079
8.29829
11.1773
17.1552
22.8482
26.2149
30.0558
34.612
40.4354
47.6518
56.0194
64.1005
71.7733
77.9286
81.4542
78.5444
65.2752
23.6411
-12.4987
7.74566
9.24967
13.9475
11.1145
8.3585
11.1875
17.0973
22.783
26.1414
29.9325
34.4584
40.1897
47.2772
55.4449
63.2859
70.5869
76.2011
79.0368
75.2208
61.2078
20.3389
-15.8601
7.75966
9.24133
13.8515
11.1485
8.42047
11.1979
17.0376
22.7126
26.0642
29.8038
34.2951
39.932
46.8851
54.8435
62.4299
69.3467
74.421
76.5563
71.8978
57.2049
17.2195
-19.0153
7.7737
9.23224
13.7532
11.1823
8.48512
11.2089
16.9759
22.6366
25.9826
29.6692
34.1216
39.6611
46.4734
54.2133
61.5317
68.0519
72.5812
74.0109
68.5646
53.2787
14.2917
-21.9271
7.78792
9.22344
13.6524
11.2142
8.55147
11.2201
16.9123
22.555
25.8967
29.529
33.9376
39.3762
46.0408
53.554
60.5921
66.7035
70.6787
71.4008
65.2109
49.4254
11.5515
-24.5699
7.80214
9.21383
13.5496
11.2455
8.62048
11.2319
16.8467
22.4672
25.8055
29.3825
33.7421
39.0762
45.5867
52.8646
59.6104
65.3023
68.7138
68.7277
61.831
45.6326
8.98285
-26.9235
7.81647
9.20447
13.4444
11.2742
8.69105
11.2439
16.779
22.3733
25.709
29.2299
33.5346
38.7607
45.1104
52.1451
58.5865
63.8487
66.6896
65.9966
58.4269
41.8858
6.55421
-28.9863
7.83073
9.19422
13.3372
11.302
8.76421
11.2566
16.7094
22.2728
25.6064
29.0705
33.3143
38.4287
44.6112
51.3941
57.519
62.3424
64.6096
63.2142
55.006
38.1789
4.23001
-30.7667
7.84505
9.18419
13.2281