/*--------------------------------*- C++ -*----------------------------------*\
| =========                 |                                                 |
| \\      /  F ield         | OpenFOAM: The Open Source CFD Toolbox           |
|  \\    /   O peration     | Version:  v1912                                 |
|   \\  /    A nd           | Website:  www.openfoam.com                      |
|    \\/     M anipulation  |                                                 |
\*---------------------------------------------------------------------------*/
FoamFile
{
    version     2.0;
    format      ascii;
    class       volVectorField;
    location    "50";
    object      U;
}
// * * * * * * * * * * * * * * * * * * * * * * * * * * * * * * * * * * * * * //

dimensions      [0 1 -1 0 0 0 0];


internalField   nonuniform List<vector> 
12441
(
(29.9031 -0.000422592 0)
(30.3048 -0.000794103 0)
(30.0519 0.00134626 0)
(29.9536 0.00049204 0)
(29.9722 -0.00024207 0)
(29.8853 0.000133065 0)
(29.7121 0.000496148 0)
(29.6374 0.000193502 0)
(29.4543 0.000862948 0)
(29.3111 0.00106691 0)
(29.1067 0.00178214 0)
(28.8227 0.00277443 0)
(28.4382 0.00326794 0)
(27.916 0.00348969 0)
(27.5334 0.00399747 0)
(27.03 0.00812467 0)
(26.2142 0.0124478 0)
(24.8915 0.0261728 0)
(22.9252 0.046469 0)
(19.6732 0.0869803 0)
(13.8912 0.13011 0)
(7.00309 0.22951 0)
(29.8734 -0.00137238 0)
(30.4563 -0.00274438 0)
(30.1262 0.00260238 0)
(29.931 0.00229548 0)
(29.9183 -8.79007e-05 0)
(29.8518 0.00068646 0)
(29.7094 0.000921113 0)
(29.6632 0.00137311 0)
(29.4737 0.00291338 0)
(29.3253 0.00328765 0)
(29.106 0.00465543 0)
(28.8137 0.00756218 0)
(28.4207 0.0100522 0)
(27.8896 0.0111354 0)
(27.5176 0.0126634 0)
(27.0184 0.024521 0)
(26.212 0.0379214 0)
(24.8754 0.0728779 0)
(22.9104 0.119098 0)
(19.6543 0.251952 0)
(13.8726 0.382278 0)
(6.96892 0.681727 0)
(29.8775 -0.00238806 0)
(30.427 -0.00533913 0)
(30.1197 0.00513412 0)
(29.9419 0.00442424 0)
(29.9289 0.000198153 0)
(29.8566 0.000990078 0)
(29.7117 0.00147989 0)
(29.6624 0.00194459 0)
(29.4732 0.00468615 0)
(29.3248 0.00533508 0)
(29.1053 0.00786952 0)
(28.8152 0.0127765 0)
(28.4255 0.0171544 0)
(27.8784 0.0185918 0)
(27.5108 0.0211176 0)
(27.0182 0.0396834 0)
(26.2093 0.0653715 0)
(24.8656 0.119092 0)
(22.8961 0.190644 0)
(19.6347 0.414691 0)
(13.8504 0.631537 0)
(6.93776 1.13144 0)
(29.879 -0.00342706 0)
(30.4303 -0.00772878 0)
(30.099 0.00772087 0)
(29.9111 0.0063404 0)
(29.9021 0.000230973 0)
(29.8361 0.00111311 0)
(29.6935 0.00194568 0)
(29.6457 0.00250992 0)
(29.4548 0.00656211 0)
(29.3063 0.00753025 0)
(29.0876 0.0111375 0)
(28.7962 0.0180608 0)
(28.4049 0.0242885 0)
(27.8763 0.0260818 0)
(27.5036 0.029421 0)
(26.9996 0.0548482 0)
(26.1979 0.0919339 0)
(24.8568 0.16811 0)
(22.8836 0.286001 0)
(19.6185 0.585566 0)
(13.8368 0.885153 0)
(6.91669 1.58155 0)
(29.8852 -0.00443479 0)
(30.3941 -0.00993083 0)
(30.0851 0.0101141 0)
(29.9164 0.00818336 0)
(29.9066 0.000272736 0)
(29.8329 0.00133588 0)
(29.6876 0.00247854 0)
(29.6358 0.00323899 0)
(29.4442 0.00855607 0)
(29.2952 0.00979728 0)
(29.0762 0.0144263 0)
(28.7873 0.0232924 0)
(28.4002 0.03128 0)
(27.8516 0.0333954 0)
(27.4833 0.0377256 0)
(26.9897 0.0697831 0)
(26.1851 0.118139 0)
(24.8465 0.217841 0)
(22.8731 0.364407 0)
(19.607 0.752806 0)
(13.8318 1.13841 0)
(6.90473 2.03171 0)
(29.8854 -0.00539987 0)
(30.4074 -0.0121024 0)
(30.0667 0.0126694 0)
(29.8816 0.00999392 0)
(29.8765 0.000284853 0)
(29.8112 0.00154104 0)
(29.6685 0.00298319 0)
(29.6191 0.00396652 0)
(29.4254 0.0105066 0)
(29.2763 0.0120049 0)
(29.0576 0.0176451 0)
(28.766 0.0284242 0)
(28.3745 0.0381975 0)
(27.8498 0.0408446 0)
(27.4759 0.046129 0)
(26.9685 0.0846976 0)
(26.1678 0.144004 0)
(24.8334 0.266991 0)
(22.8639 0.441482 0)
(19.5986 0.918822 0)
(13.8347 1.39123 0)
(6.90094 2.48196 0)
(29.8919 -0.00634651 0)
(30.3666 -0.0141036 0)
(30.0527 0.0150425 0)
(29.8909 0.01179 0)
(29.8854 0.000337407 0)
(29.8102 0.00180574 0)
(29.6641 0.00356132 0)
(29.6099 0.00473874 0)
(29.4156 0.0125071 0)
(29.2659 0.0142345 0)
(29.0471 0.0208874 0)
(28.7585 0.0335892 0)
(28.3708 0.045168 0)
(27.8208 0.0481694 0)
(27.4534 0.0544976 0)
(26.9591 0.0995112 0)
(26.1538 0.169111 0)
(24.8216 0.314436 0)
(22.854 0.520922 0)
(19.59 1.08502 0)
(13.8442 1.64398 0)
(6.90466 2.93258 0)
(29.8909 -0.00725311 0)
(30.3879 -0.0161082 0)
(30.0389 0.0176751 0)
(29.8556 0.0135298 0)
(29.8547 0.00029801 0)
(29.7902 0.00199873 0)
(29.6475 0.00405642 0)
(29.5966 0.00546232 0)
(29.4002 0.0144701 0)
(29.2504 0.016426 0)
(29.0318 0.0241133 0)
(28.7393 0.0387278 0)
(28.3462 0.0521345 0)
(27.8266 0.0558188 0)
(27.4515 0.0630033 0)
(26.94 0.113859 0)
(26.1361 0.195897 0)
(24.8091 0.36461 0)
(22.8361 0.601784 0)
(19.5751 1.2508 0)
(13.8585 1.8965 0)
(6.91544 3.38382 0)
(29.8974 -0.00815034 0)
(30.3434 -0.0179373 0)
(30.0284 0.020015 0)
(29.8715 0.0152768 0)
(29.8694 0.000346207 0)
(29.793 0.00228907 0)
(29.6461 0.00465774 0)
(29.59 0.00627651 0)
(29.3928 0.016534 0)
(29.2424 0.0186781 0)
(29.0239 0.0273866 0)
(28.7362 0.0439046 0)
(28.3495 0.0591101 0)
(27.7996 0.0632066 0)
(27.4314 0.0714172 0)
(26.9247 0.128852 0)
(26.1142 0.221791 0)
(24.788 0.414899 0)
(22.7944 0.682474 0)
(19.5453 1.4154 0)
(13.8756 2.14846 0)
(6.933 3.83593 0)
(29.8961 -0.00900399 0)
(30.3696 -0.0198067 0)
(30.0164 0.0226909 0)
(29.8351 0.0169503 0)
(29.8382 0.000261397 0)
(29.7744 0.00246908 0)
(29.6319 0.00514542 0)
(29.5796 0.00701438 0)
(29.381 0.0185251 0)
(29.2306 0.0208611 0)
(29.0123 0.0306166 0)
(28.7186 0.0490275 0)
(28.3214 0.0660177 0)
(27.8118 0.0709393 0)
(27.4393 0.0799451 0)
(26.9087 0.145377 0)
(26.0806 0.247342 0)
(24.7388 0.463717 0)
(22.7151 0.76327 0)
(19.4959 1.57834 0)
(13.8943 2.39946 0)
(6.95714 4.28913 0)
(29.903 -0.00985443 0)
(30.3203 -0.0214737 0)
(30.0068 0.0249813 0)
(29.8559 0.0186426 0)
(29.8574 0.000299273 0)
(29.7795 0.00279049 0)
(29.6323 0.00577995 0)
(29.574 0.00787311 0)
(29.375 0.0206309 0)
(29.2242 0.0231199 0)
(29.0062 0.0339019 0)
(28.7183 0.0542067 0)
(28.3312 0.0729638 0)
(27.8064 0.0782073 0)
(27.4384 0.0884192 0)
(26.8886 0.161683 0)
(26.0165 0.273769 0)
(24.6377 0.513303 0)
(22.6018 0.844661 0)
(19.431 1.73895 0)
(13.9147 2.64898 0)
(6.98764 4.74359 0)
(29.9011 -0.0106565 0)
(30.3514 -0.0232166 0)
(29.9974 0.0276855 0)
(29.8188 0.0202525 0)
(29.8255 0.000167102 0)
(29.7623 0.00296021 0)
(29.6203 0.00626078 0)
(29.5664 0.00862202 0)
(29.3664 0.0226306 0)
(29.2156 0.0252856 0)
(28.9979 0.0371285 0)
(28.7027 0.0592238 0)
(28.3004 0.0798644 0)
(27.8294 0.0850604 0)
(27.4444 0.098359 0)
(26.8485 0.178684 0)
(25.9187 0.301792 0)
(24.4911 0.563819 0)
(22.4752 0.925645 0)
(19.3605 1.89651 0)
(13.9379 2.89665 0)
(7.0243 5.19949 0)
(29.908 -0.0114607 0)
(30.2986 -0.0247445 0)
(29.9921 0.0298826 0)
(29.8465 0.0218996 0)
(29.8501 0.000213846 0)
(29.7708 0.00331252 0)
(29.6233 0.00692141 0)
(29.5628 0.00951843 0)
(29.3628 0.0247672 0)
(29.2116 0.0275444 0)
(28.9949 0.0404494 0)
(28.7017 0.0644214 0)
(28.3076 0.0866062 0)
(27.8417 0.0914138 0)
(27.4355 0.109393 0)
(26.7867 0.196602 0)
(25.8006 0.331711 0)
(24.3324 0.614369 0)
(22.3565 1.0053 0)
(19.2933 2.05079 0)
(13.9655 3.14226 0)
(7.06694 5.65701 0)
(29.9061 -0.0122112 0)
(30.3329 -0.02638 0)
(29.9824 0.0325737 0)
(29.8075 0.0234463 0)
(29.8173 4.70069e-05 0)
(29.7546 0.00346821 0)
(29.6134 0.00739153 0)
(29.5575 0.0102709 0)
(29.3571 0.0267721 0)
(29.2057 0.0296956 0)
(28.9905 0.0437429 0)
(28.6893 0.0697971 0)
(28.2836 0.0925385 0)
(27.8515 0.0987732 0)
(27.4162 0.120665 0)
(26.7103 0.215351 0)
(25.6816 0.362827 0)
(24.1896 0.664052 0)
(22.2545 1.08351 0)
(19.2338 2.20205 0)
(13.9986 3.38579 0)
(7.1154 6.1164 0)
(29.9133 -0.0129688 0)
(30.2759 -0.0277668 0)
(29.9777 0.034663 0)
(29.8391 0.025039 0)
(29.8452 9.74478e-05 0)
(29.7642 0.00385312 0)
(29.6168 0.00807967 0)
(29.554 0.0112003 0)
(29.3539 0.0289314 0)
(29.2025 0.0319404 0)
(28.9894 0.0471638 0)
(28.6874 0.0750897 0)
(28.286 0.0978485 0)
(27.8495 0.106861 0)
(27.3865 0.132411 0)
(26.6302 0.235068 0)
(25.5728 0.394579 0)
(24.0714 0.712727 0)
(22.1695 1.16059 0)
(19.183 2.35068 0)
(14.0378 3.62726 0)
(7.16958 6.57792 0)
(29.911 -0.0136676 0)
(30.3144 -0.0292952 0)
(29.9691 0.0373333 0)
(29.7984 0.0265255 0)
(29.8111 -0.000104256 0)
(29.7487 0.0039984 0)
(29.6084 0.0085384 0)
(29.5506 0.0119578 0)
(29.3501 0.0309271 0)
(29.1988 0.0340574 0)
(28.9864 0.0504914 0)
(28.6853 0.0804802 0)
(28.2726 0.103891 0)
(27.8434 0.115048 0)
(27.3524 0.144716 0)
(26.5517 0.255624 0)
(25.4773 0.426619 0)
(23.9748 0.760623 0)
(22.0982 1.23686 0)
(19.1399 2.49698 0)
(14.0834 3.86671 0)
(7.22941 7.04184 0)
(29.9182 -0.0143787 0)
(30.2544 -0.030559 0)
(29.9686 0.0392787 0)
(29.8363 0.0280722 0)
(29.8432 -3.07366e-05 0)
(29.7607 0.00441563 0)
(29.6133 0.00924906 0)
(29.5482 0.0129219 0)
(29.3482 0.0330916 0)
(29.1977 0.0362855 0)
(28.987 0.0540021 0)
(28.6852 0.0858195 0)
(28.2631 0.110391 0)
(27.8325 0.123298 0)
(27.315 0.157758 0)
(26.478 0.276778 0)
(25.3941 0.458763 0)
(23.8939 0.807989 0)
(22.037 1.31253 0)
(19.1034 2.64112 0)
(14.1355 4.10415 0)
(7.29486 7.50843 0)
(29.9158 -0.0150261 0)
(30.2958 -0.0319954 0)
(29.959 0.0418977 0)
(29.7932 0.0295014 0)
(29.8083 -0.000254348 0)
(29.7461 0.0045467 0)
(29.6067 0.00969521 0)
(29.547 0.0136812 0)
(29.3464 0.0350735 0)
(29.1961 0.0383236 0)
(28.9866 0.0573882 0)
(28.6777 0.0909158 0)
(28.2489 0.117205 0)
(27.8201 0.131611 0)
(27.2768 0.171445 0)
(26.4096 0.29836 0)
(25.3208 0.490935 0)
(23.8234 0.855002 0)
(21.9833 1.38769 0)
(19.0724 2.78318 0)
(14.1939 4.33955 0)
(7.36592 7.97796 0)
(29.9231 -0.0156913 0)
(30.2326 -0.0331341 0)
(29.9591 0.0436988 0)
(29.8342 0.0309929 0)
(29.8427 -0.000167479 0)
(29.7583 0.00499611 0)
(29.6113 0.0104307 0)
(29.5438 0.0146745 0)
(29.3446 0.0372381 0)
(29.1945 0.0405738 0)
(28.99 0.0604144 0)
(28.6649 0.0958945 0)
(28.2371 0.123928 0)
(27.8056 0.140187 0)
(27.238 0.185706 0)
(26.3465 0.320242 0)
(25.2549 0.523117 0)
(23.7594 0.901774 0)
(21.9352 1.46236 0)
(19.0463 2.92317 0)
(14.2589 4.5729 0)
(7.44259 8.45068 0)
(29.9204 -0.0162887 0)
(30.2779 -0.0344778 0)
(29.9496 0.0462675 0)
(29.7887 0.0323682 0)
(29.8061 -0.000415088 0)
(29.744 0.00511751 0)
(29.6058 0.0108645 0)
(29.5438 0.0154372 0)
(29.3442 0.0391916 0)
(29.1924 0.0427004 0)
(28.993 0.0639764 0)
(28.6485 0.100928 0)
(28.225 0.130617 0)
(27.7901 0.149017 0)
(27.1994 0.200423 0)
(26.2876 0.342366 0)
(25.1939 0.555321 0)
(23.6991 0.948357 0)
(21.8914 1.5365 0)
(19.0244 3.06106 0)
(14.3306 4.80416 0)
(7.52494 8.92688 0)
(29.9275 -0.0169092 0)
(30.2124 -0.0355079 0)
(29.9533 0.0479052 0)
(29.8347 0.0338145 0)
(29.8433 -0.000298729 0)
(29.7573 0.00559983 0)
(29.6106 0.0116214 0)
(29.5406 0.0164548 0)
(29.3429 0.0413772 0)
(29.1902 0.044831 0)
(28.9971 0.0688363 0)
(28.6312 0.106078 0)
(28.2147 0.137202 0)
(27.773 0.158149 0)
(27.1607 0.215542 0)
(26.2321 0.364696 0)
(25.1359 0.587577 0)
(23.6404 0.994758 0)
(21.8514 1.61005 0)
(19.0064 3.19681 0)
(14.4093 5.03329 0)
(7.61306 9.40682 0)
(29.925 -0.0174578 0)
(30.2601 -0.0367707 0)
(29.9425 0.0504044 0)
(29.7868 0.0351408 0)
(29.8062 -0.000559589 0)
(29.744 0.00570739 0)
(29.6069 0.0120438 0)
(29.5427 0.0172133 0)
(29.3441 0.0433311 0)
(29.191 0.0469246 0)
(28.9941 0.0732329 0)
(28.6142 0.11133 0)
(28.2044 0.143831 0)
(27.7548 0.167539 0)
(27.1222 0.231008 0)
(26.1789 0.387222 0)
(25.0792 0.619921 0)
(23.5824 1.04093 0)
(21.8144 1.68295 0)
(18.9923 3.33035 0)
(14.4956 5.26023 0)
(7.70706 9.89082 0)
(29.9321 -0.0180347 0)
(30.1921 -0.037689 0)
(29.9464 0.0518881 0)
(29.8352 0.0365332 0)
(29.8446 -0.000425496 0)
(29.7569 0.00622094 0)
(29.6107 0.0128214 0)
(29.5386 0.0182571 0)
(29.3415 0.0454932 0)
(29.1923 0.0493719 0)
(28.984 0.0769057 0)
(28.5982 0.116683 0)
(28.1948 0.150475 0)
(27.7351 0.177202 0)
(27.0835 0.246797 0)
(26.1271 0.409948 0)
(25.0224 0.652377 0)
(23.5246 1.0868 0)
(21.7803 1.75514 0)
(18.9818 3.46159 0)
(14.59 5.48495 0)
(7.80713 10.3792 0)
(29.9292 -0.0185365 0)
(30.2432 -0.0388696 0)
(29.9355 0.0543247 0)
(29.7849 0.0378123 0)
(29.806 -0.000703311 0)
(29.7438 0.00631968 0)
(29.6078 0.0132316 0)
(29.5419 0.01902 0)
(29.3426 0.0473914 0)
(29.1967 0.0517149 0)
(28.9689 0.0803226 0)
(28.5836 0.122078 0)
(28.1849 0.157203 0)
(27.7142 0.187119 0)
(27.0443 0.262891 0)
(26.0756 0.432884 0)
(24.9645 0.684947 0)
(23.4671 1.13229 0)
(21.7489 1.82654 0)
(18.9748 3.59046 0)
(14.6932 5.7074 0)
(7.91347 10.8722 0)
(29.9361 -0.0190716 0)
(30.1734 -0.0396904 0)
(29.9427 0.0556397 0)
(29.8376 0.0391603 0)
(29.8464 -0.000534911 0)
(29.757 0.00686579 0)
(29.6111 0.0140258 0)
(29.5373 0.0200978 0)
(29.3391 0.049483 0)
(29.1993 0.0541424 0)
(28.9523 0.0838202 0)
(28.5706 0.127455 0)
(28.1749 0.163995 0)
(27.6919 0.197302 0)
(27.0042 0.279278 0)
(26.0238 0.456038 0)
(24.9053 0.717604 0)
(23.4103 1.17733 0)
(21.7198 1.89714 0)
(18.971 3.71682 0)
(14.8059 5.92751 0)
(8.02635 11.3702 0)
(29.9333 -0.0195281 0)
(30.2268 -0.0408006 0)
(29.9305 0.0580018 0)
(29.7852 0.0403999 0)
(29.8076 -0.000818311 0)
(29.7454 0.00695187 0)
(29.6103 0.0144214 0)
(29.5428 0.0208666 0)
(29.3426 0.0513708 0)
(29.2054 0.0560906 0)
(28.9358 0.0874903 0)
(28.559 0.132797 0)
(28.1641 0.170893 0)
(27.6681 0.207749 0)
(26.9631 0.295953 0)
(25.9712 0.479412 0)
(24.8449 0.750305 0)
(23.3547 1.22187 0)
(21.6928 1.96688 0)
(18.9704 3.84054 0)
(14.929 6.14525 0)
(8.14606 11.8736 0)
(29.9402 -0.0200234 0)
(30.1551 -0.0415225 0)
(29.9379 0.0591614 0)
(29.8398 0.0416954 0)
(29.8488 -0.000628443 0)
(29.7578 0.00752748 0)
(29.6125 0.0152322 0)
(29.5369 0.0219544 0)
(29.3401 0.0535353 0)
(29.2056 0.0589666 0)
(28.9202 0.0913265 0)
(28.5487 0.138103 0)
(28.1527 0.177898 0)
(27.6428 0.218468 0)
(26.9205 0.312905 0)
(25.9178 0.502998 0)
(24.784 0.783004 0)
(23.301 1.26589 0)
(21.6679 2.03576 0)
(18.9726 3.96146 0)
(15.0634 6.36053 0)
(8.27294 12.3828 0)
(29.9372 -0.0204374 0)
(30.2115 -0.0425618 0)
(29.9253 0.0614588 0)
(29.7849 0.0428966 0)
(29.8089 -0.000921867 0)
(29.7464 0.00760489 0)
(29.6129 0.0156168 0)
(29.5421 0.02272 0)
(29.347 0.055305 0)
(29.2053 0.0625691 0)
(28.9056 0.0952672 0)
(28.5393 0.14339 0)
(28.1403 0.185041 0)
(27.6159 0.229465 0)
(26.8765 0.33013 0)
(25.8634 0.526773 0)
(24.7235 0.815667 0)
(23.2494 1.30937 0)
(21.6448 2.10377 0)
(18.9774 4.07939 0)
(15.2097 6.57328 0)
(8.40734 12.8982 0)
(29.9438 -0.0208949 0)
(30.1384 -0.0431987 0)
(29.9355 0.062456 0)
(29.843 0.0441473 0)
(29.851 -0.000695685 0)
(29.7584 0.00821086 0)
(29.6141 0.0164472 0)
(29.5345 0.0238085 0)
(29.3453 0.0574449 0)
(29.2027 0.0657335 0)
(28.8921 0.0992823 0)
(28.5308 0.148675 0)
(28.1272 0.192334 0)
(27.5873 0.240742 0)
(26.8309 0.347613 0)
(25.8087 0.550711 0)
(24.6641 0.84826 0)
(23.2004 1.3523 0)
(21.6233 2.1709 0)
(18.9842 4.19414 0)
(15.3685 6.78342 0)
(8.54966 13.4202 0)
(29.9409 -0.0212685 0)
(30.1966 -0.044175 0)
(29.9215 0.0646788 0)
(29.7861 0.0453151 0)
(29.8115 -0.000988848 0)
(29.7486 0.0082764 0)
(29.6168 0.0168309 0)
(29.5419 0.0245435 0)
(29.3539 0.0593816 0)
(29.2011 0.0683568 0)
(28.8797 0.103369 0)
(28.523 0.153974 0)
(28.1128 0.199798 0)
(27.5572 0.252304 0)
(26.7841 0.365341 0)
(25.754 0.574777 0)
(24.6067 0.880754 0)
(23.1541 1.39468 0)
(21.6034 2.23717 0)
(18.9928 4.30548 0)
(15.5402 6.99084 0)
(8.70026 13.9493 0)
(29.9474 -0.0216901 0)
(30.1221 -0.0447239 0)
(29.9314 0.0655344 0)
(29.8456 0.0465105 0)
(29.854 -0.000744598 0)
(29.7597 0.00890943 0)
(29.6164 0.0176791 0)
(29.534 0.0256175 0)
(29.3516 0.0616405 0)
(29.1975 0.070947 0)
(28.8683 0.107513 0)
(28.5157 0.1593 0)
(28.0974 0.207449 0)
(27.5252 0.26415 0)
(26.736 0.38329 0)
(25.6999 0.598934 0)
(24.5516 0.913121 0)
(23.1108 1.43652 0)
(21.585 2.30261 0)
(19.0027 4.4132 0)
(15.7247 7.19542 0)
(8.85953 14.486 0)
(29.9444 -0.0220256 0)
(30.1829 -0.0456363 0)
(29.9171 0.0676938 0)
(29.7863 0.0476427 0)
(29.8132 -0.00104855 0)
(29.7501 0.00896636 0)
(29.6199 0.0180596 0)
(29.5412 0.0263318 0)
(29.3602 0.0635949 0)
(29.193 0.0736195 0)
(28.8579 0.111692 0)
(28.5088 0.164668 0)
(28.0806 0.215302 0)
(27.4917 0.276282 0)
(26.687 0.401439 0)
(25.6468 0.623143 0)
(24.4993 0.945337 0)
(23.0703 1.47785 0)
(21.5681 2.36723 0)
(19.0135 4.51708 0)
(15.9216 7.39705 0)
(9.02779 15.0307 0)
(29.9506 -0.0224138 0)
(30.1072 -0.0461037 0)
(29.9294 0.068398 0)
(29.849 0.0487862 0)
(29.8563 -0.000774782 0)
(29.7604 0.00962549 0)
(29.618 0.0189272 0)
(29.5321 0.0274059 0)
(29.357 0.0658736 0)
(29.1867 0.0764384 0)
(28.8484 0.115884 0)
(28.5023 0.170092 0)
(28.0627 0.223375 0)
(27.4564 0.28869 0)
(26.6372 0.419757 0)
(25.5952 0.647366 0)
(24.4499 0.977382 0)
(23.0326 1.51868 0)
(21.5527 2.43108 0)
(19.025 4.61691 0)
(16.1304 7.59555 0)
(9.20535 15.5839 0)
(29.9477 -0.0227146 0)
(30.1702 -0.0469523 0)
(29.9139 0.0705047 0)
(29.7876 0.04989 0)
(29.8161 -0.00108873 0)
(29.7527 0.00966262 0)
(29.6241 0.0193067 0)
(29.5405 0.0281034 0)
(29.3679 0.0678682 0)
(29.1797 0.079354 0)
(28.8397 0.120076 0)
(28.496 0.175588 0)
(28.0434 0.231678 0)
(27.4198 0.301372 0)
(26.587 0.438214 0)
(25.5453 0.671564 0)
(24.4033 1.00924 0)
(22.9978 1.55903 0)
(21.5389 2.49419 0)
(19.037 4.71251 0)
(16.3503 7.79078 0)
(9.39243 16.1461 0)
(29.9536 -0.0230735 0)
(30.0935 -0.04734 0)
(29.9272 0.0710875 0)
(29.852 0.0509916 0)
(29.8589 -0.000794811 0)
(29.7618 0.0103309 0)
(29.6208 0.020179 0)
(29.5297 0.0291737 0)
(29.364 0.0702058 0)
(29.1712 0.0823488 0)
(28.832 0.124259 0)
(28.4899 0.181172 0)
(28.0228 0.240231 0)
(27.3814 0.314319 0)
(26.5364 0.456773 0)
(25.4972 0.695702 0)
(24.3595 1.0409 0)
(22.9657 1.59892 0)
(21.5268 2.55658 0)
(19.0496 4.80372 0)
(16.5803 7.98257 0)
(9.58925 16.7177 0)
(29.9509 -0.0233422 0)
(30.1585 -0.0481548 0)
(29.9101 0.0731617 0)
(29.7882 0.0520949 0)
(29.8191 -0.0011008 0)
(29.7553 0.010357 0)
(29.6285 0.0205537 0)
(29.5396 0.0298137 0)
(29.3768 0.0723162 0)
(29.1619 0.0854 0)
(28.8249 0.128425 0)
(28.4839 0.186859 0)
(28.0007 0.249038 0)
(27.3418 0.32752 0)
(26.4857 0.475404 0)
(25.451 0.719747 0)
(24.3184 1.07236 0)
(22.9361 1.63836 0)
(21.5165 2.6183 0)
(19.0629 4.89037 0)
(16.8197 8.17073 0)
(9.79593 17.2992 0)
(29.9567 -0.0236688 0)
(30.081 -0.0485211 0)
(29.9237 0.0736031 0)
(29.8534 0.0531625 0)
(29.8612 -0.000749812 0)
(29.7628 0.0110724 0)
(29.623 0.0214506 0)
(29.5266 0.0308352 0)
(29.3802 0.0744151 0)
(29.151 0.0885237 0)
(28.8186 0.132569 0)
(28.4779 0.192664 0)
(27.9774 0.258115 0)
(27.3006 0.340962 0)
(26.4347 0.494074 0)
(25.4066 0.743672 0)
(24.2797 1.1036 0)
(22.909 1.67737 0)
(21.5082 2.67937 0)
(19.077 4.97236 0)
(17.0682 8.35509 0)
(10.0126 17.891 0)
(29.9541 -0.023904 0)
(30.1474 -0.0492876 0)
(29.9059 0.0755374 0)
(29.7874 0.0542035 0)
(29.8216 -0.00105013 0)
(29.7578 0.0111463 0)
(29.632 0.0218566 0)
(29.539 0.0314856 0)
(29.383 0.0762235 0)
(29.1383 0.091706 0)
(28.813 0.136682 0)
(28.472 0.198602 0)
(27.9524 0.267469 0)
(27.2582 0.354631 0)
(26.3838 0.51275 0)
(25.3639 0.767451 0)
(24.2432 1.13463 0)
(22.8843 1.71596 0)
(21.5021 2.73981 0)
(19.0922 5.04955 0)
(17.3253 8.53546 0)
(10.2393 18.4935 0)
(29.9596 -0.0242141 0)
(30.0683 -0.0494536 0)
(29.919 0.0758601 0)
(29.8546 0.0551094 0)
(29.8632 -0.000754082 0)
(29.7639 0.011921 0)
(29.6232 0.0228129 0)
(29.5299 0.0325814 0)
(29.3617 0.0785742 0)
(29.1236 0.0948333 0)
(28.808 0.140751 0)
(28.4659 0.204688 0)
(27.9262 0.277107 0)
(27.2144 0.368516 0)
(26.3326 0.531406 0)
(25.3229 0.791061 0)
(24.2088 1.16542 0)
(22.8619 1.75411 0)
(21.4983 2.79965 0)
(19.1085 5.12182 0)
(17.591 8.71166 0)
(10.4763 19.1072 0)
(29.9572 -0.0244383 0)
(30.1377 -0.050049 0)
(29.9026 0.0779044 0)
(29.788 0.0560687 0)
(29.8246 -0.00122852 0)
(29.7617 0.0119307 0)
(29.6328 0.0232202 0)
(29.5508 0.0334497 0)
(29.3407 0.0810049 0)
(29.1082 0.0978329 0)
(28.8036 0.144773 0)
(28.4596 0.210935 0)
(27.8984 0.28704 0)
(27.1697 0.382603 0)
(26.2815 0.550013 0)
(25.2834 0.81448 0)
(24.1761 1.19597 0)
(22.8418 1.79181 0)
(21.4972 2.85889 0)
(19.1258 5.18906 0)
(17.8648 8.8835 0)
(10.7235 19.7324 0)
(29.9633 -0.0247045 0)
(30.0569 -0.0503765 0)
(29.9154 0.0783795 0)
(29.8527 0.0571681 0)
(29.8647 -0.000938281 0)
(29.7671 0.0127237 0)
(29.626 0.024128 0)
(29.5337 0.0352301 0)
(29.3194 0.0832606 0)
(29.0932 0.100729 0)
(28.7997 0.148744 0)
(28.4532 0.217355 0)
(27.8694 0.297257 0)
(27.1238 0.396898 0)
(26.2301 0.568558 0)
(25.2452 0.837688 0)
(24.145 1.22626 0)
(22.8237 1.82907 0)
(21.4989 2.91756 0)
(19.1441 5.25118 0)
(18.1446 9.05085 0)
(10.981 20.3696 0)
(29.9596 -0.0248476 0)
(30.1193 -0.0512327 0)
(29.8964 0.0800245 0)
(29.7886 0.058119 0)
(29.8254 -0.00148353 0)
(29.7586 0.0122851 0)
(29.635 0.0241076 0)
(29.5257 0.0353788 0)
(29.3018 0.0854006 0)
(29.0793 0.103558 0)
(28.7961 0.152663 0)
(28.4464 0.223952 0)
(27.839 0.307782 0)
(27.0773 0.41138 0)
(26.1788 0.58701 0)
(25.2082 0.860669 0)
(24.1153 1.2563 0)
(22.8078 1.86587 0)
(21.5037 2.97571 0)
(19.1629 5.30816 0)
(18.4259 9.21366 0)
(11.2488 21.0198 0)
(29.9596 -0.0251173 0)
(30.0557 -0.0511142 0)
(29.9186 0.0803365 0)
(29.859 0.0598914 0)
(29.8697 0.000185252 0)
(29.7681 0.0142479 0)
(29.6369 0.0251181 0)
(29.5011 0.0367251 0)
(29.2868 0.0875433 0)
(29.0666 0.106304 0)
(28.7928 0.156507 0)
(28.4393 0.230709 0)
(27.8077 0.318613 0)
(27.0302 0.42606 0)
(26.1274 0.60534 0)
(25.1723 0.883379 0)
(24.0868 1.28607 0)
(22.794 1.90221 0)
(21.512 3.03335 0)
(19.1821 5.36019 0)
(18.6995 9.37175 0)
(11.5258 21.6895 0)
(29.9428 -0.0254709 0)
(30.1938 -0.051015 0)
(29.9623 0.0779268 0)
(29.8302 0.0587253 0)
(29.8856 -0.0011267 0)
(29.8151 0.0156209 0)
(29.7096 0.0268547 0)
(29.4962 0.0392037 0)
(29.2741 0.0896545 0)
(29.055 0.109098 0)
(28.7897 0.160258 0)
(28.4318 0.237403 0)
(27.7752 0.32949 0)
(26.9831 0.440998 0)
(26.0762 0.623762 0)
(25.1376 0.905966 0)
(24.0594 1.31547 0)
(22.782 1.93793 0)
(21.5241 3.09054 0)
(19.202 5.40766 0)
(18.9517 9.52297 0)
(11.8963 22.4013 0)
(-1.82251 0.0685133 0)
(-3.99071 0.034192 0)
(-5.11457 0.0131716 0)
(-5.49795 0.00443943 0)
(-6.05349 -0.0223039 0)
(-3.00094 -0.0545551 0)
(0.778762 -0.0563017 0)
(4.76562 -0.0462738 0)
(7.81033 -0.0327786 0)
(10.1181 -0.0219664 0)
(11.6923 -0.0145892 0)
(12.8695 -0.0110541 0)
(13.9353 -0.00953963 0)
(14.9825 -0.00856356 0)
(15.9968 -0.00789955 0)
(17.0311 -0.00763766 0)
(18.1245 -0.00736166 0)
(19.2394 -0.00680073 0)
(20.3311 -0.00592242 0)
(21.3276 -0.00517764 0)
(22.3179 -0.00637667 0)
(24.0241 -0.00888979 0)
(26.4693 -0.00764111 0)
(27.8762 -0.00354819 0)
(28.3848 -0.00133466 0)
(28.6542 -0.000740941 0)
(28.8528 -0.000552819 0)
(29.0328 -0.000458304 0)
(29.1922 -0.000381706 0)
(29.3387 -0.000287258 0)
(29.4407 -0.000196701 0)
(29.5233 -0.000139018 0)
(29.582 -0.000115729 0)
(29.6514 -8.83472e-05 0)
(29.6868 -2.82537e-05 0)
(-1.63977 0.195913 0)
(-3.86473 0.108662 0)
(-5.28561 0.0533442 0)
(-6.58087 0.0400472 0)
(-7.24426 -0.0495004 0)
(-4.06519 -0.161533 0)
(0.050878 -0.172136 0)
(4.24619 -0.141456 0)
(7.49872 -0.100378 0)
(9.99053 -0.0670571 0)
(11.6757 -0.0438652 0)
(12.8763 -0.0326316 0)
(13.9299 -0.0282968 0)
(14.963 -0.0254742 0)
(15.9657 -0.0233288 0)
(16.9808 -0.0223585 0)
(18.0486 -0.0214881 0)
(19.1397 -0.0198865 0)
(20.2124 -0.0174054 0)
(21.1976 -0.0151983 0)
(22.1605 -0.0187746 0)
(23.7885 -0.0269669 0)
(26.2888 -0.0237759 0)
(27.8183 -0.0110648 0)
(28.3669 -0.00410086 0)
(28.6436 -0.00224749 0)
(28.8448 -0.00166944 0)
(29.026 -0.00138126 0)
(29.1865 -0.00114952 0)
(29.334 -0.000866475 0)
(29.437 -0.000593008 0)
(29.5205 -0.000419878 0)
(29.5797 -0.000348267 0)
(29.6493 -0.000267031 0)
(29.6855 -8.60159e-05 0)
(-1.45325 0.32047 0)
(-3.81799 0.18839 0)
(-5.54666 0.115769 0)
(-7.50398 0.0829805 0)
(-7.63036 -0.101382 0)
(-4.29607 -0.287806 0)
(-0.193914 -0.296025 0)
(4.01225 -0.243141 0)
(7.33476 -0.173859 0)
(9.93167 -0.116401 0)
(11.681 -0.0747233 0)
(12.8978 -0.0545134 0)
(13.9393 -0.0467133 0)
(14.9572 -0.0420227 0)
(15.9463 -0.038389 0)
(16.9407 -0.0365846 0)
(17.9817 -0.0350499 0)
(19.0489 -0.0324635 0)
(20.1042 -0.0285579 0)
(21.0807 -0.0250315 0)
(22.0242 -0.0306792 0)
(23.5966 -0.0446801 0)
(26.1364 -0.0404031 0)
(27.7651 -0.0192066 0)
(28.3493 -0.00705623 0)
(28.633 -0.00378546 0)
(28.8367 -0.00279592 0)
(29.0192 -0.0023094 0)
(29.1808 -0.00192261 0)
(29.3293 -0.00144919 0)
(29.4332 -0.000993782 0)
(29.5175 -0.000702785 0)
(29.5772 -0.000582635 0)
(29.6471 -0.000446626 0)
(29.6841 -0.000144992 0)
(-1.28958 0.439117 0)
(-3.7947 0.278049 0)
(-5.79893 0.193336 0)
(-8.03011 0.126755 0)
(-7.67664 -0.153313 0)
(-4.22205 -0.404219 0)
(-0.175319 -0.412942 0)
(3.96738 -0.341292 0)
(7.28655 -0.247106 0)
(9.93123 -0.166536 0)
(11.7096 -0.106381 0)
(12.9369 -0.0765648 0)
(13.9661 -0.0650728 0)
(14.9671 -0.0585537 0)
(15.9406 -0.0534701 0)
(16.9115 -0.0508056 0)
(17.9216 -0.0486114 0)
(18.9618 -0.0450714 0)
(20.0004 -0.0397413 0)
(20.973 -0.0347958 0)
(21.9076 -0.0423279 0)
(23.448 -0.0623783 0)
(26.0125 -0.057575 0)
(27.7169 -0.0278048 0)
(28.332 -0.0101469 0)
(28.6223 -0.0053545 0)
(28.8286 -0.00393462 0)
(29.0124 -0.00324444 0)
(29.175 -0.00270104 0)
(29.3245 -0.00203656 0)
(29.4292 -0.00139832 0)
(29.5145 -0.000988788 0)
(29.5747 -0.000818344 0)
(29.6449 -0.000628212 0)
(29.6825 -0.000205183 0)
(-1.14431 0.55375 0)
(-3.78687 0.37603 0)
(-6.03252 0.280166 0)
(-8.28305 0.163291 0)
(-7.5418 -0.214434 0)
(-3.93038 -0.525255 0)
(0.0297438 -0.528993 0)
(4.05996 -0.438196 0)
(7.33247 -0.320227 0)
(9.98159 -0.217048 0)
(11.763 -0.138351 0)
(12.9952 -0.0986214 0)
(14.0111 -0.0832136 0)
(14.9929 -0.0748264 0)
(15.9495 -0.0682526 0)
(16.8956 -0.0646584 0)
(17.8706 -0.0618402 0)
(18.8788 -0.0574813 0)
(19.9002 -0.050875 0)
(20.8737 -0.0445567 0)
(21.81 -0.0538691 0)
(23.3382 -0.0800538 0)
(25.9156 -0.0750636 0)
(27.6739 -0.0367599 0)
(28.3151 -0.0133626 0)
(28.6118 -0.0069531 0)
(28.8206 -0.00508464 0)
(29.0056 -0.00418582 0)
(29.1692 -0.0034846 0)
(29.3197 -0.00262814 0)
(29.4252 -0.00180674 0)
(29.5115 -0.00127761 0)
(29.5721 -0.0010555 0)
(29.6427 -0.000811417 0)
(29.6809 -0.000266395 0)
(-1.01324 0.665069 0)
(-3.78823 0.481565 0)
(-6.24221 0.371173 0)
(-8.36944 0.191055 0)
(-7.24519 -0.285765 0)
(-3.42852 -0.650779 0)
(0.393257 -0.642921 0)
(4.26416 -0.533149 0)
(7.45549 -0.392526 0)
(10.0743 -0.267307 0)
(11.8411 -0.170189 0)
(13.0729 -0.120496 0)
(14.0736 -0.100977 0)
(15.0332 -0.0906968 0)
(15.9724 -0.0826252 0)
(16.8952 -0.0779999 0)
(17.8336 -0.0745522 0)
(18.8047 -0.0695543 0)
(19.8064 -0.0619242 0)
(20.7843 -0.0543676 0)
(21.7303 -0.0654233 0)
(23.2617 -0.0977499 0)
(25.843 -0.0927478 0)
(27.6361 -0.0459702 0)
(28.2987 -0.0166838 0)
(28.6014 -0.00857975 0)
(28.8127 -0.00624567 0)
(28.9988 -0.00513329 0)
(29.1635 -0.00427309 0)
(29.3149 -0.00322371 0)
(29.4212 -0.00221895 0)
(29.5086 -0.00156924 0)
(29.5695 -0.00129401 0)
(29.6404 -0.00099612 0)
(29.6791 -0.000328466 0)
(-0.892693 0.773516 0)
(-3.79397 0.593762 0)
(-6.42477 0.463128 0)
(-8.33608 0.208321 0)
(-6.75429 -0.36808 0)
(-2.76527 -0.77775 0)
(0.884318 -0.752328 0)
(4.5621 -0.624851 0)
(7.64229 -0.463228 0)
(10.2018 -0.316825 0)
(11.9421 -0.201718 0)
(13.1692 -0.142125 0)
(14.1517 -0.118322 0)
(15.0854 -0.106161 0)
(16.0068 -0.0966351 0)
(16.9094 -0.0908695 0)
(17.8138 -0.086714 0)
(18.7457 -0.0812214 0)
(19.7241 -0.0728674 0)
(20.7073 -0.0642699 0)
(21.6679 -0.0770825 0)
(23.213 -0.115494 0)
(25.7916 -0.110531 0)
(27.6035 -0.0553492 0)
(28.2829 -0.0200924 0)
(28.5912 -0.0102332 0)
(28.805 -0.00741751 0)
(28.9923 -0.00608667 0)
(29.1579 -0.00506639 0)
(29.3102 -0.00382307 0)
(29.4172 -0.00263492 0)
(29.5057 -0.00186365 0)
(29.5669 -0.00153382 0)
(29.6383 -0.00118224 0)
(29.6774 -0.000391261 0)
(-0.779457 0.879352 0)
(-3.80039 0.711769 0)
(-6.57657 0.553592 0)
(-8.18994 0.212373 0)
(-6.04451 -0.461523 0)
(-2.04095 -0.902463 0)
(1.45027 -0.855992 0)
(4.93064 -0.71227 0)
(7.88019 -0.531592 0)
(10.3583 -0.365189 0)
(12.064 -0.232831 0)
(13.2826 -0.163483 0)
(14.2438 -0.135234 0)
(15.1476 -0.12124 0)
(16.0502 -0.110359 0)
(16.936 -0.103371 0)
(17.8115 -0.0983849 0)
(18.706 -0.0924676 0)
(19.6585 -0.0836768 0)
(20.6449 -0.0742739 0)
(21.6219 -0.0889009 0)
(23.1872 -0.1333 0)
(25.7582 -0.128337 0)
(27.5758 -0.064825 0)
(28.2679 -0.0235713 0)
(28.5814 -0.0119118 0)
(28.7975 -0.0085999 0)
(28.986 -0.00704575 0)
(29.1526 -0.00586428 0)
(29.3057 -0.00442595 0)
(29.4133 -0.00305459 0)
(29.5029 -0.00216083 0)
(29.5643 -0.00177486 0)
(29.6361 -0.00136968 0)
(29.6755 -0.000454632 0)
(-0.670791 0.982718 0)
(-3.80452 0.834706 0)
(-6.69236 0.640273 0)
(-7.92419 0.2003 0)
(-5.16781 -0.564649 0)
(-1.33219 -1.02233 0)
(2.03516 -0.954516 0)
(5.34148 -0.795169 0)
(8.15634 -0.597135 0)
(10.5393 -0.412092 0)
(12.2054 -0.263433 0)
(13.4125 -0.184518 0)
(14.349 -0.151669 0)
(15.219 -0.135913 0)
(16.1012 -0.123834 0)
(16.9723 -0.115594 0)
(17.8246 -0.109655 0)
(18.6865 -0.103323 0)
(19.6126 -0.0943278 0)
(20.5986 -0.0843631 0)
(21.5912 -0.100901 0)
(23.1802 -0.151169 0)
(25.7399 -0.146102 0)
(27.5529 -0.0743384 0)
(28.2538 -0.0271047 0)
(28.5721 -0.0136142 0)
(28.7905 -0.0097925 0)
(28.98 -0.00801019 0)
(29.1475 -0.0066665 0)
(29.3014 -0.00503208 0)
(29.4095 -0.00347787 0)
(29.5003 -0.00246074 0)
(29.5619 -0.00201703 0)
(29.6341 -0.00155831 0)
(29.6737 -0.000518421 0)
(-0.564343 1.08363 0)
(-3.80374 0.961598 0)
(-6.7653 0.720936 0)
(-7.53769 0.170682 0)
(-4.24714 -0.675021 0)
(-0.661895 -1.13639 0)
(2.60426 -1.04884 0)
(5.77077 -0.874032 0)
(8.45984 -0.659726 0)
(10.7423 -0.457353 0)
(12.3664 -0.293457 0)
(13.559 -0.205172 0)
(14.4678 -0.167554 0)
(15.2998 -0.15012 0)
(16.1588 -0.137052 0)
(17.0163 -0.12759 0)
(17.8502 -0.120609 0)
(18.6852 -0.113842 0)
(19.5867 -0.104809 0)
(20.5686 -0.0945083 0)
(21.5744 -0.113086 0)
(23.1886 -0.169098 0)
(25.7342 -0.163779 0)
(27.5344 -0.0838412 0)
(28.2408 -0.030678 0)
(28.5633 -0.0153383 0)
(28.784 -0.0109948 0)
(28.9744 -0.00897962 0)
(29.1427 -0.00747271 0)
(29.2974 -0.00564111 0)
(29.4059 -0.00390466 0)
(29.4979 -0.00276329 0)
(29.5595 -0.0022602 0)
(29.6323 -0.00174797 0)
(29.672 -0.000582457 0)
(-0.458113 1.182 0)
(-3.79548 1.09137 0)
(-6.78856 0.793609 0)
(-7.04375 0.124309 0)
(-3.38403 -0.790128 0)
(-0.0238908 -1.24472 0)
(3.15082 -1.13992 0)
(6.20721 -0.949601 0)
(8.78489 -0.719515 0)
(10.9678 -0.500921 0)
(12.5488 -0.322848 0)
(13.7243 -0.225375 0)
(14.602 -0.182809 0)
(15.3911 -0.16378 0)