/*--------------------------------*- C++ -*----------------------------------*\
| =========                 |                                                 |
| \\      /  F ield         | OpenFOAM: The Open Source CFD Toolbox           |
|  \\    /   O peration     | Version:  v1912                                 |
|   \\  /    A nd           | Website:  www.openfoam.com                      |
|    \\/     M anipulation  |                                                 |
\*---------------------------------------------------------------------------*/
FoamFile
{
    version     2.0;
    format      ascii;
    class       volScalarField;
    location    "50";
    object      yPlus;
}
// * * * * * * * * * * * * * * * * * * * * * * * * * * * * * * * * * * * * * //

dimensions      [0 0 0 0 0 0 0];


internalField   uniform 0;

boundaryField
{
    inlet
    {
        type            calculated;
        value           uniform 0;
    }
    outlet
    {
        type            calculated;
        value           uniform 0;
    }
    lowerSymmetry
    {
        type            symmetryPlane;
    }
    obstical
    {
        type            calculated;
        value           nonuniform List<scalar> 
88
(
566.223
565.886
567.854
572.607
579.985
589.803
601.88
616.039
632.109
649.925
669.327
690.165
712.3
735.613
760
785.371
811.65
838.773
866.684
895.341
924.709
954.761
985.48
1016.85
1048.88
1081.56
1114.9
1148.91
1183.61
1219.01
1255.15
1292.04
1329.69
1368.14
1407.39
1447.47
1488.4
1530.19
1572.86
1616.42
1660.89
1706.34
1753.08
1804.93
166.041
152.25
139.048
128.765
121.266
116.356
113.792
113.282
114.511
117.167
120.97
125.685
131.125
137.148
143.653
150.568
157.844
165.453
173.383
181.639
190.244
199.232
208.63
218.392
228.256
238.049
247.708
257.183
266.447
275.475
284.245
292.691
300.663
307.805
313.496
316.803
316.615
311.811
301.461
284.873
261.609
231.572
195.209
152.865
)
;
    }
    obsticalTop
    {
        type            calculated;
        value           nonuniform List<scalar> 
20
(
51.6398
34.7916
44.2922
51.0843
54.2512
56.1241
56.9206
56.8485
56.1415
54.9433
53.2547
51.0003
48.1269
44.5213
40.1947
34.5649
29.3603
20.9844
18.4505
2.91239
)
;
    }
    top
    {
        type            calculated;
        value           uniform 0;
    }
    defaultFaces
    {
        type            empty;
    }
}


// ************************************************************************* //
