/*--------------------------------*- C++ -*----------------------------------*\
| =========                 |                                                 |
| \\      /  F ield         | OpenFOAM: The Open Source CFD Toolbox           |
|  \\    /   O peration     | Version:  v1912                                 |
|   \\  /    A nd           | Website:  www.openfoam.com                      |
|    \\/     M anipulation  |                                                 |
\*---------------------------------------------------------------------------*/
FoamFile
{
    version     2.0;
    format      ascii;
    class       volScalarField;
    location    "375";
    object      epsilon;
}
// * * * * * * * * * * * * * * * * * * * * * * * * * * * * * * * * * * * * * //

dimensions      [0 2 -3 0 0 0 0];


internalField   nonuniform List<scalar> 
2000
(
0.0135126
0.0111845
0.00819021
0.00480134
0.00122143
0.000121634
9.66128e-05
0.000112652
0.000114446
8.6278e-05
5.13031e-05
3.39665e-05
3.80203e-05
4.28188e-05
4.86597e-05
5.76501e-05
7.03244e-05
8.63658e-05
0.000106076
0.000130332
0.000160295
0.000197341
0.000243005
0.000298885
0.000366483
0.000447021
0.000541272
0.000649463
0.000771258
0.00090582
0.00105193
0.00120811
0.0013728
0.00154449
0.00172192
0.00190429
0.00209145
0.00228431
0.00248519
0.00269881
0.00292295
0.0031508
0.00338286
0.00362009
0.00386296
0.0041114
0.00436502
0.00462317
0.00488503
0.00514966
0.00541606
0.00568324
0.00595018
0.00621583
0.00647707
0.00673331
0.00698434
0.00723052
0.00747414
0.00772436
0.00801242
0.00832631
0.00865446
0.00899149
0.00933654
0.00969063
0.0100558
0.0104351
0.0108322
0.0112518
0.0116997
0.0121831
0.012711
0.0132951
0.0139508
0.0146995
0.0155743
0.0166259
0.0179359
0.0199021
0.122256
0.0401411
0.0185261
0.0102232
0.00590902
0.00348122
0.0020649
0.0011879
0.00145479
0.000683852
0.000301898
0.000205915
0.000164953
0.000131206
0.00010837
0.000106095
0.000115654
0.00013079
0.000150934
0.000176696
0.000208852
0.000248443
0.000296779
0.000355305
0.000425484
0.000508653
0.000605889
0.000717903
0.000844987
0.000986951
0.00114311
0.00131231
0.001493
0.00168335
0.00188149
0.00208574
0.0022948
0.00250758
0.00272296
0.00293669
0.00314773
0.00335809
0.00356826
0.00377907
0.00399079
0.00420322
0.00441581
0.00462782
0.00483837
0.00504652
0.00525139
0.00545235
0.00564964
0.00584659
0.00602916
0.00620088
0.00636265
0.00651471
0.00665766
0.00679301
0.00692247
0.00704555
0.00716258
0.00727382
0.00737986
0.00748176
0.00758102
0.00767948
0.00777933
0.00788309
0.00799363
0.00811419
0.00824835
0.00839984
0.0085728
0.00876857
0.00899328
0.0092125
0.00951076
0.0095138
0.111974
0.0306053
0.0126533
0.00692949
0.00433062
0.00288081
0.00200529
0.00147511
0.00138869
0.00132255
0.00131543
0.00151692
0.00157493
0.000973522
0.000614184
0.00046434
0.000413983
0.000395674
0.000398798
0.000419104
0.000453183
0.000499747
0.000558857
0.000630914
0.000716614
0.000816913
0.000932771
0.00106487
0.00121346
0.00137827
0.00155847
0.00175276
0.0019595
0.00217701
0.00240394
0.00263965
0.00288468
0.00314143
0.00340052
0.00365819
0.00391539
0.0041708
0.00442182
0.00466986
0.00491473
0.00515556
0.00539119
0.00562029
0.00584148
0.00605338
0.00625467
0.00644418
0.00662098
0.0067843
0.00693231
0.00706455
0.00718084
0.00728122
0.00736598
0.00743565
0.00749115
0.0075337
0.00756487
0.00758617
0.0075992
0.0076058
0.00760804
0.00760824
0.0076089
0.00761275
0.00762265
0.00764162
0.00767266
0.00771852
0.00778123
0.00786033
0.00795365
0.00803685
0.00814797
0.00803642
0.109259
0.0268001
0.00926416
0.00444704
0.00268937
0.00184508
0.00135665
0.0010515
0.000919232
0.00088729
0.000950762
0.00119538
0.00164647
0.00208055
0.00243555
0.00245506
0.00212241
0.00174794
0.00150149
0.00137425
0.00132188
0.00131689
0.00134591
0.00140074
0.00147647
0.00157088
0.0016834
0.00181411
0.00196325
0.00213098
0.00231728
0.00252183
0.00274392
0.00298276
0.00323873
0.00351272
0.0038083
0.00410727
0.00440553
0.00470157
0.00499304
0.00527746
0.005553
0.0058186
0.00607319
0.00631555
0.00654438
0.00675827
0.00695584
0.0071358
0.00729698
0.00743842
0.00755943
0.00765954
0.00773849
0.00779637
0.00783364
0.00785105
0.0078496
0.0078306
0.00779564
0.00774663
0.00768575
0.00761522
0.00753736
0.00745456
0.00736932
0.00728417
0.00720172
0.0071246
0.00705546
0.0069969
0.0069514
0.00692101
0.00690702
0.00690861
0.00692346
0.00693371
0.00696903
0.00685481
0.108843
0.0260421
0.00822884
0.00339504
0.00179881
0.0011572
0.000843107
0.000662408
0.000563079
0.000519101
0.000525589
0.00060889
0.000817803
0.0011774
0.00174212
0.00251503
0.00329878
0.00387037
0.00412971
0.00411506
0.00394988
0.0037548
0.00359683
0.00349507
0.00344569
0.00343968
0.00346967
0.00353103
0.0036212
0.00373891
0.00388345
0.00405414
0.00425006
0.00447077
0.00472552
0.0050016
0.00528137
0.00556237
0.00584102
0.00611403
0.00637806
0.00662991
0.00686697
0.00708718
0.00728887
0.00747059
0.00763108
0.00776924
0.00788415
0.00797512
0.0080417
0.00808377
0.00810154
0.00809554
0.00806666
0.0080161
0.00794539
0.0078563
0.00775087
0.00763128
0.00749991
0.00735925
0.00721185
0.00706025
0.00690696
0.00675439
0.00660487
0.00646065
0.00632391
0.00619673
0.00608113
0.00597904
0.00589226
0.00582231
0.00577019
0.0057355
0.00571725
0.00570304
0.00571918
0.00563898
0.108786
0.0259478
0.00802267
0.00308858
0.00145466
0.000827183
0.000552342
0.000415628
0.000342634
0.000304395
0.000290869
0.000305801
0.000365122
0.00048997
0.000718891
0.00110872
0.00168207
0.0024334
0.00332193
0.00425541
0.00511129
0.00578569
0.00623351
0.0064732
0.00656131
0.00656132
0.00652436
0.0064839
0.00645883
0.00645864
0.00648758
0.00654689
0.00663924
0.00676465
0.00690337
0.00705185
0.00720688
0.00736478
0.00752141
0.00767259
0.00781431
0.00794289
0.00805521
0.00814875
0.00822154
0.00827211
0.0082994
0.00830274
0.00828188
0.00823694
0.00816845
0.00807731
0.00796482
0.00783263
0.00768268
0.0075172
0.00733858
0.00714939
0.00695224
0.00674975
0.0065445
0.00633898
0.00613555
0.00593638
0.00574346
0.00555856
0.00538325
0.00521896
0.00506696
0.0049284
0.00480437
0.00469592
0.00460405
0.0045297
0.00447362
0.00443586
0.00441665
0.00440773
0.00443225
0.00439995
0.108778
0.0259454
0.00799959
0.00302532
0.00135561
0.000706606
0.000424246
0.000289807
0.000221523
0.000185888
0.000168633
0.000165204
0.000177496
0.00021145
0.000279113
0.000401581
0.000597095
0.000885537
0.00128838
0.00182191
0.00249053
0.0032801
0.00415393
0.00505526
0.00591789
0.00668203
0.00730842
0.00778455
0.00812173
0.00834627
0.00848955
0.00858025
0.00862731
0.00864286
0.00864348
0.0086374
0.00862779
0.00861498
0.00859775
0.0085741
0.0085417
0.00849812
0.00844112
0.00836875
0.00827947
0.00817224
0.00804652
0.00790227
0.00773999
0.00756064
0.00736562
0.00715671
0.00693601
0.00670584
0.0064687
0.00622714
0.00598375
0.00574102
0.0055013
0.00526678
0.0050394
0.00482086
0.00461262
0.00441585
0.0042315
0.00406029
0.00390276
0.00375929
0.00363018
0.00351565
0.00341596
0.00333137
0.00326224
0.00320903
0.00317231
0.00315242
0.00315049
0.00316137
0.00320471
0.00321988
0.108777
0.0259493
0.00800218
0.0030173
0.00133372
0.00067169
0.00037917
0.000238016
0.000165446
0.000126704
0.000106079
9.64487e-05
9.52663e-05
0.000102652
0.000121061
0.000155778
0.000211441
0.000293825
0.00041056
0.000570494
0.000783198
0.0010581
0.00140321
0.00182344
0.00231873
0.00288212
0.00349872
0.00414615
0.00479707
0.0054231
0.00599915
0.00650686
0.00694342
0.00727039
0.00748665
0.00760981
0.00765967
0.0076541
0.00760724
0.00752914
0.00742635
0.00730282
0.00716082
0.00700177
0.00682671
0.00663676
0.00643319
0.00621755
0.00599169
0.00575766
0.0055177
0.00527414
0.00502934
0.00478563
0.00454524
0.00431023
0.00408246
0.00386353
0.0036548
0.00345735
0.003272
0.00309932
0.00293965
0.00279315
0.00265982
0.00253953
0.00243209
0.00233725
0.00225474
0.00218436
0.00212593
0.00207942
0.00204493
0.00202273
0.00201336
0.0020174
0.00203652
0.00206801
0.00212778
0.00217894
0.108777
0.0259518
0.00800535
0.00301799
0.00133024
0.000663323
0.000365848
0.000220156
0.000143602
0.000101336
7.73676e-05
6.39422e-05
5.73024e-05
5.58291e-05
5.9267e-05
6.84921e-05
8.42309e-05
0.000107441
0.000139502
0.000182036
0.000236896
0.000306123
0.000391894
0.000496429
0.000621838
0.000769877
0.000941612
0.00113707
0.00135491
0.00159226
0.00184468
0.00210637
0.00237166
0.00266494
0.0029607
0.00323963
0.00348691
0.00369195
0.00384882
0.00395587
0.00401477
0.00402945
0.0040051
0.0039474
0.00386198
0.00375411
0.00362859
0.00348968
0.00334115
0.00318632
0.0030281
0.00286904
0.00271133
0.00255687
0.00240725
0.00226374
0.00212737
0.00199889
0.00187885
0.00176757
0.00166521
0.00157181
0.00148727
0.00141145
0.00134413
0.00128509
0.0012341
0.00119093
0.00115541
0.00112741
0.00110689
0.00109391
0.00108865
0.00109148
0.00110303
0.00112407
0.00115643
0.00119924
0.00126455
0.0013334
0.108777
0.0259529
0.00800699
0.00301912
0.00133018
0.000661687
0.000362384
0.000214714
0.000136122
9.18024e-05
6.57533e-05
5.00912e-05
4.07489e-05
3.56018e-05
3.3615e-05
3.44575e-05
3.79753e-05
4.41127e-05
5.29705e-05
6.46973e-05
7.94407e-05
9.73191e-05
0.000118407
0.000142724
0.000170217
0.000200731
0.000233964
0.000269415
0.00030633
0.000343673
0.000380103
0.000413987
0.000443527
0.000467701
0.000502153
0.000547152
0.000601286
0.00066221
0.000726873
0.000791863
0.000853777
0.000909561
0.000956762
0.000993671
0.00101935
0.00103361
0.00103684
0.00102994
0.00101412
0.000990779
0.000961401
0.000927433
0.000890237
0.000851047
0.000810938
0.000770826
0.000731469
0.000693482
0.000657347
0.000623437
0.000592032
0.000563338
0.000537504
0.000514634
0.000494807
0.000478087
0.000464536
0.000454223
0.000447244
0.000443727
0.00044385
0.000447863
0.000456107
0.00046905
0.000487368
0.000511899
0.000544304
0.000584897
0.000641988
0.000708706
0.108777
0.0259526
0.00800723
0.0030196
0.00133044
0.000661488
0.00036158
0.000213189
0.000133768
8.85283e-05
6.14759e-05
4.47086e-05
3.40889e-05
2.73565e-05
2.32522e-05
2.10943e-05
2.05082e-05
2.1189e-05
2.29659e-05
2.57442e-05
2.94569e-05
3.40365e-05
3.93973e-05
4.54266e-05
5.19783e-05
5.88673e-05
6.58633e-05
7.2686e-05
7.90033e-05
8.44355e-05
8.85681e-05
9.0973e-05
9.12456e-05
8.907e-05
8.63244e-05
8.42575e-05
8.30426e-05
8.28393e-05
8.377e-05
8.58952e-05
8.91946e-05
9.35586e-05
9.87919e-05
0.00010463
0.000110763
0.000116866
0.000122629
0.000127775
0.000132089
0.000135418
0.000137679
0.000138855
0.000138987
0.000138162
0.000136505
0.000134162
0.000131294
0.000128065
0.000124637
0.000121163
0.000117786
0.000114636
0.000111833
0.000109487
0.000107702
0.000106579
0.000106223
0.000106747
0.000108281
0.00011098
0.000115035
0.000120692
0.000128269
0.000138184
0.000151015
0.000167504
0.000188925
0.000216169
0.000254277
0.000302845
0.108778
0.0259511
0.0080063
0.00301938
0.00133045
0.000661455
0.000361393
0.000212774
0.00013306
8.74652e-05
5.99969e-05
4.275e-05
3.15722e-05
2.41704e-05
1.92279e-05
1.59698e-05
1.39784e-05
1.28876e-05
1.24549e-05
1.25287e-05
1.30063e-05
1.38097e-05
1.48714e-05
1.61262e-05
1.75061e-05
1.8938e-05
2.0342e-05
2.16314e-05
2.27151e-05
2.35018e-05
2.39069e-05
2.38618e-05
2.33254e-05
2.22971e-05
2.11466e-05
2.00136e-05
1.89019e-05
1.78171e-05
1.67664e-05
1.57582e-05
1.48017e-05
1.39061e-05
1.30802e-05
1.23316e-05
1.16659e-05
1.10859e-05
1.05914e-05
1.0179e-05
9.84237e-06
9.57288e-06
9.36061e-06
9.19537e-06
9.06778e-06
8.97032e-06
8.89818e-06
8.84985e-06
8.82752e-06
8.83717e-06
8.88848e-06
8.99455e-06
9.17141e-06
9.43757e-06
9.81336e-06
1.03205e-05
1.09815e-05
1.18199e-05
1.28605e-05
1.41303e-05
1.56612e-05
1.74925e-05
1.96771e-05
2.22892e-05
2.54359e-05
2.92752e-05
3.40477e-05
4.0105e-05
4.80587e-05
5.85752e-05
7.40339e-05
9.55792e-05
0.108778
0.0259485
0.00800435
0.00301855
0.00133012
0.000661298
0.00036127
0.00021262
0.000132829
8.71192e-05
5.95006e-05
4.20678e-05
3.06657e-05
2.29935e-05
1.77204e-05
1.40489e-05
1.15602e-05
9.87897e-06
8.74933e-06
8.00943e-06
7.55189e-06
7.30153e-06
7.20242e-06
7.2102e-06
7.28745e-06
7.40099e-06
7.52034e-06
7.61715e-06
7.66548e-06
7.64275e-06
7.53119e-06
7.31971e-06
7.00545e-06
6.59451e-06
6.18273e-06
5.78668e-06
5.40567e-06
5.0394e-06
4.68783e-06
4.35113e-06
4.0296e-06
3.72359e-06
3.43344e-06
3.15946e-06
2.90194e-06
2.66113e-06
2.43729e-06
2.23084e-06
2.04248e-06
1.87343e-06
1.72578e-06
1.60287e-06
1.50971e-06
1.45346e-06
1.44386e-06
1.49357e-06
1.61833e-06
1.83695e-06
2.17102e-06
2.64446e-06
3.28279e-06
4.11208e-06
5.15775e-06
6.4433e-06
7.98915e-06
9.81177e-06
1.19234e-05
1.43323e-05
1.70439e-05
2.00622e-05
2.33926e-05
2.70437e-05
3.10305e-05
3.53758e-05
4.01098e-05
4.52551e-05
5.08408e-05
5.6652e-05
6.29968e-05
6.78757e-05
0.108779
0.0259443
0.00800144
0.00301718
0.00132947
0.00066096
0.00036107
0.000212479
0.000132703
8.69775e-05
5.93202e-05
4.18279e-05
3.03461e-05
2.25731e-05
1.71752e-05
1.33496e-05
1.06812e-05
8.79543e-06
7.43549e-06
6.43964e-06
5.702e-06
5.15065e-06
4.7349e-06
4.41777e-06
4.17135e-06
3.97394e-06
3.80822e-06
3.6602e-06
3.51861e-06
3.37471e-06
3.22223e-06
3.05743e-06
2.8791e-06
2.68723e-06
2.50819e-06
2.34064e-06
2.1835e-06
2.03596e-06
1.89734e-06
1.76711e-06
1.64486e-06
1.53025e-06
1.4231e-06
1.32336e-06
1.23131e-06
1.14769e-06
1.07406e-06
1.01318e-06
9.69606e-07
9.50364e-07
9.65767e-07
1.03025e-06
1.16322e-06
1.38976e-06
1.74126e-06
2.25568e-06
2.97754e-06
3.95714e-06
5.24928e-06
6.91132e-06
9.0009e-06
1.15735e-05
1.46805e-05
1.83668e-05
2.26709e-05
2.76241e-05
3.32519e-05
3.95765e-05
4.66187e-05
5.44017e-05
6.29536e-05
7.23097e-05
8.25119e-05
9.36047e-05
0.00010562
0.000118533
0.000132222
0.000146001
0.000159442
0.000167339
0.108779
0.0259385
0.00799753
0.00301527
0.00132852
0.000660441
0.000360765
0.000212285
0.000132569
8.68731e-05
5.92244e-05
4.17254e-05
3.02242e-05
2.24202e-05
1.69803e-05
1.31008e-05
1.03694e-05
8.41307e-06
6.97559e-06
5.89628e-06
5.07059e-06
4.42831e-06
3.92087e-06
3.51383e-06
3.18214e-06
2.9072e-06
2.67499e-06
2.47477e-06
2.29832e-06
2.13936e-06
1.99324e-06
1.85663e-06
1.72736e-06
1.60474e-06
1.49343e-06
1.39194e-06
1.29906e-06
1.21381e-06
1.13538e-06
1.06319e-06
9.96892e-07
9.36543e-07
8.82825e-07
8.37465e-07
8.03832e-07
7.87777e-07
7.98698e-07
8.50851e-07
9.64825e-07
1.16914e-06
1.5019e-06
2.01239e-06
2.7624e-06
3.82693e-06
5.29398e-06
7.26339e-06
9.84469e-06
1.31542e-05
1.73113e-05
2.24352e-05
2.86412e-05
3.60377e-05
4.47242e-05
5.47892e-05
6.63089e-05
7.93444e-05
9.39396e-05
0.000110118
0.000127877
0.000147186
0.000167984
0.000190174
0.000213623
0.000238161
0.00026356
0.000289491
0.000315511
0.000340293
0.000363265
0.000375967
0.108779
0.0259308
0.00799259
0.00301283
0.00132726
0.000659741
0.000360353
0.000212029
0.000132401
8.67572e-05
5.91386e-05
4.16554e-05
3.01596e-05
2.2353e-05
1.69038e-05
1.30092e-05
1.02584e-05
8.27938e-06
6.81689e-06
5.7109e-06
4.85755e-06
4.18738e-06
3.65264e-06
3.21969e-06
2.86437e-06
2.56894e-06
2.3202e-06
2.10817e-06
1.92525e-06
1.76558e-06
1.62468e-06
1.49909e-06
1.38619e-06
1.28444e-06
1.1935e-06
1.11184e-06
1.03828e-06
9.72003e-07
9.12733e-07
8.61083e-07
8.19171e-07
7.91551e-07
7.86533e-07
8.17902e-07
9.07034e-07
1.08534e-06
1.39699e-06
1.90192e-06
2.6788e-06
3.82775e-06
5.4721e-06
7.75896e-06
1.08586e-05
1.4962e-05
2.02782e-05
2.70289e-05
3.54441e-05
4.5756e-05
5.81921e-05
7.2967e-05
9.0271e-05
0.000110256
0.000133015
0.000158565
0.000186824
0.000217595
0.000250562
0.000285297
0.000321278
0.000357927
0.000394653
0.000430896
0.000466167
0.000500073
0.000532331
0.000562661
0.000590973
0.000615741
0.000637989
0.000646644
0.108779
0.025921
0.00798666
0.00300984
0.00132569
0.000658865
0.000359839
0.000211712
0.000132197
8.66197e-05
5.90427e-05
4.15855e-05
3.01055e-05
2.23078e-05
1.68623e-05
1.29674e-05
1.02134e-05
8.22912e-06
6.76002e-06
5.64655e-06
4.78528e-06
4.10709e-06
3.56456e-06
3.12437e-06
2.76262e-06
2.46184e-06
2.20904e-06
1.99445e-06
1.81056e-06
1.65163e-06
1.51314e-06
1.39157e-06
1.28414e-06
1.18888e-06
1.10443e-06
1.02993e-06
9.66049e-07
9.16034e-07
8.8751e-07
8.94876e-07
9.62377e-07
1.12772e-06
1.4461e-06
1.99472e-06
2.87754e-06
4.22999e-06
6.22272e-06
9.06385e-06
1.29997e-05
1.83134e-05
2.5322e-05
3.43715e-05
4.58299e-05
6.00781e-05
7.74962e-05
9.8446e-05
0.000123244
0.000152129
0.000185217
0.000222464
0.000263623
0.000308227
0.000355588
0.000404834
0.00045497
0.000504956
0.000553802
0.000600642
0.00064479
0.000685777
0.000723352
0.000757461
0.000788222
0.000815865
0.000840739
0.00086304
0.000883398
0.000899928
0.000915923
0.000914138
0.108779
0.0259093
0.00797987
0.00300638
0.00132383
0.00065783
0.000359235
0.000211342
0.00013196
8.64618e-05
5.89336e-05
4.15077e-05
3.00483e-05
2.22642e-05
1.68275e-05
1.29381e-05
1.01869e-05
8.20385e-06
6.73473e-06
5.62047e-06
4.75791e-06
4.07817e-06
3.53401e-06
3.09226e-06
2.72912e-06
2.42722e-06
2.17367e-06
1.95873e-06
1.77495e-06
1.61659e-06
1.47915e-06
1.35907e-06
1.25382e-06
1.16481e-06
1.09951e-06
1.07604e-06
1.12863e-06
1.31378e-06
1.71653e-06
2.45689e-06
3.69659e-06
5.64488e-06
8.56276e-06
1.27645e-05
1.86166e-05
2.6534e-05
3.69737e-05
5.04256e-05
6.7399e-05
8.84049e-05
0.000113929
0.000144399
0.000180133
0.000221291
0.000267817
0.00031939
0.000375401
0.00043496
0.000496948
0.000560098
0.000623102
0.000684723
0.000743883
0.000799724
0.000851628
0.000899206
0.000942272
0.000980803
0.0010149
0.00104477
0.00107071
0.00109306
0.00111226
0.00112876
0.00114313
0.00115564
0.00116741
0.0011758
0.00118668
0.00117444
0.108778
0.0258958
0.00797249
0.00300259
0.00132178
0.000656678
0.000358562
0.000210931
0.000131698
8.62874e-05
5.88133e-05
4.1422e-05
2.99855e-05
2.22171e-05
1.67914e-05
1.29096e-05
1.01637e-05
8.18427e-06
6.71765e-06
5.60513e-06
4.74384e-06
4.0651e-06
3.52185e-06
3.08111e-06
2.71932e-06
2.41938e-06
2.16877e-06
1.95835e-06
1.78163e-06
1.63444e-06
1.51497e-06
1.42507e-06
1.46234e-06
1.78107e-06
2.5694e-06
4.08404e-06
6.65449e-06
1.0683e-05
1.66388e-05
2.50472e-05
3.64755e-05
5.15146e-05
7.07588e-05
9.47816e-05
0.000124105
0.000159164
0.000200262
0.000247522
0.00030084
0.000359847
0.000423891
0.000492048
0.000563178
0.000636002
0.000709212
0.000781573
0.000852014
0.000919677
0.000983928
0.00104433
0.0011006
0.00115255
0.00120007
0.00124305
0.00128145
0.00131526
0.00134453
0.0013694
0.0013901
0.00140696
0.00142041
0.00143096
0.00143922
0.0014458
0.00145146
0.00145655
0.00146264
0.00146619
0.00147595
0.00145575
0.108778
0.0258813
0.00796505
0.00299877
0.0013197
0.000655498
0.000357863
0.000210499
0.000131418
8.61004e-05
5.86841e-05
4.13309e-05
2.99209e-05
2.21725e-05
1.67639e-05
1.28995e-05
1.01737e-05
8.22032e-06
6.79057e-06
5.73262e-06
4.95411e-06
4.40225e-06
4.05347e-06
3.90884e-06
3.99294e-06
4.35518e-06
5.07331e-06
6.25888e-06
8.06494e-06
1.06964e-05
1.44226e-05
1.99677e-05
2.92146e-05
4.2784e-05
6.13742e-05
8.56161e-05
0.000116042
0.000153043
0.000196834
0.000247421
0.000304581
0.000367842
0.000436493
0.000509601
0.000586057
0.00066464
0.000744106
0.000823283
0.000901159
0.000976946
0.00105011
0.00112037
0.00118762
0.0012519
0.00131327
0.00137178
0.00142739
0.00147998
0.00152932
0.00157512
0.00161707
0.00165488
0.0016883
0.00171718
0.00174147
0.00176127
0.00177678
0.00178834
0.00179642
0.00180158
0.00180448
0.00180588
0.00180657
0.00180736
0.00180925
0.00181263
0.00181961
0.0018254
0.00184234
0.00181925
0.108779
0.0258673
0.00795866
0.00299561
0.001318
0.000654534
0.000357299
0.00021018
0.000131281
8.61323e-05
5.89222e-05
4.18696e-05
3.09423e-05
2.39984e-05
1.99368e-05
1.82952e-05
1.89234e-05
2.17417e-05
2.68406e-05
3.44276e-05
4.47885e-05
5.82641e-05
7.52347e-05
9.61068e-05
0.000121302
0.000151247
0.000186367
0.000227077
0.000273772
0.000326822
0.000386538
0.000453157
0.000528375
0.000610288
0.000696936
0.000786236
0.000876171
0.000964914
0.00105094
0.00113311
0.00121073
0.00128352
0.00135161
0.00141546
0.00147575
0.00153324
0.00158871
0.00164281
0.00169604
0.00174872
0.00180092
0.00185257
0.00190339
0.00195302
0.002001
0.00204682
0.00208995
0.00212989
0.00216617
0.0021984
0.00222628
0.00224961
0.00226834
0.00228257
0.00229255
0.00229867
0.0023015
0.00230172
0.00230015
0.00229768
0.0022953
0.00229406
0.00229508
0.00229945
0.00230855
0.0023229
0.00234549
0.00236956
0.00241316
0.00240087
0.108784
0.0258584
0.00795794
0.00299735
0.0013211
0.000659249
0.00036475
0.000222581
0.000152465
0.000122139
0.000118338
0.0001357
0.000172107
0.000226721
0.000299154
0.000389017
0.000490377
0.000599429
0.000714007
0.000832247
0.000952491
0.00107321
0.00119296
0.00131036
0.0014241
0.00153298
0.00163599
0.00173232
0.00182141
0.00190298
0.00197703
0.00204316
0.00210046
0.00214987
0.00219207
0.00222835
0.0022604
0.00228998
0.00231866
0.0023477
0.002378
0.00241012
0.00244432
0.00248066
0.00251901
0.00255915
0.00260079
0.00264354
0.00268701
0.00273072
0.00277415
0.00281675
0.00285789
0.00289696
0.00293332
0.00296636
0.00299555
0.00302045
0.00304076
0.00305634
0.00306723
0.00307366
0.00307609
0.00307512
0.00307158
0.00306642
0.00306078
0.00305589
0.00305311
0.00305389
0.00305978
0.00307243
0.00309365
0.00312527
0.00316966
0.00322801
0.00330566
0.00339254
0.00351861
0.00356951
0.108961
0.0260631
0.00818882
0.00326325
0.00165347
0.00110663
0.000997182
0.00112625
0.00141237
0.00180154
0.00224497
0.00269926
0.00313054
0.00351602
0.00384243
0.00410322
0.00428695
0.00440355
0.0044676
0.00449192
0.00448732
0.00446265
0.0044251
0.00438029
0.00433258
0.00428518
0.00424036
0.00419963
0.00416386
0.00413351
0.00410873
0.00408951
0.00407363
0.0040606
0.00405016
0.00404315
0.00404061
0.00404323
0.00405133
0.0040649
0.00408374
0.00410748
0.00413559
0.00416745
0.00420231
0.00423937
0.00427776
0.00431654
0.00435476
0.00439146
0.00442572
0.00445666
0.0044835
0.00450557
0.00452237
0.00453359
0.00453914
0.00453919
0.00453417
0.00452477
0.00451198
0.00449701
0.00448133
0.00446661
0.00445474
0.00444773
0.00444782
0.00445743
0.00447918
0.00451589
0.00457075
0.00464729
0.0047497
0.00488258
0.00505216
0.00526313
0.00552916
0.00583697
0.00624539
0.00661994
0.117483
0.0358362
0.017474
0.0123558
0.0112241
0.0116233
0.0127032
0.0139642
0.0150214
0.0156378
0.0157561
0.015458
0.0148853
0.0141763
0.0134333
0.0127188
0.0120662
0.0114935
0.0109985
0.0105698
0.0101953
0.00986515
0.00957194
0.0093103
0.00907637
0.00886734
0.008681
0.00851552
0.00836926
0.00824066
0.00812849
0.00803044
0.00795033
0.00789437
0.00786235
0.00785142
0.00785785
0.007878
0.00790855
0.00794661
0.00798993
0.00803645
0.00808421
0.00813139
0.00817628
0.00821732
0.00825304
0.00828209
0.00830329
0.00831563
0.00831835
0.00831099
0.00829343
0.00826594
0.00822922
0.00818443
0.00813321
0.00807763
0.00802023
0.00796396
0.00791215
0.00786849
0.00783698
0.00782199
0.00782819
0.00786053
0.00792468
0.00802709
0.00817503
0.00837691
0.00864269
0.00898444
0.00941713
0.0099587
0.0106336
0.0114647
0.0125055
0.0137561
0.0154076
0.0176444
0.223501
0.161833
0.121109
0.0944873
0.0764557
0.0640462
0.0554294
0.0494361
0.0452119
0.0420863
0.0395701
0.0373625
0.0353195
0.033397
0.0315968
0.0299311
0.0284449
0.0271527
0.0260325
0.0250582
0.0242073
0.023461
0.0228043
0.0222252
0.021714
0.0212627
0.0208645
0.0205134
0.0202037
0.0199304
0.0196882
0.0194732
0.0192754
0.0190849
0.0188988
0.0187171
0.0185404
0.0183687
0.0182017
0.0180387
0.0178787
0.0177213
0.017566
0.0174125
0.0172607
0.0171108
0.0169633
0.0168188
0.0166783
0.0165431
0.016415
0.0162959
0.0161885
0.0160959
0.0160216
0.0159697
0.0159452
0.0159535
0.0160009
0.0160946
0.0162428
0.0164551
0.0167426
0.0171179
0.0175965
0.0181964
0.0189395
0.0198524
0.0209681
0.0223275
0.0239818
0.0259964
0.028454
0.0314669
0.0351654
0.0397921
0.0454495
0.053103
0.0613949
0.0762808
)
;

boundaryField
{
    inlet
    {
        type            fixedValue;
        value           uniform 0.63;
    }
    outlet
    {
        type            zeroGradient;
    }
    fixedWalls
    {
        lowReCorrection 0;
        type            epsilonWallFunction;
        value           nonuniform List<scalar> 
160
(
0.223501
0.161833
0.121109
0.0944873
0.0764557
0.0640462
0.0554294
0.0494361
0.0452119
0.0420863
0.0395701
0.0373625
0.0353195
0.033397
0.0315968
0.0299311
0.0284449
0.0271527
0.0260325
0.0250582
0.0242073
0.023461
0.0228043
0.0222252
0.021714
0.0212627
0.0208645
0.0205134
0.0202037
0.0199304
0.0196882
0.0194732
0.0192754
0.0190849
0.0188988
0.0187171
0.0185404
0.0183687
0.0182017
0.0180387
0.0178787
0.0177213
0.017566
0.0174125
0.0172607
0.0171108
0.0169633
0.0168188
0.0166783
0.0165431
0.016415
0.0162959
0.0161885
0.0160959
0.0160216
0.0159697
0.0159452
0.0159535
0.0160009
0.0160946
0.0162428
0.0164551
0.0167426
0.0171179
0.0175965
0.0181964
0.0189395
0.0198524
0.0209681
0.0223275
0.0239818
0.0259964
0.028454
0.0314669
0.0351654
0.0397921
0.0454495
0.053103
0.0613949
0.0762808
0.0135126
0.0111845
0.00819021
0.00480134
0.00122143
0.000121634
9.66128e-05
0.000112652
0.000114446
8.6278e-05
5.13031e-05
3.39665e-05
3.80203e-05
4.28188e-05
4.86597e-05
5.76501e-05
7.03244e-05
8.63658e-05
0.000106076
0.000130332
0.000160295
0.000197341
0.000243005
0.000298885
0.000366483
0.000447021
0.000541272
0.000649463
0.000771258
0.00090582
0.00105193
0.00120811
0.0013728
0.00154449
0.00172192
0.00190429
0.00209145
0.00228431
0.00248519
0.00269881
0.00292295
0.0031508
0.00338286
0.00362009
0.00386296
0.0041114
0.00436502
0.00462317
0.00488503
0.00514966
0.00541606
0.00568324
0.00595018
0.00621583
0.00647707
0.00673331
0.00698434
0.00723052
0.00747414
0.00772436
0.00801242
0.00832631
0.00865446
0.00899149
0.00933654
0.00969063
0.0100558
0.0104351
0.0108322
0.0112518
0.0116997
0.0121831
0.012711
0.0132951
0.0139508
0.0146995
0.0155743
0.0166259
0.0179359
0.0199021
)
;
    }
    frontAndBack
    {
        type            empty;
    }
}


// ************************************************************************* //
