/*--------------------------------*- C++ -*----------------------------------*\
| =========                 |                                                 |
| \\      /  F ield         | OpenFOAM: The Open Source CFD Toolbox           |
|  \\    /   O peration     | Version:  v1912                                 |
|   \\  /    A nd           | Website:  www.openfoam.com                      |
|    \\/     M anipulation  |                                                 |
\*---------------------------------------------------------------------------*/
FoamFile
{
    version     2.0;
    format      ascii;
    class       volScalarField;
    location    "30";
    object      epsilon;
}
// * * * * * * * * * * * * * * * * * * * * * * * * * * * * * * * * * * * * * //

dimensions      [0 2 -3 0 0 0 0];


internalField   nonuniform List<scalar> 
12441
(
0.0102705
0.00844233
0.0075751
0.00696365
0.0064239
0.00604239
0.00572371
0.00538345
0.0051575
0.00495628
0.00476313
0.00457453
0.00445273
0.00428667
0.00417972
0.00409485
0.0036909
0.0106258
0.19737
2.50531
20.9484
39.25
0.0100896
0.00758642
0.00678589
0.00624941
0.00576421
0.00544594
0.0051636
0.00486262
0.00465767
0.00444902
0.0042812
0.00411275
0.00401467
0.00388564
0.00380512
0.00374009
0.00359441
0.0116968
0.206039
2.58842
21.2987
40.2318
0.00986988
0.00686303
0.0061641
0.00568772
0.00525515
0.00495816
0.00471759
0.00444655
0.0042441
0.00403084
0.00387921
0.00373216
0.00365039
0.00353181
0.00346963
0.00341687
0.00324518
0.0108374
0.179453
2.56654
21.6973
41.3784
0.00964863
0.00622333
0.00557607
0.00514524
0.00475308
0.00449524
0.00426672
0.00403037
0.00383024
0.00360771
0.00347169
0.00333956
0.00327348
0.00319202
0.0031491
0.00310921
0.00306433
0.0093093
0.143834
2.51414
22.0576
42.5504
0.00940611
0.00573016
0.00515666
0.00476408
0.00440519
0.00415542
0.00395998
0.00373877
0.00353654
0.0033159
0.00318959
0.0030718
0.00301186
0.00292771
0.00289197
0.00285851
0.00284689
0.00838918
0.124139
2.47759
22.3979
43.6698
0.00920221
0.00524506
0.00470427
0.00434558
0.00401695
0.00380046
0.00360881
0.00341632
0.00321339
0.00298752
0.00287368
0.00276718
0.00272077
0.0026689
0.00264821
0.00262428
0.0026696
0.00962726
0.144079
2.54322
22.819
44.7472
0.00898271
0.00493053
0.00443923
0.00410175
0.00379066
0.00357214
0.00340436
0.00321573
0.00300823
0.00278818
0.00268017
0.00258287
0.00253583
0.00247285
0.00245592
0.00244478
0.00470793
0.020182
0.249906
2.80991
23.4356
45.7945
0.00880603
0.00452493
0.00406441
0.00375859
0.00347628
0.00328968
0.00312429
0.00296237
0.0027523
0.00252932
0.00243194
0.00234414
0.00231055
0.00227871
0.00229802
0.00355884
0.0397498
0.0866815
0.577025
3.41789
24.3679
46.8732
0.00861242
0.00434619
0.00391207
0.00361145
0.00333415
0.00313874
0.00298958
0.002824
0.00260804
0.00239293
0.00229881
0.0022165
0.0021797
0.00211821
0.00353301
0.0288695
0.232249
0.372245
1.36724
4.54052
25.7365
48.0153
0.00845962
0.00397106
0.00357646
0.00331202
0.00306611
0.00290279
0.00275759
0.00261847
0.00239926
0.00218277
0.00209829
0.00202511
0.00200638
0.00224402
0.0237182
0.184331
0.81464
1.14716
2.85348
6.31758
27.6344
49.2846
0.00829036
0.0039052
0.00351097
0.00323611
0.00298295
0.00280443
0.002669
0.00252042
0.0022954
0.00208745
0.0020045
0.00193522
0.00191647
0.00741566
0.127731
0.64654
2.0319
2.67455
5.10698
8.77879
30.0955
50.6975
0.00815718
0.00353329
0.00319479
0.00296404
0.00274734
0.00260233
0.00247271
0.00235076
0.00212247
0.00191418
0.00183997
0.00178126
0.00208127
0.049177
0.448947
1.58085
3.93567
5.00205
7.98884
11.8249
33.0878
52.295
0.0080078
0.0035625
0.00319705
0.00294003
0.00270565
0.00254069
0.00241578
0.00228057
0.00204719
0.00184766
0.00177393
0.00169419
0.0069045
0.209166
1.12426
3.00068
6.35906
7.92234
11.238
15.2726
36.5204
54.0597
0.00788893
0.00317636
0.00288759
0.00268524
0.00249306
0.00236291
0.00224606
0.0021377
0.00190172
0.0017029
0.00163709
0.00157772
0.0441094
0.585344
2.13412
4.72803
8.9967
11.0924
14.5791
18.9156
40.2715
56.0037
0.00775704
0.00328889
0.00294381
0.00270018
0.00248021
0.00232593
0.00220965
0.00208528
0.00184516
0.00165462
0.00158852
0.00223069
0.163518
1.19899
3.35165
6.56364
11.5684
14.195
17.7825
22.5612
44.2057
58.0812
0.00764999
0.00288129
0.00263633
0.00245815
0.00228633
0.00216819
0.00206163
0.00196394
0.00172216
0.00153273
0.00147402
0.00887326
0.421431
1.97788
4.62574
8.33566
13.8682
17.0041
20.6723
26.046
48.1968
60.2902
0.00753323
0.00306649
0.00273611
0.00250194
0.00229417
0.00214897
0.00203971
0.00192442
0.00168032
0.00149745
0.00143871
0.0416902
0.811546
2.81904
5.84598
9.91423
15.7647
19.3807
23.1171
29.2363
52.1317
62.571
0.00743388
0.00263167
0.00242633
0.00226915
0.00211492
0.00200692
0.00190905
0.00182012
0.00157573
0.00139332
0.00134669
0.130197
1.29263
3.63901
6.93674
11.2124
17.1872
21.2432
25.0161
32.0284
55.9236
64.9213
0.00733025
0.0028819
0.00256192
0.00233517
0.00213718
0.00199955
0.00189645
0.00178897
0.00154398
0.001366
0.00135901
0.285073
1.80018
4.3858
7.84691
12.1803
18.1084
22.5417
26.2959
34.3474
59.5063
67.2818
0.0072378
0.00241811
0.00224829
0.00210965
0.00197039
0.00187091
0.00178034
0.00169854
0.00145418
0.00127511
0.00217124
0.498953
2.29456
5.03166
8.54735
12.8007
18.5301
23.2389
26.9161
36.1529
62.8441
69.6617
0.00714631
0.00272703
0.00241424
0.00219259
0.00200324
0.00187229
0.00177446
0.00167371
0.00142936
0.00125368
0.010213
0.752948
2.75322
5.55933
9.02608
13.0795
18.4711
23.3064
26.8847
37.4395
65.9221
72.0102
0.00705785
0.00223334
0.00209567
0.00197336
0.00184716
0.00175499
0.00167069
0.00159478
0.00135078
0.00117676
0.0395643
1.02799
3.16297
5.96257
9.28737
13.0403
17.9606
22.7374
26.2706
38.2401
68.7551
74.3523
0.00697714
0.00259319
0.00228594
0.00206887
0.00188681
0.00176175
0.00166874
0.00157394
0.00132969
0.00116922
0.098828
1.30791
3.51743
6.24011
9.34641
12.7177
17.0394
21.5766
25.2042
38.6175
71.3748
76.6493
0.00689298
0.00207412
0.00196438
0.0018563
0.00174103
0.001655
0.00157592
0.00150482
0.0012604
0.00112998
0.189064
1.58153
3.81132
6.39952
9.22748
12.1554
15.7675
19.9458
23.8545
38.6574
73.8382
78.9445
0.00682309
0.0024767
0.00217394
0.00196033
0.00178526
0.00166555
0.00157678
0.00148715
0.00124317
0.00118206
0.30333
1.84095
4.04457
6.45163
8.95959
11.4046
14.2358
18.0362
22.3935
38.4511
76.2126
81.212
0.00673986
0.00193567
0.00185041
0.00175459
0.00164881
0.00156805
0.00149346
0.00142633
0.00118246
0.00131673
0.434182
2.08068
4.21791
6.41306
8.57586
10.5235
12.5666
16.0589
20.9623
38.0876
78.5837
83.5114
0.006679
0.00237306
0.00207471
0.00186454
0.00169551
0.00158062
0.00149579
0.0014107
0.00116935
0.00223576
0.575254
2.29719
4.33682
6.30092
8.11063
9.57449
10.8958
14.1883
19.6561
37.642
81.0395
85.8273
0.00659776
0.00181432
0.00175027
0.0016654
0.00156767
0.00149144
0.00142067
0.00135685
0.00111738
0.00572005
0.722467
2.48853
4.40696
6.13487
7.59888
8.61931
9.34188
12.5314
18.5246
37.1753
83.6791
88.2307
0.00654623
0.00228135
0.00198679
0.0017792
0.00161596
0.00150547
0.00142412
0.00134302
0.0011107
0.0136708
0.873047
2.65432
4.43726
5.93277
7.07305
7.71103
7.98238
11.1311
17.5832
36.731
86.5949
90.7106
0.00646476
0.00170722
0.00166173
0.00158652
0.00149585
0.0014236
0.00135613
0.00129516
0.00107218
0.0293354
1.02507
2.79541
4.43556
5.71255
6.5618
6.88908
6.84944
9.98589
16.8258
36.3399
89.8826
93.3406
0.00642058
0.00219794
0.00190756
0.00170285
0.00154459
0.00143813
0.00136005
0.00128251
0.00107724
0.0560947
1.17705
2.91379
4.41132
5.48875
6.08741
6.17651
5.94054
9.07135
16.2354
36.02
93.6238
96.1058
0.00634074
0.00161318
0.00158327
0.00151664
0.00143188
0.00136305
0.00129845
0.00123988
0.00105884
0.0971261
1.32797
3.01213
4.37186
5.27444
5.66574
5.58232
5.23384
8.35502
15.7908
35.7824
97.8982
99.0732
0.006305
0.00212159
0.00183561
0.0016335
0.0014804
0.00137763
0.00130254
0.00122846
0.0010805
0.15541
1.47719
3.09353
4.32491
5.07862
5.30593
5.10491
4.70043
7.80481
15.4709
35.6317
102.771
102.217
0.00622323
0.00153859
0.0015189
0.00145771
0.00137678
0.00131045
0.00124798
0.00119122
0.00109148
0.233975
1.62447
3.16103
4.27554
4.90842
5.01192
4.73668
4.31183
7.39282
15.2566
35.5708
108.305
105.592
0.00619423
0.00200098
0.00173793
0.00155098
0.00141031
0.00131404
0.0012441
0.00117526
0.00117868
0.336131
1.76973
3.21748
4.22864
4.76724
4.78342
4.46715
4.04336
7.09631
15.1317
35.6001
114.557
109.157
0.0061101
0.00163204
0.0015582
0.00146014
0.00135731
0.00128415
0.00121686
0.001156
0.00179885
0.465741
1.91292
3.26516
4.18639
4.65706
4.61757
4.28536
3.87512
6.89761
15.0835
35.7209
121.582
112.957
0.00608436
0.00164865
0.00151761
0.00141232
0.00131831
0.00123957
0.00118202
0.00112375
0.00855941
0.626799
2.05368
3.30582
4.15066
4.57691
4.50956
4.18077
3.7916
6.78318
15.1026
35.9327
129.424
116.938
0.00599534
0.00194772
0.00170302
0.00150419
0.00135259
0.00126484
0.00118901
0.00112307
0.0556052
0.822376
2.19117
3.3405
4.12088
4.525
4.45351
4.14379
3.7808
6.74279
15.1828
36.2357
138.12
121.137
0.0059647
0.00118978
0.00126308
0.00127359
0.00123441
0.00117395
0.0011277
0.00107977
0.182604
1.04997
2.32383
3.36971
4.0964
4.49726
4.4425
4.16535
3.83312
6.76833
15.3214
36.6282
147.662
125.495
0.0058629
0.00241307
0.0019382
0.00159878
0.00137884
0.00126985
0.00118076
0.00111762
0.370146
1.29894
2.44958
3.39344
4.07457
4.48917
4.46877
4.23662
3.94026
6.85288
15.5191
37.1105
157.981
130.045
0.00581871
0.000199993
0.000708557
0.000990021
0.00108568
0.00107311
0.00105588
0.00121254
0.584308
1.55513
2.56615
3.41143
4.05305
4.49444
4.52337
4.34819
4.09413
6.98963
15.7801
37.6857
168.901
134.727
0.00569855
0.00229625
0.001704
0.00135938
0.00118763
0.00111089
0.0010528
0.0043066
0.808557
1.80639
2.67169
3.42319
4.02785
4.50685
4.59647
4.48973
4.28592
7.17119
16.1123
38.3693
180.158
139.588
0.00561311
0.000223525
0.000227045
0.000636975
0.000820993
0.000854373
0.000872672
0.0196267
1.03312
2.04341
2.76515
3.42819
3.99587
4.51903
4.67719
4.64947
4.50537
7.38935
16.529
39.1994
191.513
144.654
0.00525272
0.00165891
0.00110094
0.000851367
0.000784956
0.00076071
0.000751429
0.050694
1.25176
2.25972
2.84643
3.4258
3.95284
4.52503
4.75494
4.81455
4.7403
7.63506
17.0494
40.2584
203.227
150.447
95.0235
93.1255
45.5092
14.1026
24.6879
22.1967
21.8544
20.4167
19.3112
19.613
20.4338
20.5332
20.4264
21.8411
25.7051
31.7079
40.0246
50.4698
60.9122
64.8665
51.3825
26.9656
14.8603
10.1642
8.06713
7.2573
6.7938
6.3927
6.19372
6.45936
7.03695
7.36358
7.19128
6.18817
5.13663
94.6475
94.6119
45.1759
13.9384
25.2473
22.4517
22.3279
20.7051
19.5415
19.8097
20.2418
20.1219
19.9321
21.3455
25.1682
30.9896
39.049
49.2987
59.8354
64.4308
51.4036
26.782
14.7468
10.0995
8.02039
7.21769
6.76007
6.36533
6.17189
6.4431
7.02234
7.34793
7.17638
6.17533
5.12712
93.9266
95.8853
44.1647
13.6854
26.5616
23.0735
23.0806
21.0836
19.8059
20.0033
19.9321
19.4002
19.0388
20.444
24.1811
29.5916
36.9443
46.4064
56.25
60.3225
48.3023
25.8783
14.4757
9.96491
7.92682
7.13943
6.6937
6.31146
6.12885
6.41089
6.99331
7.31676
7.14668
6.14971
5.10815
92.8104
96.7996
42.8369
13.4757
28.7021
23.9598
23.6826
21.2697
19.9198
20.0309
19.5184
18.4881
17.8805
19.2439
22.901
27.8053
34.1718
42.46
51.2095
54.4098
43.7202
24.4844
14.0676
9.7664
7.79039
7.02598
6.59758
6.23324
6.06615
6.36364
6.95044
7.27055
7.10253
6.11153
5.07986
91.3035
97.4558
41.3422
13.3415
31.1683
24.6587
23.7529
21.0324
19.7205
19.7579
18.9476
17.4358
16.5398
17.8209
21.4284
25.8732
31.1555
38.0438
45.5267
47.9856
38.8228
22.827
13.5498
9.51192
7.61624
6.88174
6.47532
6.13339
5.98574
6.30251
6.89449
7.20987
7.04435
6.06108
5.04243
89.3553
97.9061
39.7301
13.2439
33.0585
24.6405
23.0881
20.2652
19.1263
19.1236
18.1404
16.237
15.0635
16.2316
19.8043
23.938
28.2567
33.7062
39.876
41.8414
34.2232
21.0806
12.9516
9.21087
7.41037
6.71173
6.33108
6.01504
5.88989
6.22886
6.82635
7.13543
6.97269
5.99872
4.9961
87.0012
98.1758
37.9543
13.1125
33.4285
23.6002
21.7242
19.0087
18.1513
18.1443
17.0468
14.8743
13.4899
14.531
18.0465
22.0287
25.6667
29.852
34.7615
36.4006
30.1672
19.3597
12.3015
8.87348
7.17931
6.52138
6.16932
5.88159
5.7811
6.14421
6.74703
7.04806
6.88818
5.92489
4.94116
84.2135
98.2706
35.8882
12.848
31.9305
21.6399
19.8807
17.4146
16.8876
16.8944
15.6847
13.3692
11.8737
12.7843
16.1901
20.1273
23.4028
26.6518
30.4582
31.8254
26.7052
17.731
11.6248
8.51024
6.9298
6.31622
5.9946
5.73654
5.66193
6.05016
6.65763
6.94864
6.79153
5.84009
4.87793
81.0699
98.2109
33.3726
12.3739
29.0176
19.1853
17.8509
15.6849
15.4716
15.4842
14.1431
11.7974
10.2889
11.0653
14.2976
18.2331
21.4008
24.075
27.0141
28.1056
23.7973
16.2282
10.9428
8.13136
6.66846
6.10165
5.81138
5.58333
5.53499
5.94834
6.5593
6.83815
6.68353
5.74489
4.80679
77.574
98.0329
30.3098
11.6801
25.5511
16.7228
15.9003
14.0108
14.0487
14.0382
12.5552
10.2678
8.8144
9.44777
12.4471
16.3768
19.5975
22.0002
24.3288
25.1372
21.3706
14.8644
10.273
7.74634
6.40157
5.88274
5.62384
5.42525
5.40275
5.84037
6.45318
6.71759
6.56503
5.63993
4.72816
73.8369
97.8107
26.7715
10.8415
22.2782
14.6006
14.2164
12.5395
12.7468
12.6758
11.0607
8.88687
7.51622
7.99495
10.7161
14.6083
17.9597
20.3021
22.2473
22.7835
19.3473
13.6411
9.62889
7.36361
6.13479
5.66406
5.43578
5.26531
5.26755
5.72778
6.34041
6.58799
6.43691
5.52589
4.6425
69.8857
97.6286
23.0353
9.99027
19.6129
12.9872
12.9058
11.3657
11.6627
11.4974
9.77574
7.73292
6.43717
6.75147
9.16853
12.9798
16.4796
18.8875
20.6231
20.9139
17.6575
12.5535
9.02014
6.99034
5.87305
5.44956
5.25048
5.10616
5.13147
5.612
6.22209
6.45039
6.30009
5.40352
4.55031
65.8489
97.5492
19.4966
9.26366
17.6982
11.931
12.0201
10.5441
10.8643
10.5794
8.77921
6.85005
5.59646
5.73948
7.84597
11.5336
15.163
17.6969
19.3419
19.4205
16.2431
11.5937
8.4534
6.63232
5.62044
5.24249
5.07069
4.95005
4.99633
5.49433
6.09924
6.30581
6.15549
5.27359
4.45211
61.7626
97.4812
16.5246
8.76369
16.5395
11.4318
11.5869
10.1099
10.401
9.97922
8.11915
6.25859
4.99771
4.96193
6.76658
10.2967
14.0196
16.6964
18.3237
18.222
15.0583
10.7524
7.93264
6.29395
5.38018
5.04543
4.89857
4.79883
4.86364
5.37588
5.97276
6.15523
6.00405
5.13689
4.34844
57.7502
96.9879
14.3645
8.5552
16.1083
11.4946
11.6375
10.0998
10.3194
9.74676
7.83083
5.97312
4.64144
4.41143
5.93049
9.28208
13.0581
15.8686
17.5162
17.2599
14.0678
10.02
7.4597
5.97833
5.15464
4.86027
4.73576
4.65388
4.73462
5.25759
5.84349
5.99958
5.84668
4.99425
4.23987
53.8399
95.0736
13.1214
8.68991
16.3996
12.162
12.2302
10.5732
10.6807
9.94142
7.95948
6.02257
4.53912
4.08147
5.32923
8.49366
12.2861
15.2072
16.8883
16.4944
13.2448
9.38735
7.03475
5.68744
4.94543
4.68826
4.58333
4.51621
4.61019
5.14019
5.71212
5.83972
5.68427
4.84649
4.12697
50.1273
90.6992
12.7523
9.22921
17.4622
13.537
13.4697
11.6319
11.5796
10.6514
8.58492
6.47178
4.72958
3.97881
4.95637
7.93369
11.713
14.7149
16.4244
15.8997
12.5688
8.84573
6.65683
5.42225
4.75347
4.53013
4.44191
4.38643
4.49096
5.02424
5.57922
5.67645
5.51766
4.69441
4.0103
46.6135
83.2053
13.2068
10.2679
19.4179
15.8025
15.5279
13.4413
13.1639
12.0151
9.84681
7.44746
5.30166
4.13878
4.81863
7.61055
11.3535
14.4038
16.1228
15.4615
12.0251
8.38736
6.32419
5.18298
4.57914
4.38611
4.31174
4.26482
4.3773
4.91011
5.44524
5.51045
5.34765
4.53881
3.89042
43.349
72.5993
14.5086
11.9597
22.4818
19.2422
18.6642
16.2506
15.6546
14.2419
11.9694
9.17103
6.42969
4.64908
4.94957
7.54809
11.2343
14.2973
15.9941
15.175
11.603
8.00543
6.03466
4.96928
4.42234
4.25607
4.19269
4.15136
4.26935
4.798
5.31051
5.34234
5.17498
4.38044
3.7679
40.3033
60.1047
16.754
14.5491
26.9858
24.2608
23.244
20.4077
19.3605
17.6266
15.2752
11.9927
8.42734
5.69283
5.431
7.79801
11.4007
14.4342
16.0637
15.0457
11.2965
7.6943
5.78586
4.78038
4.28265
4.13958
4.08435
4.0458
4.16706
4.68796
5.17525
5.17263
5.00033
4.22001
3.64325
37.4893
47.7754
20.0958
18.4132
33.4086
31.3971
29.7467
26.3567
24.6762
22.542
20.1657
16.3985
11.809
7.6259
6.43182
8.45935
11.928
14.8743
16.3733
15.0904
11.1037
7.4496
5.57549
4.61525
4.1594
4.03595
3.98612
3.94767
4.07018
4.57988
5.03958
5.00174
4.82432
4.05818
3.517
34.8769
37.3833
24.7138
24.1154
42.4018
41.3162
38.7488
34.6017
32.0455
29.391
27.0375
22.9293
17.2922
11.0924
8.27942
9.71086
12.9364
15.7058
16.9859
15.3394
11.028
7.26844
5.40143
4.47273
4.05174
3.94436
3.89717
3.85632
3.97837
4.47356
4.90352
4.82998
4.6475
3.89555
3.38961
32.4767
29.6549
30.7968
32.4582
54.7936
54.753
50.857
45.6212
41.8757
38.5059
36.1362
31.9602
25.586
17.0983
11.574
11.8627
14.6127
17.0534
17.9885
15.8405
11.0793
7.14958
5.26186
4.35159
3.95872
3.86383
3.81657
3.77099
3.89115
4.36868
4.76701
4.65759
4.47036
3.73266
3.26154
30.2708
24.4494
38.5473
44.4956
71.5249
72.3715
66.5671
59.7293
54.4037
50.0153
47.4145
43.4256
36.8808
26.7305
17.2921
15.4215
17.2334
19.0854
19.4959
16.6624
11.2752
7.09369
5.15535
4.25058
3.87931
3.79329
3.74324
3.69077
3.80794
4.26484
4.62995
4.4847
4.29332
3.56999
3.13321
28.2673
21.312
48.2109
61.4278
93.4668
94.5293
86.053
76.9113
69.5533
63.7355
60.4953
56.7375
50.4369
40.1553
26.602
21.1079
21.1699
22.0085
21.6455
17.8977
11.6435
7.10367
5.08089
4.16848
3.81243
3.73157
3.67601
3.61469
3.72813
4.16159
4.49215
4.3114
4.11675
3.40796
3.00501
26.4614
19.8162
60.0881
84.2905
121.094
121.01
108.958
96.7034
86.8525
79.1484
74.7588
71.013
64.9012
55.7228
39.9001
29.6398
26.8223
26.0332
24.5772
19.6615
12.2239
7.18496
5.03789
4.10407
3.75693
3.67743
3.61363
3.54167
3.65102
4.05839
4.3534
4.13767
3.94097
3.24693
2.8773
24.8623
19.7042
74.5205
113.449
154.098
150.868
134.318
118.198
105.47
95.4818
89.4819
85.3853
79.0609
70.9696
55.5615
41.0746
34.4033
31.2847
28.3849
22.078
13.0694
7.34584
5.02613
4.05605
3.71159
3.62956
3.55474
3.47059
3.57589
3.95471
4.21346
3.9635
3.76624
3.0872
2.75038
23.4808
20.9021
91.815
148.101
191.132
182.517
160.708
140.196
124.367
111.853
103.947
99.158
92.1911
84.4074
70.6398
54.1442
43.6015
37.6645
33.0389
25.2437
14.2452
7.59751
5.04568
4.02303
3.6751
3.58649
3.4979
3.40027
3.50198
3.84997
4.0721
3.78882
3.59281
2.92906
2.62457
22.3333
23.5245
112.134
186.159
229.899
214.033
186.54
161.442
142.493
127.408
117.509
111.803
103.926
95.723
83.2088
66.734
53.4456
44.7463
38.3118
29.1591
15.8211
7.95375
5.09667
4.00336
3.64597
3.54667
3.44158
3.32947
3.42852
3.7436
3.92908
3.61359
3.4209
2.77275
2.50013
21.4546
27.8691
135.348
224.695
267.62
243.528
210.375
180.83
158.94
141.431
129.631
122.918
114.056
105.05
92.9882
77.2832
62.6982
51.8458
43.7796
33.6475
17.8539
8.4295
5.17897
3.99501
3.62251
3.50839
3.3842
3.25697
3.35473
3.63505
3.7842
3.43782
3.25071
2.61852
2.37732
20.8892
34.431
160.96
260.765
301.668
269.461
231.125
197.538
173.042
153.391
139.91
132.209
122.434
112.532
100.375
85.358
70.4614
58.2691
48.9329
38.3207
20.3547
9.03797
5.29174
3.99547
3.60277
3.4698
3.3241
3.18155
3.27984
3.52381
3.6373
3.26156
3.08245
2.46662
2.25637
20.7351
43.8734
188.136
292.126
330.066
290.779
248.121
211.069
184.397
162.965
148.089
139.486
128.954
118.239
105.756
91.1673
76.3987
63.5462
53.3435
42.6646
23.2472
9.7853
5.43275
4.00157
3.58454
3.42891
3.25965
3.10205
3.2031
3.40947
3.48831
3.08502
2.91637
2.31732
2.1375
21.1259
56.9757
215.9
317.517
351.664
306.929
261.087
221.237
192.852
170.021
154.06
144.661
133.562
122.203
109.366
95.0381
80.5449
67.4807
56.7578
46.2188
26.333
10.663
5.59756
4.00946
3.56532
3.38369
3.18928
3.01742
3.12383
3.2917
3.33727
2.9085
2.75273
2.17093
2.02095
22.2957
74.4545
243.351
336.517
366.009
317.739
270.047
228.106
198.458
174.585
157.831
147.742
136.262
124.448
111.334
97.2197
83.0643
70.0672
59.0929
48.7224
29.2996
11.6393
5.77867
4.01457
3.5424
3.33207
3.11156
2.92681
3.04141
3.1703
3.18434
2.73249
2.59184
2.02782
1.90695
24.5223
96.7363
269.846
349.263
373.109
323.267
275.207
231.911
201.406
176.788
159.494
148.805
137.096
125.006
111.74
97.8754
84.1229
71.3839
60.3704
50.1247
31.7908
12.6537
5.96482
4.01179
3.51296
3.27215
3.02535
2.8296
2.95537
3.04526
3.02982
2.55764
2.43409
1.88837
1.79573
28.1637
123.589
294.981
356.192
373.206
323.623
276.813
232.955
201.954
176.803
159.17
147.949
136.124
123.911
110.638
97.1145
83.8573
71.5345
60.6619
50.5079
33.5165
13.6184
6.14084
3.99573
3.47424
3.20225
2.92986
2.72551
2.86537
2.91676
2.87418
2.38478
2.27989
1.75305
1.68756
33.4954
153.985
318.525
357.942
366.687
318.852
275.009
231.502
200.334
174.775
156.946
145.252
133.39
121.185
108.071
95.0202
82.3786
70.6207
60.0518
50.0007
34.3326
14.4299
6.28844
3.96118
3.42376
3.12114
2.82476
2.6146
2.77126
2.78516
2.71807
2.21484
2.12974
1.62235
1.58269
40.701
186.155
340.292
355.307
354.076
308.861
269.672
227.621
196.642
170.741
152.81
140.715
128.89
116.824
104.072
91.6654
79.7879
68.7425
58.629
48.7352
34.2472
14.9894
6.38804
3.90361
3.3595
3.0281
2.71024
2.49733
2.67307
2.65104
2.56225
2.04889
1.98415
1.49675
1.4814
49.6321
218.41
360.18
349.268
336.102
293.447
260.272
221.001
190.683
164.532
146.587
134.224
122.547
110.802
98.6685
87.1264
76.1865
65.9991
56.4804
46.8304
33.3691
15.2232
6.42141
3.81967
3.28018
2.92307
2.58706
2.37456
2.57109
2.51518
2.40765
1.88802
1.84369
1.37675
1.38396
59.8743
250.116
378.316
340.974
313.728
272.438
245.818
210.748
181.803
155.684
137.9
125.528
114.228
103.083
91.9038
81.4966
71.6897
62.4982
53.6977
44.3974
31.8503
15.0962
6.37452
3.70771
3.18534
2.80665
2.45647
2.24748
2.46579
2.37852
2.25527
1.73334
1.70888
1.26283
1.29064
70.5911
283.11
395.522
331.695
288.071
245.899
225.082
195.356
168.802
143.43
126.212
114.313
103.805
93.6884
83.8715
74.9067
66.4347
58.3594
50.3781
41.5419
29.8471
14.6146
6.23978
3.56794
3.07545
2.68011
2.32021
2.11757
2.35785
2.2421
2.10618
1.58586
1.58026
1.15537
1.20169
80.9187
322.689
414.005
322.654
260.093
214.282
197.211
173.174
150.225
126.929
111.057
100.381
91.2939
82.7719
74.7598
67.5433
60.5894
53.7209
46.6319
38.3718
27.5049
13.8185
6.01711
3.40246
2.95184
2.5453
2.1803
1.98652
2.24811
2.10707
1.96142
1.44647
1.45829
1.05471
1.11734
89.3733
378.422
438.348
314.638
230.039
178.387
162.574
143.616
125.322
105.871
92.4739
83.9546
77.0252
70.698
64.8838
59.6599
54.3511
48.7386
42.5831
34.9968
24.9538
12.771
5.7137
3.21511
2.81664
2.40449
2.039
1.85607
2.13753
1.97456
1.82199
1.31587
1.34334
0.961055
1.03775
95.1437
459.307
475.527
306.914
196.59
139.044
123.194
108.465
95.3172
81.2418
71.4526
65.9147
61.7303
58.0437
54.6712
51.5585
47.9355
43.5845
38.3732
31.5311
22.3106
11.5471
5.34269
3.01096
2.67254
2.26022
1.89855
1.72795
2.02714
1.8457
1.6888
1.19458
1.2357
0.874513
0.963055
0.0033756
0.000798011
0.000851367
0.00077063
0.000705645
0.000647946
0.000632883
0.082821
1.40376
2.3991
2.89258
3.41231
3.90551
4.5177
4.80493
4.93822
4.92852
7.83794
17.5394
41.2833
213.148
158.308
0.0033447
0.000178134
0.000425154
0.00054997
0.000574922
0.000548081
0.000549522
0.104208
1.48031
2.46241
2.90247
3.38713
3.85711
4.4958
4.82602
5.0153
5.06255
7.97292
17.8977
41.9696
220.091
167.211
0.00353865
0.000813749
0.000587351
0.000523961
0.000509308
0.000475225
0.000494583
0.121782
1.53051
2.49494
2.89288
3.34838
3.79526
4.45549
4.82843
5.07477
5.18938
8.09306
18.2519
42.5742
225.922
175.913
0.00367138
0.000197885
0.00024305
0.000352114
0.000400271
0.000394655
0.00045613
0.135097
1.55814
2.50115
2.86708
3.29812
3.72143
4.39656
4.80922
5.11071
5.30114
8.19361
18.5938
43.0957
230.589
184.124
0.00392078
0.000957829
0.000600461
0.000434768
0.000387115
0.00035735
0.00095012
0.143237
1.56659
2.48566
2.82844
3.23856
3.63795
4.31958
4.76694
5.11881
5.39069
8.26999
18.9134
43.5335
234.051
192.335
0.00406116
0.000241654
0.000189969
0.000282116
0.000310345
0.000303744
0.00124016
0.145623
1.55922
2.45327
2.78037
3.17202
3.54702
4.22665
4.70187
5.09681
5.45225
8.31812
19.2001
43.8896
236.287
200.768
0.00433883
0.00112076
0.000689375
0.000445092
0.000348821
0.000306178
0.00122875
0.142366
1.53889
2.40854
2.7262
3.10099
3.45164
4.12037
4.61572
5.04452
5.48182
8.33467
19.4427
44.1661
237.293
209.478
0.00447992
0.000300807
0.000184489
0.000282766
0.000291761
0.000275799
0.000670768
0.134416
1.50807
2.35574
2.66915
3.02803
3.35444
4.00445
4.51166
4.96391
5.47753
8.31734
19.6303
44.3667
237.108
218.427
0.00478249
0.00129956
0.000816376
0.000511204
0.000372607
0.000312638
0.000582665
0.123053
1.46847
2.29842
2.61217
2.95579
3.25863
3.88261
4.39374
4.85865
5.43978
8.26498
19.7529
44.4942
235.781
227.578
0.00491049
0.000378853
0.000175572
0.000309099
0.000316031
0.000293357
0.000388242
0.109614
1.42119
2.23938
2.55793
2.88688
3.16684
3.7591
4.26679
4.73389
5.37105
8.1778
19.8018
44.5519
233.388
236.864
0.00522804
0.00148615
0.000956173
0.000599764
0.000430079
0.000355971
0.000372479
0.0952659
1.36653
2.18029
2.50864
2.82386
3.08213
3.63774
4.13573
4.59556
5.27564
8.05741
19.77
44.5409
230.007
246.213
0.00534148
0.00048035
0.00019958
0.000359414
0.000367993
0.00034107
0.00029563
0.0809195
1.30438
2.12178
2.46594
2.7692
3.00695
3.52247
4.00556
4.45002
5.15917
7.9068
19.6527
44.462
225.736
255.508
0.00567084
0.0016759
0.00111888
0.000714422
0.000515615
0.000427851
0.000298535
0.0672066
1.23425
2.06319
2.43072
2.72518
2.94412
3.41656
3.88078
4.30346
5.02809
7.73013
19.4477
44.3126
220.667
264.624
0.00575887
0.0006138
0.00029396
0.000453387
0.000454059
0.000420122
0.000304498
0.0545525
1.15585
2.00279
2.40295
2.69376
2.89595
3.32337
3.76559
4.16167
4.88916
7.53256
19.1553
44.0898
214.91
273.395
0.00609105
0.00185927
0.00130714
0.00086622
0.000637795
0.000534252
0.000348252
0.0431874
1.06916
1.93788
2.38143
2.67644
2.86519
3.24565
3.66354
4.02974
4.74901
7.31993
18.7787
43.7868
208.561
281.665
0.00615516
0.000783704
0.000513665
0.000625515
0.000595852
0.000546378
0.000399929
0.0332506
0.974956
1.86529
2.36368
2.67389
2.85411
3.18641
3.57787
3.91204
4.61381
7.0985
18.3236
43.3971
201.727
289.252
0.00648586
0.00203641
0.00153029
0.00107454
0.000816993
0.000693431
0.000510624
0.0247661
0.87467
1.78175
2.34585
2.68567
2.86533
3.14837
3.51142
3.81222
4.48908
6.87458
17.7985
42.9108
194.495
295.999
0.00652175
0.000986903
0.000859587
0.000891762
0.000813263
0.000739465
0.000612339
0.0177333
0.770517
1.68472
2.32286
2.70964
2.9006
3.13474
3.46706
3.7334
4.37962
6.65438
17.2135
42.3195
186.963
301.737
0.00683837
0.00220545
0.00177657
0.00133838
0.00106189
0.000918062
0.000788803
0.0121317
0.665054
1.57276
2.28888
2.74168
2.96128
3.14865
3.4477
3.67831
4.2896
6.44375
16.5812
41.613
179.203
306.331
0.00685719
0.00121353
0.00118946
0.00118361
0.00107768
0.000986284
0.000904322
0.007878
0.561042
1.44609
2.23796
2.77526
3.04659
3.19365
3.45673
3.64969
4.22269
6.24814
15.915
40.7843
171.295
309.64
0.00715962
0.00237154
0.00200859
0.00160605
0.00133261
0.00117858
0.0010908
0.0049749
0.460987
1.30648
2.16502
2.80174
3.1536
3.27268
3.49797
3.65044
4.18231
6.07258
15.2292
39.8266
163.295
311.561
0.00716064
0.00145993
0.00146373
0.00145214
0.00134477
0.00124855
0.00118735
0.00305176
0.367158
1.15715
2.06665
2.81097
3.27495
3.38795
3.5759
3.68404
4.17198
5.92183
14.5383
38.7385
155.267
311.986
0.00744634
0.0025359
0.00221922
0.00185143
0.00159353
0.00143959
0.00136
0.00210055
0.281398
1.00214
1.94184
2.79282
3.3993
3.53893
3.69512
3.75471
4.19561
5.80055
13.8566
37.5213
147.249
310.85
0.00743481
0.00172071
0.00172592
0.00170669
0.0016019
0.00150607
0.00144391
0.00167113
0.205465
0.845978
1.79198
2.7388
3.51009
3.72124
3.85982
3.86757
4.2579
5.71362
13.1976
36.1836
139.29
308.086
0.00770411
0.00270236
0.00242414
0.00208742
0.00184508
0.00169413
0.00161083
0.00160937
0.140854
0.693148
1.62061
2.64378
3.58868
3.92377
4.07197
4.02831
4.36463
5.66651
12.5743
34.7376
131.415
303.672
0.00768122
0.00199208
0.00198834
0.00195872
0.00185495
0.00175997
0.00169506
0.00164567
0.0890448
0.548072
1.43272
2.50668
3.61607
4.12807
4.32916
4.2426
4.52277
5.66574
11.9984
33.2037
123.66
297.59
0.00793349
0.00287293
0.00263014
0.00232304
0.00209532
0.00194838
0.00186446
0.00177129
0.0506643
0.414853
1.23421
2.33035
3.57862
4.30769
4.62107
4.5143
4.7403
5.71921
11.4812
31.6061
116.043
289.876
0.00790416
0.00227064
0.00225377
0.00221319
0.00210972
0.00201581
0.0019518
0.00187289
0.0254228
0.297376
1.03138
2.12039
3.4692
4.4329
4.92675
4.84284
5.02539
5.83658
11.0335
29.9753
108.594
280.57
0.00814151
0.0030523
0.00284068
0.00256182
0.00234829
0.00220564
0.00212428
0.00202334
0.01114
0.198898
0.830871
1.88396
3.28993
4.47562
5.21288
5.2191
5.38437
6.02917
10.6664
28.3437
101.328
269.777
0.00810814
0.00255522
0.00252565
0.00247373
0.00236987
0.00227668
0.00221493
0.00213415
0.00471889
0.12181
0.639629
1.62881
3.04828
4.41811
5.43764
5.62126
5.81838
6.30932
10.3909
26.747
94.2742
257.61
0.00833078
0.00324282
0.0030589
0.00280677
0.00260705
0.00246943
0.00239137
0.00229186
0.00271169
0.066776
0.464999
1.36312
2.75619
4.25501
5.55837
6.01199
6.31816
6.68852
10.2192
25.2197
87.4515
244.246
0.00829754
0.00284501
0.00280498
0.00274249
0.00263787
0.00254541
0.00248611
0.00240763
0.00238214
0.0320964
0.314237
1.09582
2.42554
3.99462
5.54391
6.34091
6.85822
7.17372
10.1636
23.7957
80.8929
229.871
0.00850668
0.00344791
0.00328725
0.00306006
0.0028737
0.00274106
0.00266648
0.00257067
0.00250307
0.0137258
0.193611
0.837343
2.069
3.65206
5.38174
6.55328
7.39273
7.76133
10.2357
22.5048
74.6249
214.726
0.00847599
0.00314066
0.00309296
0.00302104
0.00291559
0.00282361
0.00276661
0.0026912
0.00264159
0.00590449
0.106364
0.599806
1.69866
3.24635
5.08012
6.60426
7.85742
8.42936
10.4436
21.3728
68.6857
199.049
0.00867253
0.00366944
0.00352863
0.00332415
0.00315047
0.00302343
0.00295207
0.00285999
0.00280614
0.00342102
0.0514603
0.396166
1.32931
2.79531
4.66042
6.4707
8.18037
9.13008
10.7874
20.4182
63.1064
183.118
0.00864661
0.00344285
0.00339019
0.00331072
0.00320467
0.00311342
0.00305859
0.00298612
0.00293711
0.00289712
0.0222306
0.236988
0.978214
2.31745
4.15027
6.15559
8.29997
9.78803
11.2528
19.652
57.9231
167.19
0.00883259
0.0039097
0.00378492
0.00360082
0.00343904
0.00331734
0.00324912
0.00316081
0.00310646
0.00297252
0.00960727
0.126986
0.666609
1.83238
3.57648
5.68206
8.18175
10.3088
11.8037
19.0732
53.1586
151.536
0.00881421
0.00375382
0.00369842
0.00361306
0.00350675
0.0034161
0.00336323
0.00329348
0.00324392
0.00315454
0.00512104
0.061276
0.413962
1.36518
2.96539
5.08406
7.82512
10.599
12.3771
18.6667
48.8292
136.386
0.00899077
0.00417063
0.00405925
0.00389287