/*--------------------------------*- C++ -*----------------------------------*\
| =========                 |                                                 |
| \\      /  F ield         | OpenFOAM: The Open Source CFD Toolbox           |
|  \\    /   O peration     | Version:  v1912                                 |
|   \\  /    A nd           | Website:  www.openfoam.com                      |
|    \\/     M anipulation  |                                                 |
\*---------------------------------------------------------------------------*/
FoamFile
{
    version     2.0;
    format      ascii;
    class       volScalarField;
    location    "30";
    object      nut;
}
// * * * * * * * * * * * * * * * * * * * * * * * * * * * * * * * * * * * * * //

dimensions      [0 2 -1 0 0 0 0];


internalField   nonuniform List<scalar> 
12441
(
5.83654e-24
1.92677e-20
8.90927e-20
3.67821e-19
1.19463e-18
4.34294e-18
1.12683e-17
2.8198e-17
6.90897e-17
1.43489e-16
3.45186e-16
8.7829e-16
2.47119e-15
8.4909e-15
1.18989e-13
2.17142e-11
0.000256464
0.00179332
0.00421547
0.00317789
0.00364769
0.00775321
6.36026e-24
3.56664e-20
1.34746e-19
5.13979e-19
1.59744e-18
5.8688e-18
1.48624e-17
3.69542e-17
9.0533e-17
1.91139e-16
4.71365e-16
1.28789e-15
3.51282e-15
1.17313e-14
1.41064e-13
4.8448e-11
7.71604e-05
0.00194994
0.00435504
0.00334037
0.00399901
0.00781733
6.38199e-24
4.55921e-20
1.5675e-19
5.83729e-19
1.81347e-18
6.43782e-18
1.68758e-17
4.22456e-17
1.06441e-16
2.29887e-16
5.61042e-16
1.51108e-15
3.7316e-15
1.03573e-14
7.19207e-14
8.78427e-12
1.58945e-05
0.00140025
0.00168907
0.00314604
0.00414826
0.0078909
6.3352e-24
5.15612e-20
1.66119e-19
6.03966e-19
1.88484e-18
6.66719e-18
1.76553e-17
4.45595e-17
1.12463e-16
2.5407e-16
6.22124e-16
1.70727e-15
3.82079e-15
1.24167e-14
5.59046e-14
2.22408e-12
2.38823e-06
0.000996352
0.00129446
0.00309686
0.00433166
0.0079647
6.30035e-24
6.34772e-20
1.91489e-19
6.78053e-19
2.09598e-18
7.12227e-18
1.93844e-17
4.89896e-17
1.27465e-16
2.90927e-16
7.07618e-16
2.01549e-15
4.68597e-15
6.35122e-14
3.81888e-13
3.52345e-12
2.13541e-07
0.000681759
0.00131134
0.00313466
0.00450745
0.00803394
6.24897e-24
6.37545e-20
1.90491e-19
6.80135e-19
2.14973e-18
7.35816e-18
2.02414e-17
5.17414e-17
1.34787e-16
3.24216e-16
8.0605e-16
2.46067e-15
7.61557e-15
2.22419e-12
1.96423e-11
8.34766e-11
7.35028e-07
0.000552378
0.00135215
0.00323195
0.00467618
0.00809948
6.21355e-24
8.04901e-20
2.24954e-19
7.78652e-19
2.41494e-18
7.91311e-18
2.23022e-17
5.70072e-17
1.53636e-16
3.71273e-16
9.20803e-16
3.55985e-15
4.40312e-14
7.31449e-11
1.14425e-09
1.61044e-08
2.40304e-05
0.000458836
0.00145274
0.00343149
0.00486713
0.00816218
6.16268e-24
7.42382e-20
2.15022e-19
7.69603e-19
2.48596e-18
8.28823e-18
2.36434e-17
6.12519e-17
1.65454e-16
4.24656e-16
1.09159e-15
1.04328e-14
1.15287e-12
4.22508e-09
1.53433e-07
7.22765e-06
0.000169549
0.000426547
0.00179021
0.0037892
0.00510617
0.00822577
6.12974e-24
9.67883e-20
2.58885e-19
8.88156e-19
2.79422e-18
8.90943e-18
2.61025e-17
6.76872e-17
1.90712e-16
4.91793e-16
1.27252e-15
1.21763e-13
5.07753e-11
1.45189e-07
1.59371e-05
0.000144794
0.000609969
0.000667406
0.00250161
0.00436646
0.00542735
0.00829204
6.08165e-24
8.27428e-20
2.38449e-19
8.68085e-19
2.89072e-18
9.43775e-18
2.80063e-17
7.3775e-17
2.08826e-16
5.7945e-16
1.5853e-15
3.58169e-12
2.26209e-09
8.4462e-06
0.000204497
0.000503951
0.00110926
0.00109583
0.0036443
0.00520461
0.00584361
0.00836448
6.05253e-24
1.11909e-19
2.90833e-19
1.00161e-18
3.22725e-18
1.00501e-17
3.07825e-17
8.14558e-17
2.43122e-16
6.84552e-16
1.9371e-15
1.14237e-10
1.17065e-07
0.000105481
0.000650639
0.00116401
0.00194319
0.00180076
0.00525117
0.00634081
0.00636666
0.00844366
6.00585e-24
9.0029e-20
2.6148e-19
9.74466e-19
3.36233e-18
1.0793e-17
3.34052e-17
8.99209e-17
2.71647e-16
8.42222e-16
2.69119e-15
3.39478e-09
6.4819e-06
0.000344977
0.00115457
0.00202218
0.00313869
0.00288461
0.00731099
0.00774571
0.00698087
0.00853143
5.98058e-24
1.25868e-19
3.21878e-19
1.11875e-18
3.71993e-18
1.13785e-17
3.66189e-17
9.95041e-17
3.23004e-16
1.04427e-15
4.00684e-15
8.39361e-08
8.81484e-05
0.00087167
0.00213034
0.00338805
0.00488464
0.00445113
0.00970838
0.00935305
0.00767423
0.00862633
5.93515e-24
9.59858e-20
2.83378e-19
1.08651e-18
3.90194e-18
1.236e-17
4.00868e-17
1.11241e-16
3.72562e-16
1.40072e-15
9.07224e-15
1.96011e-06
0.000293724
0.00169113
0.0035454
0.00528589
0.00724041
0.00652524
0.0122504
0.0110419
0.00841171
0.00872852
5.91329e-24
1.38711e-19
3.50947e-19
1.23856e-18
4.2741e-18
1.28743e-17
4.37876e-17
1.23829e-16
4.62818e-16
1.97324e-15
4.21515e-14
2.90554e-05
0.000795451
0.00298661
0.00551397
0.00772626
0.0101573
0.0089947
0.014702
0.0127145
0.00917487
0.00883515
5.8681e-24
1.01554e-19
3.0573e-19
1.207e-18
4.51952e-18
1.41619e-17
4.83376e-17
1.40611e-16
5.6813e-16
3.27519e-15
8.18005e-13
0.000147651
0.00153114
0.00479577
0.00806281
0.0106526
0.0134826
0.0116084
0.0168843
0.0142766
0.009929
0.00894576
5.84977e-24
1.50658e-19
3.8099e-19
1.36766e-18
4.91372e-18
1.46378e-17
5.28613e-17
1.58856e-16
7.74209e-16
6.25354e-15
3.44145e-11
0.000412353
0.00275345
0.0071608
0.0110664
0.0139675
0.016955
0.0140554
0.0187119
0.015702
0.0106653
0.00905718
5.80414e-24
1.06714e-19
3.28249e-19
1.33644e-18
5.22886e-18
1.62422e-17
5.87759e-17
1.84225e-16
1.07799e-15
1.56448e-14
1.57622e-09
0.000861907
0.00448954
0.0100655
0.0144596
0.0174998
0.0202439
0.0160747
0.020236
0.0169766
0.0113607
0.00916919
5.78869e-24
1.61706e-19
4.10607e-19
1.50165e-18
5.63492e-18
1.66326e-17
6.43739e-17
2.13017e-16
1.75637e-15
4.88723e-14
1.23592e-07
0.00172575
0.00683533
0.0133422
0.0180412
0.0210411
0.0230319
0.0175704
0.0215916
0.0181417
0.0120215
0.00927899
5.74245e-24
1.117e-19
3.50319e-19
1.47071e-18
6.02433e-18
1.85953e-17
7.21559e-17
2.54124e-16
3.00224e-15
2.29622e-13
1.68757e-05
0.00303137
0.0096953
0.0168858
0.0216902
0.0243515
0.025106
0.0186412
0.0229777
0.0192213
0.0126367
0.00938714
5.73048e-24
1.71902e-19
4.39328e-19
1.63782e-18
6.44031e-18
1.89129e-17
7.95482e-17
3.04019e-16
6.11904e-15
2.38846e-12
0.000164299
0.00491019
0.0129027
0.020511
0.0251759
0.0272449
0.026443
0.0195521
0.0245823
0.0202669
0.0132235
0.00949146
5.68327e-24
1.16031e-19
3.70367e-19
1.60531e-18
6.90539e-18
2.12539e-17
9.01499e-17
3.77132e-16
1.26386e-14
4.31462e-11
0.000480304
0.00732717
0.016275
0.0241342
0.0283842
0.0296149
0.0272353
0.0206359
0.0265711
0.0212928
0.0137789
0.00959327
5.67412e-24
1.81525e-19
4.65907e-19
1.77151e-18
7.32357e-18
2.14879e-17
1.00611e-16
4.73059e-16
3.00208e-14
5.31634e-10
0.00107673
0.0101464
0.0196511
0.0276056
0.0311619
0.0315009
0.0278545
0.0222116
0.0290406
0.0223308
0.0143287
0.00969106
5.62632e-24
1.2046e-19
3.88594e-19
1.73739e-18
7.86699e-18
2.42351e-17
1.15996e-16
6.15833e-16
6.82144e-14
5.10508e-09
0.00208853
0.0131986
0.0229299
0.0308662
0.0335262
0.0330624
0.0287543
0.0245202
0.0320287
0.0233768
0.0148771
0.00978684
5.62088e-24
1.9092e-19
4.90972e-19
1.90247e-18
8.29092e-18
2.44228e-17
1.32472e-16
8.15616e-16
1.72126e-13
4.29479e-08
0.00357226
0.0162821
0.0260394
0.033824
0.0355146
0.0345684
0.0303706
0.0277112
0.0354898
0.0244524
0.0154575
0.00987966
5.57115e-24
1.25483e-19
4.05496e-19
1.86704e-18
8.91775e-18
2.76087e-17
1.56992e-16
1.11924e-15
4.13156e-13
8.82998e-07
0.00552438
0.0192786
0.0289457
0.0364883
0.0373056
0.0363114
0.0330484
0.0318299
0.0393228
0.0255538
0.0160798
0.00997203
5.56831e-24
2.00094e-19
5.14248e-19
2.0285e-18
9.3419e-18
2.77643e-17
1.85838e-16
1.57191e-15
1.24353e-12
3.22028e-05
0.00780905
0.0220874
0.0316176
0.038858
0.0390478
0.0385623
0.0370136
0.0368217
0.0433686
0.0267081
0.0167815
0.0100634
5.51738e-24
1.31053e-19
4.20331e-19
1.99086e-18
1.00552e-17
3.14243e-17
2.29527e-16
2.28149e-15
5.99367e-12
0.000216136
0.0102867
0.0246813
0.0340472
0.0410106
0.0409336
0.0415035
0.0423626
0.042532
0.0474533
0.0279168
0.0175712
0.0101564
5.51804e-24
2.09098e-19
5.35107e-19
2.14779e-18
1.04832e-17
3.16189e-17
2.85941e-16
3.39295e-15
4.17717e-11
0.000593082
0.0127825
0.0270346
0.0362245
0.0429918
0.0430577
0.0452178
0.0490533
0.0487292
0.0513944
0.0292056
0.018479
0.0102507
5.46473e-24
1.36825e-19
4.3235e-19
2.10673e-18
1.12879e-17
3.58075e-17
3.7268e-16
5.18257e-15
2.47582e-10
0.0010709
0.0152034
0.0291511
0.0381614
0.0448769
0.0454912
0.0496659
0.0568909
0.0551285
0.0550398
0.0305642
0.0194978
0.0103488
5.4675e-24
2.17891e-19
5.54204e-19
2.25952e-18
1.17206e-17
3.61479e-17
4.93228e-16
8.11512e-15
1.17508e-09
0.00168488
0.0174608
0.0310224
0.0398636
0.0466841
0.0481908
0.0547024
0.0655256
0.0614332
0.0582613
0.0319965
0.0206369
0.01045
5.4131e-24
1.42521e-19
4.41015e-19
2.21357e-18
1.2624e-17
4.09008e-17
6.80941e-16
1.29603e-14
4.60499e-09
0.0024302
0.0195224
0.0326576
0.0413523
0.0484337
0.0510831
0.0600771
0.0744713
0.0673615
0.0609776
0.033466
0.0218624
0.0105565
5.41907e-24
2.26732e-19
5.71287e-19
2.36723e-18
1.30868e-17
4.14948e-17
9.55348e-16
2.0937e-14
1.53521e-08
0.00330906
0.0213481
0.0340574
0.0426375
0.0500912
0.0540103
0.0654721
0.0831571
0.0726774
0.0631331
0.0349518
0.0231564
0.010667
5.36111e-24
1.4656e-19
4.43809e-19
2.30777e-18
1.40788e-17
4.68962e-17
1.38294e-15
3.40302e-14
4.59946e-08
0.00429232
0.0229363
0.0352392
0.0437409
0.0516292
0.0568178
0.0705304
0.0910009
0.0771976
0.0647104
0.0364004
0.02446
0.0107831
5.36913e-24
2.34619e-19
5.88924e-19
2.48883e-18
1.47084e-17
4.82473e-17
2.03784e-15
5.6082e-14
1.26332e-07
0.00534185
0.0242832
0.0362161
0.0446726
0.0529896
0.0593201
0.0749151
0.0974933
0.0808034
0.0657046
0.037787
0.0257397
0.0109032
5.30697e-24
1.32923e-19
4.08064e-19
2.28571e-18
1.53027e-17
5.30349e-17
2.97627e-15
9.11042e-14
4.33617e-07
0.00643626
0.0254191
0.0370177
0.0454564
0.0541427
0.0613846
0.0783496
0.10227
0.0834322
0.0661348
0.0390691
0.0269306
0.0110282
5.3154e-24
2.69228e-19
6.41054e-19
2.69612e-18
1.68244e-17
5.68576e-17
4.57663e-15
1.78642e-13
8.46477e-06
0.00757184
0.0263743
0.0376696
0.0461087
0.0550532
0.0628993
0.0806677
0.10516
0.0850796
0.0660203
0.0402472
0.0280064
0.0111563
5.24635e-24
1.09475e-19
3.51404e-19
2.1923e-18
1.64733e-17
6.00302e-17
6.52645e-15
1.42955e-12
0.000111901
0.00878518
0.0272027
0.0382108
0.0466625
0.0557314
0.0638404
0.0818242
0.106191
0.0857871
0.0653953
0.0413132
0.0289222
0.0112883
5.25183e-24
2.30407e-19
5.72488e-19
2.71543e-18
1.88678e-17
6.67473e-17
1.02048e-14
7.33605e-11
0.000540861
0.0101348
0.0279495
0.0386746
0.0471455
0.0561938
0.0642227
0.0819024
0.105569
0.0856426
0.0642897
0.0423028
0.0296846
0.011422
5.17247e-24
8.97405e-20
2.71169e-19
1.92664e-18
1.71158e-17
6.93334e-17
1.39934e-14
3.12787e-09
0.00146649
0.0116635
0.0286645
0.0391027
0.0476011
0.0565047
0.0641466
0.0810816
0.103627
0.0847665
0.0627463
0.0432302
0.030287
0.0115584
5.16817e-24
4.81401e-20
7.20407e-20
1.7064e-18
1.97605e-17
8.43514e-17
2.39488e-14
5.09375e-07
0.00295979
0.0133674
0.029372
0.039528
0.0480643
0.0567285
0.0637287
0.0796126
0.100764
0.0833097
0.0608042
0.0441172
0.0307705
0.0116955
5.07871e-24
3.62004e-20
1.17155e-19
1.26872e-18
1.77619e-17
1.18538e-16
5.89805e-14
4.41294e-05
0.00497708
0.0152152
0.0300856
0.0399898
0.0485835
0.0569685
0.063143
0.0777702
0.0973888
0.0814333
0.0585174
0.0448944
0.0311294
0.0118345
5.04276e-24
1.44007e-20
1.64095e-21
1.50904e-18
2.3582e-17
3.48972e-16
1.45054e-12
0.000277013
0.00744457
0.0171645
0.0307873
0.0405174
0.0491937
0.0573068
0.0625363
0.0758337
0.0938807
0.0792985
0.055935
0.045382
0.0313044
0.011976
4.8402e-24
5.65535e-19
1.71127e-18
4.62754e-18
3.32012e-17
4.07228e-15
3.08124e-11
0.000741827
0.0102677
0.0192214
0.031498
0.0411654
0.0499474
0.0578442
0.062069
0.0740398
0.0905507
0.0770062
0.0531078
0.0451655
0.0308394
0.0121338
0.00987657
0.0158877
0.0231395
0.0223318
0.00952104
0.00891146
0.00882966
0.00881007
0.00873599
0.0087992
0.0117969
0.0107505
0.0106765
0.0113822
0.0121044
0.0125464
0.0122847
0.0112585
0.0095774
0.00778676
0.00867827
0.0164168
0.0306592
0.0462345
0.0604763
0.0693927
0.075865
0.0820552
0.0854404
0.0817262
0.0750986
0.0717369
0.0736055
0.0854418
0.103118
0.00986353
0.0159259
0.0227145
0.0222356
0.00940147
0.00886077
0.00887858
0.00892536
0.00879208
0.00884952
0.0117438
0.0107577
0.0107412
0.0114178
0.0121328
0.012645
0.0125451
0.0116537
0.00994425
0.00794559
0.00869379
0.0165052
0.0308361
0.0464219
0.0606811
0.0696005
0.0760635
0.0822298
0.0855943
0.0817737
0.0751201
0.0717535
0.0736337
0.0854672
0.103147
0.00983842
0.0159777
0.0221745
0.0220535
0.00923806
0.00881527
0.00909688
0.0092523
0.00902687
0.00906163
0.0112068
0.0103289
0.0105468
0.0111321
0.0114913
0.0117123
0.0116456
0.0110569
0.00979173
0.00814317
0.00909173
0.0169122
0.0311906
0.0467486
0.0610277
0.0699459
0.0763928
0.0825163
0.0858525
0.0818248
0.0751263
0.0717525
0.0736588
0.0854841
0.10317
0.00979929
0.0160588
0.0214764
0.0220695
0.0090769
0.00889765
0.00961377
0.00980656
0.00950644
0.00952397
0.0107051
0.00992242
0.0104163
0.0110313
0.0110434
0.0108051
0.0105302
0.0101155
0.00937543
0.0083564
0.00972832
0.0175687
0.031711
0.0472034
0.0615012
0.0704104
0.0768342
0.082898
0.0862013
0.0818708
0.0751123
0.0717302
0.0736783
0.0854907
0.103187
0.00974597
0.0160864
0.0206157
0.022186
0.00898562
0.00918798
0.0104699
0.0106141
0.0102328
0.0102258
0.0104897
0.009791
0.0106471
0.0114554
0.011166
0.0103832
0.00970957
0.00925713
0.00891618
0.00859036
0.0105053
0.0184102
0.0323838
0.0477814
0.0620953
0.0709847
0.0773771
0.083366
0.0866342
0.0819106
0.0750806
0.0716906
0.073697
0.0854936
0.103204
0.00967615
0.0159952
0.019621
0.0223015
0.00911811
0.00980425
0.0117124
0.0117218
0.0112084
0.011132
0.0106091
0.010008
0.0113185
0.0124219
0.0118712
0.0105211
0.00935324
0.00869878
0.00857269
0.00887
0.0113639
0.0193874
0.0331978
0.0484819
0.062809
0.0716651
0.0780163
0.0839163
0.0871484
0.0819478
0.0750374
0.071642
0.0737235
0.0855042
0.103234
0.00959042
0.0157434
0.0185796
0.0224553
0.00967998
0.0109065
0.0134138
0.0131946
0.0124576
0.0122305
0.011051
0.0105685
0.0123839
0.0137893
0.0130008
0.0111042
0.00943041
0.00849562
0.00843175
0.00922299
0.0122726
0.0204682
0.0341458
0.0493069
0.063644
0.0724506
0.0787491
0.084547
0.0877431
0.0819887
0.0749919
0.0715955
0.0737695
0.0855371
0.103293
0.00948687
0.0153007
0.0176318
0.0228555
0.0108648
0.0126718
0.0156637
0.0151078
0.0140245
0.0135398
0.0118112
0.0114732
0.0137917
0.0154292
0.0143985
0.0119788
0.00982686
0.00860142
0.00851088
0.00966448
0.0132168
0.021634
0.0352231
0.0502596
0.0646029
0.0733409
0.0795735
0.0852571
0.0884186
0.0820413
0.0749547
0.0715641
0.0738483
0.0856089
0.103398
0.00936733
0.0146568
0.0169431
0.0237782
0.0128417
0.0152689
0.0185452
0.0175295
0.0159554
0.0150962
0.0129137
0.012749
0.0155377
0.0173084
0.0159967
0.0130411
0.0104299
0.00893108
0.0087791
0.0101928
0.0141907
0.0228758
0.0364269
0.0513429
0.0656873
0.074335
0.080487
0.0860453
0.089175
0.0821141
0.074937
0.0715619
0.0739742
0.0857379
0.10357
0.0092307
0.0138082
0.0166804
0.0254927
0.0157459
0.0188279
0.0221075
0.0205028
0.0182836
0.0169352
0.0143929
0.0144308
0.0176495
0.0194728
0.0178045
0.0142424
0.0111577
0.00940023
0.00918196
0.0107912
0.0151911
0.0241886
0.0377535
0.0525574
0.0668962
0.0754289
0.081485
0.0869086
0.0900114
0.082216
0.0749507
0.0716034
0.0741623
0.0859428
0.103829
0.00908003
0.012769
0.0169892
0.02821
0.0196505
0.0233912
0.026333
0.0240174
0.0210064
0.0190705
0.0162676
0.0165282
0.0201431
0.0220007
0.0198762
0.0155729
0.0119621
0.00994493
0.00966401
0.0114356
0.0162139
0.0255682
0.0391968
0.0539004
0.0682243
0.0766153
0.0825597
0.0878423
0.0909252
0.0823551
0.0750072
0.071703
0.0744274
0.0862426
0.104195
0.00891508
0.0115628
0.0179859
0.0320371
0.0245246
0.0288564
0.0311058
0.0279826
0.0240656
0.0214721
0.0185087
0.0189877
0.022971
0.0249338
0.022261
0.0170297
0.0128114
0.01052
0.0101784
0.0120996
0.0172516
0.0270068
0.0407464
0.0553642
0.0696615
0.0778821
0.0837
0.0888389
0.0919122
0.0825386
0.0751171
0.0718745
0.0747843
0.0866561
0.104688
0.00874002
0.0102389
0.0197405
0.036926
0.0301925
0.0349273
0.0361864
0.0321982
0.0273246
0.0240445
0.0210045
0.021658
0.0259738
0.0282162
0.0249639
0.0186001
0.0136819
0.011095
0.0106906
0.0127589
0.0182922
0.0284915
0.0423871
0.0569355
0.0711918
0.0792125
0.0848911
0.0898882
0.0929658
0.0827724
0.0752902
0.0721311
0.0752469
0.0872015
0.105328
0.00855535
0.00886839
0.0222304
0.0426419
0.0363243
0.0411133
0.0412114
0.0363466
0.0305615
0.0266118
0.0235363
0.0242676
0.0288482
0.0316343
0.0279009
0.0202411
0.0145447
0.0116452
0.0111746
0.0133908
0.0193188
0.030003
0.0440973
0.0585952
0.072794
0.0805856
0.0861152
0.090978
0.0940779
0.083061
0.0755354
0.0724849
0.0758285
0.0878964
0.106134
0.00836592
0.0075542
0.0252446
0.048756
0.0424665
0.0468001
0.0457298
0.0400179
0.0334786
0.028921
0.0257838
0.0264402
0.0311529
0.0347884
0.0308704
0.0218738
0.0153647
0.0121489
0.0116105
0.0139754
0.0203099
0.031516
0.0458502
0.0603188
0.0744417
0.0819771
0.0873522
0.0920944
0.0952387
0.0834078
0.0758601
0.072947
0.0765415
0.0887576
0.107123
0.00817267
0.00640985
0.0283314
0.0546666
0.0481192
0.0513967
0.0492925
0.0427912
0.0357522
0.03068
0.0273828
0.0277641
0.0323808
0.0371074
0.0335358
0.0233737
0.0160943
0.0125818
0.0119799
0.0144928
0.0212399
0.0329992
0.0476137
0.0620765
0.076105
0.0833605
0.0885809
0.0932226
0.0964379
0.0838153
0.0762713
0.0735275
0.0773976
0.0898009
0.108312
0.00798033
0.00551674
0.0310654
0.0597119
0.0528318
0.0544984
0.0515681
0.0443532
0.0371113
0.0316333
0.0280374
0.0279214
0.0321079
0.0379537
0.0354465
0.0245773
0.0166765
0.0129173
0.0122645
0.0149237
0.0220808
0.0344174
0.0493519
0.0638351
0.0777517
0.0847087
0.0897802
0.0943482
0.0976649
0.0842849
0.0767746
0.0742359
0.0784078
0.0910421
0.109717
0.00778933
0.00492555
0.0331961
0.0633149
0.0562864
0.0559925
0.0524419
0.0446119
0.0374306
0.0316569
0.027646
0.0268256
0.0301811
0.036817
0.0361049
0.0252898
0.0170431
0.0131236
0.0124432
0.0152468
0.0228025
0.0357322
0.0510262
0.0655591
0.0793488
0.0859956
0.0909306
0.0954582
0.0989096
0.0848184
0.0773757
0.075081
0.0795826
0.0924961
0.111355
0.00760307
0.00468378
0.0346769
0.0651014
0.0583362
0.0560475
0.0520376
0.0437328
0.0367833
0.0308225
0.0263683
0.0246967
0.0268494
0.0335631
0.0350985
0.0253158
0.0171243
0.0131685
0.012493
0.01544
0.0233746
0.0369045
0.052597
0.0672123
0.0808645
0.0871975
0.0920156
0.0965416
0.100164
0.0854172
0.0780797
0.0760716
0.0809324
0.0941782
0.11324
0.00742066
0.00483606
0.0356959
0.0649546
0.0589943
0.0550052
0.0506547
0.0420765
0.0354239
0.0293873
0.0245803
0.0220063
0.0227323
0.0286024
0.032268
0.0244991
0.016855
0.01302
0.0123894
0.0154781
0.0237664
0.0378948
0.0540249
0.0687592
0.0822692
0.0882946
0.0930223
0.0975908
0.10142
0.0860836
0.0788921
0.0772168
0.0824679
0.096104
0.115387
0.00724378
0.00543025
0.0365806
0.0630122
0.058398
0.0532478
0.0486626
0.0400685
0.0337039
0.0277087
0.0227373
0.019316
0.018608
0.0228354
0.0278568
0.0227842
0.0161952
0.0126567
0.0121117
0.0153355
0.0239483
0.0386657
0.0552725
0.0701672
0.0835376
0.0892717
0.0939427
0.0986019
0.102674
0.0868207
0.0798185
0.0785263
0.0841999
0.09829
0.117813
0.00707145
0.00651205
0.0376544
0.0596394
0.0567847
0.0511241
0.0464174
0.0380846
0.0319723
0.0261326
0.0212266
0.0170953
0.0151371
0.0173318
0.0225295
0.0202666
0.0151453
0.0120741
0.0116483
0.0149867
0.0238912
0.0391819
0.0563053
0.0714074
0.0846494
0.0901195
0.0947744
0.0995756
0.103925
0.087633
0.0808659
0.080011
0.0861404
0.100754
0.120534
0.00690537
0.00810274
0.039096
0.0553858
0.0544859
0.0489485
0.0442334
0.0363991
0.0305053
0.0249135
0.0202818
0.0156205
0.0126896
0.012922
0.0171968
0.0172175
0.0137657
0.0112957
0.0110065
0.0144138
0.0235683
0.0394122
0.0570935
0.0724561
0.0855902
0.0908348
0.0955206
0.100517
0.105174
0.0885265
0.0820419
0.0816837
0.0883021
0.103516
0.123567
0.00674534
0.0101693
0.0408924
0.0509047
0.0519129
0.0470238
0.042386
0.0351935
0.0294862
0.024191
0.0199773
0.014972
0.0113431
0.00996663
0.0126891
0.0140409
0.0121779
0.0103746
0.0102173
0.0136124
0.0229572
0.0393291
0.0576127
0.0732962
0.0863525
0.091421
0.0961908
0.101437
0.106425
0.089509
0.0833556
0.0835593
0.0906996
0.106597
0.12693
0.00659312
0.0125826
0.042862
0.0468278
0.0495007
0.0456282
0.0411039
0.0345791
0.0290132
0.0240071
0.0202708
0.0150911
0.0109874
0.00841832
0.00947773
0.0111723
0.0105529
0.00939255
0.00933934
0.0126039
0.0220443
0.0389113
0.0578453
0.0739184
0.0869363
0.0918884
0.0968006
0.102351
0.107686
0.0905905
0.0848179
0.0856557
0.0933491
0.110024
0.130643
0.00644962
0.015119
0.0447422
0.0436471
0.0476303
0.0449682
0.0405416
0.0346052
0.0291132
0.0243336
0.021052
0.015839
0.0114281
0.00803133
0.00761838
0.00894801
0.00907558
0.0084451
0.00845056
0.0114411
0.0208325
0.0381449
0.0577814
0.074322
0.0873493
0.0922539
0.097372
0.10328
0.108969
0.091783
0.0864417
0.0879943
0.0962692
0.113824
0.134729
0.00631698
0.0174833
0.0462831
0.0416572
0.046566
0.0451322
0.0407468
0.0352507
0.029747
0.0250931
0.0221788
0.0170408
0.0124446
0.00852152
0.00691209
0.00752252
0.00790617
0.00762704
0.00763566
0.0102098
0.0193505
0.0370278
0.0574206
0.0745164
0.0876073
0.0925414
0.0979329
0.104251
0.110288
0.093101
0.0882419
0.0906006
0.0994811
0.118032
0.139211
0.00619775
0.0193966
0.0473742
0.0409838
0.04644
0.0460776
0.0416485
0.0364181
0.030814
0.0261701
0.0234967
0.0185093
0.0138147
0.00961422
0.0070902
0.00687458
0.00714226
0.00701314
0.00696761
0.0090158
0.0176609
0.0355731
0.0567733
0.0745217
0.0877347
0.0927815
0.0985177
0.105295
0.11166
0.0945616
0.0902363
0.0935051
0.103009
0.122687
0.144116
0.00609509
0.0206602
0.048098
0.0416471
0.0472678
0.0476475
0.0430673
0.0379367
0.0321591
0.0274197
0.0248496
0.0200616
0.0153296
0.0110491
0.00789219
0.00688094
0.00680694
0.00664727
0.00649597
0.00796471
0.015862
0.0338163
0.0558623
0.0743698
0.0877646
0.0930115
0.0991669
0.106449
0.113107
0.0961843
0.0924456
0.0967437
0.106882
0.127834
0.149473
0.00601408
0.0212285
0.0487074
0.0436052
0.0489656
0.0495987
0.0447407
0.0395777
0.0335849
0.0286749
0.0260832
0.0215262
0.0168023
0.012587
0.00906555
0.00737688
0.00685758
0.00653518
0.00623977
0.00713672
0.0140783
0.0318191
0.054724
0.0741041
0.087738
0.0932748
0.0999264
0.107757
0.114652
0.0979917
0.0948937
0.100359
0.111132
0.133524
0.155315
0.00596079
0.0211884
0.049496
0.0467323
0.0513425
0.0516165
0.0463488
0.0410708
0.0348659
0.0297565
0.0270491
0.0227493
0.0180735
0.0140237
0.0103705
0.00818124
0.00720867
0.00664881
0.00619049
0.00657503
0.012439
0.0296725
0.0534097
0.0737792
0.0877041
0.0936205
0.100848
0.109265
0.116324
0.100009
0.0976084
0.104401
0.115797
0.13982
0.16168
0.00594609
0.0207421
0.0506811
0.050758
0.0540825
0.0533308
0.0475429
0.0421282
0.035769
0.0304851
0.0276107
0.0235972
0.0190153
0.0151962
0.011597
0.00910794
0.00774777
0.00693186
0.00631557
0.00628383
0.0110527
0.0274919
0.0519849
0.073459
0.0877182
0.0941022
0.101987
0.111028
0.118151
0.102265
0.100622
0.108926
0.120921
0.146791
0.168611
0.00598322
0.0201121
0.0522878
0.0552112
0.0567484
0.0543501
0.0479853
0.0424758
0.0360767
0.0307009
0.0276563
0.0239663
0.0195363
0.0159915
0.0125861
0.00998971
0.00835521
0.00731219
0.00656642
0.00623937
0.00999048
0.0254071
0.0505277
0.0732148
0.0878404
0.0947771
0.103405
0.113102
0.12017
0.104791
0.103971
0.114003
0.126555
0.154521
0.176155
0.00609167
0.0195147
0.0541204
0.0594443
0.0588436
0.054332
0.0474071
0.041899
0.0356229
0.0302886
0.0271181
0.0237938
0.0195873
0.0163478
0.0132368
0.0106977
0.00892066
0.00771242
0.00688406
0.00639791
0.00928167
0.0235434
0.0491257
0.0731212
0.0881335
0.0957041
0.105166
0.115549
0.122415
0.107622
0.107698
0.119707
0.132757
0.163103
0.184369
0.00628805
0.0191002
0.0557886
0.0627562
0.0599208
0.0530672
0.0456695
0.0402891
0.0343254
0.0292032
0.0259912
0.0230721
0.0191691
0.0162613
0.0135119
0.0111573
0.00936314
0.00806628
0.00721071
0.00670593
0.0089218
0.0220057
0.0478707
0.0732527
0.0886598
0.0969425
0.107335
0.118437
0.124927
0.110798
0.111852
0.126129
0.139596
0.172648
0.193316
0.00658505
0.0189871
0.0568574
0.0645803
0.0596983
0.0505456
0.0428081
0.0376797
0.0322129
0.0274849
0.0243422
0.0218552
0.0183332
0.0157787
0.013428
0.0113448
0.00963622
0.00832612
0.00749753
0.0071044
0.00888251
0.020865
0.0468515
0.0736794
0.0894795
0.0985506
0.10998
0.121836
0.127748
0.11436
0.116489
0.133372
0.14715
0.183282
0.203069
0.00697682
0.0192171
0.0569776
0.0646121
0.0581161
0.0469597
0.0390329
0.0342471
0.0294242
0.0252566
0.0223021
0.0202555
0.0171766
0.0149911
0.0130475
0.011282
0.00973109
0.00847072
0.00771461
0.00753956
0.00912069
0.0201572
0.0461477
0.0744644
0.0906478
0.100585
0.113172
0.125822
0.130925
0.118359
0.121672
0.141551
0.15551
0.19515
0.213714
0.00744499
0.0197726
0.0559713
0.0628195
0.0553065
0.0426472
0.0346836
0.03028
0.0261857
0.0227012
0.0200438
0.0184241
0.0158258
0.0140118
0.0124564
0.0110178
0.00966454
0.00850003
0.00785067
0.00796766
0.00958419
0.0198862
0.0458235
0.0756615
0.0922141
0.103099
0.116984
0.130475
0.134508
0.122847
0.127474
0.150803
0.164779
0.208419
0.225345
0.00795396
0.0204615
0.0537698
0.0593343
0.051495
0.0379893
0.0301508
0.0261215
0.0227684
0.020029
0.0177519
0.0165282
0.0144166
0.0129613
0.0117517
0.0106176
0.00947316
0.00843336
0.00791426
0.00836439
0.0102183
0.0200345
0.0459265
0.0773162
0.0942219
0.106145
0.121491
0.135882
0.138549
0.127885
0.133978
0.16128
0.175075
0.223277
0.23807
0.00846726
0.0209116
0.0503414
0.0543421
0.046897
0.0333151
0.0257946
0.0221099
0.0194462
0.0174446
0.0155959
0.0147241
0.0130743
0.0119449
0.0110209
0.0101459
0.00919846
0.00829817
0.00792561
0.00872195
0.010972
0.0205722
0.046489
0.0794693
0.0967106
0.109779
0.126777
0.142139
0.143106
0.133541
0.141277
0.173155
0.186529
0.239934
0.25201
0.00894498
0.0205184
0.0456103
0.0480265
0.0416539
0.0288345
0.0218762
0.0185218
0.016456
0.015123
0.0137123
0.0131416
0.0119001
0.0110461
0.0103375
0.00966149
0.00888337
0.00812747
0.00791458
0.00905164
0.0118053
0.0214695
0.047536
0.0821622
0.099718
0.114055
0.13293
0.149348
0.148243
0.139894
0.149474
0.186621
0.199288
0.258624
0.267295
0.0093615
0.0186895
0.0394778
0.0406203
0.035856
0.0246293
0.0185231
0.0155341
0.0139696
0.0131942
0.0121983
0.0118755
0.0109661
0.0103187
0.00975157
0.00920781
0.00856215
0.00795099
0.00791228
0.00937522
0.012695
0.0227072
0.0490943
0.0854445
0.103284
0.119036
0.14005
0.15762
0.154027
0.147028
0.158684
0.201889
0.21351
0.279597
0.284066
0.0096768
0.0151484
0.0319117
0.0325087
0.0296617
0.0207103
0.0157432
0.0132133
0.0120812
0.0117435
0.011122
0.010994
0.0103212
0.0097972
0.00929792
0.00881626
0.00826252
0.00779649
0.00795201
0.00972646
0.0136394
0.0242901
0.0512055
0.0893814
0.107452
0.124792
0.148242
0.167075
0.160531
0.155038
0.169026
0.219183
0.229363
0.303122
0.302468
0.00988074
0.0105945
0.0233108
0.0242842
0.0233971
0.0170555
0.0134226
0.0114959
0.0107758
0.0107902
0.0105088
0.0105248
0.009977
0.00948443
0.00898407
0.00849242
0.00799278
0.00767772
0.00806142
0.0101432
0.0146578
0.0262527
0.0539353
0.0940587
0.112275
0.131399
0.157622
0.177836
0.167831
0.164022
0.180626
0.23874
0.247021
0.329472
0.322646
4.88559e-24
9.89377e-19
3.05284e-18
1.21117e-17
7.52452e-17
1.03567e-13
3.08393e-10
0.00173
0.012672
0.0208446
0.0320764
0.0418217
0.0507065
0.0584873
0.0618929
0.0728739
0.0881989
0.0751046
0.0507977
0.0442733
0.0293644
0.0122824
4.99559e-24
9.30765e-19
3.61856e-19
1.82326e-17
1.61168e-16
6.48711e-13
2.48549e-09
0.00263258
0.0143068
0.0219397
0.0325156
0.0423923
0.0514004
0.059137
0.0619607
0.072234
0.0866974
0.073885
0.0494066
0.0434431
0.0281632
0.0124133
5.10479e-24
8.07591e-19
2.8127e-18
2.62265e-17
3.17256e-16
2.32612e-12
2.18684e-08
0.00354714
0.0158177
0.0229763
0.0330132
0.0430641
0.0522545
0.0599959
0.062261
0.0718506
0.0854381
0.0728483
0.0483078
0.0424505
0.0269615
0.0126312
5.06114e-24
7.28401e-19
1.77058e-19
3.16984e-17
6.52022e-16
6.73032e-12
3.83606e-07
0.00443341
0.0172032
0.0239751
0.0336059
0.0438447
0.0532851
0.0610977
0.0628494
0.0717815
0.0844947
0.0720262
0.0474931
0.0413207
0.025792
0.0129406
5.16819e-24
6.38596e-19
2.34396e-18
3.02968e-17
1.1268e-15
1.29218e-11
6.88739e-06
0.00522879
0.0184752
0.0249492
0.0343127
0.0447354
0.0544966
0.0624502
0.0637445
0.0720707
0.0839179
0.0714437
0.0469433
0.0401033
0.0246917
0.0133318
5.1128e-24
5.56746e-19
1.52345e-19
3.25829e-17
2.21082e-15
2.28419e-11
1.48474e-05
0.00586071
0.0196412
0.0259078
0.035145
0.0457375
0.0558927
0.0640706
0.0649788
0.0727438
0.0837376
0.0711185
0.0466404
0.0388327
0.0236615
0.01382
5.23134e-24
5.11457e-19
1.82603e-18
2.32626e-17
3.15333e-15
2.68393e-11
2.96484e-05
0.00631142
0.0207107
0.0268494
0.0360961
0.0468414
0.0574602
0.0659465
0.066547
0.0738187
0.0839674
0.071066
0.0465566
0.0375583
0.0227161
0.0144161
5.16863e-24
4.27337e-19
1.2147e-19
2.38211e-17
5.52009e-15
2.87235e-11
4.5496e-05
0.00660617
0.0216843
0.0277679
0.0371527
0.0480346
0.0591821
0.0680743
0.0684596
0.0752963
0.084606
0.0712936
0.0466715
0.0363086
0.0218442
0.0151373
5.29976e-24
4.15813e-19
1.41886e-18
1.50927e-17
6.19462e-15
1.8867e-11
6.15224e-05
0.00679467
0.0225639
0.0286472
0.038284
0.0492899
0.0610207
0.0704159
0.0706852
0.0771714
0.0856419
0.0718067
0.0469591
0.0351245
0.0210545
0.0159843
5.22161e-24
3.29574e-19
1.11307e-19
1.57942e-17
9.24726e-15
1.29836e-11
0.000127065
0.00690232
0.0233431
0.0294693
0.0394547
0.0505756
0.0629327
0.0729399
0.0732077
0.0794201
0.0870541
0.0726026
0.0474054
0.0340238
0.0203321
0.016958
5.35921e-24
3.42224e-19
1.12894e-18
9.79805e-18
8.22868e-15
6.03391e-12
0.000162885
0.0069134
0.0240177
0.0302117
0.0406149
0.0518432
0.0648517
0.0755759
0.0759643
0.0820106
0.088814
0.0736771
0.0479918
0.033038
0.019684
0.0180386
5.269e-24
2.55936e-19
8.956e-20
1.01872e-17
1.02256e-14
3.34477e-12
0.000226747
0.00680511
0.0245741
0.0308569
0.0417171
0.0530414
0.0667065
0.0782589
0.0789065
0.0848881
0.0908834
0.0750173
0.0487143
0.0321754
0.0190938
0.0192062
5.41346e-24
2.86079e-19
9.17385e-19
6.54505e-18
7.43323e-15
1.33896e-12
0.000214661
0.00654617
0.0249975
0.0313897
0.0427072
0.0541055
0.0684036
0.0808829
0.0819358
0.0879859
0.0932149
0.0766091
0.0495631
0.0314607
0.0185696
0.0204196
5.30686e-24
2.01107e-19
6.11562e-20
6.35161e-18
7.6238e-15
6.55294e-13
0.000146389
0.00610784