/*--------------------------------*- C++ -*----------------------------------*\
| =========                 |                                                 |
| \\      /  F ield         | OpenFOAM: The Open Source CFD Toolbox           |
|  \\    /   O peration     | Version:  v1912                                 |
|   \\  /    A nd           | Website:  www.openfoam.com                      |
|    \\/     M anipulation  |                                                 |
\*---------------------------------------------------------------------------*/
FoamFile
{
    version     2.0;
    format      ascii;
    class       surfaceScalarField;
    location    "30";
    object      phi;
}
// * * * * * * * * * * * * * * * * * * * * * * * * * * * * * * * * * * * * * //

dimensions      [0 3 -1 0 0 0 0];
oriented        oriented;


internalField   nonuniform List<scalar> 
24588
(
6.90585e-05
-1.36626e-06
6.93457e-05
-3.18883e-06
6.94687e-05
9.10021e-07
6.90962e-05
7.98753e-07
6.91249e-05
5.46374e-07
6.85353e-05
6.90186e-07
6.81736e-05
4.182e-07
6.76646e-05
1.02583e-06
6.70505e-05
6.70729e-08
6.67207e-05
-5.88769e-08
6.65738e-05
3.4889e-07
6.65705e-05
3.55579e-07
6.50443e-05
1.05885e-06
6.34939e-05
2.0041e-06
6.1289e-05
2.1581e-06
5.99419e-05
1.31928e-06
5.83038e-05
1.61051e-06
5.53548e-05
2.97924e-06
5.02817e-05
5.06816e-06
4.01228e-05
1.01682e-05
2.51459e-05
1.49864e-05
2.5138e-05
6.92675e-05
-3.03818e-06
6.97741e-05
-7.27217e-06
6.98385e-05
2.24115e-06
6.92234e-05
1.97132e-06
6.89095e-05
1.5968e-06
6.84705e-05
1.19987e-06
6.78414e-05
1.17666e-06
6.74058e-05
2.05401e-06
6.68618e-05
-3.23364e-08
6.66497e-05
-3.19168e-07
6.67331e-05
4.99066e-07
6.6686e-05
8.21111e-07
6.49497e-05
2.32569e-06
6.33098e-05
4.0554e-06
6.09442e-05
4.47162e-06
5.94861e-05
2.73891e-06
5.84079e-05
2.63514e-06
5.51416e-05
6.30174e-06
4.99674e-05
1.02357e-05
3.98309e-05
2.03148e-05
2.49168e-05
2.99145e-05
5.0046e-05
6.91582e-05
-4.55408e-06
6.9589e-05
-1.09727e-05
6.97105e-05
3.39234e-06
6.91631e-05
3.04443e-06
6.88371e-05
2.63468e-06
6.83981e-05
1.78395e-06
6.77975e-05
1.81719e-06
6.73675e-05
3.08955e-06
6.6818e-05
-1.40574e-07
6.65797e-05
-5.18892e-07
6.66549e-05
6.66766e-07
6.66371e-05
1.23253e-06
6.48817e-05
3.53853e-06
6.32477e-05
6.2218e-06
6.0939e-05
6.72735e-06
5.94072e-05
4.24877e-06
5.83494e-05
3.63167e-06
5.49768e-05
9.73721e-06
4.96288e-05
1.55649e-05
3.95581e-05
3.04068e-05
2.47663e-05
4.47241e-05
7.47952e-05
6.91544e-05
-6.06189e-06
6.95155e-05
-1.45941e-05
6.95427e-05
4.75524e-06
6.89509e-05
4.18135e-06
6.86602e-05
3.66598e-06
6.82326e-05
2.26405e-06
6.7616e-05
2.5709e-06
6.72052e-05
4.06209e-06
6.66663e-05
-2.58812e-07
6.64449e-05
-7.63395e-07
6.65218e-05
8.31784e-07
6.64478e-05
1.72159e-06
6.474e-05
4.79582e-06
6.31489e-05
8.19665e-06
6.08196e-05
9.00672e-06
5.92506e-05
5.78495e-06
5.83203e-05
4.49489e-06
5.4829e-05
1.3298e-05
4.92983e-05
2.10826e-05
3.93003e-05
4.0418e-05
2.46239e-05
5.94132e-05
9.94109e-05
6.90467e-05
-7.41284e-06
6.93382e-05
-1.782e-05
6.94241e-05
5.89581e-06
6.88922e-05
5.2182e-06
6.8565e-05
4.70479e-06
6.81367e-05
2.84634e-06
6.75635e-05
3.14353e-06
6.71691e-05
5.03782e-06
6.66324e-05
-4.08101e-07
6.63788e-05
-9.29038e-07
6.64471e-05
1.01901e-06
6.64191e-05
2.12649e-06
6.46892e-05
5.96268e-06
6.30937e-05
1.03248e-05
6.08255e-05
1.12236e-05
5.91924e-05
7.40053e-06
5.83144e-05
5.30229e-06
5.46803e-05
1.70062e-05
4.90809e-05
2.66578e-05
3.90807e-05
5.04398e-05
2.44992e-05
7.40118e-05
0.000123893
6.90694e-05
-8.79461e-06
6.93065e-05
-2.1078e-05
6.92804e-05
7.31202e-06
6.86866e-05
6.35009e-06
6.84003e-05
5.748e-06
6.79745e-05
3.30854e-06
6.73656e-05
3.8977e-06
6.69839e-05
5.95272e-06
6.6457e-05
-5.60297e-07
6.62271e-05
-1.15774e-06
6.6298e-05
1.20305e-06
6.61974e-05
2.6341e-06
6.45165e-05
7.22313e-06
6.29665e-05
1.22238e-05
6.06777e-05
1.34641e-05
5.90428e-05
9.00398e-06
5.82336e-05
6.04462e-06
5.45426e-05
2.07737e-05
4.89271e-05
3.22601e-05
3.89112e-05
6.04682e-05
2.43989e-05
8.85348e-05
0.000148285
6.89599e-05
-1.00185e-05
6.91436e-05
-2.39244e-05
6.92019e-05
8.44436e-06
6.86802e-05
7.35606e-06
6.83381e-05
6.8142e-06
6.79032e-05
3.91703e-06
6.73374e-05
4.43905e-06
6.69659e-05
6.8894e-06
6.6439e-05
-7.475e-07
6.61694e-05
-1.28821e-06
6.62333e-05
1.40737e-06
6.61902e-05
3.03449e-06
6.44735e-05
8.37571e-06
6.29016e-05
1.4343e-05
6.06754e-05
1.56364e-05
5.90014e-05
1.06681e-05
5.81289e-05
6.85861e-06
5.43972e-05
2.45795e-05
4.88086e-05
3.78254e-05
3.87875e-05
7.05092e-05
2.43265e-05
0.000103011
0.000172595
6.90024e-05
-1.13019e-05
6.9146e-05
-2.68996e-05
6.90778e-05
9.89561e-06
6.84819e-05
8.48727e-06
6.81956e-05
7.87825e-06
6.7767e-05
4.37001e-06
6.71587e-05
5.20388e-06
6.67997e-05
7.75598e-06
6.62837e-05
-9.3062e-07
6.6045e-05
-1.49968e-06
6.61097e-05
1.61089e-06
6.59788e-05
3.56029e-06
6.43147e-05
9.65995e-06
6.27895e-05
1.6182e-05
6.05733e-05
1.77979e-05
5.89491e-05
1.22601e-05
5.79833e-05
7.77747e-06
5.42741e-05
2.83569e-05
4.87281e-05
4.33603e-05
3.87123e-05
8.05338e-05
2.42851e-05
0.000117447
0.000196875
6.88918e-05
-1.24262e-05
6.90014e-05
-2.94611e-05
6.90387e-05
1.10036e-05
6.85238e-05
9.47607e-06
6.81685e-05
8.96474e-06
6.77353e-05
4.98849e-06
6.7182e-05
5.69945e-06
6.68319e-05
8.65353e-06
6.63154e-05
-1.15434e-06
6.60328e-05
-1.59963e-06
6.60914e-05
1.83099e-06
6.60393e-05
3.94758e-06
6.43475e-05
1.07631e-05
6.27593e-05
1.83109e-05
6.06369e-05
1.9877e-05
5.89872e-05
1.39085e-05
5.77912e-05
8.94146e-06
5.41711e-05
3.20297e-05
4.86796e-05
4.88334e-05
3.86789e-05
9.05504e-05
2.42747e-05
0.000131866
0.000221134
6.89444e-05
-1.36246e-05
6.90172e-05
-3.221e-05
6.89198e-05
1.24618e-05
6.83242e-05
1.06096e-05
6.80389e-05
1.00465e-05
6.76097e-05
5.43069e-06
6.70054e-05
6.47001e-06
6.66691e-05
9.47211e-06
6.61614e-05
-1.36075e-06
6.59141e-05
-1.79302e-06
6.59759e-05
2.04769e-06
6.58116e-05
4.48921e-06
6.4168e-05
1.2082e-05
6.26744e-05
2.00775e-05
6.06939e-05
2.18047e-05
5.90405e-05
1.55356e-05
5.76354e-05
1.0322e-05
5.41109e-05
3.55969e-05
4.86549e-05
5.42827e-05
3.86828e-05
0.000100527
2.42949e-05
0.000146259
0.000245425
6.88299e-05
-1.46584e-05
6.88782e-05
-3.45176e-05
6.89057e-05
1.35247e-05
6.84e-05
1.15765e-05
6.80308e-05
1.11545e-05
6.75925e-05
6.0719e-06
6.70448e-05
6.93883e-06
6.67099e-05
1.03412e-05
6.61981e-05
-1.60553e-06
6.59054e-05
-1.86702e-06
6.59663e-05
2.26861e-06
6.58841e-05
4.87947e-06
6.42523e-05
1.31331e-05
6.26937e-05
2.21125e-05
6.07616e-05
2.3715e-05
5.90349e-05
1.72714e-05
5.74811e-05
1.18607e-05
5.40666e-05
3.90393e-05
4.86346e-05
5.97018e-05
3.87068e-05
0.000110467
2.43416e-05
0.000160638
0.00026975
6.88924e-05
-1.57809e-05
6.89103e-05
-3.70735e-05
6.8794e-05
1.4964e-05
6.82001e-05
1.27126e-05
6.79152e-05
1.22531e-05
6.74836e-05
6.50734e-06
6.68797e-05
7.71911e-06
6.65607e-05
1.11185e-05
6.60578e-05
-1.82509e-06
6.58016e-05
-2.04037e-06
6.58688e-05
2.48483e-06
6.56307e-05
5.46007e-06
6.40925e-05
1.44311e-05
6.26724e-05
2.37031e-05
6.07391e-05
2.56086e-05
5.90033e-05
1.89874e-05
5.73705e-05
1.34812e-05
5.40348e-05
4.23977e-05
4.86029e-05
6.51305e-05
3.87389e-05
0.000120332
2.44103e-05
0.00017497
0.000294159
6.87758e-05
-1.67347e-05
6.87823e-05
-3.91782e-05
6.88062e-05
1.59605e-05
6.83094e-05
1.36662e-05
6.79313e-05
1.33661e-05
6.74963e-05
7.15552e-06
6.69594e-05
8.1477e-06
6.66374e-05
1.19584e-05
6.61261e-05
-2.07911e-06
6.58231e-05
-2.08757e-06
6.58934e-05
2.6898e-06
6.56721e-05
5.94225e-06
6.41716e-05
1.54133e-05
6.26242e-05
2.55534e-05
6.06358e-05
2.75948e-05
5.8937e-05
2.06976e-05
5.72861e-05
1.51253e-05
5.39957e-05
4.5701e-05
4.85447e-05
7.0572e-05
3.87628e-05
0.000130124
2.44952e-05
0.00018925
0.000318638
6.8843e-05
-1.77846e-05
6.8818e-05
-4.15679e-05
6.86935e-05
1.73559e-05
6.81049e-05
1.48046e-05
6.78232e-05
1.4474e-05
6.73927e-05
7.58102e-06
6.67949e-05
8.92896e-06
6.6494e-05
1.26934e-05
6.59915e-05
-2.30146e-06
6.57251e-05
-2.23693e-06
6.57939e-05
2.90288e-06
6.53963e-05
6.61666e-06
6.40137e-05
1.66995e-05
6.24741e-05
2.71439e-05
6.04943e-05
2.95478e-05
5.88809e-05
2.22951e-05
5.72211e-05
1.67783e-05
5.39334e-05
4.90008e-05
4.8453e-05
7.6051e-05
3.87728e-05
0.000139802
2.45917e-05
0.000203433
0.000343229
6.87229e-05
-1.86605e-05
6.86915e-05
-4.34753e-05
6.87219e-05
1.82693e-05
6.82381e-05
1.57335e-05
6.78511e-05
1.55938e-05
6.74147e-05
8.2454e-06
6.68845e-05
9.33056e-06
6.65728e-05
1.35112e-05
6.60587e-05
-2.55476e-06
6.57508e-05
-2.26633e-06
6.58372e-05
3.08211e-06
6.5342e-05
7.30029e-06
6.3944e-05
1.77593e-05
6.2265e-05
2.90121e-05
6.03425e-05
3.14763e-05
5.88267e-05
2.38233e-05
5.71531e-05
1.84484e-05
5.38369e-05
5.23238e-05
4.83231e-05
8.15572e-05
3.87612e-05
0.000149373
2.46954e-05
0.000217511
0.000367909
6.87972e-05
-1.96433e-05
6.87385e-05
-4.57162e-05
6.8612e-05
1.96039e-05
6.80298e-05
1.68738e-05
6.77504e-05
1.67103e-05
6.732e-05
8.66412e-06
6.67256e-05
1.01143e-05
6.64405e-05
1.4207e-05
6.59319e-05
-2.76861e-06
6.56682e-05
-2.40119e-06
6.57526e-05
3.26961e-06
6.51213e-05
8.11831e-06
6.37564e-05
1.91426e-05
6.20424e-05
3.07153e-05
6.0206e-05
3.32933e-05
5.87775e-05
2.52386e-05
5.70704e-05
2.01509e-05
5.37017e-05
5.56994e-05
4.81556e-05
8.71028e-05
3.87285e-05
0.000158797
2.48038e-05
0.000231435
0.000392713
6.86755e-05
-2.04485e-05
6.86189e-05
-4.7462e-05
6.86574e-05
2.0425e-05
6.81863e-05
1.77867e-05
6.77963e-05
1.7818e-05
6.73653e-05
9.33171e-06
6.68454e-05
1.04789e-05
6.6543e-05
1.5001e-05
6.60109e-05
-2.99634e-06
6.57312e-05
-2.4435e-06
6.57881e-05
3.45941e-06
6.49875e-05
9.00574e-06
6.35706e-05
2.03258e-05
6.18223e-05
3.25886e-05
6.00864e-05
3.5039e-05
5.87202e-05
2.66164e-05
5.6962e-05
2.1907e-05
5.35257e-05
5.91398e-05
4.79504e-05
9.26714e-05
3.86725e-05
0.000168083
2.49147e-05
0.000245204
0.000417612
6.87532e-05
-2.13664e-05
6.8669e-05
-4.9573e-05
6.85469e-05
2.16844e-05
6.79722e-05
1.89313e-05
6.76974e-05
1.89372e-05
6.72711e-05
9.74003e-06
6.66852e-05
1.12562e-05
6.6421e-05
1.56521e-05
6.58943e-05
-3.18703e-06
6.56599e-05
-2.58753e-06
6.56939e-05
3.67813e-06
6.47683e-05
1.00156e-05
6.33498e-05
2.18102e-05
6.1625e-05
3.42763e-05
5.99825e-05
3.66663e-05
5.8652e-05
2.79355e-05
5.6823e-05
2.37322e-05
5.3308e-05
6.26591e-05
4.77105e-05
9.8269e-05
3.85971e-05
0.000177192
2.50276e-05
0.000258773
0.000442641
6.86292e-05
-2.21027e-05
6.85493e-05
-5.11596e-05
6.86035e-05
2.24038e-05
6.8147e-05
1.98192e-05
6.77522e-05
2.00394e-05
6.73231e-05
1.04181e-05
6.68106e-05
1.15938e-05
6.65208e-05
1.64214e-05
6.59622e-05
-3.37989e-06
6.57335e-05
-2.66219e-06
6.56959e-05
3.9187e-06
6.45961e-05
1.11361e-05
6.31431e-05
2.30981e-05
6.14492e-05
3.60687e-05
5.98874e-05
3.82387e-05
5.85645e-05
2.92696e-05
5.66477e-05
2.56473e-05
5.30481e-05
6.6262e-05
4.74387e-05
0.000103872
3.85036e-05
0.000186135
2.51424e-05
0.000272145
0.000467768
6.87124e-05
-2.29608e-05
6.86087e-05
-5.31525e-05
6.84947e-05
2.35786e-05
6.79275e-05
2.09689e-05
6.76555e-05
2.11633e-05
6.72324e-05
1.08185e-05
6.66526e-05
1.23651e-05
6.64057e-05
1.70329e-05
6.58615e-05
-3.5482e-06
6.56884e-05
-2.84651e-06
6.55755e-05
4.21877e-06
6.44154e-05
1.23315e-05
6.29473e-05
2.46485e-05
6.12974e-05
3.76725e-05
5.97966e-05
3.97264e-05
5.84559e-05
3.06002e-05
5.64326e-05
2.76671e-05
5.27471e-05
6.99503e-05
4.71416e-05
0.000109478
3.83985e-05
0.000194873
2.526e-05
0.000285281
0.00049303
6.85875e-05
-2.36342e-05
6.84926e-05
-5.46076e-05
6.85608e-05
2.4197e-05
6.81175e-05
2.18424e-05
6.7723e-05
2.22449e-05
6.73007e-05
1.1497e-05
6.67995e-05
1.2667e-05
6.65101e-05
1.77894e-05
6.59498e-05
-3.72696e-06
6.57799e-05
-2.96666e-06
6.54753e-05
4.62692e-06
6.42618e-05
1.35468e-05
6.27754e-05
2.5999e-05
6.11634e-05
3.93668e-05
5.97043e-05
4.11965e-05
5.83209e-05
3.19941e-05
5.61738e-05
2.98127e-05
5.24089e-05
7.37179e-05
4.68271e-05
0.000115054
3.82854e-05
0.000203423
2.53816e-05
0.000298196
0.000518397
6.86729e-05
-2.44338e-05
6.85546e-05
-5.64954e-05
6.8452e-05
2.52805e-05
6.78921e-05
2.30002e-05
6.76249e-05
2.3369e-05
6.72079e-05
1.18862e-05
6.66404e-05
1.34228e-05
6.64035e-05
1.83708e-05
6.58709e-05
-3.90169e-06
6.57528e-05
-3.18271e-06
6.52984e-05
5.16e-06
6.41136e-05
1.47511e-05
6.26219e-05
2.75751e-05
6.10452e-05
4.08935e-05
5.96074e-05
4.26228e-05
5.81588e-05
3.34332e-05
5.5872e-05
3.2096e-05
5.20426e-05
7.75488e-05
4.65068e-05
0.00012059
3.81725e-05
0.000211752
2.55089e-05
0.000310857
0.000543908
6.85465e-05
-2.5046e-05
6.84367e-05
-5.78172e-05
6.85262e-05
2.57911e-05
6.80975e-05
2.38475e-05
6.77005e-05
2.44398e-05
6.72817e-05
1.25705e-05
6.67908e-05
1.36968e-05
6.64964e-05
1.91233e-05
6.59559e-05
-4.08719e-06
6.57977e-05
-3.2946e-06
6.51634e-05
5.82168e-06
6.39831e-05
1.59287e-05
6.24889e-05
2.89525e-05
6.09373e-05
4.25206e-05
5.95025e-05
4.40685e-05
5.79667e-05
3.49795e-05
5.55314e-05
3.453e-05
5.16615e-05
8.14214e-05
4.6192e-05
0.000126054
3.80644e-05
0.000219888
2.56438e-05
0.000323288
0.000569537
6.86366e-05
-2.57921e-05
6.85078e-05
-5.96087e-05
6.8419e-05
2.67784e-05
6.78665e-05
2.50138e-05
6.76024e-05
2.55661e-05
6.71905e-05
1.29506e-05
6.66317e-05
1.444e-05
6.64006e-05
1.96823e-05
6.58829e-05
-4.27115e-06
6.57616e-05
-3.48236e-06
6.50463e-05
6.55839e-06
6.38632e-05
1.71256e-05
6.23711e-05
3.0529e-05
6.08375e-05
4.40034e-05
5.93885e-05
4.55066e-05
5.77475e-05
3.66111e-05
5.51641e-05
3.71099e-05
5.12832e-05
8.53026e-05
4.58946e-05
0.000131444
3.79688e-05
0.000227808
2.57886e-05
0.000335464
0.000595329
6.85099e-05
-2.63484e-05
6.83906e-05
-6.08197e-05
6.84967e-05
2.71902e-05
6.80825e-05
2.58447e-05
6.76893e-05
2.66076e-05
6.72784e-05
1.36324e-05
6.67962e-05
1.46857e-05
6.64975e-05
2.04312e-05
6.59581e-05
-4.44215e-06
6.57792e-05
-3.54396e-06
6.49588e-05
7.38544e-06
6.37591e-05
1.83221e-05
6.22685e-05
3.19124e-05
6.07416e-05
4.56006e-05
5.92642e-05
4.69953e-05
5.75046e-05
3.83811e-05
5.47854e-05
3.98282e-05
5.09248e-05
8.91656e-05
4.56229e-05
0.000136741
3.78894e-05
0.000235549
2.59455e-05
0.00034742
0.00062126
6.86018e-05
-2.70428e-05
6.84664e-05
-6.25262e-05
6.83915e-05
2.80804e-05
6.78446e-05
2.70245e-05
6.75857e-05
2.77323e-05
6.71825e-05
1.4e-05
6.6633e-05
1.54149e-05
6.64129e-05
2.09663e-05
6.58933e-05
-4.61462e-06
6.57301e-05
-3.64604e-06
6.48841e-05
8.23479e-06
6.36653e-05
1.95524e-05
6.21767e-05
3.34838e-05
6.06485e-05
4.70771e-05
5.9131e-05
4.85023e-05
5.72477e-05
4.0255e-05
5.44139e-05
4.26586e-05
5.06e-05
9.29792e-05
4.53831e-05
0.000141959
3.78322e-05
0.000243094
2.61168e-05
0.00035913
0.00064738
6.84742e-05
-2.75454e-05
6.83462e-05
-6.36267e-05
6.84751e-05
2.83879e-05
6.80742e-05
2.78305e-05
6.768e-05
2.87587e-05
6.72748e-05
1.46835e-05
6.67948e-05
1.56448e-05
6.65068e-05
2.17017e-05
6.59281e-05
-4.72824e-06
6.56737e-05
-3.53489e-06
6.48219e-05
9.08957e-06
6.35847e-05
2.07862e-05
6.20948e-05
3.48738e-05
6.05557e-05
4.86846e-05
5.89902e-05
5.00791e-05
5.69862e-05
4.22695e-05
5.40644e-05
4.55802e-05
5.03168e-05
9.67291e-05
4.51772e-05
0.000147094
3.77991e-05
0.00025048
2.63048e-05
0.000370636
0.000673672
6.85699e-05
-2.81927e-05
6.84307e-05
-6.52551e-05
6.83729e-05
2.9177e-05
6.78312e-05
2.90236e-05
6.75743e-05
2.98877e-05
6.7178e-05
1.50414e-05
6.66304e-05
1.63688e-05
6.64281e-05
2.221e-05
6.58729e-05
-4.85141e-06
6.55853e-05
-3.39549e-06
6.47699e-05
9.90396e-06
6.35122e-05
2.20541e-05
6.20196e-05
3.64478e-05
6.04632e-05
5.01891e-05
5.88455e-05
5.16864e-05
5.67317e-05
4.43739e-05
5.37482e-05
4.85607e-05
5.00777e-05
0.000100399
4.50059e-05
0.000152167
3.77939e-05
0.000257686
2.65114e-05
0.000381913
0.000700187
6.84422e-05
-2.8646e-05
6.83085e-05
-6.62625e-05
6.84555e-05
2.93917e-05
6.8068e-05
2.9814e-05
6.76787e-05
3.08836e-05
6.72801e-05
1.57234e-05
6.6801e-05
1.65866e-05
6.65154e-05
2.29402e-05
6.59026e-05
-4.89781e-06
6.55242e-05
-3.06312e-06
6.47268e-05
1.0705e-05
6.34494e-05
2.33282e-05
6.19501e-05
3.7852e-05
6.03699e-05
5.18358e-05
5.86996e-05
5.33682e-05
5.64911e-05
4.65927e-05
5.34702e-05
5.15819e-05
4.98814e-05
0.00010399
4.48672e-05
0.000157177
3.78166e-05
0.000264745
2.67383e-05
0.000393003
0.000726913
6.85389e-05
-2.92472e-05
6.83977e-05
-6.78197e-05
6.8356e-05
3.00814e-05
6.78181e-05
3.10237e-05
6.75654e-05
3.20138e-05
6.71774e-05
1.60707e-05
6.66346e-05
1.73032e-05
6.64418e-05
2.34315e-05
6.5873e-05
-4.98961e-06
6.54846e-05
-2.75046e-06
6.4691e-05
1.14973e-05
6.33917e-05
2.46368e-05
6.18837e-05
3.94397e-05
6.02767e-05
5.33904e-05
5.85564e-05
5.5078e-05
5.62705e-05
4.88692e-05
5.32316e-05
5.46183e-05
4.97242e-05
0.000107497
4.47592e-05
0.000162144
3.78692e-05
0.000271628
2.69868e-05
0.00040388
0.000753904
6.84107e-05
-2.9653e-05
6.82706e-05
-6.87301e-05
6.84428e-05
3.01965e-05
6.80676e-05
3.17857e-05
6.76771e-05
3.29968e-05
6.72825e-05
1.67547e-05
6.68041e-05
1.75134e-05
6.65115e-05
2.41698e-05
6.58929e-05
-5.00478e-06
6.54568e-05
-2.32191e-06
6.46604e-05
1.22983e-05
6.33405e-05
2.59535e-05
6.18199e-05
4.08689e-05
6.01832e-05
5.50932e-05
5.84179e-05
5.68547e-05
5.60713e-05
5.12257e-05
5.303e-05
5.76603e-05
4.96017e-05
0.000110927
4.46786e-05
0.000167063
3.79495e-05
0.000278365
2.72577e-05
0.000414584
0.00078115
6.85105e-05
-3.02122e-05
6.83692e-05
-7.02211e-05
6.8347e-05
3.0784e-05
6.78132e-05
3.30102e-05
6.7561e-05
3.41343e-05
6.71786e-05
1.70954e-05
6.66384e-05
1.82247e-05
6.64446e-05
2.46569e-05
6.58712e-05
-5.07009e-06
6.5438e-05
-1.93331e-06
6.4634e-05
1.31014e-05
6.32915e-05
2.73047e-05
6.17566e-05
4.24819e-05
6.00906e-05
5.67065e-05
5.82863e-05
5.86485e-05
5.58943e-05
5.36086e-05
5.28621e-05
6.06904e-05
4.95093e-05
0.000114279
4.4623e-05
0.000171951
3.80581e-05
0.000284924
2.75512e-05
0.000425085
0.000808707
6.83825e-05
-3.05744e-05
6.82373e-05
-7.1048e-05
6.84287e-05
3.08153e-05
6.80686e-05
3.37499e-05
6.76841e-05
3.50846e-05
6.72922e-05
1.77829e-05
6.68166e-05
1.84279e-05
6.6511e-05
2.53995e-05
6.58839e-05
-5.04011e-06
6.54218e-05
-1.467e-06
6.46104e-05
1.39183e-05
6.32458e-05
2.86661e-05
6.16937e-05
4.39447e-05
5.99987e-05
5.84667e-05
5.81623e-05
6.04964e-05
5.57379e-05
5.60424e-05
5.27236e-05
6.37055e-05
4.94428e-05
0.000117562
4.45892e-05
0.000176801
3.81917e-05
0.00029133
2.78672e-05
0.000435421
0.000836563
6.84833e-05
-3.10935e-05
6.83427e-05
-7.24785e-05
6.83373e-05
3.13061e-05
6.78057e-05
3.49925e-05
6.75563e-05
3.62284e-05
6.71801e-05
1.81189e-05
6.66469e-05
1.91298e-05
6.64491e-05
2.58851e-05
6.58662e-05
-5.06184e-06
6.5409e-05
-1.03951e-06
6.45888e-05
1.47381e-05
6.31999e-05
3.00633e-05
6.16294e-05
4.55916e-05
5.99081e-05
6.01346e-05
5.80464e-05
6.23477e-05
5.56007e-05
5.84792e-05
5.26109e-05
6.66934e-05
4.93987e-05
0.000120773
4.45752e-05
0.000181626
3.83501e-05
0.000297548
2.82056e-05
0.00044556
0.000864775
6.83552e-05
-3.14135e-05
6.82061e-05
-7.32232e-05
6.84217e-05
3.12474e-05
6.80728e-05
3.57047e-05
6.76875e-05
3.71626e-05
6.72991e-05
1.8809e-05
6.68275e-05
1.93212e-05
6.65042e-05
2.66431e-05
6.5866e-05
-4.97721e-06
6.53955e-05
-5.58401e-07
6.45686e-05
1.55711e-05
6.31545e-05
3.1474e-05
6.15637e-05
4.70988e-05
5.98184e-05
6.19475e-05
5.79381e-05
6.42387e-05
5.54804e-05
6.09463e-05
5.25204e-05
6.96543e-05
4.93737e-05
0.000123922
4.45784e-05
0.000186418
3.85305e-05
0.000303605
2.8566e-05
0.000455536
0.00089333
6.8459e-05
-3.18969e-05
6.83209e-05
-7.45965e-05
6.83368e-05
3.16381e-05
6.7807e-05
3.69618e-05
6.7554e-05
3.83251e-05
6.71797e-05
1.91477e-05
6.66546e-05
2.0014e-05
6.64354e-05
2.71454e-05
6.58398e-05
-4.9455e-06
6.53841e-05
-1.2524e-07
6.4549e-05
1.64066e-05
6.31065e-05
3.29244e-05
6.14952e-05
4.87857e-05
5.973e-05
6.36596e-05
5.78371e-05
6.61208e-05
5.53752e-05
6.33996e-05
5.24494e-05
7.25784e-05
4.93656e-05
0.000127005
4.45974e-05
0.000191188
3.87328e-05
0.000309463
2.89485e-05
0.000465314
0.000922286
6.83315e-05
-3.21803e-05
6.81756e-05
-7.52638e-05
6.84117e-05
3.15085e-05
6.80766e-05
3.76482e-05
6.76923e-05
3.92412e-05
6.72966e-05
1.98578e-05
6.68465e-05
2.01838e-05
6.64172e-05
2.79947e-05
6.57745e-05
-4.68742e-06
6.53732e-05
2.87254e-07
6.45297e-05
1.72568e-05
6.30566e-05
3.43943e-05
6.1424e-05
5.03347e-05
5.96419e-05
6.55085e-05
5.77424e-05
6.80312e-05
5.5283e-05
6.5868e-05
5.23952e-05
7.54672e-05
4.93724e-05
0.00013003
4.46301e-05
0.000195928
3.89553e-05
0.000315146
2.93533e-05
0.000474927
0.000951628
6.84353e-05
-3.26302e-05
6.82974e-05
-7.65818e-05
6.83313e-05
3.18068e-05
6.78018e-05
3.89223e-05
6.755e-05
4.04174e-05
6.71693e-05
2.02073e-05
6.66807e-05
2.08412e-05
6.63045e-05
2.86399e-05
6.576e-05
-4.46052e-06
6.53724e-05
6.55665e-07
6.45095e-05
1.81213e-05
6.30016e-05
3.59099e-05
6.13486e-05
5.20636e-05
5.95544e-05
6.72483e-05
5.76534e-05
6.99207e-05
5.52025e-05
6.83104e-05
5.23564e-05
7.83115e-05
4.93927e-05
0.000132993
4.46756e-05
0.000200646
3.91984e-05
0.000320616
2.9781e-05
0.000484339
0.000981418
6.83066e-05
-3.2876e-05
6.81442e-05
-7.71675e-05
6.84072e-05
3.15949e-05
6.80835e-05
3.95683e-05
6.76966e-05
4.13245e-05
6.72921e-05
2.09358e-05
6.6863e-05
2.09895e-05
6.62976e-05
2.96131e-05
6.57801e-05
-4.03993e-06
6.53816e-05
1.06539e-06
6.44878e-05
1.90223e-05
6.29426e-05
3.74522e-05
6.12692e-05
5.36522e-05
5.94663e-05
6.91168e-05
5.7569e-05
7.18293e-05
5.51317e-05
7.07562e-05
5.23312e-05
8.11132e-05
4.94255e-05
0.000135901
4.4732e-05
0.000205337
3.94606e-05
0.000325896
3.02323e-05
0.000493579
0.00101164
6.84138e-05
-3.32965e-05
6.82799e-05
-7.8436e-05
6.83359e-05
3.17971e-05
6.78115e-05
4.08498e-05
6.75588e-05
4.25085e-05
6.71735e-05
2.12955e-05
6.67065e-05
2.16194e-05
6.62764e-05
3.02683e-05
6.58474e-05
-3.72425e-06
6.54024e-05
1.49211e-06
6.44636e-05
1.99637e-05
6.28764e-05
3.90474e-05
6.11846e-05
5.5424e-05
5.93778e-05
7.08657e-05
5.74887e-05
7.37056e-05
5.50697e-05
7.31661e-05
5.23188e-05
8.38623e-05
4.94705e-05
0.000138748
4.47983e-05
0.000210011
3.97417e-05
0.000330946
3.0707e-05
0.000502608
0.00104236
6.82884e-05
-3.35279e-05
6.8127e-05
-7.89668e-05
6.83988e-05
3.15425e-05
6.80836e-05
4.14841e-05
6.77061e-05
4.33843e-05
6.73038e-05
2.20228e-05
6.68804e-05
2.17635e-05
6.63408e-05
3.11701e-05
6.59136e-05
-3.28966e-06
6.54291e-05
1.98874e-06
6.44361e-05
2.09644e-05
6.28044e-05
4.06753e-05
6.1095e-05
5.7031e-05
5.92878e-05
7.27469e-05
5.74114e-05
7.55965e-05
5.5015e-05
7.55722e-05
5.23182e-05
8.65607e-05
4.95273e-05
0.000141542
4.48723e-05
0.000214663
4.00371e-05
0.00033579
3.1204e-05
0.000511453
0.00107355
6.8407e-05
-3.39553e-05
6.83208e-05
-8.02187e-05
6.83878e-05
3.16486e-05
6.78528e-05
4.27736e-05
6.75787e-05
4.45713e-05
6.71844e-05
2.24248e-05
6.67986e-05
2.22625e-05
6.64088e-05
3.16679e-05
6.59891e-05
-2.93424e-06
6.54595e-05
2.4982e-06
6.44043e-05
2.20223e-05
6.27235e-05
4.2365e-05
6.09996e-05
5.88429e-05
5.91969e-05
7.44856e-05
5.73371e-05
7.74416e-05
5.49668e-05
7.79326e-05
5.23288e-05
8.91968e-05
4.95964e-05
0.000144273
4.49525e-05
0.000219309
4.03407e-05
0.000340395
3.17184e-05
0.00052007
0.00110528
6.83461e-05
-3.42827e-05
6.82941e-05
-8.07916e-05
6.85569e-05
3.13609e-05
6.82083e-05
4.34063e-05
6.78023e-05
4.54449e-05
6.73526e-05
2.31984e-05
6.70237e-05
2.23157e-05
6.65253e-05
3.23927e-05
6.60572e-05
-2.44539e-06
6.549e-05
3.07722e-06
6.43675e-05
2.31522e-05
6.26356e-05
4.40929e-05
6.08991e-05
6.04769e-05
5.91045e-05
7.63545e-05
5.72652e-05
7.9296e-05
5.49236e-05
8.0284e-05
5.23499e-05
9.17723e-05
4.9678e-05
0.000146948
4.50361e-05
0.000223948
4.06377e-05
0.000344802
3.22398e-05
0.000528479
0.00113751
6.85938e-05
-3.49565e-05
6.87448e-05
-8.22465e-05
6.87625e-05
3.14484e-05
6.8112e-05
4.48544e-05
6.77865e-05
4.67212e-05
6.73399e-05
2.36616e-05
6.70134e-05
2.27516e-05
6.66039e-05
3.27677e-05
6.61234e-05
-2.01008e-06
6.55191e-05
3.66343e-06
6.43233e-05
2.43494e-05
6.25372e-05
4.58868e-05
6.07937e-05
6.231e-05
5.90124e-05
7.80732e-05
5.71973e-05
8.10959e-05
5.48856e-05
8.25863e-05
5.238e-05
9.4276e-05
4.97727e-05
0.000149554
4.51213e-05
0.000228602
4.09184e-05
0.000348997
3.28405e-05
0.00053655
0.00117036
-8.91447e-06
8.9285e-06
-1.00786e-05
1.16147e-06
-5.86878e-06
-4.211e-06
-1.07351e-06
-4.79235e-06
3.62592e-06
-4.68598e-06
9.49232e-06
-5.87068e-06
1.41008e-05
-4.60791e-06
1.83225e-05
-4.22053e-06
2.16854e-05
-3.36439e-06
2.48841e-05
-3.2021e-06
2.82042e-05
-3.28692e-06
3.12701e-05
-3.09364e-06
3.38807e-05
-2.61048e-06
3.63858e-05
-2.50325e-06
3.91324e-05
-2.7461e-06
4.21755e-05
-3.04304e-06
4.53183e-05
-3.14435e-06
4.84151e-05
-3.09803e-06
5.15222e-05
-3.11281e-06
5.50463e-05
-3.52321e-06
5.8928e-05
-3.8924e-06
6.20128e-05
-3.07775e-06
6.37336e-05
-1.72015e-06
6.46118e-05
-8.78183e-07
6.51661e-05
-5.54142e-07
6.56007e-05
-4.34226e-07
6.59823e-05
-3.81568e-07
6.63359e-05
-3.53527e-07
6.66535e-05
-3.22986e-07
6.69111e-05
-2.53651e-07
6.70987e-05
-1.85404e-07
6.72429e-05
-1.47099e-07
6.73763e-05
-1.29221e-07
6.74821e-05
-1.09599e-07
-3.01792e-08
-8.76054e-06
1.77152e-05
-9.48023e-06
1.87836e-06
-5.73771e-06
-7.95535e-06
-1.24319e-06
-9.28092e-06
3.38806e-06
-9.29169e-06
9.44368e-06
-1.19322e-05
1.42722e-05
-9.43457e-06
1.85077e-05
-8.45274e-06
2.1877e-05
-6.73547e-06
2.49989e-05
-6.32967e-06
2.81568e-05
-6.38927e-06
3.11614e-05
-6.14345e-06
3.37868e-05
-5.2353e-06
3.62727e-05
-4.98545e-06
3.89567e-05
-5.429e-06
4.18941e-05
-5.9801e-06
4.49332e-05
-6.18612e-06
4.79126e-05
-6.07989e-06
5.08555e-05
-6.06611e-06
5.42624e-05
-6.92858e-06
5.83002e-05
-7.9495e-06
6.17087e-05
-6.47332e-06
6.36059e-05
-3.61617e-06
6.45419e-05
-1.81411e-06
6.51186e-05
-1.13049e-06
6.55628e-05
-8.77771e-07
6.59507e-05
-7.69297e-07
6.63086e-05
-7.11333e-07
6.6631e-05
-6.55242e-07
6.68923e-05
-5.07576e-07
6.70825e-05
-3.7145e-07
6.723e-05
-3.00226e-07
6.73641e-05
-2.55657e-07
6.74727e-05
-2.25357e-07
-6.10555e-08
-8.27577e-06
2.60146e-05
-8.97653e-06
2.57334e-06
-5.54696e-06
-1.13869e-05
-1.23004e-06
-1.3593e-05
3.49123e-06
-1.39904e-05
9.67286e-06
-1.81216e-05
1.45927e-05
-1.43538e-05
1.88066e-05
-1.26651e-05
2.21618e-05
-1.00935e-05
2.51948e-05
-9.36845e-06
2.82061e-05
-9.3457e-06
3.11454e-05
-9.12794e-06
3.37742e-05
-7.86398e-06
3.62526e-05
-7.46063e-06
3.88695e-05
-8.04523e-06
4.1702e-05
-8.81263e-06
4.46288e-05
-9.11569e-06
4.74928e-05
-8.94653e-06
5.0294e-05
-8.87721e-06
5.3605e-05
-1.02382e-05
5.77733e-05
-1.21352e-05
6.14403e-05
-1.01279e-05
6.34852e-05
-5.66006e-06
6.44725e-05
-2.80141e-06
6.50696e-05
-1.72731e-06
6.55237e-05
-1.33124e-06
6.59177e-05
-1.16318e-06
6.62803e-05
-1.07386e-06
6.66071e-05
-9.91382e-07
6.68725e-05
-7.65878e-07
6.70658e-05
-5.60829e-07
6.72155e-05
-4.55317e-07
6.73517e-05
-3.84429e-07
6.74622e-05
-3.42798e-07
-9.30429e-08
-7.76964e-06
3.38083e-05
-8.4578e-06
3.25888e-06
-5.27567e-06
-1.45704e-05
-1.01453e-06
-1.78487e-05
3.83675e-06
-1.88179e-05
1.00859e-05
-2.43753e-05
1.50335e-05
-1.92995e-05
1.91979e-05
-1.68264e-05
2.25222e-05
-1.34191e-05
2.54738e-05
-1.23249e-05
2.83517e-05
-1.2175e-05
3.12224e-05
-1.20368e-05
3.38485e-05
-1.04894e-05
3.63211e-05
-9.92962e-06
3.88729e-05
-1.05958e-05
4.15902e-05
-1.15296e-05
4.43916e-05
-1.192e-05
4.71395e-05
-1.16972e-05
4.98265e-05
-1.15747e-05
5.30817e-05
-1.3492e-05
5.7356e-05
-1.6426e-05
6.12116e-05
-1.39715e-05
6.33717e-05
-7.81894e-06
6.44033e-05
-3.83297e-06
6.50197e-05
-2.34337e-06
6.54834e-05
-1.79435e-06
6.58836e-05
-1.56317e-06
6.6251e-05
-1.4412e-06
6.65823e-05
-1.33196e-06
6.68517e-05
-1.02795e-06
6.70482e-05
-7.53391e-07
6.72003e-05
-6.1298e-07
6.73385e-05
-5.15218e-07
6.74511e-05
-4.62587e-07
-1.26049e-07
-7.24861e-06
4.10784e-05
-7.91403e-06
3.91705e-06
-4.92001e-06
-1.7566e-05
-6.11122e-07
-2.21533e-05
4.39961e-06
-2.38092e-05
1.06483e-05
-3.0632e-05
1.55617e-05
-2.42128e-05
1.96573e-05
-2.09215e-05
2.29386e-05
-1.6703e-05
2.58229e-05
-1.52145e-05
2.85899e-05
-1.48985e-05
3.1391e-05
-1.48727e-05
3.4006e-05
-1.31043e-05
3.64754e-05
-1.23964e-05
3.89699e-05
-1.30899e-05
4.15679e-05
-1.41277e-05
4.42298e-05
-1.45851e-05
4.68545e-05
-1.43247e-05
4.94484e-05
-1.41786e-05
5.26822e-05
-1.67245e-05
5.70408e-05
-2.07985e-05
6.10222e-05
-1.79416e-05
6.32657e-05
-1.00615e-05
6.43347e-05
-4.90201e-06
6.49692e-05
-2.97765e-06
6.54425e-05
-2.26714e-06
6.58488e-05
-1.96926e-06
6.6221e-05
-1.81342e-06
6.65568e-05
-1.67644e-06
6.68302e-05
-1.29433e-06
6.70299e-05
-9.494e-07
6.71844e-05
-7.72708e-07
6.73247e-05
-6.48517e-07
6.74394e-05
-5.84057e-07
-1.60099e-07
-6.71383e-06
4.78146e-05
-7.33536e-06
4.53507e-06
-4.47915e-06
-2.04232e-05
-4.33312e-08
-2.65841e-05
5.13894e-06
-2.8971e-05
1.13153e-05
-3.68113e-05
1.61423e-05
-2.9038e-05
2.01596e-05
-2.49361e-05
2.33916e-05
-1.99357e-05
2.62249e-05
-1.80519e-05
2.89067e-05
-1.75424e-05
3.16388e-05
-1.7633e-05
3.42316e-05
-1.56965e-05
3.66991e-05
-1.48608e-05
3.915e-05
-1.55396e-05
4.16365e-05
-1.66138e-05
4.41535e-05
-1.71051e-05
4.66471e-05
-1.68215e-05
4.91588e-05
-1.6701e-05
5.23925e-05
-1.99571e-05
5.68147e-05
-2.52345e-05
6.08694e-05
-2.19852e-05
6.31677e-05
-1.23586e-05
6.42672e-05
-6.0014e-06
6.49186e-05
-3.62875e-06
6.54013e-05
-2.74914e-06
6.58135e-05
-2.3813e-06
6.61907e-05
-2.19051e-06
6.6531e-05
-2.02572e-06
6.68082e-05
-1.56403e-06
6.70111e-05
-1.14848e-06
6.71681e-05
-9.35353e-07
6.73104e-05
-7.8364e-07
6.74272e-05
-7.08171e-07
-1.9507e-07
-6.16485e-06
5.40001e-05
-6.71363e-06
5.07469e-06
-3.95418e-06
-2.31844e-05
6.52945e-07
-3.11874e-05
5.99515e-06
-3.42988e-05
1.2038e-05
-4.28618e-05
1.67439e-05
-3.37444e-05
2.06822e-05
-2.88747e-05
2.38645e-05
-2.31205e-05
2.66621e-05
-2.08544e-05
2.92813e-05
-2.0131e-05
3.19445e-05
-2.03195e-05
3.45036e-05
-1.82557e-05
3.6969e-05
-1.73242e-05
3.93912e-05
-1.79616e-05
4.17836e-05
-1.90066e-05
4.41631e-05
-1.94874e-05
4.65232e-05
-1.91846e-05
4.89568e-05
-1.9144e-05
5.21982e-05
-2.31974e-05
5.66631e-05
-2.97105e-05
6.07493e-05
-2.60612e-05
6.30779e-05
-1.46863e-05
6.42013e-05
-7.12496e-06
6.48684e-05
-4.29565e-06
6.53602e-05
-3.24039e-06
6.57783e-05
-2.7992e-06
6.61602e-05
-2.57244e-06
6.65051e-05
-2.37873e-06
6.67859e-05
-1.83777e-06
6.6992e-05
-1.35102e-06
6.71515e-05
-1.10013e-06
6.72959e-05
-9.21361e-07
6.74148e-05
-8.33924e-07
-2.30994e-07
-5.60047e-06
5.96218e-05
-6.04351e-06
5.51239e-06
-3.34976e-06
-2.58785e-05
1.43079e-06
-3.59635e-05
6.89724e-06
-3.97498e-05
1.27701e-05
-4.87361e-05
1.73411e-05
-3.83137e-05
2.12064e-05
-3.27377e-05
2.43433e-05
-2.62578e-05
2.71177e-05
-2.36322e-05
2.96904e-05
-2.2677e-05
3.22844e-05
-2.2932e-05
3.48014e-05
-2.07722e-05
3.72643e-05
-1.97845e-05
3.96702e-05
-2.03664e-05
4.19882e-05
-2.13243e-05
4.42469e-05
-2.17489e-05
4.648e-05
-2.1421e-05
4.88375e-05
-2.15117e-05