/*--------------------------------*- C++ -*----------------------------------*\
| =========                 |                                                 |
| \\      /  F ield         | OpenFOAM: The Open Source CFD Toolbox           |
|  \\    /   O peration     | Version:  v1912                                 |
|   \\  /    A nd           | Website:  www.openfoam.com                      |
|    \\/     M anipulation  |                                                 |
\*---------------------------------------------------------------------------*/
FoamFile
{
    version     2.0;
    format      ascii;
    class       volVectorField;
    location    "30";
    object      U;
}
// * * * * * * * * * * * * * * * * * * * * * * * * * * * * * * * * * * * * * //

dimensions      [0 1 -1 0 0 0 0];


internalField   nonuniform List<vector> 
12441
(
(29.7817 -0.00116079 0)
(30.8355 -0.0031989 0)
(30.5269 0.00199201 0)
(30.4679 0.00110118 0)
(30.325 0.000238126 0)
(30.296 -0.000148235 0)
(30.2127 0.00106655 0)
(29.7657 0.0014616 0)
(29.6766 0.000199682 0)
(29.5235 -0.000255855 0)
(29.3249 0.000602202 0)
(29.1493 0.00128256 0)
(29.0881 0.0042085 0)
(28.2691 0.0083797 0)
(27.5995 0.00982136 0)
(26.6209 0.00642357 0)
(26.1074 0.00818431 0)
(25.1979 0.0181371 0)
(23.6262 0.0357565 0)
(20.7196 0.0819548 0)
(14.9861 0.136438 0)
(7.75841 0.248595 0)
(29.7424 -0.00376538 0)
(31.0649 -0.00944243 0)
(30.6858 0.00264372 0)
(30.5949 0.00345113 0)
(30.2846 0.00280283 0)
(30.2378 0.00332555 0)
(30.1302 0.00182603 0)
(29.6211 0.00607421 0)
(29.5757 -0.000467285 0)
(29.4776 -0.000914515 0)
(29.3478 0.00300399 0)
(29.1956 0.00441463 0)
(29.0967 0.0120193 0)
(28.2148 0.0231516 0)
(27.4984 0.0285567 0)
(26.4438 0.0186013 0)
(26.0272 0.0240544 0)
(25.1499 0.0574958 0)
(23.5028 0.104807 0)
(20.566 0.238318 0)
(14.9221 0.393418 0)
(7.70589 0.741392 0)
(29.7598 -0.00627552 0)
(30.9621 -0.0172459 0)
(30.617 0.00567147 0)
(30.5514 0.00608789 0)
(30.2733 0.0057913 0)
(30.1875 0.00444989 0)
(30.1135 0.00492645 0)
(29.6008 0.00987097 0)
(29.5621 -0.000370459 0)
(29.453 -0.00178413 0)
(29.3112 0.00350973 0)
(29.1633 0.00635179 0)
(29.0917 0.0197968 0)
(28.1649 0.0390995 0)
(27.4919 0.0479075 0)
(26.4377 0.0336847 0)
(25.993 0.0353973 0)
(25.0906 0.0971477 0)
(23.3924 0.169505 0)
(20.424 0.390648 0)
(14.8236 0.65068 0)
(7.64839 1.22605 0)
(29.768 -0.0088153 0)
(30.955 -0.0241514 0)
(30.5549 0.00855019 0)
(30.4704 0.00867078 0)
(30.1696 0.00846845 0)
(30.1341 0.00607181 0)
(30.0233 0.0075868 0)
(29.529 0.0136386 0)
(29.4904 -0.000827512 0)
(29.3906 -0.00304156 0)
(29.2549 0.00409975 0)
(29.1025 0.00876575 0)
(28.9938 0.0281014 0)
(28.1334 0.0549448 0)
(27.4406 0.0678738 0)
(26.3789 0.0487563 0)
(25.9442 0.0444889 0)
(25.0553 0.141254 0)
(23.2801 0.258475 0)
(20.2933 0.549976 0)
(14.727 0.908754 0)
(7.59823 1.71083 0)
(29.7849 -0.0112276 0)
(30.8531 -0.0304692 0)
(30.493 0.0110154 0)
(30.4285 0.0112522 0)
(30.1581 0.0112692 0)
(30.0647 0.00760461 0)
(30.0037 0.00938235 0)
(29.5049 0.0171762 0)
(29.4821 -0.00145721 0)
(29.3696 -0.0040554 0)
(29.218 0.00493563 0)
(29.0734 0.0115849 0)
(29.0022 0.0365364 0)
(28.0855 0.0710706 0)
(27.4379 0.0873408 0)
(26.3799 0.0642735 0)
(25.9189 0.0538065 0)
(25.0267 0.186908 0)
(23.2051 0.332185 0)
(20.1848 0.705939 0)
(14.6395 1.16475 0)
(7.55633 2.19264 0)
(29.7895 -0.0134884 0)
(30.8705 -0.0366514 0)
(30.4445 0.0139439 0)
(30.3558 0.0138129 0)
(30.0526 0.0139235 0)
(30.0232 0.00920027 0)
(29.9062 0.012072 0)
(29.4255 0.0209498 0)
(29.3982 -0.00204244 0)
(29.2985 -0.00497786 0)
(29.1552 0.006068 0)
(29.005 0.0143607 0)
(28.8833 0.0448756 0)
(28.0464 0.0863722 0)
(27.3699 0.106818 0)
(26.3136 0.0797936 0)
(25.8566 0.0612805 0)
(24.9916 0.232973 0)
(23.1508 0.406269 0)
(20.1035 0.860586 0)
(14.5676 1.41878 0)
(7.52221 2.67238 0)
(29.8047 -0.0156946 0)
(30.7679 -0.042238 0)
(30.3959 0.0163877 0)
(30.3353 0.0163541 0)
(30.0655 0.0168481 0)
(29.9593 0.010748 0)
(29.9018 0.0136414 0)
(29.4084 0.0243168 0)
(29.3989 -0.00273852 0)
(29.2826 -0.0057215 0)
(29.1204 0.00704735 0)
(28.9824 0.0172449 0)
(28.9036 0.0531847 0)
(27.9943 0.102042 0)
(27.3628 0.125529 0)
(26.3122 0.0959241 0)
(25.8124 0.0696292 0)
(24.9405 0.278469 0)
(23.1029 0.4826 0)
(20.0436 1.01572 0)
(14.5129 1.67205 0)
(7.49676 3.15077 0)
(29.8067 -0.0177595 0)
(30.8036 -0.0478488 0)
(30.3598 0.0194599 0)
(30.2682 0.0188612 0)
(29.9611 0.0195132 0)
(29.9354 0.0123976 0)
(29.8104 0.0166596 0)
(29.3393 0.0279842 0)
(29.3216 -0.00352558 0)
(29.2224 -0.00666865 0)
(29.0705 0.00817893 0)
(28.9239 0.0198308 0)
(28.784 0.0613666 0)
(27.9675 0.116613 0)
(27.2983 0.143942 0)
(26.2775 0.111715 0)
(25.7678 0.0804572 0)
(24.8931 0.324533 0)
(23.0616 0.55948 0)
(20.0046 1.17169 0)
(14.4785 1.92479 0)
(7.47985 3.6279 0)
(29.8202 -0.0198053 0)
(30.7012 -0.0528682 0)
(30.3268 0.0217785 0)
(30.2665 0.0214109 0)
(29.9972 0.0225939 0)
(29.8802 0.0139836 0)
(29.8312 0.01783 0)
(29.3427 0.0310517 0)
(29.3459 -0.00437892 0)
(29.2267 -0.0072779 0)
(29.0553 0.00923728 0)
(28.9226 0.0228247 0)
(28.8417 0.0696648 0)
(27.9488 0.132297 0)
(27.2987 0.162024 0)
(26.3091 0.128812 0)
(25.7341 0.092521 0)
(24.8324 0.369288 0)
(23.029 0.635472 0)
(19.9818 1.32788 0)
(14.463 2.17693 0)
(7.47243 4.10446 0)
(29.8216 -0.0217071 0)
(30.7454 -0.0580458 0)
(30.2947 0.024937 0)
(30.2001 0.0238746 0)
(29.8909 0.0252424 0)
(29.8688 0.0155963 0)
(29.7373 0.0210798 0)
(29.2776 0.0346566 0)
(29.268 -0.00531616 0)
(29.1681 -0.00818333 0)
(29.0084 0.0104511 0)
(28.8681 0.0253721 0)
(28.7051 0.0776146 0)
(27.9282 0.146021 0)
(27.2712 0.181037 0)
(26.3432 0.145207 0)
(25.7208 0.104806 0)
(24.7878 0.412803 0)
(23.0064 0.711293 0)
(19.9721 1.48387 0)
(14.4664 2.42871 0)
(7.4742 4.58091 0)
(29.8343 -0.0236146 0)
(30.6402 -0.0625626 0)
(30.2695 0.0271149 0)
(30.2121 0.0264175 0)
(29.943 0.0284272 0)
(29.815 0.0172163 0)
(29.7688 0.0219144 0)
(29.2849 0.0374498 0)
(29.2961 -0.00627411 0)
(29.1733 -0.00864069 0)
(28.9954 0.0116059 0)
(28.8719 0.0285369 0)
(28.7733 0.0857365 0)
(27.9498 0.160699 0)
(27.2852 0.197966 0)
(26.348 0.159667 0)
(25.6922 0.119629 0)
(24.7486 0.456785 0)
(22.9888 0.787216 0)
(19.9656 1.63901 0)
(14.4841 2.67996 0)
(7.48578 5.05817 0)
(29.8347 -0.0253709 0)
(30.6932 -0.0673682 0)
(30.2435 0.0303156 0)
(30.1464 0.0288434 0)
(29.8359 0.0310652 0)
(29.8162 0.0188354 0)
(29.6774 0.0254478 0)
(29.2272 0.0410685 0)
(29.2229 -0.00728324 0)
(29.1219 -0.00947419 0)
(28.9543 0.012817 0)
(28.8273 0.0313123 0)
(28.6216 0.0927175 0)
(27.9644 0.174965 0)
(27.257 0.21405 0)
(26.3243 0.175337 0)
(25.6726 0.137077 0)
(24.7249 0.500139 0)
(22.9683 0.862693 0)
(19.9553 1.79293 0)
(14.513 2.93071 0)
(7.50636 5.53647 0)
(29.8464 -0.0271524 0)
(30.5869 -0.0714825 0)
(30.2288 0.0322861 0)
(30.1707 0.0314112 0)
(29.9046 0.0343603 0)
(29.7681 0.0204881 0)
(29.7288 0.0259492 0)
(29.2504 0.043607 0)
(29.2669 -0.00827879 0)
(29.1392 -0.00978008 0)
(28.9558 0.0139878 0)
(28.8455 0.035003 0)
(28.6777 0.0995181 0)
(27.9808 0.190251 0)
(27.195 0.23028 0)
(26.2705 0.19169 0)
(25.6553 0.155605 0)
(24.7077 0.541993 0)
(22.9386 0.937736 0)
(19.933 1.94538 0)
(14.5474 3.18047 0)
(7.5361 6.01654 0)
(29.8472 -0.0287747 0)
(30.6433 -0.0759789 0)
(30.2032 0.0354652 0)
(30.1037 0.0337813 0)
(29.7949 0.0369483 0)
(29.7778 0.0220755 0)
(29.6341 0.0296585 0)
(29.1961 0.0471748 0)
(29.1954 -0.00933349 0)
(29.0911 -0.0105232 0)
(28.9164 0.0150325 0)
(28.7961 0.0377584 0)
(28.5493 0.107633 0)
(27.9393 0.203701 0)
(27.1 0.246577 0)
(26.2217 0.208027 0)
(25.6455 0.174122 0)
(24.6887 0.582636 0)
(22.8947 1.01282 0)
(19.8965 2.09635 0)
(14.5844 3.42907 0)
(7.57378 6.49826 0)
(29.8583 -0.0304376 0)
(30.5344 -0.0797033 0)
(30.1924 0.0372155 0)
(30.1377 0.0363636 0)
(29.8746 0.0403157 0)
(29.7296 0.023729 0)
(29.6933 0.029889 0)
(29.2206 0.0494807 0)
(29.24 -0.0103277 0)
(29.107 -0.010685 0)
(28.9229 0.0161534 0)
(28.8237 0.0421566 0)
(28.54 0.117236 0)
(27.8552 0.216923 0)
(26.9957 0.263096 0)
(26.1782 0.223608 0)
(25.6349 0.192462 0)
(24.6592 0.622945 0)
(22.8346 1.08829 0)
(19.8431 2.24563 0)
(14.6199 3.67582 0)
(7.61929 6.9822 0)
(29.8585 -0.0319335 0)
(30.5971 -0.0839176 0)
(30.1709 0.0403342 0)
(30.0694 0.0386637 0)
(29.7629 0.0428685 0)
(29.7474 0.0253608 0)
(29.5987 0.0337726 0)
(29.1711 0.0530325 0)
(29.1736 -0.0113742 0)
(29.061 -0.0113006 0)
(28.8944 0.0170397 0)
(28.7747 0.0457243 0)
(28.4467 0.126849 0)
(27.7547 0.229831 0)
(26.8967 0.279319 0)
(26.1465 0.238199 0)
(25.6194 0.210848 0)
(24.6156 0.663621 0)
(22.757 1.16433 0)
(19.774 2.39307 0)
(14.6528 3.9205 0)
(7.6713 7.468 0)
(29.8687 -0.0334848 0)
(30.4876 -0.0873231 0)
(30.1669 0.0418317 0)
(30.1113 0.0412774 0)
(29.8548 0.046303 0)
(29.7035 0.0269859 0)
(29.6735 0.0337506 0)
(29.2067 0.0551513 0)
(29.228 -0.0122588 0)
(29.0778 -0.0114972 0)
(28.9312 0.0184847 0)
(28.766 0.0502862 0)
(28.3771 0.136059 0)
(27.6431 0.243211 0)
(26.8109 0.294912 0)
(26.1192 0.251877 0)
(25.5943 0.2296 0)
(24.5554 0.705091 0)
(22.6619 1.24091 0)
(19.689 2.53835 0)
(14.6813 4.16237 0)
(7.72976 7.95621 0)
(29.8693 -0.0348624 0)
(30.5526 -0.0912949 0)
(30.1463 0.0448427 0)
(30.0415 0.0435124 0)
(29.7397 0.0487899 0)
(29.7257 0.0286297 0)
(29.5752 0.0377118 0)
(29.1595 0.0586313 0)
(29.168 -0.0132419 0)
(29.0347 -0.0120449 0)
(28.909 0.0194057 0)
(28.7033 0.0561716 0)
(28.2731 0.145151 0)
(27.5399 0.256611 0)
(26.7376 0.309631 0)
(26.0954 0.264951 0)
(25.5576 0.249004 0)
(24.4774 0.747562 0)
(22.549 1.31798 0)
(19.5909 2.68127 0)
(14.706 4.40125 0)
(7.79349 8.44634 0)
(29.8788 -0.0363075 0)
(30.4416 -0.0943881 0)
(30.1439 0.0460963 0)
(30.0911 0.0461526 0)
(29.8398 0.0522547 0)
(29.682 0.0302083 0)
(29.6555 0.0374988 0)
(29.1948 0.0605435 0)
(29.2205 -0.0139788 0)
(29.0441 -0.0125274 0)
(28.9566 0.0223254 0)
(28.6638 0.0636025 0)
(28.1793 0.153988 0)
(27.4442 0.270017 0)
(26.676 0.323532 0)
(26.0693 0.277754 0)
(25.5073 0.2693 0)
(24.3795 0.791138 0)
(22.4194 1.39537 0)
(19.4808 2.82151 0)
(14.7266 4.63652 0)
(7.86263 8.93897 0)
(29.8791 -0.0375739 0)
(30.5114 -0.0981344 0)
(30.1269 0.0489644 0)
(30.0194 0.0483091 0)
(29.7219 0.0547046 0)
(29.7085 0.0319107 0)
(29.5561 0.0415343 0)
(29.1505 0.0639685 0)
(29.1636 -0.0148216 0)
(29.0112 -0.0133711 0)
(28.924 0.0230395 0)
(28.6122 0.0713666 0)
(28.0834 0.163378 0)
(27.3622 0.28307 0)
(26.6224 0.336742 0)
(26.0401 0.290591 0)
(25.4425 0.290695 0)
(24.2605 0.835846 0)
(22.2751 1.47288 0)
(19.3627 2.95891 0)
(14.7451 4.86813 0)
(7.93622 9.43358 0)
(29.8879 -0.0389187 0)
(30.4002 -0.100974 0)
(30.128 0.0499698 0)
(30.0736 0.0509925 0)
(29.8305 0.0581945 0)
(29.6681 0.0334377 0)
(29.6471 0.0411574 0)
(29.1942 0.0657388 0)
(29.2126 -0.0155099 0)
(29.041 -0.0136385 0)
(28.9265 0.0233274 0)
(28.5673 0.0791104 0)
(28.0007 0.172959 0)
(27.2901 0.295824 0)
(26.5749 0.349474 0)
(26.0047 0.303731 0)
(25.3616 0.313383 0)
(24.1189 0.881646 0)
(22.1202 1.55022 0)
(19.2393 3.09319 0)
(14.7618 5.09557 0)
(8.01463 9.93084 0)
(29.8886 -0.0400803 0)
(30.4714 -0.10452 0)
(30.1123 0.0526728 0)
(30.0007 0.0530862 0)
(29.7089 0.0605834 0)
(29.6964 0.0351566 0)
(29.5441 0.0451567 0)
(29.1522 0.0691191 0)
(29.1608 -0.0163084 0)
(29.0218 -0.014697 0)
(28.8676 0.0242653 0)
(28.5192 0.0864987 0)
(27.9235 0.182935 0)
(27.2295 0.308192 0)
(26.5305 0.361918 0)
(25.9629 0.317415 0)
(25.2638 0.337544 0)
(23.9565 0.928396 0)
(21.9603 1.6271 0)
(19.1153 3.22432 0)
(14.7794 5.31898 0)
(8.09714 10.4302 0)
(29.8968 -0.0413294 0)
(30.3595 -0.107102 0)
(30.1128 0.0534394 0)
(30.0618 0.0558172 0)
(29.8239 0.0640745 0)
(29.6571 0.0366275 0)
(29.6389 0.0446693 0)
(29.1952 0.0707708 0)
(29.2007 -0.0170372 0)
(29.0571 -0.0152087 0)
(28.8327 0.0279715 0)
(28.4736 0.0935561 0)
(27.8576 0.192942 0)
(27.1765 0.320321 0)
(26.4879 0.374257 0)
(25.9132 0.331861 0)
(25.1483 0.363307 0)
(23.7777 0.975833 0)
(21.8027 1.70316 0)
(18.9937 3.35215 0)
(14.799 5.538 0)
(8.18428 10.9325 0)
(29.8971 -0.0423923 0)
(30.4347 -0.110461 0)
(30.1013 0.055953 0)
(29.9864 0.0578195 0)
(29.6998 0.0664383 0)
(29.6876 0.0383967 0)
(29.5352 0.0486222 0)
(29.154 0.074156 0)
(29.1573 -0.0178192 0)
(29.0357 -0.0164486 0)
(28.796 0.0325539 0)
(28.4308 0.100561 0)
(27.7975 0.20308 0)
(27.1314 0.332225 0)
(26.4449 0.38666 0)
(25.8562 0.347264 0)
(25.0166 0.390723 0)
(23.5914 1.02359 0)
(21.6538 1.77818 0)
(18.8787 3.47683 0)
(14.8232 5.75293 0)
(8.27553 11.4372 0)
(29.9046 -0.0435517 0)
(30.323 -0.112832 0)
(30.1023 0.0564966 0)
(30.0498 0.0606006 0)
(29.8215 0.0699116 0)
(29.652 0.039806 0)
(29.6385 0.0480686 0)
(29.2011 0.0757323 0)
(29.1972 -0.0185171 0)
(29.0629 -0.0162401 0)
(28.7718 0.0373936 0)
(28.392 0.107675 0)
(27.7464 0.213162 0)
(27.091 0.344033 0)
(26.4011 0.399257 0)
(25.7916 0.363772 0)
(24.8718 0.419709 0)
(23.4074 1.07127 0)
(21.5193 1.852 0)
(18.7724 3.59839 0)
(14.8532 5.96353 0)
(8.3716 11.9452 0)
(29.9054 -0.0445218 0)
(30.3994 -0.116032 0)
(30.094 0.0588097 0)
(29.9732 0.0625452 0)
(29.693 0.0722278 0)
(29.6816 0.0415863 0)
(29.5315 0.0519178 0)
(29.1596 0.0790941 0)
(29.1634 -0.0193655 0)
(29.0364 -0.0159435 0)
(28.7488 0.0421002 0)
(28.3573 0.114971 0)
(27.7001 0.223285 0)
(27.0554 0.355798 0)
(26.3553 0.412172 0)
(25.7212 0.381476 0)
(24.7203 0.450079 0)
(23.2354 1.1185 0)
(21.402 1.92461 0)
(18.6774 3.71708 0)
(14.8918 6.17023 0)
(8.47214 12.456 0)
(29.9124 -0.045597 0)
(30.2875 -0.118191 0)
(30.093 0.0591345 0)
(30.0431 0.0653814 0)
(29.8202 0.0756686 0)
(29.6475 0.0429337 0)
(29.6373 0.0513457 0)
(29.202 0.0805617 0)
(29.2048 -0.0199916 0)
(29.0141 -0.0156903 0)
(28.7295 0.0467891 0)
(28.3268 0.122424 0)
(27.6608 0.233371 0)
(27.022 0.36762 0)
(26.3078 0.425472 0)
(25.6463 0.400379 0)
(24.5691 0.481553 0)
(23.0813 1.165 0)
(21.3033 1.99607 0)
(18.5942 3.83297 0)
(14.9399 6.37284 0)
(8.57799 12.9708 0)
(29.913 -0.0464803 0)
(30.3671 -0.121238 0)
(30.0894 0.0612215 0)
(29.9646 0.067239 0)
(29.6892 0.0779856 0)
(29.6775 0.04476 0)
(29.5291 0.055133 0)
(29.1606 0.0838708 0)
(29.1761 -0.020371 0)
(28.9695 -0.0174127 0)
(28.7137 0.051316 0)
(28.3 0.130023 0)
(27.6249 0.243502 0)
(26.9912 0.379546 0)
(26.2584 0.439225 0)
(25.5697 0.420411 0)
(24.4251 0.513845 0)
(22.9483 1.21059 0)
(21.2225 2.06652 0)
(18.5238 3.94628 0)
(14.9997 6.57184 0)
(8.68894 13.489 0)
(29.9194 -0.0474761 0)
(30.2555 -0.123219 0)
(30.0865 0.0613604 0)
(30.0353 0.0701188 0)
(29.8214 0.0813732 0)
(29.6472 0.0460425 0)
(29.6397 0.0545779 0)
(29.206 0.085251 0)
(29.2095 -0.0206596 0)
(28.944 -0.0169037 0)
(28.7014 0.0556893 0)
(28.2766 0.137742 0)
(27.5938 0.253647 0)
(26.9609 0.391635 0)
(26.2078 0.453429 0)
(25.4932 0.44144 0)
(24.2926 0.546671 0)
(22.8366 1.25518 0)
(21.1585 2.1361 0)
(18.4657 4.05701 0)
(15.0717 6.76705 0)
(8.80591 14.0119 0)
(29.9206 -0.0482783 0)
(30.3354 -0.126113 0)
(30.0866 0.0632236 0)
(29.9556 0.0719267 0)
(29.6858 0.0836685 0)
(29.6748 0.0478824 0)
(29.5286 0.058276 0)
(29.1656 0.088559 0)
(29.1845 -0.0211268 0)
(28.9283 -0.0149631 0)
(28.6923 0.0599654 0)
(28.256 0.145585 0)
(27.5645 0.263864 0)
(26.9317 0.403919 0)
(26.1564 0.468091 0)
(25.4196 0.463303 0)
(24.1742 0.579796 0)
(22.7447 1.29875 0)
(21.1095 2.20495 0)
(18.42 4.16529 0)
(15.1575 6.95893 0)
(8.92874 14.5391 0)
(29.9265 -0.0491986 0)
(30.2239 -0.127907 0)
(30.0799 0.0631979 0)
(30.0329 0.074868 0)
(29.8228 0.0870028 0)
(29.6466 0.0490999 0)
(29.64 0.0577392 0)
(29.2092 0.0898834 0)
(29.2052 -0.02128 0)
(28.9176 -0.0126535 0)
(28.6848 0.0642512 0)
(28.238 0.153555 0)
(27.5382 0.274147 0)
(26.902 0.416426 0)
(26.1052 0.483158 0)
(25.3497 0.485836 0)
(24.0704 0.613023 0)
(22.6704 1.34133 0)
(21.0736 2.27317 0)
(18.3854 4.27103 0)
(15.2564 7.14728 0)
(9.05834 15.0717 0)
(29.9274 -0.0499242 0)
(30.3065 -0.13067 0)
(30.0857 0.0648182 0)
(29.9513 0.0766075 0)
(29.6853 0.0893388 0)
(29.6734 0.0509911 0)
(29.5285 0.0613567 0)
(29.1698 0.0932154 0)
(29.1851 -0.0215422 0)
(28.9111 -0.010554 0)
(28.6789 0.0685659 0)
(28.2217 0.161654 0)
(27.5121 0.284532 0)
(26.8725 0.429159 0)
(26.0546 0.498594 0)
(25.2852 0.508877 0)
(23.9804 0.646206 0)
(22.6116 1.38296 0)
(21.0491 2.34086 0)
(18.3615 4.3743 0)
(15.3691 7.33251 0)
(9.19451 15.6095 0)
(29.9328 -0.050775 0)
(30.1955 -0.132325 0)
(30.0745 0.0646588 0)
(30.0282 0.0795974 0)
(29.8274 0.0926095 0)
(29.6503 0.0521552 0)
(29.6425 0.0608638 0)
(29.2182 0.0945555 0)
(29.199 -0.0215414 0)
(28.9045 -0.00836033 0)
(28.6739 0.0729353 0)
(28.207 0.169886 0)
(27.4874 0.295023 0)
(26.842 0.442115 0)
(26.0053 0.514333 0)
(25.2257 0.532294 0)
(23.903 0.679232 0)
(22.566 1.42367 0)
(21.0345 2.40808 0)
(18.347 4.47495 0)
(15.4945 7.51437 0)
(9.3381 16.1538 0)
(29.9341 -0.0514305 0)
(30.2786 -0.134999 0)
(30.0857 0.0660072 0)
(29.9452 0.0813035 0)
(29.6841 0.0949713 0)
(29.6723 0.0540913 0)
(29.5285 0.0643804 0)
(29.1779 0.097893 0)
(29.1844 -0.021559 0)
(28.8992 -0.00619775 0)
(28.6698 0.0773477 0)
(28.1931 0.178257 0)
(27.4618 0.305639 0)
(26.8113 0.455282 0)
(25.9574 0.530321 0)
(25.1718 0.555965 0)
(23.8368 0.712018 0)
(22.5316 1.46353 0)
(21.0284 2.47487 0)
(18.3415 4.573 0)
(15.6325 7.69322 0)
(9.48882 16.704 0)
(29.9389 -0.0522117 0)
(30.168 -0.136577 0)
(30.0705 0.065685 0)
(30.0278 0.0843461 0)
(29.8309 0.0981904 0)
(29.6519 0.0552302 0)
(29.6446 0.0639319 0)
(29.2264 0.0992033 0)
(29.1889 -0.0212136 0)
(28.892 -0.00390674 0)
(28.6662 0.0818065 0)
(28.1796 0.186776 0)
(27.4362 0.316403 0)
(26.7794 0.468654 0)
(25.9112 0.546495 0)
(25.1227 0.579796 0)
(23.7802 0.744503 0)
(22.507 1.50256 0)
(21.0296 2.54126 0)
(18.3436 4.66829 0)
(15.7821 7.86878 0)
(9.64744 17.2615 0)
(29.9407 -0.0527932 0)
(30.2533 -0.139203 0)
(30.0878 0.0666162 0)
(29.9448 0.0859114 0)
(29.6853 0.100627 0)
(29.671 0.0572481 0)
(29.527 0.0674024 0)
(29.1865 0.102619 0)
(29.1686 -0.0212649 0)
(28.8853 -0.00167316 0)
(28.6636 0.0863052 0)
(28.1659 0.195456 0)
(27.4085 0.327307 0)
(26.7471 0.482194 0)
(25.8666 0.562798 0)
(25.0784 0.603704 0)
(23.7321 0.776637 0)
(22.491 1.54082 0)
(21.0373 2.60727 0)
(18.3532 4.76084 0)
(15.9436 8.04133 0)
(9.81357 17.8258 0)
(29.9453 -0.0535048 0)
(30.1433 -0.14058 0)
(30.0648 0.0661673 0)
(30.0262 0.0889311 0)
(29.8351 0.103756 0)
(29.654 0.058369 0)
(29.6385 0.0669631 0)
(29.2484 0.104267 0)
(29.1067 -0.0203804 0)
(28.8779 0.000391262 0)
(28.6617 0.0908502 0)
(28.1517 0.204317 0)
(27.3798 0.338355 0)
(26.7134 0.495877 0)
(25.8234 0.579188 0)
(25.038 0.627611 0)
(23.6913 0.808378 0)
(22.4825 1.57831 0)
(21.0506 2.67292 0)
(18.3691 4.85046 0)
(16.1163 8.21057 0)
(9.98799 18.3984 0)
(29.9475 -0.0540487 0)
(30.2281 -0.142669 0)
(30.0885 0.0668382 0)
(29.9411 0.0902568 0)
(29.684 0.106131 0)
(29.6706 0.060484 0)
(29.5165 0.0703049 0)
(29.2184 0.10801 0)
(29.0651 -0.0185025 0)
(28.8791 0.00214822 0)
(28.6605 0.0954705 0)
(28.1361 0.213379 0)
(27.3481 0.349551 0)
(26.6789 0.509661 0)
(25.7813 0.595597 0)
(25.0013 0.651463 0)
(23.6569 0.839684 0)
(22.4809 1.61506 0)
(21.069 2.73822 0)
(18.3913 4.93712 0)
(16.3011 8.37674 0)
(10.1703 18.9787 0)
(29.9511 -0.0547408 0)
(30.118 -0.14349 0)
(30.0591 0.0668009 0)
(30.0289 0.093411 0)
(29.8383 0.10911 0)
(29.6565 0.0614536 0)
(29.6303 0.0698225 0)
(29.2703 0.109906 0)
(29.0427 -0.0174904 0)
(28.889 0.00401051 0)
(28.6597 0.100231 0)
(28.1189 0.222661 0)
(27.3144 0.360881 0)
(26.6428 0.52352 0)
(25.7402 0.611998 0)
(24.9677 0.675189 0)
(23.6279 0.87051 0)
(22.4859 1.65108 0)
(21.0921 2.80318 0)
(18.4183 5.0206 0)
(16.4977 8.53953 0)
(10.3613 19.5681 0)
(29.9527 -0.0552261 0)
(30.2062 -0.14583 0)
(30.0916 0.0676363 0)
(29.9435 0.0949352 0)
(29.6896 0.111471 0)
(29.6746 0.0636375 0)
(29.5142 0.072925 0)
(29.2429 0.114369 0)
(29.0653 -0.0173247 0)
(28.9095 0.00608871 0)
(28.6591 0.105202 0)
(28.0994 0.232184 0)
(27.2768 0.372354 0)
(26.6059 0.537406 0)
(25.6995 0.628323 0)
(24.9371 0.698766 0)
(23.6037 0.900826 0)
(22.4971 1.68642 0)
(21.1196 2.86785 0)
(18.4498 5.10085 0)
(16.7064 8.69915 0)
(10.5606 20.166 0)
(29.9529 -0.0557696 0)
(30.1019 -0.148024 0)
(30.0572 0.0675116 0)
(30.0251 0.0985836 0)
(29.8415 0.11453 0)
(29.6635 0.064472 0)
(29.6315 0.0723471 0)
(29.2847 0.117055 0)
(29.0897 -0.0159779 0)
(28.9356 0.00839797 0)
(28.6583 0.110433 0)
(28.0773 0.241958 0)
(27.2366 0.383885 0)
(26.5672 0.551329 0)
(25.6592 0.644572 0)
(24.9087 0.722157 0)
(23.5834 0.930598 0)
(22.5147 1.72112 0)
(21.1514 2.93224 0)
(18.4837 5.17771 0)
(16.9251 8.85525 0)
(10.769 20.774 0)
(29.9441 -0.056195 0)
(30.2087 -0.150685 0)
(30.1218 0.0662531 0)
(29.961 0.100145 0)
(29.7082 0.117072 0)
(29.6764 0.0668892 0)
(29.5191 0.0743789 0)
(29.3158 0.119929 0)
(29.1223 -0.0139349 0)
(28.9658 0.0108636 0)
(28.657 0.115959 0)
(28.0522 0.251985 0)
(27.1918 0.395512 0)
(26.5276 0.565197 0)
(25.6188 0.660716 0)
(24.8829 0.745393 0)
(23.5663 0.959813 0)
(22.5387 1.75514 0)
(21.1877 2.99639 0)
(18.519 5.25117 0)
(17.1498 9.00792 0)
(10.9861 21.3922 0)
(29.9346 -0.0569983 0)
(30.1666 -0.150536 0)
(30.1364 0.0664499 0)
(30.0875 0.103148 0)
(29.8894 0.120921 0)
(29.7029 0.0679076 0)
(29.6347 0.0741876 0)
(29.3995 0.121158 0)
(29.1483 -0.0113962 0)
(28.9972 0.013574 0)
(28.6545 0.121854 0)
(28.0239 0.262205 0)
(27.144 0.407061 0)
(26.4866 0.578981 0)
(25.5784 0.676846 0)
(24.859 0.768527 0)
(23.5516 0.988506 0)
(22.5692 1.7882 0)
(21.2285 3.06023 0)
(18.5531 5.32097 0)
(17.3709 9.157 0)
(11.2114 22.0264 0)
(29.9296 -0.057805 0)
(30.3776 -0.151043 0)
(30.3203 0.0625522 0)
(30.0982 0.103259 0)
(29.8021 0.120884 0)
(29.7679 0.0736858 0)
(29.5641 0.0716662 0)
(29.4505 0.124073 0)
(29.1718 -0.00822856 0)
(29.0295 0.0176093 0)
(28.6501 0.128625 0)
(27.9914 0.271965 0)
(27.0914 0.417486 0)
(26.4455 0.591506 0)
(25.5383 0.69216 0)
(24.838 0.791919 0)
(23.5385 1.01747 0)
(22.6064 1.82164 0)
(21.2741 3.12424 0)
(18.5849 5.38738 0)
(17.5738 9.30259 0)
(11.5273 22.7082 0)
(-3.2946 0.095161 0)
(-4.61461 0.0097605 0)
(-4.24677 -0.0372491 0)
(-0.778637 -0.0385451 0)
(-0.0921239 -0.0335825 0)
(3.36215 -0.0389455 0)
(5.10742 -0.0284574 0)
(7.34856 -0.0243726 0)
(8.85832 -0.0177591 0)
(10.2641 -0.0160597 0)
(11.6995 -0.0150429 0)
(13.1748 -0.0133147 0)
(14.3939 -0.0100243 0)
(15.4629 -0.00908388 0)
(16.6025 -0.00928093 0)
(17.8861 -0.00952331 0)
(19.2829 -0.00915782 0)
(20.6523 -0.00836273 0)
(22.0063 -0.00770163 0)
(23.388 -0.0077895 0)
(25.1211 -0.00771427 0)
(26.8034 -0.00572295 0)
(27.808 -0.00300211 0)
(28.2973 -0.00141307 0)
(28.572 -0.000827194 0)
(28.7825 -0.000599629 0)
(28.9529 -0.000488094 0)
(29.1182 -0.000417466 0)
(29.2631 -0.000356495 0)
(29.3974 -0.00025262 0)
(29.4879 -0.000170957 0)
(29.562 -0.000128787 0)
(29.6139 -9.99602e-05 0)
(29.6799 -8.23767e-05 0)
(29.7054 -1.99163e-05 0)
(-3.23032 0.272268 0)
(-4.39046 0.0307757 0)
(-4.04277 -0.107793 0)
(-0.856271 -0.114539 0)
(-0.182829 -0.104566 0)
(3.27275 -0.12221 0)
(5.16825 -0.0884881 0)
(7.42287 -0.0742394 0)
(8.94368 -0.0547228 0)
(10.351 -0.0476634 0)
(11.7043 -0.0452181 0)
(13.1286 -0.0394705 0)
(14.3455 -0.031034 0)
(15.426 -0.0272099 0)
(16.543 -0.0275325 0)
(17.7868 -0.0281961 0)
(19.1349 -0.0269602 0)
(20.4591 -0.0245097 0)
(21.7547 -0.0226631 0)
(23.0505 -0.0237965 0)
(24.7659 -0.0245922 0)
(26.6138 -0.0180754 0)
(27.7344 -0.00930132 0)
(28.2603 -0.00436361 0)
(28.5483 -0.00253109 0)
(28.7643 -0.00182568 0)
(28.9379 -0.00147951 0)
(29.1053 -0.0012651 0)
(29.2522 -0.00106759 0)
(29.3883 -0.000773814 0)
(29.4805 -0.000521846 0)
(29.5555 -0.000383299 0)
(29.6084 -0.00030995 0)
(29.6751 -0.000243898 0)
(29.7017 -6.22622e-05 0)
(-3.05956 0.449076 0)
(-4.13282 0.0421983 0)
(-3.85977 -0.169722 0)
(-0.879273 -0.184286 0)
(-0.145929 -0.172408 0)
(3.32752 -0.205529 0)
(5.31698 -0.150351 0)
(7.558 -0.12361 0)
(9.07046 -0.0909141 0)
(10.4752 -0.0784877 0)
(11.7493 -0.072533 0)
(13.125 -0.0648987 0)
(14.3347 -0.0512806 0)
(15.4261 -0.0449966 0)
(16.5245 -0.0450033 0)
(17.7268 -0.0456399 0)
(19.0238 -0.0436162 0)
(20.3003 -0.0396057 0)
(21.5419 -0.0364506 0)
(22.7663 -0.0386492 0)
(24.4713 -0.0415883 0)
(26.4498 -0.0316403 0)
(27.666 -0.0163302 0)
(28.2238 -0.00751268 0)
(28.5242 -0.00430141 0)
(28.7456 -0.003074 0)
(28.9224 -0.00248476 0)
(29.0919 -0.00212012 0)
(29.2408 -0.00180627 0)
(29.3787 -0.00128907 0)
(29.4727 -0.000871687 0)
(29.5487 -0.000652292 0)
(29.6025 -0.000510276 0)
(29.6701 -0.000418252 0)
(29.6976 -0.000104551 0)
(-2.87467 0.613661 0)
(-3.87054 0.0551613 0)
(-3.6683 -0.227035 0)
(-0.837352 -0.25295 0)
(0.00602646 -0.242927 0)
(3.48005 -0.29119 0)
(5.527 -0.213179 0)
(7.73846 -0.172644 0)
(9.23251 -0.127123 0)
(10.6307 -0.108396 0)
(11.8365 -0.0992844 0)
(13.1638 -0.0900216 0)
(14.3633 -0.0720244 0)
(15.4633 -0.0630034 0)
(16.5471 -0.0624284 0)
(17.7054 -0.0629358 0)
(18.9447 -0.0600716 0)
(20.1687 -0.054438 0)
(21.3605 -0.0498495 0)
(22.5343 -0.053396 0)
(24.243 -0.0592552 0)
(26.3144 -0.0460781 0)
(27.603 -0.0237881 0)
(28.1879 -0.0108175 0)
(28.4997 -0.00613343 0)
(28.7264 -0.00435225 0)
(28.9063 -0.00350705 0)
(29.078 -0.00298808 0)
(29.229 -0.00254874 0)
(29.3688 -0.00181731 0)
(29.4644 -0.00122932 0)
(29.5416 -0.000922568 0)
(29.5963 -0.000717758 0)
(29.6647 -0.000592908 0)
(29.6931 -0.000148852 0)
(-2.68213 0.767551 0)
(-3.60234 0.0677946 0)
(-3.46084 -0.280602 0)
(-0.735134 -0.321477 0)
(0.264646 -0.315563 0)
(3.71671 -0.377241 0)
(5.78163 -0.275837 0)
(7.95178 -0.220995 0)
(9.42108 -0.162848 0)
(10.809 -0.137524 0)
(11.9632 -0.124932 0)
(13.2449 -0.114592 0)
(14.4301 -0.0927282 0)
(15.5354 -0.0810274 0)
(16.6102 -0.079458 0)
(17.726 -0.0795406 0)
(18.9019 -0.0758569 0)
(20.0667 -0.0687271 0)
(21.2097 -0.0627864 0)
(22.3511 -0.0679656 0)
(24.0755 -0.0772657 0)
(26.2068 -0.061117 0)
(27.5459 -0.0316058 0)
(28.1526 -0.014258 0)
(28.475 -0.00802261 0)
(28.7068 -0.00565757 0)
(28.8899 -0.0045453 0)
(29.0638 -0.00386766 0)
(29.2169 -0.00330117 0)
(29.3586 -0.00235328 0)
(29.4558 -0.00159314 0)
(29.5342 -0.00119717 0)
(29.5898 -0.000928579 0)
(29.6592 -0.000770947 0)
(29.6884 -0.000194547 0)
(-2.48482 0.910667 0)
(-3.32592 0.0799613 0)
(-3.23113 -0.331399 0)
(-0.578626 -0.391432 0)
(0.614618 -0.391 0)
(4.01694 -0.462843 0)
(6.06256 -0.337657 0)
(8.18523 -0.26846 0)
(9.62699 -0.198044 0)
(11.0022 -0.166047 0)
(12.1223 -0.149615 0)
(13.363 -0.13847 0)
(14.5291 -0.113241 0)
(15.6353 -0.098954 0)
(16.7068 -0.0960462 0)
(17.7865 -0.0953247 0)
(18.8992 -0.0907648 0)
(19.9997 -0.0823319 0)
(21.0921 -0.0753012 0)
(22.213 -0.0824955 0)
(23.9597 -0.095569 0)
(26.1249 -0.0765311 0)
(27.4947 -0.0396684 0)
(28.1183 -0.0178097 0)
(28.4503 -0.00996483 0)
(28.6872 -0.00698932 0)
(28.8734 -0.00559901 0)
(29.0494 -0.00475879 0)
(29.2047 -0.00406314 0)
(29.3482 -0.00289696 0)
(29.4469 -0.00196309 0)
(29.5266 -0.00147596 0)
(29.583 -0.00114289 0)
(29.6534 -0.000952079 0)
(29.6835 -0.000241561 0)
(-2.28445 1.04274 0)
(-3.03881 0.0910082 0)
(-2.97451 -0.380242 0)
(-0.373937 -0.463955 0)
(1.0294 -0.469167 0)
(4.35505 -0.547006 0)
(6.35328 -0.398144 0)
(8.42745 -0.315003 0)
(9.84203 -0.232697 0)
(11.2037 -0.194141 0)
(12.3045 -0.173669 0)
(13.5091 -0.161636 0)
(14.6508 -0.133477 0)
(15.7531 -0.116797 0)
(16.8261 -0.112316 0)
(17.8785 -0.11038 0)
(18.9345 -0.104773 0)
(19.9703 -0.0951869 0)
(21.0103 -0.0874152 0)
(22.1164 -0.0970529 0)
(23.8864 -0.114087 0)
(26.0652 -0.0921371 0)
(27.4492 -0.047879 0)
(28.0851 -0.0214502 0)
(28.4259 -0.0119563 0)
(28.6677 -0.00834683 0)
(28.8569 -0.00666795 0)
(29.035 -0.00566147 0)
(29.1924 -0.00483453 0)
(29.3377 -0.00344811 0)
(29.4377 -0.00233919 0)
(29.5189 -0.00175912 0)
(29.5761 -0.00136073 0)
(29.6476 -0.00113638 0)
(29.6784 -0.00028985 0)
(-2.08209 1.16344 0)
(-2.73856 0.100344 0)
(-2.68872 -0.427663 0)
(-0.127974 -0.539421 0)
(1.47347 -0.549623 0)
(4.70429 -0.628988 0)
(6.64061 -0.456944 0)
(8.66906 -0.360654 0)
(10.0592 -0.266848 0)
(11.4084 -0.22195 0)
(12.5002 -0.197294 0)
(13.6722 -0.184148 0)
(14.7854 -0.153402 0)
(15.8806 -0.134614 0)
(16.9583 -0.128422 0)
(17.9912 -0.124885 0)
(18.9998 -0.117991 0)
(19.9764 -0.107308 0)
(20.9642 -0.099138 0)
(22.0569 -0.11165 0)
(23.8471 -0.13274 0)
(26.0244 -0.107795 0)
(27.4094 -0.0561573 0)
(28.0533 -0.0251591 0)
(28.4019 -0.0139932 0)
(28.6485 -0.00972929 0)
(28.8406 -0.00775168 0)
(29.0207 -0.00657554 0)
(29.1803 -0.00561536 0)
(29.3273 -0.00400623 0)
(29.4286 -0.00272127 0)
(29.5112 -0.00204679 0)
(29.5691 -0.00158195 0)
(29.6417 -0.0013239 0)
(29.6733 -0.00033933 0)
(-1.8783 1.27243 0)
(-2.42305 0.107408 0)
(-2.37517 -0.47423 0)
(0.149346 -0.617569 0)
(1.91321 -0.631582 0)
(5.04269 -0.708476 0)
(6.91559 -0.514017 0)
(8.90332 -0.405488 0)
(10.2731 -0.300547 0)
(11.612 -0.249597 0)
(12.7007 -0.220587 0)
(13.8421 -0.206036 0)
(14.9247 -0.172986 0)
(16.0113 -0.152438 0)
(17.096 -0.14447 0)
(18.1152 -0.138994 0)
(19.0858 -0.130567 0)
(20.0112 -0.118769 0)
(20.9503 -0.110482 0)
(22.0293 -0.126262 0)
(23.8344 -0.151446 0)
(25.999 -0.123398 0)
(27.3747 -0.0644391 0)
(28.0231 -0.0289181 0)
(28.3786 -0.0160717 0)
(28.6297 -0.0111359 0)
(28.8247 -0.00884971 0)
(29.0067 -0.00750071 0)
(29.1684 -0.00640522 0)
(29.317 -0.004571 0)
(29.4194 -0.00310923 0)
(29.5037 -0.00233892 0)
(29.5621 -0.00180655 0)
(29.6359 -0.0015145 0)
(29.6681 -0.00038991 0)
(-1.67347 1.36935 0)
(-2.09027 0.111558 0)
(-2.03988 -0.520036 0)
(0.444981 -0.69758 0)
(2.32539 -0.714166 0)
(5.35653 -0.78545 0)
(7.17335 -0.5695 0)
(9.12605 -0.449637 0)
(10.48 -0.333867 0)
(11.8111 -0.277124 0)
(12.8988 -0.243629 0)
(14.0104 -0.227337 0)
(15.0622 -0.192206 0)
(16.1405 -0.17028 0)
(17.2337 -0.160515 0)
(18.2433 -0.15281 0)
(19.1838 -0.142631 0)
(20.067 -0.12967 0)
(20.9627 -0.121479 0)
(22.0278 -0.140858 0)
(23.842 -0.170132 0)
(25.9857 -0.138867 0)
(27.3447 -0.0726748 0)
(27.9946 -0.0327111 0)
(28.3562 -0.0181879 0)
(28.6116 -0.0125655 0)
(28.8093 -0.00996139 0)
(28.9931 -0.00843654 0)
(29.1569 -0.00720388 0)
(29.307 -0.00514179 0)
(29.4104 -0.00350285 0)
(29.4963 -0.00263557 0)
(29.5553 -0.0020343 0)
(29.6302 -0.00170816 0)
(29.6629 -0.00044146 0)
(-1.46784 1.45383 0)
(-1.73823 0.112377 0)
(-1.69315 -0.564997 0)
(0.744727 -0.77851 0)
(2.69936 -0.796719 0)
(5.64071 -0.860176 0)
(7.41255 -0.623633 0)
(9.33559 -0.493222 0)
(10.6778 -0.366906 0)
(12.0034 -0.304566 0)
(13.0892 -0.266393 0)
(14.1714 -0.248036 0)
(15.1936 -0.211074 0)
(16.2643 -0.188142 0)
(17.3671 -0.176585 0)
(18.3703 -0.166402 0)
(19.2875 -0.154288 0)
(20.1365 -0.140106 0)