/*--------------------------------*- C++ -*----------------------------------*\
| =========                 |                                                 |
| \\      /  F ield         | OpenFOAM: The Open Source CFD Toolbox           |
|  \\    /   O peration     | Version:  v1912                                 |
|   \\  /    A nd           | Website:  www.openfoam.com                      |
|    \\/     M anipulation  |                                                 |
\*---------------------------------------------------------------------------*/
FoamFile
{
    version     2.0;
    format      ascii;
    class       volScalarField;
    location    "520";
    object      epsilon;
}
// * * * * * * * * * * * * * * * * * * * * * * * * * * * * * * * * * * * * * //

dimensions      [0 2 -3 0 0 0 0];


internalField   nonuniform List<scalar> 
12441
(
0.0102964
0.00908503
0.00832714
0.00770267
0.00718369
0.00674896
0.00638221
0.00607071
0.00580478
0.00557622
0.00537888
0.00520907
0.00504245
0.00491754
0.00479714
0.00469466
0.00489103
0.0205348
0.278302
3.05339
20.9501
39.25
0.010119
0.00892022
0.00818407
0.00757695
0.00707198
0.00664868
0.00629136
0.00598772
0.00572844
0.00550557
0.00531318
0.00514786
0.00498354
0.00486225
0.00474529
0.00464738
0.00481095
0.0202811
0.262037
3.0454
21.2401
40.2318
0.00989693
0.00871745
0.00800039
0.00740916
0.00691754
0.00650556
0.00615793
0.00586269
0.00561078
0.00539447
0.00520803
0.00504822
0.00488856
0.00477335
0.00466103
0.00456832
0.00465039
0.0183647
0.221613
3.01382
21.6193
41.3784
0.00967335
0.00851381
0.00781502
0.00723892
0.00675997
0.00635869
0.0060202
0.00573288
0.00548789
0.00527772
0.00509685
0.00494206
0.00478856
0.00467689
0.00457033
0.00448293
0.00450409
0.0160651
0.182337
2.99047
22.0869
42.5504
0.00942911
0.00828918
0.00760912
0.00704866
0.00658289
0.00619285
0.00586405
0.00558519
0.00534771
0.0051443
0.00496965
0.00482066
0.00467224
0.00456739
0.00446602
0.00438561
0.00435385
0.0139945
0.162169
2.99676
22.6055
43.6698
0.00922314
0.00809956
0.00743472
0.00688688
0.00643167
0.00605056
0.00572935
0.00545705
0.00522525
0.00502685
0.0048567
0.0047117
0.00456885
0.00446644
0.00437036
0.00429404
0.00427912
0.0140795
0.181517
3.10364
23.2385
44.7472
0.00900247
0.00789595
0.00724756
0.00671345
0.00626981
0.00589856
0.00558585
0.00532097
0.00509573
0.00490321
0.00473844
0.00459839
0.00445952
0.00436391
0.00427024
0.00420117
0.00603039
0.0230982
0.287447
3.40661
24.0877
45.7945
0.00882402
0.0077313
0.00709575
0.00657224
0.00613743
0.0057736
0.00546715
0.00520761
0.00498694
0.0047984
0.00463711
0.00450012
0.00436638
0.00427186
0.00418789
0.00516222
0.0342135
0.0791534
0.60254
4.04804
25.2798
46.8732
0.00862987
0.00755208
0.00693105
0.00641966
0.00599507
0.00563993
0.00534098
0.00508797
0.00487307
0.00468966
0.00453304
0.00440029
0.00427003
0.00414132
0.00538372
0.0267634
0.17196
0.293603
1.29264
5.18298
26.9499
48.0153
0.00847519
0.0074092
0.00679915
0.00629681
0.00587973
0.00553088
0.0052372
0.00498866
0.00477754
0.0045974
0.00444361
0.00431352
0.00418888
0.00426859
0.0249177
0.144558
0.498557
0.767195
2.37616
6.8716
29.1964
49.2846
0.00830574
0.00725273
0.00665542
0.0061637
0.00575558
0.00541436
0.00512725
0.00488442
0.00467833
0.00450265
0.00435288
0.00422731
0.00407493
0.00943199
0.109347
0.4002
0.94601
1.42986
3.62743
9.00478
32.0461
50.6975
0.00817073
0.00712804
0.00654028
0.00605642
0.00565479
0.00531897
0.00503638
0.00479735
0.00459446
0.00442152
0.0042741
0.00415197
0.00415451
0.0470667
0.293675
0.711533
1.35025
2.07413
4.78603
11.3572
35.4423
52.295
0.00802157
0.00699036
0.00641396
0.00593956
0.00554591
0.00521688
0.00494013
0.00470617
0.00450772
0.0043387
0.00419477
0.00403814
0.00832608
0.153621
0.515088
0.96783
1.64272
2.5779
5.74173
13.708
39.2706
54.0597
0.0079007
0.00687873
0.00631089
0.00584351
0.00545567
0.00513148
0.00485876
0.0046282
0.00443263
0.00426608
0.00412428
0.00388266
0.036105
0.302419
0.69363
1.14347
1.83876
2.93821
6.49974
15.9089
43.3892
56.0037
0.00776929
0.00675736
0.00619954
0.00574053
0.00535973
0.0050415
0.00477392
0.00454781
0.00435612
0.00419296
0.00405415
0.00426222
0.10517
0.437752
0.817729
1.26046
1.97104
3.19342
7.10208
17.8893
47.6615
58.0812
0.00766023
0.0066567
0.0061066
0.00565393
0.00527836
0.00496451
0.00470057
0.00447754
0.00428845
0.00412755
0.00399072
0.00939398
0.196866
0.538957
0.901817
1.34065
2.06371
3.37949
7.5906
19.6306
51.9692
60.2902
0.00754427
0.00654961
0.00600844
0.00556318
0.00519384
0.00488525
0.00462581
0.00440664
0.0042209
0.0040629
0.00392904
0.0311892
0.282618
0.610808
0.960653
1.39814
2.13176
3.52136
7.99771
21.1428
56.2238
62.571
0.00744276
0.00645604
0.00592216
0.0054829
0.00511854
0.00481413
0.0045582
0.00434203
0.00415884
0.00400308
0.00387381
0.075164
0.350605
0.662336
1.00375
1.44135
2.18419
3.63501
8.34653
22.4471
60.3624
64.9213
0.00734013
0.00636112
0.00583508
0.00540232
0.00504339
0.00474355
0.00449153
0.00427867
0.00409835
0.00394507
0.00380977
0.127827
0.401492
0.700727
1.03681
1.4753
2.22657
3.73056
8.65298
23.5682
64.3496
67.2818
0.00724551
0.00627399
0.00575479
0.00532768
0.00497347
0.00467762
0.00442895
0.00421898
0.00404114
0.00389005
0.00427266
0.176186
0.439606
0.730599
1.0633
1.50312
2.26242
3.81446
8.9278
24.5295
68.1691
69.6617
0.00715527
0.00619046
0.00567814
0.00525669
0.00490718
0.00461522
0.00436985
0.00416265
0.00398717
0.00383816
0.00978915
0.216209
0.469011
0.754818
1.08535
1.52685
2.29413
3.89082
9.17807
25.3525
71.8247
72.0102
0.0070645
0.00610705
0.00560146
0.00518562
0.00484082
0.00455288
0.00431093
0.0041067
0.0039338
0.00378755
0.0270979
0.248285
0.492584
0.775177
1.10437
1.54787
2.32335
3.96211
9.40839
26.0559
75.3336
74.3523
0.0069852
0.00603342
0.00553372
0.00512269
0.00478184
0.00449715
0.00425793
0.00405597
0.00388498
0.00374244
0.0543723
0.274048
0.512195
0.79284
1.12134
1.56713
2.35121
4.0297
9.62163
26.6562
78.7285
76.6493
0.00689871
0.00595405
0.00546085
0.00505527
0.00471904
0.00443832
0.0042025
0.00400351
0.00383511
0.00370266
0.0831588
0.295081
0.529056
0.808595
1.13693
1.58534
2.3785
4.09426
9.81966
27.1681
82.0525
78.9445
0.00683042
0.00589053
0.00540231
0.00500071
0.00466769
0.00438954
0.00415582
0.00395852
0.00379153
0.00368399
0.10859
0.312686
0.543956
0.822996
1.15164
1.60301
2.40566
4.15608
10.0037
27.6044
85.362
81.212
0.00674474
0.00581217
0.00533068
0.00493479
0.00460665
0.00433274
0.00410268
0.0039086
0.00374445
0.00364462
0.129874
0.327833
0.557429
0.836444
1.16582
1.62047
2.43284
4.21527
10.1747
27.9764
88.7209
83.5114
0.00668558
0.00575682
0.00527937
0.00488666
0.00456101
0.00428905
0.00406056
0.00386772
0.00370461
0.00383457
0.147755
0.341202
0.569847
0.849236
1.17974
1.63792
2.46004
4.27197
10.3334
28.2941
92.2028
85.8273
0.00660187
0.00568041
0.00520969
0.00482273
0.00450205
0.00423443
0.0040097
0.00382018
0.00366007
0.00573711
0.163146
0.353264
0.581475
0.861583
1.19355
1.65544
2.48712
4.3263
10.4806
28.5657
95.8833
88.2307
0.00655218
0.00563366
0.0051661
0.0047815
0.00446258
0.00419623
0.00397247
0.00378363
0.00362446
0.0109029
0.176758
0.364346
0.592507
0.873641
1.20735
1.67306
2.51396
4.37841
10.6168
28.7984
99.8396
90.7106
0.0064681
0.00555725
0.00509677
0.0047183
0.0044047
0.00414304
0.00392334
0.0037381
0.00358305
0.0200228
0.189064
0.374679
0.603088
0.885511
1.22118
1.69072
2.54044
4.42842
10.7429
28.9981
104.142
93.3406
0.00642586
0.00551707
0.00505891
0.00468205
0.00436957
0.00410862
0.00388942
0.00370449
0.0035519
0.0327273
0.200371
0.384427
0.613322
0.89726
1.23505
1.70835
2.56648
4.47646
10.8596
29.1697
108.851
96.1058
0.00634341
0.00544227
0.00499121
0.00462053
0.00431345
0.00405727
0.00384222
0.00366095
0.00351599
0.0477633
0.210872
0.39371
0.623284
0.90892
1.24892
1.72589
2.59201
4.52263
10.9675
29.3178
114.014
99.0732
0.0063097
0.00540988
0.0049603
0.00459048
0.0042838
0.00402769
0.00381255
0.00363105
0.00349484
0.0637483
0.2207
0.402618
0.633026
0.920505
1.26276
1.74329
2.617
4.56699
11.0674
29.4467
119.664
102.217
0.00622525
0.00533363
0.00489171
0.0045286
0.00422784
0.00397698
0.00376642
0.00358895
0.00347369
0.0795969
0.229949
0.411215
0.642582
0.93201
1.27653
1.76048
2.64141
4.60958
11.1599
29.5605
125.823
105.592
0.00619839
0.00530731
0.00486606
0.00450306
0.00420204
0.00395067
0.00373954
0.00356146
0.00347825
0.0946528
0.238686
0.419549
0.651967
0.943421
1.29018
1.77741
2.66521
4.6504
11.2459
29.6633
132.504
109.157
0.00611142
0.00522922
0.00479623
0.00444052
0.00414593
0.00390024
0.00369406
0.00352032
0.00354695
0.108559
0.246958
0.42765
0.661188
0.954714
1.30367
1.79406
2.68837
4.68943
11.3258
29.7586
139.712
112.957
0.00608785
0.00520584
0.00477309
0.00441709
0.00412187
0.00387537
0.00366838
0.00349386
0.00615608
0.121133
0.254796
0.43554
0.67024
0.965863
1.31696
1.81037
2.71085
4.72662
11.4004
29.8494
147.449
116.938
0.00599588
0.00512385
0.00470028
0.00435235
0.00406423
0.00382399
0.00362241
0.00345262
0.0246362
0.132226
0.262219
0.443226
0.679112
0.976837
1.33001
1.82631
2.73261
4.7619
11.4705
29.9373
155.697
121.137
0.00596755
0.00509636
0.00467357
0.00432577
0.00403739
0.00379666
0.0035946
0.00342485
0.044435
0.141572
0.269233
0.45071
0.687786
0.987603
1.34277
1.84185
2.75362
4.79518
11.5367
30.0229
164.405
125.495
0.00586289
0.00500347
0.00459145
0.0042531
0.00397304
0.00373962
0.00354391
0.00338448
0.0549844
0.149194
0.275843
0.457986
0.696242
0.998123
1.35521
1.85695
2.77381
4.82635
11.5997
30.1054
173.439
130.045
0.00582128
0.00496399
0.00455389
0.00421665
0.0039372
0.00370413
0.00350874
0.00333894
0.0606439
0.155359
0.28205
0.465042
0.704455
1.00836
1.36728
1.87156
2.79312
4.85533
11.66
30.1833
182.53
134.727
0.00569966
0.00485647
0.00445886
0.00413232
0.00386214
0.0036372
0.00344889
0.00334365
0.0639964
0.160363
0.287861
0.471862
0.712401
1.01827
1.37895
1.88563
2.81149
4.88202
11.7178
30.2556
191.201
139.588
0.00561734
0.00478992
0.00440435
0.00408614
0.00382159
0.00360028
0.00341414
0.00359975
0.0661518
0.164453
0.293283
0.478424
0.720053
1.0278
1.39016
1.89912
2.82883
4.90639
11.7728
30.3222
198.757
144.654
0.00525494
0.00446065
0.0041124
0.00382685
0.00358962
0.00339112
0.00322378
0.0037133
0.0676134
0.167814
0.298327
0.484703
0.727389
1.03691
1.40087
1.91196
2.84506
4.92844
11.8242
30.3848
204.393
150.447
95.0235
43.6558
26.9621
21.6294
22.3706
19.5531
19.0887
17.0284
15.9187
15.3103
14.5982
13.7961
14.5312
16.6412
19.71
22.5893
25.2503
28.4629
31.924
34.5537
35.8533
36.63
37.3111
37.9914
38.7885
39.1741
38.8878
37.9
36.4543
34.3357
32.5539
32.7873
35.882
6.9041
2.94878
94.6475
43.6586
26.9768
21.7995
22.7523
19.8612
19.4038
17.272
16.137
15.4967
14.6884
13.8723
14.6301
16.766
19.8669
22.7362
25.3017
28.5263
32.1406
35.0553
36.6416
37.498
38.0763
38.6236
39.3492
39.7187
39.4478
38.4634
36.9713
34.7458
32.8679
33.126
36.1184
6.94915
2.94716
93.9266
43.6524
27.0053
22.1443
23.5131
20.4795
20.0196
17.7453
16.5659
15.8619
14.8758
14.0337
14.8308
17.0269
20.1995
23.0262
25.4079
28.6374
32.5086
36.0029
38.2702
39.3676
39.7568
40.0063
40.5455
40.8477
40.59
39.6149
38.0402
35.5969
33.5162
33.8109
36.0708
7.01398
2.94397
92.8104
43.6287
27.0514
22.6796
24.642
21.4074
20.9112
18.431
17.1959
16.3999
15.185
14.3055
15.1594
17.4672
20.7626
23.5372
25.6457
28.8309
33.0596
37.46
40.8784
42.4933
42.642
42.3732
42.5337
42.6586
42.3818
41.4185
39.7344
36.9549
34.5388
34.8664
35.9781
7.10659
2.93931
91.3035
43.5786
27.1208
23.4174
26.1213
22.6381
22.055
19.3192
18.0202
17.1056
15.6431
14.7175
15.6468
18.1281
21.6205
24.3769
26.1439
29.1995
33.8749
39.5411
44.6779
47.2717
47.2158
46.1335
45.5918
45.3244
44.9382
43.9749
42.165
38.9187
35.9981
36.3334
36.0371
7.23605
2.93333
89.3553
43.494
27.2219
24.3723
27.9465
24.1737
23.4437
20.4137
19.0422
17.9826
16.2767
15.2985
16.3162
19.0356
22.8273
25.6563
27.0797
29.9168
35.1073
42.4318
49.9581
54.2603
54.2354
51.9746
50.1985
49.139
48.4458
47.434
45.4898
41.6302
37.9847
38.2722
36.4108
7.41283
2.92617
87.0012
43.3667
27.3665
25.5686
30.131
26.0317
25.0898
21.7318
20.2789
19.0488
17.1157
16.0783
17.1868
20.2114
24.4463
27.502
28.6674
31.2509
37.0163
46.423
57.1033
64.1806
64.8188
61.0202
57.1644
54.5945
53.2029
52.0159
49.9275
45.2879
40.6262
40.7657
37.2475
7.64915
2.91802
84.2135
43.189
27.5719
27.0396
32.6993
28.242
27.0219
23.3036
21.7606
20.337
18.2014
17.0956
18.2853
21.689
26.5782
30.1018
31.173
33.5643
40.0011
51.9567
66.6154
77.8599
80.4656
75.028
67.8411
62.5054
59.6804
58.0411
55.7771
50.1641
44.0998
43.9244
38.7031
7.95952
2.90906
81.0699
42.9528
27.8615
28.825
35.6775
30.8405
29.2796
25.1695
23.5288
21.8941
19.592
18.4061
19.6562
23.5217
29.37
33.7503
34.9761
37.3316
44.6279
59.6684
79.1102
96.011
102.752
96.4452
84.3774
74.1885
68.6086
65.973
63.4405
56.6255
48.6453
47.891
40.9661
8.36137
2.89948
77.574
42.6496
28.2677
30.963
39.0845
33.8624
31.9084
27.3775
25.6341
23.7801
21.3664
20.0892
21.3692
25.779
32.9968
38.8691
40.6555
43.1937
51.6407
70.3589
95.1657
118.669
132.147
127.589
109.704
91.6169
81.0645
76.458
73.44
65.1461
54.578
52.8418
44.2832
8.87549
2.88945
73.8369
42.2705
28.8331
33.4836
42.9251
37.3371
34.9546
29.9811
28.1331
26.0661
23.6236
22.2529
23.5286
28.5486
37.6181
45.9571
49.0308
51.9887
61.882
84.7292
114.808
144.239
165.644
167.41
145.984
117.111
98.4289
90.3149
86.398
76.2896
62.2886
58.9801
48.9868
9.52612
2.87907
69.8857
41.8055
29.6124
36.4013
47.1871
41.2843
38.4599
33.0347
31.0836
28.8297
26.4805
25.0377
26.2841
31.939
43.3004
55.3757
60.9864
64.535
75.8687
102.61
136.589
168.962
195.659
206.661
189.433
151.282
121.799
108.325
102.895
90.5949
72.2008
66.5074
55.5145
10.3399
2.86837
65.8489
41.2438
30.6727
39.712
51.8406
45.7118
42.4548
36.5897
34.5371
32.1466
30.0584
28.6144
29.8441
36.0896
49.9248
66.8454
76.6565
80.7383
92.7618
121.895
157.163
188.403
214.699
231.218
225.478
188.266
150.146
130.533
123.046
108.236
84.6238
75.5508
64.3916
11.3423
2.85717
61.7626
40.5738
32.0901
43.3951
56.8403
50.618
46.9588
40.6854
38.5331
36.0783
34.4596
33.1668
34.4757
41.1664
57.1128
78.8296
93.8164
98.0305
109.405
138.729
172.849
200.304
221.641
235.969
239.012
214.335
177.77
154.926
145.662
128.33
99.4081
86.019
76.1001
12.5497
2.84509
57.7502
39.7844
33.9421
47.4211
62.1298
55.9945
51.9722
45.3458
43.0915
40.658
39.7306
38.8481
40.4767
47.3296
64.26
88.6555
107.318
111.304
121.639
150.139
182.244
205.503
220.579
227.734
230.773
219.438
195.596
176.575
167.391
148.115
115.389
97.3855
90.6983
13.9537
2.83138
53.8399
38.8669
36.2944
51.7596
67.6533
61.8144
57.4785
50.5793
48.2122
45.8803
45.833
45.7017
48.0448
54.641
70.7244
94.1118
112.665
116.72
127.645
156.216
186.687
206.287
215.695
214.904
212.348
207.42
198.652
189.674
183.236
163.1
129.989
108.501
107.111
15.4977
2.81494
50.1273
37.8196
39.1867
56.372
73.3586
68.0342
63.4441
56.3782
53.8781
51.701
52.6232
53.5739
57.081
62.9085
76.1266
95.1127
110.224
115.141
129.012
159.179
188.463
204.587
209.03
201.602
192.758
188.688
190.122
191.766
189.275
169.266
139.842
117.686
122.511
17.0526
2.79424
46.6135
36.6564
42.6196
61.2027
79.1985
74.5867
69.8162
62.7189
60.0655
58.0558
59.892
62.0779
66.9692
71.5499
80.5078
93.4331
103.992
110.365
128.599
161.206
189.147
201.357
201.025
188.653
175.333
170.359
176.584
185.046
185.21
165.786
142.667
123.318
132.975
18.4138
2.76755
43.349
35.4184
46.5341
66.1976
85.1146
81.3732
76.5184
69.5556
66.7519
64.8826
67.436
70.7035
76.6729
79.75
84.2519
91.1599
97.6483
105.712
128.595
163.481
189.266
196.773
191.553
175.741
160.363
154.907
162.732
173.56
173.884
155.181
138.716
124.608
135.77
19.3429
2.73316
40.3033
34.1864
50.7955
71.3062
91.0354
88.2632
83.4476
76.814
73.8968
72.1434
75.1549
79.0587
85.2813
86.8735
87.8432
89.76
93.1416
102.926
130.082
166.252
188.614
190.661
180.573
162.607
147.307
142.415
150.452
160.447
158.887
141.104
130.213
121.909
131.048
19.6475
2.6898
37.4893
33.0688
55.232
76.4599
96.8782
95.1051
90.4766
84.3838
81.4491
79.8234
83.0751
87.1013
92.6604
92.9608
91.7476
90.0011
91.1309
102.642
133.393
169.245
186.741
182.846
168.32
149.378
135.68
132.242
139.95
147.286
142.926
126.42
119.7
116.308
121.075
19.251
2.63696
34.8769
32.1831
59.6597
81.5751
102.556
101.746
97.4654
92.1242
89.3354
87.9237
91.3208
95.1371
99.4873
98.7244
96.3929
92.2468
91.7971
105.043
138.427
171.936
183.218
173.351
155.276
136.451
125.223
123.707
130.789
134.615
127.548
112.71
108.973
108.989
108.41
18.214
2.57507
32.4767
31.6444
63.9122
86.5578
107.986
108.052
104.276
99.8774
97.4544
96.3924
100.012
103.666
106.837
105.304
102.287
96.6822
95.167
110.169
144.888
173.795
177.842
162.446
142.026
124.269
115.835
116.269
122.419
122.526
113.464
100.585
98.9334
100.841
94.9126
16.7008
2.50535
30.2708
31.5551
67.8681
91.3099
113.093
113.92
110.789
107.491
105.688
105.165
109.215
113.086
115.639
113.824
110.075
103.512
101.349
118.058
152.361
174.36
170.635
150.6
129.142
113.162
107.461
109.538
114.387
111.022
100.917
90.1117
89.8654
92.3896
81.6843
14.9195
2.42963
28.2673
32.0001
71.4624
95.7369
117.814
119.279
116.907
114.834
113.914
114.163
118.93
123.661
126.499
125.281
120.628
113.074
110.517
128.726
160.413
173.378
161.875
138.377
117.075
103.298
100.029
103.236
106.41
100.141
89.9105
81.118
81.7325
83.8962
69.3262
13.0643
2.3499
26.4614
33.0463
74.6797
99.7595
122.108
124.094
122.568
121.816
122.033
123.313
129.116
135.437
139.711
140.385
134.997
125.98
123.033
142.164
168.621
170.788
151.992
126.337
106.127
94.6966
93.4279
97.1648
98.3786
89.973
80.3338
73.3522
74.371
75.486
58.1545
11.2813
2.2681
24.8623
34.7414
77.5386
103.327
125.951
128.364
127.745
128.389
129.98
132.577
139.765
148.496
155.53
159.805
154.42
143.162
139.371
158.245
176.608
166.766
141.533
114.941
96.4373
87.2745
87.5202
91.1894
90.3205
80.6167
72.0267
66.5626
67.5975
67.2455
48.3151
9.65946
2.18589
23.4808
37.1139
80.0737
106.423
129.349
132.121
132.447
134.554
137.738
141.964
150.952
162.989
174.333
184.336
180.248
165.871
160.161
176.672
183.982
161.599
131.02
104.511
88.02
80.889
82.1559
85.231
82.3599
72.1468
64.8133
60.5282
61.2582
59.2711
39.8392
8.23966
2.10455
22.3333
40.1696
82.3219
109.066
132.329
135.418
136.718
140.352
145.345
151.542
162.823
179.192
196.758
215.219
213.976
195.405
185.84
196.78
190.3
155.647
120.914
95.218
80.7942
75.3745
77.1935
79.2657
74.6616
64.5896
58.5202
55.0707
55.2498
51.679
32.6744
7.02851
2.02503
21.4546
43.8852
84.314
111.297
134.935
138.326
140.625
145.861
152.883
161.438
175.602
197.498
223.634
253.869
256.874
232.587
216.286
217.393
194.993
149.19
111.513
87.1003
74.6278
70.5628
72.5105
73.3189
67.3866
57.9235
52.9888
50.0548
49.5211
44.5907
26.712
6.01265
1.94791
20.8892
48.1981
86.073
113.169
137.223
140.919
144.252
151.184
160.481
171.837
189.587
218.425
255.925
301.371
308.916
276.576
249.878
236.625
197.44
142.419
102.983
80.0984
69.3625
66.2998
68.0152
67.4555
60.6603
52.087
48.0802
45.3859
44.066
38.1102
21.8114
5.16916
1.87355
20.7351
52.9972
87.6165
114.74
139.25
143.273
147.689
156.445
168.308
182.995
205.177
242.609
294.548
357.247
366.731
323.422
283.008
252.086
197.052
135.382
95.34
74.0926
64.8382
62.4494
63.6483
61.7633
54.5587
46.9956
43.6788
41.0043
38.909
32.3068
17.8207
4.47229
1.8021
21.1259
58.1227
88.9609
116.069
141.077
145.465
151.038
161.793
176.59
195.257
222.898
270.861
340.258
418.354
422.305
365.384
310.115
261.372
193.501
128.087
88.5228
68.9334
60.9017
58.8998
59.3845
56.3346
49.108
42.5538
39.691
36.8786
34.09
27.2071
14.5916
3.89725
1.73359
22.2957
63.3795
90.1255
117.212
142.767
147.569
154.411
167.412
185.625
209.112
243.501
304.268
393.376
478.201
464.735
393.34
325.881
263.035
186.818
120.519
82.4086
64.4656
57.4165
55.562
55.2254
51.2494
44.2943
38.6671
36.0454
32.9983
29.649
22.7987
11.9888
3.42196
1.66796
24.5223
68.565
91.133
118.221
144.382
149.669
157.945
173.543
195.836
225.282
268.12
344.399
453.356
528.193
485.534
401.538
327.656
257.11
177.453
112.736
76.879
60.5429
54.2634
52.3708
51.1932
46.5654
40.0751
35.2474
32.6885
29.366
25.6159
19.039
9.89419
3.0276
1.6051
28.1637
73.4993
92.0078
119.141
145.987
151.86
161.813
180.524
207.857
244.901
298.563
393.523
517.471
559.923
482.749
390.766
316.916
245.058
166.077
104.826
71.8161
57.0358
51.3436
49.2808
47.319
42.3128
36.3923
32.2181
29.5831
25.9907
22.0052
15.8666
8.20818
2.69864
1.54486
33.4954
78.0495
92.7737
120.016
147.659
154.259
166.255
188.86
222.69
269.82
337.761
454.481
578.671
567.913
460.403
366.502
297.524
228.892
153.427
96.9212
67.1347
53.8362
48.5777
46.2654
43.6359
38.4963
33.1811
29.5144
26.704
22.8823
18.8147
13.2112
6.8487
2.42239
1.4871
40.701
82.1408
93.4522
120.888
149.488
157.03
171.628
199.356
242.008
303.154
390.275
528.729
623.911
550.561
424.694
335.036
273.663
210.472
140.114
89.135
62.7631
50.8587
45.9074
43.3114
40.1691
35.0993
30.3774
27.0838
24.0355
20.0472
16.0278
11.0016
5.74926
2.18869
1.43168
49.6321
85.7671
94.0623
121.801
151.594
160.414
178.497
213.359
268.706
350.07
461.786
609.73
637.656
510.683
381.446
300.923
248.154
191.049
126.612
81.5754
58.658
48.0418
43.2943
40.4175
36.9345
32.0905
27.9215
24.8846
21.5678
17.4866
13.6173
9.17022
4.8566
1.98937
1.37847
59.8743
88.97
94.6217
122.812
154.156
164.793
187.81
233.25
307.913
418.207
553.528
672.914
610.798
454.737
335.319
266.888
222.619
171.358
113.242
74.3197
54.7864
45.3463
40.7209
37.5901
33.9354
29.4294
25.7605
22.8847
19.2952
15.1959
11.5493
7.65614
4.12843
1.81792
1.32736
70.5911
91.8235
95.1486
123.999
157.449
170.815
201.261
263.424
368.347
513.611
644.882
681.97
547.743
391.404
290.01
234.424
197.715
151.748
100.242
67.4393
51.1343
42.7536
38.1878
34.8429
31.1654
27.0712
23.8478
21.0597
17.2136
13.1647
9.78699
6.40607
3.53131
1.66912
1.27823
80.9187
94.4187
95.6653
125.484
161.957
179.675
222.092
312.105
460.931
620.217
682.564
622.47
463.927
328.628
248.174
204.535
173.836
132.431
87.79
60.9863
47.6932
40.2612
35.7121
32.195
28.6112
24.97
22.1437
19.391
15.3193
11.3783
8.29313
5.37443
3.03889
1.53883
1.23102
89.3733
96.8614
96.2034
127.473
168.586
193.769
256.878
392.591
577.949
672.943
628.785
517.971
377.035
271.834
211.438
177.963
151.257
113.573
76.0367
55.0059
44.4653
37.8776
33.322
29.6721
26.2572
23.0819
20.6131
17.8641
13.6076
9.81916
7.03219
4.52278
2.63039
1.42368
1.18565
95.1437
99.2892
96.8174
130.359
179.254
218.365
318.596
507.11
642.604
613.966
511.405
405.336
299.128
223.279
180.247
155.102
130.38
95.4783
65.1252
49.5226
41.451
35.6158
31.0517
27.3045
24.0902
21.366
19.2251
16.4668
12.0725
8.46761
5.97137
3.81909
2.28943
1.32098
1.14207
0.00337795
0.00250593
0.0022802
0.00216992
0.00213017
0.00213413
0.00216598
0.00375026
0.0683847
0.169894
0.301826
0.489126
0.732517
1.04319
1.40822
1.92072
2.85594
4.94292
11.8585
30.4319
206.626
160.184
0.00334454
0.00224279
0.00184343
0.00160855
0.00148855
0.00145179
0.00148437
0.00377217
0.0687642
0.171021
0.303836
0.491563
0.735157
1.04627
1.4117
1.92478
2.86098
4.94994
11.8782
30.4673
207.534
170.329
0.00354058
0.00237588
0.00188231
0.00154509
0.001324
0.0011942
0.00116399
0.00378842
0.0690131
0.171849
0.305405
0.493323
0.736818
1.04799
1.41346
1.92671
2.86328
4.95356
11.8913
30.5039
207.592
180.014
0.00367095
0.00251746
0.00200377
0.00162965
0.00135811
0.00116728
0.00103239
0.00379997
0.06915
0.172397
0.306533
0.494396
0.737482
1.04834
1.41348
1.92645
2.86278
4.95361
11.8965
30.5421
206.864
189.106
0.00392269
0.00276391
0.00222608
0.00182157
0.0015136
0.00127948
0.000997442
0.00380768
0.0691857
0.172679
0.307214
0.494771
0.737135
1.04731
1.41173
1.92399
2.85941
4.94995
11.8922
30.5824
205.394
198.066
0.00406036
0.00292975
0.00239822
0.0019915
0.0016744
0.00142427
0.000985821
0.00381212
0.0691267
0.172701
0.307446
0.494443
0.735771
1.04488
1.4082
1.91929
2.8531
4.94244
11.8769
30.6248
203.216
207.062
0.00434059
0.00320794
0.0026591
0.00223269
0.001895
0.00162337
0.00105444
0.00381368
0.0689764
0.172468
0.307228
0.49341
0.733388
1.04107
1.40291
1.91234
2.84382
4.93095
11.8494
30.6691
200.368
216.093
0.00447872
0.00337931
0.00284361
0.00242283
0.00208555
0.00181015
0.00118085
0.00381243
0.0687367
0.171984
0.306561
0.491675
0.729996
1.03588
1.39586
1.90315
2.83151
4.91537
11.8087
30.7143
196.9
225.097
0.00478414
0.00368459
0.00313418
0.0026961
0.00234088
0.00204755
0.00130536
0.00380822
0.0684085
0.171253
0.305453
0.489247
0.72561
1.02934
1.38708
1.89173
2.81614
4.89559
11.7536
30.759
192.869
234.004
0.00490884
0.00384891
0.00331924
0.00289403
0.00254594
0.00225513
0.00139589
0.00380072
0.0679921
0.170279
0.303912
0.486143
0.720256
1.02148
1.37661
1.87809
2.79768
4.87151
11.6836
30.8009
188.335
242.727
0.00522948
0.00417119
0.0036296
0.00318963
0.00282593
0.00251944
0.00150993
0.00378959
0.0674867
0.169065
0.301953
0.48238
0.713967
1.01234
1.3645
1.86227
2.7761
4.84304
11.5981
30.8369
183.363
251.158
0.00533943
0.00432476
0.00380962
0.00338846
0.00303766
0.00273926
0.00162971
0.00377426
0.0668909
0.167616
0.299592
0.477987
0.706781
1.00197
1.3508
1.84432
2.75137
4.81005
11.4966
30.8628
178.021
259.161
0.00567217
0.00466085
0.00413628
0.00370252
0.00333793
0.00302553
0.00183407
0.00375417
0.0662019
0.165938
0.296846
0.472995
0.698745
0.990413
1.33559
1.8243
2.7235
4.77243
11.379
30.8735
172.379
266.588
0.00575639
0.00479297
0.00430093
0.00389236
0.00354699
0.00324879
0.00211183
0.0037284
0.0654148
0.164035
0.293736
0.467437
0.689911
0.977745
1.31895
1.8023
2.6925
4.73007
11.245
30.8626
166.502
273.287
0.00609214
0.00513323
0.00463387
0.00421473
0.0038575
0.00354725
0.00251608
0.00369594
0.0645217
0.161909
0.290279
0.461355
0.680334
0.964032
1.30095
1.77839
2.65839
4.68281
11.0948
30.8232
160.455
279.107
0.0061523
0.00524303
0.00477997
0.0043905
0.00405728
0.00376619
0.00298217
0.00365488
0.06351
0.159559
0.286495
0.454789
0.670074
0.949347
1.2817
1.7527
2.62122
4.63052
10.9284
30.7472
154.3
283.92
0.00648678
0.00558299
0.00511436
0.00471592
0.00437228
0.0040705
0.00349428
0.0036032
0.0623607
0.156982
0.282398
0.447782
0.659194
0.933768
1.26128
1.72533
2.58109
4.57303
10.7461
30.6261
148.09
287.613
0.00651848
0.00566554
0.00523635
0.00487147
0.00455611
0.00427797
0.00389105
0.00353638
0.0610449
0.154164
0.277997
0.440377
0.647761
0.917373
1.2398
1.69641
2.5381
4.51019
10.5484
30.4509
141.872
290.106
0.00683901
0.00599235
0.0055594
0.00518738
0.00486342
0.00457644
0.00426772
0.00345469
0.0595197
0.151083
0.273297
0.432616
0.63584
0.900246
1.21736
1.66608
2.49238
4.44183
10.3357
30.2125
135.69
291.34
0.0068536
0.00605582
0.00566218
0.00532456
0.00503043
0.00476914
0.00452342
0.00336677
0.0577224
0.147698
0.26829
0.424534
0.6235
0.88247
1.19407
1.63447
2.44409
4.36783
10.1087
29.9022
129.576
291.286
0.00716009
0.00636931
0.00597339
0.00563004
0.00532852
0.00505944
0.00481846
0.00333398
0.0555618
0.143948
0.262954
0.41616
0.610807
0.86413
1.17002
1.60173
2.39341
4.28805
9.86827
29.5119
123.558
289.931
0.00715673
0.00641258
0.00605544
0.00574688
0.00547627
0.00523445
0.00501931
0.00352401
0.0529085
0.139739
0.257244
0.407509
0.597826
0.84531
1.14532
1.56801
2.34055
4.20244
9.61518
29.0346
117.657
287.282
0.00744654
0.00670957
0.00635107
0.00603774
0.00576066
0.00551187
0.00528831
0.00402167
0.049584
0.134932
0.251087
0.398577
0.584612
0.826097
1.12007
1.53343
2.28574
4.11095
9.35042
28.4649
111.887
283.355
0.00743064
0.00673708
0.00641564
0.00613624
0.00588989
0.0056687
0.00546777
0.0046313
0.0453551
0.129325
0.244364
0.389331
0.571208
0.806573
1.09436
1.49815
2.22922
4.01364
9.075
27.7993
106.258
278.179
0.00770414
0.00701768
0.00669551
0.00641201
0.00615978
0.00593209
0.00572373
0.00523011
0.0399607
0.122634
0.236894
0.379697
0.557637
0.78682
1.0683
1.46231
2.17124
3.91061
8.78996
27.0366
100.774
271.786
0.00767679
0.00703047
0.00674334
0.00649254
0.00627042
0.00607022
0.00588596
0.00561267
0.0332262
0.114471
0.228413
0.36954
0.543888
0.766907
1.04197
1.42603
2.11207
3.80208
8.49634
26.1783
95.4361
264.221
0.00793327
0.00729367
0.0070061
0.00675158
0.00652397
0.00631758
0.00612718
0.00592075
0.0253557
0.104344
0.218536
0.35864
0.529898
0.746889
1.01547
1.38947
2.052
3.68837
8.19515
25.2288
90.2415
255.535
0.00789957
0.00729642
0.0070413
0.00681752
0.00661863
0.0064388
0.00627247
0.0061083
0.0172978
0.0917344
0.20672
0.34666
0.515526
0.726784
0.988871
1.35273
1.99133
3.56989
7.88737
24.1951
85.1834
245.793
0.00814115
0.00754422
0.00728874
0.00706143
0.00685721
0.00667128
0.00649907
0.00633475
0.010858
0.0763417
0.192228
0.333096
0.500519
0.706553
0.962241
1.31596
1.93038
3.44723
7.57393
23.087
80.2534
235.072
0.00810338
0.00753942
0.00731377
0.00711514
0.00693805
0.00677751
0.00662865
0.0064864
0.00741816
0.0586104
0.174132
0.317217
0.484468
0.686064
0.935601
1.27926
1.86947
3.32111
7.25574
21.9166
75.4399
223.47
0.00833019
0.00777188
0.00754586
0.00734384
0.0071616
0.00699507
0.0068404
0.00669379
0.00651802
0.0403063
0.151475
0.297989
0.466745
0.665039
0.90891
1.24273
1.80894
3.19239
6.93376
20.6981
70.7305
211.101
0.00829266
0.0077638
0.00756482
0.0073891
0.007232
0.00708924
0.00695661
0.0068301
0.00658146
0.0243873
0.123779
0.274022
0.446417
0.642994
0.882014
1.20639
1.74913
3.06213
6.60905
19.4469
66.1112
198.098
0.00850597
0.00798223
0.00778286
0.00760391
0.00744186
0.00729327
0.00715487
0.00702363
0.00683994
0.0137188
0.0920982
0.243654
0.422129
0.619161
0.854582
1.17022
1.69036
2.93153
6.28289
18.1791
61.5705
184.613
0.00847101
0.00797347
0.00779841
0.00764339
0.00750443
0.00737787
0.00726004
0.00714756
0.00701933
0.00865845
0.06016
0.205464
0.391978
0.592374
0.826028
1.13404
1.63285
2.80191
5.95688
16.911
57.0988
170.814
0.00867161
0.00817869
0.00800324
0.00784515
0.00770148
0.00756931
0.00744585
0.00732854
0.00720921
0.00711575
0.0338341
0.159632
0.353501
0.560925
0.79541
1.09744
1.57672
2.67467
5.63303
15.6587
52.6936
156.875
0.00864157
0.00817178
0.00801802
0.00788148
0.0077588
0.00764679
0.0075423
0.00744234
0.00734209
0.00695277
0.0174455
0.110045
0.304134
0.522367
0.761292
1.05975
1.52189
2.55114
5.31383
14.4371
48.3606
142.979
0.00883156
0.00836591
0.00821168
0.00807221
0.007945
0.00782757
0.00771755
0.00761271
0.00750996
0.00720218
0.0102059
0.0651022
0.242858
0.473455
0.721553
1.01987
1.46795
2.43244
5.00211
13.2601
44.1163
129.303
0.00880913
0.00836381
0.0082288
0.00810858
0.00800026