/*--------------------------------*- C++ -*----------------------------------*\
| =========                 |                                                 |
| \\      /  F ield         | OpenFOAM: The Open Source CFD Toolbox           |
|  \\    /   O peration     | Version:  v1912                                 |
|   \\  /    A nd           | Website:  www.openfoam.com                      |
|    \\/     M anipulation  |                                                 |
\*---------------------------------------------------------------------------*/
FoamFile
{
    version     2.0;
    format      ascii;
    class       volScalarField;
    location    "520";
    object      nut;
}
// * * * * * * * * * * * * * * * * * * * * * * * * * * * * * * * * * * * * * //

dimensions      [0 2 -1 0 0 0 0];


internalField   nonuniform List<scalar> 
12441
(
5.82185e-24
1.79046e-20
8.10466e-20
3.32531e-19
1.06827e-18
3.88827e-18
1.01056e-17
2.50057e-17
6.13856e-17
1.27537e-16
3.05671e-16
7.71302e-16
2.18218e-15
7.40161e-15
1.03674e-13
1.89399e-11
0.000193534
0.000927954
0.00298957
0.00260746
0.0036474
0.00775321
6.34179e-24
3.03334e-20
1.11726e-19
4.23926e-19
1.30204e-18
4.80715e-18
1.21983e-17
3.00104e-17
7.36104e-17
1.54458e-16
3.79811e-16
1.02893e-15
2.82988e-15
9.37503e-15
1.13115e-13
3.89897e-11
5.7649e-05
0.0011246
0.00342437
0.00283912
0.00401004
0.00781733
6.36455e-24
3.58935e-20
1.20772e-19
4.48106e-19
1.37766e-18
4.90653e-18
1.29286e-17
3.20411e-17
8.05139e-17
1.71775e-16
4.17894e-16
1.11715e-15
2.78647e-15
7.66337e-15
5.35371e-14
6.57019e-12
1.10916e-05
0.000826319
0.00136774
0.00267914
0.00416323
0.0078909
6.31901e-24
3.76896e-20
1.18527e-19
4.29284e-19
1.32527e-18
4.71332e-18
1.25129e-17
3.13265e-17
7.84928e-17
1.73675e-16
4.23756e-16
1.15368e-15
2.61191e-15
8.47451e-15
3.852e-14
1.54255e-12
1.62482e-06
0.000577358
0.00102111
0.00260358
0.00432592
0.0079647
6.28498e-24
4.38807e-20
1.29771e-19
4.58286e-19
1.4026e-18
4.77907e-18
1.30902e-17
3.2794e-17
8.42952e-17
1.87525e-16
4.54159e-16
1.2843e-15
3.02072e-15
4.07115e-14
2.47291e-13
2.29656e-12
1.3963e-07
0.000408688
0.00100382
0.0025916
0.00446605
0.00803394
6.23479e-24
4.12857e-20
1.20532e-19
4.29161e-19
1.34263e-18
4.62179e-18
1.27497e-17
3.2392e-17
8.28908e-17
1.92685e-16
4.76935e-16
1.44515e-15
4.5351e-15
1.32906e-12
1.19022e-11
5.10164e-11
4.58559e-07
0.000377704
0.00107326
0.00264837
0.00459177
0.00809948
6.19991e-24
5.02611e-20
1.37787e-19
4.75737e-19
1.46005e-18
4.79214e-18
1.35923e-17
3.44523e-17
9.06982e-17
2.11122e-16
5.20828e-16
1.99953e-15
2.50376e-14
4.14482e-11
6.58088e-10
9.37163e-09
1.87605e-05
0.000400905
0.00126301
0.00283043
0.00473538
0.00816218
6.15012e-24
4.34497e-20
1.23164e-19
4.40127e-19
1.40806e-18
4.72246e-18
1.35114e-17
3.48434e-17
9.13146e-17
2.23844e-16
5.72489e-16
5.43449e-15
6.10063e-13
2.25376e-09
8.41931e-08
4.98275e-06
0.000196985
0.000467115
0.0017144
0.00319935
0.00492199
0.00822577
6.11735e-24
5.57012e-20
1.46122e-19
4.99643e-19
1.554e-18
4.95829e-18
1.46107e-17
3.75687e-17
1.02068e-16
2.50941e-16
6.4532e-16
6.13342e-14
2.5919e-11
7.42614e-08
1.04586e-05
0.000156189
0.000823826
0.000846171
0.00264599
0.00382522
0.00518298
0.00829204
6.07047e-24
4.43471e-20
1.25428e-19
4.56599e-19
1.50742e-18
4.95325e-18
1.47464e-17
3.87233e-17
1.04871e-16
2.75114e-16
7.48584e-16
1.68152e-12
1.08349e-09
4.44021e-06
0.000194653
0.000642604
0.00181252
0.00163855
0.00437636
0.00478499
0.00553098
0.00836448
6.04133e-24
6.02569e-20
1.53425e-19
5.2587e-19
1.67259e-18
5.20554e-18
1.60239e-17
4.20322e-17
1.19286e-16
3.17361e-16
8.9203e-16
5.22964e-11
5.50566e-08
8.29316e-05
0.00076003
0.00188051
0.00417372
0.00336831
0.00739301
0.00618167
0.00597913
0.00844366
5.99589e-24
4.46264e-20
1.27728e-19
4.76908e-19
1.63356e-18
5.28053e-18
1.6401e-17
4.40624e-17
1.25491e-16
3.64618e-16
1.15854e-15
1.45641e-09
3.24722e-06
0.000360444
0.00176501
0.00449278
0.00914858
0.00695663
0.0122035
0.00806467
0.00651711
0.00853143
5.97031e-24
6.41461e-20
1.6044e-19
5.5377e-19
1.81482e-18
5.54147e-18
1.7907e-17
4.82189e-17
1.46693e-16
4.44711e-16
1.69446e-15
3.52151e-08
7.30981e-05
0.00118684
0.0046498
0.0105044
0.0189087
0.0136791
0.0190017
0.0104206
0.00713679
0.00862633
5.92632e-24
4.43228e-20
1.29662e-19
4.99277e-19
1.78305e-18
5.69144e-18
1.85309e-17
5.13804e-17
1.59839e-16
5.59132e-16
3.60114e-15
7.96492e-07
0.000358842
0.00327326
0.0109083
0.0218561
0.0354259
0.0246342
0.0274782
0.0131288
0.0078073
0.00872852
5.90397e-24
6.75123e-20
1.66644e-19
5.8258e-19
1.97784e-18
5.93964e-18
2.02674e-17
5.67788e-17
1.96041e-16
7.78677e-16
1.65161e-14
1.52065e-05
0.00123676
0.00818022
0.0226003
0.0402333
0.0596151
0.039982
0.0368115
0.0160349
0.00850963
0.00883515
5.86026e-24
4.39565e-20
1.31989e-19
5.24768e-19
1.95764e-18
6.18503e-18
2.12004e-17
6.16748e-17
2.2815e-16
1.21621e-15
3.02141e-13
0.000139466
0.00327772
0.0175996
0.041357
0.066234
0.0906033
0.0584082
0.0459829
0.0189423
0.00920825
0.00894576
5.8412e-24
7.0537e-20
1.73494e-19
6.15081e-19
2.17044e-18
6.43903e-18
2.33088e-17
6.93736e-17
3.08209e-16
2.30484e-15
1.26017e-11
0.000551187
0.00790662
0.033049
0.0673437
0.0990434
0.125385
0.0773574
0.0540862
0.0217127
0.00988904
0.00905718
5.79722e-24
4.35e-20
1.34485e-19
5.531e-19
2.1605e-18
6.77104e-18
2.46164e-17
7.72246e-17
4.08434e-16
5.44535e-15
5.47956e-10
0.00149297
0.0165523
0.0553017
0.099928
0.136133
0.159297
0.0939418
0.0606509
0.0242229
0.0105253
0.00916919
5.7809e-24
7.32607e-20
1.80279e-19
6.49094e-19
2.38784e-18
7.01114e-18
2.71805e-17
8.90655e-17
6.61679e-16
1.69223e-14
4.40872e-08
0.00384868
0.0306478
0.0835075
0.136541
0.173719
0.187316
0.106168
0.0656157
0.026439
0.0111167
0.00927899
5.73633e-24
4.30512e-20
1.36863e-19
5.82369e-19
2.38671e-18
7.4376e-18
2.90051e-17
1.02309e-16
1.08034e-15
7.52675e-14
8.57574e-06
0.00858472
0.0506056
0.116293
0.174358
0.207378
0.205628
0.113568
0.0692749
0.0283295
0.0116496
0.00938714
5.72331e-24
7.57267e-20
1.86794e-19
6.83144e-19
2.6291e-18
7.67255e-18
3.2302e-17
1.22239e-16
2.19361e-15
7.80156e-13
0.000171413
0.0170997
0.0757424
0.151066
0.209371
0.233387
0.212905
0.117119
0.0720074
0.0299293
0.0121368
0.00949146
5.67792e-24
4.24324e-20
1.38565e-19
6.10892e-19
2.63496e-18
8.19271e-18
3.49373e-17
1.46454e-16
4.33982e-15
1.34051e-11
0.000701269
0.0303371
0.104505
0.185637
0.2387
0.249497
0.210543
0.118424
0.0741931
0.0312498
0.0125756
0.00959327
5.66758e-24
7.80202e-20
1.92463e-19
7.1545e-19
2.88972e-18
8.41782e-18
3.94308e-17
1.83573e-16
1.0275e-14
1.66095e-10
0.00195708
0.0484241
0.134951
0.217272
0.259736
0.255638
0.201863
0.118929
0.0760729
0.0323511
0.0129903
0.00969106
5.62165e-24
4.19627e-20
1.39786e-19
6.37969e-19
2.90243e-18
9.03699e-18
4.3498e-17
2.31477e-16
2.24185e-14
1.55797e-09
0.00474833
0.07074
0.165187
0.244287
0.272104
0.253503
0.190618
0.119454
0.0778059
0.0332628
0.0133877
0.00978684
5.61485e-24
8.02732e-20
1.97572e-19
7.45786e-19
3.17105e-18
9.26689e-18
5.02617e-17
3.06413e-16
5.64368e-14
1.37805e-08
0.00997856
0.0958611
0.193615
0.265153
0.276299
0.245936
0.179723
0.120259
0.0794444
0.0340606
0.0138007
0.00987966
5.56712e-24
4.17907e-20
1.40757e-19
6.63837e-19
3.19185e-18
9.99182e-18
5.71483e-17
4.08433e-16
1.3047e-13
3.19009e-07
0.0184685
0.122356
0.219024
0.279757
0.274423
0.23581
0.170709
0.121262
0.0810142
0.0347894
0.0142426
0.00997203
5.56282e-24
8.24821e-20
2.02091e-19
7.73989e-19
3.47275e-18
1.02318e-17
6.8457e-17
5.73333e-16
3.92516e-13
1.8776e-05
0.0304031
0.148707
0.240626
0.288307
0.268452
0.225417
0.163938
0.122294
0.0824953
0.0355319
0.0147497
0.0100634
5.51395e-24
4.18584e-20
1.41216e-19
6.87492e-19
3.50134e-18
1.10682e-17
8.13231e-17
8.10338e-16
1.8298e-12
0.000215493
0.045553
0.173865
0.258041
0.292015
0.26061
0.216094
0.159118
0.123197
0.0838746
0.0363308
0.0153347
0.0101564
5.51303e-24
8.4674e-20
2.05792e-19
7.99194e-19
3.79612e-18
1.13438e-17
1.02509e-16
1.20434e-15
1.28007e-11
0.000743647
0.0631359
0.196952
0.271284
0.291951
0.252246
0.208406
0.155755
0.123883
0.0851174
0.0372503
0.0160275
0.0102507
5.4619e-24
4.20334e-20
1.40961e-19
7.08384e-19
3.83342e-18
1.23039e-17
1.28819e-16
1.79563e-15
7.4086e-11
0.00156898
0.0824302
0.217491
0.280668
0.289507
0.244438
0.202371
0.153387
0.124312
0.0862043
0.0383026
0.0168282
0.0103488
5.46301e-24
8.68053e-20
2.08974e-19
8.21781e-19
4.14308e-18
1.26528e-17
1.72471e-16
2.80949e-15
3.56386e-10
0.00288789
0.102571
0.235136
0.286719
0.285577
0.237527
0.197776
0.15167
0.124491
0.0871023
0.0395107
0.01775
0.01045
5.41082e-24
4.22456e-20
1.39895e-19
7.26578e-19
4.19064e-18
1.37407e-17
2.30118e-16
4.38934e-15
1.38679e-09
0.0049418
0.122942
0.249851
0.290055
0.281059
0.231739
0.194316
0.150374
0.124442
0.0877944
0.0408453
0.0187723
0.0105565
5.41503e-24
8.89172e-20
2.1141e-19
8.42366e-19
4.52254e-18
1.41929e-17
3.26389e-16
7.08338e-15
4.74639e-09
0.00806705
0.142887
0.261681
0.291304
0.276364
0.226942
0.191723
0.149359
0.124203
0.0882526
0.042293
0.0198873
0.010667
5.35937e-24
4.22781e-20
1.37805e-19
7.42847e-19
4.58471e-18
1.54528e-17
4.58227e-16
1.12951e-14
1.44521e-08
0.0126173
0.162033
0.270885
0.291038
0.271905
0.223078
0.189767
0.148549
0.123809
0.0884644
0.0438014
0.0210546
0.0107831
5.36552e-24
8.84568e-20
2.10336e-19
8.57222e-19
4.93649e-18
1.60476e-17
6.77964e-16
1.85068e-14
4.28101e-08
0.01897
0.180048
0.277738
0.289745
0.267764
0.219932
0.188283
0.147906
0.123303
0.088408
0.0453498
0.0222533
0.0109032
5.30582e-24
4.14854e-20
1.32572e-19
7.51592e-19
5.00989e-18
1.74617e-17
9.80416e-16
2.99168e-14
2.19911e-07
0.027613
0.196895
0.282634
0.287812
0.264106
0.217422
0.187149
0.147417
0.122719
0.0880771
0.0468969
0.0234358
0.0110282
5.31236e-24
8.52629e-20
2.03823e-19
8.62055e-19
5.38099e-18
1.81863e-17
1.47467e-15
5.74578e-14
1.17694e-05
0.0391803
0.212579
0.285919
0.285541
0.260879
0.215381
0.18629
0.147085
0.122098
0.0874593
0.0484496
0.0245828
0.0111563
5.24588e-24
4.16145e-20
1.27322e-19
7.57666e-19
5.48239e-18
1.98559e-17
2.14223e-15
4.65005e-13
0.000252567
0.0546394
0.227313
0.287987
0.28315
0.258165
0.213769
0.185654
0.146924
0.121473
0.0865593
0.0500049
0.0256571
0.0112883
5.24932e-24
5.37898e-20
1.54721e-19
7.99476e-19
5.76875e-18
2.06387e-17
3.20145e-15
2.31288e-11
0.00222264
0.0751649
0.241241
0.289148
0.280795
0.25589
0.212478
0.185222
0.146956
0.120883
0.0853803
0.0516098
0.0266615
0.011422
5.17248e-24
4.328e-20
1.14469e-19
7.24242e-19
5.94002e-18
2.35432e-17
4.66232e-15
1.03289e-09
0.00987216
0.101548
0.254551
0.289731
0.278573
0.254137
0.211522
0.184987
0.147205
0.120359
0.0839474
0.0532892
0.0275875
0.0115584
5.1659e-24
1.93951e-21
1.12091e-20
4.00643e-19
5.44896e-18
2.44371e-17
7.20686e-15
1.8498e-07
0.0285178
0.133807
0.267232
0.289968
0.276535
0.252849
0.210833
0.184964
0.147699
0.119931
0.0822894
0.055083
0.0284729
0.0116955
5.07772e-24
1.71164e-20
4.47719e-20
4.17361e-19
5.46189e-18
3.62043e-17
1.80042e-14
5.68385e-05
0.0628825
0.171391
0.27923
0.290111
0.274687
0.252143
0.210475
0.185172
0.148463
0.119617
0.0804631
0.0569339
0.0293315
0.0118345
5.03896e-24
6.72019e-22
8.45913e-23
2.35239e-19
5.06613e-18
8.28137e-17
3.70765e-13
0.00151034
0.116265
0.213277
0.290271
0.290331
0.272996
0.251967
0.210403
0.185658
0.14952
0.119429
0.0785323
0.0586682
0.0301635
0.011976
4.83815e-24
2.10321e-19
4.58126e-19
1.0295e-18
7.26024e-18
9.13511e-16
7.18206e-12
0.0101274
0.190092
0.258828
0.300532
0.290951
0.271429
0.25243
0.210679
0.186442
0.150871
0.119297
0.0765767
0.0598423
0.0306636
0.0121338
0.00987657
0.0338912
0.039057
0.0145606
0.0105073
0.0101163
0.010109
0.0105631
0.0105978
0.0112721
0.0165127
0.0160003
0.0150078
0.0149388
0.0157861
0.017611
0.0194727
0.0199633
0.018274
0.0146178
0.0124371
0.0120854
0.0122109
0.0123696
0.0125777
0.0128555
0.0132538
0.0138405
0.0145166
0.0153746
0.0162336
0.0161111
0.0147516
0.0765819
0.179626
0.00986353
0.0345127
0.0380382
0.0142173
0.0104324
0.0100165
0.0102166
0.0106995
0.010647
0.0113125
0.0161839
0.0156042
0.0146338
0.0145365
0.0153703
0.0172352
0.0193614
0.0201397
0.018513
0.0146038
0.0121963
0.0117884
0.0119427
0.0121386
0.0123684
0.0126478
0.0130348
0.0136083
0.0142889
0.0151637
0.0160497
0.0159162
0.0146303
0.07595
0.179442
0.00983842
0.0350959
0.0362643
0.0136293
0.0104358
0.00993182
0.0104878
0.0109929
0.0107924
0.0114276
0.015016
0.0142786
0.0135393
0.0133662
0.0137564
0.0150518
0.0169332
0.0179175
0.0169427
0.0136438
0.011475
0.0111172
0.0113566
0.0116443
0.0119312
0.0122253
0.0125979
0.0131465
0.0138322
0.0147364
0.0156755
0.0155274
0.014594
0.0749506
0.179013
0.00979929
0.0356299
0.0340087
0.0131132
0.0105725
0.0099585
0.0108879
0.011317
0.0110123
0.0116326
0.0137601
0.0128234
0.012286
0.0121533
0.0121808
0.0127644
0.014031
0.0148973
0.0145226
0.0121375
0.0104046
0.010123
0.0104614
0.0108797
0.0112644
0.0115968
0.0119608
0.0124756
0.0131601
0.0140982
0.0151153
0.0149576
0.014545
0.0735204
0.178333
0.00974597
0.0359742
0.031426
0.01264
0.0107218
0.0100081
0.0112759
0.0115554
0.0111984
0.0118114
0.0127055
0.0115994
0.0112548
0.0112613
0.0110668
0.0110205
0.0115709
0.012061
0.011983
0.010425
0.00912862
0.00889009
0.00929332
0.0098517
0.0103732
0.0107778
0.0111496
0.0116275
0.0122986
0.0132646
0.0143797
0.014226
0.0144059
0.0716114
0.177409
0.00967615
0.0360056
0.0286367
0.0121187
0.010786
0.00999357
0.0115347
0.0116365
0.0112579
0.0118383
0.0118239
0.0106219
0.0104495
0.0105921
0.0102992
0.00981652
0.00975974
0.0098006
0.00973713
0.00874658
0.00778473
0.00753217
0.00792777
0.0085919
0.00927195
0.00978849
0.0101955
0.0106413
0.0112837
0.0122613
0.0134852
0.0133569
0.0141181
0.069193
0.17626
0.00959042
0.0356406
0.0257678
0.0115159
0.0107394
0.00988775
0.0116144
0.0115412
0.0111506
0.0116497
0.0110065
0.00977709
0.00972008
0.00991383
0.00959729
0.00889428
0.00844331
0.00811533
0.00791814
0.0072318
0.00648353
0.00617413
0.00648029
0.00717015
0.00799309
0.00865431
0.00913161
0.00955999
0.0101597
0.0111234
0.0124543
0.0123783
0.0136422
0.0662555
0.174908
0.00948687
0.0348146
0.0229499
0.0108599
0.0106094
0.00970951
0.0115242
0.0112899
0.0108839
0.0112478
0.0101781
0.00897234
0.00895573
0.00909453
0.00877081
0.00800953
0.00737743
0.00682996
0.00648047
0.00591985
0.00529845
0.00492672
0.00508864
0.00570083
0.00659902
0.00741115
0.00799276
0.00842645
0.00897537
0.00989478
0.0113157
0.0113211
0.0129587
0.0628133
0.173379
0.00936733
0.0335126
0.0202945
0.0102074
0.0104445
0.00949856
0.0113064
0.0109239
0.0104916
0.0106765
0.00932218
0.00817148
0.00813314
0.00814244
0.00778736
0.00704528
0.00638175
0.00575963
0.00531416
0.00480114
0.00426873
0.00386656
0.00387936
0.00432875
0.00519136
0.00611369
0.00681752
0.00728205
0.00778024
0.00862584
0.0101045
0.010218
0.0120687
0.0589084
0.171699
0.0092307
0.031739
0.0178854
0.00961657
0.0102937
0.00929813
0.0110164
0.0104926
0.0100203
0.0099974
0.00845748
0.00737575
0.00728009
0.00713663
0.0067162
0.00600078
0.00537845
0.00478788
0.00432577
0.00385538
0.00341134
0.00302984
0.00293494
0.00319093
0.00390361
0.00484331
0.00565301
0.00616679
0.00662185
0.00737069
0.00886201
0.00910269
0.0109946
0.0546123
0.169901
0.00908003
0.0295465
0.0157744
0.00913397
0.0101987
0.00914708
0.0107099
0.0100452
0.00951776
0.00927387
0.00761664
0.00660066
0.00643473
0.00616124
0.00566204
0.00495013
0.00438163
0.00388359
0.00347433
0.00307501
0.00273235
0.00241806
0.00227851
0.00237083
0.00286703
0.00370549
0.00455939
0.00512116
0.00554356
0.00618317
0.00763504
0.00800912
0.00977983
0.0500274
0.168014
0.00891508
0.0270025
0.0139911
0.0087925
0.0101934
0.00907767
0.010438
0.00962749
0.00902951
0.00856316
0.00683283
0.00586437
0.00562577
0.00527067
0.00471359
0.00399168
0.00346187
0.00307889
0.00276677
0.00246612
0.0022302
0.00200655
0.00187846
0.0018727
0.00215973
0.00280551
0.00360812
0.00418765
0.00458373
0.00511294
0.00647341
0.00697093
0.00848692
0.0452856
0.166074
0.00874002
0.0242168
0.0125477
0.00861375
0.0103076
0.00911621
0.0102453
0.00927861
0.00859548
0.00791304
0.00613481
0.00518474
0.0048707
0.00448733
0.00392322
0.00320929
0.00270635
0.00243189
0.00222912
0.00203276
0.00189053
0.00175327
0.00166891
0.00163315
0.00177458
0.00220577
0.00286691
0.00340873
0.00377491
0.00420173
0.00542652
0.00602039
0.0071932
0.0405442
0.164124
0.00855535
0.0213069
0.0114474
0.00861158
0.0105697
0.00928523
0.0101687
0.00903173
0.00824929
0.00736078
0.00554548
0.00457931
0.00418193
0.003813
0.00330562
0.00264389
0.00217352
0.00198339
0.00187157
0.00175887
0.00168302
0.00161057
0.00157827
0.0015629
0.0016386
0.00189698
0.00237296
0.00281805
0.00314126
0.00347951
0.00453841
0.00518678
0.00598262
0.0359782
0.162215
0.00836592
0.0184159
0.0106836
0.00879604
0.0110102
0.00960722
0.0102398
0.00891314
0.00801736
0.0069331
0.00508194
0.00406533
0.00357228
0.00324251
0.002849
0.00229014
0.00186952
0.00173207
0.00167192
0.00160661
0.00156777
0.00153667
0.00155059
0.00158345
0.00166276
0.00181569
0.00211496
0.00242727
0.00269381
0.00296069
0.00384169
0.00449401
0.00493409
0.0317678
0.160412
0.00817267
0.0156794
0.0102425
0.00917796
0.0116644
0.0101124
0.0104884
0.00894517
0.00792041
0.0066478
0.00475537
0.00365876
0.00305924
0.00277178
0.00252699
0.00210949
0.00175509
0.00163925
0.00158501
0.00153026
0.0015069
0.00150167
0.00155289
0.00164286
0.00177242
0.00188418
0.00204375
0.00221967
0.00242636
0.00264148
0.00335161
0.0039574
0.00410742
0.0280828
0.158796
0.00798033
0.0132303
0.0101095
0.009776
0.012576
0.0108437
0.0109483
0.00915093
0.00797606
0.00651709
0.004574
0.00337293
0.00266038
0.00240048
0.00230781
0.00205008
0.00177213
0.00165082
0.00156139
0.00149067
0.0014726
0.00148811
0.00157167
0.00171689
0.00191738
0.00203373
0.00209757
0.0021581
0.00231731
0.00250179
0.00306305
0.00358067
0.00353134
0.0250629
0.157466
0.00778933
0.0111804
0.0102867
0.0106223
0.0138003
0.011863
0.0116637
0.00956079
0.00820327
0.00655163
0.00454527
0.00321826
0.0023893
0.00212967
0.00216098
0.00205997
0.00186071
0.00171277
0.00156003
0.00146234
0.00144968
0.0014884
0.00160528
0.00180115
0.00207234
0.00221406
0.00222029
0.00220005
0.00233765
0.00251209
0.00295323
0.00335499
0.00320045
0.0227993
0.156535
0.00760307
0.00960063
0.0108117
0.0117617
0.0154086
0.0132535
0.0126929
0.0102175
0.00862642
0.0067656
0.00468017
0.00320343
0.00225155
0.00195658
0.00206194
0.00209616
0.00197012
0.001781
0.00155384
0.0014332
0.00143299
0.00150141
0.00165701
0.0019005
0.00223001
0.00239575
0.00237072
0.00230917
0.00245931
0.00264099
0.00298915
0.00326142
0.00308479
0.0213278
0.156111
0.00742066
0.00850249
0.0117736
0.0132532
0.0174878
0.0151192
0.0141097
0.0111788
0.00928085
0.00718009
0.00499594
0.00333823
0.00224637
0.00187432
0.001995
0.00212839
0.00206309
0.00182591
0.00152995
0.00140077
0.00142342
0.00152928
0.00173104
0.00202141
0.00239181
0.00256646
0.0025253
0.00246084
0.0026599
0.00285999
0.00313553
0.00327633
0.00314667
0.0206418
0.156289
0.00724378
0.00784524
0.0133096
0.0151747
0.0201387
0.0175787
0.0159992
0.0125151
0.0102111
0.00782489
0.00551928
0.00363661
0.00237147
0.00187327
0.00195285
0.00214152
0.00211977
0.00183415
0.00148666
0.00136736
0.00142397
0.00157534
0.00183086
0.00216792
0.00256093
0.00272452
0.00267573
0.00264281
0.00292391
0.00314531
0.00336049
0.00337697
0.003355
0.0207198
0.157131
0.00707145
0.00756429
0.0155982
0.0176307
0.0234776
0.02076
0.0184539
0.0143045
0.0114688
0.00873557
0.0062846
0.00412019
0.00263102
0.00194735
0.00193512
0.00213347
0.00213433
0.00180529
0.00142932
0.00133705
0.00143803
0.00164286
0.00195864
0.00234067
0.00273893
0.00287344
0.00282403
0.00285255
0.00324154
0.00347823
0.00363876
0.0035458
0.0036928
0.021549
0.158661
0.00690537
0.0075933
0.0188388
0.020769
0.0276469
0.0248034
0.0215732
0.0166261
0.013108
0.00995221
0.00732821
0.0048158
0.00303898
0.00209816
0.00194585
0.00211255
0.00211369
0.0017485
0.00136651
0.00131374
0.00146827
0.00173461
0.00211523
0.00253723
0.00292508
0.0030186
0.00297799
0.00309361
0.00360683
0.00384495
0.00395311
0.00377278
0.00415901
0.023136
0.160862
0.00674534
0.00787935
0.0232258
0.024806
0.0328321
0.0298734
0.0254675
0.019556
0.0151783
0.0115049
0.00867296
0.00574935
0.00361768
0.00234056
0.00199338
0.00209184
0.00207073
0.00167717
0.00130739
0.00130084
0.00151697
0.00185251
0.00229991
0.00275315
0.00311729
0.00316589
0.00314779
0.00337213
0.00401576
0.00423632
0.00429456
0.00405607
0.00476716
0.0255069
0.163687
0.00659312
0.00838001
0.0289161
0.0300462
0.0392708
0.0361606
0.0302558
0.0231597
0.0177148
0.0134028
0.010311
0.00692403
0.00438083
0.00269825
0.00209011
0.00208558
0.00202143
0.00160586
0.00126021
0.0013011
0.00158562
0.00199753
0.00251041
0.00298289
0.00331342
0.00332139
0.00334404
0.00369446
0.0044652
0.00464756
0.00466173
0.00440182
0.00554328
0.0287007
0.167064
0.00644962
0.00906611
0.0360001
0.036879
0.047235
0.0438504
0.0360398
0.0274712
0.0207202
0.0156185
0.0121892
0.00830482
0.00530881
0.00318787
0.00225172
0.00210523
0.00197856
0.00154647
0.0012317
0.00131712
0.00167544
0.00216936
0.00274291
0.00322105
0.00351249
0.00349157
0.00357666
0.0040655
0.00495245
0.00507813
0.00505997
0.0048233
0.00652389
0.0327604
0.170916
0.00631698
0.00991598
0.0444816
0.045738
0.0569726
0.0530444
0.0428437
0.0324525
0.0241378
0.018072
0.0141995
0.00979846
0.00632598
0.00378442
0.00248702
0.00215829
0.00195162
0.00150785
0.00122722
0.00135167
0.00178685
0.00236644
0.00299266
0.00346312
0.00371529
0.00368337
0.00385434
0.00448807
0.00547544
0.00553145
0.00550027
0.00534007
0.00775471
0.0377236
0.175161
0.00619775
0.0109239
0.0543208
0.0570341
0.0686221
0.0636536
0.0505355
0.0379452
0.0278228
0.0206192
0.0161801
0.0112605
0.00730553
0.00440234
0.00277867
0.00224403
0.00194437
0.00149512
0.00125122
0.00140838
0.00192017
0.00258601
0.00325449
0.00370636
0.00392466
0.00390421
0.00418414
0.00496254
0.00603322
0.0060147
0.00599841
0.00597718
0.00928968
0.0436132
0.179725
0.00609509
0.0120992
0.0655162
0.0710853
0.0821199
0.0753086
0.0587616
0.0436371
0.031528
0.0230529
0.017934
0.012517
0.008097
0.00491434
0.00306904
0.00234995
0.00195761
0.00151154
0.00130779
0.00149211
0.00207548
0.00282474
0.00352391
0.00395
0.00414526
0.00416172
0.00457118
0.00548727
0.00662661
0.00653842
0.00657425
0.00676469
0.0111902
0.0504304
0.184542
0.00601408
0.0134811
0.078189
0.0880336
0.0971145
0.0873207
0.0669319
0.0490659
0.0349154
0.0251212
0.0192549
0.0133975
0.0085694
0.00520843
0.00328173
0.00245116
0.00198791
0.00155857
0.00140095
0.00160958
0.00225402
0.00307943
0.0037977
0.00419551
0.00438325
0.00446331
0.00501837
0.00605906
0.00725867
0.00711629
0.00725138
0.0077374
0.0135242
0.05815
0.189554
0.00596079
0.0151363
0.0925596
0.107681
0.112871
0.0986996
0.0742616
0.0536632
0.0375951
0.0265622
0.0199614
0.0137698
0.00864631
0.00523643
0.00336965
0.00252493
0.00203272
0.00163728
0.00153424
0.00176914
0.00245858
0.00334812
0.00407468
0.0044462
0.00464569
0.00481568
0.00552633
0.0066741
0.00793512
0.00776481
0.0080568
0.00893484
0.0163648
0.0667193
0.194716
0.00594609
0.0171712
0.108826
0.129229
0.128193
0.108237
0.0798733
0.0568376
0.0391882
0.0271482
0.0199284
0.013567
0.00832493
0.00502955
0.00334429
0.00256738
0.00209153
0.00174739
0.00170967
0.0019803
0.00269504
0.00363082
0.00435577
0.00470704
0.00494011
0.00522427
0.00609332
0.00732864
0.00866441
0.00850324
0.00902105
0.0104015
0.0197889
0.07606
0.199992
0.00598322
0.0197152
0.126897
0.151035
0.141457
0.114678
0.0829484
0.0580818
0.0393991
0.026733
0.0191151
0.0127998
0.00766863
0.00467121
0.00325947
0.00259837
0.00217007
0.00188785
0.00192606
0.0022514
0.00297189
0.0039301
0.00464407
0.00498392
0.00527375
0.0056927
0.00671558
0.00801985
0.00945777
0.00935338
0.0101783
0.0121871
0.0238747
0.0860745
0.205354
0.00609167
0.0229247
0.146132
0.170665
0.150856
0.116985
0.0829094
0.0570894
0.0380858
0.0252877
0.0175772
0.0115535
0.00678488
0.00425439
0.00317108
0.00264409
0.0022738
0.00205443
0.00217751
0.00258649
0.00330001
0.00425077
0.00494425
0.00528329
0.00565327
0.00622237
0.00738764
0.00874622
0.010329
0.0103398
0.0115669
0.0143473
0.0287006
0.096653
0.210785
0.00628805
0.0269479
0.165191
0.185402
0.154846
0.114618
0.0795753
0.0538396
0.0353018
0.0229169
0.0154612
0.00996879
0.00579676
0.00384853
0.0031096
0.0027196
0.0024039
0.00223952
0.00245312
0.0029816
0.00368932
0.00459928
0.00526212
0.00561141
0.00608399
0.00681214
0.00810291
0.00950794
0.0112946
0.0114898
0.0132297
0.0169439
0.0343422
0.107684
0.216275
0.00658505
0.0319269
0.182287
0.193073
0.152614
0.107716
0.0732316
0.0486234
0.0312981
0.0198423
0.0129773
0.00821669
0.00482266
0.00349182
0.00307747
0.00281945
0.00254978
0.00243046
0.00273857
0.0034231
0.00414546
0.00498192
0.00560357
0.005974
0.00656974
0.00745835
0.00885424
0.0103068
0.0123735
0.0128339
0.015215
0.020046
0.0408722
0.119061
0.221827
0.00697682
0.0379137
0.195624
0.192702
0.144322
0.0970655
0.0645659
0.0419795
0.0264702
0.0163599
0.010363
0.00647361
0.00395941
0.00319889
0.00306267
0.00292501
0.00269435
0.00261349
0.00301953
0.00388959
0.00466431
0.00540281
0.00597387
0.00637555
0.00711241
0.00815504
0.00963453
0.0111462
0.013587
0.0144062
0.0175773
0.0237308
0.0483589
0.130698
0.22745
0.00744499
0.0448105
0.203811
0.184636
0.130999
0.0838821
0.054497
0.0345732
0.021277
0.0127857
0.00784802
0.00490338
0.00326936
0.00297318
0.00305247
0.00301447
0.00281775
0.00277621
0.00328501
0.00435637
0.00522969
0.00586099
0.00637636
0.00681929
0.00771222
0.00889456
0.0104372
0.0120308
0.0149591
0.0162453
0.0203783
0.0280848
0.0568677
0.142528
0.233169
0.00795396
0.0521063
0.205893
0.170143
0.11417
0.0694941
0.0439638
0.0270572
0.0161573
0.00941359
0.00563509
0.00363846
0.00277065
0.00281218
0.00303981
0.00307414
0.00290839
0.00291336
0.00353047
0.00480179
0.00581297
0.00634842
0.00681181
0.00730681
0.00836791
0.0096686
0.0112567
0.0129663
0.0165164
0.0183942
0.0236884
0.0332054
0.0664628
0.15452
0.239017
0.00846726
0.0587875
0.201275
0.150875
0.095442
0.0550771
0.0337617
0.0199769
0.0114818
0.00649405
0.00388539
0.0027467
0.00244508
0.00270775
0.0030206
0.00309815
0.00296217
0.00302653
0.00375823
0.00521035
0.0063786
0.00684867
0.00727748
0.00783849
0.00907774
0.0104695
0.0120893
0.0139593
0.018288
0.0209024
0.0275876
0.0392022
0.0772102
0.166672
0.245039
0.00894498
0.0632622
0.189597
0.12847
0.0762104
0.0415092
0.0244654
0.0137358
0.00754124
0.00422323
0.00268368
0.00220282
0.00225524
0.00264406
0.00298964
0.00308718
0.00298492
0.00312566
0.00397759
0.00557571
0.00689078
0.00733898
0.00776725
0.00841347
0.00984031
0.0112917
0.0129331
0.0150171
0.0203057
0.0238256
0.0321671
0.0461991
0.0891814
0.17902
0.25129
0.0093615
0.0638739
0.170845
0.104446
0.0575827
0.0293733
0.016448
0.00861921
0.00455295
0.00270021
0.00198474
0.00191506
0.00215797
0.00259898
0.00293756
0.00304068
0.00298427
0.00322534
0.00420281
0.00589877
0.00732129
0.00779358
0.00827187
0.00903003
0.0106559
0.0121338
0.0137895
0.0161474
0.0226035
0.0272271
0.0375305
0.0543361
0.102458
0.191636
0.257833
0.0096768
0.0591825
0.145405
0.08024
0.0404739
0.0190663
0.00996358
0.00483364
0.00261967
0.00184755
0.00163569
0.00178195
0.00210855
0.00254803
0.00285324
0.00295553
0.00296896
0.00334576
0.00445339
0.00618834
0.00765437
0.00818977
0.00878017
0.00968487
0.0115265
0.0129999
0.0146638
0.017359
0.0252167
0.0311771
0.0437934
0.0637701
0.117136
0.204622
0.264737
0.00988074
0.0490099
0.114493
0.0571742
0.0256598
0.0108601
0.00519021
0.00245886
0.00159838
0.0014278
0.00146827
0.00171151
0.00205893
0.00246558
0.00272499
0.00282303
0.00293864
0.00350477
0.00474996
0.00645816
0.00788946
0.00851149
0.00927999
0.0103721
0.0124557
0.0139002
0.0155658
0.0186612
0.0281812
0.0357521
0.051084
0.0746758
0.133328
0.218116
0.272072
4.88219e-24
3.15066e-19
1.13985e-18
4.30136e-18
2.49259e-17
3.14443e-14
9.011e-11
0.0382054
0.260124
0.294351
0.307407
0.291763
0.270348
0.253288
0.211181
0.187361
0.152205
0.119093
0.0751329
0.0600602
0.0302912
0.0121385
4.99583e-24
7.39261e-20
8.34556e-20
6.23382e-18
6.22479e-17
2.44901e-13
9.20146e-10
0.0727264
0.307987
0.315894
0.310614
0.292106
0.26968
0.254112
0.211817
0.188216
0.153413
0.119007
0.0744445
0.0598442
0.0298673
0.012186
5.10201e-24
2.76604e-19
8.77666e-19
8.89375e-18
1.2204e-16
9.25662e-13
9.29197e-09
0.114026
0.35079
0.333576
0.31271
0.292293
0.269157
0.25507
0.212685
0.189248
0.154847
0.119019
0.0741471
0.059248
0.0293421
0.0123435
5.06173e-24
5.7256e-20
2.14766e-20
6.84897e-18
1.92168e-16
2.2755e-12
1.69485e-07
0.157617
0.387635
0.347832
0.314325
0.292489
0.268883
0.256233
0.213839
0.19043
0.156462
0.119136
0.0742299
0.0583046
0.02875
0.0125997
5.16567e-24
2.21305e-19
6.32257e-19
7.23116e-18
2.88189e-16
3.60897e-12
6.56063e-06
0.196696
0.418337
0.359137
0.315909
0.292819
0.268954
0.257574
0.215245
0.191746
0.158206
0.119362
0.0746592
0.0570864
0.0281367
0.012946
5.11382e-24
4.59218e-20
1.20676e-20
4.61569e-18
4.09768e-16
4.87132e-12
1.86781e-05
0.223879
0.443027
0.368028
0.317832
0.293422
0.269448
0.259172
0.216959
0.193177
0.160022
0.119692
0.0753983
0.0556525
0.0275122
0.0133999
5.22921e-24
1.78688e-19
4.73401e-19
4.63744e-18
5.80448e-16
5.06207e-12
3.45497e-05
0.235608
0.462064
0.374956
0.320301
0.294389
0.270432
0.261005
0.218947
0.194725
0.161858
0.120121
0.0763904
0.0540873
0.0269023
0.0139748
5.17002e-24
3.80392e-20
7.88078e-21
2.78014e-18
7.72242e-16
4.37639e-12
2.58435e-05
0.232916
0.475751
0.380348
0.323479
0.295826
0.271951
0.263158
0.221274
0.196392
0.16367
0.120636
0.077585
0.0524477
0.0263048
0.0146887
5.29793e-24
1.46658e-19
3.69579e-19
2.86172e-18
9.86022e-16
2.88078e-12
2.74613e-05
0.219552
0.484361
0.384479
0.327397
0.297786
0.274037
0.265603
0.223904
0.198204
0.16543
0.121227
0.0789186
0.0508092
0.0257391
0.0155454
5.22337e-24
3.24404e-20
5.88763e-21
1.68692e-18
1.14788e-15
1.68896e-12
3.53409e-05
0.199065
0.487924
0.387557
0.332078
0.300334
0.276704
0.268422
0.226907
0.200185
0.167129
0.121878
0.0803442
0.0492136
0.025196
0.0165484
5.35773e-24
1.21931e-19
2.97407e-19
1.84238e-18
1.25233e-15
8.5253e-13
4.01816e-05
0.173795
0.486331
0.389616
0.337431
0.303491
0.279959
0.271573
0.230245
0.202379
0.16878
0.122577
0.0818064
0.0477201
0.0246912
0.0176835
5.27102e-24
2.84267e-20
4.6919e-21
1.08056e-18
1.23877e-15
4.16463e-13
4.11318e-05
0.145901
0.479197
0.390603
0.343374
0.307293
0.283798
0.275123