/*--------------------------------*- C++ -*----------------------------------*\
| =========                 |                                                 |
| \\      /  F ield         | OpenFOAM: The Open Source CFD Toolbox           |
|  \\    /   O peration     | Version:  v1912                                 |
|   \\  /    A nd           | Website:  www.openfoam.com                      |
|    \\/     M anipulation  |                                                 |
\*---------------------------------------------------------------------------*/
FoamFile
{
    version     2.0;
    format      ascii;
    class       volScalarField;
    location    "520";
    object      p;
}
// * * * * * * * * * * * * * * * * * * * * * * * * * * * * * * * * * * * * * //

dimensions      [0 2 -2 0 0 0 0];


internalField   nonuniform List<scalar> 
12441
(
9.06465
9.36915
10.238
11.5849
13.3284
15.5153
18.2412
21.6026
25.7825
30.9472
37.2981
44.9852
54.5682
66.7134
81.957
101.502
129.75
165.289
223.063
285.952
376.731
438.578
9.06465
9.36914
10.238
11.5849
13.3284
15.5153
18.2412
21.6025
25.7824
30.947
37.2978
44.9846
54.5672
66.7115
81.954
101.495
129.734
165.264
222.983
285.877
376.685
438.387
9.06463
9.36912
10.238
11.5849
13.3283
15.5152
18.241
21.6023
25.7821
30.9465
37.297
44.9835
54.5653
66.7079
81.9481
101.481
129.708
165.207
222.815
285.698
376.557
438.04
9.06461
9.3691
10.2379
11.5848
13.3282
15.5151
18.2409
21.602
25.7817
30.9458
37.2959
44.9819
54.5623
66.7023
81.9393
101.46
129.674
165.119
222.638
285.423
376.323
437.501
9.06457
9.36906
10.2379
11.5847
13.3281
15.5149
18.2406
21.6016
25.7811
30.9449
37.2945
44.9797
54.5584
66.695
81.9276
101.433
129.63
165.01
222.474
285.077
375.993
436.765
9.06453
9.36902
10.2378
11.5847
13.328
15.5147
18.2403
21.6011
25.7803
30.9437
37.2926
44.9769
54.5535
66.6857
81.913
101.399
129.575
164.881
222.288
284.659
375.572
435.833
9.06449
9.36896
10.2377
11.5845
13.3278
15.5145
18.24
21.6005
25.7794
30.9423
37.2904
44.9736
54.5476
66.6746
81.8955
101.359
129.51
164.729
222.071
284.172
375.064
434.705
9.06443
9.3689
10.2377
11.5844
13.3277
15.5142
18.2395
21.5998
25.7784
30.9407
37.2879
44.9697
54.5407
66.6616
81.8753
101.313
129.439
164.557
221.835
283.627
374.475
433.378
9.06437
9.36883
10.2376
11.5843
13.3274
15.5139
18.239
21.599
25.7772
30.9388
37.2849
44.9653
54.5329
66.6468
81.8527
101.263
129.366
164.372
221.599
283.036
373.807
431.847
9.0643
9.36874
10.2375
11.5841
13.3272
15.5136
18.2385
21.5981
25.7759
30.9367
37.2816
44.9604
54.524
66.6303
81.829
101.212
129.298
164.187
221.389
282.409
373.062
430.108
9.06422
9.36865
10.2373
11.5839
13.3269
15.5132
18.2379
21.5971
25.7744
30.9344
37.278
44.9549
54.5142
66.6124
81.8059
101.169
129.255
164.023
221.24
281.757
372.235
428.152
9.06413
9.36855
10.2372
11.5838
13.3266
15.5127
18.2372
21.5961
25.7727
30.9318
37.2739
44.9488
54.5036
66.594
81.7877
101.145
129.273
163.92
221.182
281.082
371.322
425.971
9.06404
9.36845
10.2371
11.5835
13.3263
15.5122
18.2365
21.5949
25.771
30.929
37.2695
44.9422
54.4922
66.5779
81.7859
101.169
129.408
163.931
221.225
280.379
370.312
423.552
9.06393
9.36833
10.2369
11.5833
13.326
15.5117
18.2357
21.5936
25.769
30.926
37.2648
44.935
54.481
66.5696
81.8201
101.276
129.712
164.1
221.339
279.628
369.198
420.883
9.06382
9.3682
10.2367
11.5831
13.3256
15.5112
18.2349
21.5922
25.7669
30.9227
37.2596
44.9273
54.4717
66.5803
81.9129
101.496
130.212
164.431
221.459
278.805
367.969
417.951
9.0637
9.36807
10.2366
11.5828
13.3252
15.5106
18.234
21.5907
25.7647
30.9192
37.2541
44.9193
54.4681
66.6234
82.0823
101.838
130.883
164.864
221.508
277.882
366.616
414.74
9.06358
9.36792
10.2364
11.5825
13.3248
15.5099
18.233
21.5891
25.7623
30.9154
37.2482
44.9116
54.477
66.7114
82.3334
102.29
131.644
165.292
221.424
276.841
365.133
411.237
9.06344
9.36777
10.2362
11.5822
13.3243
15.5092
18.232
21.5874
25.7598
30.9114
37.2419
44.9055
54.5072
66.8484
82.6551
102.807
132.37
165.592
221.176
275.671
363.513
407.426
9.0633
9.3676
10.236
11.5819
13.3239
15.5085
18.2309
21.5856
25.7571
30.9072
37.2351
44.9039
54.5658
67.0311
83.0222
103.329
132.927
165.683
220.768
274.369
361.752
403.293
9.06315
9.36743
10.2357
11.5816
13.3234
15.5078
18.2298
21.5837
25.7543
30.9027
37.228
44.9109
54.6557
67.2456
83.3977
103.782
133.215
165.551
220.223
272.938
359.848
398.821
9.06299
9.36725
10.2355
11.5812
13.3228
15.507
18.2286
21.5817
25.7514
30.898
37.2209
44.9318
54.7727
67.4761
83.7412
104.103
133.198
165.238
219.573
271.385
357.8
393.994
9.06282
9.36706
10.2352
11.5808
13.3223
15.5061
18.2273
21.5796
25.7482
30.893
37.2143
44.9705
54.9092
67.7012
84.0148
104.254
132.915
164.812
218.847
269.718
355.608
388.796
9.06265
9.36686
10.235
11.5804
13.3217
15.5053
18.226
21.5775
25.745
30.8877
37.2093
45.0275
55.0535
67.9052
84.194
104.234
132.454
164.334
218.064
267.946
353.274
383.208
9.06247
9.36666
10.2347
11.58
13.3211
15.5043
18.2246
21.5752
25.7415
30.8822
37.208
45.1
55.1968
68.07
84.2697
104.07
131.912
163.841
217.235
266.078
350.8
377.211
9.06228
9.36644
10.2344
11.5796
13.3205
15.5034
18.2232
21.5728
25.7379
30.8763
37.2129
45.1829
55.3286
68.1895
84.2515
103.81
131.368
163.344
216.364
264.123
348.187
370.787
9.06208
9.36621
10.2341
11.5792
13.3198
15.5024
18.2217
21.5703
25.7342
30.8702
37.2261
45.2702
55.4445
68.2571
84.159
103.499
130.863
162.842
215.452
262.092
345.44
363.914
9.06187
9.36598
10.2338
11.5787
13.3191
15.5013
18.2201
21.5677
25.7303
30.8639
37.2487
45.3566
55.5377
68.2799
84.0179
103.178
130.409
162.327
214.5
259.993
342.559
356.568
9.06166
9.36574
10.2335
11.5782
13.3184
15.5003
18.2185
21.565
25.7262
30.8577
37.2802
45.4377
55.6088
68.2615
83.8506
102.868
129.998
161.792
213.505
257.835
339.547
348.726
9.06144
9.36548
10.2332
11.5777
13.3176
15.4992
18.2168
21.5623
25.7219
30.8518
37.3184
45.5104
55.6552
68.2151
83.6751
102.58
129.617
161.236
212.469
255.626
336.403
340.361
9.06121
9.36522
10.2328
11.5772
13.3169
15.498
18.2151
21.5594
25.7175
30.8463
37.3608
45.5728
55.6812
68.1464
83.5016
102.315
129.254
160.656
211.39
253.368
333.126
331.445
9.06097
9.36495
10.2325
11.5767
13.3161
15.4968
18.2133
21.5564
25.7129
30.8416
37.405
45.6236
55.6867
68.067
83.3361
102.069
128.898
160.053
210.268
251.065
329.711
321.947
9.06073
9.36467
10.2321
11.5762
13.3153
15.4956
18.2114
21.5533
25.7081
30.8381
37.4494
45.6627
55.6782
67.979
83.1795
101.836
128.543
159.428
209.103
248.716
326.15
311.833
9.06047
9.36438
10.2317
11.5756
13.3144
15.4943
18.2095
21.5501
25.7032
30.8365
37.4923
45.6903
55.6558
67.8903
83.032
101.613
128.186
158.783
207.896
246.323
322.436
301.069
9.06021
9.36408
10.2313
11.575
13.3135
15.493
18.2075
21.5468
25.6981
30.8374
37.5325
45.7073
55.6258
67.7996
82.8915
101.396
127.825
158.119
206.647
243.882
318.557
289.618
9.05994
9.36378
10.2309
11.5744
13.3127
15.4916
18.2055
21.5434
25.6928
30.8416
37.5694
45.7147
55.5877
67.712
82.7569
101.181
127.459
157.437
205.356
241.396
314.501
277.439
9.05966
9.36346
10.2305
11.5738
13.3117
15.4902
18.2034
21.5398
25.6873
30.85
37.6027
45.7142
55.5467
67.6242
82.626
100.967
127.086
156.74
204.024
238.864
310.257
264.49
9.05938
9.36314
10.2301
11.5732
13.3108
15.4888
18.2012
21.5362
25.6817
30.864
37.6324
45.7068
55.5014
67.5403
82.4981
100.753
126.708
156.028
202.652
236.289
305.812
250.729
9.05909
9.3628
10.2296
11.5725
13.3098
15.4873
18.199
21.5325
25.6765
30.886
37.6591
45.6942
55.4559
67.4566
82.3717
100.537
126.324
155.303
201.242
233.677
301.158
236.107
9.05879
9.36246
10.2292
11.5718
13.3088
15.4858
18.1967
21.5286
25.6734
30.9176
37.6831
45.6776
55.4083
67.3769
82.2468
100.32
125.936
154.565
199.794
231.032
296.285
220.576
9.05848
9.36211
10.2287
11.5712
13.3078
15.4843
18.1943
21.5246
25.6772
30.9597
37.705
45.6581
55.3617
67.2974
82.1222
100.101
125.544
153.815
198.313
228.359
291.188
204.083
9.05816
9.36175
10.2282
11.5705
13.3067
15.4827
18.1919
21.5205
25.6956
31.0125
37.7246
45.6367
55.3137
67.2222
81.9986
99.8813
125.148
153.054
196.801
225.665
285.866
186.574
9.05784
9.36138
10.2277
11.5697
13.3056
15.481
18.1895
21.5166
25.7358
31.0753
37.7418
45.6142
55.2673
67.1474
81.8751
99.6604
124.75
152.282
195.264
222.949
280.317
168.001
9.05751
9.361
10.2272
11.569
13.3045
15.4794
18.1869
21.5139
25.8024
31.1464
37.7563
45.5916
55.2191
67.0776
81.7528
99.4398
124.349
151.497
193.706
220.21
274.516
148.277
9.05717
9.36061
10.2267
11.5682
13.3034
15.4777
18.1843
21.5177
25.8946
31.2226
37.7676
45.5697
55.1726
67.0087
81.631
99.219
123.947
150.697
192.135
217.436
268.38
126.656
-19.6267
-20.9766
-19.3445
-20.626
-17.7767
-17.2786
-15.0728
-14.3502
-12.6798
-12.055
-11.4138
-11.9811
-10.15
-4.13531
3.53355
5.64339
1.7006
-1.35065
2.7847
9.8563
13.7604
12.568
11.4698
9.58097
7.97207
6.93691
5.73137
4.10714
2.43886
1.73943
0.500959
0.410552
-4.19505
-4.41151
0.69984
-19.6249
-20.9577
-19.3681
-20.6295
-17.7778
-17.2773
-15.0735
-14.3502
-12.68
-12.0543
-11.4142
-11.9783
-10.1473
-4.13398
3.53473
5.64791
1.70947
-1.34148
2.78984
9.85895
13.7636
12.5715
11.4728
9.58348
7.97407
6.93854
5.73281
4.1085
2.44014
1.74047
0.501197
0.413891
-4.19558
-4.42129
0.685873
-19.6214
-20.9397
-19.402
-20.636
-17.7793
-17.2763
-15.074
-14.3502
-12.6797
-12.0532
-11.4142
-11.9767
-10.1448
-4.13126
3.53984
5.65889
1.72808
-1.31848
2.80799
9.86948
13.7708
12.5778
11.478
9.58766
7.97749
6.94151
5.73551
4.111
2.44244
1.74232
0.50188
0.418259
-4.19645
-4.42823
0.672134
-19.6165
-20.9297
-19.4453
-20.6442
-17.7817
-17.2758
-15.0745
-14.3501
-12.6793
-12.0517
-11.4146
-11.976
-10.1421
-4.12796
3.54605
5.67161
1.75105
-1.28543
2.83881
9.88834
13.7828
12.5875
11.4859
9.59393
7.98257
6.9459
5.73952
4.11473
2.44588
1.7452
0.503162
0.422991
-4.19721
-4.42368
0.660137
-19.6103
-20.9316
-19.4955
-20.6532
-17.7847
-17.2754
-15.0746
-14.3499
-12.6787
-12.0502
-11.4153
-11.9761
-10.1405
-4.12558
3.55121
5.68202
1.77017
-1.2546
2.87197
9.91093
13.798
12.6001
11.4963
9.60221
7.9892
6.95154
5.74462
4.11951
2.45034
1.74905
0.505055
0.428019
-4.19627
-4.40876
0.65038
-19.6029
-20.9498
-19.5498
-20.6628
-17.7874
-17.2743
-15.0739
-14.3496
-12.678
-12.0488
-11.4164
-11.9772
-10.1401
-4.12405
3.55535
5.68967
1.78332
-1.23149
2.90078
9.93336
13.8147
12.6145
11.5085
9.61223
7.99721
6.95821
5.75055
4.12507
2.45564
1.75372
0.507522
0.43332
-4.19255
-4.38457
0.642808
-19.5945
-20.9882
-19.6058
-20.6724
-17.7895
-17.2725
-15.0724
-14.3491
-12.6773
-12.0477
-11.418
-11.979
-10.1408
-4.12231
3.55988
5.69607
1.79202
-1.21597
2.92318
9.95356
13.8312
12.6293
11.5216
9.62351
8.00634
6.96569
5.75705
4.13114
2.46151
1.75906
0.510489
0.438875
-4.18551
-4.35147
0.637302
-19.5851
-21.0496
-19.6611
-20.6818
-17.7909
-17.27
-15.0701
-14.3486
-12.6767
-12.0471
-11.4203
-11.9813
-10.1418
-4.11936
3.56596
5.70245
1.79823
-1.20585
2.93985
9.97072
13.8461
12.6429
11.5344
9.63522
8.01619
6.97372
5.76386
4.13742
2.4677
1.76484
0.513872
0.444635
-4.17499
-4.30987
0.633811
-19.5751
-21.1353
-19.7135
-20.6907
-17.7919
-17.2672
-15.0673
-14.3481
-12.676
-12.0469
-11.4231
-11.9843
-10.1432
-4.11499
3.57412
5.70953
1.80326
-1.19901
2.95222
9.98466
13.8582
12.654
11.5454
9.64628
8.02612
6.98197
5.77075
4.14366
2.47391
1.77082
0.517559
0.45055
-4.16107
-4.2605
0.632311
-19.5645
-21.2453
-19.7615
-20.699
-17.7927
-17.2646
-15.0645
-14.3476
-12.6755
-12.0473
-11.4265
-11.9877
-10.1449
-4.10964
3.58393
5.71718
1.80758
-1.19396
2.96164
9.99534
13.867
12.6615
11.5535
9.6555
8.03531
6.99001
5.77744
4.14962
2.47987
1.77672
0.521417
0.456557
-4.14409
-4.20454
0.632842
-19.5537
-21.378
-19.8041
-20.7067
-17.7933
-17.2624
-15.0618
-14.3474
-12.6752
-12.0481
-11.4303
-11.9918
-10.147
-4.10414
3.59451
5.72505
1.81129
-1.18999
2.96882
10.0027
13.8719
12.665
11.5579
9.66197
8.04289
6.99728
5.78364
4.15505
2.48529
1.78223
0.52528
0.462601
-4.12466
-4.14352
0.635482
-19.543
-21.5302
-19.8407
-20.7139
-17.794
-17.2609
-15.0596
-14.3476
-12.6752
-12.0494
-11.4344
-11.9962
-10.1496
-4.09918
3.60466
5.73235
1.81428
-1.18677
2.974
10.0067
13.8731
12.6647
11.5587
9.66528
8.0482
7.00322
5.78902
4.15974
2.48996
1.78707
0.528964
0.468621
-4.10358
-4.07934
0.640424
-19.5327
-21.6972
-19.871
-20.7207
-17.795
-17.2604
-15.0582
-14.3482
-12.6755
-12.0511
-11.4387
-12.0011
-10.1528
-4.09526
3.61335
5.73842
1.81655
-1.18421
2.97715
10.0074
13.8708
12.6612
11.5562
9.66561
8.05104
7.00741
5.79324
4.1635
2.49368
1.79101
0.532272
0.47456
-4.08177
-4.01416
0.647948
-19.5231
-21.8726
-19.8956
-20.7273
-17.7962
-17.261
-15.0578
-14.3494
-12.6763
-12.0534
-11.4432
-12.0063
-10.1563
-4.09251
3.6198
5.74261
1.81813
-1.18224
2.97843
10.0052
13.8657
12.6552
11.5514
9.66356
8.05161
7.00973
5.79608
4.16616
2.49635
1.79389
0.535013
0.480358
-4.06019
-3.95033
0.658498
-19.5144
-22.0493
-19.9148
-20.7337
-17.7981
-17.2629
-15.0588
-14.3514
-12.6777
-12.0561
-11.4479
-12.0118
-10.1601
-4.09089
3.6238
5.74476
1.81913
-1.18081
2.97812
10.0005
13.8581
12.6474
11.545
9.65991
8.05048
7.01037
5.79748
4.16768
2.49793
1.79566
0.537028
0.48596
-4.03961
-3.89023
0.672637
-19.507
-22.2195
-19.9297
-20.7402
-17.8006
-17.2663
-15.0612
-14.3543
-12.6798
-12.0596
-11.4531
-12.0177
-10.1639
-4.09012
3.62548
5.7449
1.81958
-1.17974
2.97681
9.99408
13.8483
12.638
11.5376
9.65538
8.04829
7.00973
5.7976
4.16812
2.4985
1.7964
0.538226
0.491318
-4.02052
-3.83611
0.691058
-19.501
-22.3763
-19.9411
-20.7467
-17.8042
-17.2715
-15.0653
-14.3584
-12.6828
-12.0638
-11.4587
-12.0241
-10.1678
-4.08992
3.62544
5.74345
1.81946
-1.17893
2.97496
9.98622
13.8366
12.6272
11.5293
9.6504
8.04559
7.00829
5.79676
4.16767
2.49824
1.79624
0.538615
0.496416
-4.003
-3.7899
0.714407
-19.4966
-22.5144
-19.9498
-20.7533
-17.8091
-17.2787
-15.0715
-14.364
-12.687
-12.0691
-11.4653
-12.031
-10.1717
-4.09001
3.62428
5.74076
1.81873
-1.17821
2.97312
9.97729
13.8229
12.6147
11.52
9.64512
8.04272
7.00641
5.79527
4.16655
2.49733
1.79536
0.538293
0.501294
-3.98675
-3.75297
0.743134
-19.4936
-22.6316
-19.9568
-20.7603
-17.8154
-17.2883
-15.08
-14.3714
-12.6926
-12.0755
-11.4729
-12.0388
-10.1759
-4.09028
3.62267
5.73736
1.81741
-1.17749
2.97156
9.96742
13.8072
12.6006
11.5098
9.6395
8.03977
7.00432
5.79342
4.165
2.49596
1.79394
0.537411
0.506056
-3.97127
-3.72583
0.777208
-19.4919
-22.7293
-19.9626
-20.7681
-17.8234
-17.3006
-15.0915
-14.3811
-12.7
-12.0833
-11.4822
-12.0479
-10.1806
-4.09072
3.62088
5.73353
1.81553
-1.17653
2.97065
9.95666
13.7893
12.5847
11.4983
9.63343
8.03674
7.00215
5.79141
4.16319
2.49431
1.79212
0.536113
0.510834
-3.95604
-3.70791
0.816039
-19.4911
-22.8114
-19.9678
-20.7776
-17.8331
-17.3162
-15.1065
-14.3939
-12.7097
-12.093
-11.4936
-12.0589
-10.1864
-4.09158
3.61904
5.72956
1.81316
-1.17514
2.97043
9.94493
13.7692
12.567
11.4857
9.62681
8.03352
6.99993
5.78934
4.16125
2.49247
1.79
0.534513
0.515754
-3.9407
-3.6977
0.858491
-19.4907
-22.8825
-19.9741
-20.7896
-17.8446
-17.3355
-15.1259
-14.4106
-12.7224
-12.1049
-11.5078
-12.0727
-10.1942
-4.09329
3.61682
5.72521
1.81024
-1.17301
2.97111
9.93216
13.7467
12.5474
11.4719
9.61961
8.03005
6.99764
5.78728
4.15923
2.49055
1.78766
0.532693
0.520893
-3.92505
-3.69327
0.903198
-19.4902
-22.9461
-19.9835
-20.8058
-17.8581
-17.3591
-15.1503
-14.4321
-12.7387
-12.1194
-11.5257
-12.0907
-10.2054
-4.09666
3.61387
5.72033
1.80673
-1.17001
2.97255
9.91827
13.7218
12.526
11.4571
9.61183
8.02629
6.99528
5.78522
4.15718
2.48857
1.78514
0.530714
0.526291
-3.90908
-3.69276
0.948812
-19.4892
-23.0054
-19.9979
-20.8278
-17.8738
-17.3877
-15.1809
-14.4595
-12.7594
-12.1372
-11.548
-12.114
-10.2214
-4.10279
3.6094
5.71429
1.80245
-1.16597
2.97478
9.90316
13.6944
12.5029
11.4412
9.60352
8.02222
6.99285
5.78314
4.15508
2.48657
1.78247
0.528628
0.531951
-3.89285
-3.69467
0.994303
-19.4874
-23.063
-20.0179
-20.8576
-17.8926
-17.4224
-15.2186
-14.4936
-12.7852
-12.1585
-11.575
-12.144
-10.2441
-4.1131
3.60283
5.70678
1.79727
-1.16096
2.9775
9.88676
13.6646
12.4783
11.4244
9.5947
8.01786
6.99034
5.78102
4.15294
2.48456
1.77967
0.526476
0.537851
-3.87647
-3.69787
1.03899
-19.4845
-23.1212
-20.0427
-20.8971
-17.9151
-17.464
-15.2648
-14.5353
-12.8166
-12.1834
-11.6067
-12.1811
-10.2743
-4.12876
3.59321
5.6971
1.79103
-1.15497
2.98061
9.86896
13.6325
12.4521
11.4068
9.58543
8.01325
6.98776
5.77879
4.15074
2.48254
1.77677
0.5243
0.54395
-3.86006
-3.70152
1.08259
-19.4803
-23.1819
-20.0699
-20.9477
-17.9421
-17.5135
-15.3201
-14.585
-12.8535
-12.2114
-11.642
-12.2251
-10.3119
-4.15007
3.58026
5.68501
1.78363
-1.14822
2.98366
9.84959
13.5981
12.4247
11.3885
9.57576
8.00843
6.9851
5.77642
4.14846
2.4805
1.77379
0.522129
0.550193
-3.84374
-3.70495
1.12507
-19.4744
-23.2469
-20.0966
-21.01
-17.9745
-17.5708
-15.3845
-14.6418
-12.895
-12.2413
-11.6792
-12.274
-10.3548
-4.17552
3.5639
5.66982
1.77491
-1.14078
2.98652
9.82846
13.5617
12.3962
11.3696
9.56575
8.00346
6.98233
5.77386
4.14608
2.47845
1.77076
0.519993
0.556505
-3.82764
-3.70763
1.16662
-19.4667
-23.3181
-20.1205
-21.0835
-18.0124
-17.6351
-15.4562
-14.7034
-12.939
-12.2709
-11.7157
-12.3256
-10.4
-4.20193
3.54556
5.65152
1.76481
-1.13294
2.98869
9.8053
13.5233
12.3667
11.3501
9.55544
7.99836
6.97944
5.77106
4.14358
2.47639
1.76769
0.517905
0.562807
-3.81188
-3.70908
1.20747
-19.4569
-23.3983
-20.1409
-21.1665
-18.0557
-17.7041
-15.532
-14.7659
-12.9821
-12.2973
-11.7487
-12.3758
-10.4427
-4.22519
3.52688
5.62991
1.7533
-1.12477
2.99013
9.77987
13.4829
12.3365
11.3302
9.54491
7.99317
6.97636
5.76796
4.14094
2.47435
1.76464
0.515885
0.569007
-3.79662
-3.70897
1.24794
-19.4448
-23.4911
-20.1591
-21.2556
-18.1035
-17.7738
-15.6064
-14.8237
-13.0198
-12.3173
-11.7749
-12.4214
-10.479
-4.2419
3.50987
5.60562
1.74058
-1.11641
2.9905
9.75195
13.4405
12.3054
11.31
9.5342
7.98789
6.97306
5.76454
4.13816
2.47233
1.76163
0.513935
0.575014
-3.78202
-3.70698
1.28831
-19.4301
-23.6024
-20.1773
-21.3451
-18.1541
-17.8392
-15.6727
-14.8706
-13.0476
-12.3276
-11.7917
-12.4586
-10.5053
-4.25058
3.49467
5.57882
1.72697
-1.10769
2.99005
9.72148
13.3963
12.2738
11.2894
9.5234
7.98255
6.96946
5.76072
4.13522
2.47038
1.7587
0.512068
0.580722
-3.76826
-3.70292
1.32886
-19.4122
-23.7404
-20.1969
-21.427
-18.2046
-17.8942
-15.7241
-14.9002
-13.0608
-12.3255
-11.7975
-12.4854
-10.5201
-4.2522
3.48045
5.54993
1.71283
-1.09846
2.98879
9.68856
13.3502
12.2416
11.2686
9.51254
7.97712
6.9655
5.75648
4.13213
2.46853
1.75588
0.510281
0.586027
-3.75556
-3.69658
1.36981
-19.3907
-23.9156
-20.2174
-21.4918
-18.2517
-17.9332
-15.7545
-14.908
-13.0565
-12.31
-11.792
-12.4999
-10.5231
-4.24944
3.4649
5.51842
1.6984
-1.08828
2.98735
9.65355
13.3025
12.209
11.2477
9.50171
7.97161
6.96111
5.75176
4.12889
2.46682
1.75321
0.508593
0.590804
-3.74414
-3.68787
1.41136
-19.3648
-24.1412
-20.2356
-21.5312
-18.2919
-17.9523
-15.7603
-14.8917
-13.0339
-12.2817
-11.7764
-12.5022
-10.5167
-4.24529
3.44651
5.48406
1.68373
-1.077
2.98587
9.61693
13.2534
12.176
11.2267
9.49094
7.96596
6.95623
5.74654
4.1255
2.4653
1.75074
0.507
0.594924
-3.73428
-3.67664
1.45367
-19.3336
-24.4324
-20.2462
-21.5406
-18.3227
-17.9503
-15.7415
-14.8525
-12.9944
-12.2428
-11.753
-12.4928
-10.5038
-4.24158
3.42416
5.4461
1.66872
-1.06436
2.98504
9.57938
13.2033
12.1428
11.2058
9.4803
7.96017
6.95078
5.74077
4.12199
2.46402
1.74851
0.505536
0.598228
-3.72627
-3.66288
1.49688
-19.2956
-24.8039
-20.2432
-21.5211
-18.3433
-17.9289
-15.7011
-14.7943
-12.9418
-12.1972
-11.7243
-12.4744
-10.4881
-4.23865
3.39815
5.40466
1.65324
-1.05051
2.9848
9.54152
13.1527
12.1097
11.185
9.4698
7.95417
6.94471
5.73445
4.11837
2.46303
1.74656
0.504199
0.600548
-3.72041
-3.64651
1.5411
-19.2482
-25.2661
-20.2204
-21.4777
-18.3545
-17.8922
-15.6448
-14.7232
-12.8811
-12.1489
-11.693
-12.4509
-10.4713
-4.23577
3.36868
5.35944
1.63714
-1.03528
2.98574
9.50398
13.1023
12.0768
11.1645
9.45949
7.94794
6.93796
5.72755
4.11468
2.46239
1.74497
0.503035
0.601676
-3.71707
-3.62756
1.58645
-19.1892
-25.8126
-20.1707
-21.4176
-18.3579
-17.8454
-15.5789
-14.6457
-12.8177
-12.1016
-11.6619
-12.4276
-10.454
-4.23238
3.33612
5.31074
1.62058
-1.01859
2.98773
9.46711
13.0524
12.0444
11.1442
9.44934
7.94141
6.93052
5.72011
4.11095
2.46218
1.74376
0.50204
0.601378
-3.71661
-3.60591
1.63305
-19.1188
-26.4036
-20.0859
-21.3475
-18.3555
-17.7935
-15.5095
-14.5677
-12.756
-12.0582
-11.6353
-12.4076
-10.4351
-4.2287
3.29962
5.25833
1.60418
-0.999641
2.99126
9.43096
13.0032
12.0124
11.1241
9.43938
7.93461
6.92238
5.71215
4.10719
2.46244
1.74304
0.501274
0.599334
-3.71945
-3.58146
1.68108
-19.0306
-26.9527
-19.9577
-21.2723
-18.3486
-17.7403
-15.4411
-14.4936
-12.6995
-12.022
-11.6169
-12.3907
-10.4145
-4.22635
3.2584
5.20326
1.58953
-0.977907
2.99536
9.39475
12.9544
11.9808
11.1045
9.42975
7.92765
6.91367
5.70369
4.10338
2.46317
1.74281
0.500735
0.59524
-3.72584
-3.55411
1.73035
-18.8976
-27.3274
-19.7787
-21.1946
-18.3374
-17.6875
-15.3767
-14.4266
-12.652
-11.9967
-11.6072
-12.3752
-10.393
-4.2274
3.21218
5.14762
1.57873
-0.953592
2.99831
9.35688
12.9054
11.9498
11.0856
9.42092
7.92085
6.9044
5.69462
4.09938
2.46435
1.74325
0.500552
0.58916
-3.73575
-3.5252
1.77987
-18.728
-27.3686
-19.5425
-21.1159
-18.3209
-17.6359
-15.3176
-14.3697
-12.6179
-11.9825
-11.6033
-12.3607
-10.3738
-4.23328
3.16431
5.09664
1.57309
-0.930575
2.99506
9.31533
12.8564
11.9201
11.0687
9.41358
7.91427
6.89424
5.68457
4.09502
2.4661
1.74454
0.500845
0.581492
-3.74924
-3.49656
1.82877
-18.8115
-26.9466
-19.2426
-21.0396
-18.302
-17.5882
-15.2647
-14.3264
-12.5983
-11.9763
-11.6032
-12.3482
-10.3584
-4.24202
3.11952
5.05274
1.56943
-0.915638
2.98186
9.27077
12.8108
11.8953
11.0557
9.40809
7.90665
6.8814
5.67251
4.09044
2.46944
1.74748
0.501855
0.568801
-3.77125
-3.4601
1.88608
9.05689
9.3603
10.2263
11.5676
13.3025
15.4763
18.1822
21.5387
25.9816
31.281
37.7724
45.5533
55.1362
66.9605
81.5387
99.049
123.635
150.061
190.912
215.239
263.311
104.921
9.0567
9.36008
10.226
11.5672
13.3018
15.4753
18.1806
21.5707
26.045
31.3169
37.7715
45.5413
55.1132
66.9251
81.4728
98.9261
123.41
149.594
190.028
213.643
259.439
101.964
9.05649
9.35984
10.2257
11.5667
13.3011
15.4742
18.1789
21.6104
26.0996
31.344
37.7666
45.5278
55.0878
66.8919
81.4067
98.8001
123.177
149.108
189.123
211.986
255.407
103.623
9.05626
9.35959
10.2253
11.5662
13.3004
15.4731
18.1772
21.6502
26.1446
31.3637
37.7597
45.5134
55.0643
66.8545
81.3385
98.6685
122.933
148.601
188.195
210.261
251.262
103.493
9.05603
9.35932
10.225
11.5657
13.2996
15.4719
18.1753
21.6848
26.1809
31.3773
37.7522
45.4985
55.0388
66.8191
81.2698
98.5321
122.678
148.073
187.238
208.467
246.991
101.68
9.05578
9.35904
10.2246
11.5652
13.2988
15.4706
18.1734
21.7084
26.2088
31.3859
37.7451
45.4837
55.016
66.7798
81.1987
98.3888
122.409
147.522
186.247
206.606
242.592
99.6131
9.05553
9.35874
10.2242
11.5646
13.2979
15.4693
18.1714
21.717
26.2289
31.3905
37.7389
45.4692
54.9921
66.7424
81.1267
98.2396
122.124
146.947
185.216
204.679
238.068
97.6887
9.05525
9.35843
10.2238
11.564
13.297
15.4679
18.1692
21.7115
26.2415
31.3916
37.7339
45.4555
54.9711
66.7016
81.0521
98.0828
121.82
146.347
184.137
202.687
233.425
95.7436
9.05496
9.3581
10.2234
11.5633
13.296
15.4664
18.1669
21.6951
26.247
31.39
37.7303
45.4426
54.9493
66.6627
80.9763
97.9193
121.498
145.721
183.005
200.631
228.668
93.6794
9.05466
9.35775
10.2229
11.5627
13.295
15.4648
18.1645
21.6716
26.2453
31.3859
37.728
45.4307
54.9304
66.6205
80.8976
97.7478
121.154
145.067
181.813
198.51
223.8
91.5203
9.05434
9.35738
10.2224
11.5619
13.2939
15.4632
18.1619
21.6431
26.2365
31.3795
37.7267
45.4198
54.9108
66.5799
80.8172
97.5694
120.79
144.384
180.555
196.324
218.826
89.3014
9.054
9.35699
10.2219
11.5612
13.2928
15.4614
18.1592
21.6114
26.2198
31.3705
37.7263
45.41
54.8937
66.5361
80.7336
97.3828
120.404
143.669
179.227
194.071
213.752
87.0334
9.05364
9.35658
10.2214
11.5604
13.2916
15.4595
18.1564
21.5783
26.1947
31.3584
37.726
45.4012
54.8757
66.4934
80.6477
97.189
119.996
142.921
177.823
191.749
208.582
84.7204
9.05326
9.35615
10.2208
11.5595
13.2903
15.4575
18.1533
21.5459
26.1602
31.3427
37.7254
45.3934
54.8598
66.4471
80.5579
96.9867
119.567
142.139
176.34
189.359
203.322
82.3711
9.05285
9.35569
10.2202
11.5586
13.289
15.4554
18.1501
21.5158
26.1158
31.3223
37.7234
45.3863
54.8426
66.4014
80.4651
96.7766
119.116
141.32
174.775
186.898
197.976
79.9976
9.05243
9.3552
10.2195
11.5577
13.2876
15.4532
18.1467
21.4894
26.061
31.296
37.7189
45.3797
54.8273
66.3514
80.3675
96.5571
118.642
140.465
173.126
184.364
192.55
77.613
9.05198
9.35469
10.2188
11.5567
13.286
15.4508
18.1431
21.4674
25.9963
31.2622
37.7106
45.3732
54.8104
66.3012
80.2659
96.3288
118.147
139.571
171.391
181.757
187.046
75.2312
9.0515
9.35414
10.2181
11.5556
13.2845
15.4483
18.1392
21.45
25.9232
31.2194
37.6964
45.3664
54.795
66.2461
80.1582
96.0898
117.627
138.637
169.569
179.074
181.471
72.8663
9.051
9.35356
10.2173
11.5545
13.2828
15.4457
18.1351
21.4364
25.8446
31.1659
37.674
45.3579
54.7778
66.1898
80.0453
95.8404
117.084
137.662
167.659
176.314
175.826
70.5309
9.05046
9.35295
10.2165
11.5533
13.281
15.4428
18.1308
21.4259
25.7643
31.1005
37.6406
45.3467
54.7616
66.1279
79.925
95.5787
116.515
136.644
165.661
173.476
170.118
68.2355
9.04989
9.3523
10.2157
11.552
13.2791
15.4398
18.1261
21.4171
25.6868
31.023
37.5925
45.3302
54.7429
66.0641
79.7978
95.3047
115.92
135.583
163.574
170.558
164.35
65.9872
9.04929
9.35161
10.2147
11.5507
13.2771
15.4367
18.1212
21.4091
25.616
30.9347
37.5263
45.3052
54.7238
65.9939
79.6617
95.0164
115.296
134.475
161.399
167.559
158.527
63.7891
9.04865
9.35088
10.2138
11.5493
13.2749
15.4333
18.1159
21.4013
25.5552
30.8386
37.4387
45.2671
54.6996
65.9209
79.517
94.7137
114.642
133.32
159.134
164.477
152.655
61.6394
9.04797
9.35011
10.2127
11.5478
13.2726
15.4297
18.1103
21.3933
25.5058
30.7394
37.3279
45.2094
54.6704
65.8408
79.3618
94.3945
113.957
132.115
156.779
161.31
146.742
59.5312
9.04725
9.34928
10.2116
11.5462
13.2702
15.4259
18.1043
21.3847
25.4671
30.6425
37.1951
45.1245
54.6287
65.7563
79.1964
94.0587
113.238
130.86
154.334
158.057
140.796
57.4528
9.04648
9.34841
10.2105
11.5445
13.2677
15.4219
18.098
21.3756
25.4369
30.5529
37.0449
45.0043
54.5692
65.6618
79.0187
93.7042
112.485
129.551
151.799
154.717
134.826
55.3878
9.04567
9.34748
10.2092
11.5427
13.265
15.4176
18.0913
21.3658
25.4127
30.4739
36.8856
44.843
54.4778
65.5571
78.8286
93.331
111.696
128.187
149.174
151.286
128.842
53.3166
9.0448
9.34649
10.2079
11.5407
13.2621
15.4131
18.0842
21.3553
25.3916
30.4068
36.727
44.6405
54.3418
65.4322
78.6228
92.9368
110.869
126.767
146.459
147.765
122.857
51.2168
9.04388
9.34544
10.2065
11.5387
13.259
15.4083
18.0766
21.344
25.3718
30.3506
36.5784
44.4045
54.1429
65.2784
78.3985
92.5212
110.005
125.288
143.654
144.15
116.884
49.0649
9.0429
9.34433
10.205
11.5365
13.2557
15.4032
18.0685
21.332
25.352
30.3029
36.4462
44.1506
53.8718
65.0749
78.1473
92.0807
109.101
123.749
140.759
140.442
110.936
46.8377
9.04186
9.34314
10.2034
11.5342
13.2522
15.3977
18.06
21.3192
25.3316
30.2608
36.3325
43.8977
53.5284
64.8017
77.8572
91.6124
108.158
122.148
137.777
136.638
105.028
44.5133
9.04074
9.34187
10.2017
11.5317
13.2485
15.392
18.0509
21.3056
25.3101
30.2213
36.2358
43.6625
53.1318
64.4353
77.5065
91.1078
107.174
120.484
134.708
132.739
99.1734
42.0726
9.03956
9.34052
10.1999
11.5291
13.2446
15.3858
18.0412
21.291
25.2872
30.1823
36.1522
43.4549
52.7126
63.968
77.0682
90.5551
106.144
118.756
131.553
128.744
93.3881
39.5003
9.0383
9.33909
10.198
11.5263
13.2404
15.3793
18.031
21.2755
25.2627
30.1422
36.0766
43.2766
52.3055
63.4109
76.5127
89.9335
105.064
116.962
128.316
124.656
87.6865
36.7858
9.03696
9.33756
10.196
11.5233
13.2359
15.3723
18.0201
21.2591
25.2367
30.1002
36.0039
43.1228
51.9356
62.8006
75.8239
89.2172
103.924
115.101
124.998
120.477
82.083
33.9238
9.03552
9.33593
10.1938
11.5202
13.2312
15.3649
18.0085
21.2415
25.209
30.0559
35.9308
42.9851
51.6135
62.1843
75.0103
88.3775
102.707
113.17
121.603
116.212
76.5915
30.9148
9.03399
9.33419
10.1915
11.5168
13.2261
15.357
17.9961
21.2228
25.1796
30.0087
35.8549
42.8549
51.3348
61.6044
74.1128
87.3969
101.393
111.168
118.137
111.866
71.2257
27.7655
9.03236
9.33233
10.189
11.5132
13.2207
15.3486
17.983
21.2029
25.1482
29.9586
35.775
42.725
51.0865
61.0828
73.1918
86.2795
99.962
109.093
114.608
107.447
65.9989
24.4884
9.03062
9.33035
10.1863
11.5093
13.2149
15.3396
17.969
21.1816
25.1148
29.9054
35.6904
42.5907
50.8529
60.6191
72.305
85.06
98.4011
106.941
111.029
102.968
60.9246
21.1015
9.02876
9.32824
10.1835
11.5052
13.2087
15.3301
17.9541
21.159
25.0792
29.8489
35.6006
42.4494
50.6207
60.1963
71.4854
83.7936
96.715
104.715
107.418
98.4425
56.0169
17.6279
9.02677
9.32599
10.1805
11.5008
13.2021
15.3199
17.9382
21.1348
25.0413
29.7887
35.5054
42.2999
50.3809
59.7919
70.7346
82.5365
94.9299
102.421
103.802
93.8934
51.2914
14.0953
9.02465
9.32358
10.1773
11.4961
13.1951
15.3091
17.9213
21.1091
25.0009
29.7247
35.4042
42.1415
50.1289
59.3858
70.0298
81.3233
93.0869
100.07
100.215
89.3491
46.7659
10.5355
9.02238
9.321
10.1738
11.4911
13.1876
15.2975
17.9033
21.0817
24.9579
29.6567
35.2967
41.9736
49.8625
58.9645
69.3395
80.1586
91.2263
97.6754
96.6915
84.8462
42.4605
6.98394
9.01995
9.31825
10.1702
11.4858
13.1796
15.2851
17.8841
21.0524
24.912
29.5842
35.1825
41.7954
49.5809
58.5212
68.6358
79.0221
89.3736
95.2476
93.2627
80.4281
38.3974
3.4795
9.01736
9.31531
10.1662
11.48
13.171
15.2719
17.8636
21.0211
24.8632
29.5072
35.0611
41.6062
49.283
58.0535
67.9005
77.8824
87.5337
92.7846
89.9399
76.1403
34.5993
0.063801
9.01458
9.31217
10.162
11.4739
13.1619
15.2579
17.8418
20.9878
24.8111
29.4251
34.9322
41.4055
48.9677
57.5603
67.1255
76.7097
85.6936
90.2751
86.7042
72.0207
31.0867
-3.22001
9.01161
9.30881
10.1575
11.4674
13.1521
15.2428
17.8185
20.9523
24.7556
29.3378
34.7952
41.1925
48.6341
57.0405
66.3096
75.4845
83.8278
87.7095
83.5042
68.0865
27.8728
-6.32922
9.00844
9.30521
10.1527
11.4604
13.1417
15.2268
17.7937
20.9143
24.6965
29.245
34.6497
40.9666
48.281
56.4926
65.4531
74.1995
81.9089
85.085
80.2746
64.3204
24.9572
-9.22447
9.00503
9.30136
10.1476
11.4529
13.1305
15.2096
17.7672
20.8738
24.6334
29.1461
34.4951
40.727
47.9077
55.9152
64.556
72.8553
79.9187
82.3988
76.9685