/*--------------------------------*- C++ -*----------------------------------*\
| =========                 |                                                 |
| \\      /  F ield         | OpenFOAM: The Open Source CFD Toolbox           |
|  \\    /   O peration     | Version:  v1912                                 |
|   \\  /    A nd           | Website:  www.openfoam.com                      |
|    \\/     M anipulation  |                                                 |
\*---------------------------------------------------------------------------*/
FoamFile
{
    version     2.0;
    format      ascii;
    class       surfaceScalarField;
    location    "520";
    object      phi;
}
// * * * * * * * * * * * * * * * * * * * * * * * * * * * * * * * * * * * * * //

dimensions      [0 3 -1 0 0 0 0];
oriented        oriented;


internalField   nonuniform List<scalar> 
24588
(
6.81682e-05
1.99928e-08
6.81137e-05
5.4801e-08
6.80281e-05
8.52042e-08
6.79117e-05
1.16305e-07
6.77602e-05
1.50906e-07
6.75697e-05
1.90675e-07
6.73334e-05
2.35677e-07
6.70378e-05
2.96462e-07
6.66694e-05
3.66814e-07
6.62173e-05
4.52271e-07
6.56494e-05
5.66973e-07
6.49507e-05
6.77391e-07
6.41551e-05
8.71247e-07
6.29184e-05
1.15629e-06
6.14763e-05
1.46148e-06
5.91644e-05
2.31024e-06
5.62389e-05
2.928e-06
5.13974e-05
4.84091e-06
4.46575e-05
6.73992e-06
3.34402e-05
1.12176e-05
1.98355e-05
1.36047e-05
1.98354e-05
6.81685e-05
4.04621e-08
6.81136e-05
1.10128e-07
6.8028e-05
1.70251e-07
6.79118e-05
2.32414e-07
6.77603e-05
3.01643e-07
6.75698e-05
3.81252e-07
6.73335e-05
4.71248e-07
6.7038e-05
5.92932e-07
6.66692e-05
7.33712e-07
6.62172e-05
9.04549e-07
6.56497e-05
1.13334e-06
6.49392e-05
1.36371e-06
6.41823e-05
1.71197e-06
6.29177e-05
2.34153e-06
6.14826e-05
2.91659e-06
5.9234e-05
4.55746e-06
5.62556e-05
5.91065e-06
5.13632e-05
9.73263e-06
4.47018e-05
1.34013e-05
3.3344e-05
2.25759e-05
1.97997e-05
2.7149e-05
3.96351e-05
6.81685e-05
6.09347e-08
6.81136e-05
1.65461e-07
6.8028e-05
2.55317e-07
6.79118e-05
3.48543e-07
6.77602e-05
4.52404e-07
6.75698e-05
5.71889e-07
6.73334e-05
7.06884e-07
6.70379e-05
8.89423e-07
6.66691e-05
1.10071e-06
6.62173e-05
1.35659e-06
6.56484e-05
1.70118e-06
6.49412e-05
2.04576e-06
6.41789e-05
2.56201e-06
6.29089e-05
3.51746e-06
6.14693e-05
4.37874e-06
5.92586e-05
6.7658e-06
5.62489e-05
8.92576e-06
5.13831e-05
1.45973e-05
4.46789e-05
2.01055e-05
3.33663e-05
3.38891e-05
1.98203e-05
4.0695e-05
5.94554e-05
6.81685e-05
8.14058e-08
6.81136e-05
2.20759e-07
6.8028e-05
3.40357e-07
6.79118e-05
4.64656e-07
6.77603e-05
6.03117e-07
6.75699e-05
7.62435e-07
6.73336e-05
9.42447e-07
6.70381e-05
1.18586e-06
6.66693e-05
1.4676e-06
6.62172e-05
1.80885e-06
6.56494e-05
2.26778e-06
6.49391e-05
2.73197e-06
6.41792e-05
3.40479e-06
6.29184e-05
4.70198e-06
6.14757e-05
5.84058e-06
5.9285e-05
8.95481e-06
5.62756e-05
1.19398e-05
5.13983e-05
1.94738e-05
4.46696e-05
2.68343e-05
3.33965e-05
4.51628e-05
1.98546e-05
5.42368e-05
7.93099e-05
6.81685e-05
1.01876e-07
6.81136e-05
2.76057e-07
6.8028e-05
4.25411e-07
6.79118e-05
5.8079e-07
6.77603e-05
7.53849e-07
6.75698e-05
9.53056e-07
6.73335e-05
1.17809e-06
6.7038e-05
1.48231e-06
6.66692e-05
1.83453e-06
6.62173e-05
2.26092e-06
6.56483e-05
2.8357e-06
6.49421e-05
3.41346e-06
6.41762e-05
4.25863e-06
6.29095e-05
5.87435e-06
6.14651e-05
7.30811e-06
5.92876e-05
1.11299e-05
5.62977e-05
1.49351e-05
5.13999e-05
2.43703e-05
4.46888e-05
3.35454e-05
3.34435e-05
5.64087e-05
1.99036e-05
6.77768e-05
9.92135e-05
6.81685e-05
1.22347e-07
6.81136e-05
3.31322e-07
6.80281e-05
5.10433e-07
6.79118e-05
6.96897e-07
6.77603e-05
9.04517e-07
6.75699e-05
1.14356e-06
6.73336e-05
1.41363e-06
6.70381e-05
1.77869e-06
6.66694e-05
2.20133e-06
6.62173e-05
2.71322e-06
6.56497e-05
3.40211e-06
6.49391e-05
4.10024e-06
6.41765e-05
5.10168e-06
6.29202e-05
7.0588e-06
6.14724e-05
8.77395e-06
5.92944e-05
1.33064e-05
5.63162e-05
1.79178e-05
5.14129e-05
2.92728e-05
4.47214e-05
4.02371e-05
3.35104e-05
6.76202e-05
1.99694e-05
8.13177e-05
0.000119183
6.81685e-05
1.42816e-07
6.81136e-05
3.8659e-07
6.80281e-05
5.95472e-07
6.79118e-05
8.13029e-07
6.77603e-05
1.05521e-06
6.75699e-05
1.33416e-06
6.73335e-05
1.64925e-06
6.70381e-05
2.07509e-06
6.66693e-05
2.56815e-06
6.62174e-05
3.16536e-06
6.56487e-05
3.96981e-06
6.49436e-05
4.78131e-06
6.41738e-05
5.95903e-06
6.29101e-05
8.22699e-06
6.1462e-05
1.02461e-05
5.92836e-05
1.54825e-05
5.63289e-05
2.08769e-05
5.14351e-05
3.41654e-05
4.4771e-05
4.69011e-05
3.36049e-05
7.87868e-05
2.00552e-05
9.48674e-05
0.000139238
6.81685e-05
1.63287e-07
6.81137e-05
4.41823e-07
6.80281e-05
6.80476e-07
6.79118e-05
9.29126e-07
6.77604e-05
1.20582e-06
6.757e-05
1.52461e-06
6.73338e-05
1.88475e-06
6.70383e-05
2.37142e-06
6.66696e-05
2.93485e-06
6.62174e-05
3.6177e-06
6.56503e-05
4.53582e-06
6.4939e-05
5.46895e-06
6.4173e-05
6.80164e-06
6.29212e-05
9.41196e-06
6.14625e-05
1.17232e-05
5.92764e-05
1.76679e-05
5.6349e-05
2.38077e-05
5.14869e-05
3.9027e-05
4.48567e-05
5.35316e-05
3.37394e-05
8.99044e-05
2.01651e-05
0.000108442
0.000159403
6.81685e-05
1.83756e-07
6.81137e-05
4.97061e-07
6.80281e-05
7.655e-07
6.79118e-05
1.04525e-06
6.77603e-05
1.35646e-06
6.757e-05
1.71519e-06
6.73336e-05
2.12036e-06
6.70382e-05
2.66775e-06
6.66696e-05
3.30152e-06
6.62176e-05
4.0699e-06
6.56492e-05
5.10316e-06
6.49453e-05
6.1499e-06
6.41693e-05
7.66526e-06
6.2906e-05
1.05816e-05
6.14299e-05
1.32196e-05
5.92717e-05
1.98246e-05
5.63574e-05
2.67241e-05
5.15996e-05
4.37838e-05
4.50022e-05
6.01288e-05
3.3927e-05
0.00010098
2.03036e-05
0.000122065
0.000179707
6.81685e-05
2.04227e-07
6.81137e-05
5.52264e-07
6.80281e-05
8.50492e-07
6.79119e-05
1.16134e-06
6.77604e-05
1.50703e-06
6.75701e-05
1.90559e-06
6.73339e-05
2.35581e-06
6.70384e-05
2.96402e-06
6.66699e-05
3.6681e-06
6.62175e-05
4.52237e-06
6.56512e-05
5.66836e-06
6.4938e-05
6.83984e-06
6.41581e-05
8.51476e-06
6.29019e-05
1.17774e-05
6.14059e-05
1.47299e-05
5.92977e-05
2.19332e-05
5.63769e-05
2.96465e-05
5.17795e-05
4.83812e-05
4.52129e-05
6.66957e-05
3.41726e-05
0.000112021
2.04745e-05
0.000135763
0.000200181
6.81685e-05
2.24695e-07
6.81137e-05
6.07474e-07
6.80281e-05
9.35509e-07
6.79118e-05
1.27745e-06
6.77604e-05
1.65763e-06
6.757e-05
2.09614e-06
6.73337e-05
2.59139e-06
6.70383e-05
3.2603e-06
6.66699e-05
4.03461e-06
6.62177e-05
4.97473e-06
6.5651e-05
6.23405e-06
6.49441e-05
7.52527e-06
6.41528e-05
9.38903e-06
6.28931e-05
1.29617e-05
6.13878e-05
1.6245e-05
5.93335e-05
2.39862e-05
5.64218e-05
3.25589e-05
5.19923e-05
5.281e-05
4.54616e-05
7.32261e-05
3.44679e-05
0.000123015
2.06792e-05
0.000149552
0.00022086
6.81685e-05
2.45163e-07
6.81137e-05
6.62646e-07
6.80281e-05
1.0205e-06
6.79119e-05
1.39353e-06
6.77605e-05
1.80815e-06
6.75702e-05
2.28649e-06
6.7334e-05
2.82681e-06
6.70386e-05
3.5565e-06
6.66702e-05
4.40103e-06
6.62175e-05
5.42754e-06
6.56537e-05
6.7967e-06
6.49328e-05
8.22494e-06
6.4122e-05
1.02562e-05
6.28954e-05
1.41522e-05
6.13824e-05
1.77643e-05
5.93674e-05
2.6002e-05
5.64773e-05
3.54495e-05
5.21882e-05
5.70994e-05
4.57125e-05
7.97019e-05
3.47957e-05
0.000133931
2.09165e-05
0.000163431
0.000241777
6.81685e-05
2.65628e-07
6.81137e-05
7.17827e-07
6.80281e-05
1.10551e-06
6.79119e-05
1.50964e-06
6.77604e-05
1.9587e-06
6.75701e-05
2.477e-06
6.73339e-05
3.06235e-06
6.70385e-05
3.85271e-06
6.66701e-05
4.7674e-06
6.62173e-05
5.88062e-06
6.5654e-05
7.35905e-06
6.49298e-05
8.93057e-06
6.40913e-05
1.11566e-05
6.28952e-05
1.53164e-05
6.13807e-05
1.92809e-05
5.93927e-05
2.79891e-05
5.65272e-05
3.8315e-05
5.23428e-05
6.12833e-05
4.59438e-05
8.61007e-05
3.51386e-05
0.000144737
2.11829e-05
0.000177387
0.00026296
6.81685e-05
2.86093e-07
6.81137e-05
7.72968e-07
6.80281e-05
1.1905e-06
6.79119e-05
1.6257e-06
6.77605e-05
2.10918e-06
6.75703e-05
2.66731e-06
6.73341e-05
3.29772e-06
6.70388e-05
4.14885e-06
6.66705e-05
5.13363e-06
6.62168e-05
6.33447e-06
6.56545e-05
7.92033e-06
6.49134e-05
9.65517e-06
6.40568e-05
1.20401e-05
6.28922e-05
1.64727e-05
6.13812e-05
2.07942e-05
5.94096e-05
2.99613e-05
5.65657e-05
4.11593e-05
5.24584e-05
6.53908e-05
4.61487e-05
9.24105e-05
3.54836e-05
0.000155402
2.14736e-05
0.000191397
0.000284433
6.81685e-05
3.06553e-07
6.81137e-05
8.2812e-07
6.80281e-05
1.27552e-06
6.79119e-05
1.7418e-06
6.77605e-05
2.2597e-06
6.75702e-05
2.85779e-06
6.7334e-05
3.53322e-06
6.70386e-05
4.44501e-06
6.66707e-05
5.49966e-06
6.62162e-05
6.7892e-06
6.56532e-05
8.48243e-06
6.49049e-05
1.03904e-05
6.40385e-05
1.29311e-05
6.28887e-05
1.76112e-05
6.13823e-05
2.23006e-05
5.94204e-05
3.19226e-05
5.65935e-05
4.39861e-05
5.25453e-05
6.94387e-05
4.63281e-05
9.86275e-05
3.58232e-05
0.000165907
2.1784e-05
0.000205436
0.000306217
6.81685e-05
3.27013e-07
6.81137e-05
8.8323e-07
6.80281e-05
1.3605e-06
6.79119e-05
1.85785e-06
6.77606e-05
2.41013e-06
6.75704e-05
3.04805e-06
6.73343e-05
3.76852e-06
6.7039e-05
4.74107e-06
6.66712e-05
5.86545e-06
6.62159e-05
7.24464e-06
6.56486e-05
9.04874e-06
6.4904e-05
1.11255e-05
6.40264e-05
1.38138e-05
6.28865e-05
1.8751e-05
6.13836e-05
2.38046e-05
5.94271e-05
3.38796e-05
5.66132e-05
4.68002e-05
5.26125e-05
7.34396e-05
4.64855e-05
0.000104755
3.61537e-05
0.000176239
2.21101e-05
0.00021948
0.000328327
6.81685e-05
3.47467e-07
6.81137e-05
9.38354e-07
6.80281e-05
1.44553e-06
6.79119e-05
1.97394e-06
6.77605e-05
2.56061e-06
6.75703e-05
3.2385e-06
6.73341e-05
4.00399e-06
6.70389e-05
5.03711e-06
6.66713e-05
6.23115e-06
6.6216e-05
7.70019e-06
6.56389e-05
9.62501e-06
6.49103e-05
1.1849e-05
6.40191e-05
1.47146e-05
6.2885e-05
1.98798e-05
6.13848e-05
2.53045e-05
5.94312e-05
3.58327e-05
5.66271e-05
4.96042e-05
5.26666e-05
7.73998e-05
4.66251e-05
0.000110796
3.64738e-05
0.00018639
2.24485e-05
0.000233505
0.000350776
6.81685e-05
3.67922e-07
6.81137e-05
9.93432e-07
6.80282e-05
1.53053e-06
6.7912e-05
2.08997e-06
6.77606e-05
2.71101e-06
6.75705e-05
3.4287e-06
6.73344e-05
4.23925e-06
6.70393e-05
5.33296e-06
6.66716e-05
6.59693e-06
6.62169e-05
8.15497e-06
6.56279e-05
1.02132e-05
6.49147e-05
1.25594e-05
6.40144e-05
1.56142e-05
6.28843e-05
2.10116e-05
6.13859e-05
2.68036e-05
5.94337e-05
3.77854e-05
5.66371e-05
5.24009e-05
5.27124e-05
8.13247e-05
4.67509e-05
0.000116758
3.67838e-05
0.000196357
2.27971e-05
0.000247492
0.000373573
6.81685e-05
3.88369e-07
6.81137e-05
1.04853e-06
6.80282e-05
1.61557e-06
6.79119e-05
2.20606e-06
6.77606e-05
2.86146e-06
6.75703e-05
3.61912e-06
6.73342e-05
4.4747e-06
6.70392e-05
5.62875e-06
6.66714e-05
6.96282e-06
6.62171e-05
8.60959e-06
6.56205e-05
1.08091e-05
6.49153e-05
1.32636e-05
6.40117e-05
1.65227e-05
6.28839e-05
2.21358e-05
6.13869e-05
2.83002e-05
5.94352e-05
3.97367e-05
5.66448e-05
5.51912e-05
5.27532e-05
8.5216e-05
4.68666e-05
0.000122644
3.7085e-05
0.000206139
2.31543e-05
0.000261423
0.000396727
6.81685e-05
4.08817e-07
6.81137e-05
1.10357e-06
6.80282e-05
1.70057e-06
6.7912e-05
2.32207e-06
6.77607e-05
3.01182e-06
6.75706e-05
3.80926e-06
6.73346e-05
4.70993e-06
6.70396e-05
5.92442e-06
6.66718e-05
7.32869e-06
6.62141e-05
9.06747e-06
6.56186e-05
1.14041e-05
6.49138e-05
1.39676e-05
6.40101e-05
1.74246e-05
6.28839e-05
2.3264e-05
6.1388e-05
2.97966e-05
5.94363e-05
4.16888e-05
5.66513e-05
5.79764e-05
5.27914e-05
8.9076e-05
4.69753e-05
0.00012846
3.73792e-05
0.000215735
2.35194e-05
0.000275282
0.000420246
6.81685e-05
4.29258e-07
6.81137e-05
1.15864e-06
6.80282e-05
1.78562e-06
6.7912e-05
2.43815e-06
6.77607e-05
3.16223e-06
6.75704e-05
3.99964e-06
6.73344e-05
4.94535e-06
6.70394e-05
6.22014e-06
6.66722e-05
7.69411e-06
6.62056e-05
9.53436e-06
6.5621e-05
1.19883e-05
6.49121e-05
1.46763e-05
6.40092e-05
1.83309e-05
6.2884e-05
2.43863e-05
6.13892e-05
3.12911e-05
5.94374e-05
4.36402e-05
5.66576e-05
6.07561e-05
5.28289e-05
9.29044e-05
4.70796e-05
0.000134209
3.76686e-05
0.000225146
2.38922e-05
0.000289059
0.000444139
6.81685e-05
4.49698e-07
6.81137e-05
1.21365e-06
6.80282e-05
1.87063e-06
6.7912e-05
2.55414e-06
6.77608e-05
3.31255e-06
6.75707e-05
4.18973e-06
6.73348e-05
5.18048e-06
6.70397e-05
6.51592e-06
6.66732e-05
8.05872e-06
6.61956e-05
1.00122e-05
6.56239e-05
1.25598e-05
6.49106e-05
1.53893e-05
6.40088e-05
1.92307e-05
6.28845e-05
2.55126e-05
6.13906e-05
3.27854e-05
5.9439e-05
4.55922e-05
5.66645e-05
6.35307e-05
5.2867e-05
9.67021e-05
4.71816e-05
0.000139895
3.79553e-05
0.000234372
2.42731e-05
0.000302741
0.000468412
6.81685e-05
4.70131e-07
6.81137e-05
1.26868e-06
6.80282e-05
1.95569e-06
6.7912e-05
2.67021e-06
6.77607e-05
3.46292e-06
6.75705e-05
4.38008e-06
6.73346e-05
5.41578e-06
6.70394e-05
6.81185e-06
6.66739e-05
8.42246e-06
6.61879e-05
1.04984e-05
6.5625e-05
1.31227e-05
6.49095e-05
1.61047e-05
6.40087e-05
2.01343e-05
6.28851e-05
2.66337e-05
6.13924e-05
3.42777e-05
5.94415e-05
4.75427e-05
5.66728e-05
6.62993e-05
5.29065e-05
0.000100468
4.72829e-05
0.000145518
3.82418e-05
0.000243414
2.46628e-05
0.00031632
0.000493075
6.81685e-05
4.90564e-07
6.81137e-05
1.32366e-06
6.80282e-05
2.04071e-06
6.79121e-05
2.78618e-06
6.77609e-05
3.61319e-06
6.75708e-05
4.57012e-06
6.73351e-05
5.65078e-06
6.70398e-05
7.10778e-06
6.66748e-05
8.78563e-06
6.61835e-05
1.09898e-05
6.56247e-05
1.36814e-05
6.49088e-05
1.68204e-05
6.40089e-05
2.10323e-05
6.2886e-05
2.77585e-05
6.13947e-05
3.57695e-05
5.94452e-05
4.94925e-05
5.66828e-05
6.90619e-05
5.2948e-05
0.000104203
4.73847e-05
0.000151082
3.85303e-05
0.000252268
2.50623e-05
0.000329788
0.000518137
6.81685e-05
5.10988e-07
6.81137e-05
1.37867e-06
6.80282e-05
2.12578e-06
6.7912e-05
2.90223e-06
6.77608e-05
3.76352e-06
6.75707e-05
4.76043e-06
6.73349e-05
5.88601e-06
6.70397e-05
7.40367e-06
6.6675e-05
9.14858e-06
6.61809e-05
1.14842e-05
6.5624e-05
1.42383e-05
6.49084e-05
1.7536e-05
6.40093e-05
2.19338e-05
6.28871e-05
2.88784e-05
6.13975e-05
3.72587e-05
5.94505e-05
5.14392e-05
5.66949e-05
7.18173e-05
5.29915e-05
0.000107906
4.74879e-05
0.000156585
3.88233e-05
0.000260933
2.54729e-05
0.000343138
0.00054361
6.81685e-05
5.31412e-07
6.81137e-05
1.43361e-06
6.80282e-05
2.21081e-06
6.79121e-05
3.01819e-06
6.7761e-05
3.91375e-06
6.75709e-05
4.95039e-06
6.73353e-05
6.12097e-06
6.70402e-05
7.69935e-06
6.6674e-05
9.51306e-06
6.61801e-05
1.19781e-05
6.56234e-05
1.4795e-05
6.49083e-05
1.8251e-05
6.40099e-05
2.28303e-05
6.28886e-05
3.00016e-05
6.14011e-05
3.87467e-05
5.94574e-05
5.33833e-05
5.67093e-05
7.45655e-05
5.30371e-05
0.000111579
4.75932e-05
0.000162029
3.91229e-05
0.000269403
2.5896e-05
0.000356365
0.000569506
6.81685e-05
5.51828e-07
6.81137e-05
1.48858e-06
6.80282e-05
2.29589e-06
6.79121e-05
3.13422e-06
6.77609e-05
4.06405e-06
6.75708e-05
5.14063e-06
6.7335e-05
6.35623e-06
6.70403e-05
7.99473e-06
6.66685e-05
9.88315e-06
6.61827e-05
1.24642e-05
6.56229e-05
1.53548e-05
6.49083e-05
1.89656e-05
6.40107e-05
2.37302e-05
6.28904e-05
3.11197e-05
6.14054e-05
4.02313e-05
5.94661e-05
5.53222e-05
5.67262e-05
7.73053e-05
5.3085e-05
0.00011522
4.77009e-05
0.000167413
3.94313e-05
0.000277673
2.63331e-05
0.000369463
0.000595839
6.81685e-05
5.72245e-07
6.81137e-05
1.5435e-06
6.80283e-05
2.38093e-06
6.79122e-05
3.25015e-06
6.7761e-05
4.21425e-06
6.75711e-05
5.33048e-06
6.73354e-05
6.59127e-06
6.70411e-05
8.28964e-06
6.66608e-05
1.02617e-05
6.61872e-05
1.29379e-05
6.56226e-05
1.59193e-05
6.49085e-05
1.96797e-05
6.40116e-05
2.46252e-05
6.28925e-05
3.22406e-05
6.14105e-05
4.17138e-05
5.94764e-05
5.72566e-05
5.67456e-05
8.00363e-05
5.3135e-05
0.00011883
4.78111e-05
0.000172737
3.97502e-05
0.000285734
2.67858e-05
0.000382428
0.000622625
6.81685e-05
5.92651e-07
6.81138e-05
1.59844e-06
6.80283e-05
2.46602e-06
6.79121e-05
3.36616e-06
6.7761e-05
4.36452e-06
6.7571e-05
5.52062e-06
6.73351e-05
6.82667e-06
6.70413e-05
8.58411e-06
6.66543e-05
1.06472e-05
6.61905e-05
1.34019e-05
6.56225e-05
1.64873e-05
6.49088e-05
2.03934e-05
6.40127e-05
2.55234e-05
6.2895e-05
3.33561e-05
6.14163e-05
4.3192e-05
5.94884e-05
5.91841e-05
5.67674e-05
8.27572e-05
5.31872e-05
0.00012241
4.7924e-05
0.000178
4.0081e-05
0.000293577
2.72555e-05
0.000395253
0.00064988
6.81685e-05
6.1306e-07
6.81138e-05
1.65332e-06
6.80283e-05
2.55106e-06
6.79122e-05
3.48205e-06
6.77611e-05
4.51468e-06
6.75713e-05
5.71034e-06
6.73355e-05
7.06181e-06
6.70421e-05
8.87814e-06
6.66501e-05
1.10376e-05
6.61924e-05
1.38595e-05
6.56225e-05
1.70572e-05
6.49092e-05
2.11067e-05
6.40139e-05
2.64169e-05
6.28978e-05
3.44741e-05
6.14229e-05
4.46674e-05
5.95019e-05
6.11055e-05
5.67916e-05
8.54676e-05
5.32416e-05
0.000125961
4.80394e-05
0.000183203
4.04245e-05
0.000301192
2.77435e-05
0.000407934
0.000677623
6.81685e-05
6.33458e-07
6.81138e-05
1.70823e-06
6.80283e-05
2.63616e-06
6.79122e-05
3.59804e-06
6.77611e-05
4.66492e-06
6.75712e-05
5.90037e-06
6.73352e-05
7.29727e-06
6.70422e-05
9.1719e-06
6.66472e-05
1.1431e-05
6.61937e-05
1.43132e-05
6.56227e-05
1.76282e-05
6.49097e-05
2.18197e-05
6.40153e-05
2.73134e-05
6.29009e-05
3.55863e-05
6.14302e-05
4.61377e-05
5.95168e-05
6.30184e-05
5.68184e-05
8.81659e-05
5.32984e-05
0.00012948
4.81572e-05
0.000188344
4.07813e-05
0.000308568
2.82506e-05
0.000420465
0.000705874
6.81685e-05
6.53858e-07
6.81138e-05
1.76307e-06
6.80283e-05
2.7212e-06
6.79123e-05
3.7139e-06
6.77612e-05
4.81504e-06
6.75715e-05
6.08999e-06
6.73357e-05
7.53238e-06
6.70428e-05
9.46544e-06
6.66457e-05
1.18266e-05
6.61946e-05
1.47644e-05
6.5623e-05
1.81998e-05
6.49103e-05
2.25322e-05
6.40168e-05
2.82051e-05
6.29044e-05
3.67006e-05
6.1438e-05
4.76046e-05
5.9533e-05
6.49238e-05
5.68476e-05
9.08515e-05
5.33576e-05
0.00013297
4.82773e-05
0.000193424
4.11512e-05
0.000315694
2.87776e-05
0.000432838
0.000734652
6.81685e-05
6.74247e-07
6.81138e-05
1.81795e-06
6.80283e-05
2.80631e-06
6.79122e-05
3.82987e-06
6.77612e-05
4.96523e-06
6.75713e-05
6.27996e-06
6.73355e-05
7.76775e-06
6.70427e-05
9.75895e-06
6.66447e-05
1.22232e-05
6.61953e-05
1.52139e-05
6.56233e-05
1.87718e-05
6.4911e-05
2.32446e-05
6.40184e-05
2.90996e-05
6.29081e-05
3.78088e-05
6.14464e-05
4.90657e-05
5.95505e-05
6.68192e-05
5.68793e-05
9.35227e-05
5.34194e-05
0.00013643
4.83997e-05
0.000198444
4.15339e-05
0.00032256
2.93247e-05
0.000445048
0.000763976
6.81685e-05
6.94639e-07
6.81138e-05
1.87277e-06
6.80284e-05
2.89135e-06
6.79123e-05
3.9457e-06
6.77614e-05
5.1153e-06
6.75717e-05
6.46951e-06
6.73361e-05
8.00265e-06
6.70432e-05
1.00525e-05
6.66443e-05
1.26208e-05
6.61961e-05
1.56621e-05
6.56237e-05
1.93441e-05
6.49117e-05
2.39565e-05
6.40202e-05
2.99895e-05
6.2912e-05
3.89189e-05
6.14553e-05
5.05229e-05
5.95692e-05
6.87058e-05
5.69134e-05
9.61786e-05
5.3484e-05
0.00013986
4.85244e-05
0.000203403
4.19291e-05
0.000329155
2.98922e-05
0.000457085
0.000793869
6.81685e-05
7.15021e-07
6.81138e-05
1.92762e-06
6.80284e-05
2.97646e-06
6.79123e-05
4.06164e-06
6.77613e-05
5.26544e-06
6.75715e-05
6.65946e-06
6.7336e-05
8.23773e-06
6.70428e-05
1.03463e-05
6.66437e-05
1.30186e-05
6.61968e-05
1.61091e-05
6.56242e-05
1.99167e-05
6.49126e-05
2.46682e-05
6.40221e-05
3.08819e-05
6.29162e-05
4.00224e-05
6.14647e-05
5.19739e-05
5.95889e-05
7.05811e-05
5.695e-05
9.88174e-05
5.35514e-05
0.000143258
4.86517e-05
0.000208303
4.23365e-05
0.00033547
3.04801e-05
0.000468941
0.000824349
6.81684e-05
7.35406e-07
6.81138e-05
1.9824e-06
6.80284e-05
3.06149e-06
6.79124e-05
4.17744e-06
6.77615e-05
5.41543e-06
6.75718e-05
6.84899e-06
6.73367e-05
8.47224e-06
6.70429e-05
1.06408e-05
6.66437e-05
1.34166e-05
6.61975e-05
1.65553e-05
6.56248e-05
2.04894e-05
6.49134e-05
2.53794e-05
6.4024e-05
3.17696e-05
6.29205e-05
4.11278e-05
6.14745e-05
5.34206e-05
5.96098e-05
7.24462e-05
5.69891e-05
0.000101438
5.3622e-05
0.000146625
4.8782e-05
0.000213143
4.27558e-05
0.000341496
3.10886e-05
0.000480608
0.000855437
6.81684e-05
7.55781e-07
6.81138e-05
2.03722e-06
6.80284e-05
3.1466e-06
6.79123e-05
4.29335e-06
6.77614e-05
5.56548e-06
6.75716e-05
7.03896e-06
6.73367e-05
8.70674e-06
6.70387e-05
1.09394e-05
6.66455e-05
1.38091e-05
6.61982e-05
1.70026e-05
6.56254e-05
2.10623e-05
6.49144e-05
2.60905e-05
6.4026e-05
3.26598e-05
6.29251e-05
4.22264e-05
6.14847e-05
5.48605e-05
5.96317e-05
7.42987e-05
5.70305e-05
0.000104039
5.3696e-05
0.00014996
4.89157e-05
0.000217923
4.31874e-05
0.000347225
3.17181e-05
0.000492077
0.000887155
6.81684e-05
7.76158e-07
6.81138e-05
2.09197e-06
6.80284e-05
3.23162e-06
6.79124e-05
4.40912e-06
6.77617e-05
5.71535e-06
6.75719e-05
7.22862e-06
6.73378e-05
8.94018e-06
6.70264e-05
1.12515e-05
6.66532e-05
1.41819e-05
6.61989e-05
1.74569e-05
6.5626e-05
2.16352e-05
6.49153e-05
2.6801e-05
6.40281e-05
3.35454e-05
6.29298e-05
4.33268e-05
6.14952e-05
5.62956e-05
5.96545e-05
7.61398e-05
5.70742e-05
0.00010662
5.37735e-05
0.000153261
4.90534e-05
0.000222643
4.36315e-05
0.000352647
3.2369e-05
0.00050334
0.000919524
6.81684e-05
7.96524e-07
6.81138e-05
2.14677e-06
6.80284e-05
3.31672e-06
6.79124e-05
4.52503e-06
6.77616e-05
5.86528e-06
6.75716e-05
7.41877e-06
6.73379e-05
9.17354e-06
6.70187e-05
1.15713e-05
6.66576e-05
1.45429e-05
6.61996e-05
1.79149e-05
6.56267e-05
2.22082e-05
6.49163e-05
2.75114e-05
6.40303e-05
3.44333e-05
6.29346e-05
4.44201e-05
6.15061e-05
5.77236e-05
5.96783e-05
7.79671e-05
5.71201e-05
0.000109178
5.38549e-05
0.000156526
4.91952e-05
0.000227303
4.40888e-05
0.000357753
3.30422e-05
0.000514387
0.000952567
6.81684e-05
8.16894e-07
6.81138e-05
2.20148e-06
6.80285e-05
3.40173e-06
6.79125e-05
4.64076e-06
6.77618e-05
6.01506e-06
6.7572e-05
7.60844e-06
6.73386e-05
9.40638e-06
6.70165e-05
1.18939e-05
6.66586e-05
1.49008e-05
6.62003e-05
1.83732e-05
6.56273e-05
2.27811e-05
6.49174e-05
2.82212e-05
6.40325e-05
3.53164e-05
6.29396e-05
4.55151e-05
6.15173e-05
5.91465e-05
5.97029e-05
7.9782e-05
5.71681e-05
0.000111713
5.39405e-05
0.000159753
4.93414e-05
0.000231902
4.4559e-05
0.000362536
3.3738e-05
0.000525208
0.000986305
6.81684e-05
8.37257e-07
6.81138e-05
2.25625e-06
6.80285e-05
3.48681e-06
6.79125e-05
4.75661e-06
6.77617e-05
6.16495e-06
6.7572e-05
7.79831e-06
6.73365e-05
9.64155e-06
6.70156e-05
1.22152e-05
6.66588e-05
1.52576e-05
6.62009e-05
1.88312e-05
6.5628e-05
2.33541e-05
6.49184e-05
2.89309e-05
6.40347e-05
3.62024e-05
6.29446e-05
4.66025e-05
6.15288e-05
6.05616e-05
5.97283e-05
8.15819e-05
5.7218e-05
0.000114223
5.40305e-05
0.000162941
4.94916e-05
0.000236441
4.50408e-05
0.000366986
3.44558e-05
0.000535793
0.00102076
6.81684e-05
8.57621e-07
6.81139e-05
2.31093e-06
6.80285e-05
3.57183e-06
6.79126e-05
4.87224e-06
6.77617e-05
6.315e-06
6.75734e-05
7.98648e-06
6.73234e-05
9.89103e-06
6.70187e-05
1.252e-05
6.66589e-05
1.56173e-05
6.62014e-05
1.92887e-05
6.56286e-05
2.39268e-05
6.49194e-05
2.96399e-05
6.40369e-05
3.70829e-05
6.29498e-05
4.7692e-05
6.15406e-05
6.19715e-05
5.97544e-05
8.33687e-05
5.72695e-05
0.000116708
5.41254e-05
0.000166085
4.96455e-05
0.000240921
4.55297e-05
0.000371102
3.51926e-05
0.00054613
0.00105595
6.81684e-05
8.77974e-07
6.81139e-05
2.36565e-06
6.80285e-05
3.65695e-06
6.79126e-05
4.98794e-06
6.77614e-05
6.4654e-06
6.7574e-05
8.17399e-06
6.73139e-05
1.01509e-05
6.70206e-05
1.28134e-05
6.66589e-05
1.59791e-05
6.62018e-05
1.97458e-05
6.56292e-05
2.44994e-05
6.49204e-05
3.03488e-05
6.40391e-05
3.79665e-05
6.2955e-05
4.87735e-05
6.15526e-05
6.33731e-05
5.97811e-05
8.51397e-05
5.73226e-05
0.000119166
5.42255e-05
0.000169182
4.98027e-05
0.000245344
4.60163e-05
0.000374889
3.59406e-05
0.000556205
0.00109189
6.81684e-05
8.98284e-07
6.81139e-05
2.42026e-06
6.80285e-05
3.74194e-06
6.79128e-05
5.10338e-06
6.77616e-05
6.61559e-06
6.75748e-05
8.36069e-06
6.73115e-05
1.04136e-05
6.70206e-05
1.31043e-05
6.66588e-05
1.63409e-05
6.62021e-05
2.02025e-05
6.56297e-05
2.50718e-05
6.49214e-05
3.1057e-05
6.40413e-05
3.88446e-05
6.29602e-05
4.98569e-05
6.15648e-05
6.47692e-05
5.98082e-05
8.68968e-05
5.73766e-05
0.000121598
5.43319e-05
0.000172227
4.99625e-05
0.000249713
4.64975e-05
0.000378354
3.67794e-05
0.000565923
0.00112867
4.65253e-07
-4.653e-07
-1.86626e-06
2.33151e-06
-2.78464e-06
9.18363e-07
-2.80355e-06
1.8938e-08
-2.27785e-06
-5.25668e-07
-1.67962e-06
-5.9832e-07
-1.37871e-06
-3.0101e-07
-1.32256e-06
-5.64279e-08
-1.38137e-06
5.73464e-08
-1.49863e-06
1.15223e-07
-1.70885e-06
1.8903e-07
-1.65779e-06
-3.1426e-08
-1.19788e-06
-4.56324e-07
-4.25243e-07
-7.67214e-07
4.06825e-07
-8.3048e-07
1.3911e-06
-9.87707e-07
2.94252e-06
-1.55653e-06
5.39648e-06
-2.4549e-06
8.56971e-06
-3.17459e-06
1.20327e-05
-3.45791e-06
1.54981e-05
-3.45645e-06
1.88364e-05
-3.34408e-06
2.2049e-05
-3.214e-06
2.51839e-05
-3.13352e-06
2.82489e-05
-3.06277e-06
3.12378e-05
-2.98895e-06
3.41422e-05
-2.90515e-06
3.69535e-05
-2.81285e-06
3.9746e-05
-2.7989e-06
4.25193e-05
-2.76931e-06
4.44725e-05
-1.94896e-06
4.7787e-05
-3.31554e-06
5.78581e-05
-1.0073e-05
6.67273e-05
-8.86956e-06
-1.25818e-06
4.9899e-07
-9.64382e-07
-1.83171e-06
4.66219e-06
-2.73749e-06
1.82412e-06
-2.76347e-06
4.49751e-08
-2.23356e-06
-1.05552e-06
-1.64806e-06
-1.184e-06
-1.34437e-06
-6.04905e-07
-1.28815e-06
-1.132e-07
-1.33965e-06
1.06091e-07
-1.46005e-06
2.31605e-07
-1.68595e-06
3.80357e-07
-1.67301e-06
-1.26984e-08
-1.24981e-06
-8.72501e-07
-4.47162e-07
-1.55889e-06
4.68621e-07
-1.74292e-06
1.49157e-06
-2.01759e-06
2.98254e-06
-3.05798e-06
5.33727e-06
-4.81154e-06
8.45814e-06
-6.29768e-06
1.19604e-05
-6.95012e-06
1.54923e-05
-6.9712e-06
1.88609e-05
-6.72373e-06
2.20717e-05
-6.42756e-06
2.51865e-05
-6.2457e-06
2.82312e-05
-6.10331e-06
3.12084e-05
-5.96625e-06
3.41108e-05
-5.80884e-06
3.69248e-05
-5.62991e-06
3.97167e-05
-5.60265e-06
4.24953e-05
-5.54045e-06
4.44826e-05
-3.92827e-06
4.7613e-05
-6.44794e-06
5.75518e-05
-2.00153e-05
6.66271e-05
-1.79457e-05
-2.62225e-06
5.34767e-07
-1.49923e-06
-1.79035e-06
6.9873e-06
-2.68442e-06
2.71817e-06
-2.6994e-06
6.00013e-08
-2.17065e-06
-1.58421e-06
-1.59222e-06
-1.7626e-06
-1.29152e-06
-9.05774e-07
-1.23264e-06
-1.72543e-07
-1.28201e-06
1.52972e-07
-1.41193e-06
3.57975e-07
-1.66567e-06
5.98383e-07
-1.69685e-06
5.23211e-08
-1.29198e-06
-1.27032e-06
-4.27362e-07
-2.41271e-06
5.80414e-07
-2.74754e-06
1.61629e-06
-3.06084e-06
3.01834e-06
-4.47098e-06
5.27211e-06
-7.06733e-06
8.36567e-06
-9.39419e-06
1.19213e-05
-1.04954e-05
1.55257e-05
-1.0558e-05
1.89269e-05
-1.01364e-05
2.21319e-05
-9.63524e-06
2.52269e-05
-9.33812e-06
2.82512e-05
-9.12326e-06
3.1214e-05
-8.92918e-06
3.41105e-05
-8.70664e-06
3.69247e-05
-8.44717e-06
3.97139e-05
-8.40399e-06
4.24949e-05
-8.31388e-06
4.45152e-05
-5.94052e-06
4.74791e-05
-9.41386e-06
5.72826e-05
-2.98222e-05
6.65321e-05
-2.7196e-05
-4.08588e-06
5.75525e-07
-2.07485e-06
-1.74455e-06
9.30736e-06
-2.62056e-06
3.59416e-06
-2.61619e-06
5.56823e-08
-2.08595e-06
-2.11439e-06
-1.51683e-06
-2.33191e-06
-1.22191e-06
-1.20089e-06
-1.16205e-06
-2.32939e-07
-1.21097e-06
1.99268e-07
-1.35257e-06
4.95618e-07
-1.63549e-06
8.50072e-07
-1.70984e-06
1.56017e-07
-1.31684e-06
-1.65518e-06
-3.81818e-07
-3.33472e-06
7.22811e-07
-3.84816e-06
1.76942e-06
-4.11662e-06
3.07324e-06
-5.78885e-06
5.21866e-06
-9.21539e-06
8.28918e-06
-1.24675e-05
1.19108e-05
-1.41047e-05
1.55977e-05
-1.42248e-05
1.90362e-05
-1.35881e-05
2.22366e-05
-1.28387e-05
2.53106e-05
-1.24092e-05
2.83119e-05
-1.212e-05
3.12566e-05
-1.1874e-05
3.41433e-05
-1.15947e-05
3.69551e-05
-1.12623e-05
3.97399e-05
-1.12015e-05
4.252e-05
-1.10857e-05
4.45705e-05
-7.98278e-06
4.73855e-05
-1.2231e-05
5.70487e-05
-3.94888e-05
6.64413e-05
-3.65895e-05
-5.6434e-06
6.21244e-07
-2.69617e-06
-1.6942e-06
1.16228e-05
-2.5451e-06
4.44502e-06
-2.51386e-06
2.44891e-08
-1.98034e-06
-2.64785e-06
-1.42317e-06
-2.88925e-06
-1.13679e-06
-1.48742e-06
-1.07703e-06
-2.93136e-07
-1.12665e-06
2.4661e-07
-1.28041e-06
6.46034e-07
-1.59233e-06
1.1324e-06
-1.7092e-06
3.02095e-07
-1.32291e-06
-2.03351e-06
-3.09218e-07
-4.33608e-06
9.00376e-07
-5.05423e-06
1.96048e-06
-5.1863e-06
3.15752e-06
-7.00062e-06
5.18285e-06
-1.12436e-05
8.23209e-06
-1.55208e-05
1.19344e-05
-1.77935e-05
1.57168e-05
-1.79854e-05
1.9199e-05
-1.70851e-05
2.23953e-05
-1.60383e-05
2.54456e-05
-1.54562e-05
2.842e-05
-1.50895e-05
3.13417e-05
-1.4796e-05
3.42138e-05
-1.44682e-05
3.70197e-05
-1.40718e-05
3.97979e-05
-1.39931e-05
4.25731e-05
-1.38522e-05
4.46509e-05
-1.0052e-05
4.7332e-05
-1.49143e-05
5.68483e-05
-4.90085e-05
6.63543e-05
-4.60963e-05
-7.28985e-06
6.71838e-07
-3.3681e-06
-1.63909e-06
1.39337e-05
-2.4569e-06
5.26281e-06
-2.39187e-06
-4.04918e-08
-1.85392e-06
-3.18575e-06
-1.31166e-06
-3.4317e-06
-1.0364e-06
-1.76287e-06
-9.77328e-07
-3.5276e-07
-1.02835e-06
2.95065e-07
-1.19366e-06
8.07298e-07
-1.53306e-06
1.44546e-06
-1.69154e-06
4.86001e-07
-1.30862e-06
-2.40701e-06
-2.11087e-07
-5.41832e-06
1.11181e-06
-6.37256e-06
2.19416e-06
-6.28043e-06
3.28245e-06
-8.10798e-06
5.17674e-06
-1.31418e-05
8.20482e-06
-1.85528e-05
1.2004e-05
-2.15755e-05
1.58986e-05
-2.18536e-05
1.9433e-05
-2.06373e-05
2.26247e-05
-1.92342e-05
2.56454e-05
-1.8473e-05
2.8586e-05
-1.80245e-05
3.14778e-05
-1.7688e-05
3.43289e-05
-1.73209e-05
3.71247e-05
-1.68718e-05
3.9893e-05
-1.67762e-05
4.26585e-05
-1.66078e-05
4.47596e-05
-1.21439e-05
4.73188e-05
-1.7476e-05
5.66795e-05
-5.83726e-05
6.62706e-05
-5.56883e-05
-9.0206e-06
7.27098e-07
-4.09527e-06
-1.57881e-06
1.62396e-05
-2.35434e-06
6.03831e-06
-2.24867e-06
-1.46117e-07
-1.70584e-06
-3.72853e-06
-1.18164e-06
-3.95606e-06
-9.19899e-07
-2.02475e-06
-8.61711e-07
-4.11395e-07
-9.14335e-07
3.45495e-07
-1.08987e-06
9.79389e-07
-1.45427e-06
1.78626e-06
-1.65334e-06
7.09272e-07
-1.27279e-06
-2.77857e-06
-8.97986e-08
-6.58694e-06
1.35393e-06
-7.81243e-06
2.4726e-06
-7.41092e-06
3.4598e-06
-9.11378e-06
5.21814e-06
-1.49043e-05
8.22551e-06
-2.15662e-05
1.21392e-05
-2.54699e-05
1.61679e-05
-2.58523e-05
1.9767e-05
-2.4258e-05
2.29523e-05
-2.24241e-05
2.59322e-05
-2.14483e-05
2.8827e-05
-2.09129e-05
3.1678e-05
-2.05392e-05
3.44993e-05
-2.01439e-05
3.72791e-05
-1.9656e-05
4.00332e-05
-1.95464e-05
4.27821e-05
-1.9346e-05
4.49013e-05
-1.42533e-05
4.73476e-05
-1.9925e-05
5.65412e-05
-6.75697e-05
6.61898e-05
-6.53377e-05
-1.08315e-05
7.86632e-07
-4.882e-06
-1.51279e-06
1.8539e-05
-2.23536e-06
6.76084e-06
-2.08209e-06
-2.99326e-07
-1.53474e-06
-4.27584e-06
-1.03176e-06
-4.45923e-06
-7.85721e-07
-2.271e-06
-7.28204e-07
-4.69517e-07
-7.82016e-07
3.96661e-07
-9.65707e-07
1.15867e-06
-1.35181e-06
2.15032e-06
-1.59058e-06
9.69694e-07
-1.21339e-06
-3.14471e-06
5.48245e-08
-7.83654e-06
1.62703e-06
-9.37934e-06
2.79998e-06
-8.59861e-06
3.7028e-06
-1.00409e-05
5.32957e-06
-1.65365e-05
8.32036e-06
-2.45626e-05
1.23693e-05
-2.94939e-05
1.6562e-05
-3.00076e-05
2.02465e-05
-2.79692e-05
2.34234e-05
-2.56072e-05