/*--------------------------------*- C++ -*----------------------------------*\
| =========                 |                                                 |
| \\      /  F ield         | OpenFOAM: The Open Source CFD Toolbox           |
|  \\    /   O peration     | Version:  v1912                                 |
|   \\  /    A nd           | Website:  www.openfoam.com                      |
|    \\/     M anipulation  |                                                 |
\*---------------------------------------------------------------------------*/
FoamFile
{
    version     2.0;
    format      ascii;
    class       volVectorField;
    location    "520";
    object      U;
}
// * * * * * * * * * * * * * * * * * * * * * * * * * * * * * * * * * * * * * //

dimensions      [0 1 -1 0 0 0 0];


internalField   nonuniform List<vector> 
12441
(
(29.9988 1.71635e-05 0)
(29.9853 5.20727e-05 0)
(29.9558 9.06544e-05 0)
(29.911 0.000139123 0)
(29.8524 0.000202781 0)
(29.7776 0.000288027 0)
(29.6852 0.000399638 0)
(29.5694 0.000565121 0)
(29.4258 0.000785735 0)
(29.246 0.00108973 0)
(29.0305 0.00153359 0)
(28.7345 0.00206665 0)
(28.4481 0.00296769 0)
(27.9751 0.00445801 0)
(27.4105 0.00628594 0)
(26.6285 0.0112243 0)
(25.5884 0.0151216 0)
(23.9164 0.0316255 0)
(21.5579 0.0530079 0)
(17.86 0.0913757 0)
(12.0773 0.12199 0)
(5.79185 0.196003 0)
(29.9988 5.09912e-05 0)
(29.9852 0.000155272 0)
(29.9558 0.00027015 0)
(29.9109 0.000414705 0)
(29.8524 0.000605106 0)
(29.7775 0.000859373 0)
(29.6852 0.00119466 0)
(29.5694 0.00169008 0)
(29.4259 0.00235095 0)
(29.2456 0.00325868 0)
(29.0309 0.00459361 0)
(28.7308 0.00619003 0)
(28.453 0.00882644 0)
(27.9801 0.0134274 0)
(27.4129 0.018861 0)
(26.6335 0.0334194 0)
(25.5908 0.0479611 0)
(23.9162 0.0907671 0)
(21.5573 0.138502 0)
(17.8582 0.264407 0)
(12.0785 0.358429 0)
(5.79569 0.5854 0)
(29.9988 8.46761e-05 0)
(29.9852 0.000258514 0)
(29.9557 0.000449 0)
(29.9109 0.000689336 0)
(29.8524 0.00100615 0)
(29.7775 0.00143019 0)
(29.6852 0.00198804 0)
(29.5693 0.00281297 0)
(29.4259 0.00391456 0)
(29.2456 0.00542635 0)
(29.0312 0.00764872 0)
(28.7298 0.0103449 0)
(28.4553 0.0145866 0)
(27.9766 0.0224739 0)
(27.4093 0.031464 0)
(26.6298 0.0547998 0)
(25.5896 0.0815744 0)
(23.9206 0.148124 0)
(21.5607 0.221456 0)
(17.8581 0.43508 0)
(12.0847 0.591381 0)
(5.80398 0.972876 0)
(29.9988 0.000118788 0)
(29.9852 0.00036246 0)
(29.9558 0.00062873 0)
(29.9109 0.00096522 0)
(29.8525 0.00140887 0)
(29.7776 0.00200284 0)
(29.6853 0.00278401 0)
(29.5694 0.00393919 0)
(29.426 0.00548212 0)
(29.2457 0.00759807 0)
(29.0311 0.0107128 0)
(28.7311 0.0145019 0)
(28.4523 0.0203641 0)
(27.9807 0.0315465 0)
(27.4142 0.0440919 0)
(26.6344 0.0762321 0)
(25.5936 0.114421 0)
(23.9261 0.208443 0)
(21.5693 0.329142 0)
(17.8629 0.613802 0)
(12.0972 0.828298 0)
(5.817 1.362 0)
(29.9988 0.000152963 0)
(29.9852 0.000466298 0)
(29.9558 0.000808257 0)
(29.9109 0.00124086 0)
(29.8524 0.0018112 0)
(29.7776 0.00257492 0)
(29.6852 0.00357928 0)
(29.5694 0.00506448 0)
(29.426 0.00704842 0)
(29.2457 0.00976869 0)
(29.0313 0.0137757 0)
(28.7303 0.0186527 0)
(28.4554 0.0261573 0)
(27.9768 0.0405878 0)
(27.4109 0.0567399 0)
(26.6319 0.0974273 0)
(25.5944 0.146797 0)
(23.9301 0.269527 0)
(21.5806 0.419662 0)
(17.8736 0.788713 0)
(12.1176 1.06501 0)
(5.83506 1.75241 0)
(29.9988 0.000187136 0)
(29.9852 0.000570069 0)
(29.9558 0.000987758 0)
(29.9109 0.00151651 0)
(29.8525 0.0022135 0)
(29.7776 0.003147 0)
(29.6853 0.00437464 0)
(29.5695 0.00618985 0)
(29.4261 0.00861474 0)
(29.2459 0.0119397 0)
(29.0312 0.0168373 0)
(28.7318 0.0228083 0)
(28.4514 0.0319475 0)
(27.9817 0.0496435 0)
(27.4162 0.0693894 0)
(26.6365 0.118515 0)
(25.5991 0.178894 0)
(23.9352 0.330076 0)
(21.5938 0.508628 0)
(17.891 0.962311 0)
(12.1474 1.30143 0)
(5.85855 2.14393 0)
(29.9988 0.000221306 0)
(29.9852 0.00067381 0)
(29.9558 0.00116725 0)
(29.9109 0.00179217 0)
(29.8525 0.00261575 0)
(29.7776 0.00371906 0)
(29.6853 0.00516997 0)
(29.5695 0.0073151 0)
(29.4261 0.0101808 0)
(29.2459 0.0141109 0)
(29.0314 0.0198997 0)
(28.7311 0.0269595 0)
(28.4558 0.0377569 0)
(27.9768 0.0586373 0)
(27.4129 0.0820308 0)
(26.6345 0.13946 0)
(25.6014 0.210283 0)
(23.9393 0.388068 0)
(21.6116 0.599722 0)
(17.9186 1.13601 0)
(12.1892 1.53795 0)
(5.88799 2.53686 0)
(29.9988 0.000255476 0)
(29.9853 0.000777525 0)
(29.9558 0.00134673 0)
(29.9109 0.00206781 0)
(29.8525 0.00301793 0)
(29.7776 0.00429104 0)
(29.6854 0.00596523 0)
(29.5696 0.00844024 0)
(29.4262 0.0117466 0)
(29.2461 0.0162822 0)
(29.0313 0.0229595 0)
(28.7328 0.0311147 0)
(28.4503 0.0435535 0)
(27.9823 0.0676561 0)
(27.4189 0.094517 0)
(26.6393 0.160021 0)
(25.6083 0.243215 0)
(23.9455 0.447971 0)
(21.6436 0.691861 0)
(17.9637 1.3092 0)
(12.2463 1.7748 0)
(5.92398 2.93169 0)
(29.9988 0.000289646 0)
(29.9853 0.000881211 0)
(29.9558 0.00152619 0)
(29.9109 0.00234345 0)
(29.8525 0.00342005 0)
(29.7776 0.00486297 0)
(29.6853 0.00676045 0)
(29.5696 0.00956527 0)
(29.4262 0.0133121 0)
(29.2461 0.0184535 0)
(29.0315 0.0260201 0)
(28.732 0.0352708 0)
(28.4562 0.0493759 0)
(27.9771 0.0767068 0)
(27.4155 0.107069 0)
(26.636 0.180907 0)
(25.616 0.274576 0)
(23.958 0.507262 0)
(21.7033 0.78367 0)
(18.0349 1.48158 0)
(12.3225 2.01228 0)
(5.96719 3.32895 0)
(29.9988 0.000323815 0)
(29.9853 0.000984869 0)
(29.9558 0.00170564 0)
(29.911 0.00261907 0)
(29.8525 0.0038221 0)
(29.7777 0.00543483 0)
(29.6854 0.00755561 0)
(29.5697 0.0106902 0)
(29.4264 0.0148774 0)
(29.2463 0.0206253 0)
(29.0314 0.0290769 0)
(28.7341 0.0394301 0)
(28.4482 0.055187 0)
(27.9808 0.0855986 0)
(27.4203 0.120297 0)
(26.6358 0.202141 0)
(25.6306 0.306551 0)
(23.9882 0.564602 0)
(21.7931 0.875238 0)
(18.1354 1.65354 0)
(12.4204 2.25083 0)
(6.0183 3.72923 0)
(29.9988 0.000357983 0)
(29.9853 0.0010885 0)
(29.9558 0.00188508 0)
(29.911 0.00289468 0)
(29.8525 0.00422409 0)
(29.7777 0.00600666 0)
(29.6854 0.00835071 0)
(29.5697 0.011815 0)
(29.4263 0.0164423 0)
(29.2464 0.0227975 0)
(29.0315 0.0321312 0)
(28.7341 0.0435977 0)
(28.4537 0.0610713 0)
(27.9818 0.0944023 0)
(27.4214 0.132822 0)
(26.6355 0.222358 0)
(25.6506 0.339416 0)
(24.0365 0.621039 0)
(21.8958 0.966643 0)
(18.258 1.82506 0)
(12.5406 2.49085 0)
(6.078 4.1332 0)
(29.9988 0.00039215 0)
(29.9853 0.0011921 0)
(29.9558 0.00206452 0)
(29.911 0.00317028 0)
(29.8525 0.00462601 0)
(29.7777 0.0065784 0)
(29.6855 0.00914576 0)
(29.5698 0.0129396 0)
(29.4265 0.018007 0)
(29.2466 0.0249693 0)
(29.0312 0.0351811 0)
(28.737 0.0477767 0)
(28.443 0.0668727 0)
(27.9833 0.103532 0)
(27.421 0.146425 0)
(26.6376 0.242817 0)
(25.6698 0.371828 0)
(24.0878 0.675579 0)
(21.9909 1.05704 0)
(18.3902 1.9956 0)
(12.6811 2.73249 0)
(6.14683 4.5415 0)
(29.9988 0.000426314 0)
(29.9853 0.00129568 0)
(29.9558 0.00224395 0)
(29.911 0.00344587 0)
(29.8525 0.00502788 0)
(29.7777 0.0071501 0)
(29.6855 0.00994073 0)
(29.5698 0.0140642 0)
(29.4265 0.0195711 0)
(29.2467 0.0271441 0)
(29.0311 0.0382128 0)
(28.7386 0.0520623 0)
(28.4413 0.0726508 0)
(27.977 0.112841 0)
(27.4178 0.160181 0)
(26.6407 0.262686 0)
(25.6844 0.403535 0)
(24.13 0.728055 0)
(22.0692 1.146 0)
(18.5205 2.16448 0)
(12.8382 2.97561 0)
(6.22509 4.95475 0)
(29.9988 0.000460474 0)
(29.9853 0.00139923 0)
(29.9558 0.00242339 0)
(29.911 0.00372144 0)
(29.8526 0.0054297 0)
(29.7778 0.00772172 0)
(29.6856 0.0107356 0)
(29.5699 0.0151886 0)
(29.4266 0.0211351 0)
(29.2469 0.0293222 0)
(29.0306 0.0412506 0)
(28.7426 0.0563908 0)
(28.4273 0.0788562 0)
(27.9687 0.122186 0)
(27.4155 0.173409 0)
(26.6436 0.281884 0)
(25.6942 0.434641 0)
(24.1609 0.778947 0)
(22.1312 1.23352 0)
(18.6422 2.33123 0)
(13.0073 3.21988 0)
(6.31278 5.3735 0)
(29.9988 0.000494632 0)
(29.9853 0.00150274 0)
(29.9558 0.00260282 0)
(29.911 0.003997 0)
(29.8526 0.00583146 0)
(29.7778 0.00829329 0)
(29.6855 0.0115305 0)
(29.5699 0.0163129 0)
(29.4266 0.0226986 0)
(29.2471 0.0315029 0)
(29.0299 0.0442877 0)
(28.7468 0.0606524 0)
(28.4182 0.0851102 0)
(27.9628 0.131133 0)
(27.4143 0.18642 0)
(26.646 0.300848 0)
(25.7003 0.465441 0)
(24.1827 0.828774 0)
(22.1806 1.31971 0)
(18.7525 2.49555 0)
(13.1844 3.46488 0)
(6.40967 5.79816 0)
(29.9988 0.000528785 0)
(29.9853 0.00160624 0)
(29.9558 0.00278226 0)
(29.911 0.00427255 0)
(29.8526 0.00623317 0)
(29.7778 0.0088648 0)
(29.6856 0.0123252 0)
(29.57 0.0174372 0)
(29.4268 0.0242602 0)
(29.2475 0.0336912 0)
(29.0294 0.0473189 0)
(28.7512 0.0650573 0)
(28.41 0.0913645 0)
(27.9596 0.13986 0)
(27.4138 0.199316 0)
(26.6479 0.319758 0)
(25.7039 0.496084 0)
(24.198 0.877892 0)
(22.221 1.40468 0)
(18.8514 2.65727 0)
(13.3659 3.71017 0)
(6.51529 6.22909 0)
(29.9988 0.000562933 0)
(29.9853 0.0017097 0)
(29.9558 0.00296171 0)
(29.911 0.00454809 0)
(29.8526 0.00663483 0)
(29.7778 0.00943627 0)
(29.6856 0.0131198 0)
(29.57 0.0185612 0)
(29.4268 0.0258217 0)
(29.2476 0.0358777 0)
(29.0295 0.0504078 0)
(28.7537 0.0695398 0)
(28.4049 0.0975644 0)
(27.9579 0.148501 0)
(27.4135 0.2122 0)
(26.6493 0.338655 0)
(25.7059 0.526624 0)
(24.2091 0.926492 0)
(22.2552 1.48851 0)
(18.94 2.81626 0)
(13.5495 3.95533 0)
(6.62913 6.66657 0)
(29.9988 0.000597076 0)
(29.9853 0.00181313 0)
(29.9558 0.00314117 0)
(29.911 0.00482362 0)
(29.8526 0.00703644 0)
(29.7779 0.0100076 0)
(29.6857 0.0139144 0)
(29.5701 0.0196847 0)
(29.427 0.0273834 0)
(29.2477 0.0380582 0)
(29.0302 0.0535212 0)
(28.7532 0.0740796 0)
(28.4015 0.103701 0)
(27.957 0.157122 0)
(27.4134 0.225089 0)
(26.6504 0.357555 0)
(25.7068 0.557089 0)
(24.2173 0.974682 0)
(22.2855 1.57128 0)
(19.0199 2.97244 0)
(13.7336 4.19999 0)
(6.75062 7.11079 0)
(29.9988 0.000631214 0)
(29.9853 0.00191654 0)
(29.9558 0.00332064 0)
(29.911 0.00509913 0)
(29.8526 0.007438 0)
(29.7779 0.010579 0)
(29.6856 0.014709 0)
(29.5701 0.0208078 0)
(29.4271 0.0289452 0)
(29.2476 0.0402452 0)
(29.031 0.0566315 0)
(28.751 0.0784781 0)
(28.3994 0.109848 0)
(27.9566 0.165731 0)
(27.4133 0.237981 0)
(26.6514 0.376457 0)
(25.7072 0.587493 0)
(24.2237 1.02252 0)
(22.3134 1.65305 0)
(19.093 3.12577 0)
(13.9175 4.44382 0)
(6.87923 7.56195 0)
(29.9988 0.000665347 0)
(29.9853 0.00201991 0)
(29.9558 0.00350011 0)
(29.911 0.00537462 0)
(29.8526 0.00783952 0)
(29.778 0.0111502 0)
(29.6858 0.0155035 0)
(29.5703 0.0219305 0)
(29.4273 0.0305086 0)
(29.2478 0.0424395 0)
(29.0315 0.0598005 0)
(28.7487 0.0827754 0)
(28.3981 0.115981 0)
(27.9564 0.17435 0)
(27.4134 0.250874 0)
(26.6523 0.395365 0)
(25.7072 0.617852 0)
(24.2293 1.07005 0)
(22.3402 1.73386 0)
(19.1607 3.27624 0)
(14.1011 4.68653 0)
(7.0145 8.02021 0)
(29.9988 0.000699473 0)
(29.9853 0.00212326 0)
(29.9558 0.0036796 0)
(29.911 0.0056501 0)
(29.8526 0.00824099 0)
(29.778 0.0117214 0)
(29.6857 0.016298 0)
(29.5702 0.0230527 0)
(29.4272 0.0320714 0)
(29.2481 0.0446483 0)
(29.0305 0.0629958 0)
(28.7468 0.0870589 0)
(28.3974 0.122124 0)
(27.9564 0.182967 0)
(27.4135 0.263763 0)
(26.6532 0.41428 0)
(25.7073 0.648174 0)
(24.2346 1.11726 0)
(22.3667 1.81374 0)
(19.2247 3.42383 0)
(14.2845 4.92789 0)
(7.15607 8.48572 0)
(29.9988 0.000733593 0)
(29.9853 0.00222657 0)
(29.9558 0.0038591 0)
(29.9111 0.00592555 0)
(29.8527 0.0086424 0)
(29.778 0.0122925 0)
(29.6859 0.0170923 0)
(29.5704 0.0241757 0)
(29.4273 0.0336295 0)
(29.249 0.0469151 0)
(29.0284 0.0661874 0)
(28.7455 0.0913492 0)
(28.3969 0.128264 0)
(27.9565 0.191589 0)
(27.4137 0.276648 0)
(26.6542 0.433203 0)
(25.7076 0.678469 0)
(24.2402 1.16413 0)
(22.3935 1.89272 0)
(19.2863 3.56855 0)
(14.4686 5.16768 0)
(7.30365 8.95862 0)
(29.9988 0.000767707 0)
(29.9853 0.00232986 0)
(29.9558 0.00403861 0)
(29.9111 0.006201 0)
(29.8527 0.00904375 0)
(29.778 0.0128635 0)
(29.6858 0.0178863 0)
(29.5704 0.0252988 0)
(29.4272 0.035184 0)
(29.2497 0.0492278 0)
(29.026 0.0693652 0)
(28.7445 0.0956615 0)
(28.3966 0.134408 0)
(27.9567 0.200206 0)
(27.414 0.289526 0)
(26.6554 0.452133 0)
(25.7086 0.70874 0)
(24.2463 1.21063 0)
(22.4211 1.97082 0)
(19.3464 3.7104 0)
(14.654 5.40575 0)
(7.45709 9.43909 0)
(29.9988 0.000801814 0)
(29.9853 0.00243312 0)
(29.9558 0.00421812 0)
(29.9111 0.00647641 0)
(29.8527 0.00944504 0)
(29.7781 0.0134345 0)
(29.6859 0.0186803 0)
(29.5706 0.0264225 0)
(29.4273 0.0367337 0)
(29.2503 0.0515733 0)
(29.0242 0.0724437 0)
(28.7439 0.0999864 0)
(28.3965 0.140548 0)
(27.957 0.208822 0)
(27.4145 0.3024 0)
(26.6569 0.471064 0)
(25.7103 0.738974 0)
(24.2531 1.25673 0)
(22.4495 2.04807 0)
(19.4061 3.84936 0)
(14.8418 5.64195 0)
(7.61631 9.92731 0)
(29.9988 0.000835915 0)
(29.9853 0.00253635 0)
(29.9558 0.00439765 0)
(29.9111 0.00675182 0)
(29.8527 0.00984628 0)
(29.7781 0.0140054 0)
(29.6858 0.0194738 0)
(29.5706 0.0275464 0)
(29.4273 0.038279 0)
(29.2505 0.0539023 0)
(29.023 0.0754533 0)
(28.7435 0.104318 0)
(28.3965 0.146688 0)
(27.9573 0.217434 0)
(27.4151 0.315265 0)
(26.6587 0.489988 0)
(25.713 0.769147 0)
(24.2609 1.30241 0)
(22.4788 2.12449 0)
(19.466 3.98541 0)
(15.0334 5.87615 0)
(7.78135 10.4235 0)
(29.9988 0.000870008 0)
(29.9853 0.00263954 0)
(29.9559 0.00457719 0)
(29.9111 0.00702719 0)
(29.8527 0.0102475 0)
(29.7782 0.0145762 0)
(29.686 0.0202676 0)
(29.5708 0.0286689 0)
(29.4277 0.0398394 0)
(29.2503 0.0562117 0)
(29.0222 0.0784358 0)
(28.7432 0.108653 0)
(28.3965 0.152822 0)
(27.9578 0.226043 0)
(27.4159 0.32812 0)
(26.6609 0.508893 0)
(25.7168 0.799233 0)
(24.2697 1.3477 0)
(22.5091 2.20008 0)
(19.5268 4.11848 0)
(15.2298 6.10824 0)
(7.95231 10.9278 0)
(29.9988 0.000904094 0)
(29.9853 0.00274271 0)
(29.9559 0.00475674 0)
(29.9111 0.00730255 0)
(29.8527 0.0106486 0)
(29.7782 0.0151469 0)
(29.686 0.0210614 0)
(29.5707 0.0297921 0)
(29.4279 0.0414088 0)
(29.2495 0.0586193 0)
(29.0217 0.0814282 0)
(28.7431 0.112987 0)
(28.3966 0.158954 0)
(27.9583 0.234645 0)
(27.4169 0.340958 0)
(26.6636 0.527762 0)
(25.7216 0.829216 0)
(24.2795 1.3926 0)
(22.5402 2.27484 0)
(19.5888 4.2485 0)
(15.4324 6.33814 0)
(8.1294 11.4406 0)
(29.9988 0.000938174 0)
(29.9853 0.00284585 0)
(29.9559 0.00493629 0)
(29.9111 0.00757788 0)
(29.8528 0.0110497 0)
(29.7782 0.0157175 0)
(29.6862 0.0218549 0)
(29.5708 0.0309144 0)
(29.4284 0.0429889 0)
(29.2484 0.0609932 0)
(29.0214 0.0844473 0)
(28.743 0.117322 0)
(28.3968 0.16508 0)
(27.9589 0.243242 0)
(27.4182 0.353774 0)
(26.6667 0.546581 0)
(25.7275 0.859091 0)
(24.2905 1.43711 0)
(22.5721 2.34878 0)
(19.6523 4.37534 0)
(15.6424 6.56574 0)
(8.31287 11.9621 0)
(29.9988 0.000972246 0)
(29.9853 0.00294896 0)
(29.9559 0.00511586 0)
(29.9111 0.00785317 0)
(29.8527 0.0114508 0)
(29.7782 0.0162879 0)
(29.6861 0.0226492 0)
(29.5706 0.0320318 0)
(29.4288 0.0446251 0)
(29.2472 0.0632264 0)
(29.0212 0.0874942 0)
(28.743 0.121655 0)
(28.3971 0.171201 0)
(27.9596 0.251829 0)
(27.4196 0.366563 0)
(26.6703 0.565341 0)
(25.7343 0.888857 0)
(24.3026 1.48126 0)
(22.6048 2.42188 0)
(19.7174 4.49888 0)
(15.8607 6.79097 0)
(8.50305 12.4927 0)
(29.9988 0.00100631 0)
(29.9853 0.00305203 0)
(29.9559 0.00529543 0)
(29.9111 0.00812843 0)
(29.8528 0.0118518 0)
(29.7783 0.016858 0)
(29.6863 0.0234436 0)
(29.5708 0.0331481 0)
(29.4293 0.0462867 0)
(29.2461 0.0654354 0)
(29.0211 0.0905607 0)
(28.7431 0.125986 0)
(28.3973 0.177317 0)
(27.9604 0.260406 0)
(27.4212 0.37932 0)
(26.6743 0.584033 0)
(25.7419 0.918508 0)
(24.316 1.52503 0)
(22.6382 2.49414 0)
(19.784 4.61896 0)
(16.0881 7.01373 0)
(8.70027 13.0326 0)
(29.9988 0.00104037 0)
(29.9854 0.00315508 0)
(29.9559 0.00547501 0)
(29.9111 0.00840367 0)
(29.8528 0.0122527 0)
(29.7783 0.0174281 0)
(29.6862 0.0242379 0)
(29.5707 0.0342638 0)
(29.4295 0.0479596 0)
(29.2454 0.0676354 0)
(29.0211 0.0936381 0)
(28.7432 0.130315 0)
(28.3977 0.183429 0)
(27.9612 0.26897 0)
(27.4231 0.392041 0)
(26.6786 0.602651 0)
(25.7505 0.948037 0)
(24.3307 1.56844 0)
(22.6724 2.56555 0)
(19.8519 4.73541 0)
(16.3251 7.23391 0)
(8.90488 13.5824 0)
(29.9988 0.00107442 0)
(29.9854 0.00325809 0)
(29.9559 0.00565459 0)
(29.9112 0.00867886 0)
(29.8529 0.0126537 0)
(29.7784 0.0179979 0)
(29.6865 0.0250323 0)
(29.5709 0.0353784 0)
(29.4298 0.0496439 0)
(29.245 0.0698144 0)
(29.0212 0.0967211 0)
(28.7433 0.134642 0)
(28.3981 0.189534 0)
(27.9621 0.277519 0)
(27.4251 0.404724 0)
(26.6834 0.62119 0)
(25.7598 0.977431 0)
(24.3467 1.61148 0)
(22.7075 2.63612 0)
(19.9211 4.84806 0)
(16.5719 7.45141 0)
(9.11723 14.1422 0)
(29.9988 0.00110846 0)
(29.9854 0.00336108 0)
(29.9559 0.00583418 0)
(29.9112 0.00895403 0)
(29.8528 0.0130545 0)
(29.7784 0.0185677 0)
(29.6863 0.0258265 0)
(29.5709 0.0364927 0)
(29.4298 0.0513349 0)
(29.2449 0.0719793 0)
(29.0213 0.0998073 0)
(28.7435 0.138968 0)
(28.3985 0.195632 0)
(27.9631 0.286053 0)
(27.4273 0.417367 0)
(26.6884 0.639644 0)
(25.7698 1.00668 0)
(24.3642 1.65415 0)
(22.7435 2.70586 0)
(19.9913 4.95674 0)
(16.8284 7.66609 0)
(9.33764 14.7127 0)
(29.9988 0.0011425 0)
(29.9854 0.00346403 0)
(29.9559 0.00601377 0)
(29.9112 0.00922915 0)
(29.8529 0.0134553 0)
(29.7785 0.0191374 0)
(29.6866 0.0266201 0)
(29.5712 0.0376073 0)
(29.4298 0.0530308 0)
(29.2449 0.074132 0)
(29.0215 0.102896 0)
(28.7437 0.143292 0)
(28.3989 0.201725 0)
(27.9642 0.29457 0)
(27.4296 0.429967 0)
(26.6937 0.658006 0)
(25.7806 1.03577 0)
(24.383 1.69645 0)
(22.7805 2.77476 0)
(20.0626 5.06129 0)
(17.0943 7.87784 0)
(9.56641 15.294 0)
(29.9988 0.00117653 0)
(29.9854 0.00356696 0)
(29.9559 0.00619336 0)
(29.9112 0.00950427 0)
(29.8529 0.013856 0)
(29.7785 0.0197072 0)
(29.6864 0.0274132 0)
(29.5713 0.0387173 0)
(29.4295 0.054729 0)
(29.2451 0.0762764 0)
(29.0217 0.105986 0)
(28.7439 0.147613 0)
(28.3994 0.207809 0)
(27.9653 0.30307 0)
(27.4321 0.442523 0)
(26.6993 0.676271 0)
(25.7921 1.06468 0)
(24.4032 1.73837 0)
(22.8186 2.84283 0)
(20.1351 5.16156 0)
(17.3694 8.08649 0)
(9.80378 15.8867 0)
(29.9988 0.00121056 0)
(29.9854 0.00366986 0)
(29.9559 0.00637295 0)
(29.9112 0.0097793 0)
(29.8529 0.0142567 0)
(29.7786 0.020276 0)
(29.6866 0.0282099 0)
(29.5717 0.0398228 0)
(29.4292 0.0563417 0)
(29.2453 0.0784135 0)
(29.0219 0.109077 0)
(28.7441 0.151933 0)
(28.3999 0.213887 0)
(27.9665 0.31155 0)
(27.4347 0.455033 0)
(26.7052 0.694431 0)
(25.8042 1.0934 0)
(24.4249 1.77991 0)
(22.8582 2.91008 0)
(20.2088 5.25741 0)
(17.6535 8.29192 0)
(10.05 16.4912 0)
(29.9988 0.00124458 0)
(29.9854 0.00377274 0)
(29.9559 0.00655252 0)
(29.9112 0.0100544 0)
(29.8529 0.014657 0)
(29.7786 0.0208468 0)
(29.6864 0.0289955 0)
(29.5719 0.0409939 0)
(29.4281 0.0576985 0)
(29.2456 0.0805535 0)
(29.0222 0.11217 0)
(28.7444 0.156251 0)
(28.4004 0.219957 0)
(27.9677 0.320012 0)
(27.4374 0.467495 0)
(26.7112 0.712481 0)
(25.8171 1.12191 0)
(24.4479 1.82106 0)
(22.8992 2.9765 0)
(20.2841 5.34871 0)
(17.9466 8.49397 0)
(10.3053 17.1078 0)
(29.9988 0.00127859 0)
(29.9854 0.00387558 0)
(29.9559 0.00673209 0)
(29.9112 0.0103294 0)
(29.853 0.0150575 0)
(29.7787 0.0214157 0)
(29.6866 0.0297914 0)
(29.5727 0.0421168 0)
(29.4261 0.0596622 0)
(29.2459 0.0827235 0)
(29.0224 0.115263 0)
(28.7447 0.160567 0)
(28.401 0.22602 0)
(27.969 0.328454 0)
(27.4402 0.479908 0)
(26.7175 0.730415 0)
(25.8305 1.1502 0)
(24.4724 1.86181 0)
(22.942 3.0421 0)
(20.3611 5.43532 0)
(18.249 8.69248 0)
(10.5698 17.737 0)
(29.9988 0.0013126 0)
(29.9854 0.00397839 0)
(29.9559 0.00691167 0)
(29.9112 0.0106043 0)
(29.8529 0.015458 0)
(29.7787 0.0219849 0)
(29.6864 0.0305784 0)
(29.5729 0.0433043 0)
(29.4247 0.0614864 0)
(29.2462 0.0849189 0)
(29.0227 0.118357 0)
(28.745 0.164881 0)
(28.4015 0.232075 0)
(27.9702 0.336876 0)
(27.4431 0.492269 0)
(26.724 0.748226 0)
(25.8445 1.17826 0)
(24.4981 1.90213 0)
(22.9869 3.10686 0)
(20.4397 5.5171 0)
(18.561 8.88729 0)
(10.8439 18.3791 0)
(29.9988 0.0013466 0)
(29.9854 0.00408118 0)
(29.9559 0.00709118 0)
(29.9113 0.0108794 0)
(29.853 0.0158571 0)
(29.7788 0.0225601 0)
(29.6866 0.0313421 0)
(29.5732 0.0445145 0)
(29.4241 0.063005 0)
(29.2464 0.0871204 0)
(29.023 0.121451 0)
(28.7453 0.169192 0)
(28.4021 0.238121 0)
(27.9716 0.345278 0)
(27.446 0.504577 0)
(26.7307 0.76591 0)
(25.859 1.20607 0)
(24.5251 1.942 0)
(23.0341 3.17078 0)
(20.5199 5.59392 0)
(18.8827 9.07826 0)
(11.1277 19.0347 0)
(29.9988 0.0013806 0)
(29.9854 0.00418394 0)
(29.9559 0.00727072 0)
(29.9113 0.0111541 0)
(29.853 0.0162579 0)
(29.7788 0.0231243 0)
(29.6867 0.0321771 0)
(29.5723 0.0453817 0)
(29.4237 0.064466 0)
(29.2466 0.0893193 0)
(29.0232 0.124545 0)
(28.7456 0.173502 0)
(28.4027 0.244161 0)
(27.9729 0.353656 0)
(27.4491 0.516829 0)
(26.7376 0.78346 0)
(25.874 1.23362 0)
(24.5532 1.9814 0)
(23.084 3.23387 0)
(20.6011 5.66565 0)
(19.2133 9.26524 0)
(11.4216 19.7041 0)
(29.9988 0.00141458 0)
(29.9854 0.00428672 0)
(29.956 0.00745027 0)
(29.9113 0.011429 0)
(29.8531 0.0166579 0)
(29.7786 0.0236951 0)
(29.688 0.0329809 0)
(29.5679 0.0467859 0)
(29.4234 0.065959 0)
(29.2468 0.0915153 0)
(29.0235 0.127638 0)
(28.7459 0.177809 0)
(28.4033 0.250192 0)
(27.9742 0.362014 0)
(27.4522 0.529026 0)
(26.7446 0.800875 0)
(25.8894 1.26089 0)
(24.5824 2.02029 0)
(23.137 3.29613 0)
(20.6826 5.7322 0)
(19.5499 9.44824 0)
(11.7255 20.3886 0)
(29.9988 0.0014484 0)
(29.9854 0.0043894 0)
(29.956 0.00762991 0)
(29.9113 0.0117037 0)
(29.8532 0.0170591 0)
(29.7784 0.0242609 0)
(29.6887 0.0338096 0)
(29.5647 0.0482263 0)
(29.4232 0.0674858 0)
(29.2469 0.0937121 0)
(29.0237 0.13073 0)
(28.7462 0.182113 0)
(28.4039 0.256215 0)
(27.9756 0.370346 0)
(27.4553 0.541163 0)
(26.7519 0.818148 0)
(25.9052 1.28788 0)
(24.6125 2.05862 0)
(23.1936 3.35758 0)
(20.7637 5.79355 0)
(19.8853 9.62696 0)
(12.0393 21.0956 0)
(29.9988 0.00148171 0)
(29.9854 0.0044907 0)
(29.956 0.00780803 0)
(29.9113 0.0119758 0)
(29.8533 0.0174584 0)
(29.7785 0.0248138 0)
(29.6892 0.0347002 0)
(29.5636 0.0493691 0)
(29.423 0.0690191 0)
(29.247 0.0959064 0)
(29.0239 0.133823 0)
(28.7465 0.186417 0)
(28.4044 0.262235 0)
(27.9769 0.378651 0)
(27.4585 0.553237 0)
(26.7592 0.835271 0)
(25.9213 1.31457 0)
(24.6434 2.09633 0)
(23.2542 3.41824 0)
(20.8444 5.84979 0)
(20.2083 9.79935 0)
(12.4491 21.8464 0)
(0.833793 -0.00462871 0)
(-0.479464 0.0220765 0)
(-1.18917 0.00802623 0)
(-1.26813 0.00014139 0)
(-1.19071 -0.00391082 0)
(-0.802036 -0.00410928 0)
(-0.667999 -0.00190423 0)
(-0.542188 -0.000326382 0)
(-0.623544 0.000301583 0)
(-0.591531 0.000552266 0)
(-0.732454 0.000796874 0)
(-0.774229 -0.000178468 0)
(-0.681427 -0.00177916 0)
(-0.358911 -0.00266141 0)
(0.00100621 -0.00269655 0)
(0.371484 -0.00314099 0)
(0.870969 -0.0046738 0)
(1.75251 -0.00672104 0)
(3.04874 -0.00789764 0)
(4.55369 -0.00784313 0)
(6.09688 -0.00717684 0)
(7.60014 -0.00642049 0)
(9.03312 -0.00570387 0)
(10.4252 -0.00513351 0)
(11.791 -0.00463416 0)
(13.1211 -0.00417798 0)
(14.4198 -0.00374985 0)
(15.6753 -0.0033519 0)
(16.8922 -0.00308207 0)
(18.1339 -0.00280755 0)
(19.3306 -0.00181394 0)
(19.8253 -0.00294562 0)
(22.3262 -0.00809374 0)
(28.8489 -0.00646081 0)
(29.9136 -0.000837921 0)
(0.84565 -0.0144226 0)
(-0.463924 0.0660697 0)
(-1.17237 0.0239342 0)
(-1.24681 0.000509587 0)
(-1.17206 -0.0117241 0)
(-0.785367 -0.0122403 0)
(-0.654664 -0.00573826 0)
(-0.526956 -0.000982961 0)
(-0.606838 0.000907812 0)
(-0.571534 0.00172889 0)
(-0.717396 0.00263013 0)
(-0.770496 -0.000277436 0)
(-0.703845 -0.00530015 0)
(-0.384739 -0.00841567 0)
(0.013262 -0.00851282 0)
(0.421389 -0.00924882 0)
(0.909202 -0.0132765 0)
(1.74242 -0.019367 0)
(3.00119 -0.0232487 0)
(4.50691 -0.0234457 0)
(6.08245 -0.0216293 0)
(7.61013 -0.0193067 0)
(9.04544 -0.0171152 0)
(10.4311 -0.01539 0)
(11.7868 -0.0138817 0)
(13.1098 -0.0125092 0)
(14.4054 -0.0112291 0)
(15.662 -0.0100421 0)
(16.8804 -0.00922873 0)
(18.1196 -0.00843406 0)
(19.3238 -0.00549586 0)
(19.8426 -0.00849344 0)
(22.1475 -0.0240943 0)
(28.7618 -0.0197555 0)
(29.9161 -0.00261224 0)
(0.860211 -0.0249629 0)
(-0.446798 0.109935 0)
(-1.15305 0.0396181 0)
(-1.21931 0.000888603 0)
(-1.14293 -0.0196044 0)
(-0.759253 -0.0202451 0)
(-0.631811 -0.00958691 0)
(-0.503168 -0.00167162 0)
(-0.58179 0.00140154 0)
(-0.545817 0.0029137 0)
(-0.700982 0.00443276 0)
(-0.769813 7.45163e-05 0)
(-0.726787 -0.00840722 0)
(-0.398664 -0.014217 0)
(0.0469516 -0.0147949 0)
(0.488074 -0.0155931 0)
(0.951126 -0.0215032 0)
(1.72909 -0.0312894 0)
(2.95565 -0.0381039 0)
(4.47189 -0.0390964 0)
(6.08461 -0.0363001 0)
(7.63834 -0.0322888 0)
(9.07546 -0.0284499 0)
(10.4537 -0.0255081 0)
(11.7994 -0.0230167 0)
(13.1145 -0.0207863 0)
(14.4055 -0.018698 0)
(15.6616 -0.0167401 0)
(16.8807 -0.0153825 0)
(18.1167 -0.01405 0)
(19.3265 -0.00922854 0)
(19.8696 -0.0137858 0)
(21.9956 -0.0398794 0)
(28.6795 -0.0332273 0)
(29.9181 -0.004537 0)
(0.877782 -0.0362854 0)
(-0.428405 0.153756 0)
(-1.131 0.0550598 0)
(-1.18491 0.00101602 0)
(-1.10375 -0.0274835 0)
(-0.724005 -0.0281388 0)
(-0.60097 -0.0133765 0)
(-0.472655 -0.00237284 0)
(-0.550201 0.00190097 0)
(-0.51489 0.00422965 0)
(-0.679842 0.00658992 0)
(-0.765233 0.000791681 0)
(-0.744153 -0.0114866 0)
(-0.402784 -0.0206716 0)
(0.0937713 -0.0218723 0)
(0.568986 -0.0221216 0)
(1.00373 -0.0293637 0)
(1.72112 -0.0429523 0)
(2.91478 -0.0531199 0)
(4.4469 -0.0551588 0)
(6.10222 -0.0513353 0)
(7.68501 -0.0454237 0)
(9.12516 -0.0397856 0)
(10.4957 -0.0355812 0)
(11.8306 -0.0321039 0)
(13.1363 -0.0290283 0)
(14.4209 -0.0261514 0)
(15.675 -0.0234381 0)
(16.894 -0.0215296 0)
(18.1261 -0.0196734 0)
(19.3393 -0.0130254 0)
(19.9065 -0.0187808 0)
(21.8698 -0.055424 0)
(28.6014 -0.0469864 0)
(29.9195 -0.0065943 0)
(0.898485 -0.0484868 0)
(-0.408918 0.197479 0)
(-1.10592 0.0701333 0)
(-1.1432 0.000760366 0)
(-1.05499 -0.035373 0)
(-0.679953 -0.0358699 0)
(-0.562919 -0.0170647 0)
(-0.435758 -0.00307884 0)
(-0.512291 0.00240452 0)
(-0.478648 0.00566574 0)
(-0.652717 0.00905554 0)
(-0.755237 0.00185877 0)
(-0.754933 -0.0144977 0)
(-0.396753 -0.0276853 0)
(0.154373 -0.0296509 0)
(0.6673 -0.0287514 0)
(1.07241 -0.0366814 0)
(1.72225 -0.0540858 0)
(2.87992 -0.0681095 0)
(4.43362 -0.07159 0)
(6.13851 -0.0667531 0)
(7.75464 -0.0587304 0)
(9.19907 -0.0511066 0)
(10.561 -0.0455772 0)
(11.8837 -0.0411137 0)
(13.1779 -0.037214 0)
(14.4538 -0.0335757 0)
(15.7039 -0.0301297 0)
(16.9219 -0.0276683 0)
(18.149 -0.0252913 0)
(19.3632 -0.0168769 0)
(19.9543 -0.0235304 0)
(21.7689 -0.0707387 0)
(28.527 -0.0609393 0)
(29.9204 -0.00877758 0)
(0.922333 -0.0616711 0)
(-0.388452 0.241113 0)
(-1.07744 0.0847025 0)
(-1.09356 1.32276e-05 0)
(-0.996733 -0.0433165 0)
(-0.62715 -0.0434128 0)
(-0.517948 -0.0206262 0)
(-0.392393 -0.00377978 0)
(-0.46789 0.00292147 0)
(-0.436627 0.00722164 0)
(-0.618483 0.0118075 0)
(-0.738177 0.00327148 0)
(-0.757757 -0.0174546 0)
(-0.380651 -0.0352607 0)
(0.227421 -0.0381308 0)
(0.783092 -0.035461 0)
(1.16142 -0.0433389 0)
(1.73844 -0.0645202 0)
(2.85568 -0.0829956 0)
(4.43659 -0.0884118 0)
(6.19942 -0.0825934 0)
(7.85497 -0.0722338 0)
(9.30501 -0.0624125 0)
(10.6561 -0.0554795 0)
(11.9637 -0.0500272 0)
(13.2435 -0.0453254 0)
(14.5076 -0.0409548 0)
(15.7512 -0.0368039 0)
(16.9669 -0.0337917 0)
(18.1875 -0.0308933 0)
(19.3997 -0.0207754 0)
(20.0144 -0.0280608 0)
(21.6917 -0.0858188 0)
(28.4559 -0.0750342 0)
(29.9206 -0.011079 0)
(0.94918 -0.075938 0)
(-0.367063 0.284659 0)
(-1.04514 0.0986213 0)
(-1.035 -0.00133098 0)
(-0.928605 -0.051337 0)
(-0.56525 -0.0507341 0)
(-0.465815 -0.024033 0)
(-0.342079 -0.00447065 0)
(-0.416388 0.00345665 0)
(-0.387907 0.00888814 0)
(-0.575882 0.0148268 0)
(-0.712296 0.00500922 0)
(-0.75133 -0.0203781 0)
(-0.354869 -0.0434142 0)
(0.311284 -0.0473496 0)
(0.915238 -0.042319 0)
(1.27381 -0.0493545 0)
(1.77729 -0.0741962 0)
(2.85012 -0.0977623 0)
(4.46369 -0.105685 0)
(6.29446 -0.0989218 0)
(7.99843 -0.0859767 0)
(9.45606 -0.0737054 0)
(10.7923 -0.0652627 0)
(12.0792 -0.0588145 0)
(13.3394 -0.053337 0)
(14.5872 -0.0482695 0)
(15.821 -0.043449 0)
(17.0328 -0.0398926 0)
(18.2446 -0.0364673 0)
(19.4512 -0.024712 0)
(20.0887 -0.0323904 0)
(21.6376 -0.100644 0)
(28.3878 -0.089232 0)
(29.9203 -0.0134923 0)
(0.978672 -0.0913805 0)
(-0.344745 0.328102 0)
(-1.00847 0.111719 0)
(-0.966253 -0.00338278 0)
(-0.849979 -0.0594357 0)
(-0.493683 -0.0577903 0)
(-0.405896 -0.0272559 0)
(-0.284041 -0.00515157 0)
(-0.356812 0.0040084 0)
(-0.331164 0.0106476 0)
(-0.523282 0.0180811 0)
(-0.675586 0.00706713 0)
(-0.73423 -0.023276 0)
(-0.319146 -0.0521662 0)
(0.405987 -0.0573724 0)
(1.0642 -0.0494373 0)
(1.41275 -0.054824 0)
(1.84744 -0.0831246 0)
(2.87454 -0.112413 0)
(4.5267 -0.123481 0)
(6.43773 -0.115826 0)
(8.20386 -0.100019 0)
(9.67343 -0.0849859 0)
(10.9879 -0.0748862 0)
(12.2437 -0.0674271 0)
(13.4753 -0.0612096 0)
(14.7 -0.0554921 0)
(15.9195 -0.050049 0)
(17.1248 -0.0459606 0)
(18.3249 -0.0419974 0)
(19.5207 -0.0286747 0)
(20.1798 -0.0365316 0)
(21.6067 -0.115192 0)
(28.3227 -0.103494 0)
(29.9194 -0.0160118 0)
(1.01022 -0.10808 0)
(-0.321432 0.371402 0)
(-0.966749 0.123796 0)
(-0.885959 -0.00625618 0)
(-0.760272 -0.0675971 0)
(-0.411883 -0.0645368 0)
(-0.337365 -0.0302682 0)
(-0.217324 -0.00582729 0)
(-0.287919 0.00456834 0)
(-0.264734 0.0124747 0)
(-0.458563 0.0215402 0)
(-0.625614 0.0094389 0)
(-0.704471 -0.0261384 0)
(-0.271871 -0.0615286 0)
(0.513968 -0.0682753 0)
(1.23357 -0.0569463 0)
(1.58348 -0.0598815 0)
(1.95868 -0.0913766 0)
(2.94324 -0.126982 0)
(4.64208 -0.141888 0)
(6.64895 -0.133434 0)
(8.49755 -0.114461 0)
(9.98941 -0.0962582 0)
(11.2735 -0.0842836 0)
(12.4799 -0.0757835 0)
(13.6664 -0.0688783 0)
(14.8565 -0.0625807 0)
(16.0549 -0.0565812 0)
(17.2505 -0.0519812 0)
(18.4349 -0.0474613 0)
(19.6127 -0.0326463 0)
(20.291 -0.0404909 0)
(21.6004 -0.129436 0)
(28.2608 -0.117779 0)
(29.918 -0.0186317 0)
(1.04295 -0.126105 0)
(-0.296995 0.414491 0)
(-0.919185 0.134627 0)
(-0.792958 -0.0100629 0)
(-0.659182 -0.0757911 0)
(-0.319524 -0.0709364 0)
(-0.259367 -0.0330508 0)
(-0.140898 -0.00650923 0)
(-0.208298 0.00511821 0)
(-0.186686 0.0143325 0)
(-0.37911 0.0251539 0)
(-0.559387 0.0121266 0)
(-0.659158 -0.0289455 0)
(-0.209741 -0.071508 0)
(0.640138 -0.0801473 0)
(1.43044 -0.0649996 0)
(1.79488 -0.064688 0)
(2.12336 -0.099073 0)
(3.07391 -0.141553 0)
(4.83188 -0.161041 0)
(6.95343 -0.151939 0)
(8.91105 -0.129474 0)
(10.4465 -0.107555 0)
(11.6954 -0.0933528 0)
(12.8238 -0.0837482 0)
(13.9362 -0.0762343 0)
(15.0721 -0.0694676 0)
(16.2388 -0.0630124 0)
(17.4202 -0.0579342 0)
(18.5835 -0.0528286 0)
(19.7334 -0.0366014 0)
(20.4266 -0.0442691 0)
(21.622 -0.143345 0)
(28.2025 -0.132042 0)
(29.916 -0.0213458 0)
(1.07572 -0.145502 0)
(-0.271234 0.457256 0)
(-0.864816 0.143972 0)
(-0.686601 -0.0149029 0)