/*--------------------------------*- C++ -*----------------------------------*\
| =========                 |                                                 |
| \\      /  F ield         | OpenFOAM: The Open Source CFD Toolbox           |
|  \\    /   O peration     | Version:  v1912                                 |
|   \\  /    A nd           | Website:  www.openfoam.com                      |
|    \\/     M anipulation  |                                                 |
\*---------------------------------------------------------------------------*/
FoamFile
{
    version     2.0;
    format      ascii;
    class       volScalarField;
    location    "520";
    object      yPlus;
}
// * * * * * * * * * * * * * * * * * * * * * * * * * * * * * * * * * * * * * //

dimensions      [0 0 0 0 0 0 0];


internalField   uniform 0;

boundaryField
{
    inlet
    {
        type            calculated;
        value           uniform 0;
    }
    outlet
    {
        type            calculated;
        value           uniform 0;
    }
    lowerSymmetry
    {
        type            symmetryPlane;
    }
    obstical
    {
        type            calculated;
        value           nonuniform List<scalar> 
88
(
477.865
480.073
484.468
491.031
499.696
510.378
522.986
537.434
553.636
571.513
590.991
611.997
634.451
658.264
683.343
709.592
736.922
765.25
794.505
824.625
855.562
887.276
919.74
952.934
986.847
1021.48
1056.83
1092.91
1129.73
1167.32
1205.68
1244.86
1284.85
1325.69
1367.4
1410
1453.51
1497.95
1543.34
1589.71
1637.08
1685.52
1735.43
1790.75
84.3253
85.36
86.6376
88.1844
90.0112
92.1192
94.4957
97.111
99.9152
102.837
105.783
108.639
111.273
113.539
115.288
116.374
116.668
116.069
114.517
111.998
108.547
104.248
99.2319
93.6807
87.8321
81.9933
76.5577
72.0152
68.9268
67.8266
69.054
72.6277
78.2787
85.6108
94.2536
103.946
114.566
126.124
138.881
153.211
169.516
188.118
209.312
233.921
)
;
    }
    obsticalTop
    {
        type            calculated;
        value           nonuniform List<scalar> 
20
(
53.4122
38.8407
47.1772
53.2527
56.0877
57.7139
58.3091
57.9919
57.0324
55.5614
53.5526
50.8938
47.4876
43.1425
37.8279
30.9043
24.479
14.9318
13.4261
11.3299
)
;
    }
    top
    {
        type            calculated;
        value           uniform 0;
    }
    defaultFaces
    {
        type            empty;
    }
}


// ************************************************************************* //
