/*--------------------------------*- C++ -*----------------------------------*\
| =========                 |                                                 |
| \\      /  F ield         | OpenFOAM: The Open Source CFD Toolbox           |
|  \\    /   O peration     | Version:  v1912                                 |
|   \\  /    A nd           | Website:  www.openfoam.com                      |
|    \\/     M anipulation  |                                                 |
\*---------------------------------------------------------------------------*/
FoamFile
{
    version     2.0;
    format      ascii;
    class       volScalarField;
    location    "3500";
    object      p;
}
// * * * * * * * * * * * * * * * * * * * * * * * * * * * * * * * * * * * * * //

dimensions      [0 2 -2 0 0 0 0];


internalField   nonuniform List<scalar> 
3102
(
29.1914
30.1876
32.5649
35.8177
39.834
44.641
50.2725
56.7931
64.3095
72.9661
82.969
94.5709
108.172
124.189
143.509
166.694
196.097
231.585
29.1912
30.1874
32.5646
35.8173
39.8336
44.6404
50.2715
56.7917
64.3074
72.963
82.9644
94.5638
108.161
124.171
143.479
166.642
196.003
231.418
29.1909
30.187
32.5641
35.8167
39.8327
44.6392
50.2698
56.7892
64.3038
72.9576
82.9561
94.551
108.14
124.138
143.424
166.548
195.834
231.105
29.1904
30.1864
32.5633
35.8158
39.8314
44.6374
50.2672
56.7855
64.2983
72.9493
82.9436
94.5316
108.11
124.089
143.341
166.406
195.58
230.632
29.1897
30.1856
32.5623
35.8145
39.8297
44.6349
50.2637
56.7804
64.2909
72.9383
82.9268
94.5057
108.069
124.023
143.23
166.216
195.24
230.002
29.1889
30.1846
32.5611
35.8129
39.8275
44.6319
50.2594
56.7741
64.2816
72.9244
82.9058
94.4733
108.017
123.94
143.092
165.979
194.818
229.219
29.1878
30.1835
32.5596
35.811
39.8249
44.6283
50.2542
56.7666
64.2705
72.9079
82.8806
94.4345
107.956
123.841
142.927
165.696
194.315
228.286
29.1867
30.1821
32.5579
35.8088
39.8219
44.624
50.2481
56.7578
64.2575
72.8885
82.8513
94.3893
107.885
123.726
142.735
165.368
193.731
227.209
29.1853
30.1805
32.5559
35.8063
39.8184
44.6191
50.2412
56.7478
64.2428
72.8665
82.8178
94.3377
107.803
123.595
142.516
164.994
193.068
225.992
29.1838
30.1787
32.5536
35.8034
39.8146
44.6137
50.2334
56.7364
64.2261
72.8417
82.7802
94.2797
107.712
123.447
142.271
164.577
192.329
224.64
29.1821
30.1767
32.5511
35.8002
39.8102
44.6076
50.2248
56.7239
64.2077
72.8141
82.7385
94.2153
107.61
123.284
142
164.117
191.516
223.159
29.1803
30.1745
32.5484
35.7967
39.8055
44.6009
50.2152
56.7101
64.1874
72.7839
82.6926
94.1447
107.499
123.106
141.703
163.614
190.63
221.556
29.1782
30.1721
32.5454
35.7929
39.8003
44.5937
50.2048
56.6951
64.1652
72.7509
82.6426
94.0678
107.378
122.912
141.382
163.071
189.675
219.839
29.1761
30.1696
32.5422
35.7888
39.7947
44.5858
50.1936
56.6788
64.1413
72.7152
82.5886
93.9846
107.247
122.702
141.036
162.488
188.654
218.014
29.1737
30.1668
32.5387
35.7844
39.7886
44.5773
50.1815
56.6612
64.1155
72.6768
82.5304
93.8953
107.107
122.478
140.665
161.866
187.568
216.091
29.1712
30.1639
32.5351
35.7798
39.7824
44.5685
50.1689
56.643
64.0887
72.6369
82.4701
93.8025
106.961
122.245
140.283
161.225
186.455
214.133
29.1687
30.1609
32.5313
35.775
39.7758
44.5593
50.1558
56.624
64.0608
72.5953
82.4072
93.706
106.81
122.004
139.886
160.564
185.311
212.14
29.1659
30.1576
32.5273
35.7698
39.7687
44.5493
50.1416
56.6035
64.0307
72.5505
82.3395
93.6021
106.647
121.745
139.462
159.859
184.096
210.041
29.1629
30.1541
32.5229
35.7642
39.7611
44.5387
50.1264
56.5814
63.9983
72.5023
82.2667
93.4905
106.473
121.468
139.008
159.109
182.808
207.839
29.1597
30.1504
32.5181
35.7582
39.7529
44.5272
50.11
56.5577
63.9635
72.4506
82.1886
93.3709
106.286
121.171
138.525
158.313
181.45
205.539
29.1563
30.1463
32.5131
35.7517
39.7441
44.5148
50.0924
56.5323
63.9262
72.3951
82.1049
93.243
106.086
120.855
138.012
157.47
180.021
203.143
29.1526
30.142
32.5077
35.7448
39.7347
44.5016
50.0736
56.5051
63.8863
72.3359
82.0156
93.1065
105.873
120.519
137.467
156.581
178.521
200.657
29.1487
30.1374
32.5019
35.7374
39.7247
44.4875
50.0535
56.476
63.8437
72.2726
81.9203
92.961
105.647
120.163
136.891
155.645
176.953
198.086
29.1445
30.1324
32.4957
35.7295
39.7139
44.4725
50.0321
56.445
63.7983
72.2052
81.8188
92.8063
105.407
119.785
136.283
154.661
175.317
195.434
29.14
30.1272
32.4891
35.7211
39.7025
44.4564
50.0092
56.412
63.7499
72.1334
81.7109
92.6419
105.152
119.385
135.643
153.631
173.615
192.706
29.1353
30.1216
32.482
35.7122
39.6903
44.4394
49.9849
56.3769
63.6985
72.0572
81.5964
92.4677
104.883
118.963
134.969
152.552
171.849
189.909
29.1302
30.1156
32.4746
35.7026
39.6774
44.4212
49.9591
56.3396
63.6438
71.9763
81.4749
92.2832
104.598
118.519
134.262
151.427
170.021
187.047
29.1248
30.1092
32.4666
35.6925
39.6636
44.4019
49.9316
56.2999
63.5859
71.8905
81.3463
92.0881
104.297
118.051
133.521
150.255
168.132
184.126
29.1191
30.1025
32.4582
35.6818
39.649
44.3815
49.9025
56.2579
63.5245
71.7997
81.2103
91.8821
103.98
117.56
132.746
149.037
166.186
181.152
29.113
30.0954
32.4493
35.6704
39.6335
44.3598
49.8717
56.2135
63.4595
71.7037
81.0667
91.6648
103.647
117.044
131.937
147.772
164.186
178.13
29.1065
30.0878
32.4398
35.6584
39.6171
44.3368
49.8391
56.1664
63.3908
71.6023
80.9151
91.4359
103.297
116.505
131.093
146.463
162.133
175.066
29.0997
30.0798
32.4298
35.6456
39.5998
44.3126
49.8046
56.1167
63.3183
71.4953
80.7554
91.1952
102.929
115.94
130.216
145.109
160.031
171.966
29.0925
30.0714
32.4192
35.6321
39.5814
44.2869
49.7681
56.0642
63.2417
71.3824
80.5872
90.9421
102.544
115.35
129.303
143.712
157.883
168.835
29.0849
30.0624
32.408
35.6178
39.5621
44.2598
49.7296
56.0088
63.161
71.2636
80.4103
90.6764
102.14
114.735
128.357
142.272
155.693
165.679
169.712
29.0768
30.053
32.3962
35.6028
39.5416
44.2312
49.689
55.9504
63.0759
71.1385
80.2244
90.3978
101.719
114.094
127.377
140.791
153.462
162.504
165.313
29.0683
30.043
32.3837
35.5869
39.5201
44.2011
49.6462
55.8889
62.9864
71.007
80.0292
90.106
101.278
113.427
126.362
139.27
151.196
159.315
160.979
29.0593
30.0325
32.3706
35.5701
39.4973
44.1693
49.6012
55.8241
62.8923
70.8689
79.8246
89.8005
100.818
112.734
125.314
137.71
148.896
156.119
156.715
29.0499
30.0214
32.3567
35.5525
39.4734
44.1358
49.5538
55.756
62.7934
70.7239
79.6101
89.4811
100.339
112.016
124.233
136.113
146.567
152.919
152.525
29.0399
30.0098
32.3421
35.5339
39.4482
44.1006
49.5039
55.6844
62.6895
70.5718
79.3855
89.1476
99.8403
111.27
123.12
134.481
144.212
149.723
148.414
29.0294
29.9975
32.3268
35.5143
39.4216
44.0636
49.4514
55.6092
62.5805
70.4125
79.1507
88.7995
99.3216
110.499
121.974
132.815
141.834
146.533
144.384
29.0183
29.9846
32.3106
35.4937
39.3937
44.0247
49.3964
55.5303
62.4662
70.2456
78.9052
88.4366
98.7827
109.701
120.798
131.117
139.437
143.357
140.439
29.0067
29.971
32.2937
35.4721
39.3644
43.9838
49.3385
55.4475
62.3464
70.071
78.6488
88.0587
98.2235
108.877
119.59
129.389
137.024
140.197
136.58
28.9944
29.9567
32.2758
35.4493
39.3336
43.9409
49.2779
55.3607
62.221
69.8884
78.3813
87.6654
97.6438
108.027
118.353
127.632
134.598
137.058
132.809
28.9815
29.9417
32.2571
35.4255
39.3013
43.8959
49.2143
55.2698
62.0898
69.6977
78.1023
87.2564
97.0434
107.151
117.086
125.849
132.164
133.945
129.127
28.968
29.926
32.2374
35.4004
39.2674
43.8486
49.1476
55.1746
61.9525
69.4985
77.8117
86.8317
96.4223
106.25
115.792
124.042
129.723
130.86
125.536
28.9538
29.9095
32.2168
35.3741
39.2318
43.7991
49.0777
55.0749
61.809
69.2907
77.5092
86.3908
95.7803
105.323
114.471
122.212
127.279
127.809
122.034
28.9389
29.8921
32.1952
35.3465
39.1945
43.7473
49.0046
54.9707
61.6592
69.074
77.1946
85.9337
95.1174
104.371
113.123
120.363
124.835
124.793
118.623
28.9232
29.874
32.1725
35.3175
39.1555
43.693
48.9281
54.8617
61.5028
68.8482
76.8675
85.4602
94.4336
103.395
111.751
118.496
122.395
121.815
115.302
28.9068
29.8549
32.1487
35.2872
39.1145
43.6361
48.8481
54.7479
61.3396
68.6131
76.5278
84.9699
93.729
102.395
110.355
116.613
119.96
118.879
112.07
28.8896
29.835
32.1238
35.2554
39.0717
43.5767
48.7645
54.6291
61.1694
68.3684
76.1753
84.4629
93.0036
101.371
108.937
114.716
117.534
115.987
108.927
28.8715
29.814
32.0977
35.2222
39.0269
43.5145
48.6771
54.505
60.9921
68.114
75.8097
83.939
92.2574
100.324
107.498
112.808
115.119
113.14
105.872
28.8526
29.7922
32.0704
35.1874
38.9799
43.4494
48.5858
54.3757
60.8075
67.8496
75.4308
83.3981
91.4908
99.254
106.039
110.891
112.718
110.341
102.903
28.8327
29.7692
32.0418
35.1509
38.9309
43.3815
48.4905
54.2408
60.6153
67.5751
75.0385
82.8401
90.7037
98.1627
104.561
108.967
110.334
107.59
100.02
28.8119
29.7453
32.012
35.1128
38.8796
43.3106
48.3911
54.1003
60.4154
67.2902
74.6326
82.2649
89.8965
97.0504
103.067
107.037
107.967
104.89
97.2201
28.7902
29.7202
31.9807
35.073
38.8261
43.2365
48.2874
53.9539
60.2076
66.9946
74.2129
81.6725
89.0695
95.9177
101.557
105.105
105.621
102.242
94.5022
28.7674
29.6939
31.9481
35.0314
38.7701
43.1592
48.1794
53.8015
59.9918
66.6883
73.7793
81.063
88.2228
94.7656
100.033
103.172
103.298
99.6456
91.8645
28.7436
29.6665
31.9139
34.9879
38.7117
43.0786
48.0668
53.643
59.7676
66.3711
73.3316
80.4363
87.3569
93.5949
98.4962
101.239
100.998
97.1021
89.305
28.7187
29.6379
31.8783
34.9424
38.6508
42.9946
47.9495
53.4782
59.5349
66.0427
72.8698
79.7926
86.4722
92.4064
96.9483
99.3101
98.7247
94.6118
86.8217
28.6926
29.608
31.8411
34.895
38.5872
42.907
47.8275
53.3069
59.2936
65.703
72.3937
79.1318
85.5691
91.2011
95.3907
97.3856
96.4783
92.1749
84.4127
28.6653
29.5767
31.8022
34.8455
38.5208
42.8157
47.7004
53.1289
59.0434
65.3518
71.9032
78.4542
84.648
89.9799
93.8249
95.4677
94.2606
89.7914
82.0759
28.6369
29.5441
31.7616
34.7938
38.4517
42.7206
47.5683
52.9441
58.7842
64.989
71.3984
77.7598
83.7094
88.7439
92.2524
93.5581
92.0728
87.4613
79.8091
28.6071
29.51
31.7193
34.7399
38.3796
42.6217
47.431
52.7523
58.5159
64.6144
70.8791
77.0489
82.7539
87.4939
90.6746
91.6583
89.916
85.1841
77.6102
28.576
29.4744
31.6752
34.6837
38.3045
42.5187
47.2882
52.5534
58.2382
64.2279
70.3454
76.3216
81.782
86.2312
89.0929
89.7701
87.7911
82.9596
75.4769
28.5435
29.4373
31.6292
34.6251
38.2263
42.4116
47.14
52.3472
57.951
63.8295
69.7972
75.5782
80.7944
84.9567
87.5089
87.8947
85.6989
80.7871
73.4072
28.5096
29.3987
31.5812
34.564
38.1449
42.3002
46.9861
52.1334
57.6541
63.4189
69.2346
74.8189
79.7917
83.6714
85.9239
86.0337
83.6401
78.6661
71.3988
28.4741
29.3583
31.5312
34.5004
38.0602
42.1844
46.8263
51.9121
57.3474
62.9961
68.6577
74.0442
78.7745
82.3766
84.3392
84.1882
81.6153
76.5957
69.4496
28.4372
29.3163
31.4791
34.4341
37.972
42.0641
46.6606
51.683
57.0308
62.5611
68.0664
73.2542
77.7435
81.0732
82.7563
82.3594
79.6249
74.5752
67.5575
28.3986
29.2724
31.4249
34.3652
37.8804
41.9392
46.4888
51.4459
56.7041
62.1137
67.461
72.4494
76.6995
79.7624
81.1764
80.5486
77.6693
72.6036
65.7202
28.3583
29.2268
31.3684
34.2933
37.785
41.8095
46.3107
51.2007
56.3672
61.654
66.8415
71.6301
75.6432
78.4452
79.6007
78.7566
75.7486
70.6799
63.9358
28.3163
29.1792
31.3096
34.2186
37.686
41.6748
46.1263
50.9473
56.0199
61.1819
66.2081
70.7968
74.5754
77.1227
78.0305
76.9844
73.863
68.8033
62.2022
28.2726
29.1297
31.2484
34.1409
37.583
41.5352
45.9353
50.6856
55.6623
60.6974
65.561
69.9499
73.4968
75.7961
76.4669
75.2329
72.0125
66.9725
60.5175
28.2269
29.0781
31.1847
34.06
37.4761
41.3904
45.7376
50.4153
55.2941
60.2005
64.9003
69.09
72.4082
74.4663
74.911
73.5028
70.1972
65.1865
58.8796
28.1793
29.0244
31.1185
33.976
37.3651
41.2402
45.533
50.1364
54.9153
59.6913
64.2263
68.2174
71.3105
73.1345
73.3639
71.7948
68.4167
63.4441
57.2867
28.1298
28.9685
31.0497
33.8887
37.2498
41.0847
45.3215
49.8487
54.5259
59.1698
63.5393
67.3327
70.2045
71.8017
71.8267
70.1094
66.671
61.7443
55.7369
28.0781
28.9103
30.9781
33.7979
37.1303
40.9236
45.1029
49.5521
54.1258
58.636
62.8394
66.4365
69.0911
70.4689
70.3001
68.4472
64.9598
60.0858
54.2285
28.0243
28.8499
30.9037
33.7036
37.0063
40.7568
44.8771
49.2466
53.7149
58.0901
62.127
65.5293
67.9709
69.1371
68.7852
66.8085
63.2826
58.4674
52.7598
27.9682
28.787
30.8263
33.6057
36.8777
40.5841
44.6439
48.9319
53.2932
57.5321
61.4025
64.6117
66.845
67.8072
67.2827
65.1938
61.6392
56.8881
51.3291
27.9099
28.7215
30.746
33.5041
36.7444
40.4055
44.4032
48.6081
52.8608
56.9623
60.6661
63.6844
65.7141
66.4803
65.7934
63.6033
60.029
55.3466
49.9348
27.8491
28.6535
30.6626
33.3987
36.6063
40.2208
44.1549
48.275
52.4175
56.3807
59.9182
62.7479
64.5791
65.1571
64.3181
62.0372
58.4517
53.8418
48.5754
27.7859
28.5829
30.576
33.2892
36.4632
40.0299
43.8988
47.9326
51.9635
55.7875
59.1593
61.8028
63.4408
63.8387
62.8574
60.4957
56.9066
52.3724
47.2493
27.7201
28.5094
30.4861
33.1758
36.3151
39.8327
43.6349
47.5807
51.4987
55.1829
58.3897
60.8499
62.3
62.5258
61.4119
58.9789
55.3932
50.9375
45.9553
27.6516
28.4331
30.3928
33.0581
36.1618
39.629
43.3631
47.2194
51.0232
54.5671
57.6098
59.8898
61.1576
61.2192
59.9821
57.4869
53.9109
49.5359
44.6919
27.5804
28.3539
30.2961
32.9362
36.0032
39.4186
43.0832
46.8486
50.537
53.9404
56.8201
58.9231
60.0144
59.9198
58.5685
56.0195
52.4592
48.1665
43.458
27.5064
28.2716
30.1957
32.8098
35.8391
39.2016
42.7952
46.4683
50.0403
53.3029
56.0211
57.9505
58.8711
58.6282
57.1717
54.5768
51.0373
46.8282
42.2522
27.4294
28.1862
30.0916
32.679
35.6695
38.9778
42.499
46.0784
49.5332
52.6551
55.2132
56.9727
57.7286
57.3452
55.7919
53.1586
49.6448
45.5201
41.0734
27.3493
28.0975
29.9838
32.5434
35.4942
38.747
42.1944
45.6789
49.0157
51.9971
54.397
55.9904
56.5875
56.0714
54.4295
51.7649
48.2809
44.2411
39.9205
27.2662
28.0055
29.872
32.4032
35.3131
38.5092
41.8815
45.2699
48.488
51.3293
53.5729
55.0043
55.4487
54.8075
53.0848
50.3954
46.9449
42.9902
38.7925
27.1798
27.91
29.7561
32.258
35.126
38.2642
41.5602
44.8514
47.9503
50.652
52.7415
54.0149
54.3129
53.5539
51.7581
49.0499
45.6363
41.7666
37.6884
27.09
27.811
29.6361
32.1078
34.933
38.012
41.2303
44.4233
47.4026
49.9655
51.9032
53.0231
53.1807
52.3113
50.4496
47.7283
44.3545
40.5693
36.6073
26.9968
27.7083
29.5119
31.9525
34.7337
37.7524
40.8919
43.9858
46.8453
49.2702
51.0588
52.0295
52.0529
51.0802
49.1594
46.4302
43.0987
39.3974
35.5482
26.9
27.6019
29.3833
31.792
34.5282
37.4854
40.545
43.5389
46.2785
48.5666
50.2086
51.0347
50.93
49.861
47.8876
45.1554
41.8683
38.2503
34.5105
26.7995
27.4915
29.2502
31.626
34.3162
37.2109
40.1894
43.0827
45.7023
47.8549
49.3533
50.0394
49.8128
48.6542
46.6344
43.9037
40.6628
37.127
33.4933
26.6952
27.3772
29.1125
31.4546
34.0978
36.9288
39.8253
42.6173
45.1172
47.1356
48.4934
49.0443
48.7017
47.4601
45.3999
42.6746
39.4815
36.0268
32.4959
26.5869
27.2587
28.9701
31.2776
33.8727
36.639
39.4525
42.1427
44.5232
46.4091
47.6295
48.0499
47.5975
46.2791
44.184
41.4679
38.3238
34.949
31.5177
26.4747
27.136
28.8228
31.0949
33.641
36.3415
39.0711
41.6592
43.9208
45.6758
46.7621
47.057
46.5006
45.1116
42.9868
40.2832
37.1893
33.893
30.558
26.3582
27.0089
28.6705
30.9063
33.4024
36.0362
38.6812
41.1668
43.3101
44.9362
45.8919
46.066
45.4115
43.9579
41.8083
39.1204
36.0772
32.8581
29.6163
26.2375
26.8773
28.5132
30.7118
33.1569
35.723
38.2827
40.6657
42.6915
44.1908
45.0194
45.0777
44.3308
42.8182
40.6485
37.9789
34.9872
31.8437
28.6921
26.1123
26.7412
28.3506
30.5112
32.9044
35.402
37.8757
40.156
42.0652
43.44
44.1451
44.0926
43.2589
41.6928
39.5072
36.8585
33.9186
30.8493
27.7849
25.9826
26.6002
28.1828
30.3044
32.6449
35.0731
37.4603
39.638
41.4317
42.6842
43.2697
43.1113
42.1963
40.5818
38.3845
35.759
32.8711
29.8743
26.8942
25.8482
26.4544
28.0094
30.0913
32.3781
34.7362
37.0364
39.1118
40.7912
41.924
42.3937
42.1342
41.1434
39.4856
37.2802
34.6798
31.8441
28.9182
26.0196
25.709
26.3037
27.8305
29.8718
32.1042
34.3914
36.6043
38.5776
40.1441
41.1598
41.5176
41.162
40.1005
38.4041
36.1943
33.6209
30.8372
27.9807
25.1609
25.5648
26.1477
27.6459
29.6457
31.8229
34.0387
36.164
38.0357
39.4907
40.3921
40.642
40.1952
39.0682
37.3377
35.1267
32.5818
29.8501
27.0613
24.3177
25.4156
25.9865
27.4554
29.4131
31.5342
33.678
35.7156
37.4863
38.8315
39.6214
39.7675
39.2342
38.0466
36.2864
34.0772
31.5622
28.8822
26.1596
23.4896
25.2611
25.82
27.259
29.1738
31.2381
33.3093
35.2592
36.9296
38.1668
38.8483
38.8945
38.2795
37.0361
35.2503
33.0458
30.5619
27.9333
25.2753
22.6765
25.1012
25.6479
27.0566
28.9276
30.9345
32.9328
34.795
36.366
37.4971
38.0731
38.0236
37.3316
36.0371
34.2296
32.0323
29.5806
27.003
24.408
21.8782
24.9358
25.4701
26.848
28.6746
30.6234
32.5484
34.3231
35.7956
36.8226
37.2964
37.1553
36.391
35.0497
33.2242
31.0366
28.6181
26.0911
23.5575
21.0943
24.7648
25.2865
26.633
28.4145
30.3047
32.1562
33.8437
35.2188
36.1439
36.5186
36.2901
35.458
34.0744
32.2344
30.0586
27.6741
25.1971
22.7236
20.3249
24.5879
25.097
26.4116
28.1474
29.9784
31.7562
33.3568
34.6358
35.4613
35.7404
35.4285
34.533
33.1113
31.26
29.0982
26.7483
24.3209
21.9059
19.5698
24.4051
24.9014
26.1838
27.8731
29.6445
31.3485
32.8628
34.0471
34.7753
34.962
34.5709
33.6165
32.1606
30.3013
28.1553
25.8406
23.4621
21.1043
18.8289
24.2162
24.6995
25.9492
27.5916
29.3029
30.9332
32.3618
33.4528
34.0862
34.1841
33.7179
32.7088
31.2226
29.3581
27.2297
24.9507
22.6207
20.3187
18.102
24.0211
24.4914
25.7079
27.3028
28.9538
30.5103
31.854
32.8533
33.3945
33.4071
32.8699
31.8102
30.2974
28.4305
26.3213
24.0785
21.7963
19.5488
17.3892
23.8196
24.2767
25.4597
27.0066
28.597
30.0801
31.3397
32.249
32.7007
32.6314
32.0273
30.9211
29.3853
27.5187
25.4301
23.2238
20.9888
18.7946
16.6904
23.6115
24.0554
25.2046
26.703
28.2326
29.6425
30.819
31.6402
32.0051
31.8576
31.1904
30.0418
28.4864
26.6225
24.556
22.3864
20.1981
18.0559
16.0056
23.3968
23.8274
24.9423
26.392
27.8606
29.1977
30.2921
31.0272
31.3083
31.086
30.3599
29.1725
27.6008
25.742
23.6987
21.5662
19.424
17.3328
15.3348
23.1752
23.5924
24.6729
26.0734
27.481
28.7458
29.7594
30.4104
30.6105
30.3172
29.5359
28.3137
26.7287
24.8771
22.8583
20.7631
18.6664
16.625
14.678
22.9467
23.3505
24.3962
25.7473
27.0939
28.287
29.2211
29.7901
29.9122
29.5515
28.719
27.4655
25.8703
24.028
22.0347
19.9769
17.9252
15.9326
14.0353
22.7111
23.1013
24.1121
25.4135
26.6994
27.8214
28.6774
29.1667
29.2139
28.7894
27.9094
26.6282
25.0256
23.1946
21.2278
19.2075
17.2002
15.2555
13.4067
22.4681
22.8449
23.8206
25.0722
26.2973
27.3492
28.1287
28.5406
28.516
28.0312
27.1076
25.802
24.1948
22.3769
20.4375
18.4548
16.4915
14.5937
12.7923
22.2178
22.5811
23.5215
24.7232
25.888
26.8705
27.5751
27.9121
27.8188
27.2774
26.3138
24.9871
23.3779
21.5749
19.6638
17.7188
15.799
13.9472
12.1921
21.96
22.3097
23.2147
24.3665
25.4713
26.3855
27.017
27.2816
27.1228
26.5284
25.5283
24.1838
22.5751
20.7886
18.9065
16.9994
15.1226
13.316
11.6063
21.6944
22.0306
22.9003
24.0022
25.0475
25.8944
26.4546
26.6495
26.4284
25.7845
24.7515
23.3923
21.7864
20.018
18.1657
16.2965
14.4622
12.7002
11.0348
21.421
21.7437
22.578
23.6302
24.6165
25.3974
25.8883
26.016
25.736
25.0461
23.9837
22.6127
21.012
19.263
17.4413
15.6101
13.8179
12.0997
10.4778
21.1397
21.4489
22.2479
23.2505
24.1785
24.8947
25.3183
25.3817
25.0459
24.3136
23.225
21.8452
20.2518
18.5238
16.7333
14.94
13.1896
11.5146
9.93542
20.8502
21.1461
21.9099
22.8631
23.7335
24.3865
24.7449
24.7467
24.3585
23.5873
22.4759
21.09
19.506
17.8003
16.0415
14.2863
12.5774
10.9448
9.4077
20.5525
20.8351
21.5639
22.4682
23.2818
23.873
24.1684
24.1115
23.6741
22.8674
21.7364
20.3472
18.7746
17.0924
15.366
13.6489
11.9811
10.3906
8.89474
20.2465
20.5159
21.2098
22.0656
22.8233
23.3543
23.5891
23.4765
22.9932
22.1544
21.0069
19.6169
18.0576
16.4001
14.7068
13.0279
11.4009
9.85181
8.39664
19.932
20.1883
20.8476
21.6554
22.3583
22.8308
23.0074
22.8419
22.3161
21.4484
20.2875
18.8993
17.3552
15.7235
14.0637
12.423
10.8366
9.32855
7.91347
19.6088
19.8522
20.4773
21.2376
21.8868
22.3026
22.4234
22.208
21.643
20.7498
19.5785
18.1944
16.6672
15.0625
13.4367
11.8344
10.2883
8.82084
7.44532
19.277
19.5075
20.0988
20.8124
21.409
21.77
21.8375
21.5753
20.9743
20.0588
18.8799
17.5024
15.9938
14.4171
12.8259
11.262
9.75603
8.32872
6.99226
18.9363
19.1542
19.712
20.3796
20.925
21.2331
21.2499
20.944
20.3102
19.3757
18.192
16.8232
15.3349
13.7873
12.2311
10.7057
9.23969
7.8522
6.55437
18.5866
18.7921
19.317
19.9394
20.4349
20.6922
20.661
20.3143
19.6511
18.7006
17.515
16.1571
14.6906
13.173
11.6523
10.1655
8.7393
7.39131
6.13169
18.2279
18.4212
18.9136
19.4919
19.939
20.1475
20.0709
19.6867
18.9972
18.0338
16.8488
15.5041
14.0609
12.5742
11.0894
9.64139
8.25483
6.94606
5.72427
17.86
18.0413
18.502
19.037
19.4372
19.5992
19.48
19.0613
18.3487
17.3754
16.1937
14.8641
13.4457
11.9908
10.5425
9.13329
7.78627
6.51645
5.33215
17.4829
17.6524
18.082
18.5749
18.9298
19.0475
18.8885
18.4384
17.706
16.7257
15.5498
14.2372
12.8449
11.4228
10.0114
8.64114
7.33357
6.10247
4.95535
17.0963
17.2544
17.6536
18.1055
18.4169
18.4926
18.2967
17.8182
17.069
16.0847
14.917
13.6235
12.2587
10.8701
9.49599
8.16488
6.89668
5.7041
4.59387
16.7003
16.8472
17.2168
17.629
17.8987
17.9347
17.7047
17.2011
16.4382
15.4526
14.2955
13.0228
11.6868
10.3327
8.99628
7.70443
6.47554
5.3213
4.24771
16.2947
16.4308
16.7715
17.1454
17.3752
17.3741
17.1128
16.5871
15.8135
14.8294
13.6853
12.4352
11.1293
9.81033
8.51214
7.25969
6.07009
4.95402
3.91684
15.8795
16.005
16.3179
16.6547
16.8466
16.8108
16.5211
15.9764
15.1952
14.2153
13.0864
11.8606
10.586
9.30303
8.04344
6.83057
5.68024
4.60219
3.60121
15.4546
15.5699
15.8558
16.1571
16.313
16.245
15.9299
15.3692
14.5834
13.6104
12.4988
11.299
10.0569
8.81063
7.59007
6.41695
5.30587
4.26574
3.30076
15.0198
15.1253
15.3853
15.6526
15.7745
15.6769
15.3393
14.7657
13.9781
13.0145
11.9225
10.7503
9.5418
8.333
7.15189
6.0187
4.94688
3.94456
3.01541
14.5752
14.6712
14.9062
15.1411
15.2313
15.1067
14.7495
14.166
13.3795
12.4278
11.3573
10.2144
9.0406
7.86998
6.72874
5.63565
4.60312
3.63853
2.74506
14.1205
14.2075
14.4187
14.6229
14.6834
14.5344
14.1605
13.5701
12.7875
11.8502
10.8033
9.69111
8.55312
7.42141
6.32044
5.26765
4.27444
3.3475
2.48959
13.6558
13.7342
13.9227
14.0978
14.1309
13.9601
13.5725
12.9781
12.2021
11.2817
10.2603
9.18031
8.0792
6.98707
5.92678
4.91449
3.96066
3.07132
2.24883
13.181
13.2511
13.4181
13.5659
13.5739
13.384
12.9855
12.3901
11.6235
10.7222
9.72812
8.68184
7.61862
6.56676
5.54757
4.57598
3.66158
2.8098
2.02263
12.696
12.7583
12.905
13.0273
13.0124
12.8061
12.3996
11.806
11.0514
10.1715
9.20669
8.19547
7.17115
6.16024
5.18254
4.25186
3.37697
2.56273
1.81079
12.2008
12.2557
12.3832
12.482
12.4464
12.2263
11.8148
11.2258
10.4858
9.62958
8.69577
7.72098
6.73654
5.76722
4.83143
3.94189
3.10659
2.32986
1.61308
11.6951
11.7432
11.8529
11.9299
11.876
11.6448
11.231
10.6495
9.92657
9.09618
8.19514
7.2581
6.31449
5.38743
4.49396
3.64577
2.85015
2.11095
1.42926
11.1791
11.2207
11.3138
11.371
11.3012
11.0615
10.6482
10.0769
9.37357
8.57109
7.70452
6.80654
5.9047
5.02053
4.16978
3.36319
2.60735
1.9057
1.25906
10.6525
10.6882
10.7661
10.8053
10.7219
10.4764
10.0664
9.50788
8.82658
8.05407
7.22361
6.36595
5.50681
4.66616
3.85855
3.0938
2.37787
1.71379
1.10217
10.1154
10.1456
10.2095
10.2328
10.1381
9.88936
9.48532
8.94227
8.28535
7.54481
6.75208
5.93597
5.12042
4.32394
3.55988
2.83723
2.16134
1.53487
0.958254
9.56763
9.59281
9.64406
9.65328
9.54963
9.30024
8.90486
8.37983
7.74959
7.04297
6.28953
5.51617
4.74512
3.99343
3.27335
2.59305
1.95735
1.36856
0.826954
9.00908
9.02972
9.06964
9.06673
8.95642
8.70891
8.32479
7.82027
7.21896
6.54814
5.83553
5.10611
4.38043
3.67416
2.99849
2.36083
1.76548
1.21445
0.707868
8.43968
8.45625
8.48614
8.473
8.35832
8.11515
7.74484
7.26328
6.69305
6.05989
5.38959
4.70527
4.02583
3.36561
2.7348
2.14006
1.58525
1.07208
0.600564
7.85933
7.87228
7.89343
7.87195
7.75511
7.51873
7.1647
6.70844
6.17143
5.57772
4.95118
4.3131
3.68077
3.06724
2.48172
1.93023
1.41615
0.940961
0.504572
7.26792
7.27771
7.29136
7.2634
7.14656
6.91932
6.58398
6.15533
5.65358
5.10105
4.51971
3.92899
3.34462
2.77842
2.23867
1.73074
1.25762
0.820557
0.419381
6.66534
6.67239
6.67978
6.64711
6.5324
6.31658
6.00225
5.60342
5.13891
4.62926
4.0945
3.55225
3.01671
2.49848
2.00499
1.54098
1.10906
0.710291
0.344437
6.05145
6.05619
6.05849
6.02285
5.9123
5.7101
5.41901
5.05213
4.62678
4.16166
3.67484
3.18215
2.69629
2.22671
1.77997
1.36025
0.969812
0.609533
0.279141
5.42612
5.42893
5.42728
5.39033
5.28587
5.09939
4.83369
4.50081
4.11646
3.69746
3.25991
2.81788
2.38257
1.96231
1.56285
1.18782
0.839164
0.517605
0.222847
4.7892
4.79046
4.78591
4.7492
4.65268
4.48391
4.24563
3.94871
3.60715
3.23581
2.84884
2.45853
2.07464
1.7044
1.35277
1.02286
0.71633
0.433747
0.174814
4.14053
4.14056
4.13411
4.09911
4.01224
3.86305
3.65412
3.395
3.09793
2.77575
2.44065
2.10313
1.77155
1.45205
1.14883
0.864531
0.600509
0.357227
0.134399
3.47995
3.47904
3.47158
3.43961
3.36399
3.23612
3.05832
2.83877
2.58781
2.31625
2.03425
1.7506
1.47221
1.20418
0.949976
0.711749
0.490608
0.286903
0.100369
2.80727
2.80566
2.79798
2.77026
2.70729
2.60232
2.45733
2.27898
2.07568
1.85613
1.62849
1.39978
1.17554
0.959808
0.755339
0.563833
0.386159
0.222583
0.0728803
2.1223
2.12017
2.11297
2.0905
2.04145
1.96081
1.85012
1.71449
1.56028
1.39404
1.22192
1.04916
0.879896
0.71714
0.562936
0.418535
0.284571
0.161226
0.0483197
1.42484
1.42229
1.41614
1.39977
1.36569
1.31061
1.2356
1.14412
1.04044
0.928922
0.813657
0.698124
0.585054
0.476438
0.373619
0.27742
0.188258
0.106254
0.0312894
0.714695
0.71173
0.707045
0.697407
0.679096
0.650507
0.612211
0.565927
0.513761
0.457864
0.400228
0.342544
0.286134
0.231956
0.180651
0.132607
0.0880152
0.0469297
0.00930436
)
;

boundaryField
{
    inlet
    {
        type            freestreamPressure;
        freestreamValue uniform 0;
        value           nonuniform List<scalar> 
165
(
29.1914
29.1912
29.1909
29.1904
29.1897
29.1889
29.1878
29.1867
29.1853
29.1838
29.1821
29.1803
29.1782
29.1761
29.1737
29.1712
29.1687
29.1659
29.1629
29.1597
29.1563
29.1526
29.1487
29.1445
29.14
29.1353
29.1302
29.1248
29.1191
29.113
29.1065
29.0997
29.0925
29.0849
29.0768
29.0683
29.0593
29.0499
29.0399
29.0294
29.0183
29.0067
28.9944
28.9815
28.968
28.9538
28.9389
28.9232
28.9068
28.8896
28.8715
28.8526
28.8327
28.8119
28.7902
28.7674
28.7436
28.7187
28.6926
28.6653
28.6369
28.6071
28.576
28.5435
28.5096
28.4741
28.4372
28.3986
28.3583
28.3163
28.2726
28.2269
28.1793
28.1298
28.0781
28.0243
27.9682
27.9099
27.8491
27.7859
27.7201
27.6516
27.5804
27.5064
27.4294
27.3493
27.2662
27.1798
27.09
26.9968
26.9
26.7995
26.6952
26.5869
26.4747
26.3582
26.2375
26.1123
25.9826
25.8482
25.709
25.5648
25.4156
25.2611
25.1012
24.9358
24.7648
24.5879
24.4051
24.2162
24.0211
23.8196
23.6115
23.3968
23.1752
22.9467
22.7111
22.4681
22.2178
21.96
21.6944
21.421
21.1397
20.8502
20.5525
20.2465
19.932
19.6088
19.277
18.9363
18.5866
18.2279
17.86
17.4829
17.0963
16.7003
16.2947
15.8795
15.4546
15.0198
14.5752
14.1205
13.6558
13.181
12.696
12.2008
11.6951
11.1791
10.6525
10.1154
9.56763
9.00908
8.43968
7.85933
7.26792
6.66534
6.05145
5.42612
4.7892
4.14053
3.47995
2.80727
2.1223
1.42484
0.714695
)
;
    }
    outlet
    {
        type            freestreamPressure;
        freestreamValue nonuniform 0();
        value           nonuniform 0();
    }
    lowerSymmetry
    {
        type            symmetryPlane;
    }
    obstical
    {
        type            zeroGradient;
    }
    top
    {
        type            freestreamPressure;
        freestreamValue uniform 0;
        value           nonuniform List<scalar> 
19
(
0.356445
0.353268
0.349443
0.343372
0.333243
0.318295
0.298823
0.275668
0.24984
0.222358
0.194161
0.166041
0.138612
0.112315
0.0874445
0.0641744
0.0425884
0.0227063
0.00450163
)
;
    }
    defaultFaces
    {
        type            empty;
    }
    procBoundary0to1
    {
        type            processor;
        value           nonuniform List<scalar> 
166
(
279.812
279.499
278.938
278.093
276.967
275.566
273.896
271.963
269.774
267.338
264.665
261.766
258.654
255.345
251.855
248.308
244.7
240.915
236.972
232.885
228.672
224.35
219.935
215.446
210.898
206.308
201.691
197.063
192.436
187.822
183.233
178.68
174.17
174.17
160.912
155.746
150.728
145.863
141.152
136.595
132.191
127.941
123.843
119.893
116.09
112.43
108.909
105.524
102.269
99.1411
96.1346
93.245
90.4673
87.7968
85.2287
82.7582
80.3807
78.0917
75.8869
73.7621
71.7132
69.7364
67.828
65.9845
64.2025
62.4788
60.8104
59.1943
57.628
56.1087
54.6341
53.2019
51.8097
50.4556
49.1376
47.8539
46.6026
45.3822
44.1911
43.0278
41.891
40.7794
39.6917
38.6269
37.5838
36.5615
35.5591
34.5757
33.6105
32.6627
31.7317
30.817
29.9177
29.0336
28.1641
27.3087
26.4672
25.6391
24.8241
24.022
23.2326
22.4557
21.6911
20.9386
20.1983
19.47
18.7537
18.0493
17.357
16.6766
16.0083
15.3521
14.7081
14.0764
13.4571
12.8503
12.2562
11.6749
11.1066
10.5513
10.0093
9.48076
8.96575
8.46447
7.97708
7.50372
7.04454
6.59968
6.16926
5.7534
5.35222
4.9658
4.59424
4.23759
3.8959
3.56922
3.25756
2.96092
2.67927
2.41257
2.16077
1.92376
1.70146
1.49371
1.30038
1.12127
0.956184
0.804884
0.667112
0.542578
0.430966
0.331926
0.24508
0.170012
0.106274
0.0533777
0.0107958
-0.0220479
-0.0457584
-0.0610708
-0.0685175
-0.0694728
-0.0633432
-0.0544534
-0.0368557
-0.0249234
)
;
    }
}


// ************************************************************************* //
