/*--------------------------------*- C++ -*----------------------------------*\
| =========                 |                                                 |
| \\      /  F ield         | OpenFOAM: The Open Source CFD Toolbox           |
|  \\    /   O peration     | Version:  v1912                                 |
|   \\  /    A nd           | Website:  www.openfoam.com                      |
|    \\/     M anipulation  |                                                 |
\*---------------------------------------------------------------------------*/
FoamFile
{
    version     2.0;
    format      ascii;
    class       surfaceScalarField;
    location    "3500";
    object      phi;
}
// * * * * * * * * * * * * * * * * * * * * * * * * * * * * * * * * * * * * * //

dimensions      [0 3 -1 0 0 0 0];
oriented        oriented;


internalField   nonuniform List<scalar> 
6020
(
0.000199828
1.4533e-07
0.000199423
4.05024e-07
0.000198796
6.27692e-07
0.000197976
8.19766e-07
0.000196972
1.00404e-06
0.000195777
1.19467e-06
0.000194376
1.40075e-06
0.000192745
1.63174e-06
0.000190845
1.89924e-06
0.000188629
2.21655e-06
0.000186024
2.60449e-06
0.000182938
3.08664e-06
0.000179226
3.7114e-06
0.000174699
4.52678e-06
0.000169038
5.661e-06
0.000161794
7.24479e-06
0.000152207
9.58703e-06
1.32965e-05
0.00019983
2.92495e-07
0.000199423
8.11425e-07
0.000198796
1.25478e-06
0.000197977
1.63916e-06
0.000196973
2.00788e-06
0.000195778
2.38903e-06
0.000194378
2.80106e-06
0.000192747
3.26289e-06
0.000190849
3.79762e-06
0.000188633
4.43202e-06
0.000186031
5.20707e-06
0.000182946
6.17127e-06
0.00017924
7.4176e-06
0.000174716
9.05057e-06
0.000169073
1.13044e-05
0.000161826
1.44909e-05
0.000152304
1.91093e-05
2.66399e-05
0.00019983
4.39653e-07
0.000199423
1.21781e-06
0.000198796
1.88185e-06
0.000197977
2.4585e-06
0.000196973
3.01165e-06
0.000195779
3.58328e-06
0.000194379
4.20121e-06
0.000192748
4.89381e-06
0.00019085
5.69564e-06
0.000188635
6.64692e-06
0.000186033
7.80876e-06
0.00018295
9.25442e-06
0.000179246
1.11213e-05
0.000174727
1.35699e-05
0.000169091
1.69403e-05
0.000161861
2.17207e-05
0.000152364
2.86067e-05
3.99135e-05
0.00019983
5.86799e-07
0.000199423
1.62416e-06
0.000198796
2.50887e-06
0.000197977
3.27779e-06
0.000196973
4.01532e-06
0.000195779
4.77738e-06
0.000194379
5.60113e-06
0.000192749
6.52438e-06
0.000190851
7.59312e-06
0.000188637
8.86099e-06
0.000186037
1.04091e-05
0.000182956
1.23354e-05
0.000179256
1.48214e-05
0.000174743
1.80825e-05
0.000169119
2.25648e-05
0.000161913
2.8926e-05
0.000152456
3.80644e-05
5.30848e-05
0.00019983
7.33929e-07
0.000199423
2.03048e-06
0.000198796
3.13584e-06
0.000197977
4.09698e-06
0.000196974
5.01885e-06
0.00019578
5.97127e-06
0.00019438
7.00074e-06
0.00019275
8.15449e-06
0.000190853
9.48989e-06
0.00018864
1.10739e-05
0.000186042
1.30076e-05
0.000182964
1.54133e-05
0.000179269
1.85164e-05
0.000174765
2.25861e-05
0.000169156
2.81737e-05
0.000161984
3.60986e-05
0.00015258
4.74678e-05
6.6121e-05
0.00019983
8.81041e-07
0.000199423
2.43676e-06
0.000198796
3.76274e-06
0.000197977
4.91606e-06
0.000196974
6.02222e-06
0.00019578
7.16491e-06
0.000194381
8.39997e-06
0.000192752
9.78401e-06
0.000190856
1.13858e-05
0.000188644
1.32855e-05
0.000186048
1.56039e-05
0.000182974
1.84876e-05
0.000179285
2.22052e-05
0.000174792
2.70785e-05
0.000169203
3.37631e-05
0.000162071
4.32307e-05
0.000152736
5.68025e-05
7.89893e-05
0.00019983
1.02813e-06
0.000199423
2.84297e-06
0.000198797
4.38956e-06
0.000197978
5.73502e-06
0.000196974
7.02538e-06
0.000195781
8.35825e-06
0.000194382
9.79874e-06
0.000192754
1.14128e-05
0.000190859
1.32806e-05
0.000188649
1.54953e-05
0.000186055
1.81975e-05
0.000182986
2.15573e-05
0.000179304
2.58864e-05
0.000174825
3.15574e-05
0.000169259
3.93291e-05
0.000162176
5.03142e-05
0.000152924
6.60543e-05
9.16575e-05
0.00019983
1.17519e-06
0.000199423
3.24913e-06
0.000198797
5.01628e-06
0.000197978
6.55381e-06
0.000196975
8.02831e-06
0.000195782
9.55123e-06
0.000194384
1.1197e-05
0.000192756
1.30409e-05
0.000190862
1.51741e-05
0.000188654
1.77032e-05
0.000186064
2.07879e-05
0.000182999
2.46219e-05
0.000179327
2.9559e-05
0.000174864
3.60207e-05
0.000169325
4.48678e-05
0.000162298
5.73415e-05
0.000153142
7.52098e-05
0.000104094
0.00019983
1.32222e-06
0.000199424
3.65521e-06
0.000198797
5.64289e-06
0.000197978
7.37244e-06
0.000196976
9.03096e-06
0.000195783
1.07438e-05
0.000194386
1.25946e-05
0.000192758
1.46679e-05
0.000190866
1.70662e-05
0.000188661
1.99088e-05
0.000186074
2.33747e-05
0.000183015
2.76805e-05
0.000179353
3.32215e-05
0.000174907
4.04662e-05
0.0001694
5.03754e-05
0.000162436
6.43052e-05
0.00015339
8.42558e-05
0.000116268
0.00019983
1.46922e-06
0.000199424
4.06122e-06
0.000198797
6.26938e-06
0.000197979
8.19086e-06
0.000196976
1.00333e-05
0.000195784
1.19359e-05
0.000194387
1.39915e-05
0.000192761
1.6294e-05
0.000190871
1.89567e-05
0.000188668
2.21119e-05
0.000186085
2.59575e-05
0.000183033
3.07325e-05
0.000179382
3.68728e-05
0.000174956
4.48917e-05
0.000169483
5.58481e-05
0.000162591
7.11981e-05
0.000153667
9.31796e-05
0.000128149
0.00019983
1.61618e-06
0.000199424
4.46713e-06
0.000198798
6.89574e-06
0.000197979
9.00907e-06
0.000196977
1.10353e-05
0.000195786
1.31275e-05
0.00019439
1.53877e-05
0.000192765
1.79188e-05
0.000190876
2.08454e-05
0.000188676
2.43122e-05
0.000186097
2.85357e-05
0.000183053
3.37771e-05
0.000179414
4.05117e-05
0.00017501
4.92953e-05
0.000169576
6.12824e-05
0.000162761
7.80135e-05
0.000153971
0.000101969
0.00013971
0.00019983
1.76309e-06
0.000199424
4.87294e-06
0.000198798
7.52194e-06
0.00019798
9.82704e-06
0.000196978
1.2037e-05
0.000195787
1.43186e-05
0.000194392
1.6783e-05
0.000192768
1.95424e-05
0.000190882
2.27321e-05
0.000188684
2.65094e-05
0.000186111
3.1109e-05
0.000183075
3.68135e-05
0.000179449
4.41371e-05
0.00017507
5.36747e-05
0.000169678
6.66746e-05
0.000162946
8.47447e-05
0.000154302
0.000110614
0.000150924
0.00019983
1.90996e-06
0.000199424
5.27865e-06
0.000198798
8.14797e-06
0.00019798
1.06447e-05
0.000196979
1.30382e-05
0.000195789
1.5509e-05
0.000194394
1.81775e-05
0.000192772
2.11646e-05
0.000190888
2.46167e-05
0.000188694
2.87032e-05
0.000186126
3.3677e-05
0.000183098
3.98412e-05
0.000179488
4.77476e-05
0.000175134
5.80282e-05
0.000169787
7.20213e-05
0.000163146
9.13858e-05
0.000154658
0.000119102
0.000161767
0.00019983
2.05678e-06
0.000199424
5.68424e-06
0.000198798
8.77383e-06
0.000197981
1.14622e-05
0.00019698
1.4039e-05
0.00019579
1.66988e-05
0.000194397
1.95709e-05
0.000192776
2.27853e-05
0.000190894
2.64989e-05
0.000188704
3.08934e-05
0.000186142
3.62391e-05
0.000183124
4.28594e-05
0.000179529
5.13422e-05
0.000175203
6.23538e-05
0.000169906
7.73192e-05
0.00016336
9.7931e-05
0.000155038
0.000127424
0.000172216
0.00019983
2.20349e-06
0.000199425
6.08966e-06
0.000198799
9.39951e-06
0.000197982
1.22793e-05
0.000196981
1.50393e-05
0.000195792
1.78879e-05
0.0001944
2.09632e-05
0.000192781
2.44044e-05
0.000190901
2.83787e-05
0.000188715
3.30798e-05
0.000186159
3.87951e-05
0.000183151
4.58674e-05
0.000179573
5.49198e-05
0.000175278
6.66495e-05
0.000170032
8.25652e-05
0.000163588
0.000104375
0.00015544
0.000135571
0.000182252
0.000188708
2.34169e-06
0.000188326
6.47217e-06
0.000187735
9.99027e-06
0.000186964
1.30507e-05
0.000186019
1.59835e-05
0.000184897
1.90101e-05
0.000183583
2.22771e-05
0.000182056
2.59319e-05
0.000180283
3.01515e-05
0.000178222
3.51407e-05
0.000175814
4.12028e-05
0.000172984
4.86981e-05
0.000169622
5.8282e-05
0.000165594
7.0677e-05
0.00016069
8.74697e-05
0.000154704
0.00011036
0.000147175
0.000143101
0.000191324
0.00019217
2.48242e-06
0.00019178
6.86162e-06
0.000191179
1.05917e-05
0.000190394
1.38359e-05
0.000189432
1.69446e-05
0.00018829
2.01522e-05
0.000186954
2.3614e-05
0.0001854
2.74856e-05
0.000183597
3.19542e-05
0.000181502
3.72353e-05
0.000179057
4.36482e-05
0.000176185
5.15701e-05
0.000172779
6.16881e-05
0.000168708
7.47479e-05
0.000163767
9.24106e-05
0.000157772
0.000116355
0.000150282
0.000150591
0.000200171
0.000195694
2.62582e-06
0.000195298
7.25816e-06
0.000194686
1.12038e-05
0.000193886
1.46351e-05
0.000192908
1.79227e-05
0.000191746
2.13144e-05
0.000190386
2.49741e-05
0.000188806
2.9066e-05
0.000186973
3.3787e-05
0.000184844
3.93638e-05
0.000182361
4.61312e-05
0.000179448
5.44833e-05
0.000175999
6.51374e-05
0.000171886
7.88605e-05
0.000166913
9.73839e-05
0.000160915
0.000122354
0.00015348
0.000158026
0.000208778
0.000199284
2.77191e-06
0.00019888
7.66192e-06
0.000198257
1.18269e-05
0.000197443
1.54486e-05
0.000196448
1.89181e-05
0.000195265
2.2497e-05
0.000193882
2.63578e-05
0.000192274
3.06733e-05
0.000190411
3.56503e-05
0.000188248
4.15265e-05
0.000185728
4.8652e-05
0.000182774
5.74373e-05
0.000179282
6.86288e-05
0.00017513
8.30128e-05
0.000170128
0.000102385
0.000164134
0.000128348
0.000156769
0.00016539
0.000217133
0.000202939
2.92076e-06
0.000202528
8.07304e-06
0.000201894
1.24611e-05
0.000201066
1.62766e-05
0.000200053
1.99312e-05
0.000198849
2.37003e-05
0.000197442
2.77654e-05
0.000195807
3.23078e-05
0.000193913
3.75444e-05
0.000191716
4.37235e-05
0.000189158
5.12105e-05
0.000186163
6.04318e-05
0.000182631
7.21613e-05
0.000178441
8.72026e-05
0.000173415
0.000107411
0.000167432
0.000134332
0.000160153
0.000172669
0.000225228
0.000206661
3.07242e-06
0.000206243
8.49162e-06
0.000205597
1.31066e-05
0.000204755
1.71192e-05
0.000203724
2.09621e-05
0.000202499
2.49246e-05
0.000201068
2.91972e-05
0.000199406
3.39699e-05
0.00019748
3.94694e-05
0.000195249
4.5955e-05
0.000192653
5.38067e-05
0.000189618
6.34663e-05
0.000186046
7.57339e-05
0.000181821
9.14278e-05
0.000176776
0.000112456
0.00017081
0.000140298
0.000163634
0.000179845
0.000233059
0.000210452
3.22693e-06
0.000210026
8.91779e-06
0.000209369
1.37636e-05
0.000208511
1.79768e-05
0.000207462
2.20111e-05
0.000206217
2.61702e-05
0.00020476
3.06534e-05
0.00020307
3.56597e-05
0.000201114
4.14256e-05
0.000198848
4.82211e-05
0.000196214
5.64405e-05
0.00019314
6.65404e-05
0.000189529
7.93453e-05
0.000185271
9.56858e-05
0.000180212
0.000117515
0.000174271
0.000146239
0.000167214
0.000186901
0.000240623
0.000214312
3.38436e-06
0.000213878
9.35169e-06
0.000213209
1.44322e-05
0.000212337
1.88495e-05
0.000211269
2.30785e-05
0.000210002
2.74373e-05
0.000208521
3.21345e-05
0.000206803
3.73777e-05
0.000204815
4.34133e-05
0.000202515
5.05218e-05
0.000199843
5.91117e-05
0.00019673
6.96535e-05
0.000193082
8.29941e-05
0.000188793
9.99742e-05
0.000183725
0.000122583
0.000177816
0.000152148
0.000170895
0.000193823
0.000247918
0.000218243
3.54475e-06
0.000217801
9.79344e-06
0.000217121
1.51127e-05
0.000216233
1.97376e-05
0.000215147
2.41646e-05
0.000213858
2.87263e-05
0.000212351
3.36407e-05
0.000210605
3.91241e-05
0.000208586
4.54327e-05
0.00020625
5.28574e-05
0.000203542
6.18201e-05
0.00020039
7.28049e-05
0.000196705
8.66789e-05
0.00019239
0.00010429
0.000187317
0.000127656
0.000181448
0.000158017
0.000174677
0.000200593
0.000254942
0.000222246
3.70815e-06
0.000221796
1.02432e-05
0.000221104
1.58051e-05
0.0002202
2.06413e-05
0.000219095
2.52696e-05
0.000217784
3.00374e-05
0.000216252
3.51722e-05
0.000214477
4.0899e-05
0.000212426
4.74839e-05
0.000210056
5.52278e-05
0.00020731
6.45656e-05
0.000204121
7.5994e-05
0.000200402
9.03981e-05
0.000196062
0.00010863
0.000190991
0.000132727
0.000185168
0.000163839
0.000178562
0.000207199
0.000261691
0.000226323
3.87463e-06
0.000225865
1.0701e-05
0.00022516
1.65098e-05
0.00022424
2.15609e-05
0.000223116
2.63937e-05
0.000221783
3.13709e-05
0.000220226
3.67293e-05
0.000218422
4.27029e-05
0.000216339
4.95671e-05
0.000213933
5.7633e-05
0.000211151
6.73478e-05
0.000207925
7.92199e-05
0.000204173
9.41499e-05
0.000199811
0.000112992
0.000194747
0.000137791
0.00018898
0.000169607
0.000182552
0.000213627
0.000268158
0.000230474
4.04424e-06
0.000230008
1.11671e-05
0.000229291
1.72269e-05
0.000228355
2.24965e-05
0.000227211
2.75373e-05
0.000225855
3.27272e-05
0.000224272
3.83124e-05
0.000222439
4.45359e-05
0.000220324
5.16824e-05
0.000217884
6.0073e-05
0.000215065
7.01664e-05
0.000211803
8.24817e-05
0.000208021
9.79325e-05
0.00020364
0.000117373
0.000198589
0.000142843
0.000192884
0.000175312
0.000186645
0.000219866
0.000274336
0.000234701
4.21703e-06
0.000234227
1.16416e-05
0.000233497
1.79566e-05
0.000232545
2.34484e-05
0.000231382
2.87006e-05
0.000230003
3.41064e-05
0.000228393
3.99217e-05
0.000226531
4.63982e-05
0.000224383
5.38301e-05
0.000221909
6.25477e-05
0.000219054
7.30209e-05
0.000215757
8.57785e-05
0.000211946
0.000101744
0.000207551
0.000121768
0.000202518
0.000147876
0.000196883
0.000180946
0.000190843
0.000225906
0.000280215
0.000239006
4.39306e-06
0.000238523
1.21246e-05
0.000237781
1.8699e-05
0.000236812
2.44169e-05
0.000235629
2.98839e-05
0.000234227
3.55088e-05
0.000232591
4.15575e-05
0.000230699
4.82901e-05
0.000228519
5.60101e-05
0.00022601
6.50571e-05
0.00022312
7.59109e-05
0.000219789
8.91091e-05
0.000215951
0.000105582
0.000211544
0.000126174
0.000206535
0.000152885
0.000200979
0.000186502
0.000195147
0.000231739
0.000285784
0.00024339
4.57239e-06
0.000242899
1.26162e-05
0.000242143
1.94544e-05
0.000241158
2.54021e-05
0.000239954
3.10874e-05
0.000238529
3.69348e-05
0.000236866
4.32199e-05
0.000234944
5.02117e-05
0.000232732
5.82226e-05
0.000230188
6.76009e-05
0.000227263
7.88359e-05
0.0002239
9.24723e-05
0.000220037
0.000109445
0.000215623
0.000130588
0.000210644
0.000157864
0.000205175
0.000191971
0.000199556
0.000237357
0.00029103
0.000247855
4.75508e-06
0.000247354
1.31166e-05
0.000246586
2.02229e-05
0.000245583
2.64044e-05
0.000244359
3.23114e-05
0.00024291
3.83846e-05
0.00024122
4.49093e-05
0.000239269
5.21632e-05
0.000237024
6.04675e-05
0.000234446
7.0179e-05
0.000231487
8.17952e-05
0.000228092
9.5867e-05
0.000224207
0.00011333
0.000219789
0.000135006
0.000214846
0.000162807
0.000209472
0.000197345
0.000204073
0.000242757
0.000295944
0.000252401
4.94119e-06
0.000251892
1.3626e-05
0.00025111
2.10047e-05
0.00025009
2.74238e-05
0.000248846
3.35561e-05
0.000247372
3.98583e-05
0.000245655
4.66258e-05
0.000243674
5.41448e-05
0.000241396
6.2745e-05
0.000238784
7.2791e-05
0.000235791
8.47881e-05
0.000232367
9.92916e-05
0.000228462
0.000117235
0.000224045
0.000139423
0.000219143
0.000167709
0.000213873
0.000202615
0.000208696
0.000247934
0.000300514
0.000257031
5.13078e-06
0.000256512
1.41444e-05
0.000255717
2.18e-05
0.00025468
2.84607e-05
0.000253414
3.48219e-05
0.000251916
4.13564e-05
0.000250172
4.83698e-05
0.00024816
5.61566e-05
0.000245851
6.50549e-05
0.000243205
7.54368e-05
0.000240179
8.78139e-05
0.000236726
0.000102745
0.000232804
0.000121156
0.000228391
0.000143836
0.000223537
0.000172563
0.000218379
0.000207774
0.000213428
0.000252884
0.000304734
0.000261745
5.3239e-06
0.000261218
1.4672e-05
0.000260409
2.26091e-05
0.000259354
2.95153e-05
0.000258067
3.61088e-05
0.000256545
4.2879e-05
0.000254773
5.01413e-05
0.000252731
5.81988e-05
0.000250389
6.73973e-05
0.000247709
7.8116e-05
0.000244651
9.08717e-05
0.000241171
0.000106225
0.000237235
0.000125093
0.000232831
0.00014824
0.000228031
0.000177363
0.000222992
0.000212812
0.00021827
0.000257606
0.000214407
0.000308597
0.000368864
0.000266547
5.52062e-06
0.00026601
1.52089e-05
0.000265187
2.3432e-05
0.000264114
3.05878e-05
0.000262806
3.74173e-05
0.000261258
4.44264e-05
0.000259459
5.19406e-05
0.000257386
6.02713e-05
0.000255012
6.9772e-05
0.0002523
8.08281e-05
0.000249211
9.39607e-05
0.000245705
0.00010973
0.000241757
0.00012904
0.000237367
0.00015263
0.000232626
0.000182105
0.000227715
0.000217723
0.000223223
0.000262097
0.000219718
0.000312103
0.000369384
0.000271436
5.72101e-06
0.000270889
1.57554e-05
0.000270052
2.42691e-05
0.000268962
3.16785e-05
0.000267631
3.87475e-05
0.000266059
4.59987e-05
0.000264232
5.37679e-05
0.000262129
6.23743e-05
0.000259722
7.21789e-05
0.000256977
8.35728e-05
0.000253858
9.70799e-05
0.000250329
0.000113259
0.000246373
0.000132997
0.000242001
0.000157002
0.000237324
0.000186781
0.000232548
0.0002225
0.000228289
0.000266356
0.000225139
0.000315252
0.000369559
0.000276415
5.92511e-06
0.000275859
1.63114e-05
0.000275007
2.51204e-05
0.000273898
3.27875e-05
0.000272546
4.00996e-05
0.000270949
4.75963e-05
0.000269093
5.56233e-05
0.00026696
6.45079e-05
0.000264521
7.46178e-05
0.000261744
8.63494e-05
0.000258596
0.000100228
0.000255046
0.000116809
0.000251084
0.000136959
0.000246734
0.000161352
0.000242128
0.000191387
0.000237493
0.000227134
0.000233468
0.000270382
0.000230671
0.00031805
0.000369406
0.000281485
6.133e-06
0.000280919
1.68773e-05
0.000280053
2.59861e-05
0.000278926
3.39151e-05
0.000277552
4.14739e-05
0.000275929
4.92193e-05
0.000274045
5.7507e-05
0.000271881
6.6672e-05
0.00026941
7.70885e-05
0.000266602
8.91574e-05
0.000263426
0.000103404
0.000259856
0.000120378
0.000255892
0.000140923
0.000251569
0.000165675
0.000247039
0.000195917
0.000242553
0.000231621
0.000238762
0.000274172
0.00023631
0.000320502
0.000368944
0.000286648
6.34474e-06
0.000286073
1.7453e-05
0.000285192
2.68665e-05
0.000284046
3.50615e-05
0.000282649
4.28707e-05
0.000281
5.08679e-05
0.000279088
5.9419e-05
0.000276894
6.88666e-05
0.000274392
7.95908e-05
0.000271553
9.19961e-05
0.00026835
0.000106607
0.000264763
0.000123965
0.0002608
0.000144887
0.000256509
0.000169966
0.000252061
0.000200365
0.000247728
0.000235954
0.000244173
0.000277728
0.000242058
0.000322617
0.000368185
0.000291906
6.56039e-06
0.000291321
1.80388e-05
0.000290425
2.77617e-05
0.00028926
3.62269e-05
0.000287841
4.42901e-05
0.000286166
5.25423e-05
0.000284226
6.13596e-05
0.000282001
7.10917e-05
0.000279467
8.21243e-05
0.000276598
9.48649e-05
0.00027337
0.000109835
0.000269768
0.000127567
0.000265809
0.000148846
0.000261555
0.00017422
0.000257194
0.000204726
0.000253021
0.000240127
0.000249702
0.000281047
0.000247913
0.000324406
0.000367146
0.000297261
6.78001e-06
0.000296665
1.86348e-05
0.000295755
2.86719e-05
0.00029457
3.74115e-05
0.000293128
4.57323e-05
0.000291428
5.42427e-05
0.000289458
6.33287e-05
0.000287203
7.33471e-05
0.000284639
8.46887e-05
0.000281741
9.77629e-05
0.000278489
0.000113087
0.000274874
0.000131182
0.000270923
0.000152798
0.00026671
0.000178432
0.000262442
0.000208994
0.000258432
0.000244137
0.000255349
0.00028413
0.000253875
0.00032588
0.000365842
0.000302714
7.00367e-06
0.000302108
1.92411e-05
0.000301182
2.95973e-05
0.000299978
3.86156e-05
0.000298513
4.71976e-05
0.000296786
5.59692e-05
0.000294788
6.53264e-05
0.000292503
7.56329e-05
0.000289908
8.72837e-05
0.000286981
0.000100689
0.000283707
0.000116362
0.000280082
0.000134807
0.000276142
0.000156737
0.000271976
0.000182598
0.000267806
0.000213164
0.000263964
0.000247979
0.000261117
0.000286977
0.000259946
0.00032705
0.000364287
0.000308267
7.23143e-06
0.00030765
1.98579e-05
0.000306709
3.05381e-05
0.000305485
3.98393e-05
0.000303997
4.86861e-05
0.000302244
5.7722e-05
0.000300218
6.73528e-05
0.000297902
7.79487e-05
0.000295277
8.99086e-05
0.000292323
0.000103643
0.000289028
0.000119657
0.000285395
0.00013844
0.000281471
0.000160662
0.000277356
0.000186713
0.000273289
0.000217231
0.000269618
0.000251649
0.000267005
0.000289591
0.000266126
0.00032793
0.000362499
0.000313921
7.46336e-06
0.000313294
2.04852e-05
0.000312338
3.14944e-05
0.000311094
4.10828e-05
0.000309582
5.01981e-05
0.000307803
5.95012e-05
0.000305748
6.94079e-05
0.000303402
8.02945e-05
0.000300748
9.2563e-05
0.000297767
0.000106623
0.000294453
0.000122971
0.000290816
0.000142077
0.00028691
0.000164568
0.000282851
0.000190772
0.000278892
0.00022119
0.000275396
0.000255145
0.000273016
0.000291971
0.000272415
0.00032853
0.000360492
0.00031968
7.69952e-06
0.000319042
2.11234e-05
0.00031807
3.24665e-05
0.000316806
4.23464e-05
0.000315271
5.17336e-05
0.000313465
6.13069e-05
0.000311381
7.14917e-05
0.000309006
8.267e-05
0.000306322
9.52464e-05
0.000303317
0.000109629
0.000299985
0.000126302
0.000296346
0.000145717
0.000292462
0.000168452
0.000288464
0.00019477
0.000284618
0.000225037
0.0002813
0.000258463
0.000279149
0.000294121
0.000278815
0.000328865
0.000358284
0.000325544
7.93997e-06
0.000324895
2.17724e-05
0.000323907
3.34544e-05
0.000322623
4.36301e-05
0.000321064
5.32929e-05
0.000319232
6.31393e-05
0.000317119
7.36041e-05
0.000314714
8.50749e-05
0.000312003
9.79581e-05
0.000308973
0.000112659
0.000305626
0.000129649
0.000301987
0.000149356
0.00029813
0.000172308
0.000294198
0.000198703
0.000290468
0.000228767
0.00028733
0.000261601
0.000285407
0.000296044
0.000285326
0.000328947
0.000355891
0.000331516
8.18477e-06
0.000330856
2.24325e-05
0.000329852
3.44584e-05
0.000328548
4.49342e-05
0.000326965
5.48762e-05
0.000325106
6.49983e-05
0.000322965
7.5745e-05
0.000320531
8.75089e-05
0.000317791
0.000100697
0.000314739
0.000115711
0.000311379
0.000133009
0.000307743
0.000152992
0.000303917
0.000176135
0.000300054
0.000202565
0.000296446
0.000232375
0.000293488
0.000264558
0.00029179
0.000297742
0.00029195
0.000328787
0.000353328
0.000337597
8.434e-06
0.000336926
2.31037e-05
0.000335906
3.54786e-05
0.000334581
4.62588e-05
0.000332974
5.64834e-05
0.000331088
6.6884e-05
0.000328919
7.79144e-05
0.000326456
8.99717e-05
0.00032369
0.000103464
0.000320616
0.000118786
0.000317245
0.00013638
0.000313616
0.000156621
0.000309824
0.000179926
0.000306036
0.000206353
0.000302553
0.000235859
0.000299777
0.000267334
0.000298299
0.00029922
0.000298687
0.000328399
0.00035061
0.00034379
8.6877e-06
0.000343108
2.37862e-05
0.000342071
3.65151e-05
0.000340726
4.76042e-05
0.000339094
5.81149e-05
0.000337182
6.87964e-05
0.000334984
8.0112e-05
0.000332493
9.24628e-05
0.000329701
0.000106256
0.000326607
0.00012188
0.000323226
0.00013976
0.000319607
0.00016024
0.000315854
0.000183679
0.000312145
0.000210062
0.000308791
0.000239213
0.000306198
0.000269926
0.000304936
0.000300482
0.00030554
0.000327796
0.000347752
0.000350097
8.94595e-06
0.000349403
2.44802e-05
0.00034835
3.75682e-05
0.000346984
4.89704e-05
0.000345328
5.97705e-05
0.000343389
7.07357e-05
0.000341163
8.23378e-05
0.000338644
9.49817e-05
0.000335827
0.000109073
0.000332714
0.000124993
0.000329327
0.000143147
0.00032572
0.000163846
0.00032201
0.00018739
0.000318384
0.000213687
0.000315162
0.000242436
0.000312752
0.000272336
0.000311702
0.000301532
0.000312509
0.000326988
0.000344768
0.000356519
9.20881e-06
0.000355814
2.51856e-05
0.000354744
3.8638e-05
0.000353357
5.03575e-05
0.000351677
6.14506e-05
0.000349711
7.27016e-05
0.000347457
8.45914e-05
0.000344911
9.75279e-05
0.000342069
0.000111914
0.000338939
0.000128123
0.000335548
0.000146538
0.000331958
0.000167436
0.000328294
0.000191054
0.000324756
0.000217225
0.000321669
0.000245523
0.000319442
0.000274562
0.000318597
0.000302377
0.000319595
0.00032599
0.000341672
0.000363059
9.47633e-06
0.000362342
2.59028e-05
0.000361256
3.97245e-05
0.000359847
5.17658e-05
0.000358143
6.31551e-05
0.00035615
7.46942e-05
0.000353869
8.68727e-05
0.000351296
0.000100101
0.000348431
0.000114779
0.000345286
0.000131269
0.000341893
0.000149931
0.000338322
0.000171007
0.000334709
0.000194668
0.000331263
0.000220671
0.000328313
0.000248473
0.000326268
0.000276607
0.000325623
0.000303022
0.000326802
0.000324811
0.000338476
0.000369719
9.74857e-06
0.00036899
2.66318e-05
0.000367887
4.0828e-05
0.000366457
5.31953e-05
0.000364728
6.48841e-05
0.000362709
7.67135e-05
0.000360401
8.91813e-05
0.000357801
0.0001027
0.000354915
0.000117666
0.000351756
0.000134428
0.000348363
0.000153323
0.000344816
0.000174554
0.000341257
0.000198227
0.000337906
0.000224021
0.000335097
0.000251283
0.000333233
0.000278472
0.000332782
0.000303473
0.000334129
0.000323465
0.000335194
0.000376502
1.00256e-05
0.000375761
2.73727e-05
0.00037464
4.19486e-05
0.00037319
5.46462e-05
0.000371436
6.66376e-05
0.00036939
7.87592e-05
0.000367055
9.1517e-05
0.00036443
0.000105325
0.000361523
0.000120573
0.000358352
0.000137599
0.000354963
0.000156712
0.000351442
0.000178075
0.000347941
0.000201727
0.00034469
0.000227272
0.000342023
0.00025395
0.000340338
0.000280157
0.000340076
0.000303735
0.000341579
0.000321961
0.000331836
0.000383409
1.03075e-05
0.000382656
2.81256e-05
0.000381518
4.30864e-05
0.000380046
5.61185e-05
0.000378268
6.84156e-05
0.000376196
8.08313e-05
0.000373833
9.38792e-05
0.000371184
0.000107974
0.000368257
0.0001235
0.000365076
0.00014078
0.000361693
0.000160095
0.000358202
0.000181566
0.000354764
0.000205165
0.000351616
0.000230421
0.000349093
0.000256473
0.000347585
0.000281665
0.000347504
0.000303815
0.000349154
0.000320312
0.000328413
0.000390442
1.05942e-05
0.000389677
2.88906e-05
0.000388522
4.42415e-05
0.000387028
5.76122e-05
0.000385226
7.02181e-05
0.000383128
8.29296e-05
0.000380739
9.62677e-05
0.000378066
0.000110647
0.000375121
0.000126445
0.000371932
0.000143969
0.000368558
0.000163469
0.000365101
0.000185024
0.000361729
0.000208537
0.000358687
0.000233463
0.000356309
0.000258851
0.000354976
0.000282998
0.00035507
0.000303721
0.000356855
0.000318527
0.000324936
0.000397605
1.08859e-05
0.000396828
2.96679e-05
0.000395655
4.54139e-05
0.00039414
5.91275e-05
0.000392313
7.20452e-05
0.000390189
8.50538e-05
0.000387775
9.86818e-05
0.000385078
0.000113343
0.000382117
0.000129407
0.000378922
0.000147164
0.00037556
0.000166832
0.000372139
0.000188444
0.000368838
0.000211838
0.000365905
0.000236397
0.000363673
0.000261082
0.000362512
0.00028416
0.000362775
0.000303458
0.000364685
0.000316617
0.000321414
0.000404899
1.11826e-05
0.00040411
3.04576e-05
0.00040292
4.66039e-05
0.000401383
6.06645e-05
0.000399531
7.38966e-05
0.000397381
8.72038e-05
0.000394942
0.000101121
0.000392224
0.000116061
0.000389247
0.000132384
0.000386049
0.000150362
0.000382701
0.000170179
0.000379321
0.000191824
0.000376093
0.000215066
0.000373272
0.000239218
0.000371188
0.000263166
0.000370196
0.000285152
0.00037062
0.000303034
0.000372646
0.000314591
0.000317857
0.000412327
1.14844e-05
0.000411525
3.12597e-05
0.000410318
4.78115e-05
0.000408759
6.2223e-05
0.000406883
7.57724e-05
0.000404708
8.93792e-05
0.000402244
0.000103585
0.000399505
0.0001188
0.000396514
0.000135375
0.000393315
0.000153561
0.000389985
0.000173509
0.000386649
0.00019516
0.000383499
0.000218216
0.000380792
0.000241924
0.000378856
0.000265102
0.000378029
0.000285978
0.000378608
0.000302455
0.00038074
0.000312459
0.000314271
0.000419892
1.17912e-05
0.000419077
3.20743e-05
0.000417852
4.90367e-05
0.000416272
6.38032e-05
0.000414372
7.76724e-05
0.000412171
9.15798e-05
0.000409683
0.000106073
0.000406924
0.000121559
0.000403921
0.000138378
0.000400723
0.000156759
0.000397414
0.000176818
0.000394126
0.000198448
0.000391057
0.000221285
0.000388467
0.000244513
0.000386678
0.000266891
0.000386014
0.000286643
0.00038674
0.00030173
0.000388969
0.000310229
0.000310666
0.000427595
1.21032e-05
0.000426768
3.29016e-05
0.000425525
5.02796e-05
0.000423923
6.5405e-05
0.000421999
7.95965e-05
0.000419773
9.38051e-05
0.000417262
0.000108584
0.000414485
0.000124337
0.000411471
0.000141391
0.000408277
0.000159954
0.000404991
0.000180104
0.000401755
0.000201685
0.00039877
0.00022427
0.0003963
0.000246983
0.000394658
0.000268533
0.000394152
0.000287149
0.000395018
0.000300864
0.000397336
0.000307911
0.000307047
0.000435439
1.24204e-05
0.000434599
3.37415e-05
0.000433339
5.15402e-05
0.000431715
6.70284e-05
0.000429767
8.15445e-05
0.000427518
9.60547e-05
0.000424984
0.000111118
0.000422189
0.000127133
0.000419167
0.000144413
0.000415979
0.000163142
0.00041272
0.000183362
0.000409538
0.000204867
0.000406641
0.000227167
0.000404292
0.000249332
0.000402798
0.000270028
0.000402446
0.0002875
0.000403445
0.000299865
0.000405843
0.000305513
0.000303421
0.000443428
1.27428e-05
0.000442575
3.45942e-05
0.000441297
5.28187e-05
0.000439652
6.86733e-05
0.00043768
8.35162e-05
0.000435407
9.83283e-05
0.000432851
0.000113673
0.00043004
0.000129944
0.000427012
0.000147441
0.000423832
0.000166322
0.000420604
0.00018659
0.00041748
0.00020799
0.000414673
0.000229974
0.000412448
0.000251558
0.000411099
0.000271377
0.000410897
0.000287701
0.000412022
0.000298739
0.000414493
0.000303042
0.000299794
0.000451563
1.30704e-05
0.000450698
3.54597e-05
0.000449401
5.41149e-05
0.000447735
7.03397e-05
0.00044574
8.55113e-05
0.000443443
0.000100625
0.000440867
0.000116249
0.00043804
0.000132771
0.000435008
0.000150474
0.000431839
0.000169491
0.000428645
0.000189785
0.000425583
0.000211052
0.00042287
0.000232687
0.000420768
0.00025366
0.000419564
0.000272581
0.000419508
0.000287757
0.000420753
0.000297495
0.000423289
0.000300505
0.000296171
0.000459848
1.34033e-05
0.000458969
3.63381e-05
0.000457655
5.5429e-05
0.000455967
7.20274e-05
0.000453949
8.75296e-05
0.000451629
0.000102945
0.000449033
0.000118845
0.000446194
0.000135611
0.000443158
0.000153509
0.000440004
0.000172645
0.000436846
0.000192942
0.000433849
0.000214049
0.000431233
0.000235303
0.000429257
0.000255636
0.000428195
0.000273642
0.000428281
0.000287672
0.000429638
0.000296138
0.000432233
0.000297911
0.000292557
0.000468284
1.37415e-05
0.000467393
3.72294e-05
0.000466061
5.67608e-05
0.000464352
7.37363e-05
0.000462311
8.95708e-05
0.000459969
0.000105287
0.000457354
0.000121459
0.000454502
0.000138463
0.000451467
0.000156544
0.000448329
0.000175783
0.000445212
0.00019606
0.000442283
0.000216977
0.000439766
0.000237821
0.000437916
0.000257486
0.000436996
0.000274561
0.000437218
0.00028745
0.000438681
0.000294675
0.000441327
0.000295264
0.000288955
0.000476875
1.40851e-05
0.000475971
3.81336e-05
0.000474622
5.81104e-05
0.000472892
7.54663e-05
0.000470828
9.16344e-05
0.000468464
0.000107651
0.000465832
0.000124092
0.00046297
0.000141325
0.000459936
0.000159578
0.000456819
0.0001789
0.000453744
0.000199135
0.000450887
0.000219834
0.000448471
0.000240237
0.000446748
0.000259209
0.000445968
0.000275341
0.000446322
0.000287096
0.000447884
0.000293113
0.000450576
0.000292572
0.00028537
0.000485624
1.4434e-05
0.000484707
3.90508e-05
0.00048334
5.94777e-05
0.000481589
7.72172e-05
0.000479503
9.37202e-05
0.000477119
0.000110035
0.00047447
0.000126741
0.000471599
0.000144195
0.00046857
0.000162607
0.000465475
0.000181996
0.000462447
0.000202163
0.000459665
0.000222616
0.000457352
0.000242549
0.000455757
0.000260805
0.000455114
0.000275984
0.000455595
0.000286615
0.00045725
0.000291458