/*--------------------------------*- C++ -*----------------------------------*\
| =========                 |                                                 |
| \\      /  F ield         | OpenFOAM: The Open Source CFD Toolbox           |
|  \\    /   O peration     | Version:  v1912                                 |
|   \\  /    A nd           | Website:  www.openfoam.com                      |
|    \\/     M anipulation  |                                                 |
\*---------------------------------------------------------------------------*/
FoamFile
{
    version     2.0;
    format      ascii;
    class       volVectorField;
    location    "3500";
    object      U;
}
// * * * * * * * * * * * * * * * * * * * * * * * * * * * * * * * * * * * * * //

dimensions      [0 1 -1 0 0 0 0];


internalField   nonuniform List<vector> 
3102
(
(29.9954 0.000122853 0)
(29.9549 0.000382012 0)
(29.8767 0.000664915 0)
(29.7681 0.000976048 0)
(29.6322 0.00134421 0)
(29.4685 0.00179882 0)
(29.2754 0.00237228 0)
(29.05 0.00310852 0)
(28.7878 0.00407023 0)
(28.4824 0.00534421 0)
(28.1254 0.0070654 0)
(27.7041 0.00942189 0)
(27.2034 0.0127497 0)
(26.5949 0.0175016 0)
(25.8526 0.0246409 0)
(24.9014 0.0354983 0)
(23.6987 0.0529129 0)
(22.0235 0.082621 0)
(29.9954 0.000367168 0)
(29.9549 0.00114387 0)
(29.8767 0.00198998 0)
(29.7681 0.00292243 0)
(29.6322 0.00402529 0)
(29.4685 0.00538621 0)
(29.2754 0.00710237 0)
(29.05 0.00930496 0)
(28.7879 0.0121807 0)
(28.4825 0.015989 0)
(28.1256 0.0211303 0)
(27.7043 0.0281684 0)
(27.2038 0.0380915 0)
(26.5955 0.0522746 0)
(25.8537 0.0734946 0)
(24.9033 0.105916 0)
(23.7024 0.157389 0)
(22.03 0.246333 0)
(29.9954 0.000611096 0)
(29.9549 0.00190464 0)
(29.8767 0.00331101 0)
(29.7682 0.00486411 0)
(29.6322 0.00670048 0)
(29.4685 0.00896534 0)
(29.2755 0.0118208 0)
(29.0501 0.0154847 0)
(28.788 0.020267 0)
(28.4827 0.0265984 0)
(28.1259 0.0351412 0)
(27.7048 0.0468353 0)
(27.2045 0.0633005 0)
(26.5968 0.0868575 0)
(25.8559 0.12197 0)
(24.907 0.175848 0)
(23.7096 0.260608 0)
(22.0426 0.408716 0)
(29.9954 0.000856556 0)
(29.9549 0.00266725 0)
(29.8767 0.00463416 0)
(29.7682 0.00680846 0)
(29.6323 0.00937922 0)
(29.4686 0.0125493 0)
(29.2755 0.0165458 0)
(29.0502 0.0216739 0)
(28.7882 0.0283663 0)
(28.483 0.0372265 0)
(28.1263 0.0491787 0)
(27.7055 0.0655404 0)
(27.2056 0.0885642 0)
(26.5986 0.121516 0)
(25.859 0.170555 0)
(24.9126 0.245901 0)
(23.7202 0.364015 0)
(22.0612 0.571057 0)
(29.9954 0.00110228 0)
(29.9549 0.00343015 0)
(29.8767 0.00595786 0)
(29.7682 0.00875342 0)
(29.6323 0.0120587 0)
(29.4686 0.0161341 0)
(29.2756 0.0212719 0)
(29.0504 0.0278642 0)
(28.7884 0.0364669 0)
(28.4833 0.0478555 0)
(28.1269 0.0632159 0)
(27.7064 0.0842416 0)
(27.2071 0.113817 0)
(26.6011 0.156142 0)
(25.8633 0.219072 0)
(24.9199 0.315745 0)
(23.7343 0.467058 0)
(22.086 0.732131 0)
(29.9954 0.00134791 0)
(29.9549 0.00419289 0)
(29.8767 0.00728138 0)
(29.7682 0.0106981 0)
(29.6323 0.0147376 0)
(29.4687 0.0197181 0)
(29.2758 0.0259967 0)
(29.0506 0.0340522 0)
(28.7887 0.0445636 0)
(28.4838 0.0584776 0)
(28.1276 0.0772411 0)
(27.7075 0.102921 0)
(27.209 0.139028 0)
(26.6041 0.190686 0)
(25.8685 0.267431 0)
(24.929 0.385219 0)
(23.7519 0.569413 0)
(22.1167 0.891292 0)
(29.9954 0.00159346 0)
(29.9549 0.00495548 0)
(29.8767 0.00860467 0)
(29.7683 0.0126424 0)
(29.6324 0.0174159 0)
(29.4688 0.0233011 0)
(29.2759 0.0307198 0)
(29.0508 0.0402374 0)
(28.7891 0.0526556 0)
(28.4843 0.0690917 0)
(28.1285 0.091252 0)
(27.7089 0.121574 0)
(27.2112 0.164191 0)
(26.6078 0.225131 0)
(25.8748 0.315599 0)
(24.94 0.454251 0)
(23.7729 0.670923 0)
(22.1533 1.04817 0)
(29.9954 0.00183896 0)
(29.955 0.00571796 0)
(29.8768 0.00992777 0)
(29.7683 0.0145863 0)
(29.6325 0.0200936 0)
(29.4689 0.0268831 0)
(29.2761 0.0354411 0)
(29.0511 0.0464198 0)
(28.7895 0.0607426 0)
(28.485 0.079697 0)
(28.1295 0.105247 0)
(27.7105 0.140197 0)
(27.2138 0.189298 0)
(26.6121 0.259465 0)
(25.8821 0.363548 0)
(24.9527 0.522775 0)
(23.7971 0.771452 0)
(22.1957 1.20239 0)
(29.9954 0.00208442 0)
(29.955 0.00648032 0)
(29.8768 0.0112506 0)
(29.7683 0.0165298 0)
(29.6325 0.0227706 0)
(29.469 0.0304639 0)
(29.2763 0.0401606 0)
(29.0514 0.0525988 0)
(28.7899 0.0688239 0)
(28.4857 0.0902921 0)
(28.1306 0.119224 0)
(27.7123 0.158787 0)
(27.2167 0.214341 0)
(26.6169 0.29367 0)
(25.8904 0.411246 0)
(24.9671 0.590717 0)
(23.8246 0.870858 0)
(22.2438 1.35357 0)
(29.9954 0.00232982 0)
(29.955 0.00724253 0)
(29.8768 0.0125733 0)
(29.7684 0.0184729 0)
(29.6326 0.0254469 0)
(29.4692 0.0340435 0)
(29.2765 0.0448779 0)
(29.0517 0.0587741 0)
(28.7905 0.0768987 0)
(28.4866 0.100876 0)
(28.1319 0.13318 0)
(27.7144 0.177338 0)
(27.22 0.239312 0)
(26.6224 0.327731 0)
(25.8997 0.458658 0)
(24.9832 0.658007 0)
(23.8551 0.968998 0)
(22.2972 1.50135 0)
(29.9954 0.00257516 0)
(29.955 0.00800458 0)
(29.8768 0.0138956 0)
(29.7684 0.0204156 0)
(29.6327 0.0281223 0)
(29.4693 0.0376216 0)
(29.2767 0.0495927 0)
(29.0521 0.0649453 0)
(28.7911 0.0849662 0)
(28.4875 0.111447 0)
(28.1334 0.147113 0)
(27.7167 0.195847 0)
(27.2237 0.264202 0)
(26.6284 0.36163 0)
(25.91 0.505754 0)
(25.001 0.724576 0)
(23.8886 1.06574 0)
(22.356 1.64537 0)
(29.9954 0.00282045 0)
(29.955 0.00876647 0)
(29.8769 0.0152177 0)
(29.7685 0.0223576 0)
(29.6328 0.0307968 0)
(29.4695 0.0411981 0)
(29.277 0.0543049 0)
(29.0525 0.0711118 0)
(28.7917 0.0930257 0)
(28.4885 0.122003 0)
(28.135 0.16102 0)
(27.7191 0.214309 0)
(27.2277 0.289003 0)
(26.635 0.395353 0)
(25.9212 0.552502 0)
(25.0205 0.79036 0)
(23.925 1.16095 0)
(22.4197 1.78528 0)
(29.9954 0.00306566 0)
(29.955 0.00952817 0)
(29.8769 0.0165394 0)
(29.7686 0.0242991 0)
(29.6329 0.0334703 0)
(29.4697 0.0447729 0)
(29.2773 0.059014 0)
(29.053 0.0772733 0)
(28.7924 0.101076 0)
(28.4896 0.132545 0)
(28.1367 0.1749 0)
(27.7219 0.23272 0)
(27.232 0.313708 0)
(26.6422 0.428884 0)
(25.9334 0.598872 0)
(25.0415 0.855297 0)
(23.9641 1.25452 0)
(22.4883 1.92077 0)
(29.9954 0.00331071 0)
(29.955 0.0102895 0)
(29.8769 0.0178607 0)
(29.7686 0.0262397 0)
(29.6331 0.0361424 0)
(29.4699 0.0483454 0)
(29.2776 0.0637195 0)
(29.0535 0.0834286 0)
(28.7932 0.109117 0)
(28.4908 0.143068 0)
(28.1385 0.188748 0)
(27.7248 0.251073 0)
(27.2367 0.338304 0)
(26.6499 0.462203 0)
(25.9465 0.644828 0)
(25.0641 0.919322 0)
(24.0058 1.34631 0)
(22.5614 2.05155 0)
(29.9954 0.00355544 0)
(29.955 0.0110504 0)
(29.877 0.0191813 0)
(29.7687 0.0281794 0)
(29.6332 0.0388128 0)
(29.4701 0.0519154 0)
(29.278 0.0684208 0)
(29.054 0.0895769 0)
(28.794 0.117145 0)
(28.4921 0.153571 0)
(28.1405 0.20256 0)
(27.728 0.26936 0)
(27.2418 0.362781 0)
(26.6582 0.495289 0)
(25.9605 0.690333 0)
(25.0882 0.982363 0)
(24.0499 1.4362 0)
(22.6389 2.17733 0)
(29.9954 0.00379333 0)
(29.9551 0.0117901 0)
(29.877 0.0204654 0)
(29.7688 0.0300651 0)
(29.6333 0.0414087 0)
(29.4703 0.0553851 0)
(29.2783 0.0729894 0)
(29.0546 0.0955505 0)
(28.7949 0.124943 0)
(28.4934 0.163768 0)
(28.1426 0.215961 0)
(27.7312 0.287088 0)
(27.247 0.386476 0)
(26.6668 0.527246 0)
(25.9749 0.73416 0)
(25.1131 1.04271 0)
(24.0949 1.5218 0)
(22.7183 2.2946 0)
(29.9954 0.0040265 0)
(29.9551 0.0125151 0)
(29.8771 0.0217242 0)
(29.7689 0.0319134 0)
(29.6335 0.0439527 0)
(29.4706 0.0587853 0)
(29.2787 0.0774656 0)
(29.0551 0.101402 0)
(28.7958 0.132579 0)
(28.4948 0.173749 0)
(28.1448 0.229071 0)
(27.7346 0.304412 0)
(27.2525 0.4096 0)
(26.6758 0.558363 0)
(25.9898 0.776707 0)
(25.1387 1.10094 0)
(24.1409 1.6039 0)
(22.7997 2.40474 0)
(29.9954 0.00426372 0)
(29.9551 0.0132529 0)
(29.8771 0.0230053 0)
(29.769 0.0337943 0)
(29.6336 0.0465414 0)
(29.4708 0.0622445 0)
(29.2791 0.0820187 0)
(29.0558 0.107352 0)
(28.7968 0.140341 0)
(28.4963 0.183889 0)
(28.1471 0.242378 0)
(27.7383 0.321979 0)
(27.2583 0.43301 0)
(26.6853 0.589791 0)
(26.0058 0.819527 0)
(25.1661 1.15919 0)
(24.1896 1.68544 0)
(22.8861 2.51193 0)
(29.9954 0.00450533 0)
(29.9551 0.014004 0)
(29.8772 0.024309 0)
(29.769 0.0357085 0)
(29.6338 0.0491757 0)
(29.4711 0.0657642 0)
(29.2795 0.0866503 0)
(29.0564 0.113403 0)
(28.7978 0.148232 0)
(28.4979 0.194191 0)
(28.1496 0.255887 0)
(27.7422 0.339791 0)
(27.2646 0.456706 0)
(26.6956 0.621524 0)
(26.0228 0.862598 0)
(25.1953 1.21742 0)
(24.2407 1.76627 0)
(22.9777 2.61607 0)
(29.9954 0.0047515 0)
(29.9551 0.0147689 0)
(29.8772 0.0256361 0)
(29.7691 0.0376569 0)
(29.634 0.0518566 0)
(29.4714 0.0693455 0)
(29.28 0.0913621 0)
(29.0572 0.119557 0)
(28.7989 0.156253 0)
(28.4996 0.204657 0)
(28.1523 0.269599 0)
(27.7465 0.357851 0)
(27.2713 0.480688 0)
(26.7065 0.653554 0)
(26.0409 0.905896 0)
(25.2263 1.27559 0)
(24.2943 1.84625 0)
(23.0743 2.71707 0)
(29.9954 0.00500232 0)
(29.9552 0.0155476 0)
(29.8773 0.0269868 0)
(29.7693 0.0396398 0)
(29.6341 0.0545849 0)
(29.4717 0.0729895 0)
(29.2805 0.0961551 0)
(29.0579 0.125815 0)
(28.8001 0.164405 0)
(28.5015 0.215288 0)
(28.1551 0.283515 0)
(27.751 0.376155 0)
(27.2785 0.504947 0)
(26.7182 0.685865 0)
(26.0601 0.949381 0)
(25.2592 1.33362 0)
(24.3504 1.9252 0)
(23.1758 2.81485 0)
(29.9954 0.00525787 0)
(29.9552 0.0163405 0)
(29.8773 0.0283616 0)
(29.7694 0.041658 0)
(29.6343 0.0573612 0)
(29.472 0.076697 0)
(29.281 0.10103 0)
(29.0588 0.132178 0)
(28.8014 0.172691 0)
(28.5034 0.226085 0)
(28.1582 0.297635 0)
(27.7558 0.394702 0)
(27.2861 0.529476 0)
(26.7306 0.718439 0)
(26.0804 0.993012 0)
(25.2938 1.39144 0)
(24.4087 2.00294 0)
(23.282 2.90936 0)
(29.9955 0.00551824 0)
(29.9552 0.0171478 0)
(29.8774 0.0297608 0)
(29.7695 0.0437118 0)
(29.6346 0.0601863 0)
(29.4724 0.0804688 0)
(29.2816 0.105989 0)
(29.0596 0.138647 0)
(28.8028 0.181111 0)
(28.5056 0.237049 0)
(28.1615 0.311957 0)
(27.7609 0.413486 0)
(27.2942 0.554264 0)
(26.7438 0.751254 0)
(26.1019 1.03675 0)
(25.3304 1.44898 0)
(24.4694 2.07929 0)
(23.3927 3.00059 0)
(29.9955 0.00578351 0)
(29.9553 0.0179697 0)
(29.8775 0.0311848 0)
(29.7696 0.0458019 0)
(29.6348 0.0630608 0)
(29.4728 0.0843057 0)
(29.2822 0.111031 0)
(29.0606 0.145224 0)
(28.8042 0.189665 0)
(28.5078 0.248179 0)
(28.1649 0.326481 0)
(27.7664 0.432506 0)
(27.3028 0.579304 0)
(26.7577 0.784292 0)
(26.1245 1.08054 0)
(25.3687 1.50618 0)
(24.5323 2.15408 0)
(23.5073 3.0885 0)
(29.9955 0.00605377 0)
(29.9553 0.0188064 0)
(29.8775 0.032634 0)
(29.7698 0.0479287 0)
(29.635 0.0659854 0)
(29.4732 0.0882087 0)
(29.2828 0.116159 0)
(29.0616 0.151908 0)
(28.8058 0.198354 0)
(28.5102 0.259477 0)
(28.1686 0.341205 0)
(27.7722 0.451757 0)
(27.3119 0.604584 0)
(26.7725 0.81753 0)
(26.1483 1.12434 0)
(25.4089 1.56295 0)
(24.5974 2.22714 0)
(23.6255 3.17307 0)
(29.9955 0.00632912 0)
(29.9553 0.0196583 0)
(29.8776 0.0341087 0)
(29.7699 0.0500929 0)
(29.6353 0.068961 0)
(29.4736 0.0921785 0)
(29.2835 0.121373 0)
(29.0627 0.158702 0)
(28.8074 0.207181 0)
(28.5127 0.270942 0)
(28.1726 0.356129 0)
(27.7783 0.471233 0)
(27.3216 0.630092 0)
(26.788 0.850946 0)
(26.1733 1.16811 0)
(25.4509 1.61924 0)
(24.6647 2.29832 0)
(23.7467 3.25422 0)
(29.9955 0.00660964 0)
(29.9554 0.0205255 0)
(29.8777 0.0356094 0)
(29.7701 0.0522949 0)
(29.6356 0.071988 0)
(29.4741 0.0962161 0)
(29.2843 0.126674 0)
(29.0638 0.165606 0)
(28.8092 0.216144 0)
(28.5154 0.282574 0)
(28.1767 0.37125 0)
(27.7848 0.490931 0)
(27.3318 0.655818 0)
(26.8044 0.884514 0)
(26.1995 1.21179 0)
(25.4947 1.67495 0)
(24.7342 2.3675 0)
(23.8703 3.33187 0)
(29.9955 0.00689544 0)
(29.9554 0.0214083 0)
(29.8778 0.0371364 0)
(29.7702 0.0545354 0)
(29.6359 0.0750674 0)
(29.4746 0.100322 0)
(29.285 0.132063 0)
(29.065 0.172621 0)
(28.811 0.225244 0)
(28.5183 0.294373 0)
(28.1811 0.386566 0)
(27.7916 0.510843 0)
(27.3425 0.681747 0)
(26.8216 0.91821 0)
(26.2269 1.25534 0)
(25.5402 1.73002 0)
(24.8057 2.43455 0)
(23.9958 3.40592 0)
(29.9955 0.00718659 0)
(29.9554 0.022307 0)
(29.8779 0.0386902 0)
(29.7704 0.0568149 0)
(29.6362 0.0781996 0)
(29.4751 0.104498 0)
(29.2859 0.137541 0)
(29.0663 0.179748 0)
(28.813 0.234483 0)
(28.5213 0.306338 0)
(28.1858 0.402075 0)
(27.7989 0.530965 0)
(27.3538 0.707866 0)
(26.8396 0.952006 0)
(26.2556 1.2987 0)
(25.5875 1.78436 0)
(24.8793 2.49938 0)
(24.1227 3.47623 0)
(29.9955 0.00748321 0)
(29.9555 0.0232218 0)
(29.878 0.0402712 0)
(29.7706 0.0591339 0)
(29.6365 0.0813856 0)
(29.4756 0.108744 0)
(29.2867 0.143108 0)
(29.0676 0.186987 0)
(28.8151 0.24386 0)
(28.5245 0.31847 0)
(28.1907 0.417774 0)
(27.8065 0.551288 0)
(27.3657 0.73416 0)
(26.8585 0.985875 0)
(26.2854 1.34183 0)
(25.6364 1.8379 0)
(24.955 2.5619 0)
(24.2504 3.54266 0)
(29.9955 0.00778539 0)
(29.9555 0.0241529 0)
(29.8781 0.0418797 0)
(29.7708 0.061493 0)
(29.6369 0.0846259 0)
(29.4762 0.11306 0)
(29.2876 0.148766 0)
(29.0691 0.194339 0)
(28.8173 0.253376 0)
(28.5279 0.330766 0)
(28.1959 0.433661 0)
(27.8145 0.571806 0)
(27.3782 0.760614 0)
(26.8783 1.01979 0)
(26.3165 1.38468 0)
(25.6869 1.89056 0)
(25.0326 2.62206 0)
(24.3787 3.60507 0)
(29.9955 0.00809322 0)
(29.9556 0.0251007 0)
(29.8782 0.0435161 0)
(29.771 0.0638927 0)
(29.6373 0.0879212 0)
(29.4768 0.117449 0)
(29.2886 0.154516 0)
(29.0706 0.201806 0)
(28.8196 0.26303 0)
(28.5314 0.343226 0)
(28.2013 0.449731 0)
(27.823 0.592511 0)
(27.3913 0.787211 0)
(26.899 1.05371 0)
(26.3489 1.42719 0)
(25.7389 1.94225 0)
(25.1121 2.67981 0)
(24.5071 3.66331 0)
(29.9955 0.00840681 0)
(29.9556 0.0260654 0)
(29.8783 0.0451808 0)
(29.7713 0.0663336 0)
(29.6377 0.0912722 0)
(29.4775 0.12191 0)
(29.2896 0.160357 0)
(29.0722 0.209387 0)
(28.822 0.272824 0)
(28.5352 0.355849 0)
(28.2071 0.46598 0)
(27.8318 0.613393 0)
(27.4051 0.813934 0)
(26.9205 1.08762 0)
(26.3825 1.46932 0)
(25.7924 1.9929 0)
(25.1934 2.7351 0)
(24.6354 3.71729 0)
(29.9955 0.00872625 0)
(29.9557 0.0270472 0)
(29.8785 0.0468743 0)
(29.7715 0.0688162 0)
(29.6381 0.0946797 0)
(29.4781 0.126444 0)
(29.2907 0.166292 0)
(29.0738 0.217083 0)
(28.8246 0.282755 0)
(28.5391 0.368633 0)
(28.2131 0.482405 0)
(27.8411 0.634443 0)
(27.4194 0.840765 0)
(26.943 1.12147 0)
(26.4173 1.51101 0)
(25.8474 2.04241 0)
(25.2763 2.78791 0)
(24.7634 3.76691 0)
(24.4072 5.08883 0)
(29.9955 0.00905165 0)
(29.9557 0.0280464 0)
(29.8786 0.0485969 0)
(29.7717 0.071341 0)
(29.6385 0.0981441 0)
(29.4789 0.131052 0)
(29.2919 0.17232 0)
(29.0756 0.224894 0)
(28.8273 0.292826 0)
(28.5433 0.381576 0)
(28.2194 0.499 0)
(27.8509 0.655652 0)
(27.4344 0.867685 0)
(26.9663 1.15524 0)
(26.4533 1.55221 0)
(25.9037 2.09073 0)
(25.3608 2.8382 0)
(24.8909 3.81214 0)
(24.5839 5.09847 0)
(29.9955 0.00938311 0)
(29.9558 0.0290633 0)
(29.8787 0.050349 0)
(29.772 0.0739087 0)
(29.639 0.101666 0)
(29.4796 0.135735 0)
(29.2931 0.178442 0)
(29.0775 0.23282 0)
(28.8302 0.303033 0)
(28.5476 0.394677 0)
(28.2261 0.515762 0)
(27.8611 0.677008 0)
(27.4501 0.894674 0)
(26.9906 1.18889 0)
(26.4905 1.59288 0)
(25.9614 2.13778 0)
(25.4467 2.88597 0)
(25.0179 3.85298 0)
(24.7587 5.10319 0)
(29.9955 0.00972074 0)
(29.9559 0.0300981 0)
(29.8789 0.0521311 0)
(29.7723 0.0765197 0)
(29.6395 0.105247 0)
(29.4804 0.140494 0)
(29.2943 0.184658 0)
(29.0794 0.240863 0)
(28.8332 0.313378 0)
(28.5522 0.407932 0)
(28.2331 0.532683 0)
(27.8718 0.698501 0)
(27.4664 0.921712 0)
(27.0158 1.22238 0)
(26.5289 1.63296 0)
(26.0204 2.18348 0)
(25.5338 2.9312 0)
(25.1442 3.88947 0)
(24.9312 5.10328 0)
(29.9955 0.0100646 0)
(29.9559 0.0311511 0)
(29.879 0.0539434 0)
(29.7726 0.0791745 0)
(29.64 0.108886 0)
(29.4813 0.145328 0)
(29.2957 0.19097 0)
(29.0815 0.249021 0)
(28.8363 0.32386 0)
(28.557 0.421339 0)
(28.2404 0.549757 0)
(27.8829 0.720118 0)
(27.4834 0.948776 0)
(27.0418 1.25568 0)
(26.5685 1.67241 0)
(26.0805 2.22777 0)
(25.622 2.97387 0)
(25.2698 3.92166 0)
(25.1006 5.09897 0)
(29.9956 0.0104149 0)
(29.956 0.0322226 0)
(29.8792 0.0557865 0)
(29.7729 0.0818737 0)
(29.6405 0.112585 0)
(29.4822 0.150239 0)
(29.2971 0.197378 0)
(29.0837 0.257296 0)
(28.8396 0.334476 0)
(28.5621 0.434896 0)
(28.248 0.56698 0)
(27.8945 0.741847 0)
(27.5011 0.975846 0)
(27.0688 1.28876 0)
(26.6093 1.71118 0)
(26.1418 2.27059 0)
(25.7111 3.01397 0)
(25.3947 3.94966 0)
(25.2666 5.09049 0)
(29.9956 0.0107716 0)
(29.9561 0.0333129 0)
(29.8794 0.0576607 0)
(29.7732 0.0846178 0)
(29.6411 0.116344 0)
(29.4831 0.155228 0)
(29.2985 0.203881 0)
(29.0859 0.265686 0)
(28.8431 0.345227 0)
(28.5673 0.448598 0)
(28.256 0.584342 0)
(27.9067 0.763674 0)
(27.5194 1.0029 0)
(27.0967 1.32157 0)
(26.6511 1.74922 0)
(26.2042 2.3119 0)
(25.8009 3.05149 0)
(25.5186 3.97359 0)
(25.4288 5.07802 0)
(29.9956 0.011135 0)
(29.9561 0.0344221 0)
(29.8795 0.0595664 0)
(29.7736 0.0874073 0)
(29.6417 0.120164 0)
(29.4841 0.160293 0)
(29.3001 0.210481 0)
(29.0883 0.274192 0)
(28.8467 0.35611 0)
(28.5728 0.462443 0)
(28.2643 0.601838 0)
(27.9193 0.785585 0)
(27.5385 1.02991 0)
(27.1255 1.35408 0)
(26.6941 1.78648 0)
(26.2676 2.35163 0)
(25.8913 3.08644 0)
(25.6415 3.99358 0)
(25.5872 5.06178 0)
(29.9956 0.011505 0)
(29.9562 0.0355506 0)
(29.8797 0.061504 0)
(29.7739 0.0902427 0)
(29.6423 0.124045 0)
(29.4851 0.165438 0)
(29.3017 0.217178 0)
(29.0908 0.282813 0)
(28.8506 0.367125 0)
(28.5786 0.476426 0)
(28.273 0.619458 0)
(27.9324 0.807567 0)
(27.5583 1.05685 0)
(27.1552 1.38625 0)
(26.7381 1.82291 0)
(26.3319 2.38976 0)
(25.9822 3.11881 0)
(25.7633 4.00977 0)
(25.7417 5.04198 0)
(29.9956 0.0118818 0)
(29.9563 0.0366986 0)
(29.8799 0.0634738 0)
(29.7743 0.0931245 0)
(29.643 0.127988 0)
(29.4862 0.170661 0)
(29.3034 0.223971 0)
(29.0934 0.291548 0)
(28.8545 0.378268 0)
(28.5846 0.490543 0)
(28.2821 0.637195 0)
(27.9461 0.829602 0)
(27.5787 1.08371 0)
(27.1858 1.41805 0)
(26.7831 1.85848 0)
(26.3971 2.42623 0)
(26.0733 3.14862 0)
(25.8839 4.02231 0)
(25.8921 5.01883 0)
(29.9956 0.0122655 0)
(29.9564 0.0378664 0)
(29.8801 0.0654762 0)
(29.7747 0.0960531 0)
(29.6436 0.131993 0)
(29.4873 0.175962 0)
(29.3052 0.230861 0)
(29.0962 0.300398 0)
(28.8587 0.389539 0)
(28.5909 0.50479 0)
(28.2916 0.655039 0)
(27.9603 0.851676 0)
(27.5999 1.11045 0)
(27.2172 1.44943 0)
(26.8291 1.89314 0)
(26.4631 2.46102 0)
(26.1646 3.17587 0)
(26.0032 4.03136 0)
(26.0384 4.99257 0)
(29.9956 0.0126562 0)
(29.9565 0.0390543 0)
(29.8804 0.0675117 0)
(29.7751 0.0990289 0)
(29.6444 0.136061 0)
(29.4885 0.181344 0)
(29.3071 0.237848 0)
(29.0991 0.309361 0)
(28.8631 0.400935 0)
(28.5975 0.519161 0)
(28.3014 0.672981 0)
(27.975 0.873773 0)
(27.6218 1.13704 0)
(27.2496 1.48037 0)
(26.876 1.92684 0)
(26.5299 2.4941 0)
(26.2559 3.20059 0)
(26.1209 4.03706 0)
(26.1807 4.96341 0)
(29.9956 0.013054 0)
(29.9566 0.0402625 0)
(29.8806 0.0695805 0)
(29.7755 0.102053 0)
(29.6451 0.140192 0)
(29.4897 0.186805 0)
(29.309 0.244931 0)
(29.1021 0.318436 0)
(28.8676 0.412453 0)
(28.6043 0.533651 0)
(28.3116 0.691011 0)
(27.9902 0.895874 0)
(27.6443 1.16347 0)
(27.2827 1.51082 0)
(26.9239 1.95956 0)
(26.5973 2.52544 0)
(26.3472 3.22281 0)
(26.2371 4.03957 0)
(26.319 4.93158 0)
(29.9957 0.0134591 0)
(29.9567 0.0414912 0)
(29.8808 0.071683 0)
(29.776 0.105124 0)
(29.6459 0.144387 0)
(29.491 0.192346 0)
(29.311 0.252111 0)
(29.1052 0.327622 0)
(28.8724 0.42409 0)
(28.6115 0.548254 0)
(28.3223 0.709118 0)
(28.006 0.917962 0)
(27.6676 1.18971 0)
(27.3167 1.54075 0)
(26.9726 1.99124 0)
(26.6653 2.55504 0)
(26.4382 3.24256 0)
(26.3516 4.03904 0)
(26.4534 4.89729 0)
(29.9957 0.0138714 0)
(29.9568 0.0427408 0)
(29.8811 0.0738195 0)
(29.7765 0.108245 0)
(29.6467 0.148646 0)
(29.4924 0.197967 0)
(29.3132 0.259387 0)
(29.1085 0.336918 0)
(28.8773 0.435843 0)
(28.6189 0.562964 0)
(28.3333 0.727292 0)
(28.0224 0.94002 0)
(27.6916 1.21572 0)
(27.3516 1.57013 0)
(27.0221 2.02187 0)
(26.7337 2.58286 0)
(26.529 3.25989 0)
(26.4644 4.03564 0)
(26.5838 4.86077 0)
(29.9957 0.0142912 0)
(29.9569 0.0440114 0)
(29.8813 0.0759905 0)
(29.777 0.111414 0)
(29.6476 0.152969 0)
(29.4938 0.203669 0)
(29.3154 0.266759 0)
(29.1119 0.346322 0)
(28.8825 0.44771 0)
(28.6266 0.577774 0)
(28.3448 0.74552 0)
(28.0393 0.962027 0)
(27.7163 1.24148 0)
(27.3872 1.59892 0)
(27.0724 2.05139 0)
(26.8026 2.60892 0)
(26.6193 3.27483 0)
(26.5753 4.02951 0)
(26.7103 4.82222 0)
(29.9957 0.0147186 0)
(29.957 0.0453034 0)
(29.8816 0.0781962 0)
(29.7775 0.114633 0)
(29.6485 0.157357 0)
(29.4953 0.209451 0)
(29.3177 0.274227 0)
(29.1154 0.355833 0)
(28.8878 0.459685 0)
(28.6346 0.592677 0)
(28.3566 0.76379 0)
(28.0567 0.983966 0)
(27.7417 1.26697 0)
(27.4236 1.62708 0)
(27.1234 2.07979 0)
(26.8718 2.6332 0)
(26.7091 3.28744 0)
(26.6844 4.02081 0)
(26.833 4.78183 0)
(29.9957 0.0151536 0)
(29.9571 0.0466169 0)
(29.8819 0.0804369 0)
(29.778 0.117901 0)
(29.6495 0.16181 0)
(29.4968 0.215313 0)
(29.3202 0.281788 0)
(29.1192 0.365449 0)
(28.8934 0.471766 0)
(28.6429 0.607667 0)
(28.3689 0.78209 0)
(28.0747 1.00582 0)
(27.7677 1.29215 0)
(27.4607 1.65458 0)
(27.175 2.10704 0)
(26.9413 2.6557 0)
(26.7983 3.29777 0)
(26.7914 4.00968 0)
(26.952 4.7398 0)
(29.9957 0.0155963 0)
(29.9572 0.0479523 0)
(29.8822 0.082713 0)
(29.7786 0.121219 0)
(29.6505 0.166328 0)
(29.4985 0.221255 0)
(29.3227 0.289444 0)
(29.123 0.375168 0)
(28.8992 0.483948 0)
(28.6516 0.622734 0)
(28.3817 0.800407 0)
(28.0933 1.02756 0)
(27.7945 1.317 0)
(27.4986 1.6814 0)
(27.2273 2.1331 0)
(27.0109 2.67644 0)
(26.8868 3.30588 0)
(26.8965 3.99627 0)
(27.0673 4.69631 0)
(29.9957 0.0160468 0)
(29.9574 0.0493097 0)
(29.8825 0.0850247 0)
(29.7792 0.124588 0)
(29.6515 0.170911 0)
(29.5001 0.227278 0)
(29.3253 0.297192 0)
(29.1271 0.384986 0)
(28.9053 0.496226 0)
(28.6606 0.637872 0)
(28.3948 0.818728 0)
(28.1125 1.04917 0)
(27.8219 1.34149 0)
(27.5372 1.70749 0)
(27.2801 2.15797 0)
(27.0807 2.69541 0)
(26.9744 3.31184 0)
(26.9995 3.98073 0)
(27.179 4.65154 0)
(29.9958 0.0165053 0)
(29.9575 0.0506893 0)
(29.8828 0.0873723 0)
(29.7798 0.128007 0)
(29.6526 0.17556 0)
(29.5019 0.23338 0)
(29.3281 0.305033 0)
(29.1313 0.394903 0)
(28.9116 0.508596 0)
(28.6699 0.65307 0)
(28.4085 0.837037 0)
(28.1321 1.07063 0)
(27.85 1.36559 0)
(27.5764 1.73284 0)
(27.3335 2.18161 0)
(27.1505 2.71263 0)
(27.0613 3.31571 0)
(27.1004 3.96319 0)
(27.2873 4.60565 0)
(29.9958 0.0169718 0)
(29.9576 0.0520915 0)
(29.8832 0.0897561 0)
(29.7805 0.131476 0)
(29.6537 0.180274 0)
(29.5037 0.239561 0)
(29.331 0.312963 0)
(29.1356 0.404915 0)
(28.9181 0.521051 0)
(28.6795 0.66832 0)
(28.4225 0.855321 0)
(28.1524 1.09192 0)
(27.8787 1.38928 0)
(27.6163 1.75741 0)
(27.3873 2.20402 0)
(27.2202 2.72813 0)
(27.1472 3.31756 0)
(27.1991 3.9438 0)
(27.3921 4.55879 0)
(29.9958 0.0174465 0)
(29.9578 0.0535163 0)
(29.8835 0.0921763 0)
(29.7811 0.134997 0)
(29.6549 0.185053 0)
(29.5057 0.245822 0)
(29.334 0.320983 0)
(29.1402 0.415019 0)
(28.9249 0.533588 0)
(28.6895 0.683613 0)
(28.437 0.873565 0)
(28.1732 1.11302 0)
(27.908 1.41253 0)
(27.6568 1.78118 0)
(27.4415 2.22517 0)
(27.2898 2.74191 0)
(27.2321 3.31746 0)
(27.2958 3.92268 0)
(27.4936 4.51111 0)
(29.9958 0.0179293 0)
(29.9579 0.054964 0)
(29.8839 0.0946331 0)
(29.7818 0.138569 0)
(29.6561 0.189898 0)
(29.5076 0.25216 0)
(29.3371 0.329091 0)
(29.1449 0.425212 0)
(28.9319 0.546199 0)
(28.6998 0.698939 0)
(28.4519 0.891753 0)
(28.1946 1.1339 0)
(27.938 1.43532 0)
(27.6979 1.80413 0)
(27.496 2.24507 0)
(27.3593 2.75401 0)
(27.3159 3.31549 0)
(27.3903 3.89996 0)
(27.5919 4.46276 0)
(29.9958 0.0184205 0)
(29.9581 0.0564348 0)
(29.8843 0.0971268 0)
(29.7826 0.142192 0)
(29.6574 0.194809 0)
(29.5097 0.258576 0)
(29.3403 0.337284 0)
(29.1498 0.435491 0)
(28.9392 0.558879 0)
(28.7104 0.714287 0)
(28.4673 0.90987 0)
(28.2165 1.15455 0)
(27.9686 1.45761 0)
(27.7395 1.82622 0)
(27.5508 2.2637 0)
(27.4284 2.76446 0)
(27.3987 3.31171 0)
(27.4827 3.87576 0)
(27.6871 4.41385 0)
(29.9959 0.01892 0)
(29.9582 0.0579289 0)
(29.8847 0.0996575 0)
(29.7833 0.145866 0)
(29.6587 0.199784 0)
(29.5119 0.26507 0)
(29.3436 0.345561 0)
(29.1549 0.445851 0)
(28.9467 0.57162 0)
(28.7215 0.729646 0)
(28.4832 0.9279 0)
(28.2389 1.17494 0)
(27.9997 1.47939 0)
(27.7816 1.84744 0)
(27.6059 2.28105 0)
(27.4973 2.77327 0)
(27.4802 3.30622 0)
(27.5729 3.8502 0)
(27.7792 4.3645 0)
(29.9959 0.019428 0)
(29.9584 0.0594464 0)
(29.8851 0.102225 0)
(29.7841 0.149592 0)
(29.6601 0.204824 0)
(29.5141 0.271639 0)
(29.3471 0.35392 0)
(29.1601 0.456289 0)
(28.9545 0.584416 0)
(28.7328 0.745005 0)
(28.4995 0.945825 0)
(28.2619 1.19505 0)
(28.0314 1.50062 0)
(27.8242 1.86778 0)
(27.6611 2.29713 0)
(27.5658 2.7805 0)
(27.5606 3.29907 0)
(27.661 3.82339 0)
(27.8684 4.31482 0)
(29.9959 0.0199446 0)
(29.9586 0.0609876 0)
(29.8855 0.104831 0)
(29.785 0.153369 0)
(29.6615 0.209929 0)
(29.5165 0.278282 0)
(29.3508 0.362359 0)
(29.1656 0.466801 0)
(28.9626 0.59726 0)
(28.7445 0.760354 0)
(28.5162 0.96363 0)
(28.2854 1.21487 0)
(28.0637 1.52129 0)
(27.8673 1.8872 0)
(27.7165 2.31194 0)
(27.6338 2.78617 0)
(27.6397 3.29036 0)
(27.747 3.79544 0)
(27.9548 4.26491 0)
(29.9959 0.0204697 0)
(29.9588 0.0625525 0)
(29.886 0.107473 0)
(29.7858 0.157198 0)
(29.663 0.215098 0)
(29.5189 0.285 0)
(29.3545 0.370876 0)
(29.1713 0.477381 0)
(28.9709 0.610144 0)
(28.7566 0.775679 0)
(28.5334 0.981298 0)
(28.3094 1.23436 0)
(28.0964 1.54138 0)
(27.9107 1.9057 0)
(27.7719 2.32548 0)
(27.7014 2.79032 0)
(27.7176 3.28016 0)
(27.8308 3.76646 0)
(28.0384 4.21487 0)
(29.9959 0.0210036 0)
(29.959 0.0641412 0)
(29.8865 0.110153 0)
(29.7867 0.161077 0)
(29.6646 0.22033 0)
(29.5214 0.29179 0)
(29.3584 0.379466 0)
(29.1771 0.488026 0)
(28.9796 0.62306 0)
(28.7691 0.790969 0)
(28.5511 0.998811 0)
(28.3339 1.2535 0)
(28.1297 1.56085 0)
(27.9545 1.92326 0)
(27.8273 2.33775 0)
(27.7684 2.79299 0)
(27.7941 3.26854 0)
(27.9126 3.73654 0)
(28.1194 4.16477 0)
(29.996 0.0215462 0)
(29.9591 0.065754 0)
(29.8869 0.112871 0)
(29.7877 0.165008 0)
(29.6662 0.225625 0)
(29.524 0.298651 0)
(29.3625 0.388129 0)
(29.1832 0.49873 0)
(28.9885 0.636 0)
(28.7819 0.806211 0)
(28.5692 1.01615 0)
(28.359 1.27228 0)
(28.1635 1.5797 0)
(27.9986 1.93988 0)
(27.8828 2.34877 0)
(27.8348 2.79422 0)
(27.8693 3.25558 0)
(27.9923 3.70577 0)
(28.1978 4.11469 0)
(29.996 0.0220976 0)
(29.9593 0.0673909 0)
(29.8875 0.115626 0)
(29.7886 0.168989 0)
(29.6679 0.230983 0)
(29.5267 0.305582 0)
(29.3667 0.39686 0)
(29.1895 0.509488 0)
(28.9977 0.648954 0)
(28.7951 0.821392 0)
(28.5877 1.0333 0)
(28.3845 1.29068 0)
(28.1977 1.59789 0)
(28.0429 1.95553 0)
(27.9381 2.35854 0)
(27.9006 2.79407 0)
(27.9432 3.24135 0)
(28.0701 3.67424 0)
(28.2738 4.06471 0)
(29.996 0.0226578 0)
(29.9596 0.069052 0)
(29.888 0.118419 0)
(29.7896 0.173021 0)
(29.6696 0.236402 0)
(29.5295 0.31258 0)
(29.371 0.405656 0)
(29.1959 0.520293 0)
(29.0071 0.661915 0)
(28.8086 0.836498 0)
(28.6067 1.05025 0)
(28.4105 1.30867 0)
(28.2323 1.61542 0)
(28.0875 1.97022 0)
(27.9933 2.36708 0)
(27.9657 2.79256 0)
(28.0157 3.22594 0)
(28.1458 3.64203 0)
(28.3474 4.01487 0)
(29.996 0.0232269 0)
(29.9598 0.0707373 0)
(29.8885 0.12125 0)
(29.7907 0.177103 0)
(29.6714 0.241881 0)
(29.5325 0.319644 0)
(29.3755 0.414515 0)
(29.2027 0.531141 0)
(29.0169 0.674872 0)
(28.8225 0.851518 0)
(28.6261 1.06697 0)
(28.4369 1.32623 0)
(28.2673 1.63227 0)
(28.1323 1.98394 0)
(28.0484 2.37441 0)
(28.0301 2.78975 0)
(28.0869 3.2094 0)
(28.2195 3.60924 0)
(28.4186 3.96523 0)
(29.9961 0.0238049 0)
(29.96 0.0724469 0)
(29.8891 0.124117 0)
(29.7918 0.181235 0)
(29.6733 0.24742 0)
(29.5355 0.326771 0)
(29.3801 0.423431 0)
(29.2096 0.542024 0)
(29.0269 0.687816 0)
(28.8368 0.866435 0)
(28.6459 1.08345 0)
(28.4638 1.34336 0)
(28.3027 1.64841 0)
(28.1773 1.99667 0)
(28.1032 2.38055 0)
(28.0937 2.78569 0)
(28.1566 3.19182 0)
(28.2914 3.57591 0)
(28.4877 3.91585 0)
(29.9961 0.0243919 0)
(29.9602 0.0741808 0)
(29.8897 0.127023 0)
(29.7929 0.185416 0)
(29.6752 0.253018 0)
(29.5386 0.33396 0)
(29.3849 0.432401 0)
(29.2167 0.552937 0)
(29.0373 0.700736 0)
(28.8514 0.881237 0)
(28.6662 1.09966 0)
(28.4911 1.36001 0)
(28.3384 1.66384 0)
(28.2224 2.00843 0)
(28.1577 2.3855 0)
(28.1565 2.78041 0)
(28.225 3.17325 0)
(28.3613 3.54214 0)
(28.5546 3.86677 0)
(29.9961 0.0249878 0)
(29.9605 0.0759391 0)
(29.8903 0.129965 0)
(29.7941 0.189646 0)
(29.6772 0.258672 0)
(29.5419 0.341209 0)
(29.3899 0.441422 0)
(29.2241 0.563872 0)
(29.0479 0.713624 0)
(28.8664 0.89591 0)
(28.6868 1.1156 0)
(28.5188 1.37619 0)
(28.3744 1.67854 0)
(28.2676 2.01922 0)
(28.212 2.38931 0)
(28.2185 2.77398 0)
(28.292 3.15377 0)
(28.4294 3.50798 0)
(28.6195 3.81802 0)
(29.9962 0.0255927 0)
(29.9607 0.0777216 0)
(29.8909 0.132944 0)
(29.7953 0.193924 0)
(29.6793 0.264383 0)
(29.5452 0.348513 0)
(29.3951 0.450487 0)
(29.2317 0.574822 0)
(29.0588 0.726467 0)
(28.8818 0.910438 0)
(28.7079 1.13125 0)
(28.5469 1.39186 0)
(28.4107 1.6925 0)
(28.3128 2.02902 0)
(28.2659 2.39198 0)
(28.2796 2.76643 0)
(28.3576 3.13344 0)
(28.4957 3.47348 0)
(28.6824 3.76964 0)
(29.9962 0.0262066 0)
(29.961 0.0795284 0)
(29.8916 0.13596 0)
(29.7965 0.198249 0)
(29.6815 0.270147 0)
(29.5487 0.355872 0)
(29.4004 0.459594 0)
(29.2395 0.58578 0)
(29.0701 0.739255 0)
(28.8975 0.924807 0)
(28.7293 1.14658 0)
(28.5753 1.40702 0)
(28.4473 1.7057 0)
(28.358 2.03785 0)
(28.3194 2.39355 0)
(28.3399 2.75781 0)
(28.4219 3.11232 0)
(28.5603 3.43872 0)
(28.7434 3.72166 0)
(29.9962 0.0268294 0)
(29.9612 0.0813594 0)
(29.8922 0.139012 0)
(29.7978 0.202621 0)
(29.6837 0.275965 0)
(29.5523 0.363281 0)
(29.4058 0.468736 0)
(29.2475 0.596738 0)
(29.0816 0.751978 0)
(28.9136 0.939004 0)
(28.7512 1.16158 0)
(28.6041 1.42165 0)
(28.484 1.71815 0)
(28.4032 2.04572 0)
(28.3725 2.39403 0)
(28.3992 2.74818 0)
(28.4848 3.09048 0)
(28.6232 3.40374 0)
(28.8026 3.6741 0)
(29.9963 0.0274611 0)
(29.9615 0.0832144 0)
(29.8929 0.1421 0)
(29.7992 0.207039 0)
(29.686 0.281833 0)
(29.556 0.370738 0)
(29.4115 0.477909 0)
(29.2558 0.607688 0)
(29.0934 0.764623 0)
(28.93 0.953012 0)
(28.7734 1.17624 0)
(28.6333 1.43573 0)
(28.521 1.72983 0)
(28.4483 2.05262 0)
(28.4251 2.39346 0)
(28.4577 2.73757 0)
(28.5463 3.06795 0)
(28.6843 3.36858 0)
(28.86 3.62698 0)
(29.9963 0.0281018 0)
(29.9618 0.0850933 0)
(29.8937 0.145224 0)
(29.8006 0.211502 0)
(29.6884 0.287751 0)
(29.5598 0.378239 0)
(29.4173 0.487107 0)
(29.2643 0.618622 0)
(29.1055 0.777178 0)
(28.9468 0.966817 0)
(28.7959 1.19053 0)
(28.6627 1.44925 0)
(28.5581 1.74073 0)
(28.4933 2.05857 0)
(28.4772 2.39187 0)
(28.5152 2.72604 0)
(28.6064 3.04481 0)
(28.7439 3.3333 0)
(28.9158 3.58032 0)
(29.9963 0.0287513 0)
(29.9621 0.086996 0)
(29.8944 0.148383 0)
(29.802 0.216008 0)
(29.6909 0.293715 0)