/*--------------------------------*- C++ -*----------------------------------*\
| =========                 |                                                 |
| \\      /  F ield         | OpenFOAM: The Open Source CFD Toolbox           |
|  \\    /   O peration     | Version:  v1912                                 |
|   \\  /    A nd           | Website:  www.openfoam.com                      |
|    \\/     M anipulation  |                                                 |
\*---------------------------------------------------------------------------*/
FoamFile
{
    version     2.0;
    format      ascii;
    class       volScalarField;
    location    "200/air";
    object      nut;
}
// * * * * * * * * * * * * * * * * * * * * * * * * * * * * * * * * * * * * * //

dimensions      [0 2 -1 0 0 0 0];


internalField   nonuniform List<scalar> 
243000
(
0.00013248
0.000132036
0.000129335
0.000125373
0.000120505
0.000115017
0.000109139
0.000103388
9.80492e-05
9.41344e-05
9.24628e-05
9.81077e-05
0.000106292
0.000114173
0.000121243
0.000127425
0.000131943
0.000134927
0.000133803
0.000131887
0.000128756
0.000125785
0.000122573
0.000119496
0.000116962
0.000115475
0.000115537
0.00011687
0.000120513
0.000125374
0.000644799
0.000654658
0.000658301
0.000656168
0.000649855
0.000639505
0.000626181
0.00061273
0.000601193
0.000598627
0.000609123
0.000655804
0.00070646
0.000756501
0.000800713
0.000837344
0.000861765
0.00087528
0.00086148
0.000837625
0.00080471
0.000770565
0.000734037
0.00069863
0.00066622
0.000639535
0.000620151
0.00060664
0.000601701
0.000602761
0.000719964
0.000731467
0.000735241
0.000732557
0.000725456
0.000714271
0.000700407
0.000686903
0.000676485
0.000676753
0.00069322
0.000742341
0.00079308
0.000843516
0.000888656
0.000925963
0.000950873
0.000964779
0.000951612
0.000926726
0.000892845
0.000857132
0.000819036
0.000782064
0.000748248
0.00072033
0.000699845
0.000685797
0.000680347
0.000682141
0.000773158
0.000786554
0.000790869
0.000788226
0.000780908
0.000769489
0.000755661
0.000742491
0.000733372
0.000736042
0.000757201
0.000806189
0.000855752
0.000905177
0.000949909
0.000986828
0.00101131
0.001025
0.00101281
0.000987873
0.000954079
0.000917988
0.000879536
0.000842129
0.000807868
0.000779466
0.000758388
0.000744068
0.000738215
0.000740325
0.000816518
0.000831441
0.000836126
0.000833465
0.000825918
0.000814313
0.000800605
0.000787847
0.00078
0.00078469
0.000809451
0.000857137
0.000904941
0.000952886
0.000996676
0.00103297
0.00105682
0.00107022
0.00105929
0.0010349
0.00100171
0.000965844
0.000927598
0.000890289
0.000856051
0.000827537
0.000806171
0.000791681
0.000785498
0.000787679
0.000855672
0.000871722
0.000876405
0.00087346
0.000865434
0.00085345
0.000839709
0.000827272
0.000820504
0.000826889
0.000854256
0.000900132
0.000945986
0.000992335
0.00103511
0.00107084
0.00109413
0.00110738
0.00109794
0.00107453
0.00104229
0.00100699
0.000969252
0.000932277
0.000898245
0.000869786
0.000848273
0.000833753
0.000827472
0.000829669
0.000893729
0.000910492
0.000914716
0.000911125
0.000902266
0.0008896
0.000875575
0.000863283
0.000857319
0.000865098
0.00089413
0.000938021
0.000981932
0.00102678
0.00106863
0.00110395
0.00112688
0.00114019
0.00113242
0.00111035
0.0010793
0.00104484
0.00100784
0.000971379
0.00093768
0.000909379
0.000887868
0.000873464
0.000867286
0.000869523
0.000932476
0.000949511
0.000952811
0.000948169
0.000938082
0.000924389
0.000909792
0.000897421
0.000891933
0.0009009
0.000930609
0.000972572
0.00101461
0.00105808
0.0010991
0.00113424
0.00115706
0.00117067
0.00116472
0.0011443
0.00111471
0.00108137
0.00104531
0.00100955
0.000976308
0.000948289
0.000926945
0.000912797
0.000906898
0.000909235
0.000972871
0.000989705
0.000991642
0.000985537
0.000973836
0.000958778
0.000943315
0.000930612
0.000925233
0.000935092
0.000964765
0.00100479
0.001045
0.00108716
0.00112744
0.0011626
0.00118562
0.0011998
0.00119579
0.00117738
0.00114951
0.00111757
0.00108274
0.00104789
0.00101529
0.000987708
0.000966707
0.00095297
0.000947496
0.000950007
0.00101525
0.00103136
0.00103155
0.00102361
0.00100995
0.000993229
0.000976626
0.000963322
0.000957669
0.000968034
0.000997085
0.00103509
0.00107349
0.0011144
0.00115398
0.0011893
0.00121282
0.00122787
0.00122592
0.00120987
0.00118403
0.00115384
0.00112053
0.0010869
0.00105519
0.00102825
0.00100779
0.000994622
0.000989699
0.000992429
0.00105947
0.00107422
0.00107244
0.0010623
0.00104642
0.0010278
0.00100981
0.000995615
0.00098929
0.000999707
0.00102761
0.00106351
0.00110011
0.00113977
0.00117866
0.00121417
0.00123843
0.00125466
0.00125491
0.00124155
0.00121809
0.00119002
0.00115861
0.00112656
0.00109607
0.00107005
0.00105035
0.00103791
0.00103365
0.00103661
0.00110498
0.00111775
0.00111379
0.00110117
0.00108286
0.00106217
0.00104259
0.00102719
0.00101981
0.00102976
0.0010561
0.00108978
0.00112458
0.00116297
0.00120114
0.00123674
0.00126191
0.00127961
0.00128218
0.00127181
0.00125112
0.00122555
0.00119644
0.0011664
0.00113753
0.00111279
0.0010941
0.00108256
0.00107904
0.00108222
0.0011509
0.00116111
0.00115478
0.00113952
0.00111864
0.00109578
0.0010744
0.00105746
0.00104866
0.00105763
0.00108206
0.00111346
0.00114646
0.00118352
0.00122088
0.00125645
0.00128258
0.0013019
0.00130691
0.00129978
0.00128223
0.00125956
0.00123317
0.00120559
0.00117881
0.00115574
0.00113836
0.00112789
0.00112514
0.00112851
0.00119602
0.00120321
0.00119436
0.00117638
0.00115292
0.00112783
0.00110442
0.00108559
0.00107508
0.00108264
0.00110489
0.00113399
0.00116514
0.0012008
0.00123725
0.00127272
0.00129978
0.00132073
0.00132815
0.0013244
0.00131031
0.00129094
0.00126765
0.00124299
0.00121877
0.00119778
0.00118207
0.00117284
0.0011709
0.00117438
0.0012389
0.00124274
0.00123133
0.0012107
0.00118473
0.0011573
0.00113167
0.00111068
0.00109822
0.00110401
0.0011239
0.00115072
0.00117997
0.00121417
0.00124961
0.00128491
0.00131284
0.00133546
0.00134514
0.0013447
0.00133419
0.0013184
0.00129858
0.00127728
0.00125607
0.00123757
0.00122383
0.00121605
0.00121495
0.00121844
0.00127793
0.00127833
0.00126444
0.0012413
0.00121292
0.00118313
0.00115515
0.0011318
0.00111723
0.00112097
0.00113845
0.00116299
0.00119034
0.00122302
0.00125734
0.00129239
0.00132109
0.00134537
0.00135721
0.00135988
0.00135298
0.0013408
0.00132465
0.00130703
0.00128923
0.00127363
0.00126216
0.00125598
0.00125575
0.00125915
0.00131146
0.00130876
0.00129246
0.00126701
0.00123635
0.00120426
0.00117389
0.0011481
0.00113156
0.0011332
0.00114832
0.00117058
0.00119604
0.00122707
0.00126005
0.00129464
0.00132399
0.00134969
0.00136372
0.00136927
0.00136587
0.00135725
0.00134484
0.001331
0.00131683
0.0013044
0.00129549
0.00129108
0.00129168
0.00129488
0.00133813
0.00133266
0.0013142
0.00128672
0.00125391
0.00121964
0.00118723
0.00115998
0.00114368
0.00114408
0.00115691
0.00117656
0.0011998
0.00122838
0.00125911
0.00129175
0.00132139
0.0013482
0.00136414
0.00137231
0.00137217
0.001367
0.00135828
0.0013482
0.00133773
0.00132862
0.00132237
0.00131981
0.00132119
0.0013241
0.00135679
0.00134894
0.00132856
0.00129923
0.00126496
0.00122962
0.00119786
0.00117093
0.00115464
0.00115368
0.00116433
0.00118161
0.00120277
0.00122899
0.00125773
0.00128855
0.00131644
0.00134172
0.00135836
0.00136881
0.00137139
0.00136937
0.00136426
0.00135781
0.00135098
0.0013452
0.00134164
0.00134092
0.00134299
0.00134553
0.00136655
0.00135652
0.00133498
0.0013048
0.00127234
0.00123825
0.001207
0.00118044
0.00116398
0.00116163
0.00117021
0.00118535
0.00120459
0.00122853
0.0012555
0.00128454
0.00131089
0.00133493
0.00135145
0.00136198
0.0013654
0.0013647
0.00136251
0.00135949
0.00135598
0.00135325
0.00135231
0.0013533
0.00135597
0.00135808
0.00136711
0.00135588
0.00133632
0.00130883
0.00127788
0.00124506
0.00121433
0.00118813
0.00117136
0.00116764
0.00117428
0.00118757
0.00120472
0.00122687
0.0012521
0.00127941
0.00130437
0.00132735
0.0013436
0.00135424
0.00135846
0.00135927
0.00135868
0.00135719
0.00135517
0.00135357
0.00135386
0.00135626
0.00135935
0.001361
0.00136199
0.00135274
0.00133533
0.00131031
0.00128093
0.00124947
0.00121935
0.00119344
0.00117643
0.00117155
0.0011764
0.00118775
0.00120333
0.00122371
0.00124728
0.00127291
0.00129659
0.00131858
0.00133446
0.00134514
0.00135006
0.00135223
0.00135303
0.00135298
0.0013524
0.00135195
0.00135292
0.00135489
0.00135699
0.00135751
0.00135422
0.00134636
0.00133124
0.0013088
0.00128131
0.00125121
0.00122179
0.0011963
0.00117906
0.00117319
0.00117633
0.00118616
0.00120018
0.00121886
0.00124083
0.00126484
0.00128734
0.00130835
0.00132374
0.00133436
0.00133982
0.00134305
0.00134501
0.00134625
0.00134699
0.00134767
0.00134907
0.0013506
0.00135171
0.00135119
0.00134293
0.00133648
0.0013235
0.00130379
0.00127848
0.00125008
0.00122171
0.0011968
0.00117953
0.00117249
0.00117422
0.00118255
0.0011951
0.00121219
0.00123259
0.00125504
0.0012764
0.00129639
0.00131121
0.0013216
0.00132741
0.00133135
0.0013342
0.00133651
0.00133837
0.00134003
0.00134166
0.00134265
0.00134268
0.00134121
0.0013274
0.00132252
0.00131192
0.00129482
0.00127192
0.00124552
0.00121854
0.00119449
0.00117729
0.0011694
0.00116995
0.00117685
0.001188
0.00120355
0.0012224
0.00124334
0.00126358
0.00128247
0.00129661
0.00130661
0.00131252
0.00131681
0.00132021
0.00132328
0.00132598
0.00132835
0.00132999
0.00133029
0.00132919
0.00132678
0.00130675
0.00130369
0.00129584
0.00128152
0.00126122
0.00123699
0.00121176
0.00118905
0.00117236
0.00116393
0.00116349
0.00116908
0.00117884
0.00119285
0.00121012
0.00122955
0.00124865
0.00126636
0.0012797
0.00128909
0.0012948
0.00129908
0.00130266
0.0013061
0.00130923
0.00131187
0.00131325
0.00131266
0.00131035
0.00130694
0.0012801
0.00127919
0.00127443
0.00126331
0.001246
0.00122446
0.00120155
0.0011807
0.00116503
0.00115642
0.00115519
0.00115965
0.00116801
0.00118038
0.001196
0.00121383
0.00123166
0.00124795
0.00126023
0.00126878
0.001274
0.00127788
0.00128119
0.00128445
0.00128752
0.00128995
0.00129071
0.00128905
0.00128532
0.00128081
0.00124625
0.00124801
0.00124711
0.00123985
0.00122633
0.00120851
0.00118895
0.00117114
0.00115746
0.00114971
0.00114823
0.00115197
0.0011592
0.00116988
0.00118339
0.00119923
0.00121515
0.00122938
0.00123994
0.00124709
0.0012512
0.00125403
0.00125634
0.00125864
0.00126083
0.00126226
0.0012617
0.00125856
0.00125309
0.00124718
0.00121632
0.00122184
0.00122528
0.00122313
0.00121571
0.00120433
0.00119152
0.00117943
0.00117037
0.00116551
0.00116497
0.00116828
0.00117395
0.00118185
0.00119167
0.00120329
0.00121541
0.0012258
0.00123334
0.00123805
0.00124024
0.00124115
0.00124144
0.00124156
0.00124149
0.00124062
0.0012379
0.0012327
0.00122506
0.00121718
0.00129727
0.00130452
0.00131053
0.00131346
0.00131331
0.00131037
0.00130568
0.00129979
0.00129348
0.00128762
0.00128277
0.00127941
0.00127684
0.00127493
0.00127324
0.00127417
0.00127742
0.00128137
0.00128518
0.00128896
0.00129246
0.00129594
0.00129931
0.00130253
0.00130523
0.00130684
0.00130701
0.00130536
0.00130161
0.00129691
0.000180863
0.00017959
0.000175081
0.000168907
0.000161576
0.000153616
0.000145598
0.000138561
0.00013328
0.000131799
0.000133559
0.000138754
0.00014522
0.00015309
0.000160907
0.000168166
0.000173845
0.00017837
0.000177408
0.000175399
0.000172152
0.000169005
0.000165638
0.000162498
0.000160057
0.000158882
0.000159461
0.000161664
0.00016619
0.000172581
0.00112026
0.00111835
0.00106885
0.000999094
0.000927094
0.000857003
0.000797617
0.000756191
0.000737632
0.000748421
0.000764893
0.000796795
0.000833787
0.000886819
0.000943271
0.000993321
0.00102911
0.00106526
0.0010694
0.00105397
0.00102489
0.000989284
0.000949109
0.000914733
0.000889549
0.000877927
0.00087998
0.000893117
0.000912787
0.000947894
0.00209544
0.00215463
0.00209113
0.0019732
0.00184412
0.00171499
0.00160433
0.00152704
0.00149852
0.00152628
0.00156533
0.00163278
0.00170895
0.00181462
0.00192944
0.00202264
0.00208735
0.00215718
0.00217101
0.00213998
0.00207844
0.00200316
0.00191795
0.00184119
0.00178209
0.0017497
0.00174491
0.00176518
0.00180129
0.00186606
0.00295993
0.00306791
0.00300022
0.00285982
0.00269974
0.00253481
0.00239132
0.00229102
0.00226131
0.00230637
0.00237019
0.0024683
0.00257748
0.00272511
0.00288741
0.00301283
0.0030984
0.00319418
0.00321766
0.00317475
0.00308691
0.00297994
0.00285824
0.00274251
0.00264913
0.00259194
0.00257398
0.00259668
0.00264639
0.00273115
0.00371552
0.00384285
0.00377157
0.00362503
0.00345693
0.00328026
0.00312821
0.00302205
0.00300224
0.00305958
0.00313838
0.00325665
0.00338934
0.00356449
0.00375745
0.00390375
0.00400372
0.00411329
0.00414571
0.0040938
0.00398918
0.00386174
0.00371721
0.00358453
0.00347466
0.00340307
0.00337506
0.00338234
0.00342248
0.00351022
0.00436603
0.00449086
0.0044172
0.00427826
0.00411669
0.00394393
0.00379591
0.00369535
0.00368779
0.00375647
0.00384924
0.00398357
0.00412761
0.00430806
0.00451523
0.00467071
0.0047807
0.00489196
0.00493455
0.00489197
0.00477937
0.00463833
0.00448009
0.00432922
0.00420147
0.00411405
0.00407144
0.0040711
0.0041121
0.00419245
0.00493121
0.00504136
0.00496422
0.00484019
0.00469039
0.00452957
0.00439497
0.00430816
0.00431257
0.00438818
0.00448816
0.00462457
0.00476938
0.00494679
0.00515468
0.00531091
0.00542676
0.00553452
0.00558411
0.00554493
0.0054355
0.00529415
0.00513436
0.00497808
0.00484229
0.00474442
0.00469069
0.00468269
0.00472121
0.0047873
0.00543188
0.00552176
0.00544029
0.00533158
0.00519278
0.0050474
0.00492908
0.00485911
0.00487243
0.00494951
0.00504938
0.00518057
0.0053187
0.00548439
0.00568272
0.00583564
0.0059528
0.0060569
0.0061126
0.00608311
0.0059829
0.00584839
0.00569443
0.00554073
0.00540391
0.00530139
0.00524114
0.00522687
0.0052611
0.00531194
0.00588558
0.00595269
0.00586812
0.00576808
0.00563935
0.0055087
0.00540612
0.00535051
0.00536842
0.0054415
0.0055349
0.00565514
0.00578069
0.00593133
0.00611373
0.00626164
0.00637801
0.0064809
0.00654226
0.00652703
0.00644082
0.00631852
0.006176
0.0060309
0.00589885
0.00579688
0.00573448
0.00571632
0.00574534
0.00578453
0.00630368
0.00634602
0.00625966
0.00616321
0.00604181
0.00592302
0.00583315
0.00578753
0.00580471
0.00586861
0.00595051
0.00605583
0.0061656
0.00629934
0.00646338
0.00660532
0.00672128
0.00682663
0.00689294
0.00689561
0.00682708
0.00672118
0.0065943
0.00646232
0.00633969
0.00624273
0.0061819
0.00616242
0.00618686
0.00621766
0.00669103
0.00670517
0.00662183
0.00652364
0.00640656
0.00629631
0.00621509
0.00617456
0.00618557
0.00623585
0.00630258
0.00639041
0.00648282
0.00659895
0.00674424
0.00687945
0.00699593
0.00710656
0.00718021
0.00720182
0.00715402
0.00706766
0.0069597
0.00684452
0.00673518
0.00664693
0.00659072
0.00657226
0.00659348
0.00661797
0.00704699
0.00703245
0.00695229
0.00684997
0.00673499
0.00663023
0.00655355
0.00651316
0.00651332
0.00654607
0.00659552
0.00666422
0.00673923
0.00683749
0.00696461
0.00709188
0.00720973
0.0073272
0.00741149
0.00745177
0.00742738
0.00736305
0.00727659
0.00718126
0.00708844
0.00701207
0.00696308
0.0069475
0.00696666
0.00698617
0.00736664
0.00732582
0.00724448
0.00713852
0.00702444
0.00692267
0.00684645
0.00680104
0.00678779
0.00680042
0.00683128
0.00688076
0.00693831
0.00701925
0.00712833
0.00724661
0.00736643
0.00749083
0.00758812
0.00764493
0.00764706
0.00760697
0.00754416
0.00747115
0.00739749
0.00733568
0.00729616
0.00728494
0.00730272
0.0073178
0.00764175
0.00757725
0.00749209
0.00738309
0.00726935
0.00716821
0.0070885
0.00703468
0.00700698
0.00699933
0.00701041
0.00704041
0.00708087
0.00714486
0.00723625
0.00734644
0.00746838
0.00759801
0.00770679
0.00778021
0.00780766
0.00779443
0.00775745
0.00770899
0.00765678
0.00761159
0.00758339
0.00757773
0.00759448
0.00760548
0.00786182
0.00777766
0.00768768
0.00757593
0.00746224
0.00735903
0.0072747
0.00721092
0.00716684
0.00714042
0.00713091
0.00714176
0.00716628
0.00721329
0.00728778
0.00739032
0.00751317
0.0076508
0.00776803
0.00785629
0.00790352
0.00791749
0.00790789
0.00788656
0.00785804
0.00783142
0.00781597
0.00781679
0.0078329
0.00784016
0.00801468
0.00791961
0.00782325
0.00770881
0.00759455
0.00749032
0.00740015
0.00732465
0.00726329
0.0072184
0.00719014
0.00718286
0.00719358
0.00722255
0.00728191
0.00737676
0.00749919
0.00764447
0.00777101
0.00787236
0.00793762
0.00797191
0.00798796
0.00799371
0.00799068
0.0079851
0.00798401
0.00799221
0.00800882
0.00801115
0.0080908
0.00799625
0.00789103
0.0077757
0.00766229
0.00755658
0.00745928
0.00737051
0.0072911
0.00722782
0.00718548
0.0071617
0.0071606
0.00717155
0.00721812
0.00730509
0.00742565
0.00757386
0.00771234
0.00782556
0.00790728
0.00796067
0.00799772
0.00802694
0.0080467
0.00806101
0.00807639
0.00809401
0.00811231
0.00810944
0.00808959
0.00799518
0.00788624
0.00777254
0.00766077
0.00755257
0.00744651
0.00734195
0.00723748
0.00715231
0.00709484
0.00705925
0.00704705
0.0070437
0.00708338
0.00717235
0.0072927
0.00744149
0.00758528
0.00771213
0.00781101
0.00788071
0.00793795
0.00798573
0.00802671
0.00805869
0.00808641
0.00811181
0.00813391
0.00812838
0.00801195
0.00791598
0.00780655
0.00769614
0.0075853
0.0074715
0.00734264
0.00721187
0.00708734
0.00698405
0.00691213
0.00686912
0.00684102
0.00682281
0.00685282
0.00694365
0.00708222
0.00725329
0.00740933
0.0075432
0.00764904
0.0077309
0.00780722
0.00787395
0.0079296
0.00797736
0.00801515
0.008047
0.00807263
0.00806659
0.00786043
0.00776062
0.0076565
0.00754936
0.00742399
0.00729148
0.0071459
0.00699566
0.00685555
0.00673544
0.00664481
0.00659335
0.00655121
0.0065211
0.00654067
0.00662868
0.00676985
0.00694663
0.00711533
0.00726893
0.00739834
0.00751493
0.00761079
0.00769464
0.00776024
0.00781873
0.00786271
0.00789975
0.00792982
0.00792955
0.00765786
0.00755895
0.00744624
0.00732389
0.0071883
0.00704405
0.00688678
0.0067205
0.00654937
0.00640593
0.00630325
0.00624818
0.00619432
0.0061542
0.00616432
0.00624686
0.00638522
0.00655734
0.00672724
0.00688823
0.00702945
0.0071614
0.0072865
0.00740249
0.00750268
0.00757768
0.00762968
0.00767093
0.00770042
0.00771375
0.00733347
0.00720676
0.00708907
0.00696887
0.00683949
0.00669312
0.00652492
0.00634003
0.00616077
0.00601232
0.00590516
0.0058448
0.00578483
0.00574112
0.00574448
0.0058213
0.00595338
0.00611376
0.0062746
0.0064315
0.00657055
0.00670734
0.00684758
0.00698499
0.00710921
0.00720411
0.00726624
0.00732028
0.00736484
0.00739975
0.00686191
0.00673546
0.00663292
0.00652239
0.00639647
0.00625043
0.00608116
0.0058966
0.00571959
0.00557299
0.00546628
0.00540214
0.00534317
0.00530308
0.00530492
0.00537821
0.00550266
0.00564762
0.00579172
0.00593199
0.00605601
0.00618404
0.00632338
0.00646795
0.00660464
0.00671379
0.00678312
0.0068419
0.00689217
0.00693596
0.00628116
0.00617482
0.0060966
0.00600714
0.00589062
0.00575062
0.00558732
0.0054106
0.00524291
0.00510568
0.00500595
0.0049434
0.00489328
0.00486473
0.00487255
0.00494688
0.00506432
0.00519377
0.00531646
0.0054293
0.00552644
0.00563027
0.00575066
0.00588526
0.0060192
0.00613193
0.0062034
0.00626177
0.00631184
0.00635734
0.00563072
0.00555422
0.00550175
0.00543898
0.00533997
0.00521185
0.00506176
0.00490044
0.00475599
0.00463768
0.00454828
0.00449654
0.00446266
0.00445499
0.00447879
0.00455977
0.00467337
0.00479014
0.00489029
0.0049693
0.00503057
0.00509391
0.0051754
0.00527948
0.00539116
0.00549073
0.00555635
0.00561025
0.00565642
0.00569986
0.00494469
0.00490133
0.0048683
0.00483545
0.00476387
0.00465575
0.00453322
0.00440725
0.00428526
0.00419255
0.0041268
0.00409793
0.0040899
0.00410712
0.00415744
0.00425829
0.00438101
0.00449558
0.0045781
0.00461887
0.00462769
0.00463337
0.00465774
0.00470967
0.00477298
0.00483529
0.00488217
0.00492334
0.00495972
0.00499659
0.00426826
0.00424986
0.00424058
0.00423019
0.00419888
0.00412805
0.00404069
0.00395365
0.00387574
0.00381664
0.00378472
0.00378768
0.00381604
0.00387473
0.00396186
0.00408218
0.00421478
0.0043316
0.00440389
0.00442376
0.00439966
0.00435189
0.00429876
0.0042572
0.0042446
0.00424603
0.00425541
0.00426665
0.00427631
0.00429503
0.00366051
0.00367214
0.00369171
0.00370663
0.00370536
0.00367997
0.00364095
0.00360137
0.00357237
0.00356651
0.00358135
0.00361964
0.00367744
0.00376119
0.00387024
0.00400224
0.0041465
0.0042657
0.00433713
0.00435189
0.00431719
0.00424745
0.00415765
0.00406091
0.00396928
0.00388345
0.00380846
0.00375173
0.00370581
0.0036783
0.0034026
0.00340831
0.00342113
0.00343218
0.00343872
0.00343922
0.00343863
0.00343985
0.00344842
0.00347015
0.00350605
0.00356145
0.00363649
0.00373843
0.00386963
0.00402001
0.00418011
0.00431128
0.0043898
0.00441025
0.00437593
0.00430046
0.00419705
0.00407746
0.00395275
0.00382979
0.00371443
0.00361213
0.00352256
0.00344334
0.00367792
0.00365018
0.00362117
0.00359365
0.00357318
0.00356211
0.00356282
0.00357402
0.00359581
0.00363045
0.00368083
0.00375344
0.00385318
0.00398898
0.00416197
0.00435842
0.00455813
0.00472423
0.00483054
0.004873
0.00485057
0.00477882
0.00466904
0.00453464
0.00438843
0.00424135
0.00410139
0.00397347
0.00385585
0.00374208
0.000214562
0.000212843
0.00020734
0.000199887
0.000191242
0.000182078
0.000173251
0.000165969
0.000161001
0.000160421
0.000162223
0.000166803
0.00017261
0.000180391
0.000188408
0.000195983
0.000202209
0.000207674
0.000206192
0.000203713
0.000200297
0.000197478
0.000194561
0.000191884
0.000189839
0.000189007
0.000189871
0.000192498
0.000197315
0.000204527
0.00156274
0.00162304
0.00156563
0.00147449
0.00137907
0.00128693
0.00120857
0.00115629
0.00113605
0.00115646
0.00118633
0.00123172
0.00128122
0.00135835
0.00144001
0.00150361
0.00153165
0.00156126
0.00156494
0.00154774
0.00151316
0.00145999
0.00140177
0.00135425
0.00132074
0.00130589
0.00130753
0.00132494
0.00134717
0.00139092
0.00301131
0.00314389
0.00306901
0.0029181
0.00275585
0.00259716
0.00246556
0.00238096
0.00236209
0.00241282
0.00247902
0.00257018
0.0026665
0.00280705
0.00295835
0.00305556
0.0030992
0.00316257
0.0031817
0.00315252
0.00308533
0.00298356
0.00286781
0.00276533
0.00268707
0.00264506
0.00263793
0.00266349
0.00270669
0.00278487
0.00428019
0.00444462
0.00436337
0.0041855
0.00399503
0.0038052
0.00365084
0.00355533
0.00354862
0.00362539
0.00372221
0.00384704
0.00397602
0.00415476
0.00434952
0.00446006
0.0045141
0.00461029
0.00464763
0.00461515
0.00452524
0.0043947
0.00423901
0.00409372
0.00397462
0.00390129
0.00387698
0.00389841
0.00396027
0.00405842
0.00538294
0.00554234
0.00543783
0.00525607
0.00506202
0.00486916
0.00471537
0.00462684
0.00463572
0.00473085
0.00484946
0.00499326
0.0051386
0.00533372
0.0055428
0.00565728
0.00572086
0.00583727
0.00589486
0.005866
0.00576188
0.00561991
0.00544341
0.0052717
0.00513389
0.00504888
0.00501796
0.00503015
0.00507314
0.00516594
0.00628741
0.00641885
0.00630959
0.00614626
0.00596844
0.00578727
0.00564705
0.00557439
0.00560059
0.00570698
0.00583762
0.00599115
0.00614557
0.00632291
0.00652394
0.00663562
0.00671088
0.00682933
0.00690903
0.00690355
0.00681538
0.00666257
0.00647089
0.00628366
0.00612846
0.00602425
0.00597396
0.0059735
0.0060206
0.00610068
0.00704779
0.00715042
0.0070385
0.0068991
0.0067366
0.00657383
0.00645226
0.00639641
0.00643475
0.00654504
0.00667862
0.00682939
0.00697344
0.00713034
0.00731084
0.00741559
0.00749933
0.00761356
0.00771393
0.00772224
0.00763875
0.00749767
0.00731578
0.0071304
0.00697008
0.00685572
0.00679331
0.00678353
0.00682793
0.00689147
0.00770551
0.00777998
0.00766699
0.00754539
0.00739615
0.00725133
0.0071474
0.00710477
0.00714879
0.007256
0.00738463
0.0075243
0.00765175
0.00778371
0.00793664
0.00803434
0.00812032
0.00823233
0.00834808
0.00837271
0.0083039
0.00817805
0.00801304
0.00783873
0.00768305
0.00756744
0.00750054
0.00748559
0.00752523
0.00757478
0.00829241
0.00833889
0.0082263
0.00811307
0.00797393
0.00784307
0.00775236
0.00771803
0.00776087
0.00785917
0.00797656
0.00809966
0.00820663
0.00831251
0.00843894
0.00853025
0.00861656
0.00872807
0.00885553
0.00889832
0.00884883
0.00874188
0.00859811
0.00844104
0.00829703
0.00818714
0.00812201
0.00810616
0.00814174
0.008182
0.00882749
0.00884424
0.0087346
0.00862256
0.00848916
0.00836734
0.00828475
0.00825391
0.00828959
0.00837436
0.00847614
0.00857951
0.00866483
0.00874588
0.008851
0.0089372
0.00902412
0.00913715
0.00927305
0.00933477
0.00930616
0.00922048
0.00910018
0.00896419
0.00883647
0.00873727
0.00867838
0.00866515
0.00869897
0.00873316
0.00931804
0.00930301
0.00919892
0.00908276
0.0089515
0.00883483
0.008756
0.00872479
0.00874847
0.00881646
0.00889988
0.00898254
0.00904688
0.00910613
0.00919652
0.00927916
0.00936805
0.00948462
0.00962562
0.00970575
0.00969774
0.00963372
0.0095372
0.0094246
0.00931603
0.00923073
0.00918096
0.00917282
0.00920679
0.00923775
0.00976234
0.00971617
0.009616
0.00949352
0.00936218
0.00924819
0.00916997
0.00913542
0.00914409
0.00919359
0.00925786
0.00932028
0.00936585
0.00940745
0.00948828
0.00956966
0.00966233
0.00978439
0.00992713
0.0100239
0.0100343
0.00999083
0.00991696
0.00982837
0.00974035
0.00967083
0.00963203
0.00963041
0.00966489
0.00969607
0.0101524
0.0100785
0.00997708
0.00984881
0.00971642
0.0096038
0.00952409
0.00948327
0.00947854
0.00950801
0.00955377
0.00959774
0.00962754
0.0096568
0.00973062
0.00981404
0.00991252
0.0100409
0.0101842
0.0102936
0.0103184
0.010292
0.0102395
0.0101738
0.0101066
0.0100536
0.0100267
0.0100325
0.0100679
0.0100999
0.0104754
0.0103789
0.0102721
0.0101391
0.0100061
0.00989416
0.00981191
0.00976379
0.00974734
0.0097577
0.00978681
0.009815
0.009833
0.00985475
0.00992388
0.0100125
0.0101187
0.0102538
0.0103975
0.0105145
0.0105484
0.0105333
0.0104974
0.010453
0.0104066
0.0103704
0.0103557
0.0103694
0.0104071
0.0104371
0.0107141
0.0106055
0.0104899
0.0103532
0.010221
0.0101097
0.010025
0.00997013
0.00994312
0.00993957
0.00995384
0.00996954
0.00998021
0.00999867
0.0100655
0.0101617
0.010278
0.0104196
0.0105638
0.0106835
0.0107206
0.0107096
0.0106833
0.010655
0.0106272
0.0106071
0.0106047
0.0106264
0.0106676
0.0106954
0.0108529
0.0107458
0.0106186
0.0104802
0.0103506
0.0102413
0.0101552
0.0100958
0.0100605
0.0100453
0.0100461
0.0100534
0.0100614
0.0100808
0.0101487
0.0102559
0.0103857
0.0105338
0.0106786
0.0107959
0.0108307
0.0108168
0.0107913
0.0107718
0.0107569
0.0107502
0.0107585
0.0107881
0.0108338
0.0108601
0.0108903
0.01078
0.0106467
0.0105107
0.0103863
0.0102821
0.0101959
0.0101294
0.010084
0.0100585
0.0100484
0.0100525
0.0100625
0.0100853
0.0101594
0.0102818
0.0104337
0.0105915
0.0107372
0.0108475
0.0108749
0.0108522
0.0108183
0.0107984
0.0107884
0.0107898
0.0108053
0.0108413
0.0108923
0.0109188
0.0108196
0.0107007
0.0105667
0.0104389
0.0103223
0.0102203
0.010128
0.0100505
0.00999712
0.00996676
0.00995271
0.00995969
0.00997373
0.0100035
0.0100877
0.0102259
0.0104038
0.0105801
0.0107313
0.0108348
0.0108516
0.0108158
0.0107664
0.0107343
0.0107191
0.0107207
0.0107376
0.0107768
0.0108329
0.0108638
0.0106433
0.0105135
0.0103816
0.0102555
0.0101379
0.0100336
0.00993559
0.00985057
0.00979659
0.00976817
0.00975909
0.00977336
0.0097921
0.00983588
0.00993464
0.0100909
0.0102913
0.0104884
0.0106427
0.0107375
0.0107444
0.010697
0.0106318
0.0105815
0.010554
0.0105436
0.0105533
0.0105898
0.0106496
0.0106929
0.0103497
0.0101972
0.010073
0.00996569
0.0098656
0.00976061
0.00965247
0.00955153
0.00948194
0.00946855
0.00946798
0.00949224
0.00952299
0.00958617
0.00970438
0.00988222
0.0101034
0.0103189
0.0104789
0.0105533
0.0105441
0.010478
0.0103892
0.0103211
0.0102743
0.010247
0.0102482
0.0102853
0.0103472
0.0104037
0.00989933
0.00973398
0.00961854
0.00952504
0.00943472
0.00933335
0.00922314
0.00912266
0.00906424
0.0090742
0.00908498
0.00912327
0.00917557
0.00926298
0.00940641
0.00961058
0.00985325
0.0100858
0.0102494
0.0102999
0.0102686
0.010178
0.010059
0.00995584
0.00987797
0.00982589
0.00980541
0.00983663
0.00990301
0.0099673
0.00928661
0.00913397
0.00903203
0.00895919
0.00888607
0.00879425
0.00868942
0.00859871
0.00856618
0.00859494
0.00862827
0.00868761
0.00876461
0.0088813
0.00905679
0.00929336
0.00955995
0.00981014
0.0099727
0.0100004
0.00994093
0.00981591
0.00965851
0.00951115
0.00939206
0.00930545
0.00925162
0.00925272
0.0093057
0.00937103
0.00855599
0.00842103
0.00833634
0.00828355
0.00823558
0.00816077
0.00807745
0.00801621
0.0080114
0.00805845
0.00812025
0.00820552
0.00831217
0.00846371
0.0086791
0.00895552
0.00925015
0.00951904
0.00967892
0.0096838
0.0095917
0.00942526
0.00922204
0.00902371
0.00885386
0.00872226
0.00862538
0.00858528
0.0086017
0.00864287
0.00777679
0.00766691
0.00759404
0.0075555
0.00753838
0.00749258
0.00744025
0.00741039
0.00743359
0.00750047
0.00759124
0.0077074
0.00784821
0.00804046
0.00830469
0.00862957
0.00895826
0.00924823
0.00940789
0.0093912
0.00926377
0.00905322
0.00879784
0.008542
0.0083142
0.00812625
0.00798012
0.00788956
0.00785944
0.00786371
0.00701909
0.00693255
0.00687892
0.00685818
0.00686059
0.00684429
0.00682295
0.00682525
0.00687526
0.00696452
0.00708164
0.00722999
0.00741003
0.00764873
0.00797263
0.00835625
0.00872707
0.00904268
0.00920857
0.0091736
0.0090134
0.00875558
0.00844499
0.00812713
0.00783028
0.00758024
0.00737776
0.00723426
0.00714839
0.00710654
0.00635427
0.00628924
0.00625703
0.00625175
0.00625985
0.00626768
0.0062756
0.00630848
0.00638269
0.00649516
0.00663817
0.00681836
0.00704117
0.00733633
0.00773188
0.00818727
0.00861055
0.00896036
0.00914419
0.00909845
0.00890984
0.0086047
0.00823421
0.00784871
0.00748342
0.00716195
0.00689443
0.00669146
0.00654825
0.00645036
0.00586615
0.00581128
0.00578795
0.00578777
0.00579774
0.00581551
0.00584933
0.00591021
0.00600871
0.00614601
0.00631647
0.00653193
0.00680498
0.00716709
0.00764858
0.00818805
0.00867406
0.00906847
0.00928702
0.00924696
0.00904568
0.00870369
0.00827363
0.00781156
0.0073654
0.00696348
0.00662119
0.0063478
0.00613948
0.00597957
0.00568227
0.00561439
0.00557601
0.00556101
0.00556316
0.00558241
0.00563408
0.0057178
0.00584281
0.00601088
0.00621539
0.00647111
0.00679766
0.00723208
0.00780744
0.00844375
0.00900189
0.00945362
0.00972798
0.00972049
0.00953549
0.00918408
0.00871826
0.00819481
0.00766645
0.0071688
0.00672802
0.00636113
0.0060655
0.00582559
0.00615789
0.00603303
0.00593415
0.00586393
0.00582592
0.00582312
0.00587278
0.00596592
0.00610357
0.00628409
0.00650653
0.00679212
0.00716735
0.00767587
0.0083477
0.00908649
0.00972169
0.0102442
0.0105955
0.0106636
0.0105427
0.010231
0.00977974
0.00924365
0.00867248
0.008105