/*--------------------------------*- C++ -*----------------------------------*\
| =========                 |                                                 |
| \\      /  F ield         | OpenFOAM: The Open Source CFD Toolbox           |
|  \\    /   O peration     | Version:  v1912                                 |
|   \\  /    A nd           | Website:  www.openfoam.com                      |
|    \\/     M anipulation  |                                                 |
\*---------------------------------------------------------------------------*/
FoamFile
{
    version     2.0;
    format      ascii;
    class       volScalarField;
    location    "440";
    object      epsilon;
}
// * * * * * * * * * * * * * * * * * * * * * * * * * * * * * * * * * * * * * //

dimensions      [0 2 -3 0 0 0 0];


internalField   nonuniform List<scalar> 
12441
(
0.0102964
0.00908492
0.00832704
0.00770258
0.00718362
0.00674893
0.00638219
0.00607074
0.00580478
0.00557618
0.00537868
0.00520246
0.00505883
0.00491064
0.00479532
0.00469288
0.00487305
0.0203096
0.275503
3.03907
20.9524
39.25
0.0101189
0.00892004
0.00818392
0.00757681
0.00707185
0.00664859
0.00629128
0.00598769
0.00572838
0.00550545
0.00531284
0.00514044
0.00500131
0.00485706
0.00474515
0.00464719
0.00479972
0.0200348
0.259391
3.03123
21.2427
40.2318
0.00989685
0.00871728
0.00800023
0.00740902
0.0069174
0.00650547
0.00615784
0.00586266
0.00561071
0.00539435
0.00520768
0.00504067
0.00490691
0.00476543
0.00465896
0.00456636
0.00464483
0.0181438
0.219493
3.00004
21.6217
41.3784
0.00967327
0.00851363
0.00781486
0.00723878
0.00675982
0.00635858
0.0060201
0.00573282
0.00548778
0.00527757
0.00509644
0.00493491
0.00480555
0.00467243
0.00457036
0.0044827
0.00450243
0.0158837
0.180636
2.97699
22.0889
42.5504
0.00942904
0.00828902
0.00760898
0.00704852
0.00658275
0.00619275
0.00586395
0.00558514
0.00534761
0.00514416
0.00496925
0.00481359
0.00469004
0.00456005
0.00446442
0.00438417
0.00435283
0.0138534
0.160742
2.98349
22.6065
43.6698
0.00922307
0.0080994
0.00743457
0.00688673
0.00643152
0.00605044
0.00572924
0.00545697
0.00522512
0.00502668
0.00485624
0.00470498
0.00458467
0.00446279
0.00437059
0.00429404
0.00427908
0.0139673
0.180199
3.09012
23.2374
44.7472
0.0090024
0.00789579
0.00724742
0.00671331
0.00626968
0.00589845
0.00558575
0.0053209
0.00509561
0.00490306
0.00473801
0.00459187
0.0044766
0.00435706
0.00426876
0.00420028
0.00603226
0.0230223
0.285915
3.3916
24.0826
45.7945
0.00882395
0.00773115
0.0070956
0.0065721
0.00613729
0.00577348
0.00546704
0.00520752
0.0049868
0.00479821
0.00463663
0.0044938
0.00438077
0.00427028
0.00418906
0.00516503
0.0343195
0.0792798
0.599796
4.02846
25.267
46.8732
0.0086298
0.00755194
0.00693092
0.00641952
0.00599493
0.00563982
0.00534088
0.0050879
0.00487294
0.00468951
0.0045326
0.00439431
0.00428638
0.00413915
0.00539136
0.0268734
0.173603
0.295483
1.28686
5.15318
26.9237
48.0153
0.00847512
0.00740905
0.00679902
0.00629667
0.0058796
0.00553076
0.00523709
0.00498856
0.00477739
0.00459721
0.00444312
0.00430761
0.00420009
0.00426931
0.0250634
0.146494
0.508837
0.777027
2.36835
6.82486
29.1488
49.2846
0.00830567
0.00725259
0.00665529
0.00616357
0.00575545
0.00541425
0.00512715
0.00488434
0.0046782
0.0045025
0.00435243
0.00422196
0.00408579
0.00945747
0.111224
0.412358
0.980033
1.46054
3.62603
8.93742
31.969
50.6975
0.00817066
0.00712789
0.00654015
0.00605628
0.00565466
0.00531885
0.00503626
0.00479724
0.00459431
0.00442133
0.00427362
0.00414704
0.00416069
0.0476796
0.304112
0.747386
1.41802
2.1364
4.8011
11.2708
35.3288
52.295
0.00802151
0.00699023
0.00641383
0.00593944
0.00554579
0.00521677
0.00494002
0.00470608
0.00450759
0.00433854
0.00419434
0.00403473
0.00834741
0.158218
0.544499
1.03299
1.74229
2.67244
5.77805
13.6077
39.1162
54.0597
0.00790064
0.00687859
0.00631076
0.00584338
0.00545554
0.00513135
0.00485864
0.0046281
0.00443248
0.00426589
0.00412381
0.00387973
0.036423
0.318027
0.745537
1.234
1.96303
3.05957
6.55748
15.8015
43.1922
56.0037
0.00776923
0.00675723
0.00619943
0.00574041
0.0053596
0.0050414
0.00477382
0.00454772
0.00435598
0.00419281
0.00405374
0.00425907
0.108124
0.468769
0.889285
1.37032
2.11348
3.33551
7.17958
17.7809
47.4228
58.0812
0.00766017
0.00665656
0.00610648
0.0056538
0.00527823
0.00496439
0.00470045
0.00447743
0.00428829
0.00412736
0.0039903
0.0094254
0.206721
0.585079
0.988683
1.46492
2.21963
3.53758
7.68593
19.5265
51.6917
60.2902
0.00754421
0.00654949
0.00600833
0.00556307
0.00519372
0.00488514
0.00462571
0.00440655
0.00422076
0.00406275
0.00392868
0.0316936
0.30226
0.669643
1.05924
1.53337
2.29797
3.69217
8.10923
21.0468
55.9116
62.571
0.00744271
0.00645591
0.00592203
0.00548277
0.00511841
0.004814
0.00455808
0.00434191
0.00415868
0.00400289
0.00387346
0.0777991
0.380263
0.73139
1.11147
1.58516
2.35858
3.81638
8.47298
22.3623
60.0204
64.9213
0.00734007
0.006361
0.00583497
0.00540221
0.00504328
0.00474345
0.00449143
0.00427859
0.00409821
0.00394492
0.00380969
0.134875
0.440075
0.778016
1.15189
1.62608
2.40774
3.92109
8.79341
23.4968
63.983
67.2818
0.00724546
0.00627386
0.00575467
0.00532756
0.00497335
0.00467749
0.00442883
0.00421886
0.00404098
0.00388986
0.00427785
0.188938
0.485726
0.814685
1.18448
1.65978
2.44948
4.01328
9.08155
24.4732
67.783
69.6617
0.00715521
0.00619035
0.00567804
0.00525659
0.00490707
0.00461512
0.00436975
0.00416257
0.00398703
0.00383801
0.00987544
0.234856
0.521482
0.844672
1.21178
1.68865
2.48651
4.0974
9.34464
25.3125
71.4243
72.0102
0.00706445
0.00610693
0.00560134
0.0051855
0.0048407
0.00455275
0.00431081
0.00410659
0.00393363
0.00378737
0.0277496
0.272448
0.550492
0.870068
1.23546
1.71432
2.52073
4.17614
9.58738
26.0329
74.9234
74.3523
0.00698514
0.00603332
0.00553362
0.00512259
0.00478173
0.00449706
0.00425784
0.00405588
0.00388485
0.00374232
0.0567505
0.303195
0.574874
0.892243
1.25668
1.73795
2.55348
4.25101
9.81272
26.651
78.3129
76.6493
0.00689866
0.00595393
0.00546074
0.00505516
0.00471892
0.0044382
0.00420238
0.00400339
0.00383495
0.00370254
0.0883663
0.328694
0.596017
0.912141
1.27627
1.76039
2.58568
4.32273
10.0226
27.1809
81.6354
78.9445
0.00683037
0.00589043
0.00540221
0.00500061
0.00466758
0.00438945
0.00415573
0.00395844
0.0037914
0.00368404
0.11711
0.350329
0.614846
0.930429
1.29485
1.78224
2.61784
4.3916
10.2182
27.6355
84.9468
81.212
0.0067447
0.00581206
0.00533056
0.00493468
0.00460653
0.00433261
0.00410256
0.00390849
0.00374429
0.00364503
0.141745
0.369161
0.631991
0.947599
1.31284
1.80394
2.65017
4.45779
10.4005
28.0259
88.3107
83.5114
0.00668553
0.00575672
0.00527928
0.00488656
0.00456091
0.00428896
0.00406047
0.00386763
0.00370449
0.00383965
0.162852
0.385954
0.647894
0.964012
1.33058
1.82573
2.68265
4.52142
10.5702
28.3619
91.8002
85.8273
0.00660182
0.0056803
0.00520958
0.00482262
0.00450194
0.0042343
0.00400958
0.00382006
0.00365992
0.0057766
0.181325
0.401246
0.662876
0.979936
1.34827
1.84773
2.71517
4.58264
10.7281
28.6518
95.4908
88.2307
0.00655213
0.00563357
0.00516601
0.00478141
0.00446249
0.00419615
0.00397238
0.00378355
0.00362435
0.0110948
0.197904
0.415415
0.677174
0.995562
1.36603
1.86995
2.74756
4.64161
10.8749
28.9027
99.4593
90.7106
0.00646806
0.00555714
0.00509667
0.00471819
0.00440459
0.00414291
0.00392322
0.00373798
0.00358291
0.0206684
0.213097
0.428728
0.690964
1.01102
1.38393
1.89235
2.77972
4.6985
11.0114
29.1202
103.775
93.3406
0.00642581
0.00551698
0.00505882
0.00468197
0.00436948
0.00410854
0.00388934
0.00370441
0.00355181
0.0343512
0.227234
0.441379
0.704376
1.0264
1.40195
1.91485
2.81155
4.75345
11.1381
29.3095
108.5
96.1058
0.00634337
0.00544217
0.0049911
0.00462042
0.00431334
0.00405714
0.0038421
0.00366083
0.00351589
0.0510213
0.240525
0.45351
0.717503
1.04174
1.42009
1.93738
2.84298
4.80659
11.2559
29.475
113.681
99.0732
0.00630966
0.00540979
0.00496022
0.0045904
0.00428371
0.00402761
0.00381247
0.00363098
0.00349485
0.0692816
0.253107
0.465227
0.730409
1.05706
1.43828
1.95985
2.87398
4.85799
11.3655
29.6208
119.351
102.217
0.00622521
0.00533353
0.0048916
0.0045285
0.00422773
0.00397685
0.0037663
0.00358883
0.00347376
0.0879196
0.265075
0.476607
0.743136
1.07235
1.45647
1.98222
2.90451
4.90774
11.4677
29.7512
125.531
105.592
0.00619834
0.00530722
0.00486598
0.00450298
0.00420196
0.00395059
0.00373946
0.00356139
0.00347856
0.106114
0.276495
0.487705
0.755704
1.08759
1.47462
2.00441
2.93456
4.95584
11.563
29.8702
132.236
109.157
0.00611138
0.00522912
0.00479613
0.00444041
0.00414582
0.00390011
0.00369394
0.0035202
0.00354866
0.123344
0.287408
0.498556
0.768118
1.10277
1.49266
2.02639
2.96409
5.00231
11.6523
29.9813
139.469
112.957
0.0060878
0.00520576
0.00477302
0.00441701
0.00412179
0.00387529
0.0036683
0.00349379
0.00623515
0.139282
0.297837
0.509184
0.780373
1.11783
1.51055
2.0481
2.99308
5.04711
11.7364
30.0877
147.234
116.938
0.00599584
0.00512375
0.00470018
0.00435224
0.00406412
0.00382386
0.00362229
0.0034525
0.026327
0.153637
0.307789
0.519595
0.79245
1.13274
1.52822
2.06951
3.02148
5.0902
11.8159
30.1909
155.512
121.137
0.00596751
0.00509628
0.00467349
0.00432569
0.00403731
0.00379658
0.00359452
0.00342481
0.0501775
0.165971
0.31726
0.529788
0.804326
1.14745
1.54564
2.09056
3.04925
5.13148
11.8917
30.2918
164.252
125.495
0.00586285
0.00500337
0.00459135
0.00425299
0.00397292
0.00373948
0.00354378
0.00338453
0.0637839
0.176185
0.32624
0.53975
0.81597
1.16192
1.56274
2.11121
3.07634
5.17089
11.9646
30.3894
173.322
130.045
0.00582123
0.00496392
0.00455381
0.00421657
0.00393711
0.00370404
0.00350865
0.00334623
0.0713535
0.184548
0.334722
0.549462
0.827347
1.1761
1.57947
2.1314
3.10266
5.20832
12.0352
30.4824
182.45
134.727
0.00569962
0.00485638
0.00445876
0.00413221
0.00386202
0.00363705
0.00344875
0.00347021
0.0759386
0.191403
0.342704
0.558898
0.838421
1.18991
1.59577
2.15106
3.12814
5.24371
12.1038
30.5698
191.159
139.588
0.0056173
0.00478985
0.00440427
0.00408605
0.00382149
0.00360018
0.00341405
0.00388605
0.0789303
0.197052
0.350189
0.568025
0.849155
1.20329
1.61158
2.17014
3.15268
5.277
12.1705
30.6518
198.754
144.654
0.00525489
0.00446058
0.00411233
0.00382679
0.00358958
0.00339105
0.00322385
0.00407379
0.0809808
0.201724
0.357184
0.576804
0.859515
1.21618
1.62682
2.18854
3.17616
5.30821
12.2345
30.7299
204.429
150.447
95.0235
45.9313
30.7957
24.3909
24.2363
20.708
19.9594
17.8413
16.7501
16.1481
15.4305
14.5738
15.3115
17.5797
21.1964
24.6551
27.0406
28.9882
30.9835
32.6276
34.0963
35.7072
37.1333
37.9523
38.3346
38.1052
37.354
36.1741
34.6913
33.9491
35.0998
30.8448
5.27928
3.44983
3.03835
94.6475
45.9461
30.8472
24.6495
24.7202
21.0698
20.315
18.1132
16.9948
16.3643
15.5504
14.6926
15.4414
17.7027
21.317
24.8198
27.2493
29.2555
31.3169
33.029
34.5611
36.1992
37.6645
38.5203
38.9328
38.7056
37.9258
36.6781
35.11
34.2945
35.4351
31.6546
5.29641
3.44639
3.03492
93.9266
45.9607
30.945
25.1689
25.6791
21.794
21.0098
18.6454
17.4823
16.7964
15.8044
14.9387
15.6855
17.9297
21.5705
25.1317
27.6379
29.7939
32.0296
33.9053
35.5711
37.2446
38.7622
39.6777
40.1516
39.9355
39.1066
37.7248
35.9773
35.0048
36.1386
31.8979
5.3228
3.43952
3.02808
92.8104
45.9667
31.0954
25.9723
27.1015
22.8832
22.0193
19.422
18.2059
17.4404
16.224
15.3447
16.0731
18.3013
22.0072
25.6517
28.2844
30.7042
33.2806
35.4567
37.3094
38.9904
40.5433
41.5213
42.0784
41.8809
40.9847
39.4016
37.3655
36.1194
37.2786
31.8825
5.3601
3.42926
3.01785
91.3035
45.9554
31.308
27.0776
28.9674
24.3319
23.3183
20.433
19.1584
18.2904
16.8445
15.9565
16.6471
18.8546
22.6773
26.4639
29.3034
32.1521
35.3456
38.0385
40.1024
41.6952
43.2074
44.2105
44.8539
44.6767
43.6964
41.8416
39.3833
37.7019
38.9452
31.8611
5.41109
3.41567
3.00423
89.3553
45.9192
31.5962
28.506
31.2711
26.1448
24.8998
21.6828
20.3425
19.3493
17.7001
16.8216
17.4518
19.6206
23.613
27.6457
30.8367
34.3697
38.639
42.2263
44.5032
45.8007
47.0895
48.0053
48.6982
48.5261
47.4419
45.2386
42.1895
39.8469
41.2577
32.0224
5.47933
3.39883
2.98726
87.0012
45.8512
31.9784
30.2903
34.026
28.3432
26.7787
23.192
21.7762
20.6361
18.8282
17.9937
18.543
20.6409
24.8431
29.2621
33.0386
37.6472
43.7258
48.9057
51.4306
52.0575
52.7516
53.3276
53.9531
53.7309
52.5094
49.8698
46.0121
42.6899
44.3734
32.5099
5.56899
3.37882
2.96697
84.2135
45.7456
32.479
32.4723
37.2534
30.9612
28.9876
24.9954
23.4926
22.1867
20.2779
19.5422
20.0057
21.9936
26.426
31.3911
36.0822
42.3266
51.2929
59.3419
62.37
61.7327
61.1357
60.862
61.1476
60.7363
59.3091
56.1254
51.1738
46.4214
48.4974
33.45
5.6849
3.35569
2.9434
81.0699
45.5973
33.1296
35.0925
40.9686
34.0357
31.5708
27.1402
25.5385
24.0535
22.1154
21.5583
21.9676
23.8135
28.4764
34.1653
40.2002
48.8165
62.025
75.0238
79.4958
76.8736
73.7872
71.7025
71.0891
70.1899
68.4146
64.544
58.124
51.3022
53.8905
34.9805
5.83269
3.32954
2.91659
77.574
45.4016
33.9693
38.1743
45.1672
37.5975
34.578
29.6825
27.9714
26.3026
24.4242
24.1525
24.6034
26.312
31.1867
37.8055
45.7357
57.6049
76.2838
96.7368
105.046
100.278
93.0218
87.4937
84.9481
82.9911
80.5934
75.8358
67.4642
57.6793
60.8677
37.2782
6.01888
3.30043
2.88662
73.8369
45.1546
35.0454
41.7067
49.8188
41.6631
38.057
32.6833
30.8569
29.0131
27.3033
27.4416
28.1248
29.7889
34.8524
42.6502
53.173
69.175
93.5226
122.427
138.37
133.778
121.34
110.255
104.178
100.233
96.7537
90.8347
79.9313
65.9848
69.7666
40.5888
6.25099
3.26842
2.85355
69.8857
44.8472
36.4126
45.634
54.8663
46.2304
42.0464
36.2015
34.2612
32.2704
30.8552
31.5235
32.7459
34.6345
39.8886
49.1599
63.0663
83.6491
111.831
146.133
171.465
172.938
158.292
140.926
129.787
122.759
117.617
110.226
96.2295
76.6822
80.8518
45.2571
6.53714
3.23353
2.81747
65.8489
44.4661
38.1294
49.8605
60.2336
51.2796
46.5686
40.2867
38.243
36.1575
35.1729
36.4334
38.5885
41.2592
46.8067
57.8539
75.7499
100.139
128.487
162.169
192.58
203.952
195.007
175.638
160.24
149.885
142.8
133.779
116.501
90.0786
94.0991
51.7463
6.885
3.19577
2.7785
61.7626
43.9968
40.2509
54.275
65.8386
56.7801
51.6245
44.97
42.84
40.7367
40.3012
42.096
45.5228
49.8684
56.0578
69.0455
90.6846
116.372
141.417
170.113
198.611
215.71
216.966
203.567
189.008
177.531
169.33
159.028
139.259
105.893
108.838
60.6033
7.29901
3.15504
2.73675
57.7502
43.4245
42.815
58.7857
71.6049
62.7005
57.1965
50.2568
48.0599
46.0324
46.2097
48.2879
53.0002
59.9848
67.575
82.2781
105.902
129.639
150.084
173.135
195.883
211.606
218.937
214.776
206.901
198.461
191.231
180.589
160.372
122.608
123.407
72.2577
7.77482
3.11117
2.69237
53.8399
42.7352
45.8262
63.3465
77.4762
69.0129
63.2508
56.1261
53.8743
52.0076
52.7615
54.6776
60.1003
70.0244
80.0536
95.7331
118.618
138.589
155.204
174.004
190.827
201.382
208.433
210.048
209.935
207.092
202.553
192.403
174.06
137.168
135.271
86.4631
8.29007
3.06386
2.64552
50.1273
41.9198
49.2449
67.9601
83.4181
75.6785
69.7447
62.541
60.2306
58.5734
59.7566
60.9463
65.9371
77.7071
90.7658
106.687
127.205
143.89
158.018
173.895
185.972
190.971
194.485
197.317
201.987
203.838
201.732
192.02
176.658
146.036
142.004
101.373
8.79358
3.01269
2.59636
46.6135
40.9816
52.9903
72.6222
89.4226
82.648
76.6274
69.4561
67.066
65.6111
66.9886
66.9642
70.2295
81.6394
97.1027
113.329
132.149
147.173
159.648
173.045
181.337
181.781
181.418
183.138
189.364
193.286
191.848
181.868
169.228
147.37
142.613
113.156
9.20239
2.95715
2.54509
43.349
39.9478
56.9546
77.3315
95.4732
89.8489
83.8364
76.8228
74.3293
73.0247
74.368
72.8657
73.4609
82.3363
98.6572
116.065
135.191
149.859
160.74
171.37
176.237
173.291
170.025
170.265
176.213
179.889
177.292
166.463
155.879
142.101
137.925
117.742
9.42085
2.89681
2.49191
40.3033
38.883
60.9759
82.1091
101.534
97.1755
91.2879
84.5815
81.9828
80.7652
81.9362
79.0189
76.5888
81.6467
97.2982
116.786
137.941
152.663
161.432
168.735
170.197
164.784
159.859
159.127
164.102
166.125
161.282
149.538
140.596
132.798
129.739
113.812
9.3807
2.83144
2.43702
37.4893
37.8846
64.9247
86.9397
107.547
104.494
98.8743
92.6465
90.0004
88.8456
89.871
85.8733
80.5877
81.4263
95.4508
117.503
141.468
155.793
161.567
164.989
163.087
155.933
150.41
149.357
153.178
152.877
145.499
133.222
125.798
121.934
119.764
103.41
9.07292
2.76118
2.38064
34.8769
37.0295
68.7301
91.775
113.438
111.657
106.467
100.906
98.3423
97.2974
98.356
93.84
86.2475
83.0426
94.9627
119.633
146.277
159.2
160.949
160.074
155.056
146.8
141.43
140.508
143.106
140.263
130.646
118.427
112.5
111.072
109.127
89.818
8.546
2.68653
2.32301
32.4767
36.3942
72.3384
96.5416
119.125
118.525
113.931
109.224
106.946
106.145
107.531
103.168
94.0604
87.3346
96.9504
124.074
152.673
162.853
159.522
154.066
146.381
137.64
132.888
132.259
133.513
128.195
116.973
105.394
100.912
100.91
98.4138
75.6504
7.87856
2.60831
2.26434
30.2708
36.0578
75.7081
101.15
124.529
124.98
121.136
117.456
115.716
115.359
117.402
113.917
104.244
94.8974
102.171
131.406
160.798
166.755
157.398
147.229
137.427
128.747
124.836
124.411
124.138
116.619
104.556
94.0614
90.8883
91.6114
87.8846
62.4137
7.15015
2.52747
2.20487
28.2673
36.1075
78.8131
105.504
129.576
130.932
127.968
125.466
124.54
124.876
127.902
125.958
116.694
106.02
111.236
142.145
170.841
170.982
154.82
139.938
128.553
120.357
117.32
116.839
114.857
105.574
93.4028
84.2497
82.1636
83.0894
77.6733
50.7853
6.42379
2.44497
2.14482
26.4614
36.6361
81.6457
109.514
134.206
136.326
134.345
133.143
133.306
134.605
138.902
139.081
131.118
120.706
124.734
156.779
182.867
175.546
152.062
132.621
120.103
112.63
110.338
109.451
105.664
95.1612
83.4856
75.7484
74.4675
75.1807
67.8951
40.9576
5.74079
2.36172
2.08441
24.8623
37.7334
84.2147
113.114
138.384
141.144
140.218
140.42
141.931
144.478
150.32
153.081
147.139
138.549
143.032
175.775
196.891
180.39
149.362
125.662
112.326
105.639
103.84
102.184
96.6348
85.499
74.7419
68.3516
67.5653
67.7358
58.6818
32.8677
5.12313
2.27848
2.02384
23.4808
39.4751
86.5389
116.273
142.101
145.404
145.582
147.278
150.376
154.47
162.135
167.875
164.514
159.059
166.156
199.335
212.574
185.244
146.841
119.36
105.388
99.3829
97.7439
95.0023
87.893
76.6813
67.0816
61.8718
61.2709
60.6573
50.1712
26.3314
4.57868
2.19584
1.96331
22.3333
41.9122
88.6385
118.992
145.375
149.155
150.472
153.748
158.67
164.64
174.458
183.55
183.212
181.857
193.756
227.216
229.267
189.693
144.494
113.874
99.3479
93.806
91.9513
87.9094
79.577
68.7565
60.3952
56.1468
55.4483
53.9094
42.479
21.1186
4.1064
2.11427
1.90301
21.4546
45.0627
90.5285
121.299
148.246
152.467
154.955
159.912
166.906
175.142
187.55
200.454
203.545
207.018
225.509
258.487
245.733
193.123
142.17
109.238
94.1874
88.8111
86.3698
80.946
71.8118
61.7245
54.565
51.0398
50.0066
47.508
35.6758
16.9972
3.70044
2.03413
1.8431
20.8892
48.9012
92.2195
123.238
150.764
155.417
159.122
165.891
175.261
186.276
201.918
219.291
226.256
235.099
261.394
291.668
260.46
194.909
139.645
105.349
89.8096
84.2776
80.9274
74.1841
64.6895
55.5439
49.4736
46.4393
44.8936
41.5017
29.7777
13.7548
3.35286
1.95564
1.78373
20.7351
53.3487
93.7186
124.864
152.991
158.089
163.081
171.848
184.002
198.519
218.408
241.338
252.781
267.428
301.862
324.733
271.685
194.461
136.655
102.02
86.0749
80.0755
75.5822
67.713
58.261
50.146
45.0115
42.2562
40.0869
35.9492
24.7514
11.2088
3.05532
1.87897
1.72503
21.1259
58.2673
95.0335
126.23
154.988
160.568
166.958
177.994
193.516
212.623
238.416
268.756
285.577
306.209
347.509
355.201
277.954
191.447
132.988
98.9956
82.7991
76.0792
70.3271
61.6214
52.5351
45.4464
41.0806
38.4221
35.5851
30.9008
20.5274
9.20835
2.79995
1.80423
1.66714
22.2957
63.4698
96.1761
127.392
156.823
162.942
170.899
184.603
204.355
229.719
264.162
305.116
328.669
354.806
398.308
379.9
278.138
185.758
128.5
96.0191
79.7898
72.1798
65.1862
55.982
47.4872
41.3566
37.5959
34.8858
31.3982
26.3859
17.0154
7.6322
2.57974
1.73149
1.61016
24.5223
68.743
97.1633
128.4
158.564
165.309
175.084
192.042
217.312
251.53
299.133
355.949
387.865
416.978
451.688
395.177
271.838
177.589
123.15
92.8579
76.8497
68.2958
60.2052
50.8406
43.0678
37.7908
34.4859
31.6103
27.5399
22.4097
14.1177
6.38476
2.38867
1.66079
1.55419
28.1637
73.8809
98.0154
129.303
160.283
167.781
179.744
200.811
233.535
280.632
348.474
428.504
469.075
493.626
499.953
397.396
259.249
167.302
116.974
89.3473
73.8133
64.3787
55.4388
46.2143
39.2138
34.6704
31.6914
28.5696
24.0207
18.9547
11.7388
5.39165
2.22169
1.59215
1.49931
33.4954
78.7142
98.7533
130.142
162.065
170.501
185.19
211.621
254.725
320.842
418.693
527.361
569.774
573.758
529.325
384.375
241.357
155.427
110.088
85.3891
70.5533
60.4148
50.9374
42.0924
35.8559
31.9262
29.1642
25.7465
20.8451
15.9863
9.79117
4.59546
2.07464
1.52559
1.4456
40.701
83.1298
99.3962
130.959
164.011
173.659
191.866
225.529
283.452
377.432
513.819
640.014
662.164
626.839
525.81
356.732
219.629
142.534
102.655
80.9627
67.0043
56.4193
46.7376
38.4437
32.9262
29.4992
26.8658
23.1296
18.0092
13.4591
8.19806
3.95213
1.94408
1.46112
1.39313
49.6321
87.0789
99.9615
131.801
166.256
177.535
200.441
244.175
323.657
456.114
622.962
721.045
694.886
619.64
486.271
318.487
195.91
129.224
94.8836
76.1066
63.1528
52.4259
42.8564
35.2228
30.3608
27.3399
24.7655
20.7112
15.5013
11.3228
6.89411
3.42787
1.82724
1.39875
1.34197
59.8743
90.5719
100.465
132.723
168.995
182.558
211.994
270.257
381.167
556.705
705.094
720.35
644.78
553.395
422.916
275.531
171.909
116.022
86.9999
70.917
59.0375
48.4746
39.2916
32.3775
28.103
25.4078
22.8394
18.4859
13.3031
9.52671
5.8249
2.9968
1.72184
1.33851
1.29218
70.5911
93.6637
100.924
133.803
172.536
189.454
228.387
308.418
462.643
656.077
711.548
641.728
545.326
461.685
353.497
233.212
149.007
103.38
79.2368
65.5276
54.728
44.6032
36.0246
29.8535
26.1032
23.6697
21.069
16.4491
11.3916
8.02242
4.94576
2.63905
1.62606
1.2804
1.24383
80.9187
96.4363
101.358
135.162
177.406
199.541
253.105
366.475
565.356
699.921
639.824
531.593
442.086
374.759
289.918
194.649
128.008
91.6169
71.8076
60.1012
50.319
40.8427
33.0262
27.5987
24.3192
22.099
19.4403
14.5961
9.74103
6.76591
4.22043
2.33928
1.53838
1.22446
1.19696
89.3733
98.9807
101.793
137.005
184.599
215.454
292.976
453.38
647.394
651.732
529.496
427.129
356.482
303.551
235.851
160.869
109.29
80.9479
64.8968
54.807
45.9152
37.2186
30.2621
25.5646
22.7149
20.674
17.9423
12.9216
8.32442
5.71816
3.61962
2.08567
1.45761
1.1707
1.15164
95.1437
101.402
102.276
139.721
196.199
242.902
360.033
553.181
633.173
536.576
417.474
341.273
290.514
247.578
190.782
131.785
92.8886
71.4567
58.6307
49.8047
41.6285
33.7558
27.6995
23.7077
21.2591
19.3765
16.5668
11.4192
7.11508
4.84529
3.11977
1.86902
1.38273
1.11917
1.10793
0.00337789
0.00250589
0.00227959
0.00216889
0.00212899
0.00213242
0.00216493
0.00413175
0.0820709
0.204632
0.362056
0.583025
0.866823
1.22517
1.63745
2.20136
3.19244
5.32976
12.2792
30.7894
206.693
160.166
0.00334448
0.00224269
0.00184311
0.00160791
0.00148767
0.00145032
0.00148327
0.00416254
0.0826081
0.206206
0.364852
0.586472
0.870648
1.2297
1.64269
2.20767
3.20064
5.34127
12.3064
30.8341
207.625
170.302
0.00354052
0.00237578
0.0018822
0.00154486
0.0013236
0.00119343
0.00116352
0.00418412
0.0829606
0.207358
0.36703
0.588984
0.873143
1.2324
1.64564
2.21119
3.20544
5.3488
12.3269
30.88
207.709
179.979
0.00367088
0.00251734
0.00200369
0.00162957
0.00135798
0.00116699
0.00103257
0.00419873
0.0831545
0.208116
0.368588
0.590545
0.874278
1.23326
1.64629
2.21189
3.20674
5.35217
12.3392
30.9276
207.008
189.064
0.00392263
0.0027638
0.00222606
0.0018216
0.00151363
0.00127952
0.000998117
0.0042078
0.083205
0.208496
0.369519
0.591141
0.874036
1.23226
1.64458
2.2097
3.20444
5.35118
12.3417
30.9775
205.565
198.018
0.0040603
0.00292963
0.00239816
0.00199151
0.00167444
0.00142439
0.000986781
0.00421222
0.0831212
0.208509
0.369818
0.590763
0.872406
1.22938
1.64053
2.20461
3.19847
5.34569
12.3329
31.0297
203.414
207.011
0.00434054
0.00320784
0.00265909
0.00223275
0.0018951
0.0016236
0.00105566
0.00421247
0.0829083
0.208162
0.369485
0.58941
0.86939
1.22463
1.63412
2.1966
3.18878
5.33553
12.3113
31.0839
200.594
216.041
0.00447867
0.00337918
0.00284356
0.00242285
0.00208561
0.00181034
0.00118224
0.00420864
0.0825695
0.207463
0.368524
0.58709
0.865001
1.21805
1.62539
2.18567
3.17532
5.32057
12.2758
31.1392
197.154
225.047
0.00478409
0.00368448
0.00313417
0.00269616
0.00234099
0.00204783
0.00130685
0.00420048
0.0821064
0.206417
0.366947
0.583817
0.859266
1.20965
1.61437
2.17185
3.15805
5.30068
12.2254
31.1942
193.15
233.958
0.00490879
0.00384879
0.00331918
0.00289404
0.00254599
0.00225535
0.00139728
0.00418753
0.08152
0.20503
0.36477
0.579616
0.852222
1.19948
1.60112
2.15517
3.13693
5.27575
12.1592
31.2465
188.643
242.691
0.00522944
0.00417109
0.00362959
0.00318971
0.00282604
0.00251975
0.00151125
0.00416926
0.0808102
0.203312
0.362014
0.574518
0.843919
1.18762
1.58571
2.13568
3.11195
5.24566
12.0766
31.293
183.698
251.133
0.00533939
0.00432465
0.00380956
0.00338847
0.00303771
0.00273948
0.00163084
0.00414488
0.079976
0.201271
0.358706
0.568564
0.834416
1.17412
1.56823
2.11345
3.08309
5.21029
11.9772
31.3295
178.382
259.154
0.00567213
0.00466076
0.00413628
0.0037026
0.00333805
0.00302586
0.00183512
0.0041135
0.0790144
0.198916
0.354875
0.561802
0.823782
1.15907
1.54877
2.08857
3.05037
5.16953
11.8606
31.3506
172.764
266.602
0.00575636
0.00479287
0.00430087
0.00389237
0.00354704
0.003249
0.00211276
0.00407369
0.0779203
0.196256
0.350551
0.554287
0.812093
1.14257
1.52745
2.06116
3.0138
5.12323
11.7266
31.35
166.91
273.325
0.0060921
0.00513315
0.00463387
0.00421481
0.00385762
0.00354758
0.00251706
0.00402383
0.0766841
0.193298
0.345765
0.546076
0.799432
1.12471
1.50439
2.03135
2.97346
5.07127
11.5753
31.3206
160.887
279.176
0.00615227
0.00524293
0.00477991
0.0043905
0.00405732
0.00376639
0.00298308
0.00396105
0.0752908
0.190046
0.340547
0.537231
0.785886
1.10561
1.47973
1.99929
2.92942
5.01349
11.4067
31.2541
154.753
284.023
0.00648675
0.00558292
0.00511437
0.004716
0.0043724
0.00407083
0.00349526
0.00388211
0.0737167
0.186495
0.33492
0.527818
0.771546
1.08537
1.45359
1.96514
2.8818
4.94974
11.221
31.142
148.562
287.754
0.00651845
0.00566545
0.00523629
0.00487146
0.00455615
0.00427816
0.00389178
0.0037808
0.0719259
0.182634
0.328903
0.517899
0.756508
1.06411
1.42613
1.92907
2.83075
4.87986
11.0188
30.975
142.364
290.288
0.00683899
0.00599229
0.00555941
0.00518746
0.00486354
0.00457676
0.00426846
0.0036562
0.0698653
0.178436
0.322507
0.507535
0.740867
1.04195
1.39748
1.89127
2.77647
4.80373
10.8005
30.744
136.199
291.566
0.00685359
0.00605575
0.00566213
0.00532455
0.00503046
0.00476931
0.00452389
0.00351732
0.0674576
0.173853
0.315725
0.49678
0.724718
1.019
1.36779
1.85192
2.71915
4.72121
10.5667
30.4399
130.101
291.557
0.00716007
0.00636926
0.00597341
0.00563012
0.00532865
0.00505975
0.00481905
0.00343139
0.064592
0.168811
0.308535
0.485676
0.708158
0.995386
1.3372
1.81123
2.65905
4.63221
10.3183
30.0545
124.098
290.248
0.00715672
0.00641252
0.00605539
0.00574687
0.0054763
0.0052346
0.00501969
0.00357629
0.0611143
0.163195
0.300885
0.47425
0.691272
0.971228
1.30586
1.76938
2.59642
4.53669
10.0561
29.5806
118.209
287.643
0.00744653
0.00670953
0.0063511
0.00603783
0.00576079
0.00551218
0.00528886
0.00404381
0.0568186
0.156836
0.292685
0.462502
0.674141
0.94664
1.2739
1.72656
2.53156
4.43467
9.78128
29.0127
112.45
283.76
0.00743064
0.00673703
0.0064156
0.00613623
0.00588991
0.00566883
0.0054681
0.0046392
0.0514482
0.149494
0.28379
0.450394
0.656826
0.921739
1.24146
1.68296
2.46477
4.32622
9.49474
28.3469
106.831
278.624
0.00770414
0.00701766
0.00669554
0.00641211
0.00615991
0.00593238
0.00572425
0.00523343
0.0447436
0.140835
0.273981
0.437839
0.63936
0.896631
1.20867
1.63877
2.39637
4.21151
9.19761
27.5821
101.355
272.267
0.0076768
0.00703042
0.00674331
0.00649253
0.00627045
0.00607034
0.00588625
0.00561438
0.0365936
0.13042
0.262936
0.424673
0.621734
0.871413
1.17565
1.59416
2.32668
4.09081
8.89102
26.7195
96.0238
264.734
0.00793327
0.00729365
0.00700614
0.00675168
0.0065241
0.00631787
0.00612766
0.0059221
0.0273687
0.117722
0.2502
0.410628
0.603875
0.846156
1.14252
1.54931
2.25606
3.9645
8.57603
25.7633
90.8339
256.074
0.00789957
0.00729639
0.00704128
0.00681752
0.00661865
0.0064389
0.00627273
0.00610911
0.0182593
0.102247
0.235142
0.395294
0.585612
0.82089
1.1094
1.50438
2.18487
3.83308
8.25369
24.7204
85.7786
246.352
0.00814115
0.00754422
0.00728878
0.00706153
0.00685735
0.00667156
0.00649953
0.00633567
0.0112178
0.0838385
0.216935
0.378069
0.566639
0.795571
1.07635
1.45952
2.11346
3.69719
7.92501
23.6006
80.8495
235.645
0.00810339
0.00753939
0.00731375
0.00711514
0.00693807
0.0067776
0.00662888
0.00648698
0.00753057
0.0632554
0.194598
0.358094
0.546461
0.770041
1.04341
1.41489
2.04223
3.55762
7.59098
22.416
76.0343
224.051
0.0083302
0.00777189
0.00754591
0.00734394
0.00716174
0.00699535
0.00684083
0.00669458
0.00654936
0.0426818
0.167232
0.334184
0.524329
0.743966
1.01055
1.37058
1.97157
3.41534
7.25261
21.1808
71.3208
211.683
0.00829268
0.00776378
0.0075648
0.00738909
0.00723202
0.00708933
0.00695682
0.00683059
0.00658919
0.0253519
0.134649
0.30481
0.499144
0.716772
0.97757
1.32665
1.90185
3.27149
6.91105
19.9104
66.6946
198.676
0.00850597
0.00798224
0.00778291
0.00760401
0.007442
0.00729353
0.00715528
0.00702434
0.00684243
0.0140375
0.0984908
0.268266
0.469344
0.687547
0.944091
1.28306
1.83343
3.12736
6.56764
18.6211
62.1437
185.181
0.00847103
0.00797345
0.0077984
0.00764339
0.00750446
0.00737795
0.00726023
0.00714799
0.00702044
0.00875182
0.0631974
0.223348
0.4328
0.654932
0.909422
1.23959
1.76657
2.98438
6.22407
17.3296
57.6581
171.368
0.00867162
0.00817871
0.00800329
0.00784526
0.00770162
0.00756957
0.00744624
0.00732919
0.00721024
0.00714195
0.0349714
0.170905
0.386892
0.616965
0.87246
1.19577
1.70137
2.84405
5.88246
16.052
53.2352
157.411
0.0086416
0.00817177
0.00801802
0.00788149
0.00775882
0.00764686
0.00754247
0.00744272
0.00734277
0.00695988
0.0177961
0.115883
0.329162
0.570916
0.831547
1.15082
1.63773
2.70777
5.5454
14.8037
48.88
143.493
0.00883157
0.00836593
0.00821174
0.00807232
0.00794515
0.00782783
0.00771793
0.00761332
0.00751082
0.00720459
0.0103024
0.0675076
0.259275
0.513302
0.784275
1.10346
1.57517
2.57673
5.21588
13.5991
44.6092
129.792
0.00880916
0.00836381
0.0082288
0.00810859