/*--------------------------------*- C++ -*----------------------------------*\
| =========                 |                                                 |
| \\      /  F ield         | OpenFOAM: The Open Source CFD Toolbox           |
|  \\    /   O peration     | Version:  v1912                                 |
|   \\  /    A nd           | Website:  www.openfoam.com                      |
|    \\/     M anipulation  |                                                 |
\*---------------------------------------------------------------------------*/
FoamFile
{
    version     2.0;
    format      ascii;
    class       surfaceScalarField;
    location    "440";
    object      phi;
}
// * * * * * * * * * * * * * * * * * * * * * * * * * * * * * * * * * * * * * //

dimensions      [0 3 -1 0 0 0 0];
oriented        oriented;


internalField   nonuniform List<scalar> 
24588
(
6.81684e-05
1.98865e-08
6.81143e-05
5.47958e-08
6.80292e-05
8.4771e-08
6.79134e-05
1.15725e-07
6.77632e-05
1.50193e-07
6.75738e-05
1.89489e-07
6.73385e-05
2.35412e-07
6.70443e-05
2.94854e-07
6.66787e-05
3.65482e-07
6.62274e-05
4.51922e-07
6.56724e-05
5.55515e-07
6.49773e-05
7.16829e-07
6.4039e-05
8.60466e-07
6.29463e-05
1.17088e-06
6.14903e-05
1.4494e-06
5.91668e-05
2.31346e-06
5.62562e-05
2.90991e-06
5.14419e-05
4.81405e-06
4.47298e-05
6.71214e-06
3.35294e-05
1.12001e-05
1.99023e-05
1.3627e-05
1.99023e-05
6.81687e-05
4.02763e-08
6.81142e-05
1.10281e-07
6.80291e-05
1.69432e-07
6.79134e-05
2.31327e-07
6.77632e-05
3.00334e-07
6.75737e-05
3.79032e-07
6.73385e-05
4.70949e-07
6.70443e-05
5.89813e-07
6.66787e-05
7.30804e-07
6.62275e-05
9.0395e-07
6.56712e-05
1.11241e-06
6.49889e-05
1.42369e-06
6.40223e-05
1.74069e-06
6.2943e-05
2.32737e-06
6.1486e-05
2.89969e-06
5.9228e-05
4.56162e-06
5.62635e-05
5.8732e-06
5.14092e-05
9.66782e-06
4.47769e-05
1.33444e-05
3.34339e-05
2.25427e-05
1.98658e-05
2.7195e-05
3.97682e-05
6.81687e-05
6.06521e-08
6.81142e-05
1.65742e-07
6.80291e-05
2.54124e-07
6.79134e-05
3.46954e-07
6.77632e-05
4.50486e-07
6.75737e-05
5.68587e-07
6.73384e-05
7.06499e-07
6.70442e-05
8.8476e-07
6.66786e-05
1.0962e-06
6.62274e-05
1.35586e-06
6.56716e-05
1.66884e-06
6.49865e-05
2.13438e-06
6.40262e-05
2.61073e-06
6.29485e-05
3.49624e-06
6.14846e-05
4.35561e-06
5.92623e-05
6.77292e-06
5.62595e-05
8.87438e-06
5.14289e-05
1.4498e-05
4.4753e-05
2.00204e-05
3.34549e-05
3.38403e-05
1.98861e-05
4.07637e-05
5.96543e-05
6.81687e-05
8.10464e-08
6.81142e-05
2.21194e-07
6.80291e-05
3.3878e-07
6.79134e-05
4.62566e-07
6.77632e-05
6.00634e-07
6.75737e-05
7.58134e-07
6.73384e-05
9.4206e-07
6.70442e-05
1.17971e-06
6.66786e-05
1.46157e-06
6.62273e-05
1.80794e-06
6.56712e-05
2.22561e-06
6.49879e-05
2.84222e-06
6.4022e-05
3.49126e-06
6.29413e-05
4.65105e-06
6.14791e-05
5.81127e-06
5.928e-05
8.96302e-06
5.62812e-05
1.18719e-05
5.14426e-05
1.93361e-05
4.47425e-05
2.67205e-05
3.34838e-05
4.50985e-05
1.992e-05
5.43275e-05
7.95743e-05
6.81687e-05
1.01417e-07
6.81142e-05
2.766e-07
6.80291e-05
4.23466e-07
6.79134e-05
5.78202e-07
6.77632e-05
7.50785e-07
6.75737e-05
9.47684e-07
6.73384e-05
1.17762e-06
6.70442e-05
1.47463e-06
6.66786e-05
1.82695e-06
6.62274e-05
2.25984e-06
6.56714e-05
2.78214e-06
6.49851e-05
3.55388e-06
6.40262e-05
4.35969e-06
6.29466e-05
5.82201e-06
6.14766e-05
7.27295e-06
5.92893e-05
1.11393e-05
5.63068e-05
1.48525e-05
5.14446e-05
2.4198e-05
4.47604e-05
3.34047e-05
3.35297e-05
5.63287e-05
1.99686e-05
6.78886e-05
9.95428e-05
6.81687e-05
1.21816e-07
6.81142e-05
3.32014e-07
6.80291e-05
5.08105e-07
6.79134e-05
6.93815e-07
6.77632e-05
9.00928e-07
6.75738e-05
1.13722e-06
6.73384e-05
1.41319e-06
6.70442e-05
1.76956e-06
6.66787e-05
2.19229e-06
6.62273e-05
2.71195e-06
6.56711e-05
3.33894e-06
6.49877e-05
4.26159e-06
6.40223e-05
5.24227e-06
6.294e-05
6.97388e-06
6.14743e-05
8.73245e-06
5.92891e-05
1.33159e-05
5.63218e-05
1.78184e-05
5.14553e-05
2.9064e-05
4.47916e-05
4.00684e-05
3.35956e-05
6.75243e-05
2.0034e-05
8.14501e-05
0.000119577
6.81687e-05
1.42183e-07
6.81142e-05
3.87372e-07
6.80291e-05
5.9278e-07
6.79134e-05
8.0946e-07
6.77632e-05
1.05107e-06
6.75738e-05
1.32676e-06
6.73384e-05
1.64876e-06
6.70442e-05
2.06446e-06
6.66787e-05
2.55762e-06
6.62275e-05
3.16379e-06
6.56712e-05
3.89581e-06
6.4984e-05
4.97335e-06
6.40273e-05
6.10913e-06
6.29462e-05
8.14768e-06
6.14705e-05
1.01987e-05
5.92832e-05
1.54927e-05
5.63382e-05
2.07619e-05
5.14774e-05
3.39245e-05
4.48399e-05
4.6706e-05
3.36889e-05
7.86749e-05
2.01192e-05
9.50197e-05
0.000139696
6.81687e-05
1.62587e-07
6.81142e-05
4.42754e-07
6.80291e-05
6.77402e-07
6.79134e-05
9.25072e-07
6.77633e-05
1.20121e-06
6.75738e-05
1.51628e-06
6.73385e-05
1.88433e-06
6.70443e-05
2.35935e-06
6.66788e-05
2.92289e-06
6.62274e-05
3.61593e-06
6.56712e-05
4.45263e-06
6.49885e-05
5.68009e-06
6.40236e-05
6.99517e-06
6.29382e-05
9.29767e-06
6.14602e-05
1.16692e-05
5.92693e-05
1.76753e-05
5.63559e-05
2.36742e-05
5.15259e-05
3.87541e-05
4.49224e-05
5.33094e-05
3.38214e-05
8.97755e-05
2.02283e-05
0.000108613
0.000159924
6.81687e-05
1.82953e-07
6.81142e-05
4.98072e-07
6.80291e-05
7.62069e-07
6.79135e-05
1.04072e-06
6.77633e-05
1.35135e-06
6.75738e-05
1.7058e-06
6.73385e-05
2.11989e-06
6.70443e-05
2.65422e-06
6.66788e-05
3.28813e-06
6.62277e-05
4.06766e-06
6.56711e-05
5.00984e-06
6.49828e-05
6.39181e-06
6.40253e-05
7.86281e-06
6.29426e-05
1.04716e-05
6.14391e-05
1.31647e-05
5.92706e-05
1.98365e-05
5.63658e-05
2.65782e-05
5.16329e-05
4.3487e-05
4.50612e-05
5.98813e-05
3.40053e-05
0.000100831
2.03656e-05
0.000122252
0.00018029
6.81687e-05
2.03362e-07
6.81142e-05
5.53424e-07
6.80291e-05
8.4668e-07
6.79135e-05
1.15633e-06
6.77633e-05
1.50147e-06
6.75738e-05
1.89531e-06
6.73385e-05
2.35544e-06
6.70444e-05
2.94908e-06
6.6679e-05
3.6533e-06
6.62275e-05
4.51985e-06
6.56712e-05
5.56673e-06
6.49908e-05
7.09583e-06
6.40218e-05
8.76043e-06
6.2925e-05
1.16265e-05
6.14129e-05
1.46693e-05
5.92961e-05
2.19485e-05
5.63805e-05
2.94933e-05
5.18003e-05
4.80668e-05
4.52605e-05
6.6421e-05
3.4245e-05
0.000111846
2.05347e-05
0.000135963
0.000200825
6.81687e-05
2.23724e-07
6.81142e-05
6.08699e-07
6.80291e-05
9.31343e-07
6.79135e-05
1.27198e-06
6.77633e-05
1.6516e-06
6.75738e-05
2.08481e-06
6.73385e-05
2.59098e-06
6.70444e-05
3.2439e-06
6.66791e-05
4.01839e-06
6.62278e-05
4.97165e-06
6.56712e-05
6.12399e-06
6.49822e-05
7.80681e-06
6.40077e-05
9.64996e-06
6.29092e-05
1.2799e-05
6.13938e-05
1.61809e-05
5.93309e-05
2.40089e-05
5.64179e-05
3.24061e-05
5.19985e-05
5.24863e-05
4.54958e-05
7.29239e-05
3.45326e-05
0.000122809
2.0737e-05
0.000149758
0.000221562
6.81687e-05
2.44135e-07
6.81142e-05
6.6402e-07
6.80291e-05
1.01595e-06
6.79135e-05
1.38759e-06
6.77633e-05
1.80171e-06
6.75739e-05
2.2743e-06
6.73386e-05
2.82651e-06
6.70445e-05
3.5387e-06
6.66793e-05
4.38335e-06
6.62276e-05
5.424e-06
6.5671e-05
6.68125e-06
6.49885e-05
8.51088e-06
6.40014e-05
1.05794e-05
6.2897e-05
1.39383e-05
6.13849e-05
1.76884e-05
5.93622e-05
2.60299e-05
5.6466e-05
3.53021e-05
5.2182e-05
5.67701e-05
4.57339e-05
7.93718e-05
3.48514e-05
0.000133692
2.09711e-05
0.000163639
0.000242533
6.81687e-05
2.64493e-07
6.81142e-05
7.19257e-07
6.80292e-05
1.10062e-06
6.79135e-05
1.50324e-06
6.77633e-05
1.95183e-06
6.75739e-05
2.46377e-06
6.73386e-05
3.06203e-06
6.70445e-05
3.83346e-06
6.66795e-05
4.74813e-06
6.62277e-05
5.87631e-06
6.56701e-05
7.2394e-06
6.49793e-05
9.22091e-06
6.39932e-05
1.15014e-05
6.28961e-05
1.50677e-05
6.13833e-05
1.92015e-05
5.93857e-05
2.80271e-05
5.65107e-05
3.81771e-05
5.23279e-05
6.0953e-05
4.59541e-05
8.57458e-05
3.51849e-05
0.000144461
2.12337e-05
0.00017759
0.000263767
6.81687e-05
2.84905e-07
6.81142e-05
7.74546e-07
6.80291e-05
1.18522e-06
6.79135e-05
1.61884e-06
6.77633e-05
2.10193e-06
6.75739e-05
2.65323e-06
6.73387e-05
3.29754e-06
6.70446e-05
4.12821e-06
6.66798e-05
5.11273e-06
6.62277e-05
6.32908e-06
6.56672e-05
7.80045e-06
6.49726e-05
9.93234e-06
6.40083e-05
1.24381e-05
6.28973e-05
1.61866e-05
6.13837e-05
2.07127e-05
5.94011e-05
3.00091e-05
5.65458e-05
4.10322e-05
5.24377e-05
6.5061e-05
4.61498e-05
9.20337e-05
3.55207e-05
0.00015509
2.15203e-05
0.00019159
0.000285287
6.81687e-05
3.05255e-07
6.81142e-05
8.29739e-07
6.80292e-05
1.26989e-06
6.79135e-05
1.7345e-06
6.77634e-05
2.25202e-06
6.7574e-05
2.84268e-06
6.73387e-05
3.53303e-06
6.70447e-05
4.42291e-06
6.668e-05
5.47708e-06
6.62276e-05
6.78201e-06
6.56622e-05
8.36644e-06
6.49554e-05
1.06527e-05
6.40196e-05
1.33476e-05
6.28975e-05
1.73207e-05
6.13847e-05
2.22265e-05
5.94108e-05
3.1983e-05
5.65716e-05
4.38714e-05
5.25203e-05
6.91124e-05
4.63214e-05
9.82327e-05
3.58515e-05
0.00016556
2.18262e-05
0.000205615
0.000307113
6.81686e-05
3.25665e-07
6.81142e-05
8.84994e-07
6.80292e-05
1.3545e-06
6.79135e-05
1.85009e-06
6.77634e-05
2.4021e-06
6.7574e-05
3.0321e-06
6.73388e-05
3.7685e-06
6.70448e-05
4.71761e-06
6.66804e-05
5.84119e-06
6.62279e-05
7.23522e-06
6.56535e-05
8.94136e-06
6.49446e-05
1.13714e-05
6.4026e-05
1.42611e-05
6.28969e-05
1.84496e-05
6.13856e-05
2.37364e-05
5.94167e-05
3.39515e-05
5.65898e-05
4.66982e-05
5.25843e-05
7.31178e-05
4.64723e-05
0.000104345
3.61737e-05
0.000175858
2.21476e-05
0.000219641
0.000329261
6.81687e-05
3.46007e-07
6.81142e-05
9.40145e-07
6.80292e-05
1.43918e-06
6.79135e-05
1.96575e-06
6.77634e-05
2.55218e-06
6.7574e-05
3.22152e-06
6.73388e-05
4.00394e-06
6.70448e-05
5.01226e-06
6.66807e-05
6.20509e-06
6.62281e-05
7.68831e-06
6.56406e-05
9.5293e-06
6.49381e-05
1.20794e-05
6.40276e-05
1.51609e-05
6.28965e-05
1.95864e-05
6.13864e-05
2.52476e-05
5.94203e-05
3.59177e-05
5.66028e-05
4.95158e-05
5.2636e-05
7.70847e-05
4.66063e-05
0.000110375
3.6486e-05
0.000185978
2.24812e-05
0.000233646
0.000351742
6.81686e-05
3.66415e-07
6.81142e-05
9.95365e-07
6.80292e-05
1.52379e-06
6.79135e-05
2.08133e-06
6.77634e-05
2.70223e-06
6.75741e-05
3.4109e-06
6.7339e-05
4.23938e-06
6.7045e-05
5.30685e-06
6.66809e-05
6.56893e-06
6.62288e-05
8.14106e-06
6.56293e-05
1.01293e-05
6.49348e-05
1.27769e-05
6.40278e-05
1.60688e-05
6.28963e-05
2.07161e-05
6.13871e-05
2.67556e-05
5.94224e-05
3.78821e-05
5.66121e-05
5.2326e-05
5.26798e-05
8.10169e-05
4.67273e-05
0.000116327
3.67888e-05
0.000195917
2.28249e-05
0.00024761
0.000374567
6.81687e-05
3.86748e-07
6.81143e-05
1.05047e-06
6.80292e-05
1.60849e-06
6.79136e-05
2.19698e-06
6.77635e-05
2.85229e-06
6.75741e-05
3.60027e-06
6.7339e-05
4.47479e-06
6.70451e-05
5.60135e-06
6.6681e-05
6.93275e-06
6.62285e-05
8.59399e-06
6.56225e-05
1.07357e-05
6.49321e-05
1.34686e-05
6.40278e-05
1.69675e-05
6.28962e-05
2.18516e-05
6.13879e-05
2.82649e-05
5.94237e-05
3.98465e-05
5.66193e-05
5.51304e-05
5.27188e-05
8.49174e-05
4.68388e-05
0.000122207
3.70833e-05
0.000205672
2.31773e-05
0.000261516
0.000397744
6.81686e-05
4.07152e-07
6.81142e-05
1.10566e-06
6.80292e-05
1.69311e-06
6.79136e-05
2.31255e-06
6.77635e-05
3.00232e-06
6.75742e-05
3.78961e-06
6.73391e-05
4.71017e-06
6.70453e-05
5.89582e-06
6.66813e-05
7.29652e-06
6.6225e-05
9.05082e-06
6.56222e-05
1.13388e-05
6.49301e-05
1.41614e-05
6.40278e-05
1.7872e-05
6.28963e-05
2.29809e-05
6.13887e-05
2.97715e-05
5.94246e-05
4.18104e-05
5.66254e-05
5.79296e-05
5.27556e-05
8.87871e-05
4.69438e-05
0.000128019
3.73713e-05
0.000215245
2.35377e-05
0.00027535
0.000421282
6.81686e-05
4.27474e-07
6.81143e-05
1.16072e-06
6.80292e-05
1.77782e-06
6.79136e-05
2.4282e-06
6.77635e-05
3.15235e-06
6.75742e-05
3.97894e-06
6.73391e-05
4.94549e-06
6.70453e-05
6.19029e-06
6.66815e-05
7.66e-06
6.62161e-05
9.5167e-06
6.56269e-05
1.19282e-05
6.49287e-05
1.48599e-05
6.4028e-05
1.87687e-05
6.28966e-05
2.41155e-05
6.13898e-05
3.12792e-05
5.94257e-05
4.37747e-05
5.66314e-05
6.0724e-05
5.27918e-05
9.26268e-05
4.70448e-05
0.000133766
3.76549e-05
0.000224635
2.39059e-05
0.000289099
0.000445188
6.81686e-05
4.47873e-07
6.81142e-05
1.21587e-06
6.80292e-05
1.86244e-06
6.79136e-05
2.54376e-06
6.77635e-05
3.30235e-06
6.75743e-05
4.16824e-06
6.73393e-05
5.18074e-06
6.70453e-05
6.4849e-06
6.66822e-05
8.02296e-06
6.62062e-05
9.99321e-06
6.56325e-05
1.2502e-05
6.49279e-05
1.55649e-05
6.40283e-05
1.96706e-05
6.28971e-05
2.52445e-05
6.13912e-05
3.27842e-05
5.94273e-05
4.57384e-05
5.66381e-05
6.35131e-05
5.28288e-05
9.64359e-05
4.71439e-05
0.000139451
3.79363e-05
0.000233842
2.42823e-05
0.000302753
0.00046947
6.81686e-05
4.68184e-07
6.81143e-05
1.27089e-06
6.80293e-05
1.94717e-06
6.79136e-05
2.65939e-06
6.77636e-05
3.45234e-06
6.75743e-05
4.35754e-06
6.73394e-05
5.41589e-06
6.70453e-05
6.77956e-06
6.66826e-05
8.38538e-06
6.61988e-05
1.04774e-05
6.56359e-05
1.30651e-05
6.49274e-05
1.62734e-05
6.40288e-05
2.0566e-05
6.28978e-05
2.63782e-05
6.1393e-05
3.42899e-05
5.94298e-05
4.77017e-05
5.66461e-05
6.62969e-05
5.28673e-05
0.000100215
4.72426e-05
0.000145075
3.82178e-05
0.000242867
2.46677e-05
0.000316303
0.000494138
6.81686e-05
4.88578e-07
6.81142e-05
1.326e-06
6.80292e-05
2.0318e-06
6.79136e-05
2.77494e-06
6.77636e-05
3.60231e-06
6.75744e-05
4.5468e-06
6.73396e-05
5.651e-06
6.70455e-05
7.07428e-06
6.66833e-05
8.74736e-06
6.61948e-05
1.09663e-05
6.56372e-05
1.36227e-05
6.49273e-05
1.69836e-05
6.40294e-05
2.14661e-05
6.28988e-05
2.75067e-05
6.13953e-05
3.57926e-05
5.94336e-05
4.96632e-05
5.6656e-05
6.90745e-05
5.29079e-05
0.000103963
4.7342e-05
0.000150641
3.85017e-05
0.000251707
2.50629e-05
0.000329741
0.000519201
6.81686e-05
5.08877e-07
6.81143e-05
1.38097e-06
6.80293e-05
2.11653e-06
6.79137e-05
2.89057e-06
6.77637e-05
3.75227e-06
6.75744e-05
4.73605e-06
6.73396e-05
5.88604e-06
6.70456e-05
7.36887e-06
6.66834e-05
9.10931e-06
6.61925e-05
1.14575e-05
6.56377e-05
1.41775e-05
6.49273e-05
1.76939e-05
6.40302e-05
2.23605e-05
6.29001e-05
2.86394e-05
6.13983e-05
3.72952e-05
5.9439e-05
5.16227e-05
5.6668e-05
7.18455e-05
5.29507e-05
0.00010768
4.74431e-05
0.000156149
3.87904e-05
0.00026036
2.54694e-05
0.000343062
0.00054467
6.81686e-05
5.29265e-07
6.81142e-05
1.43605e-06
6.80293e-05
2.20117e-06
6.79137e-05
3.0061e-06
6.77637e-05
3.9022e-06
6.75746e-05
4.92524e-06
6.73398e-05
6.12107e-06
6.70459e-05
7.66332e-06
6.66823e-05
9.47271e-06
6.61922e-05
1.1948e-05
6.56378e-05
1.47319e-05
6.49276e-05
1.84043e-05
6.4031e-05
2.32592e-05
6.29017e-05
2.97667e-05
6.1402e-05
3.8794e-05
5.94461e-05
5.35784e-05
5.66824e-05
7.46091e-05
5.29957e-05
0.000111367
4.75464e-05
0.000161598
3.9086e-05
0.00026882
2.58886e-05
0.00035626
0.000570559
6.81686e-05
5.49553e-07
6.81143e-05
1.49098e-06
6.80293e-05
2.28592e-06
6.79137e-05
3.12171e-06
6.77637e-05
4.05213e-06
6.75746e-05
5.11441e-06
6.73398e-05
6.3561e-06
6.70463e-05
7.95742e-06
6.6677e-05
9.84174e-06
6.6195e-05
1.24301e-05
6.5638e-05
1.5289e-05
6.4928e-05
1.91144e-05
6.4032e-05
2.41525e-05
6.29036e-05
3.08976e-05
6.14065e-05
4.02919e-05
5.9455e-05
5.55301e-05
5.66993e-05
7.73648e-05
5.30431e-05
0.000115023
4.76524e-05
0.000166989
3.93907e-05
0.000277082
2.63219e-05
0.000369328
0.000596881
6.81686e-05
5.69935e-07
6.81142e-05
1.54602e-06
6.80293e-05
2.37056e-06
6.79137e-05
3.23722e-06
6.77638e-05
4.20204e-06
6.75747e-05
5.3035e-06
6.73399e-05
6.59117e-06
6.70468e-05
8.25115e-06
6.66694e-05
1.02189e-05
6.61998e-05
1.28998e-05
6.56382e-05
1.58506e-05
6.49285e-05
1.98242e-05
6.40332e-05
2.505e-05
6.29059e-05
3.20228e-05
6.14119e-05
4.17851e-05
5.94656e-05
5.74762e-05
5.67187e-05
8.01117e-05
5.30927e-05
0.000118649
4.77611e-05
0.00017232
3.97062e-05
0.000285137
2.6771e-05
0.000382264
0.000623652
6.81686e-05
5.90211e-07
6.81143e-05
1.6009e-06
6.80293e-05
2.45532e-06
6.79137e-05
3.35282e-06
6.77638e-05
4.35194e-06
6.75748e-05
5.49256e-06
6.73399e-05
6.82624e-06
6.70472e-05
8.54446e-06
6.66632e-05
1.06026e-05
6.62035e-05
1.33595e-05
6.56385e-05
1.64157e-05
6.49291e-05
2.05336e-05
6.40345e-05
2.59421e-05
6.29086e-05
3.31511e-05
6.14181e-05
4.32764e-05
5.94779e-05
5.94165e-05
5.67406e-05
8.28491e-05
5.31445e-05
0.000122245
4.78727e-05
0.000177592
4.00339e-05
0.000292976
2.72373e-05
0.00039506
0.000650889
6.81686e-05
6.10586e-07
6.81143e-05
1.65591e-06
6.80293e-05
2.53997e-06
6.79138e-05
3.4683e-06
6.77638e-05
4.50182e-06
6.75749e-05
5.68155e-06
6.73401e-05
7.06134e-06
6.70477e-05
8.83748e-06
6.66594e-05
1.09906e-05
6.6206e-05
1.3813e-05
6.56389e-05
1.69828e-05
6.49298e-05
2.12428e-05
6.40359e-05
2.68381e-05
6.29116e-05
3.42733e-05
6.14251e-05
4.47622e-05
5.94918e-05
6.13496e-05
5.6765e-05
8.55758e-05
5.31988e-05
0.000125811
4.79869e-05
0.000182804
4.03745e-05
0.000300588
2.7722e-05
0.000407713
0.000678611
6.81686e-05
6.30852e-07
6.81143e-05
1.71075e-06
6.80294e-05
2.62473e-06
6.79138e-05
3.58388e-06
6.77639e-05
4.65169e-06
6.7575e-05
5.8705e-06
6.73401e-05
7.29637e-06
6.70479e-05
9.13026e-06
6.66569e-05
1.13814e-05
6.62077e-05
1.42622e-05
6.56394e-05
1.7551e-05
6.49305e-05
2.19517e-05
6.40374e-05
2.77288e-05
6.2915e-05
3.53981e-05
6.14327e-05
4.62453e-05
5.95071e-05
6.32754e-05
5.67919e-05
8.8291e-05
5.32554e-05
0.000129348
4.81037e-05
0.000187956
4.07286e-05
0.000307963
2.8226e-05
0.000420215
0.000706837
6.81686e-05
6.51221e-07
6.81143e-05
1.76572e-06
6.80293e-05
2.70938e-06
6.79138e-05
3.69934e-06
6.77639e-05
4.80153e-06
6.75751e-05
6.05941e-06
6.73404e-05
7.53136e-06
6.70482e-05
9.42297e-06
6.66557e-05
1.17737e-05
6.62091e-05
1.47088e-05
6.564e-05
1.81202e-05
6.49314e-05
2.26603e-05
6.40391e-05
2.86231e-05
6.29188e-05
3.65164e-05
6.14411e-05
4.77222e-05
5.95237e-05
6.51926e-05
5.68214e-05
9.09933e-05
5.33145e-05
0.000132855
4.82229e-05
0.000193047
4.10961e-05
0.00031509
2.875e-05
0.000432561
0.000735587
6.81686e-05
6.71476e-07
6.81144e-05
1.82052e-06
6.80294e-05
2.79415e-06
6.79139e-05
3.8149e-06
6.7764e-05
4.95135e-06
6.75751e-05
6.2483e-06
6.73405e-05
7.7662e-06
6.70483e-05
9.71565e-06
6.66551e-05
1.21667e-05
6.62104e-05
1.51534e-05
6.56406e-05
1.86899e-05
6.49323e-05
2.33686e-05
6.4041e-05
2.95122e-05
6.29228e-05
3.7637e-05
6.145e-05
4.91958e-05
5.95417e-05
6.7101e-05
5.68533e-05
9.36817e-05
5.33763e-05
0.000136332
4.83445e-05
0.000198079
4.14766e-05
0.000321958
2.92942e-05
0.000444744
0.000764881
6.81686e-05
6.9184e-07
6.81143e-05
1.87545e-06
6.80294e-05
2.8788e-06
6.79139e-05
3.93033e-06
6.7764e-05
5.10113e-06
6.75753e-05
6.43715e-06
6.73408e-05
8.00094e-06
6.70485e-05
1.00085e-05
6.66549e-05
1.25602e-05
6.62116e-05
1.55967e-05
6.56414e-05
1.92602e-05
6.49334e-05
2.40767e-05
6.40429e-05
3.04046e-05
6.29271e-05
3.87507e-05
6.14595e-05
5.06626e-05
5.95609e-05
6.89994e-05
5.68878e-05
9.63547e-05
5.34409e-05
0.000139779
4.84685e-05
0.000203052
4.18698e-05
0.000328556
2.9859e-05
0.000456754
0.00079474
6.81686e-05
7.12085e-07
6.81144e-05
1.93022e-06
6.80294e-05
2.96358e-06
6.79139e-05
4.04587e-06
6.77641e-05
5.2509e-06
6.75753e-05
6.62601e-06
6.7341e-05
8.23543e-06
6.70485e-05
1.03015e-05
6.66548e-05
1.29536e-05
6.62128e-05
1.60387e-05
6.56421e-05
1.98308e-05
6.49344e-05
2.47844e-05
6.4045e-05
3.12919e-05
6.29317e-05
3.98666e-05
6.14695e-05
5.21257e-05
5.95813e-05
7.08878e-05
5.69248e-05
9.90112e-05
5.35085e-05
0.000143195
4.85953e-05
0.000207965
4.22753e-05
0.000334876
3.04443e-05
0.000468585
0.000825184
6.81686e-05
7.32444e-07
6.81143e-05
1.98513e-06
6.80294e-05
3.04822e-06
6.79139e-05
4.16129e-06
6.77642e-05
5.40062e-06
6.75754e-05
6.81484e-06
6.73414e-05
8.46977e-06
6.70482e-05
1.05952e-05
6.6655e-05
1.33467e-05
6.62139e-05
1.64798e-05
6.5643e-05
2.04017e-05
6.49356e-05
2.54919e-05
6.40471e-05
3.21823e-05
6.29365e-05
4.0975e-05
6.14799e-05
5.35813e-05
5.96028e-05
7.27647e-05
5.69643e-05
0.00010165
5.35793e-05
0.00014658
4.87252e-05
0.000212819
4.2693e-05
0.000340908
3.10503e-05
0.000480228
0.000856235
6.81686e-05
7.52682e-07
6.81144e-05
2.03986e-06
6.80295e-05
3.13299e-06
6.7914e-05
4.27681e-06
6.77642e-05
5.55031e-06
6.75754e-05
7.00369e-06
6.73416e-05
8.70374e-06
6.70449e-05
1.08924e-05
6.66574e-05
1.3734e-05
6.6215e-05
1.69222e-05
6.56439e-05
2.09728e-05
6.49367e-05
2.6199e-05
6.40494e-05
3.30675e-05
6.29415e-05
4.20856e-05
6.14908e-05
5.50329e-05
5.96254e-05
7.46303e-05
5.70063e-05
0.000104269
5.36535e-05
0.000149933
4.88586e-05
0.000217614
4.31231e-05
0.000346644
3.16774e-05
0.000491674
0.000887912
6.81686e-05
7.73038e-07
6.81143e-05
2.09473e-06
6.80294e-05
3.21763e-06
6.7914e-05
4.3922e-06
6.77643e-05
5.69995e-06
6.75755e-05
7.19254e-06
6.73421e-05
8.93742e-06
6.70343e-05
1.12007e-05
6.66661e-05
1.41022e-05
6.6216e-05
1.73723e-05
6.56448e-05
2.15441e-05
6.4938e-05
2.69059e-05
6.40517e-05
3.39558e-05
6.29467e-05
4.31883e-05
6.15022e-05
5.64765e-05
5.9649e-05
7.64832e-05
5.70506e-05
0.000106867
5.37314e-05
0.000153252
4.8996e-05
0.000222349
4.3566e-05
0.000352074
3.23261e-05
0.000502914
0.000920238
6.81686e-05
7.93265e-07
6.81144e-05
2.14941e-06
6.80295e-05
3.30239e-06
6.7914e-05
4.5077e-06
6.77644e-05
5.84957e-06
6.75756e-05
7.3814e-06
6.73423e-05
9.17081e-06
6.70276e-05
1.15159e-05
6.66718e-05
1.4458e-05
6.6217e-05
1.78271e-05
6.56457e-05
2.21153e-05
6.49393e-05
2.76123e-05
6.40541e-05
3.48386e-05
6.29521e-05
4.4293e-05
6.15139e-05
5.79157e-05
5.96736e-05
7.83237e-05
5.70971e-05
0.000109444
5.38131e-05
0.000156536
4.91378e-05
0.000227025
4.40221e-05
0.000357189
3.29972e-05
0.000513939
0.000953235
6.81686e-05
8.13616e-07
6.81143e-05
2.20425e-06
6.80295e-05
3.38702e-06
6.79141e-05
4.62306e-06
6.77644e-05
5.99916e-06
6.75758e-05
7.57015e-06
6.73426e-05
9.40428e-06
6.70257e-05
1.18332e-05
6.66736e-05
1.481e-05
6.62179e-05
1.82829e-05
6.56466e-05
2.26866e-05
6.49406e-05
2.83185e-05
6.40566e-05
3.57247e-05
6.29576e-05
4.53896e-05
6.1526e-05
5.93463e-05
5.96991e-05
8.01503e-05
5.71459e-05
0.000111997
5.38991e-05
0.000159783
4.92839e-05
0.00023164
4.44914e-05
0.000361982
3.3691e-05
0.000524739
0.000986926
6.81686e-05
8.33848e-07
6.81144e-05
2.25892e-06
6.80295e-05
3.47177e-06
6.79141e-05
4.73852e-06
6.77645e-05
6.14876e-06
6.7576e-05
7.75871e-06
6.7341e-05
9.6394e-06
6.70253e-05
1.21492e-05
6.66743e-05
1.51611e-05
6.62187e-05
1.87384e-05
6.56476e-05
2.32576e-05
6.49419e-05
2.90241e-05
6.40591e-05
3.66047e-05
6.29633e-05
4.64885e-05
6.15384e-05
6.07724e-05
5.97255e-05
8.19634e-05
5.71966e-05
0.000114526
5.39897e-05
0.00016299
4.94342e-05
0.000236196
4.49724e-05
0.000366443
3.4407e-05
0.000535305
0.00102133
6.81686e-05
8.54183e-07
6.81143e-05
2.3137e-06
6.80295e-05
3.55642e-06
6.79142e-05
4.8538e-06
6.77644e-05
6.29853e-06
6.75768e-05
7.94637e-06
6.73295e-05
9.88689e-06
6.703e-05
1.24489e-05
6.66745e-05
1.55165e-05
6.62193e-05
1.91937e-05
6.56485e-05
2.38285e-05
6.49432e-05
2.97295e-05
6.40617e-05
3.74886e-05
6.29691e-05
4.75783e-05
6.15512e-05
6.21892e-05
5.97527e-05
8.37616e-05
5.72491e-05
0.000117029
5.40852e-05
0.000166154
4.95882e-05
0.000240693
4.54607e-05
0.000370571
3.5142e-05
0.000545623
0.00105648
6.81686e-05
8.74398e-07
6.81144e-05
2.3683e-06
6.80296e-05
3.64119e-06
6.79143e-05
4.96914e-06
6.77643e-05
6.44845e-06
6.75774e-05
8.13333e-06
6.73212e-05
1.01432e-05
6.70334e-05
1.27367e-05
6.66747e-05
1.58752e-05
6.62199e-05
1.96484e-05
6.56494e-05
2.4399e-05
6.49446e-05
3.04343e-05
6.40643e-05
3.83661e-05
6.2975e-05
4.86707e-05
6.15643e-05
6.36012e-05
5.97806e-05
8.55456e-05
5.73033e-05
0.000119507
5.4186e-05
0.000169271
4.97457e-05
0.000245133
4.59468e-05
0.00037437
3.58883e-05
0.000555682
0.00109236
6.81685e-05
8.94706e-07
6.81143e-05
2.4231e-06
6.80295e-05
3.72583e-06
6.79142e-05
5.08436e-06
6.77642e-05
6.59838e-06
6.75776e-05
8.32005e-06
6.73189e-05
1.04022e-05
6.70339e-05
1.30217e-05
6.66747e-05
1.62344e-05
6.62204e-05
2.01028e-05
6.56502e-05
2.49691e-05
6.49459e-05
3.11388e-05
6.40669e-05
3.92474e-05
6.29809e-05
4.9754e-05
6.15775e-05
6.50035e-05
5.98091e-05
8.73138e-05
5.73586e-05
0.000121957
5.42933e-05
0.000172336
4.99059e-05
0.00024952
4.64277e-05
0.000377848
3.67254e-05
0.000565384
0.00112909
-8.66796e-07
8.66735e-07
-3.36421e-06
2.49741e-06
-4.37758e-06
1.01334e-06
-4.03589e-06
-3.41638e-07
-3.1235e-06
-9.1277e-07
-2.35454e-06
-7.68758e-07
-1.98883e-06
-3.65525e-07
-1.91341e-06
-7.47236e-08
-1.83988e-06
-7.03156e-08
-1.7711e-06
-6.37635e-08
-1.77667e-06
4.29931e-08
-1.67311e-06
-1.37897e-07
-1.43921e-06
-2.38073e-07
-9.23205e-07
-5.22526e-07
2.03064e-07
-1.12893e-06
2.07517e-06
-1.86968e-06
4.5285e-06
-2.44837e-06
7.40385e-06
-2.874e-06
1.05819e-05
-3.17416e-06
1.39364e-05
-3.35905e-06
1.74111e-05
-3.47823e-06
2.09396e-05
-3.52652e-06
2.43912e-05
-3.45171e-06
2.76671e-05
-3.27597e-06
3.07589e-05
-3.09228e-06
3.36775e-05
-2.9191e-06
3.64837e-05
-2.80671e-06
3.93407e-05
-2.85614e-06
4.19823e-05
-2.639e-06
4.37076e-05
-1.72611e-06
5.00504e-05
-6.34562e-06
6.14092e-05
-1.13558e-05
6.73242e-05
-5.91494e-06
6.7699e-05
-3.74743e-07
5.07018e-08
-8.14569e-07
1.68119e-06
-3.30869e-06
4.99151e-06
-4.30897e-06
2.01358e-06
-3.97231e-06
-6.78206e-07
-3.06338e-06
-1.82238e-06
-2.3092e-06
-1.52256e-06
-1.95385e-06
-7.20481e-07
-1.89947e-06
-1.27723e-07
-1.84705e-06
-1.16661e-07
-1.78214e-06
-1.18848e-07
-1.75995e-06
8.18112e-08
-1.60601e-06
-3.47027e-07
-1.32619e-06
-5.26081e-07
-8.39372e-07
-1.02247e-06
1.84894e-07
-2.15858e-06
1.97414e-06
-3.65394e-06
4.43763e-06
-4.90173e-06
7.37052e-06
-5.80412e-06
1.05916e-05
-6.38795e-06
1.39473e-05
-6.72353e-06
1.73974e-05
-6.93519e-06
2.08944e-05
-7.01977e-06
2.43287e-05
-6.88627e-06
2.76052e-05
-6.55243e-06
3.07055e-05
-6.19365e-06
3.36345e-05
-5.84899e-06
3.64453e-05
-5.61852e-06
3.92992e-05
-5.70835e-06
4.19605e-05
-5.29553e-06
4.36854e-05
-3.45238e-06
4.9701e-05
-1.23665e-05
6.10016e-05
-2.26509e-05
6.72708e-05
-1.21841e-05
6.77069e-05
-8.10719e-07
1.05159e-07
-7.54213e-07
2.4353e-06
-3.24497e-06
7.48226e-06
-4.22933e-06
2.99788e-06
-3.88383e-06
-1.02362e-06
-2.98223e-06
-2.72465e-06
-2.24486e-06
-2.25955e-06
-1.90676e-06
-1.05828e-06
-1.87308e-06
-1.60202e-07
-1.83394e-06
-1.50287e-07
-1.76391e-06
-1.80117e-07
-1.7097e-06
9.06145e-08
-1.50055e-06
-6.15215e-07
-1.1966e-06
-8.38332e-07
-7.70336e-07
-1.46167e-06
1.46245e-07
-3.08049e-06
1.87803e-06
-5.38053e-06
4.37003e-06
-7.38297e-06
7.36389e-06
-8.79503e-06
1.06271e-05
-9.64296e-06
1.39895e-05
-1.0095e-05
1.74171e-05
-1.03696e-05
2.08856e-05
-1.04843e-05
2.43033e-05
-1.03044e-05
2.75783e-05
-9.82735e-06
3.06853e-05
-9.30176e-06
3.36227e-05
-8.78724e-06
3.64366e-05
-8.43356e-06
3.9286e-05
-8.55603e-06
4.19637e-05
-7.96835e-06
4.36923e-05
-5.18239e-06
4.94024e-05
-1.80819e-05
6.06331e-05
-3.38761e-05
6.72194e-05
-1.87704e-05
6.77141e-05
-1.30534e-06
1.62723e-07
-6.84443e-07
3.11962e-06
-3.17394e-06
9.97175e-06
-4.1344e-06
3.9583e-06
-3.77134e-06
-1.38657e-06
-2.87588e-06
-3.62076e-06
-2.15904e-06
-2.976e-06
-1.84032e-06
-1.37661e-06
-1.82535e-06
-1.73823e-07
-1.7961e-06
-1.73713e-07
-1.72225e-06
-2.44197e-07
-1.63757e-06
6.1323e-08
-1.37415e-06
-9.29871e-07
-1.05174e-06
-1.17027e-06
-6.90682e-07
-1.83826e-06
1.17487e-07
-3.89501e-06
1.79062e-06
-7.04705e-06
4.31357e-06
-9.89203e-06
7.37639e-06
-1.18539e-05
1.06908e-05
-1.29479e-05
1.40678e-05
-1.34827e-05
1.74778e-05
-1.37873e-05
2.09182e-05
-1.39205e-05
2.4318e-05
-1.37044e-05
2.75889e-05
-1.30983e-05
3.07003e-05
-1.24142e-05
3.3644e-05
-1.1732e-05
3.64598e-05
-1.12505e-05
3.9303e-05
-1.13974e-05
4.1993e-05
-1.06532e-05
4.3728e-05
-6.91898e-06
4.91566e-05
-2.35159e-05
6.03039e-05
-4.50177e-05
6.71695e-05
-2.56361e-05
6.77207e-05
-1.85632e-06
2.22869e-07
-6.0503e-07
3.72455e-06
-3.09499e-06
1.24617e-05
-4.02247e-06
4.88572e-06
-3.63406e-06
-1.77489e-06
-2.74447e-06
-4.51098e-06
-2.05208e-06
-3.66802e-06
-1.75497e-06
-1.67343e-06
-1.75679e-06
-1.7088e-07
-1.73525e-06
-1.90146e-07
-1.65774e-06
-3.13284e-07
-1.5413e-06
-2.70164e-09
-1.22352e-06
-1.29869e-06
-8.87938e-07
-1.51528e-06
-5.96044e-07
-2.14497e-06
1.04296e-07
-4.60127e-06
1.71822e-06
-8.6543e-06
4.27429e-06
-1.24331e-05
7.41644e-06
-1.49916e-05
1.07938e-05
-1.63134e-05
1.41927e-05
-1.68938e-05
1.75882e-05
-1.71908e-05
2.09999e-05
-1.73275e-05
2.43788e-05
-1.70837e-05
2.76425e-05
-1.63621e-05
3.07553e-05
-1.55282e-05
3.37031e-05
-1.46808e-05
3.65187e-05
-1.40673e-05
3.93536e-05
-1.42302e-05
4.20512e-05
-1.33455e-05
4.37948e-05
-8.66422e-06
4.89631e-05
-2.86897e-05
6.00123e-05
-5.60611e-05
6.71212e-05
-3.2745e-05
6.77265e-05
-2.46158e-06
2.85022e-07
-5.15723e-07
4.24016e-06
-3.00729e-06
1.49532e-05
-3.8913e-06
5.76968e-06
-3.47034e-06
-2.19573e-06
-2.58721e-06
-5.39473e-06
-1.92347e-06
-4.33136e-06
-1.65027e-06
-1.94622e-06
-1.66726e-06
-1.52484e-07
-1.65235e-06
-1.99306e-07
-1.5707e-06
-3.84813e-07
-1.41969e-06
-1.06419e-07
-1.04753e-06
-1.71563e-06
-7.03693e-07
-1.87021e-06
-4.82493e-07
-2.38428e-06
1.14681e-07
-5.20558e-06
1.67297e-06
-1.02041e-05
4.26602e-06
-1.50067e-05
7.49997e-06
-1.82193e-05
1.09543e-05
-1.97529e-05
1.43817e-05
-2.03369e-05
1.7763e-05
-2.0582e-05
2.11426e-05
-2.07017e-05
2.44959e-05
-2.04374e-05
2.77479e-05
-1.96142e-05
3.08583e-05
-1.864e-05
3.38071e-05
-1.76307e-05
3.66201e-05
-1.68818e-05
3.94434e-05
-1.70513e-05
4.21428e-05
-1.6039e-05
4.38963e-05
-1.04194e-05
4.88212e-05
-3.36207e-05
5.97556e-05
-6.69893e-05
6.70743e-05
-4.00637e-05
6.77317e-05
-3.11888e-06
3.48638e-07
-4.16331e-07
4.65639e-06
-2.90972e-06
1.74466e-05
-3.73787e-06
6.59776e-06
-3.27732e-06
-2.65618e-06
-2.40226e-06
-6.2704e-06
-1.77166e-06
-4.96157e-06
-1.52483e-06
-2.19279e-06
-1.55563e-06
-1.20521e-07
-1.54701e-06
-2.02928e-07
-1.46053e-06
-4.62462e-07
-1.27154e-06
-2.53062e-07
-8.45084e-07
-2.18491e-06
-4.96309e-07
-2.22981e-06
-3.44526e-07
-2.55318e-06
1.57166e-07
-5.71369e-06
1.66863e-06
-1.17075e-05
4.30825e-06
-1.76268e-05
7.65151e-06
-2.15555e-05
1.12011e-05
-2.32831e-05
1.46625e-05
-2.38176e-05
1.80257e-05
-2.39563e-05
2.13655e-05
-2.40351e-05
2.46852e-05
-2.37575e-05
2.79187e-05
-2.28477e-05
3.10216e-05
-2.17444e-05
3.39672e-05
-2.05777e-05
3.6774e-05
-1.96901e-05
3.95811e-05
-1.98559e-05
4.22745e-05
-1.8726e-05
4.40379e-05
-1.21848e-05
4.87319e-05
-3.83211e-05
5.95318e-05
-7.77829e-05
6.70289e-05
-4.75608e-05
6.77362e-05
-3.82612e-06
4.13101e-07
-3.06797e-07
4.96306e-06
-2.80086e-06
1.99407e-05
-3.5585e-06
7.35533e-06
-3.05139e-06
-3.16317e-06
-2.18734e-06
-7.13506e-06
-1.59444e-06
-5.55404e-06
-1.37644e-06
-2.41035e-06
-1.4198e-06
-7.56034e-08
-1.41743e-06
-1.99283e-07
-1.32511e-06
-5.4361e-07
-1.09429e-06
-4.43462e-07
-6.1289e-07
-2.70537e-06
-2.59801e-07
-2.59614e-06
-1.74058e-07
-2.66078e-06
2.40523e-07
-6.13635e-06
1.71822e-06
-1.31748e-05
4.4232e-06
-2.03066e-05
7.90442e-06
-2.50273e-05
1.15771e-05
-2.69316e-05
1.50789e-05
-2.73447e-05
1.84139e-05
-2.73061e-05
2.1699e-05
-2.73124e-05