/*--------------------------------*- C++ -*----------------------------------*\
| =========                 |                                                 |
| \\      /  F ield         | OpenFOAM: The Open Source CFD Toolbox           |
|  \\    /   O peration     | Version:  v1912                                 |
|   \\  /    A nd           | Website:  www.openfoam.com                      |
|    \\/     M anipulation  |                                                 |
\*---------------------------------------------------------------------------*/
FoamFile
{
    version     2.0;
    format      ascii;
    class       volVectorField;
    location    "440";
    object      U;
}
// * * * * * * * * * * * * * * * * * * * * * * * * * * * * * * * * * * * * * //

dimensions      [0 1 -1 0 0 0 0];


internalField   nonuniform List<vector> 
12441
(
(29.9989 1.70818e-05 0)
(29.9854 5.19566e-05 0)
(29.9561 9.00412e-05 0)
(29.9116 0.000138367 0)
(29.8533 0.000201842 0)
(29.7792 0.000286284 0)
(29.6871 0.000398971 0)
(29.5719 0.000562189 0)
(29.4293 0.000783018 0)
(29.2502 0.00108848 0)
(29.032 0.00150644 0)
(28.7707 0.00217483 0)
(28.389 0.00295526 0)
(27.9817 0.0044878 0)
(27.415 0.00622781 0)
(26.6294 0.0112202 0)
(25.5932 0.0150197 0)
(23.9281 0.0314396 0)
(21.5822 0.0527977 0)
(17.898 0.0912463 0)
(12.117 0.122197 0)
(5.81368 0.19667 0)
(29.9989 5.07484e-05 0)
(29.9854 0.000155489 0)
(29.956 0.000268923 0)
(29.9116 0.000412837 0)
(29.8533 0.00060246 0)
(29.7792 0.000854303 0)
(29.687 0.0011939 0)
(29.5718 0.00168097 0)
(29.4294 0.00234204 0)
(29.2502 0.00325636 0)
(29.0315 0.00450206 0)
(28.7745 0.00650421 0)
(28.386 0.00887236 0)
(27.9783 0.0134376 0)
(27.4138 0.0187438 0)
(26.6304 0.0334629 0)
(25.5915 0.0476227 0)
(23.9261 0.0902221 0)
(21.5826 0.13792 0)
(17.8969 0.264004 0)
(12.1184 0.359028 0)
(5.81756 0.587371 0)
(29.9989 8.4285e-05 0)
(29.9854 0.000258927 0)
(29.956 0.000446885 0)
(29.9116 0.000686157 0)
(29.8533 0.00100181 0)
(29.7792 0.00142187 0)
(29.687 0.00198684 0)
(29.5718 0.00279816 0)
(29.4294 0.00389861 0)
(29.2501 0.00542286 0)
(29.0316 0.00750534 0)
(28.7747 0.0107973 0)
(28.3845 0.014846 0)
(27.9831 0.0223438 0)
(27.4151 0.0312967 0)
(26.6324 0.0548537 0)
(25.5932 0.0810783 0)
(23.9301 0.147111 0)
(21.5859 0.22049 0)
(17.8962 0.434451 0)
(12.1242 0.592381 0)
(5.82575 0.976135 0)
(29.9989 0.000118251 0)
(29.9854 0.000363135 0)
(29.956 0.000625812 0)
(29.9116 0.000960849 0)
(29.8533 0.00140299 0)
(29.7792 0.00199142 0)
(29.6871 0.00278269 0)
(29.5718 0.00391864 0)
(29.4294 0.00545961 0)
(29.2502 0.00759418 0)
(29.0315 0.0105116 0)
(28.7745 0.0151053 0)
(28.3865 0.0208257 0)
(27.9781 0.0312661 0)
(27.4145 0.0438659 0)
(26.6323 0.0762984 0)
(25.5941 0.113765 0)
(23.9344 0.206992 0)
(21.5942 0.327787 0)
(17.9004 0.612927 0)
(12.1363 0.829689 0)
(5.83865 1.36655 0)
(29.9989 0.00015228 0)
(29.9854 0.000467217 0)
(29.956 0.000804542 0)
(29.9116 0.00123531 0)
(29.8533 0.00180379 0)
(29.7792 0.0025604 0)
(29.6871 0.00357784 0)
(29.5718 0.00503823 0)
(29.4294 0.00701934 0)
(29.2502 0.00976384 0)
(29.0317 0.013517 0)
(28.7746 0.0194143 0)
(28.3848 0.0267954 0)
(27.9834 0.0402017 0)
(27.4152 0.0564588 0)
(26.6331 0.0975125 0)
(25.5974 0.145976 0)
(23.9391 0.26764 0)
(21.6051 0.417912 0)
(17.9105 0.787591 0)
(12.1562 1.06678 0)
(5.85658 1.75824 0)
(29.9989 0.000186309 0)
(29.9854 0.000571231 0)
(29.956 0.000983253 0)
(29.9116 0.00150978 0)
(29.8533 0.00220462 0)
(29.7792 0.00312942 0)
(29.6871 0.00437312 0)
(29.5719 0.00615791 0)
(29.4295 0.00857922 0)
(29.2503 0.0119342 0)
(29.0317 0.0165223 0)
(28.7745 0.0237233 0)
(28.3878 0.0327746 0)
(27.9777 0.0491073 0)
(27.4157 0.0690581 0)
(26.6341 0.118598 0)
(25.5995 0.177903 0)
(23.9432 0.327748 0)
(21.6176 0.506484 0)
(17.9274 0.96094 0)
(12.1856 1.30356 0)
(5.87994 2.15103 0)
(29.9989 0.000220335 0)
(29.9854 0.000675196 0)
(29.956 0.00116196 0)
(29.9116 0.00178428 0)
(29.8533 0.00260545 0)
(29.7792 0.00369843 0)
(29.6871 0.0051684 0)
(29.5719 0.00727758 0)
(29.4295 0.010139 0)
(29.2504 0.014104 0)
(29.0319 0.0195291 0)
(28.7744 0.0280328 0)
(28.3855 0.0387453 0)
(27.9842 0.0580287 0)
(27.4162 0.0816432 0)
(26.6344 0.139547 0)
(25.6035 0.209137 0)
(23.9482 0.385343 0)
(21.635 0.597204 0)
(17.9544 1.13439 0)
(12.2269 1.54043 0)
(5.90924 2.54523 0)
(29.9989 0.000254364 0)
(29.9854 0.000779135 0)
(29.956 0.00134065 0)
(29.9116 0.00205877 0)
(29.8533 0.00300625 0)
(29.7792 0.00426741 0)
(29.6871 0.00596367 0)
(29.5719 0.00839713 0)
(29.4295 0.0116986 0)
(29.2505 0.0162742 0)
(29.0319 0.0225353 0)
(28.7745 0.0323381 0)
(28.3897 0.0447296 0)
(27.9778 0.0668975 0)
(27.417 0.0940779 0)
(26.6349 0.160082 0)
(25.6083 0.241913 0)
(23.9539 0.444868 0)
(21.6655 0.688988 0)
(17.9983 1.30733 0)
(12.2834 1.77762 0)
(5.94507 2.94131 0)
(29.9989 0.000288392 0)
(29.9854 0.000883035 0)
(29.9561 0.00151933 0)
(29.9116 0.00233326 0)
(29.8533 0.00340706 0)
(29.7793 0.00483638 0)
(29.6871 0.00675893 0)
(29.572 0.00951667 0)
(29.4296 0.013258 0)
(29.2505 0.0184439 0)
(29.0322 0.025543 0)
(28.7741 0.0366462 0)
(28.3861 0.0506992 0)
(27.984 0.0758867 0)
(27.4206 0.106617 0)
(26.6355 0.181029 0)
(25.6171 0.273151 0)
(23.966 0.503807 0)
(21.7217 0.780457 0)
(18.0671 1.47944 0)
(12.3586 2.01541 0)
(5.9881 3.3398 0)
(29.9989 0.000322423 0)
(29.9854 0.000986908 0)
(29.9561 0.001698 0)
(29.9116 0.00260775 0)
(29.8533 0.00380785 0)
(29.7793 0.00540531 0)
(29.6872 0.00755417 0)
(29.572 0.0106361 0)
(29.4296 0.0148172 0)
(29.2507 0.0206138 0)
(29.032 0.0285502 0)
(28.7745 0.0409434 0)
(28.3931 0.0567073 0)
(27.9784 0.0846028 0)
(27.4232 0.119812 0)
(26.636 0.202336 0)
(25.6303 0.304939 0)
(23.9926 0.560831 0)
(21.8055 0.87165 0)
(18.1636 1.65106 0)
(12.455 2.25423 0)
(6.039 3.74129 0)
(29.9989 0.000356452 0)
(29.9854 0.00109074 0)
(29.9561 0.00187666 0)
(29.9116 0.00288225 0)
(29.8533 0.00420862 0)
(29.7793 0.00597422 0)
(29.6872 0.00834938 0)
(29.572 0.0117555 0)
(29.4297 0.0163761 0)
(29.2508 0.0227841 0)
(29.0324 0.031559 0)
(28.7742 0.0452339 0)
(28.3884 0.0627803 0)
(27.9766 0.0932822 0)
(27.423 0.132316 0)
(26.6368 0.222573 0)
(25.6481 0.337689 0)
(24.0358 0.617067 0)
(21.9015 0.962652 0)
(18.2812 1.82214 0)
(12.5731 2.49442 0)
(6.09842 4.14641 0)
(29.9989 0.000390482 0)
(29.9854 0.00119455 0)
(29.9561 0.00205533 0)
(29.9116 0.00315674 0)
(29.8533 0.00460938 0)
(29.7793 0.00654308 0)
(29.6872 0.00914455 0)
(29.5721 0.0128747 0)
(29.4298 0.0179347 0)
(29.251 0.0249534 0)
(29.0321 0.0345696 0)
(28.7743 0.0495057 0)
(28.3982 0.0688731 0)
(27.9715 0.102123 0)
(27.4208 0.145788 0)
(26.6386 0.243029 0)
(25.6652 0.370123 0)
(24.0824 0.67151 0)
(21.9908 1.05265 0)
(18.4079 1.99217 0)
(12.711 2.73613 0)
(6.16689 4.55582 0)
(29.9989 0.000424509 0)
(29.9854 0.00129831 0)
(29.9561 0.00223399 0)
(29.9116 0.00343123 0)
(29.8533 0.00501012 0)
(29.7793 0.00711193 0)
(29.6872 0.00993969 0)
(29.5721 0.0139938 0)
(29.4298 0.0194924 0)
(29.2512 0.0271258 0)
(29.0322 0.0375755 0)
(28.7742 0.0538116 0)
(28.3997 0.0749174 0)
(27.9693 0.111061 0)
(27.4188 0.15947 0)
(26.6412 0.262977 0)
(25.6785 0.401938 0)
(24.1214 0.723965 0)
(22.0647 1.14125 0)
(18.5329 2.16048 0)
(12.865 2.97921 0)
(6.24468 4.97012 0)
(29.9989 0.000458535 0)
(29.9854 0.00140205 0)
(29.9561 0.00241265 0)
(29.9116 0.00370572 0)
(29.8534 0.00541083 0)
(29.7793 0.00768072 0)
(29.6873 0.0107348 0)
(29.5722 0.0151129 0)
(29.4299 0.0210494 0)
(29.2514 0.0292997 0)
(29.032 0.0406002 0)
(28.7735 0.0581135 0)
(28.4096 0.0814438 0)
(27.9677 0.120068 0)
(27.4177 0.172681 0)
(26.6435 0.282278 0)
(25.6874 0.433174 0)
(24.1502 0.774868 0)
(22.1236 1.22844 0)
(18.6498 2.32666 0)
(13.0308 3.22336 0)
(6.33179 5.38982 0)
(29.9989 0.000492557 0)
(29.9854 0.00150575 0)
(29.9561 0.00259132 0)
(29.9117 0.00398021 0)
(29.8534 0.00581154 0)
(29.7794 0.00824948 0)
(29.6873 0.0115298 0)
(29.5722 0.0162317 0)
(29.4299 0.0226058 0)
(29.2516 0.0314738 0)
(29.0319 0.0436483 0)
(28.772 0.0622945 0)
(28.4106 0.0879068 0)
(27.9664 0.128892 0)
(27.4171 0.185734 0)
(26.6454 0.301365 0)
(25.693 0.464113 0)
(24.1707 0.824731 0)
(22.1706 1.31437 0)
(18.7558 2.49042 0)
(13.2043 3.46815 0)
(6.42797 5.81536 0)
(29.9989 0.000526577 0)
(29.9854 0.00160941 0)
(29.9561 0.00276999 0)
(29.9117 0.00425468 0)
(29.8534 0.0062122 0)
(29.7794 0.00881818 0)
(29.6874 0.0123248 0)
(29.5723 0.0173506 0)
(29.43 0.0241603 0)
(29.252 0.0336522 0)
(29.0319 0.0467132 0)
(28.769 0.0666222 0)
(28.4102 0.0943448 0)
(27.9653 0.137556 0)
(27.4167 0.19869 0)
(26.6467 0.320394 0)
(25.6964 0.494897 0)
(24.1852 0.873902 0)
(22.2091 1.39911 0)
(18.851 2.65161 0)
(13.3823 3.71316 0)
(6.53277 6.24708 0)
(29.9989 0.00056059 0)
(29.9854 0.00171304 0)
(29.9561 0.00294867 0)
(29.9117 0.00452916 0)
(29.8534 0.00661285 0)
(29.7794 0.00938685 0)
(29.6874 0.0131197 0)
(29.5723 0.0184694 0)
(29.4301 0.0257144 0)
(29.2522 0.035827 0)
(29.032 0.0498562 0)
(28.7641 0.0709986 0)
(28.4084 0.100608 0)
(27.9648 0.146214 0)
(27.4165 0.211656 0)
(26.6478 0.339415 0)
(25.6982 0.525582 0)
(24.1956 0.922574 0)
(22.2418 1.48276 0)
(18.9363 2.81009 0)
(13.5624 3.95799 0)
(6.64568 6.68524 0)
(29.9989 0.000594601 0)
(29.9854 0.00181663 0)
(29.9561 0.00312736 0)
(29.9117 0.00480363 0)
(29.8534 0.00701345 0)
(29.7794 0.00995542 0)
(29.6874 0.0139146 0)
(29.5724 0.0195879 0)
(29.4302 0.0272681 0)
(29.2523 0.037996 0)
(29.0325 0.0530333 0)
(28.7593 0.0754365 0)
(28.4073 0.106784 0)
(27.9646 0.15485 0)
(27.4164 0.224632 0)
(26.6487 0.358435 0)
(25.699 0.556195 0)
(24.2033 0.970852 0)
(22.2708 1.56539 0)
(19.0134 2.96581 0)
(13.7431 4.20227 0)
(6.76614 7.13006 0)
(29.9989 0.000628603 0)
(29.9854 0.00192018 0)
(29.9561 0.00330606 0)
(29.9117 0.00507809 0)
(29.8534 0.00741404 0)
(29.7795 0.010524 0)
(29.6874 0.0147093 0)
(29.5724 0.0207062 0)
(29.4303 0.0288213 0)
(29.2524 0.0401742 0)
(29.033 0.0562033 0)
(28.7557 0.0797482 0)
(28.4065 0.112909 0)
(27.9646 0.163506 0)
(27.4163 0.237621 0)
(26.6495 0.377459 0)
(25.6993 0.586751 0)
(24.2094 1.01879 0)
(22.2976 1.64705 0)
(19.0839 3.11872 0)
(13.9237 4.44567 0)
(6.89364 7.58172 0)
(29.9989 0.000662604 0)
(29.9854 0.0020237 0)
(29.9561 0.00348477 0)
(29.9117 0.00535254 0)
(29.8534 0.00781459 0)
(29.7795 0.0110924 0)
(29.6875 0.015504 0)
(29.5725 0.0218242 0)
(29.4304 0.0303757 0)
(29.2526 0.0423613 0)
(29.0334 0.0594311 0)
(28.7533 0.0839746 0)
(28.4062 0.119029 0)
(27.9646 0.172167 0)
(27.4163 0.250611 0)
(26.6503 0.396487 0)
(25.6993 0.617263 0)
(24.2147 1.06643 0)
(22.3234 1.72778 0)
(19.1494 3.2688 0)
(14.1041 4.68794 0)
(7.02775 8.04038 0)
(29.9989 0.000696594 0)
(29.9855 0.00212717 0)
(29.9561 0.00366349 0)
(29.9117 0.00562698 0)
(29.8534 0.00821511 0)
(29.7795 0.0116608 0)
(29.6875 0.0162986 0)
(29.5725 0.0229418 0)
(29.4304 0.0319299 0)
(29.2528 0.044564 0)
(29.033 0.0626716 0)
(28.7518 0.0881958 0)
(28.4059 0.125141 0)
(27.9648 0.180841 0)
(27.4164 0.263602 0)
(26.6512 0.415523 0)
(25.6994 0.647742 0)
(24.2198 1.11377 0)
(22.3491 1.80762 0)
(19.2114 3.41604 0)
(14.2846 4.92882 0)
(7.16809 8.5062 0)
(29.9989 0.000730582 0)
(29.9854 0.00223061 0)
(29.9561 0.00384223 0)
(29.9117 0.00590141 0)
(29.8535 0.00861558 0)
(29.7795 0.0122291 0)
(29.6876 0.0170929 0)
(29.5727 0.0240601 0)
(29.4304 0.0334802 0)
(29.2534 0.046826 0)
(29.0319 0.0658787 0)
(28.7509 0.092434 0)
(28.4059 0.131262 0)
(27.965 0.189517 0)
(27.4165 0.27659 0)
(26.6522 0.434565 0)
(25.6997 0.678197 0)
(24.2251 1.16079 0)
(22.3752 1.88658 0)
(19.2711 3.56045 0)
(14.4658 5.16814 0)
(7.31441 8.97933 0)
(29.9989 0.000764559 0)
(29.9855 0.00233402 0)
(29.9561 0.00402097 0)
(29.9117 0.00617583 0)
(29.8535 0.00901601 0)
(29.7796 0.0127974 0)
(29.6876 0.017887 0)
(29.5727 0.0251787 0)
(29.4304 0.0350283 0)
(29.2539 0.0491314 0)
(29.0306 0.0690548 0)
(28.7503 0.0967027 0)
(28.4059 0.137381 0)
(27.9654 0.198196 0)
(27.4169 0.289573 0)
(26.6534 0.453614 0)
(25.7007 0.708629 0)
(24.231 1.20744 0)
(22.4021 1.96469 0)
(19.3296 3.70203 0)
(14.6485 5.4057 0)
(7.46656 9.45994 0)
(29.9989 0.000798533 0)
(29.9854 0.00243738 0)
(29.9561 0.00419972 0)
(29.9117 0.00645023 0)
(29.8535 0.00941639 0)
(29.7796 0.0133656 0)
(29.6877 0.0186808 0)
(29.5729 0.0262976 0)
(29.4304 0.0365726 0)
(29.2543 0.0514665 0)
(29.0296 0.0721277 0)
(28.75 0.100991 0)
(28.4061 0.143505 0)
(27.9657 0.206873 0)
(27.4173 0.302552 0)
(26.6549 0.472664 0)
(25.7025 0.739028 0)
(24.2377 1.25369 0)
(22.4299 2.04197 0)
(19.3878 3.84075 0)
(14.8339 5.64139 0)
(7.62447 9.94821 0)
(29.9989 0.000832495 0)
(29.9855 0.00254071 0)
(29.9561 0.00437848 0)
(29.9117 0.00672463 0)
(29.8535 0.00981673 0)
(29.7796 0.0139339 0)
(29.6877 0.0194742 0)
(29.5729 0.0274168 0)
(29.4305 0.0381133 0)
(29.2543 0.0537813 0)
(29.0289 0.0751289 0)
(28.7499 0.105291 0)
(28.4062 0.149625 0)
(27.9662 0.21555 0)
(27.418 0.315522 0)
(26.6567 0.491708 0)
(25.7052 0.769368 0)
(24.2454 1.29955 0)
(22.4588 2.11843 0)
(19.4464 3.9766 0)
(15.0231 5.87508 0)
(7.78817 10.4443 0)
(29.9989 0.000866455 0)
(29.9854 0.002644 0)
(29.9561 0.00455725 0)
(29.9117 0.006999 0)
(29.8535 0.010217 0)
(29.7797 0.0145019 0)
(29.6878 0.0202678 0)
(29.573 0.0285344 0)
(29.4308 0.0396694 0)
(29.2542 0.0560756 0)
(29.0285 0.0781003 0)
(28.7498 0.109596 0)
(28.4065 0.155744 0)
(27.9667 0.224222 0)
(27.4189 0.328482 0)
(26.659 0.510731 0)
(25.7091 0.799624 0)
(24.2541 1.34501 0)
(22.4886 2.19409 0)
(19.506 4.1095 0)
(15.2173 6.10665 0)
(7.9578 10.9486 0)
(29.9989 0.000900403 0)
(29.9855 0.00274725 0)
(29.9562 0.00473603 0)
(29.9118 0.00727335 0)
(29.8535 0.0106173 0)
(29.7797 0.0150698 0)
(29.6878 0.0210614 0)
(29.573 0.0296529 0)
(29.4311 0.0412341 0)
(29.2534 0.0584683 0)
(29.0283 0.0810793 0)
(28.7499 0.113904 0)
(28.4067 0.161859 0)
(27.9672 0.232891 0)
(27.4199 0.341424 0)
(26.6618 0.529719 0)
(25.714 0.829779 0)
(24.2638 1.39009 0)
(22.5194 2.26893 0)
(19.5669 4.23938 0)
(15.4179 6.33604 0)
(8.13356 11.4612 0)
(29.9989 0.000934349 0)
(29.9855 0.00285046 0)
(29.9561 0.00491482 0)
(29.9118 0.00754769 0)
(29.8536 0.0110175 0)
(29.7797 0.0156376 0)
(29.6879 0.0218545 0)
(29.5731 0.0307704 0)
(29.4315 0.0428087 0)
(29.2525 0.0608256 0)
(29.0282 0.0840834 0)
(28.75 0.118211 0)
(28.4071 0.167972 0)
(27.9679 0.241553 0)
(27.4213 0.354344 0)
(26.6651 0.548657 0)
(25.72 0.859828 0)
(24.2747 1.43479 0)
(22.551 2.34297 0)
(19.6294 4.36612 0)
(15.6259 6.56313 0)
(8.31571 11.9824 0)
(29.9989 0.000968281 0)
(29.9855 0.00295363 0)
(29.9562 0.00509362 0)
(29.9118 0.00782199 0)
(29.8536 0.0114177 0)
(29.7797 0.0162052 0)
(29.6879 0.0226484 0)
(29.573 0.0318834 0)
(29.4319 0.044438 0)
(29.2515 0.0630379 0)
(29.0282 0.0871146 0)
(28.7502 0.122519 0)
(28.4074 0.17408 0)
(27.9686 0.250206 0)
(27.4228 0.367236 0)
(26.6688 0.567536 0)
(25.7269 0.88977 0)
(24.2869 1.47913 0)
(22.5834 2.41618 0)
(19.6936 4.48958 0)
(15.8425 6.78785 0)
(8.50457 12.5127 0)
(29.9989 0.00100221 0)
(29.9855 0.00305678 0)
(29.9561 0.00527243 0)
(29.9118 0.00809628 0)
(29.8536 0.0118178 0)
(29.7798 0.0167727 0)
(29.688 0.0234421 0)
(29.5731 0.0329956 0)
(29.4323 0.0460911 0)
(29.2508 0.0652242 0)
(29.0283 0.0901657 0)
(28.7504 0.126824 0)
(28.4078 0.180185 0)
(27.9695 0.258848 0)
(27.4246 0.380094 0)
(26.673 0.586347 0)
(25.7347 0.9196 0)
(24.3003 1.5231 0)
(22.6167 2.48856 0)
(19.7593 4.6096 0)
(16.0682 7.01011 0)
(8.70048 13.0522 0)
(29.9988 0.00103613 0)
(29.9855 0.00315987 0)
(29.9562 0.00545124 0)
(29.9118 0.00837053 0)
(29.8536 0.0122179 0)
(29.7798 0.01734 0)
(29.6881 0.0242356 0)
(29.5731 0.0341075 0)
(29.4325 0.0477534 0)
(29.2504 0.0674012 0)
(29.0284 0.0932284 0)
(28.7506 0.131129 0)
(28.4082 0.186284 0)
(27.9704 0.267476 0)
(27.4266 0.392916 0)
(26.6776 0.605085 0)
(25.7433 0.949309 0)
(24.315 1.56671 0)
(22.6508 2.56012 0)
(19.8265 4.72602 0)
(16.3038 7.22979 0)
(8.9038 13.6015 0)
(29.9989 0.00107005 0)
(29.9855 0.00326294 0)
(29.9562 0.00563005 0)
(29.9118 0.00864476 0)
(29.8536 0.012618 0)
(29.7798 0.0179072 0)
(29.6882 0.0250291 0)
(29.5733 0.0352186 0)
(29.4326 0.049425 0)
(29.2503 0.0695574 0)
(29.0286 0.0962976 0)
(28.7509 0.135432 0)
(28.4087 0.192379 0)
(27.9714 0.27609 0)
(27.4288 0.405697 0)
(26.6825 0.623743 0)
(25.7528 0.978887 0)
(24.3311 1.60995 0)
(22.6857 2.63084 0)
(19.895 4.83866 0)
(16.5491 7.4468 0)
(9.11487 14.1609 0)
(29.9988 0.00110395 0)
(29.9855 0.00336597 0)
(29.9562 0.00580887 0)
(29.9118 0.00891897 0)
(29.8537 0.013018 0)
(29.7799 0.0184742 0)
(29.6882 0.0258222 0)
(29.5734 0.0363298 0)
(29.4326 0.0511016 0)
(29.2505 0.0716992 0)
(29.0289 0.0993711 0)
(28.7512 0.139733 0)
(28.4092 0.198468 0)
(27.9724 0.284687 0)
(27.4312 0.418437 0)
(26.6878 0.642317 0)
(25.7631 1.00832 0)
(24.3485 1.65283 0)
(22.7216 2.70074 0)
(19.9647 4.94736 0)
(16.8043 7.66101 0)
(9.33403 14.7307 0)
(29.9989 0.00113785 0)
(29.9855 0.00346896 0)
(29.9562 0.0059877 0)
(29.9118 0.00919315 0)
(29.8537 0.0134179 0)
(29.7799 0.0190412 0)
(29.6883 0.0266146 0)
(29.5736 0.0374414 0)
(29.4325 0.0527811 0)
(29.2509 0.0738286 0)
(29.0291 0.102448 0)
(28.7516 0.144033 0)
(28.4097 0.20455 0)
(27.9736 0.293266 0)
(27.4338 0.431132 0)
(26.6934 0.6608 0)
(25.7741 1.03759 0)
(24.3674 1.69535 0)
(22.7586 2.76981 0)
(20.0355 5.05196 0)
(17.069 7.8723 0)
(9.56156 15.3115 0)
(29.9988 0.00117174 0)
(29.9855 0.00357193 0)
(29.9562 0.00616652 0)
(29.9118 0.00946732 0)
(29.8537 0.0138177 0)
(29.78 0.0196084 0)
(29.6882 0.0274065 0)
(29.5738 0.038549 0)
(29.4323 0.0544605 0)
(29.2513 0.0759492 0)
(29.0294 0.105527 0)
(28.7519 0.148331 0)
(28.4103 0.210627 0)
(27.9748 0.301826 0)
(27.4365 0.443781 0)
(26.6993 0.679185 0)
(25.7858 1.0667 0)
(24.3878 1.73749 0)
(22.7968 2.83807 0)
(20.1075 5.15229 0)
(17.343 8.0805 0)
(9.79772 15.9035 0)
(29.9989 0.00120564 0)
(29.9855 0.00367486 0)
(29.9562 0.00634535 0)
(29.9118 0.00974141 0)
(29.8537 0.0142176 0)
(29.78 0.0201746 0)
(29.6883 0.0282014 0)
(29.574 0.0396527 0)
(29.432 0.0560607 0)
(29.2518 0.0780619 0)
(29.0298 0.108609 0)
(28.7523 0.152627 0)
(28.4109 0.216696 0)
(27.976 0.310366 0)
(27.4394 0.456383 0)
(26.7054 0.697466 0)
(25.7982 1.09561 0)
(24.4096 1.77925 0)
(22.8364 2.90551 0)
(20.1809 5.24823 0)
(17.6261 8.2855 0)
(10.0427 16.5072 0)
(29.9988 0.00123952 0)
(29.9855 0.00377777 0)
(29.9562 0.00652416 0)
(29.9119 0.0100156 0)
(29.8537 0.014617 0)
(29.7801 0.0207426 0)
(29.6883 0.0289866 0)
(29.5743 0.0408138 0)
(29.4313 0.0574292 0)
(29.2523 0.0801778 0)
(29.0301 0.111692 0)
(28.7527 0.156922 0)
(28.4115 0.222758 0)
(27.9774 0.318885 0)
(27.4424 0.468934 0)
(26.7119 0.715638 0)
(25.8113 1.12432 0)
(24.4328 1.82062 0)
(22.8775 2.97213 0)
(20.2558 5.33963 0)
(17.9183 8.48712 0)
(10.2969 17.1231 0)
(29.9989 0.0012734 0)
(29.9855 0.00388064 0)
(29.9562 0.00670297 0)
(29.9119 0.0102896 0)
(29.8538 0.0150166 0)
(29.7801 0.0213087 0)
(29.6884 0.029781 0)
(29.5747 0.0419318 0)
(29.4306 0.0593233 0)
(29.2528 0.082326 0)
(29.0305 0.114776 0)
(28.7532 0.161215 0)
(28.4121 0.228813 0)
(27.9787 0.327383 0)
(27.4455 0.481434 0)
(26.7185 0.733692 0)
(25.825 1.15281 0)
(24.4575 1.86159 0)
(22.9204 3.03793 0)
(20.3325 5.42635 0)
(18.2199 8.68523 0)
(10.5603 17.7514 0)
(29.9988 0.00130727 0)
(29.9855 0.00398346 0)
(29.9562 0.00688178 0)
(29.9119 0.0105636 0)
(29.8538 0.0154164 0)
(29.7802 0.0218748 0)
(29.6884 0.030569 0)
(29.5749 0.0431031 0)
(29.4302 0.0611191 0)
(29.2533 0.0845038 0)
(29.0308 0.117861 0)
(28.7536 0.165505 0)
(28.4128 0.23486 0)
(27.9802 0.335857 0)
(27.4487 0.49388 0)
(26.7254 0.751625 0)
(25.8394 1.18106 0)
(24.4834 1.90214 0)
(22.9654 3.1029 0)
(20.411 5.50827 0)
(18.5311 8.87966 0)
(10.8332 18.3927 0)
(29.9989 0.00134114 0)
(29.9855 0.00408626 0)
(29.9562 0.00706054 0)
(29.9119 0.0108378 0)
(29.8538 0.0158149 0)
(29.7802 0.0224462 0)
(29.6885 0.0313356 0)
(29.5749 0.0442952 0)
(29.43 0.0626197 0)
(29.2536 0.0866919 0)
(29.0312 0.120945 0)
(28.7541 0.169794 0)
(28.4135 0.240899 0)
(27.9816 0.344308 0)
(27.452 0.50627 0)
(26.7325 0.76943 0)
(25.8543 1.20907 0)
(24.5107 1.94224 0)
(23.0127 3.16705 0)
(20.491 5.58524 0)
(18.8522 9.07025 0)
(11.116 19.0474 0)
(29.9988 0.00137501 0)
(29.9855 0.00418904 0)
(29.9562 0.00723932 0)
(29.9119 0.0111116 0)
(29.8538 0.0162151 0)
(29.7802 0.0230075 0)
(29.6887 0.032167 0)
(29.5743 0.0451725 0)
(29.4299 0.0640608 0)
(29.2539 0.0888793 0)
(29.0315 0.124029 0)
(28.7546 0.17408 0)
(28.4142 0.246928 0)
(27.9831 0.352737 0)
(27.4554 0.518603 0)
(26.7398 0.787102 0)
(25.8697 1.23682 0)
(24.5392 1.98188 0)
(23.0628 3.23037 0)
(20.5721 5.65714 0)
(19.1823 9.25689 0)
(11.4087 19.7159 0)
(29.9989 0.00140887 0)
(29.9855 0.00429182 0)
(29.9562 0.00741812 0)
(29.9119 0.0113855 0)
(29.8539 0.0166143 0)
(29.7801 0.023575 0)
(29.6895 0.0329693 0)
(29.5715 0.0465246 0)
(29.4298 0.0655356 0)
(29.2542 0.0910642 0)
(29.0319 0.127112 0)
(28.755 0.178364 0)
(28.4149 0.25295 0)
(27.9846 0.36114 0)
(27.4589 0.530877 0)
(26.7474 0.804635 0)
(25.8856 1.2643 0)
(24.5687 2.02101 0)
(23.116 3.29286 0)
(20.6536 5.72386 0)
(19.5183 9.43956 0)
(11.7116 20.3994 0)
(29.9988 0.00144256 0)
(29.9856 0.00439462 0)
(29.9563 0.00759705 0)
(29.9119 0.0116593 0)
(29.854 0.017014 0)
(29.78 0.0241388 0)
(29.6901 0.0337904 0)
(29.5694 0.0479355 0)
(29.4297 0.0670476 0)
(29.2544 0.0932497 0)
(29.0322 0.130193 0)
(28.7555 0.182645 0)
(28.4156 0.258961 0)
(27.9862 0.36952 0)
(27.4624 0.54309 0)
(26.7551 0.822027 0)
(25.902 1.2915 0)
(24.5992 2.05959 0)
(23.1728 3.35455 0)
(20.7347 5.7854 0)
(19.8533 9.61796 0)
(12.0244 21.1053 0)
(29.9989 0.0014757 0)
(29.9855 0.00449711 0)
(29.9562 0.00777607 0)
(29.9119 0.0119327 0)
(29.854 0.017414 0)
(29.78 0.0246912 0)
(29.6902 0.0346693 0)
(29.5687 0.0490623 0)
(29.4296 0.0685689 0)
(29.2545 0.0954318 0)
(29.0325 0.133273 0)
(28.7559 0.186925 0)
(28.4163 0.264956 0)
(27.9877 0.377872 0)
(27.466 0.55524 0)
(26.763 0.839273 0)
(25.9186 1.3184 0)
(24.6306 2.09756 0)
(23.2336 3.41547 0)
(20.8156 5.84184 0)
(20.1759 9.79008 0)
(12.4331 21.8551 0)
(0.266672 0.00906427 0)
(-1.08589 0.0236518 0)
(-1.90681 0.00884977 0)
(-1.94912 -0.00280165 0)
(-1.58421 -0.0068081 0)
(-1.1492 -0.00530453 0)
(-0.912248 -0.00234405 0)
(-0.836252 -0.00046292 0)
(-0.847901 -0.000371587 0)
(-0.767772 -0.000275227 0)
(-0.791193 0.000302039 0)
(-0.770962 -0.000543705 0)
(-0.697703 -0.000966493 0)
(-0.564974 -0.00205163 0)
(-0.236217 -0.00396535 0)
(0.442177 -0.00591155 0)
(1.42479 -0.00711502 0)
(2.60816 -0.0077448 0)
(3.96087 -0.00789115 0)
(5.40819 -0.00766564 0)
(6.91568 -0.00728387 0)
(8.46788 -0.00679231 0)
(10.0206 -0.00612737 0)
(11.5028 -0.00536455 0)
(12.8999 -0.00467571 0)
(14.2205 -0.00407622 0)
(15.4652 -0.00362154 0)
(16.6892 -0.00340388 0)
(17.9821 -0.00288975 0)
(19.0027 -0.00176181 0)
(19.4796 -0.00604561 0)
(24.7749 -0.00982952 0)
(29.4516 -0.00462823 0)
(29.808 -0.00026596 0)
(29.7653 3.34547e-05 0)
(0.289231 0.0263093 0)
(-1.06416 0.0707443 0)
(-1.87879 0.0264308 0)
(-1.91846 -0.00818961 0)
(-1.55584 -0.0202988 0)
(-1.12639 -0.0157434 0)
(-0.89417 -0.0069245 0)
(-0.82489 -0.00125612 0)
(-0.848684 -0.0010809 0)
(-0.775002 -0.000934984 0)
(-0.792493 0.000573466 0)
(-0.753246 -0.0019435 0)
(-0.650248 -0.00290926 0)
(-0.5111 -0.00561613 0)
(-0.222826 -0.0111328 0)
(0.404242 -0.0172056 0)
(1.37555 -0.0210652 0)
(2.58234 -0.0229624 0)
(3.95971 -0.0234046 0)
(5.4169 -0.0227807 0)
(6.91635 -0.0217021 0)
(8.45343 -0.0202886 0)
(9.9948 -0.0183442 0)
(11.4739 -0.0160863 0)
(12.8743 -0.0140248 0)
(14.1994 -0.0122267 0)
(15.4486 -0.0108527 0)
(16.6719 -0.0101942 0)
(17.9627 -0.00871497 0)
(19.0038 -0.00524705 0)
(19.4588 -0.0176733 0)
(24.4761 -0.0293451 0)
(29.402 -0.0143744 0)
(29.813 -0.000851988 0)
(29.7671 0.000105234 0)
(0.317894 0.0423879 0)
(-1.03977 0.117703 0)
(-1.84694 0.0437165 0)
(-1.88003 -0.0136439 0)
(-1.51623 -0.0338081 0)
(-1.09492 -0.0260108 0)
(-0.869343 -0.0113323 0)
(-0.808556 -0.00173602 0)
(-0.84218 -0.00146369 0)
(-0.770028 -0.00147343 0)
(-0.781315 0.000867105 0)
(-0.719205 -0.00396208 0)
(-0.590033 -0.00531817 0)
(-0.457535 -0.00911187 0)
(-0.218061 -0.0176519 0)
(0.362898 -0.0278525 0)
(1.33267 -0.0348107 0)
(2.56743 -0.0382109 0)
(3.96983 -0.0388578 0)
(5.43826 -0.0377614 0)
(6.9319 -0.0359544 0)
(8.45466 -0.0336008 0)
(9.98535 -0.0304619 0)
(11.4609 -0.0267904 0)
(12.8637 -0.0233967 0)
(14.1924 -0.0204054 0)
(15.4454 -0.0180943 0)
(16.6675 -0.0169669 0)
(17.9554 -0.0145592 0)
(19.0147 -0.00875621 0)
(19.4534 -0.028639 0)
(24.2082 -0.0489585 0)
(29.3544 -0.0246048 0)
(29.8174 -0.00154064 0)
(29.7689 0.000181409 0)
(0.352505 0.0571254 0)
(-1.01323 0.164675 0)
(-1.81071 0.0606923 0)
(-1.83231 -0.0193162 0)
(-1.46468 -0.0471897 0)
(-1.05326 -0.0360097 0)
(-0.83587 -0.0154974 0)
(-0.783841 -0.00199986 0)
(-0.825185 -0.00176784 0)
(-0.753746 -0.00210152 0)
(-0.760968 0.000787653 0)
(-0.674988 -0.00644531 0)
(-0.521464 -0.00785882 0)
(-0.399084 -0.0120975 0)
(-0.209009 -0.023532 0)
(0.32554 -0.0384433 0)
(1.2936 -0.0491067 0)
(2.55914 -0.0541354 0)
(3.99043 -0.0547743 0)
(5.47394 -0.0529217 0)
(6.96496 -0.0501683 0)
(8.47433 -0.0468313 0)
(9.99398 -0.0425377 0)
(11.465 -0.0374968 0)
(12.869 -0.0327907 0)
(14.2003 -0.0286082 0)
(15.4563 -0.025345 0)
(16.6768 -0.0237307 0)
(17.9608 -0.0204431 0)
(19.0356 -0.0122694 0)
(19.4636 -0.0390739 0)
(23.9718 -0.0683101 0)
(29.3086 -0.0353542 0)
(29.8213 -0.00231144 0)
(29.7707 0.000261757 0)
(0.39334 0.0703441 0)
(-0.984644 0.211636 0)
(-1.76944 0.0771797 0)
(-1.77446 -0.0253296 0)
(-1.40138 -0.0604453 0)
(-1.00135 -0.0456764 0)
(-0.794106 -0.0193948 0)
(-0.750778 -0.00205855 0)
(-0.798151 -0.00198024 0)
(-0.727249 -0.00276542 0)
(-0.73074 0.000367184 0)
(-0.619338 -0.00936542 0)
(-0.443016 -0.0105373 0)
(-0.33405 -0.0145936 0)
(-0.1933 -0.0286652 0)
(0.295129 -0.0486781 0)
(1.26063 -0.0636659 0)
(2.56041 -0.0705641 0)
(4.02605 -0.0710441 0)
(5.52901 -0.068206 0)
(7.01979 -0.0643242 0)
(8.51602 -0.0599528 0)
(10.0236 -0.0545464 0)
(11.4886 -0.0481872 0)
(12.8925 -0.0421965 0)
(14.2253 -0.0368288 0)
(15.4834 -0.0326009 0)
(16.7016 -0.0304791 0)
(17.9804 -0.0263505 0)
(19.0678 -0.0157977 0)
(19.49 -0.0490044 0)
(23.7657 -0.0874894 0)
(29.2645 -0.046529 0)
(29.8247 -0.00316456 0)
(29.7724 0.000345253 0)
(0.440612 0.0818423 0)
(-0.954035 0.258616 0)
(-1.72232 0.0930044 0)
(-1.70532 -0.0318033 0)
(-1.32603 -0.0736056 0)
(-0.938834 -0.054973 0)
(-0.743976 -0.0230035 0)
(-0.709081 -0.00193121 0)
(-0.761256 -0.00211842 0)
(-0.691234 -0.00346661 0)
(-0.690144 -0.000404309 0)
(-0.551679 -0.0127181 0)
(-0.354342 -0.0132961 0)
(-0.261422 -0.0165615 0)
(-0.168401 -0.0330343 0)
(0.276485 -0.0584687 0)
(1.23955 -0.0783645 0)
(2.57754 -0.0874361 0)
(4.08458 -0.0876457 0)
(5.61167 -0.0836078 0)
(7.1034 -0.0784162 0)
(8.58551 -0.0729502 0)
(10.0791 -0.0664709 0)
(11.5359 -0.0588464 0)
(12.9378 -0.0516016 0)
(14.2706 -0.0450572 0)
(15.5296 -0.0398542 0)
(16.7444 -0.037204 0)
(18.0163 -0.0322678 0)
(19.1128 -0.0193468 0)
(19.5343 -0.0584625 0)
(23.5876 -0.106485 0)
(29.2222 -0.0580649 0)
(29.8276 -0.00409639 0)
(29.774 0.000431104 0)
(0.494404 0.0914141 0)
(-0.921338 0.305632 0)
(-1.66839 0.107972 0)
(-1.62319 -0.0388576 0)
(-1.23782 -0.0866721 0)
(-0.864906 -0.0638526 0)
(-0.68491 -0.0262975 0)
(-0.658084 -0.00163456 0)
(-0.714191 -0.00218873 0)
(-0.645704 -0.00420982 0)
(-0.638614 -0.00155417 0)
(-0.471525 -0.0164871 0)
(-0.254885 -0.0160993 0)
(-0.179278 -0.0180214 0)
(-0.131486 -0.0367221 0)
(0.274367 -0.0678769 0)
(1.2379 -0.0932119 0)
(2.62007 -0.104787 0)
(4.17822 -0.104632 0)
(5.73494 -0.0991548 0)
(7.22704 -0.0924372 0)
(8.69202 -0.0857989 0)
(10.168 -0.0782869 0)
(11.6132 -0.0694549 0)
(13.0106 -0.0609922 0)
(14.3415 -0.0532835 0)
(15.5997 -0.0470971 0)
(16.8096 -0.0438961 0)
(18.0719 -0.03818 0)
(19.1732 -0.022917 0)
(19.5989 -0.0674775 0)
(23.4357 -0.125272 0)
(29.1816 -0.0699089 0)
(29.8299 -0.00510352 0)
(29.7756 0.000518527 0)
(0.554597 0.0988511 0)
(-0.886391 0.352679 0)
(-1.6065 0.12185 0)
(-1.52595 -0.0466082 0)
(-1.13575 -0.099611 0)
(-0.778555 -0.0722521 0)
(-0.615971 -0.0292436 0)
(-0.596778 -0.00118233 0)
(-0.656129 -0.00219003 0)
(-0.589899 -0.00500034 0)
(-0.575044 -0.00309974 0)
(-0.377709 -0.0206855 0)
(-0.142776 -0.0189362 0)
(-0.084127 -0.0190076 0)
(-0.0790968 -0.0398145 0)
(0.29291 -0.0770166 0)
(1.26332 -0.108305 0)
(2.7001 -0.122716 0)
(4.32458 -0.122094 0)
(5.9192 -0.114884 0)
(7.40897 -0.106368 0)
(8.85038 -0.0984567 0)
(10.3022 -0.0899558 0)
(11.7303 -0.079984 0)
(13.1193 -0.070349 0)
(14.4454 -0.061494 0)
(15.7006 -0.0543185 0)
(16.9032 -0.0505419 0)
(18.1523 -0.0440667 0)
(19.2523 -0.0265068 0)
(19.6873 -0.0760698 0)
(23.309 -0.143809 0)
(29.1429 -0.082013 0)
(29.8317 -0.00618256 0)
(29.7771 0.000606722 0)
(0.62079 0.103946 0)
(-0.848924 0.399719 0)
(-1.5353 0.134364 0)
(-1.41135 -0.0551651 0)
(-1.01899 -0.112363 0)
(-0.67883 -0.0801066 0)
(-0.536039 -0.0318102 0)
(-0.523901 -0.000589289 0)
(-0.585796 -0.00212192 0)
(-0.522359 -0.0058496 0)
(-0.497519 -0.00508412 0)
(-0.267964 -0.0253265 0)
(-0.0145792 -0.0218198 0)
(0.0289968 -0.019552 0)
(-0.00673512 -0.0423685 0)
(0.336499 -0.0860012 0)
(1.32352 -0.123807 0)
(2.83169 -0.141415 0)
(4.54697 -0.140196 0)
(6.19504 -0.130859 0)
(7.67868 -0.120178 0)
(9.08464 -0.110854 0)
(10.5004 -0.101415 0)
(11.9021 -0.090388 0)
(13.2763 -0.079642 0)
(14.5933 -0.0696686 0)
(15.8423 -0.0615021 0)
(17.0344 -0.0571216 0)
(18.2646 -0.0498993 0)
(19.3549 -0.0301111 0)
(19.8046 -0.0842506 0)
(23.2082 -0.162048 0)
(29.1064 -0.0943293 0)
(29.8328 -0.00732985 0)
(29.7786 0.000694859 0)
(0.69222 0.106493 0)
(-0.808542 0.446672 0)
(-1.45325 0.145198 0)
(-1.27755 -0.0646253 0)
(-0.887286 -0.124844 0)
(-0.565141 -0.0873611 0)
(-0.444 -0.0339731 0)
(-0.43805 0.000126111 0)
(-0.501563 -0.00198862 0)
(-0.441001 -0.00677743 0)
(-0.403207 -0.00754404 0)
(-0.138844 -0.0304552 0)
(0.134571 -0.0247863 0)
(0.166395 -0.0196949 0)
(0.0915499 -0.0444259 0)
(0.411003 -0.0949379 0)
(1.42771 -0.139931 0)
(3.03113 -0.161197 0)
(4.87235 -0.159238 0)
(6.6025 -0.147203 0)
(8.08027 -0.133824 0)
(9.43284 -0.122881 0)
(10.7919 -0.112563 0)
(12.1512 -0.100594 0)
(13.4999 -0.0888245 0)
(14.8009 -0.0777772 0)
(16.0389 -0.0686246 0)
(17.2158 -0.0636065 0)
(18.4193 -0.055636 0)
(19.4875 -0.0337183 0)
(19.9575 -0.0920219 0)
(23.1353 -0.179931 0)
(29.0724 -0.106807 0)
(29.8334 -0.00854124 0)
(29.7799 0.000782091 0)
(0.767673 0.106314 0)
(-0.764685 0.493399 0)