/*--------------------------------*- C++ -*----------------------------------*\
| =========                 |                                                 |
| \\      /  F ield         | OpenFOAM: The Open Source CFD Toolbox           |
|  \\    /   O peration     | Version:  v1912                                 |
|   \\  /    A nd           | Website:  www.openfoam.com                      |
|    \\/     M anipulation  |                                                 |
\*---------------------------------------------------------------------------*/
FoamFile
{
    version     2.0;
    format      ascii;
    class       volScalarField;
    location    "440";
    object      yPlus;
}
// * * * * * * * * * * * * * * * * * * * * * * * * * * * * * * * * * * * * * //

dimensions      [0 0 0 0 0 0 0];


internalField   uniform 0;

boundaryField
{
    inlet
    {
        type            calculated;
        value           uniform 0;
    }
    outlet
    {
        type            calculated;
        value           uniform 0;
    }
    lowerSymmetry
    {
        type            symmetryPlane;
    }
    obstical
    {
        type            calculated;
        value           nonuniform List<scalar> 
88
(
479.472
481.688
486.085
492.653
501.329
512.024
524.65
539.118
555.342
573.242
592.742
613.765
636.23
660.048
685.123
711.362
738.674
766.979
796.203
826.289
857.185
888.855
921.27
954.412
988.27
1022.84
1058.13
1094.15
1130.9
1168.42
1206.72
1245.82
1285.74
1326.51
1368.14
1410.66
1454.09
1498.44
1543.75
1590.04
1637.33
1685.68
1735.5
1790.73
32.6263
34.9359
37.8688
41.3526
45.3681
49.9007
54.9338
60.4408
66.3766
72.6701
79.2164
85.8983
92.6004
99.1799
105.469
111.28
116.414
120.674
123.874
125.856
126.495
125.706
123.448
119.726
114.594
108.161
100.596
92.1475
83.1823
74.2663
66.3012
60.6585
58.9705
62.1826
69.7887
80.5031
93.2571
107.493
123.066
140.086
158.766
179.464
202.484
228.632
)
;
    }
    obsticalTop
    {
        type            calculated;
        value           nonuniform List<scalar> 
20
(
53.3897
38.7936
47.1482
53.2357
56.0787
57.7122
58.314
58.0051
57.0539
55.5916
53.5931
50.9471
47.5578
43.2358
37.951
31.063
24.6593
15.1236
13.6267
11.4124
)
;
    }
    top
    {
        type            calculated;
        value           uniform 0;
    }
    defaultFaces
    {
        type            empty;
    }
}


// ************************************************************************* //
