/*--------------------------------*- C++ -*----------------------------------*\
| =========                 |                                                 |
| \\      /  F ield         | OpenFOAM: The Open Source CFD Toolbox           |
|  \\    /   O peration     | Version:  v1912                                 |
|   \\  /    A nd           | Website:  www.openfoam.com                      |
|    \\/     M anipulation  |                                                 |
\*---------------------------------------------------------------------------*/
FoamFile
{
    version     2.0;
    format      ascii;
    class       volScalarField;
    location    "900";
    object      nuTilda;
}
// * * * * * * * * * * * * * * * * * * * * * * * * * * * * * * * * * * * * * //

dimensions      [0 2 -1 0 0 0 0];


internalField   nonuniform List<scalar> 
10000
(
9.9992e-05
9.99748e-05
9.99558e-05
9.99345e-05
9.99106e-05
9.98836e-05
9.98526e-05
9.9817e-05
9.97754e-05
9.97262e-05
9.96673e-05
9.95953e-05
9.95053e-05
9.93905e-05
9.92342e-05
9.9033e-05
9.86485e-05
9.84466e-05
9.57928e-05
0.000101235
9.9992e-05
9.99748e-05
9.99558e-05
9.99345e-05
9.99106e-05
9.98836e-05
9.98526e-05
9.9817e-05
9.97754e-05
9.97262e-05
9.96673e-05
9.95953e-05
9.95053e-05
9.93905e-05
9.92342e-05
9.9033e-05
9.86488e-05
9.84454e-05
9.57982e-05
0.000101675
9.9992e-05
9.99748e-05
9.99558e-05
9.99345e-05
9.99106e-05
9.98836e-05
9.98526e-05
9.9817e-05
9.97754e-05
9.97262e-05
9.96673e-05
9.95954e-05
9.95054e-05
9.93905e-05
9.92342e-05
9.90329e-05
9.86494e-05
9.84426e-05
9.58136e-05
0.000101827
9.9992e-05
9.99748e-05
9.99558e-05
9.99345e-05
9.99106e-05
9.98836e-05
9.98527e-05
9.9817e-05
9.97754e-05
9.97263e-05
9.96673e-05
9.95954e-05
9.95054e-05
9.93905e-05
9.92343e-05
9.90328e-05
9.86504e-05
9.84382e-05
9.58423e-05
0.000101733
9.9992e-05
9.99748e-05
9.99558e-05
9.99345e-05
9.99106e-05
9.98836e-05
9.98527e-05
9.9817e-05
9.97754e-05
9.97263e-05
9.96673e-05
9.95954e-05
9.95054e-05
9.93906e-05
9.92344e-05
9.90327e-05
9.86518e-05
9.84317e-05
9.58867e-05
0.000101441
9.9992e-05
9.99748e-05
9.99558e-05
9.99345e-05
9.99107e-05
9.98836e-05
9.98527e-05
9.9817e-05
9.97754e-05
9.97263e-05
9.96674e-05
9.95954e-05
9.95054e-05
9.93906e-05
9.92345e-05
9.90326e-05
9.86536e-05
9.8423e-05
9.59475e-05
0.000100995
9.9992e-05
9.99748e-05
9.99558e-05
9.99345e-05
9.99107e-05
9.98836e-05
9.98527e-05
9.9817e-05
9.97754e-05
9.97263e-05
9.96674e-05
9.95954e-05
9.95055e-05
9.93907e-05
9.92347e-05
9.90324e-05
9.8656e-05
9.8412e-05
9.60242e-05
0.000100441
9.9992e-05
9.99748e-05
9.99558e-05
9.99346e-05
9.99107e-05
9.98836e-05
9.98527e-05
9.9817e-05
9.97754e-05
9.97263e-05
9.96674e-05
9.95955e-05
9.95055e-05
9.93907e-05
9.92349e-05
9.90322e-05
9.86588e-05
9.83988e-05
9.61152e-05
9.98174e-05
9.9992e-05
9.99748e-05
9.99558e-05
9.99346e-05
9.99107e-05
9.98836e-05
9.98527e-05
9.9817e-05
9.97755e-05
9.97264e-05
9.96674e-05
9.95955e-05
9.95056e-05
9.93908e-05
9.92351e-05
9.9032e-05
9.86621e-05
9.83837e-05
9.62179e-05
9.91628e-05
9.9992e-05
9.99748e-05
9.99558e-05
9.99346e-05
9.99107e-05
9.98836e-05
9.98527e-05
9.98171e-05
9.97755e-05
9.97264e-05
9.96675e-05
9.95956e-05
9.95057e-05
9.93909e-05
9.92354e-05
9.90317e-05
9.86659e-05
9.83668e-05
9.6329e-05
9.85082e-05
9.9992e-05
9.99748e-05
9.99558e-05
9.99346e-05
9.99107e-05
9.98836e-05
9.98527e-05
9.98171e-05
9.97755e-05
9.97264e-05
9.96676e-05
9.95957e-05
9.95058e-05
9.9391e-05
9.92358e-05
9.90315e-05
9.86702e-05
9.83489e-05
9.64448e-05
9.78815e-05
9.9992e-05
9.99748e-05
9.99558e-05
9.99346e-05
9.99107e-05
9.98837e-05
9.98528e-05
9.98171e-05
9.97756e-05
9.97265e-05
9.96676e-05
9.95958e-05
9.9506e-05
9.93912e-05
9.92362e-05
9.90313e-05
9.86748e-05
9.83304e-05
9.65614e-05
9.73029e-05
9.9992e-05
9.99749e-05
9.99558e-05
9.99346e-05
9.99107e-05
9.98837e-05
9.98528e-05
9.98172e-05
9.97756e-05
9.97265e-05
9.96677e-05
9.95959e-05
9.95061e-05
9.93914e-05
9.92367e-05
9.90311e-05
9.86798e-05
9.8312e-05
9.66754e-05
9.67888e-05
9.99921e-05
9.99749e-05
9.99558e-05
9.99346e-05
9.99108e-05
9.98837e-05
9.98528e-05
9.98172e-05
9.97757e-05
9.97266e-05
9.96678e-05
9.9596e-05
9.95063e-05
9.93916e-05
9.92372e-05
9.9031e-05
9.86849e-05
9.82945e-05
9.67837e-05
9.63478e-05
9.99921e-05
9.99749e-05
9.99559e-05
9.99346e-05
9.99108e-05
9.98837e-05
9.98529e-05
9.98173e-05
9.97757e-05
9.97267e-05
9.96679e-05
9.95961e-05
9.95065e-05
9.93919e-05
9.92379e-05
9.9031e-05
9.86903e-05
9.82786e-05
9.6884e-05
9.59853e-05
9.99921e-05
9.99749e-05
9.99559e-05
9.99347e-05
9.99108e-05
9.98838e-05
9.98529e-05
9.98173e-05
9.97758e-05
9.97268e-05
9.9668e-05
9.95963e-05
9.95067e-05
9.93922e-05
9.92386e-05
9.90311e-05
9.86957e-05
9.82647e-05
9.69746e-05
9.57002e-05
9.99921e-05
9.99749e-05
9.99559e-05
9.99347e-05
9.99108e-05
9.98838e-05
9.9853e-05
9.98174e-05
9.97759e-05
9.97269e-05
9.96682e-05
9.95965e-05
9.9507e-05
9.93926e-05
9.92393e-05
9.90315e-05
9.87011e-05
9.82535e-05
9.7055e-05
9.549e-05
9.99921e-05
9.99749e-05
9.99559e-05
9.99347e-05
9.99109e-05
9.98839e-05
9.9853e-05
9.98175e-05
9.9776e-05
9.9727e-05
9.96683e-05
9.95967e-05
9.95073e-05
9.9393e-05
9.92402e-05
9.9032e-05
9.87064e-05
9.82451e-05
9.7125e-05
9.53475e-05
9.99921e-05
9.99749e-05
9.99559e-05
9.99347e-05
9.99109e-05
9.98839e-05
9.98531e-05
9.98175e-05
9.97761e-05
9.97272e-05
9.96685e-05
9.9597e-05
9.95077e-05
9.93935e-05
9.92412e-05
9.90328e-05
9.87117e-05
9.82398e-05
9.71857e-05
9.5266e-05
9.99921e-05
9.99749e-05
9.99559e-05
9.99348e-05
9.99109e-05
9.9884e-05
9.98532e-05
9.98176e-05
9.97762e-05
9.97273e-05
9.96687e-05
9.95973e-05
9.95081e-05
9.93941e-05
9.92422e-05
9.90339e-05
9.87169e-05
9.82376e-05
9.72381e-05
9.52363e-05
9.99921e-05
9.99749e-05
9.9956e-05
9.99348e-05
9.9911e-05
9.9884e-05
9.98532e-05
9.98177e-05
9.97764e-05
9.97275e-05
9.9669e-05
9.95976e-05
9.95086e-05
9.93947e-05
9.92434e-05
9.90353e-05
9.87222e-05
9.82385e-05
9.7284e-05
9.52509e-05
9.99921e-05
9.99749e-05
9.9956e-05
9.99348e-05
9.9911e-05
9.98841e-05
9.98533e-05
9.98179e-05
9.97765e-05
9.97277e-05
9.96693e-05
9.9598e-05
9.95091e-05
9.93955e-05
9.92447e-05
9.9037e-05
9.87274e-05
9.82422e-05
9.73249e-05
9.5301e-05
9.99921e-05
9.9975e-05
9.9956e-05
9.99349e-05
9.99111e-05
9.98842e-05
9.98534e-05
9.9818e-05
9.97767e-05
9.97279e-05
9.96696e-05
9.95984e-05
9.95098e-05
9.93964e-05
9.92462e-05
9.90392e-05
9.87329e-05
9.82486e-05
9.73628e-05
9.53806e-05
9.99921e-05
9.9975e-05
9.9956e-05
9.99349e-05
9.99112e-05
9.98843e-05
9.98535e-05
9.98181e-05
9.97769e-05
9.97282e-05
9.96699e-05
9.95989e-05
9.95104e-05
9.93974e-05
9.92478e-05
9.90416e-05
9.87386e-05
9.82573e-05
9.73989e-05
9.54823e-05
9.99921e-05
9.9975e-05
9.99561e-05
9.9935e-05
9.99112e-05
9.98844e-05
9.98537e-05
9.98183e-05
9.97771e-05
9.97285e-05
9.96703e-05
9.95994e-05
9.95112e-05
9.93985e-05
9.92497e-05
9.90446e-05
9.87447e-05
9.82684e-05
9.74351e-05
9.56018e-05
9.99921e-05
9.9975e-05
9.99561e-05
9.9935e-05
9.99113e-05
9.98845e-05
9.98538e-05
9.98185e-05
9.97774e-05
9.97288e-05
9.96708e-05
9.96e-05
9.95121e-05
9.93998e-05
9.92517e-05
9.90479e-05
9.87513e-05
9.82814e-05
9.74721e-05
9.57338e-05
9.99921e-05
9.9975e-05
9.99562e-05
9.99351e-05
9.99114e-05
9.98846e-05
9.9854e-05
9.98187e-05
9.97776e-05
9.97292e-05
9.96713e-05
9.96007e-05
9.95131e-05
9.94013e-05
9.9254e-05
9.90517e-05
9.87585e-05
9.82964e-05
9.75111e-05
9.58754e-05
9.99921e-05
9.99751e-05
9.99562e-05
9.99352e-05
9.99115e-05
9.98847e-05
9.98542e-05
9.98189e-05
9.9778e-05
9.97296e-05
9.96718e-05
9.96015e-05
9.95142e-05
9.94029e-05
9.92566e-05
9.9056e-05
9.87665e-05
9.83132e-05
9.75525e-05
9.60229e-05
9.99921e-05
9.99751e-05
9.99563e-05
9.99352e-05
9.99116e-05
9.98849e-05
9.98544e-05
9.98192e-05
9.97783e-05
9.97301e-05
9.96725e-05
9.96024e-05
9.95155e-05
9.94048e-05
9.92595e-05
9.90608e-05
9.87753e-05
9.8332e-05
9.7597e-05
9.61747e-05
9.99921e-05
9.99751e-05
9.99563e-05
9.99353e-05
9.99117e-05
9.9885e-05
9.98546e-05
9.98195e-05
9.97787e-05
9.97306e-05
9.96732e-05
9.96034e-05
9.95169e-05
9.94069e-05
9.92627e-05
9.90662e-05
9.8785e-05
9.83524e-05
9.76446e-05
9.63279e-05
9.99921e-05
9.99752e-05
9.99564e-05
9.99354e-05
9.99119e-05
9.98852e-05
9.98548e-05
9.98198e-05
9.97791e-05
9.97312e-05
9.9674e-05
9.96045e-05
9.95184e-05
9.94092e-05
9.92663e-05
9.90722e-05
9.87958e-05
9.83748e-05
9.76956e-05
9.6482e-05
9.99922e-05
9.99752e-05
9.99564e-05
9.99355e-05
9.9912e-05
9.98854e-05
9.98551e-05
9.98202e-05
9.97796e-05
9.97319e-05
9.96749e-05
9.96057e-05
9.95202e-05
9.94118e-05
9.92704e-05
9.90788e-05
9.88076e-05
9.83989e-05
9.77495e-05
9.66348e-05
9.99922e-05
9.99752e-05
9.99565e-05
9.99356e-05
9.99122e-05
9.98857e-05
9.98554e-05
9.98206e-05
9.97802e-05
9.97326e-05
9.96759e-05
9.96071e-05
9.95222e-05
9.94147e-05
9.92748e-05
9.90862e-05
9.88206e-05
9.8425e-05
9.78068e-05
9.67862e-05
9.99922e-05
9.99753e-05
9.99566e-05
9.99358e-05
9.99124e-05
9.98859e-05
9.98558e-05
9.98211e-05
9.97808e-05
9.97334e-05
9.9677e-05
9.96087e-05
9.95244e-05
9.94179e-05
9.92798e-05
9.90943e-05
9.88349e-05
9.84529e-05
9.78666e-05
9.69346e-05
9.99922e-05
9.99753e-05
9.99567e-05
9.99359e-05
9.99126e-05
9.98862e-05
9.98562e-05
9.98216e-05
9.97815e-05
9.97344e-05
9.96782e-05
9.96104e-05
9.95268e-05
9.94215e-05
9.92853e-05
9.91032e-05
9.88504e-05
9.84828e-05
9.79291e-05
9.70803e-05
9.99922e-05
9.99754e-05
9.99568e-05
9.99361e-05
9.99128e-05
9.98865e-05
9.98566e-05
9.98222e-05
9.97823e-05
9.97354e-05
9.96796e-05
9.96123e-05
9.95295e-05
9.94255e-05
9.92913e-05
9.9113e-05
9.88672e-05
9.85145e-05
9.79936e-05
9.7222e-05
9.99922e-05
9.99755e-05
9.99569e-05
9.99363e-05
9.99131e-05
9.98869e-05
9.98571e-05
9.98228e-05
9.97831e-05
9.97365e-05
9.96812e-05
9.96144e-05
9.95325e-05
9.94298e-05
9.9298e-05
9.91236e-05
9.88854e-05
9.85482e-05
9.806e-05
9.73601e-05
9.99923e-05
9.99755e-05
9.99571e-05
9.99365e-05
9.99134e-05
9.98873e-05
9.98576e-05
9.98235e-05
9.97841e-05
9.97378e-05
9.96829e-05
9.96168e-05
9.95358e-05
9.94347e-05
9.93053e-05
9.91352e-05
9.8905e-05
9.85835e-05
9.81276e-05
9.74937e-05
9.99923e-05
9.99756e-05
9.99572e-05
9.99367e-05
9.99137e-05
9.98877e-05
9.98582e-05
9.98243e-05
9.97851e-05
9.97392e-05
9.96848e-05
9.96194e-05
9.95395e-05
9.944e-05
9.93133e-05
9.91479e-05
9.89259e-05
9.86205e-05
9.81965e-05
9.76233e-05
9.99923e-05
9.99757e-05
9.99574e-05
9.99369e-05
9.9914e-05
9.98882e-05
9.98589e-05
9.98252e-05
9.97863e-05
9.97407e-05
9.96869e-05
9.96223e-05
9.95435e-05
9.94458e-05
9.9322e-05
9.91614e-05
9.89482e-05
9.86591e-05
9.82658e-05
9.77481e-05
9.99923e-05
9.99758e-05
9.99575e-05
9.99372e-05
9.99144e-05
9.98888e-05
9.98596e-05
9.98262e-05
9.97875e-05
9.97425e-05
9.96892e-05
9.96255e-05
9.9548e-05
9.94522e-05
9.93315e-05
9.91761e-05
9.89718e-05
9.86991e-05
9.83356e-05
9.78688e-05
9.99924e-05
9.99759e-05
9.99577e-05
9.99375e-05
9.99149e-05
9.98893e-05
9.98604e-05
9.98272e-05
9.9789e-05
9.97444e-05
9.96918e-05
9.9629e-05
9.95529e-05
9.94592e-05
9.93417e-05
9.91917e-05
9.89967e-05
9.87402e-05
9.84052e-05
9.79845e-05
9.99924e-05
9.9976e-05
9.99579e-05
9.99378e-05
9.99153e-05
9.989e-05
9.98613e-05
9.98284e-05
9.97905e-05
9.97465e-05
9.96946e-05
9.96328e-05
9.95582e-05
9.94667e-05
9.93528e-05
9.92085e-05
9.90229e-05
9.87826e-05
9.84747e-05
9.80961e-05
9.99924e-05
9.99761e-05
9.99582e-05
9.99382e-05
9.99159e-05
9.98907e-05
9.98622e-05
9.98297e-05
9.97923e-05
9.97488e-05
9.96977e-05
9.9637e-05
9.9564e-05
9.94749e-05
9.93647e-05
9.92262e-05
9.90502e-05
9.88257e-05
9.85433e-05
9.82028e-05
9.99925e-05
9.99763e-05
9.99584e-05
9.99386e-05
9.99165e-05
9.98915e-05
9.98633e-05
9.98311e-05
9.97942e-05
9.97513e-05
9.97011e-05
9.96416e-05
9.95703e-05
9.94838e-05
9.93774e-05
9.92449e-05
9.90786e-05
9.88696e-05
9.86114e-05
9.83054e-05
9.99925e-05
9.99765e-05
9.99587e-05
9.99391e-05
9.99171e-05
9.98924e-05
9.98645e-05
9.98327e-05
9.97963e-05
9.97541e-05
9.97047e-05
9.96465e-05
9.95771e-05
9.94933e-05
9.93909e-05
9.92646e-05
9.91079e-05
9.89139e-05
9.86782e-05
9.84034e-05
9.99926e-05
9.99766e-05
9.99591e-05
9.99396e-05
9.99178e-05
9.98934e-05
9.98658e-05
9.98345e-05
9.97985e-05
9.97571e-05
9.97088e-05
9.9652e-05
9.95845e-05
9.95034e-05
9.94053e-05
9.92853e-05
9.91381e-05
9.89586e-05
9.8744e-05
9.84974e-05
9.99927e-05
9.99768e-05
9.99594e-05
9.99401e-05
9.99186e-05
9.98944e-05
9.98672e-05
9.98363e-05
9.9801e-05
9.97604e-05
9.97131e-05
9.96578e-05
9.95924e-05
9.95143e-05
9.94204e-05
9.93067e-05
9.9169e-05
9.90033e-05
9.88082e-05
9.8587e-05
9.99927e-05
9.9977e-05
9.99598e-05
9.99407e-05
9.99194e-05
9.98956e-05
9.98688e-05
9.98384e-05
9.98038e-05
9.97639e-05
9.97179e-05
9.96641e-05
9.96008e-05
9.95258e-05
9.94363e-05
9.9329e-05
9.92006e-05
9.90481e-05
9.8871e-05
9.86727e-05
9.99928e-05
9.99773e-05
9.99602e-05
9.99413e-05
9.99203e-05
9.98969e-05
9.98705e-05
9.98407e-05
9.98067e-05
9.97678e-05
9.9723e-05
9.96708e-05
9.96098e-05
9.9538e-05
9.94529e-05
9.9352e-05
9.92325e-05
9.90925e-05
9.8932e-05
9.87543e-05
9.99929e-05
9.99775e-05
9.99607e-05
9.9942e-05
9.99214e-05
9.98983e-05
9.98723e-05
9.98431e-05
9.98099e-05
9.9772e-05
9.97284e-05
9.96781e-05
9.96194e-05
9.95508e-05
9.94703e-05
9.93756e-05
9.92648e-05
9.91365e-05
9.89913e-05
9.88321e-05
9.99929e-05
9.99778e-05
9.99612e-05
9.99428e-05
9.99225e-05
9.98998e-05
9.98743e-05
9.98457e-05
9.98134e-05
9.97765e-05
9.97343e-05
9.96857e-05
9.96295e-05
9.95642e-05
9.94882e-05
9.93997e-05
9.92972e-05
9.918e-05
9.90488e-05
9.89062e-05
9.9993e-05
9.99781e-05
9.99617e-05
9.99436e-05
9.99236e-05
9.99014e-05
9.98765e-05
9.98486e-05
9.98171e-05
9.97813e-05
9.97406e-05
9.96939e-05
9.96402e-05
9.95782e-05
9.95067e-05
9.94242e-05
9.93297e-05
9.92228e-05
9.91044e-05
9.89768e-05
9.99931e-05
9.99784e-05
9.99623e-05
9.99445e-05
9.99249e-05
9.99031e-05
9.98789e-05
9.98516e-05
9.9821e-05
9.97864e-05
9.97472e-05
9.97025e-05
9.96513e-05
9.95927e-05
9.95256e-05
9.9449e-05
9.9362e-05
9.92647e-05
9.91579e-05
9.90437e-05
9.99932e-05
9.99787e-05
9.99629e-05
9.99455e-05
9.99263e-05
9.9905e-05
9.98814e-05
9.98549e-05
9.98253e-05
9.97919e-05
9.97542e-05
9.97115e-05
9.96629e-05
9.96077e-05
9.95449e-05
9.94739e-05
9.93942e-05
9.93058e-05
9.92096e-05
9.91074e-05
9.99934e-05
9.99791e-05
9.99636e-05
9.99466e-05
9.99278e-05
9.99071e-05
9.98841e-05
9.98584e-05
9.98298e-05
9.97977e-05
9.97616e-05
9.97209e-05
9.96749e-05
9.9623e-05
9.95646e-05
9.94989e-05
9.94259e-05
9.93457e-05
9.92592e-05
9.91678e-05
9.99935e-05
9.99795e-05
9.99643e-05
9.99477e-05
9.99294e-05
9.99092e-05
9.98869e-05
9.98621e-05
9.98346e-05
9.98038e-05
9.97693e-05
9.97307e-05
9.96873e-05
9.96387e-05
9.95844e-05
9.95239e-05
9.94573e-05
9.93846e-05
9.93068e-05
9.92251e-05
9.99936e-05
9.998e-05
9.99651e-05
9.99489e-05
9.99311e-05
9.99116e-05
9.989e-05
9.98661e-05
9.98396e-05
9.98101e-05
9.97773e-05
9.97408e-05
9.97e-05
9.96547e-05
9.96043e-05
9.95488e-05
9.9488e-05
9.94223e-05
9.93523e-05
9.92793e-05
9.99938e-05
9.99804e-05
9.9966e-05
9.99502e-05
9.99329e-05
9.9914e-05
9.98932e-05
9.98702e-05
9.98448e-05
9.98168e-05
9.97857e-05
9.97512e-05
9.9713e-05
9.96708e-05
9.96243e-05
9.95733e-05
9.9518e-05
9.94587e-05
9.93959e-05
9.93306e-05
9.99939e-05
9.99809e-05
9.99669e-05
9.99516e-05
9.99349e-05
9.99166e-05
9.98965e-05
9.98745e-05
9.98503e-05
9.98236e-05
9.97942e-05
9.97618e-05
9.97262e-05
9.9687e-05
9.96441e-05
9.95975e-05
9.95473e-05
9.94938e-05
9.94374e-05
9.93791e-05
9.99941e-05
9.99815e-05
9.99678e-05
9.9953e-05
9.99369e-05
9.99193e-05
9.99001e-05
9.9879e-05
9.9856e-05
9.98307e-05
9.9803e-05
9.97727e-05
9.97394e-05
9.97032e-05
9.96638e-05
9.96213e-05
9.95758e-05
9.95275e-05
9.9477e-05
9.94248e-05
9.99942e-05
9.9982e-05
9.99688e-05
9.99545e-05
9.9939e-05
9.99221e-05
9.99037e-05
9.98837e-05
9.98619e-05
9.9838e-05
9.9812e-05
9.97836e-05
9.97528e-05
9.97193e-05
9.96832e-05
9.96445e-05
9.96033e-05
9.95598e-05
9.95145e-05
9.9468e-05
9.99944e-05
9.99826e-05
9.99699e-05
9.99561e-05
9.99412e-05
9.99251e-05
9.99075e-05
9.98885e-05
9.98679e-05
9.98454e-05
9.98211e-05
9.97946e-05
9.97661e-05
9.97353e-05
9.97023e-05
9.96671e-05
9.96298e-05
9.95907e-05
9.95502e-05
9.95086e-05
9.99946e-05
9.99832e-05
9.99709e-05
9.99577e-05
9.99435e-05
9.99281e-05
9.99115e-05
9.98935e-05
9.9874e-05
9.98529e-05
9.98302e-05
9.98057e-05
9.97793e-05
9.97511e-05
9.9721e-05
9.9689e-05
9.96554e-05
9.96202e-05
9.95839e-05
9.95468e-05
9.99948e-05
9.99838e-05
9.99721e-05
9.99594e-05
9.99459e-05
9.99312e-05
9.99155e-05
9.98985e-05
9.98802e-05
9.98605e-05
9.98394e-05
9.98167e-05
9.97924e-05
9.97665e-05
9.97391e-05
9.97102e-05
9.96798e-05
9.96483e-05
9.96158e-05
9.95826e-05
9.9995e-05
9.99845e-05
9.99732e-05
9.99612e-05
9.99483e-05
9.99344e-05
9.99195e-05
9.99036e-05
9.98864e-05
9.98681e-05
9.98485e-05
9.98276e-05
9.98053e-05
9.97816e-05
9.97567e-05
9.97305e-05
9.97032e-05
9.96749e-05
9.96458e-05
9.96162e-05
9.99952e-05
9.99852e-05
9.99744e-05
9.9963e-05
9.99507e-05
9.99376e-05
9.99236e-05
9.99087e-05
9.98927e-05
9.98757e-05
9.98575e-05
9.98383e-05
9.98179e-05
9.97963e-05
9.97737e-05
9.975e-05
9.97255e-05
9.97001e-05
9.96741e-05
9.96477e-05
9.99954e-05
9.99858e-05
9.99756e-05
9.99648e-05
9.99532e-05
9.99409e-05
9.99278e-05
9.99138e-05
9.98989e-05
9.98832e-05
9.98664e-05
9.98487e-05
9.98301e-05
9.98105e-05
9.979e-05
9.97687e-05
9.97466e-05
9.97239e-05
9.97006e-05
9.96771e-05
9.99957e-05
9.99865e-05
9.99769e-05
9.99666e-05
9.99557e-05
9.99442e-05
9.99319e-05
9.99189e-05
9.99051e-05
9.98905e-05
9.98752e-05
9.9859e-05
9.9842e-05
9.98242e-05
9.98056e-05
9.97864e-05
9.97666e-05
9.97462e-05
9.97255e-05
9.97045e-05
9.99959e-05
9.99872e-05
9.99781e-05
9.99685e-05
9.99582e-05
9.99474e-05
9.9936e-05
9.99239e-05
9.99112e-05
9.98978e-05
9.98836e-05
9.98689e-05
9.98534e-05
9.98373e-05
9.98205e-05
9.98032e-05
9.97855e-05
9.97672e-05
9.97487e-05
9.973e-05
9.99961e-05
9.99879e-05
9.99794e-05
9.99703e-05
9.99607e-05
9.99507e-05
9.994e-05
9.99289e-05
9.99171e-05
9.99048e-05
9.98919e-05
9.98784e-05
9.98643e-05
9.98498e-05
9.98347e-05
9.98191e-05
9.98032e-05
9.97869e-05
9.97704e-05
9.97536e-05
9.99963e-05
9.99886e-05
9.99806e-05
9.99721e-05
9.99632e-05
9.99538e-05
9.9944e-05
9.99337e-05
9.99229e-05
9.99116e-05
9.98998e-05
9.98875e-05
9.98748e-05
9.98616e-05
9.98481e-05
9.98341e-05
9.98198e-05
9.98053e-05
9.97905e-05
9.97756e-05
9.99965e-05
9.99893e-05
9.99818e-05
9.99739e-05
9.99656e-05
9.99569e-05
9.99479e-05
9.99384e-05
9.99285e-05
9.99181e-05
9.99074e-05
9.98963e-05
9.98848e-05
9.98729e-05
9.98607e-05
9.98481e-05
9.98354e-05
9.98224e-05
9.98092e-05
9.97959e-05
9.99968e-05
9.999e-05
9.9983e-05
9.99757e-05
9.9968e-05
9.996e-05
9.99516e-05
9.99429e-05
9.99338e-05
9.99244e-05
9.99147e-05
9.99046e-05
9.98942e-05
9.98835e-05
9.98725e-05
9.98613e-05
9.98498e-05
9.98382e-05
9.98265e-05
9.98146e-05
9.9997e-05
9.99907e-05
9.99842e-05
9.99774e-05
9.99703e-05
9.99629e-05
9.99552e-05
9.99472e-05
9.9939e-05
9.99304e-05
9.99216e-05
9.99124e-05
9.99031e-05
9.98934e-05
9.98836e-05
9.98735e-05
9.98633e-05
9.98529e-05
9.98425e-05
9.98319e-05
9.99972e-05
9.99914e-05
9.99853e-05
9.9979e-05
9.99725e-05
9.99657e-05
9.99587e-05
9.99514e-05
9.99439e-05
9.99361e-05
9.99281e-05
9.99198e-05
9.99114e-05
9.99027e-05
9.98939e-05
9.98849e-05
9.98758e-05
9.98665e-05
9.98572e-05
9.98478e-05
9.99974e-05
9.9992e-05
9.99864e-05
9.99806e-05
9.99746e-05
9.99684e-05
9.9962e-05
9.99553e-05
9.99485e-05
9.99414e-05
9.99342e-05
9.99268e-05
9.99192e-05
9.99114e-05
9.99035e-05
9.98955e-05
9.98873e-05
9.98791e-05
9.98707e-05
9.98624e-05
9.99976e-05
9.99926e-05
9.99875e-05
9.99821e-05
9.99766e-05
9.9971e-05
9.99651e-05
9.99591e-05
9.99529e-05
9.99465e-05
9.994e-05
9.99333e-05
9.99264e-05
9.99195e-05
9.99124e-05
9.99052e-05
9.98979e-05
9.98906e-05
9.98832e-05
9.98757e-05
9.99978e-05
9.99932e-05
9.99885e-05
9.99836e-05
9.99786e-05
9.99734e-05
9.99681e-05
9.99626e-05
9.9957e-05
9.99513e-05
9.99454e-05
9.99394e-05
9.99332e-05
9.9927e-05
9.99207e-05
9.99143e-05
9.99078e-05
9.99012e-05
9.98946e-05
9.9888e-05
9.9998e-05
9.99939e-05
9.99896e-05
9.99852e-05
9.99806e-05
9.99759e-05
9.99711e-05
9.99661e-05
9.9961e-05
9.99558e-05
9.99505e-05
9.99451e-05
9.99396e-05
9.99341e-05
9.99284e-05
9.99227e-05
9.99169e-05
9.99111e-05
9.99052e-05
9.98993e-05
9.99983e-05
9.99947e-05
9.99908e-05
9.99868e-05
9.99827e-05
9.99785e-05
9.99741e-05
9.99696e-05
9.99651e-05
9.99604e-05
9.99556e-05
9.99508e-05
9.99459e-05
9.99409e-05
9.99358e-05
9.99307e-05
9.99256e-05
9.99204e-05
9.99152e-05
9.99099e-05
9.99986e-05
9.99956e-05
9.99923e-05
9.99888e-05
9.99852e-05
9.99814e-05
9.99775e-05
9.99735e-05
9.99694e-05
9.99652e-05
9.99609e-05
9.99566e-05
9.99522e-05
9.99478e-05
9.99433e-05
9.99387e-05
9.99341e-05
9.99295e-05
9.99249e-05
9.99202e-05
9.99989e-05
9.99965e-05
9.99938e-05
9.9991e-05
9.99879e-05
9.99847e-05
9.99813e-05
9.99778e-05
9.99742e-05
9.99705e-05
9.99668e-05
9.99629e-05
9.9959e-05
9.9955e-05
9.9951e-05
9.9947e-05
9.99429e-05
9.99388e-05
9.99347e-05
9.99306e-05
9.99991e-05
9.99973e-05
9.99952e-05
9.9993e-05
9.99906e-05
9.99881e-05
9.99853e-05
9.99824e-05
9.99794e-05
9.99763e-05
9.99731e-05
9.99698e-05
9.99664e-05
9.99629e-05
9.99594e-05
9.99559e-05
9.99523e-05
9.99487e-05
9.99451e-05
9.99414e-05
9.99993e-05
9.99979e-05
9.99964e-05
9.99947e-05
9.99929e-05
9.9991e-05
9.99889e-05
9.99867e-05
9.99843e-05
9.99819e-05
9.99793e-05
9.99767e-05
9.99739e-05
9.99711e-05
9.99682e-05
9.99653e-05
9.99623e-05
9.99592e-05
9.99562e-05
9.99531e-05
9.99995e-05
9.99984e-05
9.99973e-05
9.9996e-05
9.99947e-05
9.99932e-05
9.99917e-05
9.99901e-05
9.99883e-05
9.99865e-05
9.99846e-05
9.99827e-05
9.99806e-05
9.99785e-05
9.99763e-05
9.99741e-05
9.99718e-05
9.99695e-05
9.99671e-05
9.99648e-05
9.99996e-05
9.99988e-05
9.99979e-05
9.9997e-05
9.9996e-05
9.99949e-05
9.99938e-05
9.99926e-05
9.99914e-05
9.99901e-05
9.99887e-05
9.99873e-05
9.99858e-05
9.99843e-05
9.99827e-05
9.99811e-05
9.99795e-05
9.99778e-05
9.99761e-05
9.99744e-05
9.99997e-05
9.99991e-05
9.99984e-05
9.99977e-05
9.9997e-05
9.99962e-05
9.99954e-05
9.99945e-05
9.99936e-05
9.99927e-05
9.99917e-05
9.99907e-05
9.99896e-05
9.99885e-05
9.99874e-05
9.99863e-05
9.99851e-05
9.9984e-05
9.99828e-05
9.99816e-05
9.99998e-05
9.99993e-05
9.99988e-05
9.99983e-05
9.99977e-05
9.99972e-05
9.99966e-05
9.99959e-05
9.99953e-05
9.99946e-05
9.99939e-05
9.99932e-05
9.99924e-05
9.99916e-05
9.99908e-05
9.999e-05
9.99892e-05
9.99884e-05
9.99876e-05
9.99867e-05
9.99998e-05
9.99995e-05
9.99991e-05
9.99987e-05
9.99983e-05
9.99979e-05
9.99975e-05
9.9997e-05
9.99965e-05
9.9996e-05
9.99955e-05
9.9995e-05
9.99945e-05
9.99939e-05
9.99934e-05
9.99928e-05
9.99922e-05
9.99916e-05
9.9991e-05
9.99904e-05
9.99999e-05
9.99996e-05
9.99994e-05
9.99991e-05
9.99988e-05
9.99985e-05
9.99982e-05
9.99978e-05
9.99975e-05
9.99971e-05
9.99968e-05
9.99964e-05
9.9996e-05
9.99956e-05
9.99952e-05
9.99948e-05
9.99944e-05
9.9994e-05
9.99936e-05
9.99932e-05
9.99999e-05
9.99997e-05
9.99996e-05
9.99994e-05
9.99992e-05
9.99989e-05
9.99987e-05
9.99985e-05
9.99982e-05
9.9998e-05
9.99977e-05
9.99975e-05
9.99972e-05
9.99969e-05
9.99967e-05
9.99964e-05
9.99961e-05
9.99958e-05
9.99955e-05
9.99952e-05
9.99999e-05
9.99998e-05
9.99997e-05
9.99996e-05
9.99994e-05
9.99993e-05
9.99991e-05
9.9999e-05
9.99988e-05
9.99987e-05
9.99985e-05
9.99983e-05
9.99981e-05
9.9998e-05
9.99978e-05
9.99976e-05
9.99974e-05
9.99972e-05
9.9997e-05
9.99968e-05
0.0001
9.99999e-05
9.99998e-05
9.99998e-05
9.99997e-05
9.99996e-05
9.99995e-05
9.99994e-05
9.99993e-05
9.99992e-05
9.99991e-05
9.9999e-05
9.99989e-05
9.99988e-05
9.99986e-05
9.99985e-05
9.99984e-05
9.99983e-05
9.99982e-05
9.9998e-05
0.0001
0.0001
9.99999e-05
9.99999e-05
9.99999e-05
9.99998e-05
9.99998e-05
9.99997e-05
9.99997e-05
9.99996e-05
9.99996e-05
9.99995e-05
9.99995e-05
9.99994e-05
9.99993e-05
9.99993e-05
9.99992e-05
9.99991e-05
9.99991e-05
9.9999e-05
0.0001
0.0001
0.0001
0.0001
0.0001
0.0001
0.0001
0.0001
0.0001
0.0001
0.0001
0.0001
9.99999e-05
9.99999e-05
9.99999e-05
9.99999e-05
9.99999e-05
9.99998e-05
9.99998e-05
9.99998e-05
0.0001
0.0001
0.0001
0.0001
0.0001
0.0001
0.0001
0.0001
0.0001
0.0001
0.0001
0.0001
0.0001
0.0001
0.0001
0.0001
0.0001
0.0001
0.0001
0.0001
0.0001
0.0001
0.0001
0.0001
0.0001
0.0001
0.0001
0.0001
0.0001
0.000100001
0.000100001
0.000100001
0.000100001
0.000100001
0.000100001
0.000100001
0.000100001
0.000100001
0.000100001
0.000100001
0.0001
0.0001
0.0001
0.0001
0.0001
0.0001
0.000100001
0.000100001
0.000100001
0.000100001
0.000100001
0.000100001
0.000100001
0.000100001
0.000100001
0.000100001
0.000100001
0.000100001
0.000100001
0.000100001
0.0001
0.0001
0.0001
0.0001
0.0001
0.000100001
0.000100001
0.000100001
0.000100001
0.000100001
0.000100001
0.000100001
0.000100001
0.000100001
0.000100001
0.000100001
0.000100002
0.000100002
0.000100002
0.000100002
5.05342e-06
4.16417e-08
2.37921e-06
4.73558e-06
4.99198e-06
4.96035e-06
4.88091e-06
4.80907e-06
4.74748e-06
4.69508e-06
4.65004e-06
4.61043e-06
4.57488e-06
4.54245e-06
4.51262e-06
4.48498e-06
4.4592e-06
4.43507e-06
4.4124e-06
4.39104e-06
4.37085e-06
4.35171e-06
4.33353e-06
4.31622e-06
4.29971e-06
4.28393e-06
4.26882e-06
4.25433e-06
4.24041e-06
4.22702e-06
4.21413e-06
4.2017e-06
4.1897e-06
4.1781e-06
4.16688e-06
4.15602e-06
4.14549e-06
4.13528e-06
4.12537e-06
4.11574e-06
4.10638e-06
4.09727e-06
4.0884e-06
4.07977e-06
4.07135e-06
4.06314e-06
4.05513e-06
4.04732e-06
4.03968e-06
4.03222e-06
4.02492e-06
4.01779e-06
4.01081e-06
4.00397e-06
3.99728e-06
3.99072e-06
3.9843e-06
3.978e-06
3.97183e-06
3.96577e-06
3.95982e-06
3.95398e-06
3.94825e-06
3.94262e-06
3.93709e-06
3.93166e-06
3.92631e-06
3.92106e-06
3.91589e-06
3.9108e-06
3.90579e-06
3.90086e-06
3.896e-06
3.8912e-06
3.8865e-06
3.88175e-06
3.87736e-06
3.87218e-06
3.86904e-06
3.86176e-06
1.28985e-05
1.53479e-06
4.6993e-07
4.09424e-06
5.26391e-06
5.41861e-06
5.43094e-06
5.44952e-06
5.46551e-06
5.47574e-06
5.48178e-06
5.48486e-06
5.48583e-06
5.48512e-06
5.4832e-06
5.4803e-06
5.47658e-06
5.47216e-06
5.46714e-06
5.46166e-06
5.4558e-06
5.44963e-06
5.44322e-06
5.43664e-06
5.42993e-06
5.42311e-06
5.41624e-06
5.40932e-06
5.40239e-06
5.39546e-06
5.38854e-06
5.38165e-06
5.37479e-06
5.36797e-06
5.3612e-06
5.35449e-06
5.34784e-06
5.34125e-06
5.33473e-06
5.32827e-06
5.32189e-06
5.31557e-06
5.30933e-06
5.30316e-06
5.29706e-06
5.29103e-06
5.28508e-06
5.2792e-06
5.27339e-06
5.26765e-06
5.26198e-06
5.25638e-06
5.25085e-06
5.24539e-06
5.23999e-06
5.23466e-06
5.22939e-06
5.22419e-06
5.21905e-06
5.21398e-06
5.20896e-06
5.20401e-06
5.19911e-06
5.19427e-06
5.18948e-06
5.18476e-06
5.18008e-06
5.17546e-06
5.17089e-06
5.16638e-06
5.16191e-06
5.15749e-06
5.15312e-06
5.1488e-06
5.14451e-06
5.14031e-06
5.13602e-06
5.1321e-06
5.12755e-06
5.1224e-06
2.27017e-05
6.13311e-06
4.18909e-06
5.35708e-06
6.54878e-06
7.14047e-06
7.40897e-06
7.58215e-06
7.72486e-06
7.84878e-06
7.95635e-06
8.04948e-06
8.1305e-06
8.20155e-06
8.26446e-06
8.32041e-06
8.37028e-06
8.41479e-06
8.45456e-06
8.49013e-06
8.522e-06
8.55057e-06
8.57621e-06
8.59924e-06
8.61994e-06
8.63854e-06
8.65527e-06
8.67029e-06
8.68379e-06
8.69591e-06
8.70676e-06
8.71646e-06
8.72513e-06
8.73284e-06
8.73968e-06
8.74573e-06
8.75104e-06
8.75569e-06
8.75971e-06
8.76318e-06
8.76612e-06
8.76858e-06
8.7706e-06
8.77221e-06
8.77344e-06
8.77433e-06
8.77489e-06
8.77515e-06
8.77513e-06
8.77485e-06
8.77434e-06
8.7736e-06
8.77266e-06
8.77153e-06
8.77022e-06
8.76874e-06
8.76711e-06
8.76534e-06
8.76344e-06
8.76141e-06
8.75927e-06
8.75702e-06
8.75467e-06
8.75223e-06
8.74971e-06
8.7471e-06
8.74442e-06
8.74167e-06
8.73886e-06
8.73599e-06
8.73306e-06
8.73008e-06
8.72704e-06
8.72398e-06
8.72082e-06
8.71774e-06
8.71433e-06
8.71134e-06
8.70825e-06
8.70203e-06
3.12691e-05
1.18558e-05
7.28253e-06
7.00853e-06
7.72476e-06
8.40291e-06
8.85865e-06
9.17898e-06
9.43693e-06
9.66138e-06
9.86083e-06
1.00385e-05
1.01976e-05
1.0341e-05
1.04713e-05
1.05901e-05
1.06986e-05
1.07979e-05
1.0889e-05
1.09727e-05
1.10498e-05
1.11208e-05
1.11864e-05
1.12471e-05
1.13033e-05
1.13555e-05
1.1404e-05
1.14491e-05
1.14911e-05
1.15303e-05
1.15668e-05
1.1601e-05
1.16329e-05
1.16627e-05
1.16906e-05
1.17168e-05
1.17413e-05
1.17642e-05
1.17857e-05
1.18059e-05
1.18248e-05
1.18426e-05
1.18593e-05
1.18749e-05
1.18896e-05
1.19034e-05
1.19163e-05
1.19284e-05
1.19398e-05
1.19505e-05
1.19605e-05
1.19698e-05
1.19786e-05
1.19868e-05
1.19945e-05
1.20017e-05
1.20084e-05
1.20146e-05
1.20204e-05
1.20258e-05
1.20309e-05
1.20355e-05
1.20398e-05
1.20438e-05
1.20475e-05
1.20509e-05
1.2054e-05
1.20568e-05
1.20593e-05
1.20616e-05
1.20637e-05
1.20656e-05
1.20672e-05
1.20687e-05
1.20698e-05
1.2071e-05
1.20715e-05
1.20728e-05
1.20727e-05
1.20724e-05
3.87811e-05
1.7559e-05
1.12681e-05
9.22793e-06
9.1377e-06
9.56668e-06
1.00303e-05
1.04284e-05
1.07708e-05
1.10762e-05
1.13536e-05
1.16068e-05
1.1839e-05
1.20531e-05
1.22514e-05
1.24352e-05
1.26059e-05
1.27645e-05
1.29121e-05
1.30496e-05
1.31779e-05
1.32979e-05
1.34101e-05
1.35153e-05
1.36141e-05
1.37069e-05
1.37942e-05
1.38765e-05
1.39542e-05
1.40275e-05
1.40967e-05
1.41623e-05
1.42244e-05
1.42832e-05
1.4339e-05
1.43919e-05
1.44422e-05
1.44901e-05
1.45355e-05
1.45788e-05
1.462e-05
1.46593e-05
1.46967e-05
1.47324e-05
1.47664e-05
1.47989e-05
1.483e-05
1.48596e-05
1.4888e-05
1.4915e-05
1.49409e-05
1.49657e-05
1.49894e-05
1.50121e-05
1.50338e-05
1.50545e-05
1.50744e-05
1.50935e-05
1.51117e-05
1.51292e-05
1.5146e-05
1.5162e-05
1.51774e-05
1.51921e-05
1.52062e-05
1.52198e-05
1.52327e-05
1.52451e-05
1.5257e-05
1.52685e-05
1.52794e-05
1.52898e-05
1.52999e-05
1.53095e-05
1.53186e-05
1.53276e-05
1.53355e-05
1.53444e-05
1.53504e-05
1.53613e-05
4.54583e-05
2.32714e-05
1.55564e-05
1.24514e-05
1.10223e-05
1.09116e-05
1.11835e-05
1.15385e-05
1.18962e-05
1.22392e-05
1.2564e-05
1.28703e-05
1.31598e-05
1.34336e-05
1.36924e-05
1.39365e-05
1.41666e-05
1.43833e-05
1.45874e-05
1.47799e-05
1.49613e-05
1.51326e-05
1.52945e-05
1.54475e-05
1.55924e-05
1.57297e-05
1.586e-05
1.59837e-05
1.61013e-05
1.62132e-05
1.63197e-05
1.64212e-05
1.6518e-05
1.66105e-05
1.66987e-05
1.67831e-05
1.68638e-05
1.69411e-05
1.70151e-05
1.7086e-05
1.71541e-05
1.72193e-05
1.7282e-05
1.73421e-05
1.74e-05
1.74555e-05
1.7509e-05
1.75605e-05
1.761e-05
1.76577e-05
1.77036e-05
1.77479e-05
1.77906e-05
1.78318e-05
1.78715e-05
1.79098e-05
1.79468e-05
1.79825e-05
1.8017e-05
1.80503e-05
1.80825e-05
1.81136e-05
1.81437e-05
1.81728e-05
1.82009e-05
1.82281e-05
1.82544e-05
1.82799e-05
1.83045e-05
1.83284e-05
1.83515e-05
1.83738e-05
1.83955e-05