/*--------------------------------*- C++ -*----------------------------------*\
| =========                 |                                                 |
| \\      /  F ield         | OpenFOAM: The Open Source CFD Toolbox           |
|  \\    /   O peration     | Version:  v1912                                 |
|   \\  /    A nd           | Website:  www.openfoam.com                      |
|    \\/     M anipulation  |                                                 |
\*---------------------------------------------------------------------------*/
FoamFile
{
    version     2.0;
    format      ascii;
    class       volScalarField;
    location    "50";
    object      p;
}
// * * * * * * * * * * * * * * * * * * * * * * * * * * * * * * * * * * * * * //

dimensions      [0 2 -2 0 0 0 0];


internalField   nonuniform List<scalar> 
2000
(
-0.0257269
0.0916857
0.146263
0.139371
0.123529
0.117208
0.116654
0.11813
0.118409
0.118109
0.118126
0.117441
0.116542
0.115919
0.115617
0.11545
0.115566
0.116015
0.116338
0.115955
0.114644
0.11262
0.110131
0.106317
0.101648
0.0963136
0.0909299
0.0862238
0.0827722
0.0809204
0.0809662
0.0826176
0.0847033
0.0841822
0.0766274
0.0581759
0.0289013
-0.00470026
-0.0315219
-0.0417149
-0.0330419
-0.00496852
0.0368978
0.0859304
0.13672
0.18559
0.229843
0.267499
0.297273
0.318881
0.332617
0.338527
0.337042
0.329326
0.316852
0.30117
0.283781
0.266036
0.249082
0.233808
0.220877
0.210714
0.202346
0.194876
0.187857
0.181146
0.174464
0.167485
0.160045
0.152141
0.143849
0.135264
0.126412
0.117174
0.10728
0.0962073
0.0823826
0.0655654
0.0429173
0.0204185
0.0274915
0.112675
0.151495
0.138292
0.120521
0.116236
0.119715
0.122254
0.119806
0.116863
0.116336
0.117285
0.117136
0.116177
0.115453
0.114456
0.114056
0.114663
0.115683
0.116277
0.115823
0.114135
0.11145
0.108167
0.103196
0.0968691
0.0899946
0.0836365
0.0789407
0.0769146
0.0780126
0.0822196
0.0875573
0.0862443
0.0671564
0.0227607
-0.0408211
-0.100585
-0.131102
-0.126915
-0.0960204
-0.0500226
0.0041061
0.0605887
0.115328
0.166
0.21069
0.248214
0.277652
0.298522
0.310836
0.315114
0.312178
0.303177
0.28963
0.273211
0.255514
0.237916
0.221472
0.206873
0.19439
0.18389
0.175887
0.170246
0.166602
0.164148
0.161956
0.159233
0.155444
0.150342
0.143929
0.136341
0.127686
0.117938
0.106817
0.0937282
0.0781422
0.0594585
0.0360975
0.0148047
0.0785272
0.112329
0.135022
0.133457
0.124239
0.120035
0.120107
0.119632
0.118109
0.117907
0.119431
0.120279
0.118482
0.114911
0.112268
0.111227
0.110802
0.111307
0.113604
0.117601
0.121165
0.122518
0.120915
0.116519
0.108591
0.0978128
0.0860973
0.0760672
0.0707253
0.0696679
0.0765117
0.08875
0.0982144
0.093252
0.062642
0.00443226
-0.0672104
-0.127507
-0.15242
-0.14426
-0.112116
-0.0655363
-0.0117144
0.0436513
0.0965455
0.144477
0.185806
0.219536
0.24502
0.262015
0.270738
0.271834
0.266288
0.255415
0.240808
0.224162
0.207104
0.19103
0.177001
0.165673
0.157363
0.152169
0.149932
0.150012
0.151542
0.15367
0.155669
0.15693
0.156952
0.155368
0.151947
0.146554
0.139095
0.12946
0.117455
0.102833
0.0851747
0.0645821
0.039648
0.0164692
0.10349
0.113505
0.126054
0.13013
0.127438
0.124438
0.122858
0.121296
0.119953
0.119405
0.119148
0.118745
0.117739
0.11523
0.112008
0.109501
0.107263
0.106114
0.11001
0.119236
0.128893
0.134893
0.135591
0.12927
0.115577
0.0954721
0.0727804
0.0537785
0.0451556
0.0527927
0.0735391
0.0980293
0.115042
0.113672
0.0841878
0.0269233
-0.0420684
-0.098771
-0.125033
-0.119352
-0.0910438
-0.0505643
-0.00424617
0.04359
0.089372
0.130369
0.164763
0.191527
0.210198
0.220744
0.223583
0.219601
0.210038
0.196284
0.179826
0.162347
0.145645
0.131297
0.120404
0.11347
0.110765
0.112004
0.116514
0.123381
0.131567
0.140066
0.147979
0.15454
0.159136
0.161312
0.16075
0.157244
0.150666
0.140938
0.127969
0.111705
0.0919034
0.0689825
0.0416012
0.0168677
0.115812
0.119412
0.12693
0.130897
0.129769
0.127455
0.126122
0.125175
0.124
0.122628
0.12116
0.11971
0.118073
0.115347
0.111654
0.108069
0.104892
0.104469
0.11086
0.123201
0.135882
0.144262
0.146272
0.139052
0.120346
0.0915988
0.0590953
0.033339
0.0240158
0.0355617
0.0630691
0.0963734
0.120473
0.12492
0.104863
0.0624784
0.0100869
-0.0344648
-0.0591821
-0.0608494
-0.0435654
-0.0147732
0.0205083
0.0584236
0.0950365
0.126986
0.152189
0.169685
0.179259
0.1813
0.176769
0.167053
0.153475
0.136949
0.118447
0.0997125
0.0830104
0.0702631
0.0627234
0.0603253
0.0635159
0.0715829
0.0834785
0.0979363
0.113592
0.129114
0.143313
0.155229
0.164164
0.169658
0.171443
0.169383
0.163427
0.153571
0.139803
0.122165
0.100493
0.0753968
0.0453975
0.01873
0.124238
0.126069
0.130019
0.132183
0.131363
0.129755
0.128808
0.128157
0.127221
0.125995
0.124658
0.123152
0.121121
0.118096
0.114312
0.1107
0.108337
0.109273
0.115395
0.12585
0.138226
0.149257
0.15293
0.144267
0.122482
0.0912017
0.0577325
0.0316393
0.0207679
0.0283581
0.0526186
0.0849177
0.112869
0.124856
0.113057
0.0798837
0.0384787
0.00319531
-0.0171418
-0.0194124
-0.00572041
0.0187855
0.0491818
0.0810137
0.110085
0.133295
0.148938
0.156379
0.156042
0.149346
0.138265
0.124679
0.109357
0.091807
0.0720482
0.0521103
0.0349418
0.0227685
0.0166722
0.0175332
0.025029
0.0385886
0.0568083
0.0779278
0.100194
0.121965
0.141784
0.158493
0.171281
0.179663
0.183413
0.182481
0.17691
0.166784
0.152161
0.133148
0.109601
0.0822629
0.0494028
0.0205862
0.131035
0.131855
0.133085
0.133413
0.132615
0.131618
0.130948
0.130393
0.129688
0.128822
0.127828
0.126573
0.124803
0.122303
0.119291
0.116538
0.115153
0.116511
0.121727
0.130577
0.14102
0.149118
0.1501
0.140937
0.120817
0.0923802
0.062108
0.0381242
0.0275834
0.0344674
0.0567227
0.0849525
0.107398
0.114885
0.105005
0.0825823
0.0554377
0.0321544
0.0200931
0.0221392
0.0364312
0.0587739
0.0847607
0.110276
0.131865
0.14696
0.153713
0.151541
0.142118
0.128677
0.114285
0.100691
0.0872453
0.0706678
0.0497727
0.0276824
0.00860634
-0.00471449
-0.011003
-0.00960843
-3.12217e-05
0.0168551
0.0392338
0.0649893
0.0920707
0.118564
0.142771
0.163328
0.179273
0.190042
0.195404
0.195358
0.190026
0.179575
0.164129
0.143845
0.118568
0.0891249
0.0534518
0.022541
0.136901
0.136841
0.135917
0.134695
0.133854
0.133315
0.13281
0.132297
0.131776
0.131185
0.130437
0.12943
0.128044
0.126197
0.124068
0.122237
0.121592
0.123104
0.127503
0.134445
0.14199
0.146959
0.145966
0.1367
0.118703
0.0943523
0.0689498
0.0493849
0.0417927
0.0484912
0.0662102
0.0873684
0.103964
0.110668
0.106356
0.0935743
0.0773167
0.0639921
0.0588565
0.0635885
0.0767766
0.0956029
0.116795
0.137202
0.154049
0.164132
0.164231
0.154023
0.137857
0.121138
0.10728
0.096876
0.0866894
0.0694872
0.0444298
0.0174545
-0.0054958
-0.0212285
-0.0283103
-0.0267269
-0.0156983
0.00348296
0.0286909
0.0576263
0.088077
0.117949
0.145368
0.168812
0.187188
0.199838
0.206494
0.20717
0.202039
0.191329
0.175209
0.153869
0.127107
0.0958058
0.0574828
0.0245823
0.142296
0.1413
0.138325
0.135765
0.134986
0.134867
0.134491
0.13402
0.133651
0.133253
0.132678
0.13187
0.130788
0.129411
0.127907
0.126748
0.126646
0.128297
0.13206
0.137427
0.142812
0.145894
0.144197
0.135946
0.12096
0.101365
0.0814765
0.0666084
0.0608636
0.0654713
0.077884
0.0929476
0.105316
0.111318
0.110016
0.103218
0.0946414
0.0884886
0.0878749
0.0939402
0.106086
0.122612
0.141311
0.16012
0.176145
0.183917
0.178394
0.161301
0.140832
0.123913
0.112607
0.105285
0.0949979
0.0741535
0.0440435
0.0120559
-0.0148296
-0.032946
-0.0410001
-0.0387615
-0.026407
-0.00521868
0.0223566
0.0537747
0.0867131
0.119005
0.148714
0.174242
0.194411
0.208492
0.216172
0.217457
0.212537
0.201675
0.185066
0.162915
0.134953
0.102093
0.0613601
0.0266385
0.147518
0.145324
0.140116
0.136452
0.135961
0.13625
0.135969
0.135567
0.135361
0.135134
0.134705
0.134057
0.133195
0.132134
0.131041
0.130327
0.130582
0.132301
0.135616
0.139981
0.144087
0.146123
0.144239
0.137211
0.125089
0.10961
0.0939999
0.082035
0.0766176
0.0788895
0.0872073
0.0980594
0.107706
0.113505
0.114701
0.112429
0.109049
0.107247
0.109228
0.1161
0.127742
0.143217
0.161449
0.181195
0.198277
0.203988
0.192698
0.169374
0.146024
0.130282
0.120697
0.113625
0.101044
0.0779757
0.0444441
0.00921336
-0.0198234
-0.0390959
-0.0475064
-0.0452614
-0.0322534
-0.00979566
0.01936
0.052459
0.0870743
0.120988
0.152243
0.179206
0.200646
0.215782
0.224259
0.226058
0.221365
0.210458
0.193541
0.170821
0.141951
0.107857
0.0650103
0.028684
0.15275
0.148893
0.141184
0.136772
0.136832
0.13748
0.137247
0.136945
0.136915
0.136848
0.136554
0.136052
0.13537
0.134546
0.133744
0.133329
0.133799
0.135523
0.138516
0.142242
0.14557
0.147006
0.145114
0.13904
0.128946
0.116239
0.103353
0.09311
0.0878176
0.0884773
0.0941033
0.102329
0.110483
0.116534
0.119684
0.120488
0.120482
0.121592
0.12549
0.133095
0.144551
0.159712
0.178538
0.2
0.217954
0.221073
0.204606
0.175828
0.150311
0.134949
0.125187
0.116098
0.102939
0.0795782
0.0458149
0.0101067
-0.0197008
-0.039808
-0.0488401
-0.046948
-0.0339872
-0.0111026
0.0188056
0.0528313
0.0884382
0.123347
0.155582
0.183487
0.205799
0.221698
0.23079
0.233024
0.228572
0.21771
0.200639
0.177566
0.148055
0.113045
0.0683984
0.0307096
0.158111
0.151934
0.141503
0.136819
0.137651
0.138566
0.138349
0.138176
0.138322
0.138395
0.138225
0.137857
0.137336
0.136707
0.13613
0.135931
0.13654
0.138242
0.140994
0.144278
0.147097
0.148186
0.146379
0.141032
0.132346
0.121494
0.110423
0.101348
0.0961054
0.095597
0.0993512
0.105835
0.113127
0.119576
0.124315
0.127485
0.13006
0.133391
0.138713
0.14681
0.158143
0.173207
0.192483
0.214776
0.232326
0.233049
0.21317
0.180872
0.154318
0.137791
0.125253
0.112853
0.100554
0.080178
0.0489585
0.0141424
-0.0159514
-0.0369437
-0.0468948
-0.0455745
-0.0330498
-0.0103118
0.0197386
0.0541207
0.0902164
0.125675
0.158495
0.186997
0.209897
0.226347
0.235917
0.238525
0.234321
0.223572
0.206468
0.183216
0.153289
0.117651
0.0715056
0.0327122
0.163679
0.154342
0.141104
0.136715
0.138441
0.139506
0.1393
0.139286
0.139595
0.139786
0.139725
0.13948
0.139099
0.138632
0.138234
0.138201
0.138909
0.140586
0.143155
0.146129
0.148617
0.149522
0.147861
0.14312
0.135502
0.126006
0.116234
0.107956
0.102661
0.101199
0.103502
0.108702
0.115469
0.122423
0.128584
0.133727
0.138357
0.143395
0.149775
0.158223
0.169386
0.183929
0.202426
0.223851
0.239927
0.239312
0.218236
0.185475
0.159047
0.139948
0.121935
0.106469
0.0956139
0.0803112
0.0536347
0.0207516
-0.00941968
-0.0314553
-0.0426777
-0.0423019
-0.0305615
-0.00838766
0.0213987
0.0557754
0.0920165
0.127728
0.160872
0.189742
0.213037
0.229891
0.239842
0.242778
0.238823
0.228232
0.211184
0.187884
0.157719
0.121696
0.074326
0.0346923
0.169494
0.155999
0.140086
0.136575
0.139198
0.140302
0.140131
0.140293
0.140746
0.141036
0.141073
0.140937
0.140675
0.140343
0.140088
0.140184
0.140963
0.142617
0.145051
0.147809
0.15009
0.150922
0.149451
0.145241
0.138486
0.130041
0.121234
0.113499
0.108062
0.105743
0.106816
0.110991
0.117439
0.124966
0.13244
0.139281
0.14561
0.152022
0.15923
0.167872
0.178504
0.191549
0.207831
0.227171
0.241584
0.240737
0.220354
0.189634
0.164175
0.141632
0.117979
0.0999749
0.0904855
0.0806462
0.0594522
0.0291666
-0.00100855
-0.0242633
-0.0370207
-0.0378903
-0.0272014
-0.00588216
0.0233441
0.0574438
0.0936159
0.129397
0.162695
0.191784
0.215352
0.23251
0.242774
0.246001
0.242292
0.231889
0.214956
0.191702
0.161432
0.125221
0.0768646
0.0366487
0.175564
0.156799
0.138594
0.136491
0.139904
0.140965
0.140869
0.141212
0.141786
0.142159
0.142285
0.142245
0.142085
0.141865
0.141726
0.14192
0.142752
0.144384
0.146718
0.149329
0.151489
0.15232
0.151058
0.147321
0.14128
0.133672
0.125602
0.118241
0.112601
0.109481
0.109454
0.112759
0.119015
0.127158
0.135864
0.144207
0.151973
0.15949
0.167279
0.175789
0.185283
0.195976
0.20943
0.226546
0.239693
0.23908
0.220562
0.19329
0.168689
0.143303
0.11563
0.0959004
0.0874316
0.0816696
0.0657755
0.038516
0.00845186
-0.0162036
-0.0307097
-0.0330678
-0.0235807
-0.00326109
0.0252638
0.0589433
0.0949138
0.130649
0.164003
0.193222
0.216982
0.234378
0.244908
0.248397
0.244927
0.234727
0.217946
0.194802
0.164523
0.128276
0.0791338
0.0385747
0.181869
0.156663
0.136805
0.13651
0.140535
0.141517
0.141536
0.142052
0.142723
0.143169
0.143375
0.14342
0.143349
0.143222
0.143177
0.143449
0.144319
0.145931
0.14819
0.150702
0.152797
0.153672
0.152625
0.14931
0.143867
0.136939
0.129453
0.122361
0.116483
0.112589
0.111534
0.114058
0.120197
0.128966
0.13881
0.148461
0.157397
0.165711
0.173722
0.181662
0.189586
0.197848
0.208941
0.224382
0.23665
0.236086
0.219806
0.19595
0.172301
0.145163
0.115444
0.0948168
0.087056
0.0833161
0.0717432
0.0478713
0.0182485
-0.00787529
-0.0242715
-0.0282819
-0.0200698
-0.000796813
0.0269815
0.0601808
0.0958797
0.131501
0.164859
0.19416
0.218062
0.235654
0.246414
0.250142
0.246901
0.236909
0.2203
0.197306
0.167082
0.130913
0.0811519
0.0404572
0.188356
0.155582
0.134898
0.136643
0.141072
0.141979
0.142149
0.142817
0.143567
0.144077
0.144357
0.144476
0.144481
0.144433
0.144465
0.144798
0.145695
0.14729
0.149491
0.151938
0.154008
0.154954
0.154119
0.151177
0.146243
0.13988
0.132871
0.125969
0.119815
0.115159
0.113132
0.114947
0.121004
0.130346
0.141166
0.151866
0.161644
0.170385
0.178241
0.185347
0.191792
0.19829
0.20796
0.222275
0.233824
0.233035
0.21876
0.197614
0.17485
0.146975
0.116591
0.0957291
0.0879186
0.0851083
0.0764305
0.0562641
0.0277172
0.000286669
-0.0180487
-0.0237831
-0.0168619
0.00138251
0.0284221
0.0611314
0.0965338
0.132007
0.165335
0.194696
0.218716
0.236471
0.247436
0.251383
0.248359
0.238572
0.222146
0.199322
0.169196
0.133183
0.0829405
0.0422782
0.194942
0.153577
0.133033
0.136872
0.141506
0.142375
0.142715
0.14351
0.144323
0.144891
0.145235
0.145419
0.145488
0.145505
0.145599
0.14598
0.146896
0.148473
0.150631
0.153036
0.155106
0.156137
0.155501
0.152881
0.148377
0.142472
0.135822
0.129014
0.122545
0.117177
0.114301
0.115522
0.121509
0.131291
0.14283
0.154247
0.164515
0.173362
0.180867
0.187218
0.192668
0.198257
0.207258
0.220933
0.231742
0.230597
0.21779
0.198495
0.176474
0.148561
0.11815
0.0973459
0.0892257
0.0865238
0.0793568
0.0628279
0.0361943
0.00793086
-0.0122555
-0.0197071
-0.0140493
0.00322619
0.0295669
0.061807
0.0969173
0.132233
0.165513
0.194918
0.219043
0.236942
0.248091
0.252239
0.249418
0.23983
0.223586
0.200943
0.170939
0.135132
0.084524
0.0440182
0.201535
0.150745
0.131323
0.137153
0.141842
0.142721
0.143231
0.144124
0.144984
0.1456
0.145995
0.146231
0.14635
0.146417
0.146557
0.146971
0.147898
0.149459
0.151584
0.153963
0.156047
0.157159
0.156693
0.15433
0.150149
0.144565
0.138133
0.131317
0.124543
0.118615
0.115117
0.11591
0.121825
0.131867
0.143829
0.155637
0.166116
0.174903
0.182086
0.187959
0.192921
0.198201
0.206996
0.220324
0.230429
0.228934
0.217039
0.19888
0.17742
0.1498
0.119671
0.0989212
0.0903553
0.0873269
0.0808785
0.0670856
0.0430368
0.0146941
-0.00704253
-0.0161127
-0.0116594
0.00472935
0.0304302
0.0622383
0.0970766
0.132242
0.165468
0.194905
0.219126
0.237158
0.248472
0.252804
0.250172
0.240773
0.224707
0.202246
0.172377
0.136805
0.0859285
0.0456621
0.208042
0.147218
0.129835
0.137439
0.142084
0.143013
0.14367
0.14463
0.14552
0.146167
0.146597
0.146865
0.147017
0.147117
0.147286
0.14772
0.148652
0.1502
0.152304
0.154669
0.156768
0.157944
0.157599
0.155407
0.151419
0.146013
0.139668
0.132794
0.125797
0.119525
0.115665
0.116204
0.122049
0.132191
0.144333
0.156296
0.166823
0.175521
0.18251
0.188163
0.192962
0.198225
0.207043
0.220174
0.229716
0.227954
0.216532
0.198977
0.177926
0.150726
0.121027
0.100278
0.0911522
0.0876241
0.0815751
0.0692605
0.0477959
0.020164
-0.00258081
-0.013035
-0.00969017
0.00591195
0.0310425
0.0624638
0.097057
0.132087
0.165263
0.194724
0.219032
0.237187
0.248652
0.253152
0.250696
0.241474
0.225578
0.203293
0.173566
0.138243
0.0871822
0.0472039
0.214387
0.143153
0.128611
0.13769
0.142242
0.143233
0.143995
0.144988
0.14589
0.146553
0.147002
0.147288
0.147457
0.147574
0.14776
0.148206
0.149141
0.150684
0.152777
0.155136
0.157247
0.158459
0.158179
0.156073
0.152175
0.146836
0.140504
0.133574
0.126457
0.12003
0.116016
0.116437
0.122224
0.13237
0.144547
0.156533
0.167045
0.17568
0.182586
0.188172
0.192956
0.198309
0.207207
0.220212
0.229383
0.227474
0.216229
0.198945
0.178191
0.151441
0.122187
0.101383
0.0916673
0.0876745
0.0818141
0.0701778
0.0504913
0.0239994
0.000896533
-0.0105511
-0.00812714
0.0067964
0.0314349
0.0625202
0.0968996
0.131812
0.164946
0.19443
0.218817
0.237084
0.24869
0.253343
0.251048
0.24199
0.226254
0.204138
0.174553
0.13948
0.0883122
0.0486474
0.220569
0.138818
0.127677
0.137881
0.142324
0.143363
0.144185
0.145191
0.146097
0.146767
0.147224
0.147518
0.147695
0.147821
0.148016
0.14847
0.14941
0.150954
0.153045
0.155404
0.157518
0.158742
0.158485
0.156404
0.152536
0.147206
0.14086
0.133894
0.126732
0.120264
0.116218
0.116607
0.122358
0.132473
0.144618
0.156581
0.167062
0.175665
0.182549
0.188132
0.192945
0.198389
0.207362
0.220283
0.229245
0.227291
0.216074
0.198894
0.17836
0.15202
0.123126
0.102213
0.0919922
0.0876612
0.0818722
0.0705421
0.0516871
0.0261936
0.00320194
-0.00878085
-0.00700739
0.00738569
0.0316272
0.0624358
0.0966378
0.131453
0.164556
0.194066
0.218526
0.236897
0.248634
0.253426
0.25128
0.242372
0.226785
0.204826
0.175379
0.140546
0.0893422
0.0500051
0.226732
0.134729
0.127042
0.137997
0.14234
0.143411
0.144263
0.145275
0.146182
0.146856
0.147316
0.147614
0.147795
0.147925
0.148125
0.148585
0.149532
0.151081
0.153176
0.155536
0.157649
0.158872
0.158612
0.156522
0.152658
0.147316
0.140953
0.133967
0.126795
0.120334
0.116306
0.116709
0.12245
0.132531
0.144641
0.156567
0.167023
0.175611
0.182493
0.188087
0.192934
0.198443
0.207462
0.220329
0.229186
0.227224
0.216015
0.198889
0.178524
0.152492
0.123819
0.102764
0.0921968
0.0876739
0.0819138
0.0707029
0.0521405
0.0271798
0.00440857
-0.00777536
-0.00637199
0.00766608
0.0316225
0.0622241
0.0962921
0.131037
0.164125
0.193667
0.218199
0.236673
0.248528
0.253451
0.25144
0.24267
0.227218
0.205404
0.176089
0.141482
0.0903029
0.05132
0.232828
0.131523
0.126645
0.138045
0.14232
0.143403
0.144269
0.145288
0.146198
0.146874
0.147336
0.147635
0.147818
0.14795
0.148154
0.148619
0.149573
0.151129
0.15323
0.155592
0.157703
0.158918
0.158647
0.156539
0.152665
0.147305
0.140927
0.133931
0.126759
0.120314
0.116316
0.116747
0.122498
0.132568
0.144652
0.156548
0.166985
0.175563
0.182447
0.188049
0.192915
0.198462
0.207506
0.220349
0.229164
0.227218
0.216023
0.198956
0.178728
0.152877
0.124281
0.103081
0.0923202
0.0877268
0.0819954
0.0708267
0.0523501
0.0275589
0.00488561
-0.00738989
-0.00618381
0.00764208
0.0314152
0.0618807
0.095863
0.130571
0.163668
0.193257
0.217867
0.236443
0.248414
0.253461
0.251577
0.242934
0.227608
0.205929
0.176741
0.142346
0.0912273
0.0526684
0.237555
0.12958
0.126419
0.138072
0.142297
0.143378
0.144253
0.145277
0.146189
0.146867
0.147329
0.147628
0.147811
0.147945
0.14815
0.14862
0.14958
0.151144
0.153251
0.155615
0.157724
0.158931
0.158646
0.156522
0.152629
0.147256
0.14087
0.13387
0.126699
0.120267
0.116291
0.116747
0.122512
0.132587
0.144659
0.15654
0.166961
0.175533
0.182415
0.18802
0.192892
0.198451
0.207505
0.220348
0.229163
0.227247
0.216091
0.199084
0.178951
0.1532
0.124571
0.103252
0.092391
0.0877948
0.0821016
0.0709695
0.0525137
0.0277531
0.00506203
-0.00731125
-0.00625146
0.00741543
0.0310671
0.061448
0.0953907
0.130101
0.163229
0.192878
0.217569
0.23624
0.248313
0.253468
0.251697
0.243167
0.227954
0.206393
0.177315
0.143111
0.0920358
0.0539611
)
;

boundaryField
{
    inlet
    {
        type            zeroGradient;
    }
    outlet
    {
        type            fixedValue;
        value           uniform 0;
    }
    fixedWalls
    {
        type            zeroGradient;
    }
    frontAndBack
    {
        type            empty;
    }
}


// ************************************************************************* //
