/*--------------------------------*- C++ -*----------------------------------*\
| =========                 |                                                 |
| \\      /  F ield         | OpenFOAM: The Open Source CFD Toolbox           |
|  \\    /   O peration     | Version:  v1912                                 |
|   \\  /    A nd           | Website:  www.openfoam.com                      |
|    \\/     M anipulation  |                                                 |
\*---------------------------------------------------------------------------*/
FoamFile
{
    version     2.0;
    format      ascii;
    class       surfaceScalarField;
    location    "50";
    object      phi;
}
// * * * * * * * * * * * * * * * * * * * * * * * * * * * * * * * * * * * * * //

dimensions      [0 3 -1 0 0 0 0];
oriented        oriented;


internalField   nonuniform List<scalar> 
3895
(
0.000814729
0.000381447
0.000499311
0.000315418
0.000251477
0.000247834
6.47266e-05
0.00018675
-6.24736e-05
0.0001272
-0.000127795
6.53218e-05
-0.000137924
1.01284e-05
-0.000112538
-2.53861e-05
-8.56021e-05
-2.69357e-05
-7.90057e-05
-6.59641e-06
-6.0844e-05
-1.81617e-05
-3.78692e-05
-2.29748e-05
-2.69836e-05
-1.08856e-05
-2.67102e-05
-2.73392e-07
-1.30627e-05
-1.36475e-05
1.67694e-05
-2.98322e-05
5.53305e-05
-3.8561e-05
0.000104111
-4.8781e-05
0.000161066
-5.69548e-05
0.000217248
-5.61821e-05
0.000259873
-4.26242e-05
0.000279829
-1.99563e-05
0.000271847
7.98195e-06
0.00024081
3.10373e-05
0.000197163
4.36461e-05
0.000147649
4.95148e-05
0.000101687
4.59613e-05
6.72996e-05
3.43876e-05
4.69738e-05
2.03258e-05
3.69054e-05
1.00684e-05
1.93738e-05
1.75316e-05
-4.69023e-05
6.6276e-05
-0.000197399
0.000150497
-0.000440902
0.000243503
-0.000764532
0.00032363
-0.00112696
0.000362429
-0.00147209
0.000345126
-0.00174411
0.000272026
-0.00190261
0.000158496
-0.00192803
2.54241e-05
-0.00186614
-6.18967e-05
-0.00173758
-0.000128552
-0.0015598
-0.00017778
-0.0013496
-0.000210206
-0.0011192
-0.000230396
-0.000876284
-0.000242918
-0.000627291
-0.000248993
-0.000377714
-0.000249577
-0.000132428
-0.000245286
0.000104685
-0.000237114
0.000330522
-0.000225837
0.000541108
-0.000210585
0.000732702
-0.000191594
0.000902703
-0.000170002
0.00104973
-0.00014703
0.00117348
-0.000123749
0.00127432
-0.000100839
0.00135293
-7.86103e-05
0.00141001
-5.70796e-05
0.00144627
-3.62557e-05
0.00146234
-1.60722e-05
0.00145879
3.54851e-06
0.00143428
2.45158e-05
0.00139163
4.265e-05
0.0013342
5.74291e-05
0.0012659
6.82956e-05
0.00119098
7.4921e-05
0.00111389
7.70939e-05
0.00103902
7.48693e-05
0.000970345
6.86711e-05
0.00091108
5.92656e-05
0.000863417
4.76627e-05
0.000828463
3.49538e-05
0.00080633
2.21336e-05
0.000796224
1.01054e-05
0.000796409
-1.84697e-07
0.000803773
-7.36408e-06
0.000817692
-1.39188e-05
0.000836639
-1.8947e-05
-2.94355e-05
0.00108794
0.000349313
0.00104736
0.000356005
0.000933196
0.000361995
0.000775595
0.00034435
0.000598287
0.000304508
0.000410391
0.000253218
0.00022128
0.00019924
5.32121e-05
0.000142681
-6.26794e-05
8.89558e-05
-0.00011212
4.28446e-05
-0.00013422
3.93793e-06
-0.000132168
-2.50272e-05
-0.000127289
-1.57644e-05
-0.00013783
1.02681e-05
-0.000148717
-2.76046e-06
-0.000158355
-2.01947e-05
-0.000155988
-4.0928e-05
-0.000140752
-6.40168e-05
-0.000109091
-8.86162e-05
-6.43758e-05
-0.000100897
-2.12957e-05
-8.57043e-05
4.27598e-06
-4.55279e-05
8.91952e-06
3.3384e-06
-1.20636e-05
5.20205e-05
-5.46922e-05
8.62747e-05
-0.000102447
9.72693e-05
-0.00013956
8.30749e-05
-0.00015992
5.47474e-05
-0.000170185
3.05903e-05
-0.000190254
3.01383e-05
-0.000240434
6.77113e-05
-0.000322638
0.00014848
-0.000445893
0.000273751
-0.000609642
0.000407253
-0.000786435
0.000500422
-0.000938816
0.00051481
-0.00103048
0.000436792
-0.00103842
0.000279968
-0.000959332
7.9404e-05
-0.000851166
-8.27423e-05
-0.000712368
-0.000200694
-0.000549979
-0.000290941
-0.000372622
-0.000355137
-0.000185532
-0.000397296
7.28684e-06
-0.000423215
0.00020183
-0.000437462
0.000395828
-0.000442991
0.000586557
-0.000440307
0.000771504
-0.000430233
0.000947591
-0.0004132
0.00111092
-0.000389168
0.00125844
-0.000358102
0.00138789
-0.000321049
0.00149796
-0.000280065
0.00158827
-0.00023734
0.00165902
-0.000194502
0.00171069
-0.000152511
0.001744
-0.00011192
0.00176014
-7.32151e-05
0.00176077
-3.68928e-05
0.00174823
-3.5283e-06
0.00172598
2.58032e-05
0.00169907
5.14252e-05
0.0016684
7.33122e-05
0.0016344
9.14339e-05
0.0015971
0.000105594
0.00155653
0.000115488
0.00151287
0.00012076
0.0014666
0.000121138
0.00141864
0.000116631
0.00137023
0.00010768
0.00132271
9.51747e-05
0.00127734
8.0326e-05
0.001235
6.44731e-05
0.00119622
4.88887e-05
0.00116148
3.45533e-05
0.00113184
2.228e-05
0.00110628
1.16385e-05
0.0010832
4.12749e-06
-6.07702e-06
0.000975286
0.000305941
0.00102604
0.000305246
0.00106096
0.00032708
0.00105858
0.000346734
0.00101209
0.000350992
0.000924877
0.000340433
0.000805362
0.000318755
0.000660853
0.000287191
0.000502253
0.000247556
0.00034166
0.000203437
0.000186874
0.000158724
4.70667e-05
0.00011478
-4.92737e-05
8.0576e-05
-9.69021e-05
5.78965e-05
-0.000133645
3.39823e-05
-0.000167082
1.32428e-05
-0.000199387
-8.6236e-06
-0.000227283
-3.61202e-05
-0.000239913
-7.59869e-05
-0.00022987
-0.00011094
-0.000211843
-0.000103731
-0.000206114
-5.12562e-05
-0.000217909
1.51332e-05
-0.000255978
9.00891e-05
-0.000318456
0.000148753
-0.000391021
0.000169834
-0.000453075
0.000145129
-0.000482467
8.41397e-05
-0.000470282
1.84051e-05
-0.000429643
-1.0501e-05
-0.00037183
9.89907e-06
-0.000316171
9.28207e-05
-0.00026727
0.00022485
-0.000218893
0.000358876
-0.000166246
0.000447775
-0.000103441
0.000452005
-2.63013e-05
0.000359652
6.55012e-05
0.000188165
0.000148475
-3.57005e-06
0.000234021
-0.000168288
0.000332081
-0.000298754
0.000439061
-0.000397921
0.000552955
-0.000469031
0.000673724
-0.000518065
0.000801053
-0.000550543
0.000932896
-0.000569305
0.00106591
-0.000576004
0.00119763
-0.000572025
0.00132541
-0.000558018
0.0014458
-0.000533588
0.00155479
-0.000498155
0.00164907
-0.000452382
0.00172691
-0.000398888
0.00178813
-0.000341294
0.00183334
-0.000282544
0.00186308
-0.00022424
0.00187776
-0.000167191
0.00187792
-0.000112081
0.00186447
-5.9769e-05
0.00183881
-1.12272e-05
0.00180251
3.27693e-05
0.00175725
7.10643e-05
0.00170563
0.000103041
0.00165066
0.000128283
0.00159535
0.000146746
0.00154214
0.0001588
0.00149255
0.000165078
0.00144704
0.000166276
0.00140517
0.000163003
0.00136604
0.000155763
0.00132866
0.000145055
0.00129234
0.000131503
0.00125673
0.00011593
0.00122187
9.93338e-05
0.00118799
8.27658e-05
0.0011554
6.71463e-05
0.00112434
5.33421e-05
0.00109459
4.13908e-05
0.0010659
3.28148e-05
2.22932e-05
0.000857111
0.000271388
0.000897363
0.000264994
0.000950179
0.000274264
0.00100472
0.000292195
0.00104635
0.000309362
0.00106516
0.000321626
0.0010562
0.000327709
0.00101696
0.000326435
0.000947614
0.000316901
0.000851888
0.000299162
0.000735928
0.000274685
0.000604912
0.000245796
0.000470401
0.000215087
0.000344986
0.000183311
0.000227794
0.000151174
0.000119463
0.000121574
2.613e-05
8.47098e-05
-4.3482e-05
3.34917e-05
-9.15576e-05
-2.79113e-05
-0.000122469
-8.00288e-05
-0.00013194
-9.42599e-05
-0.000132533
-5.06638e-05
-0.000145839
2.84401e-05
-0.000175983
0.000120233
-0.000225478
0.000198247
-0.000292366
0.000236722
-0.0003684
0.000221162
-0.000439298
0.000155038
-0.000475031
5.41386e-05
-0.000454489
-3.10433e-05
-0.000356134
-8.84559e-05
-0.000188526
-7.47872e-05
1.1132e-05
2.51922e-05
0.00021595
0.000154058
0.000411524
0.0002522
0.000588741
0.000274788
0.000737486
0.000210907
0.000842993
8.2658e-05
0.00091228
-7.28571e-05
0.000964788
-0.000220796
0.00100964
-0.000343606
0.00105437
-0.000442648
0.0011053
-0.000519966
0.00116595
-0.000578716
0.00123546
-0.000620048
0.00131098
-0.00064483
0.00139074
-0.000655759
0.00147344
-0.000654723
0.00155588
-0.000640459
0.00163255
-0.000610263
0.00169769
-0.000563287
0.00174787
-0.000502565
0.00178303
-0.000434047
0.00180497
-0.00036324
0.00181535
-0.000292922
0.00181496
-0.000223853
0.00180429
-0.000156518
0.00178399
-9.17837e-05
0.0017551
-3.08773e-05
0.00171822
2.56594e-05
0.00167447
7.6514e-05
0.00162505
0.00012049
0.00157137
0.000156714
0.00151508
0.000184574
0.00145795
0.000203875
0.00140189
0.000214861
0.00134872
0.000218248
0.00129985
0.000215148
0.00125599
0.000206865
0.00121708
0.00019467
0.00118248
0.00017966
0.00115122
0.000162757
0.00112237
0.000144783
0.00109517
0.000126536
0.00106911
0.000108818
0.0010439
9.236e-05
0.00101928
7.79581e-05
0.000994961
6.57142e-05
0.000970281
5.74949e-05
4.86544e-05
0.000759398
0.000238024
0.000790538
0.000233853
0.00082836
0.000236442
0.000875001
0.000245554
0.000927011
0.000257351
0.00097883
0.000269808
0.00102423
0.00028231
0.00105707
0.000293588
0.00107227
0.00030171
0.0010663
0.000305124
0.00103786
0.000303125
0.000987782
0.000295878
0.000919157
0.000283712
0.000836725
0.000265744
0.000746213
0.000241685
0.000655032
0.000212755
0.000569944
0.000169798
0.000482044
0.000121392
0.000378922
7.52098e-05
0.000264067
3.48266e-05
0.00016541
4.39696e-06
0.000116406
-1.65941e-06
0.00011178
3.30655e-05
0.000124667
0.000107347
0.000137276
0.000185638
0.000145496
0.000228502
0.000147206
0.000219453
0.000135158
0.000167086
0.000104323
8.49739e-05
7.74172e-05
-4.13792e-06
6.45226e-05
-7.55613e-05
9.97706e-05
-0.000110035
0.000223308
-9.83456e-05
0.000419219
-4.18526e-05
0.000648147
2.32725e-05
0.000861708
6.12275e-05
0.00103208
4.05345e-05
0.00115017
-3.54334e-05
0.00122048
-0.000143165
0.00125897
-0.00025929
0.00128331
-0.000367942
0.00130444
-0.000463776
0.0013292
-0.000544729
0.00135826
-0.000607778
0.00138953
-0.000651321
0.00142433
-0.000679632
0.00146619
-0.000697611
0.00151418
-0.000702715
0.00156115
-0.000687428
0.00159803
-0.000647142
0.00161901
-0.000584264
0.00162387
-0.000507429
0.00161645
-0.000426629
0.0016011
-0.000347892
0.00158061
-0.000272432
0.00155656
-0.0001998
0.00153003
-0.000129991
0.00150161
-6.33627e-05
0.00147183
-1.09477e-06
0.00143892
5.85716e-05
0.00140338
0.000112051
0.00136522
0.00015865
0.00132491
0.000197026
0.00128306
0.00022642
0.00124043
0.000246512
0.00119789
0.000257396
0.00115649
0.000259647
0.0011173
0.000254345
0.00108119
0.000242966
0.00104871
0.000227155
0.00101989
0.000208479
0.000994375
0.000188271
0.000971559
0.000167599
0.000950772
0.000147323
0.000931401
0.000128189
0.000912935
0.000110827
0.000894923
9.59697e-05
0.000876871
8.37666e-05
0.000858254
7.61112e-05
6.90835e-05
0.000672434
0.000206427
0.000702276
0.000204011
0.000733375
0.000205343
0.000767847
0.000211082
0.000806625
0.000218572
0.000850043
0.00022639
0.000897284
0.000235069
0.000945957
0.000244915
0.000992495
0.000255173
0.00103286
0.00026476
0.00106329
0.000272697
0.00108108
0.000278082
0.00108487
0.000279924
0.00107412
0.000276493
0.00104983
0.000265976
0.00101485
0.000247738
0.000972258
0.00021239
0.000921285
0.000172365
0.000860213
0.000136282
0.000785072
0.000109967
0.000691966
9.75033e-05
0.000591437
9.88701e-05
0.000511982
0.00011252
0.000479264
0.000140065
0.000491228
0.000173673
0.000526754
0.000192976
0.000566273
0.000179934
0.000602593
0.000130766
0.00063472
5.28472e-05
0.000664489
-3.39074e-05
0.000692228
-0.0001033
0.00071696
-0.000134768
0.00074271
-0.000124096
0.000789929
-8.9071e-05
0.000870344
-5.71425e-05
0.000978845
-4.72737e-05
0.00109117
-7.1788e-05
0.0011868
-0.000131066
0.00125807
-0.000214434
0.00130674
-0.000307961
0.00133877
-0.000399968
0.00135884
-0.00048385
0.00136849
-0.000554376
0.00136807
-0.000607365
0.00136415
-0.000647401
0.00136849
-0.000683966
0.00138505
-0.000714177
0.00140432
-0.000721976
0.00141225
-0.000695365
0.00140058
-0.000635472
0.00136952
-0.000553199
0.001325
-0.000462915
0.00127468
-0.000376306
0.00122553
-0.000298737
0.00118256
-0.000229466
0.00114832
-0.000165561
0.0011228
-0.000104468
0.00110387
-4.44387e-05
0.00108794
1.48402e-05
0.00107372
7.27915e-05
0.00105897
0.000126803
0.00104289
0.000174724
0.00102509
0.00021483
0.00100555
0.000245954
0.000984555
0.000267511
0.0009625
0.000279451
0.000939914
0.000282234
0.000917426
0.000276833
0.00089571
0.000264682
0.000875351
0.000247515
0.000856719
0.000227111
0.000839915
0.000205075
0.000824797
0.000182717
0.000811062
0.000161058
0.000798342
0.000140909
0.000786251
0.000122917
0.000774403
0.000107818
0.000762314
9.58554e-05
0.000749574
8.88511e-05
8.38998e-05
0.000594386
0.000177677
0.000623172
0.000175225
0.000652328
0.000176188
0.000682122
0.000181288
0.000712935
0.00018776
0.000745627
0.000193697
0.000781206
0.00019949
0.00082025
0.000205871
0.000862561
0.000212862
0.000907088
0.000220233
0.000952041
0.000227744
0.000995217
0.000234906
0.00103436
0.000240776
0.00106718
0.000243679
0.00109163
0.000241528
0.00110651
0.00023285
0.00111056
0.000208341
0.00110329
0.000179633
0.00108449
0.000155083
0.00105401
0.000140454
0.00101221
0.000139297
0.000960816
0.000150266
0.000906294
0.000167042
0.000863931
0.000182427
0.000848204
0.000189401
0.000861161
0.000180019
0.000894019
0.000147077
0.000936464
8.83207e-05
0.000979733
9.57824e-06
0.00101602
-7.01995e-05
0.00104201
-0.000129286
0.00106259
-0.000155351
0.00108872
-0.000150217
0.00112717
-0.000127526
0.00117526
-0.000105236
0.00122755
-9.95613e-05
0.00127703
-0.000121268
0.00131702
-0.00017105
0.00134318
-0.000240595
0.00135388
-0.000318664
0.00134975
-0.000395842
0.00133133
-0.000465428
0.00129902
-0.000522061
0.00126032
-0.000568669
0.00123196
-0.000619042
0.00122248
-0.000674486
0.00121908
-0.000710775
0.00120061
-0.000703505
0.00115608
-0.00065084
0.001088
-0.000567387
0.00100516
-0.000470364
0.000916356
-0.000374108
0.000833805
-0.000293756
0.000771263
-0.000236194
0.000734977
-0.000193181
0.000721253
-0.000151837
0.000721158
-0.000104373
0.000726542
-4.98228e-05
0.000733142
8.24057e-06
0.000738818
6.71152e-05
0.000742579
0.000123042
0.000744267
0.000173036
0.000744154
0.000214943
0.000742523
0.000247585
0.00073955
0.000270484
0.00073533
0.00028367
0.000729959
0.000287604
0.00072362
0.000283172
0.000716603
0.000271699
0.000709266
0.000254852
0.000701948
0.000234429
0.000694891
0.000212131
0.000688204
0.000189405
0.000681868
0.000167394
0.000675777
0.000147001
0.000669762
0.000128932
0.000663611
0.00011397
0.000656964
0.000102502
0.000649545
9.62702e-05
9.3563e-05
0.000525112
0.000151827
0.000551939
0.000148398
0.000579153
0.000148974
0.000606479
0.000153962
0.000634024
0.000160215
0.000661979
0.000165743
0.000690669
0.0001708
0.000720687
0.000175852
0.000752725
0.000180825
0.000787312
0.000185646
0.000824633
0.000190423
0.000864413
0.000195125
0.000905861
0.000199328
0.000947544
0.000201996
0.000987442
0.00020163
0.00102337
0.000196922
0.0010519
0.000179808
0.00107163
0.000159911
0.00108267
0.000144039
0.00108651
0.000136617
0.00108553
0.000140269
0.00108186
0.000153937
0.00107711
0.000171794
0.0010747
0.000184839
0.00108005
0.00018405
0.0010971
0.000162972
0.00112507
0.000119103
0.00115782
5.55706e-05
0.00118656
-1.9159e-05
0.00120384
-8.74756e-05
0.00120916
-0.00013461
0.00120775
-0.000153944
0.00120697
-0.000149429
0.00121233
-0.000132892
0.00122586
-0.000118765
0.00124533
-0.000119033
0.0012642
-0.000140135
0.001275
-0.000181851
0.00127273
-0.00023833
0.00125565
-0.000301583
0.00122441
-0.000364598
0.00118033
-0.000421349
0.00112908
-0.00047081
0.00108625
-0.000525835
0.00106319
-0.000595985
0.00104613
-0.00065743
0.00100886
-0.000673504
0.000939225
-0.00063387
0.000842874
-0.000554488
0.000731241
-0.000455754
0.000612432
-0.000351555
0.000497446
-0.000259122
0.000417414
-0.000213723
0.000390721
-0.000209501
0.000403967
-0.000206427
0.000432218
-0.000180087
0.000458794
-0.000130949
0.000478104
-6.91323e-05
0.000491477
-5.13217e-06
0.00049976
5.88323e-05
0.00050589
0.000116912
0.000511575
0.000167352
0.000517844
0.000208674
0.000524883
0.000240546
0.000532362
0.000263004
0.000539749
0.000276283
0.000546532
0.000280822
0.000552343
0.000277361
0.000557007
0.000267035
0.000560527
0.000251332
0.000563027
0.000231929
0.000564681
0.000210477
0.000565649
0.000188437
0.000566046
0.000166997
0.000565934
0.000147112
0.000565324
0.000129542
0.000564178
0.000115116
0.000562287
0.000104392
0.000559533
9.90243e-05
9.86492e-05
0.00046394
0.000128562
0.000488642
0.000123695
0.000513488
0.000124128
0.000538174
0.000129275
0.000563147
0.000135242
0.000588484
0.000140406
0.000614031
0.000145253
0.000639868
0.000150015
0.000666281
0.000154412
0.000693637
0.00015829
0.000722362
0.000161697
0.000752861
0.000164627
0.000785345
0.000166844
0.000819575
0.000167765
0.000854693
0.000166512
0.000889298
0.000162317
0.000920331
0.000148775
0.000946462
0.00013378
0.000967956
0.000122545
0.000986395
0.000118179
0.00100428
0.000122386
0.0010241
0.000134117
0.00104719
0.000148701
0.00107355
0.000158479
0.0011025
0.000155102
0.00113288
0.000132589
0.00116217
8.98103e-05
0.00118576
3.19843e-05
0.00119753
-3.09292e-05
0.00119534
-8.52879e-05
0.00118165
-0.000120914
0.00116253
-0.000134829
0.00114479
-0.000131692
0.00113303
-0.000121124
0.00112806
-0.000113798
0.00112712
-0.000118091
0.00112535
-0.000138369
0.00111794
-0.000174442
0.00110176
-0.000222147
0.0010759
-0.000275726
0.00104077
-0.000329465
0.000998747
-0.000379326
0.000959262
-0.000431325
0.000932882
-0.000499456
0.000908861
-0.000571963
0.000859406
-0.000607976
0.000774335
-0.000588432
0.000665818
-0.000525353
0.000545657
-0.000434327
0.000415597
-0.000325694
0.000278009
-0.000213967
0.00017366
-0.000154774
0.000149766
-0.000189829
0.000182164
-0.000241899
0.000226398
-0.000250662
0.00026059
-0.00021428
0.000282936
-0.000153294
0.000297513
-8.37093e-05
0.000307809
-1.54282e-05
0.000315974
5.06673e-05
0.000323377
0.000109508
0.000331523
0.000159206
0.000341412
0.000198785
0.000353329
0.00022863
0.000366897
0.000249436
0.000381366
0.000261814
0.000395921
0.000266268
0.000409855
0.000263427
0.000422659
0.000254231
0.000434042
0.000239949
0.000443909
0.000222062
0.000452299
0.000202087
0.000459329
0.000181407
0.000465142
0.000161184
0.000469883
0.000142371
0.000473675
0.00012575
0.000476611
0.00011218
0.000478627
0.000102377
0.000479746
9.79044e-05
9.98526e-05
0.000410014
0.000107512
0.000432757
0.000100952
0.000455191
0.000101694
0.000477169
0.000107298
0.000499484
0.000112927
0.00052225
0.00011764
0.000545279
0.000122224
0.000568566
0.000126728
0.000592154
0.000130824
0.00061606
0.000134384
0.000640368
0.00013739
0.000665257
0.000139737
0.000690924
0.000141178
0.000717418
0.000141272
0.000744477
0.000139453
0.000771466
0.000135329
0.000796393
0.000123847
0.000818508
0.000111665
0.00083822
0.000102833
0.000856936
9.94621e-05
0.000876837
0.000102485
0.000900194
0.00011076
0.000928306
0.000120588
0.000960679
0.000126107
0.000994968
0.000120813
0.00102759
9.99709e-05
0.00105429
6.31061e-05
0.00107101
1.52616e-05
0.00107494
-3.48581e-05
0.00106663
-7.69766e-05
0.00104955
-0.000103836
0.00102883
-0.000114102
0.00100925
-0.00011212
0.000993774
-0.000105644
0.000982861
-0.000102885
0.000974891
-0.00011012
0.000966968
-0.000130447
0.000956014
-0.000163487
0.000939975
-0.000206108
0.000917994
-0.000253744
0.000890214
-0.000301685
0.000860353
-0.000349465
0.00083504
-0.000406012
0.000808288
-0.000472704
0.000754275
-0.00051795
0.000659588
-0.000513289
0.000545988
-0.000474833
0.000434832
-0.000414197
0.000318873
-0.000318368
0.000181604
-0.000188425
4.98887e-05
-8.22512e-05
2.19264e-06
-0.000107078
2.21724e-05
-0.000209809
5.88171e-05
-0.000278544
9.15633e-05
-0.000283408
0.000115048
-0.000237764
0.000131484
-0.000169731
0.000143982
-9.6207e-05
0.000155316
-2.67624e-05
0.000167084
3.88996e-05
0.000178549
9.80432e-05
0.000190691
0.000147063
0.00020452
0.000184956
0.000220458
0.000212692
0.00023827
0.000231624
0.00025729
0.000242793
0.000276713
0.000246844
0.000295759
0.000244381
0.000313784
0.000236206
0.000330344
0.000223389
0.000345197
0.00020721
0.00035827
0.000189014
0.000369616
0.000170061
0.000379364
0.000151436
0.000387683
0.000134052
0.000394759
0.000118674
0.00040077
0.000106168
0.000405774
9.73731e-05
0.000409912
9.3767e-05
9.78979e-05
0.000362528
8.83036e-05
0.000383499
7.99813e-05
0.000403605
8.15881e-05
0.000423081
8.78219e-05
0.000442911
9.30975e-05
0.000463128
9.74223e-05
0.000483606
0.000101746
0.000504431
0.000105904
0.00052564
0.000109614
0.000547169
0.000112855
0.000568953
0.000115605
0.000590966
0.000117725
0.00061318
0.000118963
0.000635508
0.000118944
0.000657718
0.000117243
0.000679401
0.000113645
0.000699175
0.000104074
0.00071667
9.41702e-05
0.000732336
8.7167e-05
0.00074732
8.44787e-05
0.000763335
8.64694e-05
0.000782215
9.18803e-05
0.000805153
9.765e-05
0.000831942
9.93178e-05
0.000860624
9.21314e-05
0.000887797
7.27972e-05
0.00090958
4.13232e-05
0.000922992
1.84989e-06
0.000926726
-3.85918e-05
0.000921528
-7.1779e-05
0.000909854
-9.21618e-05
0.000894944
-9.91921e-05
0.000879842
-9.70182e-05
0.000866618
-9.24206e-05
0.000855948
-9.22147e-05
0.000847134
-0.000101307
0.000838514
-0.000121826
0.000828262
-0.000153236
0.000814993
-0.000192839
0.000797806
-0.000236557
0.000777443
-0.000281322
0.000756597
-0.000328619
0.000731734
-0.000381149
0.000682973
-0.000423944
0.000590033
-0.000425009
0.000468476
-0.000391732
0.000358894
-0.000365251
0.000266583
-0.000321887
0.000159583
-0.000211367
2.80853e-05
-5.69274e-05
-5.61012e-05
1.93537e-06
-6.92836e-05
-9.38951e-05
-6.26857e-05
-0.000216407
-4.16252e-05
-0.000299604
-1.66311e-05
-0.000308402
4.53784e-06
-0.000258933
1.99124e-05
-0.000185105
3.19099e-05
-0.000108204
4.2614e-05
-3.74664e-05
5.48598e-05
2.66538e-05
6.82934e-05
8.46096e-05
8.34348e-05
0.000131922
0.000100558
0.000167833
0.000119656
0.000193594
0.000140455
0.000210825
0.000162376
0.000220872
0.00018472
0.0002245
0.000206758
0.000222343
0.000227844
0.00021512
0.000247488
0.000203745
0.000265383
0.000189315
0.000281389
0.000173008
0.000295506
0.000155943
0.000307838
0.000139105
0.000318551
0.000123338
0.000327861
0.000109364
0.000335997
9.80328e-05
0.000343118
9.02514e-05
0.000349444
8.74416e-05
9.3483e-05
0.000320758
7.05783e-05
0.00034009
6.06494e-05
0.000357971
6.37075e-05
0.000375223
7.05694e-05
0.00039285
7.54709e-05
0.00041074
7.9532e-05
0.000428838
8.36479e-05
0.000447294
8.74486e-05
0.000466151
9.07561e-05
0.000485363
9.36439e-05
0.000504876
9.60918e-05
0.000524633
9.79678e-05
0.000544539
9.90575e-05
0.000564423
9.90602e-05
0.000584011
9.76551e-05
0.00060292
9.47354e-05
0.000619992
8.70016e-05
0.000634981
7.91819e-05
0.00064828
7.3868e-05
0.000660763
7.19957e-05
0.000673687
7.35449e-05
0.000688398
7.71698e-05
0.000705847
8.02008e-05
0.000726077
7.90873e-05
0.000747892
7.03171e-05
0.000768981
5.17079e-05
0.000786677
2.36268e-05
0.000798882
-1.03543e-05
0.000804452
-4.41625e-05
0.000803506
-7.08329e-05
0.000797226
-8.58817e-05
0.00078744
-8.94063e-05
0.000776162
-8.57397e-05
0.000765075
-8.13334e-05
0.000755068
-8.22079e-05
0.00074607
-9.23086e-05
0.000737295
-0.000113051
0.000727686
-0.000143627
0.000716136
-0.00018129
0.000702218
-0.000222639
0.000686566
-0.00026567
0.000666348
-0.000308401
0.000627875
-0.000342675
0.000550661
-0.00034673
0.000432791
-0.00030714
0.000311254
-0.000270194
0.00022157
-0.000275567
0.000145771
-0.000246088
4.74443e-05
-0.00011304
-4.6837e-05
3.73538e-05
-8.73614e-05
4.24597e-05
-0.000106368
-7.48887e-05
-0.000112572
-0.000210202
-0.000104031
-0.000308145
-8.67037e-05
-0.00032573
-7.00016e-05
-0.000275635
-5.69588e-05
-0.000198148
-4.60973e-05
-0.000119066
-3.63677e-05
-4.71961e-05
-2.51711e-05
1.54572e-05
-1.1288e-05
7.07265e-05
5.28487e-06
0.000115349
2.43138e-05
0.000148804
4.53837e-05
0.000172524
6.79422e-05
0.000188267
9.14335e-05
0.000197381
0.000115258
0.000200675
0.000138763
0.000198838
0.000161347
0.000192536
0.000182534
0.000182557
0.000202001
0.000169848
0.000219579
0.00015543
0.000235235
0.000140287
0.000249048
0.000125292
0.000261174
0.000111212
0.000271836
9.87025e-05
0.000281283
8.85861e-05
0.000289767
8.1767e-05
0.000297542
7.96665e-05
8.72414e-05
0.000284047
5.40042e-05
0.000301807
4.28894e-05
0.000317595
4.79193e-05
0.00033291
5.52552e-05
0.000348588
5.97923e-05
0.000364404
6.37161e-05
0.000380399
6.76536e-05
0.000396735
7.11118e-05
0.000413434
7.40579e-05
0.000430454
7.66231e-05
0.000447771
7.87757e-05
0.000465342
8.03958e-05
0.000483086
8.13137e-05
0.000500847
8.13e-05
0.000518373
8.01287e-05
0.000535326
7.77822e-05
0.000550685
7.16424e-05
0.000564244
6.56233e-05
0.000576325
6.17869e-05
0.0005876
6.07203e-05
0.000599001
6.21445e-05
0.000611492
6.46784e-05
0.000625758
6.59349e-05
0.000641877
6.29678e-05
0.000659124
5.30701e-05
0.000676056
3.47762e-05
0.000690899
8.78392e-06
0.000702079
-2.15345e-05
0.00070851
-5.0593e-05
0.000709893
-7.22158e-05
0.000706615
-8.26044e-05
0.000699654
-8.24444e-05
0.000690412
-7.64984e-05
0.000680362
-7.12837e-05
0.000670538
-7.23839e-05
0.000661275
-8.30454e-05
0.000652295
-0.000104071
0.000642856
-0.000134188
0.000632148
-0.000170582
0.000619814
-0.000210304
0.000603558
-0.000249415
0.000574216
-0.000279058
0.000516427
-0.000284887
0.00041999
-0.000250292
0.000299715
-0.000186865
0.000196828
-0.000167307
0.000127513
-0.000206252
6.23754e-05
-0.000180951
-1.11721e-05
-3.94927e-05
-5.98424e-05
8.60242e-05
-8.43465e-05
6.69639e-05
-0.000106946
-5.22891e-05
-0.000125734
-0.000191414
-0.000133945
-0.000299935
-0.000127994
-0.00033168
-0.000116601
-0.000287029
-0.000106815
-0.000207933
-9.83435e-05
-0.000127538
-8.96391e-05
-5.59005e-05
-7.91647e-05
4.98275e-06
-6.54099e-05
5.69718e-05
-4.84206e-05
9.83596e-05
-2.88399e-05
0.000129223
-7.25162e-06
0.000150936
1.57681e-05
0.000165247
3.97348e-05
0.000173414
6.39436e-05
0.000176466
8.77986e-05
0.000174983
0.000110758
0.000169576
0.000132381
0.000160935
0.000152355
0.000149875
0.000170503
0.000137281
0.000186775
0.000124015
0.000201231
0.000110836
0.000214011
9.84327e-05
0.000225333
8.738e-05
0.000235446
7.84732e-05
0.00024468
7.25329e-05
0.00025329
7.10568e-05
7.97229e-05
0.000251799
3.82919e-05
0.000267994
2.66936e-05
0.000281869
3.40446e-05
0.000295517
4.16073e-05
0.000309461
4.58487e-05
0.000323436
4.97405e-05
0.000337592
5.34975e-05
0.000352075
5.66289e-05
0.000366871
5.92616e-05
0.000381945
6.15493e-05
0.000397278
6.34429e-05
0.000412838
6.48361e-05
0.000428555
6.55963e-05
0.000444304
6.55512e-05
0.000459881
6.45518e-05
0.000475008
6.26546e-05
0.000488801
5.78495e-05
0.000501087
5.33376e-05
0.000512136
5.07379e-05
0.000522487
5.03691e-05
0.000532866
5.17661e-05
0.000543998
5.35462e-05
0.000556373
5.35601e-05
0.000570027
4.93136e-05
0.000584441
3.86559e-05
0.00059861
2.06068e-05
0.000611286
-3.89158e-06
0.000621334
-3.15823e-05
0.000627894
-5.71532e-05
0.000630455
-7.47772e-05
0.000628856
-8.10049e-05
0.000623477
-7.70658e-05
0.000615334
-6.83558e-05
0.00060578
-6.17289e-05
0.000595941
-6.25451e-05
0.00058637
-7.34743e-05
0.000576949
-9.46498e-05
0.000566981
-0.00012422
0.000555558
-0.000159159
0.000540726
-0.000195473
0.00051646
-0.000225149
0.000472689
-0.000235287
0.000400944
-0.000213142
0.000302404
-0.000151752
0.000199316
-8.37772e-05
0.000122816
-9.08075e-05
7.01803e-05
-0.000153616
1.94574e-05
-0.000130228
-2.61029e-05
6.06766e-06
-4.62919e-05
0.000106213
-5.69668e-05
7.76388e-05
-7.73249e-05
-3.1931e-05
-0.000107948
-0.000160791
-0.000136055
-0.000271827
-0.000145728
-0.000322007
-0.000141734
-0.000291023
-0.00013547
-0.000214197
-0.000129632
-0.000133376
-0.000122604
-6.29283e-05
-0.000113131
-4.49048e-06
-9.99754e-05
4.38164e-05
-8.3433e-05
8.18172e-05
-6.41817e-05
0.000109972
-4.29567e-05
0.000129711
-2.03232e-05
0.000142613
3.16359e-06
0.000149928
2.69231e-05
0.000152707
5.03296e-05
0.000151577
7.28756e-05
0.00014703
9.41608e-05
0.00013965
0.000113896
0.00013014
0.000131908
0.000119269
0.000148137
0.000107786
0.000162629
9.63437e-05
0.000175504
8.55578e-05
0.000186972
7.59119e-05
0.000197265
6.81801e-05
0.000206775
6.30229e-05
0.000215738
6.20938e-05
7.13908e-05
0.000223469
2.32057e-05
0.000238068
1.20945e-05
0.000250253
2.18589e-05
0.000262475
2.93857e-05
0.000274865
3.34585e-05
0.000287219
3.73862e-05
0.000299774
4.09429e-05
0.000312636
4.37672e-05
0.000325768
4.61295e-05
0.00033914
4.81766e-05
0.000352738
4.98452e-05
0.000366529
5.10455e-05
0.00038045
5.16748e-05
0.000394396
5.16053e-05
0.000408199
5.07486e-05
0.000421633
4.92205e-05
0.000433933
4.55497e-05
0.000444955
4.23161e-05
0.000454928
4.0765e-05
0.000464295
4.10014e-05
0.000473645
4.24167e-05
0.000483553
4.36381e-05
0.000494393
4.27202e-05
0.000506172
3.75339e-05
0.000518471
2.63568e-05
0.000530547
8.53134e-06
0.000541555
-1.48994e-05
0.000550711
-4.07383e-05
0.000557224
-6.36664e-05
0.000560287
-7.78404e-05
0.00055932
-8.00375e-05
0.000554413
-7.21592e-05
0.000546463
-6.04053e-05
0.000536788
-5.2054e-05
0.000526509
-5.22658e-05
0.000516126
-6.30918e-05
0.000505353
-8.38766e-05
0.000493206
-0.000112074
0.000477887
-0.000143839
0.000455398
-0.000172984
0.000419207
-0.000188958
0.000364417
-0.000180497
0.000291108
-0.000139833
0.000206551
-6.71949e-05
0.000131558
-8.78458e-06
8.04185e-05
-3.96678e-05
4.02308e-05
-0.000113428
1.48393e-06
-9.14808e-05
-2.08296e-05
2.83812e-05
-2.2204e-05
0.000107588
-1.82965e-05
7.37313e-05
-3.0904e-05
-1.93235e-05
-6.82675e-05
-0.000123428
-0.000115794
-0.0002243
-0.000144671
-0.000293131
-0.000151106
-0.000284588
-0.000148874
-0.000216428
-0.000145418
-0.000136833
-0.000140183
-6.81626e-05
-0.000132025
-1.2649e-05
-0.000119953
3.17444e-05
-0.000104423
6.6287e-05
-8.61245e-05
9.1674e-05
-6.58221e-05
0.000109408
-4.41733e-05
0.000120965
-2.17508e-05
0.000127505
9.48713e-07
0.000130007
2.33586e-05
0.000129167
4.49585e-05
0.00012543
6.53886e-05
0.000119219
8.43846e-05
0.000111144
0.000101782
0.000101872
0.000117518
9.20505e-05
0.000131623
8.2238e-05
0.000144202
7.29791e-05
0.000155449
6.46646e-05
0.000165576
5.80535e-05
0.000175012
5.35864e-05
0.000183976
5.31299e-05
6.26289e-05
0.000198561
8.5743e-06
0.000211524
-8.68876e-07
0.000222275
1.1108e-05
0.000233264
1.83967e-05
0.00024426
2.24627e-05
0.000255196
2.64501e-05
0.000266354
2.97847e-05
0.000277791
3.23303e-05
0.000289459
3.44615e-05
0.000301337
3.62993e-05
0.000313409
3.77726e-05
0.000325645
3.88092e-05
0.000337989
3.93315e-05
0.000350347
3.92475e-05
0.000362577
3.85183e-05
0.00037449
3.73073e-05
0.00038542
3.46197e-05
0.000395244
3.24919e-05