/*--------------------------------*- C++ -*----------------------------------*\
| =========                 |                                                 |
| \\      /  F ield         | OpenFOAM: The Open Source CFD Toolbox           |
|  \\    /   O peration     | Version:  v1912                                 |
|   \\  /    A nd           | Website:  www.openfoam.com                      |
|    \\/     M anipulation  |                                                 |
\*---------------------------------------------------------------------------*/
FoamFile
{
    version     2.0;
    format      ascii;
    class       volVectorField;
    location    "50";
    object      U;
}
// * * * * * * * * * * * * * * * * * * * * * * * * * * * * * * * * * * * * * //

dimensions      [0 1 -1 0 0 0 0];


internalField   nonuniform List<vector> 
2000
(
(0.846158 0.1874 0)
(0.515112 0.124105 0)
(0.223391 0.0684595 0)
(0.0597462 0.0174629 6.32247e-20)
(-0.00466923 -0.0231142 1.44324e-17)
(-0.0645581 -0.0385273 1.25973e-17)
(-0.0778222 -0.0380751 0)
(-0.0713006 -0.0187365 0)
(-0.0579845 0.00835007 0)
(-0.0385496 0.0228951 2.87453e-17)
(-0.0384067 0.00873516 -1.76444e-17)
(-0.0253192 -0.00401756 -1.64891e-17)
(-0.0133688 -0.00584747 0)
(-0.0108458 -0.00337459 0)
(-0.0106735 -0.00182469 -1.30022e-17)
(-0.000375142 -0.00578354 0)
(0.0141945 -0.0115518 1.1418e-17)
(0.0313207 -0.0170714 6.81427e-20)
(0.0507978 -0.0214116 1.05755e-17)
(0.0714916 -0.0232343 -5.09961e-18)
(0.0895864 -0.0209591 9.84911e-18)
(0.100481 -0.0147404 0)
(0.10046 -0.00763026 0)
(0.0911364 -0.00065541 4.14464e-20)
(0.0761782 0.0067531 0)
(0.0585487 0.0132343 -4.19047e-18)
(0.0413331 0.0168743 0)
(0.0274501 0.0159963 3.88936e-18)
(0.0186053 0.00997891 0)
(0.0144292 -0.000100543 0)
(0.013574 -0.0114366 0)
(0.00272976 -0.0089259 9.525e-19)
(-0.0267202 0.0236889 0)
(-0.0918989 0.0642622 -4.29823e-19)
(-0.190955 0.0982002 1.14586e-14)
(-0.310311 0.11272 7.72356e-15)
(-0.432499 0.102206 1.07108e-19)
(-0.5379 0.0701777 1.93504e-19)
(-0.609975 0.0274316 0)
(-0.63993 -0.0137704 -8.70274e-19)
(-0.630662 -0.0466454 0)
(-0.600522 -0.0699208 6.94629e-20)
(-0.551547 -0.0853731 0)
(-0.489535 -0.0946259 -2.45461e-18)
(-0.418206 -0.0993883 2.27907e-18)
(-0.340256 -0.100886 0)
(-0.257813 -0.0998226 0)
(-0.172967 -0.096615 -5.99326e-18)
(-0.0879513 -0.091353 0)
(-0.00444326 -0.0838551 8.52831e-18)
(0.0780459 -0.0737159 0)
(0.158824 -0.0614628 1.67783e-17)
(0.236047 -0.0477641 -1.56328e-17)
(0.307995 -0.0331275 1.44803e-17)
(0.373638 -0.0180132 -6.37499e-18)
(0.432504 -0.002832 0)
(0.484415 0.012111 5.36679e-18)
(0.529323 0.0266575 -4.94376e-18)
(0.567253 0.0408086 -9.74807e-18)
(0.597987 0.0544907 8.60368e-18)
(0.621869 0.0679065 -8.18071e-18)
(0.638777 0.081723 7.88933e-18)
(0.646568 0.0955862 -7.69283e-18)
(0.646077 0.108687 8.17135e-18)
(0.63835 0.119805 -4.89847e-19)
(0.62431 0.127848 7.78426e-18)
(0.605319 0.132135 0)
(0.583243 0.132418 0)
(0.560172 0.128936 1.29333e-19)
(0.538267 0.122411 0)
(0.519634 0.113937 8.53127e-18)
(0.506157 0.104773 0)
(0.499296 0.0961036 8.30263e-18)
(0.500105 0.0889408 2.78219e-20)
(0.509383 0.0843381 7.61252e-18)
(0.527169 0.0827964 1.39166e-17)
(0.551399 0.0838877 1.66856e-19)
(0.58659 0.0876576 -4.91954e-18)
(0.61699 0.0923909 -3.25012e-18)
(0.691736 0.100205 0)
(1.0153 0.210399 0)
(0.944627 0.194255 0)
(0.804432 0.180046 -4.11149e-18)
(0.654336 0.152386 8.53325e-18)
(0.509098 0.111264 0)
(0.359893 0.0684661 -8.8126e-18)
(0.216503 0.029426 0)
(0.0821151 -0.00543324 0)
(-0.0286735 -0.0193946 0)
(-0.0580308 -0.0183799 -2.09998e-17)
(-0.067716 -0.0220978 1.90472e-17)
(-0.0743231 -0.0139577 1.73909e-17)
(-0.0706857 0.00395996 0)
(-0.0657709 0.0131556 7.43818e-18)
(-0.0721604 0.00356102 0)
(-0.0747532 -0.00875714 0)
(-0.0734569 -0.0162572 0)
(-0.0672622 -0.0231285 6.02257e-18)
(-0.0561704 -0.0315113 -1.17656e-17)
(-0.0382356 -0.0365189 -5.91763e-18)
(-0.0178044 -0.0318716 0)
(-0.00195756 -0.0177548 0)
(0.005691 0.000339814 0)
(0.00151658 0.0182657 -8.39881e-18)
(-0.0130494 0.0323578 0)
(-0.0320514 0.0390935 4.68874e-18)
(-0.0483576 0.0363413 2.10822e-18)
(-0.0589282 0.0260709 0)
(-0.0638242 0.0148862 0)
(-0.0660478 0.0110869 0)
(-0.0749342 0.0252291 0)
(-0.0935421 0.0647272 -4.49121e-19)
(-0.128108 0.127439 0)
(-0.185705 0.193601 1.9276e-19)
(-0.259097 0.241184 7.89126e-20)
(-0.331567 0.252624 0)
(-0.384604 0.222416 0)
(-0.400993 0.157229 -2.36367e-19)
(-0.375865 0.0715719 0)
(-0.32984 -0.0147283 8.45355e-19)
(-0.291428 -0.0871022 0)
(-0.234842 -0.140146 6.0406e-19)
(-0.172393 -0.177012 0)
(-0.104448 -0.200942 1.10441e-18)
(-0.0330491 -0.215424 1.35382e-18)
(0.0412267 -0.222824 0)
(0.117318 -0.224841 0)
(0.19418 -0.222217 -5.19873e-18)
(0.271066 -0.215353 0)
(0.347132 -0.204286 -5.79828e-19)
(0.421033 -0.188818 0)
(0.491158 -0.168991 0)
(0.556274 -0.145354 0)
(0.615584 -0.118885 0)
(0.668594 -0.0907621 1.00092e-17)
(0.715038 -0.0620473 0)
(0.754795 -0.0334949 -8.79873e-18)
(0.787836 -0.0055723 4.46601e-18)
(0.81418 0.0214343 -3.56639e-18)
(0.834274 0.0473414 -8.06286e-18)
(0.848372 0.0719098 7.7777e-18)
(0.857358 0.0950743 -7.50963e-18)
(0.864248 0.116982 7.28535e-18)
(0.869873 0.137263 0)
(0.874295 0.155358 -1.02348e-17)
(0.877471 0.170739 -7.03501e-18)
(0.879339 0.182878 0)
(0.879818 0.19122 3.41143e-18)
(0.878952 0.195349 7.03882e-18)
(0.877038 0.195207 0)
(0.874664 0.191202 0)
(0.872641 0.184184 0)
(0.871861 0.175289 0)
(0.873272 0.165754 -6.50453e-18)
(0.877403 0.156851 3.25522e-18)
(0.885109 0.149628 -5.72777e-18)
(0.896817 0.144548 5.0179e-18)
(0.915733 0.141842 -2.01584e-18)
(0.93272 0.140956 0)
(0.973447 0.141012 0)
(0.97849 0.201554 0)
(0.97886 0.193061 -3.39205e-18)
(0.969155 0.205202 4.05594e-18)
(0.939063 0.208651 -3.61436e-18)
(0.877977 0.194737 3.43537e-18)
(0.785491 0.168813 3.40448e-18)
(0.669155 0.138088 0)
(0.540549 0.105899 0)
(0.407477 0.0746264 0)
(0.283614 0.0453563 8.38463e-18)
(0.170628 0.0175449 0)
(0.0699255 -0.00459151 0)
(-0.0190269 -0.00699683 0)
(-0.0484816 0.00387662 -8.50583e-18)
(-0.0620496 0.00157848 0)
(-0.0794057 -0.00440646 -6.74429e-18)
(-0.0970383 -0.0105637 0)
(-0.11094 -0.0213141 6.24115e-18)
(-0.116767 -0.0371632 2.97775e-18)
(-0.114424 -0.0465962 0)
(-0.104135 -0.040445 -3.29585e-18)
(-0.0957462 -0.0199143 0)
(-0.0946506 0.0103104 0)
(-0.104835 0.0408487 5.96097e-18)
(-0.128015 0.0638984 0)
(-0.158541 0.0731647 1.12259e-18)
(-0.187599 0.0662729 -2.91532e-18)
(-0.206861 0.0486129 0)
(-0.20955 0.0323315 0)
(-0.193359 0.0309081 -3.60769e-19)
(-0.161766 0.0528495 0)
(-0.132872 0.0982735 4.88508e-20)
(-0.11113 0.166078 0)
(-0.0976739 0.237448 5.56193e-19)
(-0.0872597 0.286144 5.24794e-20)
(-0.0711449 0.28935 0)
(-0.0419671 0.236926 -8.50799e-20)
(0.002981 0.133915 3.91898e-19)
(0.0564657 0.00784161 5.19984e-19)
(0.0914676 -0.0890676 9.11987e-19)
(0.126282 -0.161599 -6.3956e-19)
(0.167996 -0.218077 -3.45596e-19)
(0.214255 -0.25924 0)
(0.264849 -0.287232 5.38009e-19)
(0.320301 -0.305285 -1.97068e-18)
(0.379877 -0.31552 0)
(0.442151 -0.319011 -1.60338e-18)
(0.505879 -0.31627 4.13932e-18)
(0.570163 -0.307582 0)
(0.633829 -0.29296 -2.68993e-18)
(0.695155 -0.272244 2.04618e-18)
(0.75225 -0.245506 -2.01671e-18)
(0.803752 -0.213579 -1.95058e-18)
(0.849129 -0.178053 0)
(0.8884 -0.14064 -4.41014e-18)
(0.921656 -0.102627 -1.62193e-18)
(0.948845 -0.0648042 2.46182e-18)
(0.969857 -0.0277011 1.40739e-18)
(0.984725 0.00814763 3.59408e-18)
(0.993639 0.04217 0)
(0.997188 0.0736716 0)
(0.995866 0.101834 0)
(0.990443 0.126101 -1.3135e-18)
(0.982244 0.146265 0)
(0.972971 0.162514 3.30443e-18)
(0.964313 0.175238 0)
(0.957589 0.184762 -1.67056e-18)
(0.953558 0.191204 -3.59018e-18)
(0.952398 0.194469 0)
(0.953817 0.19439 -1.92357e-18)
(0.957297 0.190942 1.97042e-18)
(0.962362 0.184418 0)
(0.968748 0.175483 0)
(0.976501 0.165112 0)
(0.985814 0.154374 -3.33324e-18)
(0.997325 0.144261 0)
(1.0109 0.135652 -1.43179e-18)
(1.0291 0.128771 2.09137e-18)
(1.04447 0.124175 0)
(1.0804 0.119656 3.03508e-19)
(0.970611 0.209131 0)
(0.96392 0.194816 1.87125e-18)
(0.966441 0.198604 0)
(0.977168 0.206537 1.99821e-18)
(0.982036 0.209042 -3.57672e-18)
(0.968229 0.204415 -1.61525e-18)
(0.930531 0.193828 0)
(0.870213 0.177933 0)
(0.79012 0.156692 0)
(0.693516 0.131654 1.6315e-18)
(0.586467 0.105965 1.67164e-18)
(0.47594 0.0815568 0)
(0.364031 0.0601287 0)
(0.262959 0.0424546 0)
(0.179326 0.0275929 0)
(0.105752 0.0148959 7.21746e-18)
(0.0370992 0.00161452 -3.6171e-18)
(-0.0123913 -0.0177918 0)
(-0.0332162 -0.0396032 -3.67404e-18)
(-0.0568246 -0.0523566 1.89068e-18)
(-0.0690547 -0.0450114 3.84738e-18)
(-0.0689826 -0.0172027 0)
(-0.0710965 0.0207539 0)
(-0.081878 0.059315 -3.53766e-18)
(-0.102664 0.0881838 0)
(-0.132834 0.0955475 -1.25938e-18)
(-0.168524 0.0748285 1.0129e-18)
(-0.202809 0.0325552 0)
(-0.225385 -0.0117192 0)
(-0.224075 -0.0373671 3.92109e-19)
(-0.193204 -0.0268859 0)
(-0.125321 0.0283903 -6.6755e-19)
(-0.0347463 0.113021 0)
(0.0532698 0.18855 -1.52809e-19)
(0.141158 0.238172 -5.60189e-20)
(0.226616 0.242664 -8.04151e-21)
(0.306426 0.194789 8.39539e-20)
(0.375442 0.103011 -3.15918e-19)
(0.425835 -0.000294802 -3.92363e-19)
(0.455749 -0.0963424 -9.21411e-19)
(0.477365 -0.178688 3.37453e-19)
(0.499218 -0.245049 -1.98558e-19)
(0.524263 -0.295666 0)
(0.554579 -0.333233 2.2959e-19)
(0.590904 -0.360165 4.04833e-19)
(0.631994 -0.377425 0)
(0.676683 -0.385829 1.45637e-18)
(0.724698 -0.386344 7.38251e-19)
(0.775293 -0.379199 0)
(0.826225 -0.363658 -2.74192e-18)
(0.874264 -0.338958 -1.98488e-18)
(0.916638 -0.305614 1.20875e-18)
(0.952263 -0.265828 1.95768e-18)
(0.981639 -0.222453 0)
(1.00571 -0.177594 6.36982e-19)
(1.02498 -0.132259 2.27621e-18)
(1.0395 -0.086953 1.60195e-18)
(1.04925 -0.0422335 -1.51594e-18)
(1.05446 0.00106213 -4.44292e-19)
(1.05543 0.0421303 0)
(1.05231 0.0799535 0)
(1.0455 0.113556 0)
(1.03561 0.14219 1.94178e-18)
(1.02339 0.165312 6.00293e-19)
(1.0098 0.182634 0)
(0.996027 0.194202 -1.55234e-18)
(0.983392 0.200449 1.81141e-18)
(0.973211 0.202104 -1.91667e-18)
(0.966512 0.199981 -2.07549e-18)
(0.963837 0.194803 -9.60855e-20)
(0.965208 0.187153 -2.16442e-18)
(0.970274 0.177547 0)
(0.978522 0.166541 0)
(0.989513 0.154797 0)
(1.00291 0.14306 0)
(1.01881 0.132076 0)
(1.03659 0.122598 3.25239e-18)
(1.05847 0.114895 -1.32295e-18)
(1.0767 0.110193 0)
(1.11425 0.10537 -3.31033e-19)
(0.972989 0.216095 0)
(0.965832 0.201855 2.26188e-18)
(0.959211 0.195682 2.95535e-19)
(0.961501 0.195668 2.2555e-18)
(0.972685 0.197702 0)
(0.985515 0.199446 -1.9137e-18)
(0.992412 0.199564 0)
(0.988181 0.196621 -4.31347e-19)
(0.969635 0.189632 0)
(0.93462 0.178602 -1.9334e-18)
(0.883086 0.164308 -1.50023e-18)
(0.817178 0.147705 -3.76338e-19)
(0.739911 0.12938 3.70869e-19)
(0.655142 0.109651 0)
(0.56906 0.0897204 3.56802e-19)
(0.485702 0.0710812 0)
(0.409542 0.0533087 2.824e-18)
(0.345115 0.0332968 -3.78061e-19)
(0.281213 0.0079743 0)
(0.205512 -0.0201546 -2.38725e-18)
(0.127513 -0.0385118 0)
(0.0771828 -0.028797 0)
(0.0635455 0.0104451 0)
(0.0656358 0.0612583 0)
(0.0702045 0.104905 -2.33481e-19)
(0.0722394 0.127862 0)
(0.073486 0.124951 0)
(0.0762808 0.0992137 3.22883e-20)
(0.0727347 0.051858 0)
(0.0585705 -0.0118656 0)
(0.0472832 -0.0650952 0)
(0.0458654 -0.0906093 -4.78177e-20)
(0.0777658 -0.0658523 0)
(0.161711 0.00333405 -2.51804e-19)
(0.279065 0.0710977 0)
(0.401054 0.104059 8.3809e-21)
(0.508749 0.0890218 -5.61258e-21)
(0.59201 0.0332979 -2.47311e-21)
(0.646305 -0.04524 1.20028e-20)
(0.676852 -0.128171 2.16223e-19)
(0.69418 -0.203731 1.54195e-19)
(0.708174 -0.267893 -7.1475e-20)
(0.724453 -0.321128 -1.97063e-20)
(0.744584 -0.364149 -2.2217e-19)
(0.767025 -0.396168 3.92074e-19)
(0.791209 -0.417409 -6.82513e-20)
(0.819669 -0.43008 0)
(0.854183 -0.435157 -7.40737e-19)
(0.892247 -0.430569 0)
(0.92839 -0.41332 8.2848e-19)
(0.957569 -0.382548 0)
(0.977697 -0.34097 8.32675e-19)
(0.989909 -0.293542 0)
(0.996763 -0.244328 -1.3172e-19)
(1.00049 -0.1949 -7.14683e-19)
(1.00242 -0.145397 -6.53986e-19)
(1.00323 -0.0960137 7.61816e-20)
(1.00325 -0.047393 0)
(1.00293 -0.000285332 5.24251e-19)
(1.00149 0.0443262 -5.57247e-20)
(0.998408 0.0855052 0)
(0.993615 0.122166 8.09461e-20)
(0.987269 0.153291 -5.99745e-19)
(0.979649 0.178146 -6.76911e-19)
(0.971156 0.196292 0)
(0.962334 0.207613 1.73524e-18)
(0.953919 0.212404 0)
(0.946836 0.21139 2.13563e-18)
(0.942071 0.205622 2.31355e-18)
(0.940474 0.196263 2.46167e-18)
(0.942587 0.184406 3.43181e-19)
(0.94859 0.170965 0)
(0.958349 0.156693 0)
(0.971592 0.142246 0)
(0.987944 0.128256 -3.30893e-19)
(1.00738 0.115317 0)
(1.02897 0.104125 -1.62775e-18)
(1.055 0.0949058 1.66921e-18)
(1.0765 0.0892923 1.24907e-19)
(1.11991 0.0839589 5.39298e-20)
(0.974195 0.218527 -1.46282e-18)
(0.970936 0.206409 1.4131e-18)
(0.965122 0.198251 -3.34422e-19)
(0.961145 0.194229 0)
(0.962208 0.192107 0)
(0.968273 0.190775 0)
(0.977774 0.190218 0)
(0.988469 0.189984 1.4848e-18)
(0.997331 0.189099 0)
(1.00078 0.186607 -1.32391e-18)
(0.995595 0.181791 -1.65263e-18)
(0.979703 0.174408 3.81247e-19)
(0.952702 0.164526 1.12949e-18)
(0.915035 0.15183 0)
(0.86829 0.136192 -1.68186e-18)
(0.815041 0.118334 0)
(0.759482 0.0985636 -1.30186e-18)
(0.704041 0.0772091 3.20862e-19)
(0.646486 0.0570018 -1.47629e-18)
(0.58473 0.0417993 -1.25884e-18)
(0.515705 0.0316412 0)
(0.437357 0.0248134 0)
(0.361801 0.0278508 -1.09392e-18)
(0.314722 0.0503403 0)
(0.304971 0.0840336 -6.36525e-19)
(0.318993 0.108618 0)
(0.341768 0.110276 0)
(0.36456 0.0870125 -2.77732e-20)
(0.385971 0.045198 0)
(0.406128 -0.00046582 0)
(0.422992 -0.0368688 0)
(0.43763 -0.0544468 3.66779e-20)
(0.449419 -0.0539785 1.80353e-19)
(0.462254 -0.0438639 1.26008e-19)
(0.493169 -0.0318619 0)
(0.552837 -0.0261465 0)
(0.62747 -0.0388962 -4.69652e-21)
(0.696366 -0.0738617 -1.06612e-20)
(0.751397 -0.123799 -1.22682e-20)
(0.791108 -0.180495 0)
(0.818464 -0.23766 0)
(0.838014 -0.292274 -4.64518e-20)
(0.852405 -0.341866 2.0215e-20)
(0.860796 -0.382512 -2.14972e-19)
(0.863863 -0.412625 2.68391e-19)
(0.869149 -0.436037 7.13995e-20)
(0.884274 -0.455642 0)
(0.907064 -0.466913 3.35188e-19)
(0.927845 -0.462075 0)
(0.93806 -0.437363 0)
(0.934805 -0.395478 0)
(0.920437 -0.343828 0)
(0.899311 -0.290072 0)
(0.876091 -0.237857 1.58649e-19)
(0.855637 -0.187315 0)
(0.841434 -0.138013 2.47081e-19)
(0.834344 -0.0900254 -9.59456e-20)
(0.833525 -0.0434686 0)
(0.836666 0.00185682 1.45604e-20)
(0.842134 0.0456061 6.87192e-20)
(0.848529 0.0867761 8.49293e-20)
(0.854653 0.123921 -9.74768e-20)
(0.859953 0.155682 0)
(0.864334 0.181092 -5.1562e-19)
(0.867886 0.199578 0)
(0.870834 0.210915 0)
(0.873548 0.215254 -1.08886e-18)
(0.876558 0.213164 0)
(0.880543 0.205621 0)
(0.88625 0.19387 -1.56011e-18)
(0.894348 0.179215 -3.88736e-19)
(0.905322 0.162846 0)
(0.919412 0.145753 0)
(0.93669 0.128742 0)
(0.957016 0.112501 3.73305e-19)
(0.980529 0.0976238 -1.47035e-18)
(1.00626 0.0848303 -2.89167e-19)
(1.03683 0.0743483 -2.24708e-19)
(1.06194 0.0680957 -1.39524e-19)
(1.11209 0.0627186 -3.2305e-19)
(0.974501 0.219022 5.13808e-18)
(0.973759 0.20808 -4.92883e-18)
(0.97172 0.200502 0)
(0.969168 0.196326 -2.98403e-18)
(0.967066 0.193101 0)
(0.966182 0.189541 -2.63563e-18)
(0.967444 0.186148 0)
(0.971716 0.1835 3.50838e-18)
(0.979086 0.181483 -4.36142e-18)
(0.988552 0.179633 2.00107e-18)
(0.998297 0.177437 1.86864e-18)
(1.00614 0.174375 0)
(1.01013 0.169883 -4.98184e-18)
(1.00859 0.16311 -3.13941e-18)
(1.00022 0.153219 4.36399e-18)
(0.984327 0.139962 0)
(0.96162 0.12379 1.30024e-18)
(0.933009 0.106415 0)
(0.898617 0.0908905 1.40454e-18)
(0.858441 0.0799596 1.53766e-18)
(0.812398 0.0750997 0)
(0.760522 0.0762973 0)
(0.704848 0.0813272 -8.99333e-19)
(0.653669 0.087889 0)
(0.620344 0.0940815 7.63877e-19)
(0.612012 0.0950033 0)
(0.624024 0.0837618 0)
(0.647309 0.0573808 0)
(0.676066 0.0184797 0)
(0.703159 -0.0249169 0)
(0.721926 -0.061358 0)
(0.733036 -0.0811004 0)
(0.743262 -0.0808416 1.49694e-19)
(0.761236 -0.0649231 -8.91179e-20)
(0.789817 -0.0460639 3.94068e-20)
(0.825037 -0.0393569 0)
(0.86216 -0.0531359 0)
(0.896746 -0.0865117 1.2829e-20)
(0.924044 -0.133871 -1.07938e-19)
(0.940936 -0.188254 1.12929e-19)
(0.947221 -0.243511 0)
(0.944244 -0.295331 4.2987e-19)
(0.93181 -0.339553 -4.90204e-19)
(0.91033 -0.374105 -3.66643e-19)
(0.889601 -0.404707 -2.91643e-19)
(0.883618 -0.438268 0)
(0.890972 -0.468409 0)
(0.895059 -0.479516 -1.10784e-18)
(0.881916 -0.463026 0)
(0.848509 -0.42207 0)
(0.800157 -0.366283 0)
(0.743615 -0.306152 6.18742e-19)
(0.684126 -0.249135 1.19327e-18)
(0.632498 -0.198634 0)
(0.601073 -0.154828 0)
(0.592177 -0.115627 -3.30924e-19)
(0.599135 -0.0780419 0)
(0.613876 -0.0395601 -2.52213e-19)
(0.631314 0.000316608 -4.09477e-19)
(0.650091 0.0409163 0)
(0.66831 0.080511 -2.59728e-19)
(0.685326 0.117059 1.74671e-19)
(0.701423 0.148878 5.94402e-19)
(0.71702 0.17468 6.23905e-19)
(0.732334 0.193621 -1.58076e-18)
(0.747444 0.205305 2.09399e-18)
(0.762418 0.209767 3.86862e-18)
(0.777398 0.207474 0)
(0.792657 0.19931 0)
(0.808616 0.186488 1.79711e-18)
(0.82578 0.170369 0)
(0.844639 0.152269 4.19252e-18)
(0.86558 0.133334 4.23518e-18)
(0.888904 0.114494 0)
(0.9147 0.0965263 3.943e-18)
(0.943358 0.0800592 -1.91607e-18)
(0.973953 0.0658718 0)
(1.00968 0.0542156 0)
(1.03881 0.0472974 0)
(1.09646 0.0417156 -3.4836e-19)
(0.974733 0.218949 -3.94677e-18)
(0.975461 0.208244 3.77617e-18)
(0.976065 0.201133 -7.30696e-18)
(0.975952 0.19748 3.37489e-18)
(0.974899 0.194621 0)
(0.973233 0.191012 2.98071e-18)
(0.971533 0.186903 -5.69288e-18)
(0.970551 0.182799 -5.29429e-18)
(0.971155 0.178803 -7.52424e-20)
(0.974064 0.174933 0)
(0.979568 0.171239 0)
(0.98741 0.167615 4.19393e-18)
(0.996812 0.163649 3.83296e-18)
(1.00652 0.158584 -3.7668e-18)
(1.0148 0.151537 -1.01748e-17)
(1.01972 0.141941 0)
(1.01963 0.130109 0)
(1.0137 0.117519 0)
(1.00187 0.106434 0)
(0.985052 0.0992912 0)
(0.965125 0.0980662 0)
(0.944281 0.102861 0)
(0.923821 0.110584 1.79724e-18)
(0.90509 0.116397 -3.29205e-18)
(0.892018 0.115898 0)
(0.889474 0.105918 0)
(0.898902 0.0846271 0)
(0.917408 0.0518037 0)
(0.93834 0.010368 0)
(0.952414 -0.0317083 -3.4151e-19)
(0.955954 -0.063675 0)
(0.951624 -0.0791052 0)
(0.94551 -0.0789685 -2.63363e-21)
(0.943548 -0.0708335 0)
(0.949085 -0.064529 -3.99595e-20)
(0.962224 -0.0671267 0)
(0.979616 -0.0821036 1.28383e-19)
(0.995126 -0.110161 0)
(1.0027 -0.14886 3.24437e-19)
(0.999083 -0.193302 -1.21857e-19)
(0.984245 -0.238547 -5.01819e-19)
(0.959259 -0.280366 -4.22857e-19)
(0.924876 -0.315727 5.49918e-19)
(0.889022 -0.349264 6.7293e-19)
(0.868768 -0.391655 1.77439e-18)
(0.865359 -0.438455 1.85236e-18)
(0.855126 -0.466517 0)
(0.818799 -0.459425 -9.12612e-19)
(0.755533 -0.420428 0)
(0.673627 -0.362628 0)
(0.582525 -0.29728 -1.66885e-18)
(0.48578 -0.232199 -8.55984e-19)
(0.397172 -0.179305 8.10683e-20)
(0.349787 -0.149585 0)
(0.353809 -0.135858 0)
(0.38567 -0.121094 0)
(0.421529 -0.0957904 -2.39804e-19)
(0.451926 -0.0601419 3.24124e-19)
(0.476414 -0.0187173 5.09009e-19)
(0.496856 0.0248768 0)
(0.514382 0.0674905 1.92814e-19)
(0.531223 0.106099 -2.43588e-19)
(0.549289 0.138836 -7.34621e-19)
(0.569428 0.164817 1.19449e-18)
(0.591603 0.183618 5.53169e-20)
(0.615388 0.195104 -2.51479e-18)
(0.640278 0.199399 -3.08348e-18)
(0.665841 0.196939 0)
(0.691815 0.188521 0)
(0.718161 0.175268 0)
(0.745041 0.158494 0)
(0.772748 0.139524 -4.84076e-18)
(0.801618 0.119548 -4.87291e-18)
(0.832024 0.0995604 0)
(0.864178 0.0803891 -4.51049e-18)
(0.898698 0.0626982 8.43699e-18)
(0.934701 0.0473361 0)
(0.976072 0.0345835 0)
(1.00954 0.026976 0)
(1.07542 0.0210769 1.50311e-18)
(0.975035 0.218513 9.68242e-18)
(0.977131 0.207516 0)
(0.979634 0.20088 1.6702e-17)
(0.980964 0.197828 0)
(0.980783 0.195335 7.29098e-18)
(0.979893 0.19204 0)
(0.978736 0.188215 6.433e-18)
(0.977306 0.184099 0)
(0.975816 0.179609 -5.8821e-18)
(0.974831 0.174752 0)
(0.975007 0.16968 1.03596e-17)
(0.976898 0.164488 -4.79535e-18)
(0.980841 0.15907 0)
(0.986773 0.153068 8.42203e-18)
(0.994012 0.145963 -2.16502e-19)
(1.00123 0.13735 -7.64654e-18)
(1.00668 0.127485 7.47087e-18)
(1.00898 0.117461 0)
(1.00789 0.108977 0)
(1.00447 0.103978 7.71872e-18)
(1.0009 0.103794 0)
(0.999851 0.108158 -3.90739e-18)
(1.00317 0.114665 0)
(1.01113 0.119165 3.50824e-18)
(1.02308 0.116925 0)
(1.0383 0.10432 2.69127e-18)
(1.05555 0.0799375 0)
(1.07196 0.0451403 0)
(1.08155 0.00534666 8.90211e-19)
(1.0794 -0.0311404 3.61228e-19)
(1.06561 -0.0570771 0)
(1.04471 -0.0698074 0)
(1.02318 -0.071571 -1.01909e-18)
(1.00667 -0.0679232 0)
(0.997845 -0.0652868 0)
(0.995787 -0.0692551 0)
(0.996754 -0.0836829 -1.42425e-19)
(0.995871 -0.109301 0)
(0.988968 -0.143264 -8.69366e-19)
(0.973983 -0.181285 -6.63888e-19)
(0.950991 -0.219628 5.74285e-19)
(0.920326 -0.255059 0)
(0.885587 -0.288899 0)
(0.860447 -0.331753 2.08908e-18)
(0.850588 -0.385809 -1.98837e-18)
(0.829603 -0.427243 -2.10611e-18)
(0.771367 -0.431826 0)
(0.68299 -0.399069 -1.05787e-19)
(0.580357 -0.343212 2.22325e-18)
(0.467776 -0.276221 0)
(0.34326 -0.203122 2.39242e-18)
(0.214305 -0.138103 2.86232e-18)
(0.142386 -0.123692 -2.57787e-18)
(0.156706 -0.151775 0)
(0.208518 -0.168948 0)
(0.257165 -0.156363 0)
(0.29221 -0.121539 2.97145e-19)
(0.316957 -0.075886 0)
(0.336854 -0.0272814 0)
(0.35454 0.0199688 0)
(0.370899 0.0636334 -1.73587e-18)
(0.387519 0.101545 3.20187e-20)
(0.406625 0.132664 0)
(0.429516 0.156739 -1.47063e-18)
(0.456273 0.173783 -2.24728e-18)
(0.486336 0.183892 6.17837e-18)
(0.518882 0.187239 -7.72978e-18)
(0.553067 0.184189 -9.12386e-18)
(0.588193 0.175414 0)
(0.623804 0.161899 -1.12849e-17)
(0.6597 0.14484 0)
(0.695916 0.125486 0)
(0.732638 0.104996 0)
(0.770203 0.0843594 1.22138e-17)
(0.808861 0.0644182 -1.15643e-17)
(0.849398 0.0458437 -1.54819e-17)
(0.890931 0.0295405 0)
(0.938094 0.0157934 6.95656e-18)
(0.975986 0.00749801 0)
(1.05051 0.00114062 -2.78159e-18)
(0.975434 0.217701 -1.09828e-17)
(0.979147 0.206128 -1.06641e-17)
(0.983437 0.200312 -1.91937e-17)
(0.985608 0.198099 0)
(0.985532 0.195828 -1.65667e-17)
(0.984859 0.192625 -7.87873e-18)
(0.984313 0.189022 0)
(0.983626 0.185133 1.40311e-17)
(0.98263 0.180762 1.31159e-17)
(0.981488 0.175857 0)
(0.980461 0.17048 -1.17172e-17)
(0.979839 0.164667 0)
(0.979961 0.158365 0)
(0.981092 0.151406 1.00074e-17)
(0.983185 0.143547 9.24781e-18)
(0.985726 0.134626 -2.22602e-19)
(0.987757 0.125014 2.36264e-19)
(0.988435 0.11567 0)
(0.987681 0.107895 0)
(0.986531 0.10304 -8.81796e-18)
(0.987054 0.101889 -9.02614e-18)
(0.991792 0.104072 1.33736e-17)
(1.00274 0.107707 4.30279e-18)
(1.02019 0.109477 4.02422e-18)
(1.04234 0.105399 0)
(1.06584 0.0922443 -3.03106e-18)
(1.08665 0.0690676 0)
(1.10044 0.0384212 0)
(1.10334 0.00543099 -2.18126e-18)
(1.09379 -0.0237212 0)
(1.07401 -0.0443324 0)
(1.04893 -0.0549952 0)
(1.02399 -0.057793 7.7467e-19)
(1.00337 -0.0571832 -4.26205e-19)
(0.988863 -0.0583711 2.20111e-19)
(0.979743 -0.0656893 0)
(0.97348 -0.0813798 0)
(0.966682 -0.105171 0)
(0.956316 -0.135019 7.23649e-19)
(0.940854 -0.168357 7.60079e-19)
(0.91966 -0.202334 -1.94481e-18)
(0.893324 -0.235387 0)
(0.868889 -0.27312 0)
(0.853608 -0.322704 -4.94731e-18)
(0.827268 -0.369007 -2.85029e-18)
(0.753292 -0.383841 0)
(0.637971 -0.36351 0)
(0.521468 -0.320804 2.90038e-18)
(0.411376 -0.26098 9.66947e-20)
(0.283903 -0.182624 0)
(0.12459 -0.0980042 0)
(0.0048356 -0.068331 -4.31772e-18)
(0.00494806 -0.134789 0)
(0.0405332 -0.186687 0)
(0.0850394 -0.195451 0)
(0.122557 -0.169363 0)
(0.149203 -0.125835 0)
(0.169399 -0.0765762 3.11008e-18)
(0.18778 -0.0279228 0)
(0.208345 0.0188596 0)
(0.228266 0.0621994 -2.79266e-19)
(0.248099 0.0990856 0)
(0.270655 0.128283 0)
(0.297546 0.149954 0)
(0.329041 0.164646 1.11325e-17)
(0.364705 0.172813 -7.50659e-18)
(0.40371 0.174741 9.31514e-18)
(0.445077 0.170772 -2.83841e-19)
(0.487888 0.161479 0)
(0.531413 0.147709 1.33179e-17)
(0.575183 0.130519 -1.45279e-17)
(0.619002 0.111044 0)
(0.662894 0.0903675 0)
(0.70712 0.0694279 5.46245e-19)
(0.751908 0.0490439 1.33424e-17)
(0.798173 0.0298591 1.20705e-17)
(0.844979 0.0128118 0)
(0.897756 -0.00185825 -7.9381e-18)
(0.939874 -0.0108634 0)
(1.02313 -0.017898 2.14245e-18)
(0.975986 0.216484 0)
(0.981697 0.20425 2.45223e-17)
(0.987785 0.19971 2.19428e-17)
(0.990473 0.198508 0)
(0.990177 0.196377 9.40851e-18)
(0.989359 0.193174 -9.06635e-18)
(0.988908 0.189668 0)
(0.988491 0.185847 -1.5865e-17)
(0.98794 0.181519 0)
(0.98737 0.176676 0)
(0.986851 0.171349 0)
(0.98638 0.165505 0)
(0.985994 0.159055 0)
(0.985742 0.151855 1.93323e-19)
(0.985549 0.143747 -1.09139e-17)
(0.985111 0.134685 -2.15206e-19)
(0.983945 0.125123 2.2377e-19)
(0.981709 0.115965 0)
(0.97857 0.108224 0)
(0.975507 0.102826 0)
(0.974324 0.100217 -1.0709e-19)
(0.977252 0.0999766 7.24921e-20)
(0.986177 0.100573 -4.93759e-18)
(1.00163 0.0994453 -4.63092e-18)
(1.0221 0.0935914 0)
(1.04413 0.0806522 -3.93963e-18)
(1.06312 0.0602088 3.58152e-18)
(1.07483 0.0343767 0)
(1.07689 0.00706481 1.35513e-18)
(1.0688 -0.0169353 1.49138e-18)
(1.05264 -0.0340332 0)
(1.03199 -0.0434072 0)
(1.01066 -0.0470351 9.27198e-19)
(0.991728 -0.0486811 -1.27889e-20)
(0.976817 -0.0524161 -5.1027e-19)
(0.965873 -0.0613637 0)
(0.957365 -0.0770814 0)
(0.948961 -0.0995584 -1.07403e-18)
(0.938624 -0.127508 0)
(0.924841 -0.158606 -1.14272e-18)
(0.906706 -0.190347 -2.42502e-19)
(0.886702 -0.22344 0)
(0.868999 -0.263086 2.89129e-18)
(0.841982 -0.304922 6.18772e-18)
(0.76871 -0.324506 3.38097e-18)
(0.632806 -0.310882 0)
(0.485327 -0.285343 -8.26241e-18)
(0.37394 -0.251885 0)
(0.271726 -0.187558 -4.11717e-18)
(0.12641 -0.0874493 0)
(-0.0471359 -0.0110918 0)
(-0.0804815 -0.0665298 0)
(-0.0901224 -0.144206 0)
(-0.0758249 -0.197588 0)
(-0.042488 -0.205524 -3.45221e-18)
(-0.00874003 -0.175915 9.80479e-19)
(0.0154817 -0.1288 0)
(0.0343916 -0.0772431 -4.00719e-18)
(0.0524049 -0.0284397 5.57737e-18)
(0.0728824 0.0179615 0)
(0.0936924 0.0609335 3.33082e-18)
(0.116232 0.0966619 0)
(0.14299 0.123956 0)
(0.174675 0.143345 0)
(0.211262 0.15577 -6.88081e-18)
(0.25236 0.161987 9.48864e-18)
(0.297184 0.162413 -1.17404e-17)
(0.344761 0.157428 2.71279e-17)
(0.3941 0.147555 -1.53484e-17)
(0.444332 0.133533 0)
(0.494821 0.116292 1.70901e-17)
(0.545206 0.0968494 -1.79982e-17)
(0.595375 0.0761895 0)
(0.64551 0.0551772 5.18036e-19)
(0.695795 0.0345818 -1.6577e-17)
(0.74725 0.0149889 0)
(0.798837 -0.00264689 0)
(0.85682 -0.0181963 -9.96549e-18)
(0.902771 -0.0279357 0)
(0.994555 -0.035921 -2.76996e-18)
(0.976761 0.214814 0)
(0.984942 0.202043 -1.41036e-17)
(0.992789 0.199263 -1.24731e-17)
(0.995685 0.199082 0)
(0.995045 0.197004 2.15416e-17)
(0.994057 0.193823 2.03343e-17)
(0.993544 0.1904 0)
(0.993065 0.18656 1.82561e-17)
(0.992525 0.182159 -1.73064e-17)
(0.992119 0.17727 0)
(0.991922 0.171931 0)
(0.991878 0.166096 0)
(0.991908 0.159669 0)
(0.991907 0.152519 -1.30006e-17)
(0.991662 0.144514 -1.27316e-17)
(0.990804 0.135643 1.17347e-17)
(0.98893 0.126367 -3.50164e-17)
(0.985864 0.117506 0)
(0.981868 0.109867 0)
(0.977833 0.104105 1.18766e-17)
(0.975267 0.100437 2.36753e-17)
(0.975996 0.0983676 -1.16724e-17)
(0.981607 0.0965755 0)
(0.992724 0.0930616 0)
(1.00842 0.0856236 -5.09923e-18)
(1.02607 0.0726379 9.25469e-18)
(1.04203 0.0539237 -8.49735e-18)
(1.05304 0.0311082 0)
(1.05694 0.00747203 0)
(1.05302 -0.0129853 -1.69179e-18)
(1.04228 -0.0274137 0)
(1.02681 -0.0353996 1.98278e-18)
(1.00923 -0.0389402 -1.04887e-18)
(0.992056 -0.0414377 -1.39835e-20)
(0.977057 -0.04637 -1.06707e-20)
(0.964775 -0.0563057 0)
(0.954477 -0.0724613 0)
(0.944777 -0.0947174 -1.02484e-19)
(0.934114 -0.121693 1.34329e-18)
(0.920859 -0.15117 4.07254e-18)
(0.905303 -0.181861 5.66891e-18)
(0.888847 -0.214614 3.15976e-18)
(0.863208 -0.247949 -3.27206e-18)
(0.801238 -0.2677 -3.79857e-18)
(0.671784 -0.25541 4.77218e-18)
(0.49378 -0.227459 0)
(0.345555 -0.216916 1.05596e-17)
(0.249381 -0.195813 -1.06789e-17)
(0.148624 -0.116345 0)
(-0.00752509 0.000676521 0)
(-0.110296 0.0204433 0)
(-0.136846 -0.0531737 0)
(-0.163422 -0.13897 0)
(-0.168142 -0.201917 0)
(-0.149289 -0.213018 3.27454e-18)
(-0.121433 -0.180942 -2.28234e-18)
(-0.100445 -0.129731 1.10095e-18)
(-0.0841968 -0.0754286 -3.55201e-18)
(-0.0682129 -0.0248083 -6.00982e-18)
(-0.0499126 0.0201455 5.83366e-18)
(-0.0292883 0.0611063 -3.90666e-18)
(-0.00442473 0.0945605 0)
(0.0263507 0.119529 2.24332e-18)
(0.0626945 0.136678 -5.593e-18)
(0.104193 0.14703 0)
(0.150365 0.151462 -2.33474e-17)
(0.200423 0.150481 1.41928e-17)
(0.253421 0.144524 -3.316e-17)
(0.308342 0.134092 1.82842e-17)
(0.364253 0.119848 0)
(0.420422 0.102616 2.10272e-17)
(0.476384 0.0832998 2.10817e-17)
(0.531924 0.0627857 -2.14746e-17)
(0.587165 0.0418518 -2.03925e-17)
(0.642235 0.0212064 1.91741e-17)
(0.698249 0.00135479 0)
(0.754027 -0.0167395 0)
(0.816691 -0.0331359 1.13964e-17)
(0.865971 -0.0436127 0)
(0.965862 -0.0528584 3.1258e-18)
(0.977833 0.212626 1.84255e-17)
(0.989001 0.199681 0)
(0.998491 0.199114 -2.81026e-17)
(1.00129 0.199819 2.55745e-17)
(1.00025 0.197714 -2.43371e-17)
(0.999139 0.19461 2.32751e-17)
(0.998568 0.191275 0)
(0.997979 0.187386 1.56757e-19)
(0.997332 0.182886 1.95388e-17)
(0.99686 0.17791 0)
(0.996652 0.172494 0)
(0.996673 0.166594 0)
(0.996853 0.160134 3.1831e-17)
(0.997073 0.153012 0)
(0.997093 0.14513 2.82785e-17)
(0.996527 0.136496 0)
(0.994971 0.127553 5.33896e-17)
(0.992272 0.119032 0)
(0.988699 0.111582 0)
(0.985053 0.105665 -2.68996e-17)
(0.982622 0.101333 -1.34009e-17)
(0.9829 0.0980394 0)
(0.987148 0.0945971 0)
(0.995886 0.0893627 0)
(1.00848 0.0806446 5.80319e-18)
(1.02307 0.0672976 -5.38467e-18)
(1.03704 0.0493287 -2.36396e-19)
(1.04773 0.028261 0)
(1.05308 0.00704816 4.40681e-18)
(1.05209 -0.0108391 0)
(1.0449 -0.0230365 0)
(1.03257 -0.0294813 -2.22897e-18)
(1.01687 -0.0323516 1.22852e-18)
(1.00003 -0.0350055 -1.4374e-20)
(0.984026 -0.0406245 3.42125e-19)
(0.969903 -0.0513384 0)
(0.957588 -0.0679779 0)
(0.946241 -0.090177 1.46867e-18)
(0.934318 -0.116462 -1.50289e-18)
(0.920721 -0.145141 -3.11617e-18)
(0.905387 -0.175038 -3.28809e-18)
(0.881556 -0.203041 -3.56743e-18)
(0.829213 -0.2205 0)
(0.723053 -0.212405 0)
(0.551747 -0.17583 -6.22246e-18)
(0.36378 -0.150874 -1.43174e-17)
(0.233704 -0.162836 0)
(0.147415 -0.145185 2.80734e-17)
(0.0466305 -0.0480418 0)
(-0.0682772 0.0480012 0)
(-0.121947 0.0408498 -1.21256e-17)
(-0.151554 -0.0380017 1.00347e-17)
(-0.190315 -0.129022 7.22541e-18)