/*--------------------------------*- C++ -*----------------------------------*\
| =========                 |                                                 |
| \\      /  F ield         | OpenFOAM: The Open Source CFD Toolbox           |
|  \\    /   O peration     | Version:  v1912                                 |
|   \\  /    A nd           | Website:  www.openfoam.com                      |
|    \\/     M anipulation  |                                                 |
\*---------------------------------------------------------------------------*/
FoamFile
{
    version     2.0;
    format      ascii;
    class       volScalarField;
    location    "925";
    object      p;
}
// * * * * * * * * * * * * * * * * * * * * * * * * * * * * * * * * * * * * * //

dimensions      [0 2 -2 0 0 0 0];


internalField   nonuniform List<scalar> 
2000
(
-0.0459707
0.0714406
0.126021
0.119132
0.103304
0.0969991
0.0963939
0.0977426
0.09796
0.0977388
0.0978788
0.0975557
0.0972981
0.0972424
0.0973001
0.0973217
0.0972786
0.0972571
0.0972516
0.0972553
0.0972591
0.0972525
0.0972311
0.0971962
0.0971546
0.0971125
0.0970752
0.0970443
0.0970175
0.0969923
0.0969669
0.0969407
0.0969135
0.0968853
0.0968561
0.0968263
0.0967962
0.0967656
0.096735
0.0967047
0.0966755
0.0966483
0.0966243
0.0966049
0.0965913
0.0965842
0.0965841
0.0965918
0.0966084
0.0966326
0.0966529
0.096625
0.0964287
0.0958198
0.0944348
0.0918826
0.0878753
0.0823672
0.0758334
0.069709
0.0661045
0.0661242
0.070754
0.0795877
0.0916575
0.105952
0.121617
0.137853
0.153741
0.168195
0.180174
0.188806
0.193261
0.192729
0.186424
0.173685
0.153388
0.125333
0.083819
0.0415211
0.00727647
0.0924529
0.131271
0.118075
0.100334
0.0961363
0.0996778
0.102118
0.0993635
0.0961197
0.0956823
0.0969824
0.0974305
0.0972984
0.0975227
0.0974244
0.0973004
0.0971979
0.0971632
0.097152
0.0971699
0.0972103
0.0972173
0.0971935
0.0971581
0.0971202
0.0970845
0.0970527
0.0970256
0.0970002
0.0969726
0.0969442
0.096916
0.0968882
0.0968601
0.0968313
0.0968019
0.0967733
0.0967443
0.0967149
0.0966855
0.0966575
0.0966323
0.0966111
0.0965948
0.0965846
0.0965814
0.096589
0.0966199
0.0966962
0.0968193
0.0968986
0.0966506
0.095514
0.0927139
0.0875883
0.0799891
0.0705301
0.0608609
0.0540891
0.0537702
0.0590692
0.0675286
0.0784284
0.0912971
0.10577
0.121274
0.137035
0.152137
0.16557
0.176325
0.183428
0.185984
0.183265
0.174611
0.159488
0.13699
0.107287
0.0663868
0.0294274
0.0583443
0.0921423
0.114834
0.113276
0.104078
0.0999034
0.0999416
0.0993042
0.0973984
0.0967137
0.0983037
0.0999023
0.098922
0.0964625
0.0955683
0.0964421
0.0973266
0.0975022
0.0973428
0.097238
0.0971798
0.0971433
0.0971246
0.0971366
0.0971441
0.0971325
0.0971014
0.0970558
0.0970191
0.096984
0.0969574
0.0969341
0.0969123
0.0968927
0.0968747
0.0968552
0.0968318
0.0968046
0.0967747
0.0967435
0.0967126
0.0966838
0.0966572
0.0966323
0.0966133
0.0966193
0.0966838
0.096839
0.0971127
0.0975128
0.0979761
0.098276
0.0979928
0.0965042
0.093137
0.0874803
0.0797738
0.0712394
0.0639343
0.0594381
0.058428
0.0618971
0.0692003
0.0792078
0.0911437
0.104538
0.118811
0.133138
0.146559
0.158083
0.166762
0.171744
0.172321
0.167939
0.158127
0.142545
0.120609
0.0928496
0.0565535
0.0249959
0.0833315
0.0933453
0.105895
0.109975
0.107282
0.104263
0.102602
0.10087
0.0992478
0.0984306
0.0982437
0.0981461
0.0978015
0.0971067
0.0965824
0.0975264
0.09878
0.0980417
0.0968833
0.0964813
0.0964309
0.0966045
0.0968931
0.0971172
0.0972466
0.097324
0.0973661
0.0973401
0.0972527
0.0971516
0.0970554
0.0969753
0.0969193
0.0968934
0.0968836
0.0968749
0.0968568
0.0968334
0.0968072
0.0967788
0.0967501
0.0967231
0.0966964
0.0966679
0.0966444
0.096661
0.0967814
0.0970342
0.0974575
0.098044
0.0987474
0.0992049
0.0990274
0.0976743
0.0946414
0.0897097
0.0831709
0.075848
0.0689281
0.0642833
0.0630238
0.0658389
0.0723194
0.0814396
0.0923595
0.104467
0.117091
0.129409
0.140537
0.149627
0.155922
0.158772
0.157646
0.152126
0.141862
0.126631
0.106042
0.0807059
0.048736
0.0208095
0.0956722
0.0992726
0.106792
0.110763
0.109634
0.107305
0.105924
0.104885
0.103583
0.102132
0.100781
0.099693
0.0989663
0.0981288
0.0971661
0.0971953
0.0977493
0.0979635
0.0978147
0.0973635
0.0970237
0.0969102
0.0969683
0.0971483
0.09734
0.0974527
0.0974083
0.0972227
0.0970887
0.0969849
0.0969056
0.0968507
0.0968211
0.0968332
0.0968714
0.096907
0.0969232
0.096913
0.0968828
0.0968409
0.0967934
0.0967426
0.0966872
0.0966188
0.0965343
0.0964525
0.0964511
0.0966713
0.0970977
0.0976969
0.0983614
0.0988122
0.0986383
0.0973533
0.0945485
0.0900981
0.0843256
0.0780628
0.0725672
0.0692584
0.068974
0.0719339
0.0777801
0.0857896
0.0952312
0.105466
0.115852
0.125693
0.134281
0.140957
0.145136
0.146315
0.14407
0.138051
0.127952
0.113585
0.0946344
0.071686
0.0432477
0.0181929
0.104113
0.105947
0.109901
0.112071
0.111256
0.109648
0.10869
0.108014
0.107055
0.105864
0.104735
0.103745
0.102733
0.10141
0.100036
0.0993282
0.0991979
0.099068
0.0985027
0.0976187
0.0970027
0.0967993
0.0968884
0.0970956
0.0972655
0.0973579
0.0973948
0.0973834
0.0972976
0.0971826
0.0970703
0.0969774
0.0969124
0.0968899
0.0968611
0.0968334
0.0968194
0.0968055
0.0967753
0.0967386
0.096704
0.0966735
0.0966476
0.0966271
0.0966213
0.0966621
0.0968141
0.0971454
0.0976404
0.0982345
0.0987966
0.0990814
0.0987524
0.0974729
0.0950229
0.0914297
0.0870579
0.0826063
0.0789715
0.077023
0.0773157
0.0799936
0.0848367
0.0913538
0.0989568
0.10708
0.115177
0.122696
0.129082
0.133813
0.136414
0.13646
0.133569
0.127411
0.117681
0.104185
0.0866173
0.0655118
0.0395188
0.0165557
0.110924
0.111747
0.112984
0.113322
0.112536
0.11155
0.110891
0.110352
0.109685
0.108929
0.108205
0.107485
0.106626
0.105518
0.104351
0.103496
0.102982
0.102384
0.101415
0.100316
0.0995014
0.0990619
0.0988719
0.0987809
0.0986939
0.0985898
0.0984669
0.0982989
0.0980764
0.0978567
0.0976739
0.0975313
0.0974215
0.0973721
0.0975421
0.0976327
0.0976503
0.0976699
0.0977024
0.0977441
0.097797
0.0978655
0.0979536
0.0980661
0.0982137
0.0984197
0.0987185
0.0991379
0.0996603
0.100214
0.100673
0.100846
0.100504
0.0994372
0.0975434
0.0948959
0.0917903
0.0887243
0.0863072
0.0851225
0.0855716
0.0877743
0.0915802
0.096639
0.102509
0.108742
0.114901
0.120546
0.125228
0.128513
0.129986
0.129261
0.125975
0.119798
0.110418
0.0976225
0.0810974
0.0613201
0.0369801
0.0155176
0.116801
0.116746
0.115831
0.114622
0.113799
0.113282
0.112806
0.112335
0.111892
0.111455
0.111003
0.110506
0.109907
0.109166
0.10836
0.107668
0.107127
0.106499
0.105632
0.104678
0.103879
0.103311
0.102912
0.102598
0.10232
0.102056
0.101792
0.101516
0.101235
0.100984
0.100784
0.10064
0.100557
0.100564
0.100672
0.100745
0.100782
0.100832
0.10091
0.101009
0.101127
0.101267
0.101432
0.101625
0.101853
0.102129
0.102467
0.102872
0.103321
0.103747
0.104047
0.104084
0.103708
0.102794
0.101298
0.0992988
0.0970212
0.0948203
0.0931207
0.0923254
0.092717
0.0943901
0.0972516
0.101065
0.105514
0.110251
0.11492
0.119154
0.122572
0.124794
0.125445
0.124165
0.120605
0.114439
0.105345
0.0930923
0.0773436
0.0585173
0.0353139
0.014842
0.122205
0.121216
0.118252
0.115708
0.114953
0.114864
0.11453
0.114122
0.113857
0.113639
0.11337
0.113044
0.112655
0.112177
0.11164
0.111149
0.110735
0.110263
0.109629
0.108909
0.108259
0.107753
0.107369
0.107053
0.106769
0.106496
0.106224
0.105952
0.105688
0.105449
0.105253
0.10511
0.105027
0.105009
0.10502
0.105073
0.105134
0.105202
0.105289
0.105395
0.105518
0.105659
0.105819
0.106001
0.106206
0.106442
0.106711
0.107008
0.107309
0.10756
0.107683
0.107582
0.107157
0.106333
0.105092
0.103504
0.101736
0.100047
0.0987393
0.0981026
0.0983476
0.099559
0.101686
0.104566
0.107958
0.111584
0.115143
0.118318
0.12078
0.122191
0.122212
0.120509
0.116747
0.110605
0.101753
0.0899386
0.0747892
0.0566607
0.0342509
0.0143865
0.127435
0.125248
0.120053
0.116409
0.115946
0.116272
0.116044
0.115721
0.115636
0.115604
0.115482
0.11529
0.115048
0.114737
0.114375
0.114037
0.113746
0.113412
0.11296
0.112435
0.111949
0.111567
0.111278
0.11104
0.110821
0.110606
0.11039
0.110174
0.109963
0.10977
0.109611
0.109493
0.109425
0.109404
0.109369
0.109406
0.109463
0.109518
0.109582
0.109659
0.109749
0.109851
0.109966
0.110093
0.110236
0.110394
0.110567
0.110747
0.11091
0.111014
0.111
0.110798
0.110339
0.109575
0.1085
0.107172
0.105722
0.104342
0.103259
0.102693
0.102808
0.103675
0.105265
0.107455
0.110055
0.112832
0.115531
0.117878
0.119585
0.120352
0.119874
0.11784
0.113934
0.107836
0.0992087
0.0877699
0.0731051
0.055504
0.0336346
0.0141179
0.132674
0.128824
0.121131
0.116741
0.116832
0.117524
0.117352
0.117138
0.117241
0.117378
0.117389
0.117318
0.117196
0.117011
0.116776
0.116546
0.116341
0.116099
0.115767
0.115377
0.115015
0.114732
0.11452
0.114347
0.114188
0.114031
0.113871
0.113711
0.113554
0.113409
0.113288
0.113198
0.11314
0.113105
0.113078
0.113099
0.113138
0.113176
0.113218
0.113269
0.113329
0.113396
0.113469
0.11355
0.113637
0.113732
0.113829
0.113919
0.113983
0.113986
0.113882
0.113618
0.113146
0.112432
0.111478
0.110333
0.1091
0.10793
0.106998
0.106473
0.106485
0.107093
0.108274
0.109932
0.111911
0.114015
0.116026
0.117705
0.1188
0.119046
0.118169
0.115881
0.111881
0.105851
0.0974399
0.0863393
0.0720805
0.0548896
0.0333532
0.0140359
0.13804
0.131871
0.121457
0.116798
0.117665
0.118627
0.118478
0.118401
0.118688
0.118969
0.119099
0.11914
0.11913
0.119056
0.118928
0.118789
0.118654
0.118483
0.118238
0.117945
0.117669
0.117453
0.117292
0.117164
0.117046
0.11693
0.116812
0.116692
0.116574
0.116465
0.116372
0.116302
0.116256
0.116225
0.11621
0.116222
0.11625
0.116278
0.116308
0.116343
0.116382
0.116424
0.116468
0.116514
0.116561
0.116607
0.116648
0.116674
0.116667
0.1166
0.116437
0.116136
0.115662
0.114992
0.114131
0.113121
0.112047
0.111027
0.1102
0.109699
0.109625
0.110025
0.110881
0.112112
0.113589
0.115144
0.11659
0.117719
0.118311
0.118135
0.116941
0.114464
0.110413
0.104471
0.0962743
0.0854843
0.0715737
0.0547115
0.0333322
0.0141549
0.143613
0.134285
0.121065
0.116702
0.118465
0.119582
0.119448
0.119536
0.119991
0.120393
0.120626
0.12077
0.12086
0.120885
0.120852
0.120796
0.12073
0.120625
0.120454
0.120238
0.120031
0.119868
0.119749
0.119655
0.119569
0.119484
0.119397
0.119306
0.119218
0.119135
0.119063
0.119008
0.11897
0.118953
0.118944
0.118952
0.118972
0.118993
0.119014
0.119036
0.119059
0.119082
0.119102
0.119121
0.119135
0.119144
0.119141
0.119117
0.119058
0.118939
0.118733
0.118408
0.117936
0.117302
0.116514
0.115608
0.114652
0.113742
0.112989
0.112498
0.112347
0.112574
0.113161
0.11404
0.1151
0.116199
0.117176
0.117852
0.118037
0.117523
0.116086
0.113477
0.109413
0.103576
0.0955859
0.0850799
0.0714702
0.0548812
0.0335151
0.014479
0.149432
0.135947
0.120052
0.11657
0.119231
0.12039
0.120295
0.120564
0.121166
0.121667
0.121992
0.122228
0.122406
0.122517
0.122568
0.122587
0.122585
0.122541
0.122436
0.122289
0.122142
0.122027
0.121945
0.121883
0.121826
0.121768
0.121706
0.121641
0.121577
0.121516
0.121462
0.12142
0.121393
0.121382
0.121376
0.121381
0.121396
0.121412
0.121425
0.121436
0.121446
0.121452
0.121454
0.121449
0.121436
0.121413
0.121373
0.121309
0.121207
0.121048
0.120809
0.120464
0.119994
0.119388
0.118655
0.117826
0.116957
0.116127
0.115422
0.114926
0.114702
0.114776
0.115133
0.115714
0.116425
0.117147
0.117741
0.118052
0.117915
0.117143
0.115531
0.112839
0.108791
0.103065
0.0952674
0.0850154
0.0716647
0.0553134
0.0338528
0.0149897
0.155505
0.13675
0.118565
0.116491
0.119945
0.121064
0.121046
0.121499
0.122224
0.122808
0.123216
0.123534
0.12379
0.123975
0.124099
0.124184
0.124241
0.124253
0.124206
0.124118
0.124025
0.123953
0.123905
0.123872
0.123843
0.12381
0.123771
0.123729
0.123687
0.123644
0.123606
0.123576
0.123558
0.123551
0.123548
0.123553
0.123564
0.123574
0.123581
0.123583
0.123581
0.123573
0.123557
0.123532
0.123495
0.123444
0.123372
0.123273
0.123134
0.122939
0.122669
0.122306
0.121833
0.121244
0.120548
0.119772
0.118961
0.11818
0.117498
0.116982
0.116682
0.116617
0.116775
0.117106
0.117531
0.117949
0.118241
0.118272
0.117894
0.116938
0.115207
0.112474
0.10846
0.102843
0.0952173
0.0851866
0.0720566
0.0559229
0.0343009
0.015643
0.161813
0.136617
0.11678
0.116516
0.120583
0.121623
0.121724
0.122351
0.123176
0.123831
0.124314
0.124706
0.125029
0.12528
0.125467
0.125611
0.125721
0.125782
0.125787
0.125751
0.125704
0.12567
0.125654
0.125648
0.125643
0.125633
0.125616
0.125594
0.12557
0.125545
0.12552
0.125501
0.12549
0.125487
0.125488
0.125492
0.125499
0.125504
0.125504
0.125498
0.125484
0.125461
0.125428
0.125382
0.125321
0.125241
0.125138
0.125003
0.124827
0.124596
0.124294
0.123907
0.123422
0.122837
0.122159
0.12141
0.12063
0.119871
0.119189
0.118639
0.118262
0.118074
0.118065
0.118194
0.118396
0.118582
0.11865
0.118479
0.117933
0.116854
0.115053
0.112306
0.108338
0.10282
0.0953434
0.0855016
0.0725571
0.0566301
0.0348216
0.0163845
0.168303
0.135538
0.114877
0.116653
0.121125
0.122093
0.122346
0.123127
0.124031
0.12475
0.125301
0.125757
0.12614
0.126448
0.126692
0.126888
0.127044
0.12715
0.1272
0.127208
0.127202
0.127202
0.127213
0.127231
0.127247
0.127256
0.127257
0.127252
0.127245
0.127233
0.127219
0.127208
0.127203
0.127201
0.127202
0.127203
0.127203
0.1272
0.12719
0.12717
0.127141
0.127099
0.127044
0.126973
0.126883
0.12677
0.126631
0.126458
0.126242
0.125972
0.125634
0.125218
0.124713
0.124118
0.123441
0.122701
0.12193
0.121172
0.120475
0.119886
0.119438
0.119149
0.119009
0.118987
0.119025
0.119048
0.11896
0.118654
0.118
0.116847
0.115011
0.11227
0.108349
0.102921
0.0955696
0.085887
0.0730979
0.0573691
0.0353812
0.0171638
0.174891
0.133535
0.113015
0.116886
0.121564
0.122495
0.122919
0.123829
0.124796
0.125571
0.126182
0.126694
0.127128
0.127486
0.127777
0.128018
0.128214
0.128358
0.128446
0.128492
0.128519
0.128546
0.12858
0.128616
0.128648
0.128672
0.128686
0.128692
0.128697
0.128691
0.128681
0.128673
0.128667
0.128661
0.128654
0.128645
0.128633
0.128615
0.128587
0.128548
0.128496
0.12843
0.128347
0.128246
0.128123
0.127975
0.127799
0.127587
0.127331
0.127022
0.12665
0.126203
0.125676
0.125066
0.124381
0.123637
0.122864
0.122097
0.121381
0.120755
0.120252
0.119886
0.119653
0.119526
0.119454
0.119368
0.119182
0.118792
0.118075
0.116882
0.115034
0.112311
0.108438
0.103088
0.0958403
0.0862915
0.0736323
0.0580915
0.035951
0.0179408
0.181485
0.130706
0.111307
0.11717
0.121904
0.122847
0.123441
0.12445
0.125465
0.126286
0.126945
0.1275
0.127974
0.12837
0.128698
0.128973
0.1292
0.129373
0.129489
0.129562
0.129613
0.129659
0.129707
0.129754
0.129795
0.129826
0.129846
0.129859
0.129862
0.129853
0.129841
0.129828
0.129813
0.129796
0.129776
0.129752
0.129723
0.129685
0.129636
0.129574
0.129498
0.129405
0.129295
0.129164
0.12901
0.128831
0.128622
0.128377
0.128089
0.12775
0.127349
0.126878
0.126331
0.125708
0.125013
0.124263
0.123484
0.122708
0.121974
0.12132
0.120777
0.120359
0.120065
0.11987
0.119728
0.119577
0.119332
0.118895
0.118145
0.116937
0.115092
0.112391
0.108563
0.103279
0.0961192
0.0866827
0.0741323
0.0587665
0.0365095
0.0186883
0.187994
0.12718
0.109822
0.117458
0.122149
0.123143
0.123886
0.124962
0.126005
0.126857
0.127547
0.128131
0.12863
0.12905
0.129401
0.129698
0.129945
0.130135
0.130268
0.130358
0.130422
0.130478
0.130532
0.130583
0.130626
0.130659
0.130679
0.130689
0.130683
0.13067
0.130653
0.130631
0.130604
0.130575
0.130541
0.130501
0.130454
0.130399
0.130331
0.13025
0.130153
0.13004
0.129908
0.129755
0.129579
0.129377
0.129145
0.128877
0.128567
0.128206
0.127787
0.1273
0.126741
0.126107
0.125406
0.124651
0.123866
0.123083
0.122337
0.121664
0.121095
0.120645
0.120312
0.120076
0.119894
0.119705
0.119429
0.118969
0.118206
0.116995
0.115162
0.112487
0.108699
0.103473
0.0963852
0.0870431
0.0745846
0.0593778
0.0370426
0.0193915
0.194339
0.123116
0.1086
0.117712
0.122311
0.123366
0.124214
0.125323
0.126379
0.127246
0.127953
0.128551
0.129063
0.129496
0.12986
0.130168
0.130425
0.130623
0.130766
0.130864
0.130934
0.130994
0.13105
0.131101
0.131143
0.131174
0.131193
0.131195
0.131185
0.131168
0.131144
0.131113
0.131078
0.131039
0.130994
0.130944
0.130885
0.130817
0.130737
0.130643
0.130534
0.130407
0.130261
0.130094
0.129905
0.129689
0.129443
0.129162
0.12884
0.128468
0.128038
0.127542
0.126976
0.126338
0.125633
0.124876
0.124087
0.123299
0.122545
0.121861
0.121275
0.120806
0.120451
0.120192
0.119988
0.11978
0.11949
0.11902
0.118255
0.117051
0.115233
0.112583
0.108831
0.103654
0.096628
0.0873654
0.0749853
0.0599196
0.0375421
0.0200456
0.200522
0.118783
0.107667
0.117904
0.122394
0.123498
0.124407
0.125528
0.126588
0.127462
0.128177
0.128781
0.1293
0.129739
0.130108
0.130422
0.130683
0.130886
0.131032
0.131134
0.131207
0.131268
0.131325
0.131375
0.131416
0.131445
0.13146
0.131462
0.131449
0.131428
0.131399
0.131364
0.131324
0.131279
0.131229
0.131172
0.131107
0.131032
0.130945
0.130844
0.130728
0.130594
0.130441
0.130267
0.130071
0.129848
0.129596
0.129309
0.12898
0.128603
0.128168
0.127669
0.1271
0.12646
0.125754
0.124996
0.124206
0.123414
0.122656
0.121965
0.12137
0.120889
0.120523
0.120252
0.120037
0.119821
0.119525
0.119056
0.118295
0.117101
0.115299
0.112673
0.108953
0.103819
0.0968448
0.0876499
0.0753375
0.0603942
0.0380047
0.0206546
0.206686
0.114695
0.107033
0.118021
0.122412
0.123546
0.124486
0.125614
0.126676
0.127553
0.128272
0.12888
0.129401
0.129843
0.130215
0.130531
0.130794
0.130999
0.131147
0.13125
0.131325
0.131387
0.131443
0.131493
0.131534
0.131561
0.131576
0.131577
0.131563
0.13154
0.13151
0.131473
0.13143
0.131383
0.13133
0.13127
0.131202
0.131124
0.131035
0.130931
0.130811
0.130675
0.130519
0.130343
0.130143
0.129918
0.129664
0.129374
0.129044
0.128664
0.128229
0.127729
0.12716
0.12652
0.125814
0.125055
0.124265
0.123472
0.12271
0.122015
0.121415
0.120928
0.120556
0.120279
0.12006
0.119841
0.119546
0.11908
0.118326
0.117144
0.115358
0.112755
0.109065
0.103968
0.0970402
0.0879042
0.0756524
0.0608147
0.0384367
0.0212379
0.212783
0.111489
0.106637
0.11807
0.122392
0.12354
0.124493
0.125629
0.126694
0.127574
0.128294
0.128904
0.129427
0.12987
0.130244
0.130561
0.130825
0.131031
0.13118
0.131284
0.131359
0.131421
0.131478
0.131528
0.131568
0.131596
0.13161
0.131611
0.131597
0.131574
0.131543
0.131506
0.131463
0.131415
0.131361
0.1313
0.131232
0.131153
0.131063
0.130958
0.130838
0.1307
0.130544
0.130367
0.130167
0.129942
0.129687
0.129397
0.129067
0.128688
0.128253
0.127753
0.127185
0.126546
0.125841
0.125083
0.124292
0.123499
0.122736
0.122038
0.121435
0.120945
0.120568
0.120289
0.120069
0.119851
0.119559
0.119098
0.118353
0.117183
0.115414
0.112833
0.10917
0.104109
0.0972234
0.0881413
0.0759464
0.0612034
0.0388496
0.0218284
0.217509
0.109546
0.106411
0.118098
0.122369
0.123515
0.124478
0.125618
0.126687
0.127568
0.12829
0.128901
0.129424
0.129868
0.130242
0.13056
0.130825
0.131031
0.13118
0.131284
0.13136
0.131422
0.131479
0.131529
0.13157
0.131598
0.131612
0.131614
0.131599
0.131576
0.131545
0.131508
0.131465
0.131417
0.131363
0.131303
0.131234
0.131156
0.131066
0.130961
0.130841
0.130704
0.130548
0.130371
0.130172
0.129947
0.129692
0.129403
0.129073
0.128695
0.128261
0.127763
0.127196
0.126558
0.125854
0.125096
0.124306
0.123512
0.122748
0.122048
0.121443
0.120951
0.120573
0.120293
0.120072
0.119856
0.119567
0.119112
0.118376
0.117217
0.115464
0.112902
0.109264
0.104234
0.0973856
0.0883508
0.0762047
0.0615464
0.0392089
0.0223908
)
;

boundaryField
{
    inlet
    {
        type            zeroGradient;
    }
    outlet
    {
        type            fixedValue;
        value           uniform 0;
    }
    fixedWalls
    {
        type            zeroGradient;
    }
    frontAndBack
    {
        type            empty;
    }
}


// ************************************************************************* //
