/*--------------------------------*- C++ -*----------------------------------*\
| =========                 |                                                 |
| \\      /  F ield         | OpenFOAM: The Open Source CFD Toolbox           |
|  \\    /   O peration     | Version:  v1912                                 |
|   \\  /    A nd           | Website:  www.openfoam.com                      |
|    \\/     M anipulation  |                                                 |
\*---------------------------------------------------------------------------*/
FoamFile
{
    version     2.0;
    format      ascii;
    class       surfaceScalarField;
    location    "925";
    object      phi;
}
// * * * * * * * * * * * * * * * * * * * * * * * * * * * * * * * * * * * * * //

dimensions      [0 3 -1 0 0 0 0];
oriented        oriented;


internalField   nonuniform List<scalar> 
3895
(
0.000814746
0.00038143
0.000499361
0.000315385
0.000251565
0.000247796
6.4863e-05
0.000186702
-6.21962e-05
0.000127059
-0.000127327
6.51304e-05
-0.000137639
1.0312e-05
-0.000113632
-2.40064e-05
-9.03513e-05
-2.32809e-05
-8.49474e-05
-5.40396e-06
-6.61297e-05
-1.88176e-05
-4.47458e-05
-2.13839e-05
-4.04648e-05
-4.28102e-06
-4.86703e-05
8.20549e-06
-4.57114e-05
-2.95885e-06
-3.20519e-05
-1.36596e-05
-2.514e-05
-6.91185e-06
-2.59221e-05
7.82071e-07
-2.89429e-05
3.02077e-06
-3.04856e-05
1.54278e-06
-2.91834e-05
-1.30219e-06
-2.48972e-05
-4.2862e-06
-1.85772e-05
-6.32001e-06
-1.19746e-05
-6.60264e-06
-6.20296e-06
-5.77164e-06
-1.90409e-06
-4.29887e-06
8.35133e-07
-2.73923e-06
2.44091e-06
-1.60578e-06
3.49421e-06
-1.0533e-06
4.40353e-06
-9.09319e-07
5.29921e-06
-8.95687e-07
6.15592e-06
-8.56705e-07
6.9531e-06
-7.97186e-07
7.65217e-06
-6.99064e-07
8.17882e-06
-5.2665e-07
8.46316e-06
-2.84343e-07
8.44776e-06
1.54039e-08
8.04182e-06
4.05931e-07
7.25574e-06
7.8608e-07
6.0484e-06
1.20735e-06
4.34263e-06
1.70577e-06
2.03453e-06
2.3081e-06
-9.93529e-07
3.02805e-06
-4.85909e-06
3.86556e-06
-9.67125e-06
4.81216e-06
-1.55724e-05
5.90118e-06
-2.28859e-05
7.31342e-06
-3.23115e-05
9.4256e-06
-4.51753e-05
1.28638e-05
-6.36339e-05
1.84586e-05
-9.05992e-05
2.69653e-05
-0.000129121
3.85222e-05
-0.000181557
5.24355e-05
-0.000248864
6.73067e-05
-0.000329695
8.0831e-05
-0.000419572
8.98777e-05
-0.000511127
9.15547e-05
-0.000595444
8.43171e-05
-0.000663639
6.81954e-05
-0.00070695
4.33103e-05
-0.000714432
7.48243e-06
-0.000696621
-1.78116e-05
-0.000657812
-3.88082e-05
-0.00060158
-5.62328e-05
-0.000531822
-6.97577e-05
-0.000451591
-8.02305e-05
-0.000362888
-8.87035e-05
-0.000267277
-9.56113e-05
-0.000166386
-0.000100891
-6.19266e-05
-0.000104459
4.4118e-05
-0.000106045
0.00014978
-0.000105662
0.000253481
-0.000103701
0.000353874
-0.000100393
0.000450084
-9.62097e-05
0.000542042
-9.19579e-05
0.000630005
-8.79629e-05
0.000717108
-8.71037e-05
0.000803697
-8.65888e-05
-0.000107361
0.00108795
0.000349294
0.00104738
0.000355946
0.000933278
0.000361903
0.000775747
0.000344233
0.000598431
0.000304375
0.000410383
0.000253178
0.000221248
0.000199447
5.3877e-05
0.000143365
-6.04246e-05
9.10208e-05
-0.000110188
4.43597e-05
-0.000131882
2.87626e-06
-0.000123968
-2.92984e-05
-0.000105671
-2.2578e-05
-0.000107783
1.03178e-05
-0.000103375
-7.36725e-06
-9.07482e-05
-2.6286e-05
-7.67542e-05
-2.09058e-05
-7.88645e-05
2.89232e-06
-8.71299e-05
1.12862e-05
-9.2629e-05
7.04185e-06
-9.4583e-05
6.51779e-07
-9.09554e-05
-7.91375e-06
-8.4801e-05
-1.24744e-05
-7.8063e-05
-1.33407e-05
-7.15011e-05
-1.23335e-05
-6.5846e-05
-9.95391e-06
-6.1716e-05
-6.86926e-06
-5.9569e-05
-3.75279e-06
-5.92799e-05
-1.3424e-06
-6.03442e-05
1.54958e-07
-6.25673e-05
1.32748e-06
-6.52641e-05
1.8401e-06
-6.81267e-05
2.06543e-06
-7.10762e-05
2.25043e-06
-7.42464e-05
2.64354e-06
-7.77922e-05
3.26146e-06
-8.18345e-05
4.05766e-06
-8.64178e-05
4.98923e-06
-9.16549e-05
6.02321e-06
-9.75886e-05
7.14103e-06
-0.000104222
8.33887e-06
-0.000111539
9.62562e-06
-0.000119516
1.10048e-05
-0.000128103
1.24527e-05
-0.000137209
1.3918e-05
-0.0001467
1.53926e-05
-0.000156475
1.70884e-05
-0.000166547
1.94969e-05
-0.000177052
2.33691e-05
-0.00018815
2.95564e-05
-0.00020008
3.88958e-05
-0.000213194
5.16362e-05
-0.000227539
6.67802e-05
-0.00024227
8.20377e-05
-0.000255203
9.37642e-05
-0.000262463
9.71372e-05
-0.000259217
8.83085e-05
-0.000241306
6.6406e-05
-0.000207467
3.43567e-05
-0.000166646
2.48962e-06
-0.00012016
-3.90041e-05
-6.82617e-05
-6.97094e-05
-1.37427e-05
-9.33272e-05
4.24846e-05
-0.00011246
0.000102025
-0.000129298
0.000166078
-0.000144284
0.000234515
-0.000157141
0.00030628
-0.000167375
0.000379822
-0.000174433
0.000453355
-0.000177992
0.000525347
-0.000178037
0.000594561
-0.000174876
0.000659936
-0.000169076
0.000720904
-0.000161361
0.000777309
-0.000152615
0.000829265
-0.000143913
0.000877637
-0.000136336
0.00092246
-0.000131926
0.00096645
-0.000130579
-0.000141915
0.000975282
0.000305926
0.00102604
0.000305187
0.00106097
0.000326974
0.00105862
0.000346584
0.00101217
0.00035082
0.000925048
0.000340304
0.000805752
0.000318743
0.000661765
0.000287352
0.000504928
0.000247857
0.000345843
0.000203445
0.000190168
0.000158552
4.7057e-05
0.000113812
-4.98375e-05
7.43165e-05
-8.59849e-05
4.64652e-05
-0.00010587
1.2518e-05
-0.000113875
-1.82811e-05
-0.000101872
-3.29088e-05
-9.15511e-05
-7.42855e-06
-9.90017e-05
1.87369e-05
-0.000108457
1.64974e-05
-0.000114961
7.15557e-06
-0.000119597
-3.27736e-06
-0.000121676
-1.03959e-05
-0.000120583
-1.44336e-05
-0.000118964
-1.39525e-05
-0.000118706
-1.02118e-05
-0.000120409
-5.16701e-06
-0.00012424
7.88752e-08
-0.00012833
2.74773e-06
-0.000132849
4.67393e-06
-0.000137379
5.85705e-06
-0.000141957
6.41874e-06
-0.000146464
6.57187e-06
-0.00015081
6.59611e-06
-0.000155061
6.89509e-06
-0.000159387
7.58691e-06
-0.000163896
8.56707e-06
-0.000168575
9.66868e-06
-0.00017335
1.07982e-05
-0.000178136
1.19265e-05
-0.000182835
1.30383e-05
-0.000187339
1.41296e-05
-0.000191517
1.51822e-05
-0.000195157
1.60928e-05
-0.000197888
1.66496e-05
-0.000199046
1.65506e-05
-0.000197599
1.56412e-05
-0.000192579
1.44771e-05
-0.000183007
1.37971e-05
-0.000167828
1.43767e-05
-0.000145674
1.67426e-05
-0.000115857
2.18192e-05
-7.7543e-05
2.84658e-05
-3.01274e-05
3.46221e-05
2.60833e-05
3.75535e-05
8.85152e-05
3.47053e-05
0.000152658
2.41653e-05
0.000212332
6.7325e-06
0.000266817
-2.01288e-05
0.000318669
-4.93624e-05
0.000361004
-8.13391e-05
0.000402135
-0.00011084
0.000445534
-0.000136726
0.000492735
-0.000159661
0.000543212
-0.000179775
0.000595574
-0.000196646
0.0006481
-0.000209667
0.000699077
-0.000218353
0.0007471
-0.000222456
0.000791147
-0.000222039
0.000830598
-0.000217488
0.000865192
-0.00020947
0.000894968
-0.000198851
0.000920226
-0.00018662
0.000941446
-0.000173835
0.000959132
-0.000161599
0.000973885
-0.000151088
0.000985579
-0.00014362
0.00099528
-0.00014028
-0.000144755
0.000857109
0.000271374
0.000897355
0.000264941
0.000950164
0.000274165
0.00100471
0.000292042
0.00104637
0.000309153
0.00106531
0.000321372
0.00105664
0.000327411
0.00101794
0.000326054
0.000949552
0.000316241
0.00085508
0.000297917
0.000740895
0.000272737
0.000611932
0.000242776
0.000476494
0.000209754
0.000348327
0.000174632
0.000223535
0.00013731
0.000102247
0.000103007
-1.42614e-07
6.94808e-05
-5.16333e-05
4.40621e-05
-6.28839e-05
2.99874e-05
-6.47478e-05
1.83613e-05
-6.70969e-05
9.50472e-06
-7.30006e-05
2.6263e-06
-8.04603e-05
-2.93621e-06
-8.89811e-05
-5.91279e-06
-9.63284e-05
-6.60514e-06
-0.00010183
-4.70989e-06
-0.000106792
-2.05165e-07
-0.000112169
5.45541e-06
-0.000117768
8.3467e-06
-0.000122923
9.82911e-06
-0.0001273
1.02344e-05
-0.000130826
9.94507e-06
-0.000133566
9.3115e-06
-0.000135355
8.38532e-06
-0.000136517
8.05705e-06
-0.000137159
8.2283e-06
-0.000137373
8.78148e-06
-0.000136858
9.15338e-06
-0.000135443
9.38344e-06
-0.000133012
9.49559e-06
-0.000129425
9.45104e-06
-0.00012451
9.21493e-06
-0.000118115
8.78697e-06
-0.000110037
8.01477e-06
-0.000100014
6.62714e-06
-8.78068e-05
4.34292e-06
-7.24113e-05
2.45769e-07
-5.41912e-05
-3.74298e-06
-3.18566e-05
-8.53759e-06
-3.94864e-06
-1.35313e-05
3.07803e-05
-1.79864e-05
7.43328e-05
-2.17332e-05
0.000127485
-2.46868e-05
0.000189596
-2.74882e-05
0.000258575
-3.14262e-05
0.000331422
-3.81408e-05
0.000404755
-4.91678e-05
0.000476925
-6.54382e-05
0.000543773
-8.69768e-05
0.000605969
-0.000111558
0.000662044
-0.000137414
0.000713684
-0.000162481
0.000762171
-0.000185213
0.000807384
-0.000204874
0.000848551
-0.000220941
0.000884794
-0.000232889
0.000915427
-0.000240301
0.000940078
-0.000243004
0.000958743
-0.00024112
0.000971756
-0.000235052
0.000979715
-0.000225447
0.000983372
-0.000213128
0.000983543
-0.000199021
0.000981012
-0.00018409
0.000976468
-0.000169291
0.000970419
-0.000155549
0.000963154
-0.000143824
0.000954506
-0.000134972
0.000944331
-0.000130105
-0.00013022
0.000759397
0.000238011
0.000790536
0.000233802
0.000828351
0.000236349
0.000874985
0.000245408
0.000927002
0.000257137
0.000978871
0.000269503
0.00102441
0.000281869
0.00105755
0.000292918
0.00107319
0.000300602
0.00106786
0.000303245
0.00104042
0.000300179
0.000991565
0.00029163
0.000923239
0.00027808
0.00083886
0.000259011
0.000741525
0.000234645
0.000636636
0.000207896
0.000532152
0.000173965
0.000433902
0.000142312
0.000348945
0.000114944
0.000276029
9.12778e-05
0.000213743
7.17901e-05
0.000160422
5.5947e-05
0.000114124
4.33627e-05
7.45201e-05
3.36906e-05
4.1702e-05
2.6213e-05
1.65791e-05
2.04129e-05
3.23959e-07
1.605e-05
-7.30096e-06
1.30803e-05
-9.54826e-06
1.0594e-05
-8.34178e-06
8.62263e-06
-5.04222e-06
6.93479e-06
-4.89655e-07
5.3925e-06
4.89992e-06
3.92193e-06
1.08036e-05
2.48162e-06
1.72189e-05
1.64181e-06
2.47985e-05
6.48616e-07
3.40371e-05
-4.57076e-07
4.49017e-05
-1.71125e-06
5.76649e-05
-3.37973e-06
7.26073e-05
-5.44683e-06
9.00125e-05
-7.95413e-06
0.000110177
-1.09499e-05
0.000133435
-1.44709e-05
0.000160024
-1.8574e-05
0.000189998
-2.33472e-05
0.000223231
-2.88893e-05
0.000258685
-3.52087e-05
0.000296899
-4.19564e-05
0.000337377
-4.90162e-05
0.000379965
-5.61191e-05
0.000424893
-6.29148e-05
0.000472375
-6.92152e-05
0.000522806
-7.51176e-05
0.000576366
-8.10475e-05
0.000632722
-8.77823e-05
0.000690865
-9.62842e-05
0.000749117
-0.00010742
0.000805294
-0.000121615
0.000856974
-0.000138657
0.000902963
-0.000157547
0.000942471
-0.000176922
0.000975336
-0.000195346
0.00100164
-0.000211513
0.0010213
-0.000224537
0.00103425
-0.000233887
0.0010406
-0.000239243
0.00104077
-0.000240474
0.00103545
-0.000237676
0.00102551
-0.000231182
0.00101197
-0.000221519
0.000995882
-0.000209355
0.000978198
-0.000195444
0.000959747
-0.000180571
0.000941166
-0.000165509
0.000922876
-0.000151001
0.000905063
-0.000137737
0.000887658
-0.000126418
0.000870282
-0.000117596
0.000852296
-0.000112119
-0.000110132
0.000672433
0.000206414
0.000702275
0.000203961
0.000733372
0.000205252
0.000767839
0.00021094
0.000806614
0.000218362
0.000850036
0.000226081
0.000897301
0.000234604
0.000946031
0.000244187
0.000992641
0.000253992
0.00103305
0.000262834
0.00106349
0.000269743
0.00108117
0.000273948
0.00108444
0.000274805
0.00107207
0.000271382
0.0010437
0.000263018
0.00100103
0.000250564
0.000949034
0.000225964
0.000891658
0.000199688
0.000831902
0.0001747
0.000772157
0.000151023
0.000714622
0.000129325
0.000660583
0.000109986
0.000610843
9.31024e-05
0.000565993
7.85408e-05
0.000526237
6.59688e-05
0.000491559
5.50913e-05
0.000461933
4.56759e-05
0.000437576
3.74371e-05
0.000418143
3.00266e-05
0.000403402
2.33641e-05
0.000393021
1.73156e-05
0.000386648
1.17655e-05
0.000384008
6.56158e-06
0.00038532
1.17023e-06
0.000390228
-3.26591e-06
0.00039881
-7.93377e-06
0.000410974
-1.26216e-05
0.000426593
-1.73295e-05
0.000445407
-2.21945e-05
0.000467224
-2.72634e-05
0.000491836
-3.25663e-05
0.000519021
-3.81347e-05
0.000548542
-4.39923e-05
0.000580127
-5.01585e-05
0.000613429
-5.66497e-05
0.000648001
-6.34608e-05
0.000683326
-7.05336e-05
0.000719071
-7.7702e-05
0.000754841
-8.47855e-05
0.000790325
-9.16038e-05
0.000825395
-9.79849e-05
0.000860044
-0.000103864
0.000894298
-0.000109371
0.000928101
-0.000114851
0.00096116
-0.000120841
0.000992835
-0.000127959
0.00102214
-0.000136722
0.00104787
-0.000147349
0.00106885
-0.000159636
0.0010842
-0.0001729
0.00109341
-0.000186133
0.00109633
-0.000198257
0.00109313
-0.000208316
0.00108422
-0.00021563
0.00107016
-0.000219826
0.00105167
-0.000220751
0.00102963
-0.000218432
0.00100501
-0.000213061
0.000978813
-0.000204984
0.00095196
-0.000194666
0.000925255
-0.000182649
0.000899328
-0.000169518
0.000874621
-0.000155863
0.000851377
-0.000142265
0.000829655
-0.000129279
0.000809332
-0.000117414
0.00079011
-0.000107196
0.00077147
-9.89561e-05
0.000752775
-9.34243e-05
-9.01598e-05
0.000594386
0.000177665
0.00062317
0.000175177
0.000652323
0.000176099
0.000682115
0.000181149
0.000712924
0.000187552
0.000745613
0.000193392
0.000781181
0.000199036
0.000820193
0.000205175
0.000862411
0.000211774
0.000906707
0.000218538
0.000951215
0.000225234
0.00099366
0.000231504
0.00103171
0.000236754
0.00106298
0.000240113
0.0010853
0.000240697
0.00109753
0.000238336
0.00109977
0.000223725
0.00109369
0.000205767
0.00108083
0.000187561
0.00106268
0.000169173
0.00104092
0.000151081
0.00101711
0.000133797
0.000992581
0.00011763
0.000968428
0.000102694
0.000945437
8.89598e-05
0.000924188
7.63404e-05
0.000905133
6.47309e-05
0.000888594
5.39764e-05
0.000874706
4.39146e-05
0.000863605
3.44642e-05
0.000855365
2.55563e-05
0.000850021
1.71088e-05
0.000847562
9.02081e-06
0.000847383
1.34959e-06
0.000850261
-6.14416e-06
0.000855638
-1.33109e-05
0.000863371
-2.03547e-05
0.000873315
-2.72736e-05
0.000885226
-3.41053e-05
0.00089885
-4.08875e-05
0.000913924
-4.76403e-05
0.000930164
-5.43746e-05
0.000947267
-6.10947e-05
0.000964907
-6.77988e-05
0.000982734
-7.44766e-05
0.00100037
-8.11004e-05
0.00101745
-8.76096e-05
0.00103364
-9.38966e-05
0.00104869
-9.98361e-05
0.00106241
-0.000105323
0.00107472
-0.000110293
0.00108562
-0.000114763
0.00109513
-0.000118883
0.00110323
-0.000122944
0.00110973
-0.000127346
0.00111429
-0.000132514
0.00111634
-0.000138781
0.00111526
-0.00014626
0.00111039
-0.000154768
0.0011013
-0.000163809
0.00108783
-0.000172665
0.00107014
-0.000180566
0.00104866
-0.000186834
0.001024
-0.000190975
0.000996889
-0.000192715
0.000968092
-0.000191954
0.000938391
-0.000188732
0.000908535
-0.000183205
0.000879182
-0.000175631
0.000850866
-0.000166351
0.000823978
-0.000155761
0.000798758
-0.000144297
0.000775306
-0.000132411
0.000753599
-0.000120558
0.000733504
-0.000109184
0.000714783
-9.86936e-05
0.000697105
-8.95171e-05
0.000679964
-8.18153e-05
0.000662892
-7.63526e-05
-7.19661e-05
0.000525111
0.000151816
0.000551936
0.000148352
0.000579146
0.000148889
0.000606467
0.000153827
0.000634006
0.000160013
0.000661953
0.000165445
0.000690628
0.000170362
0.000720605
0.000175198
0.000752535
0.000179845
0.000786873
0.000184199
0.000823722
0.000188386
0.00086273
0.000192496
0.00090308
0.000196403
0.000943487
0.000199707
0.000982309
0.000201875
0.00101803
0.000202617
0.00104832
0.000193431
0.00107278
0.000181312
0.00109162
0.000168722
0.00110524
0.000155555
0.00111427
0.000142045
0.00111951
0.000128561
0.00112176
0.000115381
0.00112179
0.000102661
0.00112029
9.04624e-05
0.00111784
7.87919e-05
0.00111494
6.76311e-05
0.00111198
5.69359e-05
0.00110924
4.66495e-05
0.00110696
3.67404e-05
0.00110533
2.71948e-05
0.00110444
1.7993e-05
0.00110434
9.1272e-06
0.00110494
7.48312e-07
0.00110636
-7.56437e-06
0.00110841
-1.53677e-05
0.001111
-2.29365e-05
0.001114
-3.02819e-05
0.00111731
-3.74084e-05
0.00112075
-4.43332e-05
0.00112418
-5.10665e-05
0.00112741
-5.76093e-05
0.00113028
-6.39579e-05
0.00113258
-7.01043e-05
0.00113414
-7.60346e-05
0.00113476
-8.17236e-05
0.00113428
-8.71282e-05
0.00113257
-9.21842e-05
0.00112956
-9.68225e-05
0.00112523
-0.000100995
0.00111963
-0.000104695
0.00111285
-0.000107982
0.00110497
-0.000111003
0.00109602
-0.000113999
0.00108595
-0.000117269
0.00107455
-0.000121118
0.00106154
-0.000125768
0.00104657
-0.000131288
0.00102933
-0.000137532
0.00100967
-0.000144144
0.000987613
-0.000150612
0.00096342
-0.000156373
0.000937502
-0.000160916
0.000910375
-0.000163849
0.000882585
-0.000164924
0.00085466
-0.000164029
0.000827085
-0.000161156
0.000800271
-0.00015639
0.000774536
-0.000149897
0.000750103
-0.000141917
0.000727094
-0.000132753
0.000705549
-0.000122753
0.000685438
-0.0001123
0.000666671
-0.00010179
0.000649107
-9.16204e-05
0.000632549
-8.21365e-05
0.000616743
-7.3711e-05
0.000601294
-6.63657e-05
0.000585873
-6.09315e-05
-5.54977e-05
0.00046394
0.000128551
0.000488639
0.000123652
0.00051348
0.000124049
0.000538159
0.000129148
0.000563122
0.00013505
0.000588445
0.000140122
0.00061397
0.000144837
0.000639764
0.000149404
0.000666083
0.000153526
0.000693245
0.000157037
0.00072161
0.00016002
0.00075152
0.000162587
0.00078317
0.000164753
0.000816474
0.000166403
0.000850999
0.00016735
0.000886112
0.000167504
0.000919682
0.000159861
0.000950825
0.000150169
0.00097917
0.000140378
0.00100445
0.000130273
0.00102659
0.000119903
0.0010457
0.000109455
0.00106199
9.90904e-05
0.00107575
8.89047e-05
0.00108727
7.89388e-05
0.00109686
6.9205e-05
0.00110478
5.97038e-05
0.00111129
5.04252e-05
0.00111659
4.13536e-05
0.00112084
3.24873e-05
0.0011242
2.38418e-05
0.00112675
1.54351e-05
0.00112859
7.28931e-06
0.00112978
-4.41617e-07
0.00113027
-8.05688e-06
0.00113013
-1.52261e-05
0.00112933
-2.21346e-05
0.00112785
-2.88001e-05
0.00112566
-3.5222e-05
0.00112273
-4.14045e-05
0.00111902
-4.73516e-05
0.00111447
-5.30626e-05
0.00110905
-5.85334e-05
0.0011027
-6.37574e-05
0.00109539
-6.87242e-05
0.00108708
-7.34173e-05
0.00107777
-7.78104e-05
0.00106745
-8.18683e-05
0.00105619
-8.55567e-05
0.00104405
-8.88598e-05
0.00103115
-9.17969e-05
0.00101761
-9.44367e-05
0.00100351
-9.69099e-05
0.000988921
-9.94068e-05
0.000973807
-0.000102155
0.000958064
-0.000105375
0.000941523
-0.000109227
0.000923987
-0.000113753
0.000905295
-0.00011884
0.000885374
-0.000124223
0.000864277
-0.000129515
0.000842182
-0.000134277
0.00081936
-0.000138094
0.000796134
-0.000140622
0.00077283
-0.00014162
0.000749746
-0.000140945
0.000727137
-0.000138547
0.000705201
-0.000134454
0.000684082
-0.000128777
0.000663866
-0.000121701
0.000644594
-0.000113481
0.00062627
-0.000104429
0.000608871
-9.49007e-05
0.00059235
-8.52692e-05
0.000576637
-7.59076e-05
0.000561627
-6.71265e-05
0.00054716
-5.92439e-05
0.00053297
-5.21757e-05
0.000518774
-4.67353e-05
-4.04479e-05
0.000410014
0.000107501
0.000432754
0.000100912
0.000455183
0.00010162
0.000477152
0.000107179
0.000499455
0.000112747
0.000522203
0.000117374
0.000545203
0.000121836
0.00056844
0.000126167
0.00059194
0.000130026
0.000615686
0.00013329
0.000639722
0.000135985
0.00066419
0.000138119
0.000689281
0.000139662
0.000715152
0.000140532
0.000741864
0.000140638
0.000769388
0.00013998
0.000796434
0.000132814
0.000822522
0.000124081
0.000847428
0.000115471
0.000870886
0.000106815
0.000892681
9.81086e-05
0.000912687
8.94491e-05
0.000930853
8.09242e-05
0.000947183
7.25743e-05
0.000961717
6.44056e-05
0.000974512
5.64097e-05
0.000985641
4.85748e-05
0.000995178
4.08881e-05
0.00100319
3.33382e-05
0.00100975
2.59262e-05
0.00101493
1.86692e-05
0.00101877
1.15916e-05
0.00102134
4.72404e-06
0.00102276
-1.86694e-06
0.00102299
-8.28802e-06
0.00102218
-1.44176e-05
0.00102035
-2.03027e-05
0.00101752
-2.59717e-05
0.00101373
-3.14274e-05
0.00100899
-3.66693e-05
0.00100334
-4.16986e-05
0.000996793
-4.65151e-05
0.000989376
-5.11162e-05
0.000981115
-5.54967e-05
0.000972041
-5.96493e-05
0.000962186
-6.35623e-05
0.000951594
-6.72189e-05
0.000940324
-7.05982e-05
0.00092845
-7.36827e-05
0.00091606
-7.64704e-05
0.000903251
-7.89876e-05
0.000890113
-8.12989e-05
0.000876717
-8.35134e-05
0.000863092
-8.57825e-05
0.000849219
-8.82813e-05
0.00083502
-9.11766e-05
0.000820379
-9.4586e-05
0.000805163
-9.85369e-05
0.000789262
-0.000102939
0.00077262
-0.00010758
0.000755256
-0.000112151
0.000737267
-0.000116289
0.000718809
-0.000119636
0.000700065
-0.000121879
0.000681222
-0.000122777
0.000662447
-0.00012217
0.000643881
-0.000119981
0.000625635
-0.000116209
0.000607794
-0.000110936
0.000590419
-0.000104325
0.000573553
-9.66155e-05
0.000557233
-8.81092e-05
0.000541487
-7.91543e-05
0.000526334
-7.01162e-05
0.000511777
-6.13512e-05
0.000497795
-5.31436e-05
0.000484299
-4.57481e-05
0.000471136
-3.90131e-05
0.00045799
-3.35887e-05
-2.67648e-05
0.000362528
8.82933e-05
0.000383496
7.99438e-05
0.000403597
8.15192e-05
0.000423064
8.77118e-05
0.00044288
9.29311e-05
0.000463078
9.71768e-05
0.000483524
0.00010139
0.000504297
0.000105394
0.00052542
0.000108903
0.000546805
0.000111905
0.000568367
0.000114423
0.000590058
0.000116428
0.000611865
0.000117854
0.000633785
0.000118612
0.000655815
0.000118608
0.000677971
0.000117824
0.000699347
0.000111438
0.00071975
0.000103679
0.000739189
9.60321e-05
0.000757602
8.84026e-05
0.00077491
8.08009e-05
0.000791051
7.3308e-05
0.000805983
6.59926e-05
0.000819676
5.88812e-05
0.000832112
5.19695e-05
0.000843281
4.52406e-05
0.00085318
3.86753e-05
0.000861813
3.2255e-05
0.000869187
2.59648e-05
0.000875313
1.98004e-05
0.00088021
1.37715e-05
0.000883907
7.89458e-06
0.000886448
2.18316e-06
0.000887906
-3.32441e-06
0.0008883
-8.68254e-06
0.000887721
-1.38383e-05
0.000886208
-1.87896e-05
0.000883795
-2.35589e-05
0.000880521
-2.81531e-05
0.000876423
-3.25713e-05
0.000871538
-3.68135e-05
0.000865902
-4.08791e-05
0.000859551
-4.47656e-05
0.000852523
-4.84684e-05
0.000844854
-5.19805e-05
0.000836584
-5.52921e-05
0.000827755
-5.83905e-05
0.000818419
-6.12614e-05
0.000808631
-6.38952e-05
0.000798456
-6.62955e-05
0.000787958
-6.84896e-05
0.000777195
-7.05352e-05
0.000766206
-7.2525e-05
0.000755006
-7.45825e-05
0.000743573
-7.68482e-05
0.00073185
-7.94535e-05
0.000719753
-8.2489e-05
0.000707188
-8.59725e-05
0.000694075
-8.9826e-05
0.000680366
-9.38714e-05
0.000666061
-9.78457e-05
0.000651208
-0.000101435
0.00063589
-0.000104319
0.000620214
-0.000106203
0.000604289
-0.000106851
0.000588215
-0.000106097
0.000572086
-0.000103852
0.000555984
-0.000100107
0.000539989
-9.49408e-05
0.000524178
-8.85146e-05
0.000508633
-8.10705e-05
0.000493438
-7.29143e-05
0.000478677
-6.43933e-05
0.000464427
-5.58656e-05
0.000450743
-4.76674e-05
0.000437656
-4.00571e-05
0.000425123
-3.32145e-05
0.000413073
-2.69633e-05
0.000401114
-2.16299e-05
-1.46463e-05
0.000320758
7.05686e-05
0.000340087
6.06147e-05
0.000357962
6.3644e-05
0.000375206
7.04679e-05
0.000392819
7.53176e-05
0.00041069
7.93065e-05
0.000428757
8.33231e-05
0.000447162
8.69892e-05
0.000465939
9.01264e-05
0.000485023
9.28205e-05
0.000504347
9.50998e-05
0.000523846
9.69281e-05
0.000543446
9.82545e-05
0.000563057
9.90021e-05
0.000582581
9.90828e-05
0.000601945
9.846e-05
0.000620301
9.30822e-05
0.000637492
8.6487e-05
0.000653584
7.99404e-05
0.000668602
7.33848e-05
0.000682559
6.68435e-05
0.000695473
6.03939e-05
0.000707363
5.4103e-05
0.000718244
4.79997e-05
0.00072813
4.20835e-05
0.00073703
3.6341e-05
0.00074495
3.07551e-05
0.000751896
2.53087e-05
0.000757875
1.99867e-05
0.000762892
1.4783e-05
0.00076696
9.70327e-06
0.000770095
4.75934e-06
0.000772334
-5.51147e-08
0.000773708
-4.69881e-06
0.000774242
-9.21677e-06
0.000773978
-1.35743e-05
0.000772952
-1.77633e-05
0.000771191
-2.17977e-05
0.000768723
-2.56856e-05
0.000765579
-2.94269e-05
0.000761786
-3.30206e-05
0.000757373
-3.64656e-05
0.000752366
-3.97591e-05
0.000746794
-4.28962e-05
0.000740684
-4.58704e-05
0.000734064
-4.86728e-05
0.000726967
-5.12931e-05
0.000719427
-5.3721e-05
0.000711483
-5.59514e-05
0.000703178
-5.7991e-05
0.000694555
-5.98665e-05
0.00068565
-6.16301e-05
0.000676487
-6.33622e-05
0.000667072
-6.51673e-05
0.000657386
-6.71619e-05
0.000647386
-6.94532e-05
0.000637009
-7.21127e-05
0.000626187
-7.51499e-05
0.000614853
-7.84926e-05
0.000602964
-8.19821e-05
0.000590502
-8.53841e-05
0.000577483
-8.84157e-05
0.000563945
-9.07806e-05
0.000549946
-9.22041e-05
0.000535556
-9.24602e-05
0.000520849
-9.13899e-05
0.000505909
-8.89119e-05
0.000490831
-8.50294e-05
0.000475723
-7.98328e-05
0.000460706
-7.34979e-05
0.000445911
-6.6276e-05
0.000431473
-5.84755e-05
0.000417516
-5.04364e-05
0.00040415
-4.24994e-05
0.000391451
-3.49692e-05
0.00037947
-2.80758e-05
0.00036817
-2.19148e-05
0.000357539
-1.63324e-05
0.000347103
-1.11936e-05
-4.41711e-06
0.000284047
5.3995e-05
0.000301804
4.28575e-05
0.000317587
4.78611e-05
0.000332893
5.51619e-05
0.000348559
5.96515e-05
0.000364356
6.35097e-05
0.00038032
6.73584e-05
0.000396611
7.06988e-05
0.000413236
7.35008e-05
0.000430146
7.59107e-05
0.000447302
7.79438e-05
0.000464664
7.95663e-05
0.000482171
8.07472e-05
0.000499741
8.14325e-05
0.000517271
8.1552e-05
0.000534662
8.10697e-05
0.000551105
7.66392e-05
0.000566421
7.11702e-05
0.000580652
6.57098e-05
0.000593821
6.02159e-05
0.000605953
5.47115e-05
0.000617081
4.92662e-05
0.000627242
4.3942e-05
0.000636473
3.87687e-05
0.000644806
3.37498e-05
0.000652271
2.88762e-05
0.000658891
2.41356e-05
0.000664685
1.95148e-05
0.000669671
1.50005e-05
0.000673865
1.05884e-05
0.000677284
6.28417e-06
0.000679949
2.09463e-06
0.000681874
-1.97997e-06
0.000683091
-5.91633e-06
0.000683611
-9.73641e-06
0.000683462
-1.3425e-05
0.000682672
-1.69731e-05
0.000681262
-2.03886e-05
0.000679256
-2.3679e-05
0.000676674
-2.68449e-05
0.000673538
-2.98849e-05
0.000669869
-3.2797e-05
0.000665688
-3.55781e-05
0.000661015
-3.82233e-05
0.000655871
-4.0726e-05
0.000650276
-4.3078e-05
0.000644254
-4.52703e-05
0.000637827
-4.72948e-05
0.000631024
-4.91484e-05
0.000623872
-5.0839e-05
0.000616398
-5.23918e-05
0.000608622
-5.3854e-05
0.000600556
-5.52963e-05
0.000592197
-5.68089e-05
0.000583526
-5.84905e-05
0.000574503
-6.04301e-05
0.000565074
-6.26843e-05
0.000555179
-6.52547e-05
0.000544757
-6.80708e-05
0.00053376
-7.09852e-05
0.000522159
-7.37832e-05
0.00050995
-7.62058e-05
0.000497151
-7.79816e-05
0.000483806
-7.88593e-05
0.000469981
-7.86355e-05
0.000455765
-7.71742e-05
0.000441271
-7.4418e-05
0.000426636
-7.03936e-05
0.000412014
-6.52116e-05
0.000397577
-5.90605e-05
0.000383495
-5.21939e-05
0.000369929
-4.49096e-05
0.000357018
-3.7525e-05
0.000344867
-3.03485e-05
0.00033354
-2.36423e-05
0.00032307
-1.76058e-05
0.000313404
-1.22493e-05
0.000304566
-7.49379e-06
0.000296023
-2.65116e-06
3.63942e-06
0.000251798
3.82832e-05
0.000267991
2.66645e-05
0.000281861
3.39914e-05
0.000295501
4.15218e-05
0.000309433
4.57198e-05
0.00032339
4.95522e-05
0.000337519
5.32298e-05
0.00035196
5.62579e-05
0.000366692
5.87689e-05
0.00038167
6.09327e-05
0.000396868
6.27456e-05
0.000412256
6.41785e-05
0.000427787
6.52162e-05
0.000443398
6.5821e-05
0.000459011
6.59389e-05
0.00047454
6.55413e-05
0.000489254
6.19245e-05
0.00050298
5.7445e-05
0.000515738
5.29515e-05
0.000527542
4.84115e-05
0.000538408
4.3846e-05
0.000548359
3.93155e-05
0.000557425
3.48756e-05
0.00056564
3.05541e-05
0.000573034
2.63554e-05
0.000579637
2.22729e-05
0.000585476
1.82973e-05
0.000590572
1.44186e-05
0.000594948
1.06246e-05
0.000598623
6.91334e-06
0.000601615
3.29175e-06
0.000603944
-2.34488e-07
0.000605627
-3.66277e-06
0.00060669
-6.97878e-06
0.000607145
-1.01917e-05
0.000607016
-1.32955e-05
0.000606325
-1.62824e-05
0.000605092
-1.91561e-05
0.000603336
-2.19224e-05
0.000601073
-2.45821e-05
0.000598321
-2.71328e-05
0.000595095
-2.95714e-05
0.000591411
-3.18939e-05
0.000587282
-3.40946e-05
0.000582722
-3.61659e-05
0.000577744
-3.80996e-05
0.00057236
-3.98865e-05
0.000566585
-4.15193e-05
0.000560432
-4.29958e-05
0.000553917
-4.43239e-05
0.000547052
-4.55272e-05
0.000539847
-4.66487e-05
0.000532302
-4.77516e-05
0.000524409
-4.89154e-05
0.000516144
-5.02253e-05
0.00050747
-5.17566e-05
0.00049834
-5.3554e-05
0.000488697
-5.56122e-05
0.000478488
-5.78618e-05
0.000467669
-6.01657e-05
0.000456213
-6.23274e-05
0.000444121
-6.41137e-05
0.000431422
-6.52828e-05
0.000418179
-6.56159e-05
0.000404486
-6.49428e-05
0.000390471
-6.31595e-05
0.000376291
-6.0238e-05
0.000362126
-5.62282e-05
0.000348169
-5.12543e-05
0.000334614
-4.55056e-05
0.000321642
-3.92219e-05
0.000309407
-3.26745e-05
0.000298024
-2.61428e-05
0.000287568
-1.98925e-05
0.000278063
-1.4137e-05
0.000269507
-9.05021e-06
0.000261818
-4.55941e-06
0.000255042
-7.18374e-07
0.000248643
3.74748e-06
9.41668e-06
0.000223468
2.31975e-05
0.000238065
1.2068e-05
0.000250245
2.18105e-05
0.00026246
2.93075e-05
0.000274839
3.33406e-05
0.000287177
3.72144e-05
0.000299706
4.07001e-05
0.00031253
4.34339e-05
0.000325606
4.56933e-05
0.000338896
4.76424e-05
0.00035238
4.92613e-05
0.000366029
5.05295e-05
0.000379802
5.14436e-05
0.000393646
5.19771e-05
0.000407498
5.20872e-05
0.000421286
5.17526e-05
0.000434366
4.88446e-05
0.00044658
4.52312e-05
0.000457947
4.15849e-05
0.000468477
3.78811e-05
0.000478182
3.41405e-05
0.00048708
3.04177e-05
0.000495193
2.67627e-05
0.000502546
2.32011e-05
0.000509164
1.97374e-05
0.000515071
1.63661e-05
0.000520288
1.30801e-05
0.000524835
9.87138e-06
0.000528733
6.72705e-06
0.000531998
3.64843e-06
0.000534648
6.41738e-07
0.000536703
-2.28922e-06
0.000538179
-5.13933e-06
0.000539098
-7.89756e-06
0.000539473
-1.05666e-05
0.00053932
-1.31431e-05
0.000538658
-1.56203e-05
0.000537501
-1.79988e-05
0.000535861
-2.02821e-05
0.000533749
-2.24702e-05
0.000531175
-2.45593e-05
0.000528149
-2.65449e-05
0.000524676
-2.84215e-05
0.000520764
-3.01823e-05
0.000516417
-3.18194e-05
0.000511642
-3.33241e-05
0.000506443
-3.46878e-05
0.000500828
-3.59043e-05
0.000494805
-3.69728e-05
0.000488383
-3.7902e-05
0.000481571
-3.87153e-05
0.000474376
-3.94531e-05
0.000466798
-4.01734e-05
0.00045883
-4.09474e-05
0.000450454
-4.18499e-05
0.000441642
-4.29447e-05
0.000432355
-4.4267e-05
0.00042255
-4.58071e-05
0.000412187
-4.74982e-05
0.000401236
-4.92151e-05
0.000389691
-5.07828e-05
0.000377575
-5.19969e-05
0.000364942
-5.26505e-05
0.000351888
-5.25615e-05
0.000338541
-5.15954e-05
0.000325061
-4.96798e-05
0.000311634
-4.68107e-05
0.000298457
-4.30515e-05
0.00028573
-3.85271e-05
0.000273637
-3.34131e-05
0.000262337
-2.79222e-05
0.00025195
-2.22876e-05
0.000242551
-1.67434e-05
0.000234168
-1.15096e-05
0.000226783
-6.7518e-06
0.000220361
-2.62799e-06
0.000214786
1.0149e-06
0.000210123
3.94541e-06
0.000205907
7.96322e-06
1.29974e-05
0.00019856
8.56662e-06
0.000211521
-8.92926e-07
0.000222268