/*--------------------------------*- C++ -*----------------------------------*\
| =========                 |                                                 |
| \\      /  F ield         | OpenFOAM: The Open Source CFD Toolbox           |
|  \\    /   O peration     | Version:  v1912                                 |
|   \\  /    A nd           | Website:  www.openfoam.com                      |
|    \\/     M anipulation  |                                                 |
\*---------------------------------------------------------------------------*/
FoamFile
{
    version     2.0;
    format      ascii;
    class       volVectorField;
    location    "925";
    object      U;
}
// * * * * * * * * * * * * * * * * * * * * * * * * * * * * * * * * * * * * * //

dimensions      [0 1 -1 0 0 0 0];


internalField   nonuniform List<vector> 
2000
(
(0.84616 0.187394 0)
(0.515133 0.124089 0)
(0.223448 0.0684415 0)
(0.0598068 0.0174443 6.19507e-20)
(-0.00455617 -0.0232232 1.20711e-17)
(-0.0642033 -0.0384872 1.0426e-17)
(-0.0776009 -0.0372471 0)
(-0.0715949 -0.016659 0)
(-0.0590606 0.0117117 0)
(-0.0421581 0.0254666 2.36753e-17)
(-0.0415843 0.0109778 -1.45049e-17)
(-0.027367 -0.000621454 -1.36228e-17)
(-0.0163175 -0.00266726 0)
(-0.0200715 -0.00264041 0)
(-0.0219063 -0.00226992 -1.08222e-17)
(-0.0168726 0.000848331 0)
(-0.0105732 0.00349409 9.74205e-18)
(-0.0096218 0.00623762 3.09834e-21)
(-0.0106298 0.00612804 9.41763e-18)
(-0.0113957 0.00488859 -4.64822e-18)
(-0.0112569 0.00278226 9.18975e-18)
(-0.0100646 0.000804607 0)
(-0.00791313 -0.000199023 0)
(-0.00539491 -0.000629219 -6.56843e-23)
(-0.00310152 -0.000793937 0)
(-0.00127598 -0.000812488 -4.51818e-18)
(-5.48172e-05 -0.000749259 0)
(0.000640676 -0.000668773 4.52741e-18)
(0.00103756 -0.000654757 0)
(0.0013265 -0.000661286 0)
(0.00160217 -0.000587619 0)
(0.00188028 -0.000477423 1.14979e-18)
(0.00214476 -0.000388567 0)
(0.0023842 -0.000349933 -5.83581e-19)
(0.00258515 -0.00034901 1.94767e-14)
(0.00272212 -0.000364349 1.94632e-14)
(0.00278703 -0.000398726 6.01854e-19)
(0.00272363 -0.000490032 -6.09353e-19)
(0.00253324 -0.000628714 0)
(0.00221521 -0.000783585 2.50655e-18)
(0.00174961 -0.00093183 0)
(0.00110297 -0.00106118 -2.58907e-18)
(0.000234734 -0.00115904 0)
(-0.000910089 -0.00120935 -5.35882e-18)
(-0.00238073 -0.00123242 2.7228e-18)
(-0.00421496 -0.00131639 0)
(-0.00649836 -0.00150717 0)
(-0.00938858 -0.00171461 -2.85782e-18)
(-0.013208 -0.00162941 0)
(-0.0185723 -0.000659686 2.93596e-18)
(-0.0264628 0.00189374 0)
(-0.0381678 0.00632463 5.91891e-18)
(-0.0550789 0.0120892 -5.86792e-18)
(-0.0783452 0.0177934 5.74575e-18)
(-0.108321 0.0215293 -2.74363e-18)
(-0.144095 0.02143 0)
(-0.183555 0.0162943 2.33033e-18)
(-0.223771 0.00598608 -2.07272e-18)
(-0.260996 -0.00844848 -4.07685e-18)
(-0.290392 -0.0247832 3.29812e-18)
(-0.307086 -0.0397866 -3.2524e-18)
(-0.309553 -0.0502665 3.47826e-18)
(-0.303149 -0.0562898 -3.96935e-18)
(-0.28812 -0.0592004 4.77657e-18)
(-0.265575 -0.0600315 -1.21357e-20)
(-0.236357 -0.0595146 7.17126e-18)
(-0.200888 -0.0578508 0)
(-0.15935 -0.0550283 0)
(-0.112016 -0.0510371 7.58565e-20)
(-0.0596383 -0.0459185 0)
(-0.00348968 -0.0396079 1.99192e-17)
(0.0562448 -0.0317704 0)
(0.119813 -0.0222638 1.98888e-17)
(0.186742 -0.0112492 -4.87789e-19)
(0.256288 0.00103043 1.71669e-17)
(0.329766 0.0142737 2.98637e-17)
(0.403688 0.0281072 7.3394e-19)
(0.491247 0.0420762 -1.01465e-17)
(0.5571 0.0545352 -6.52905e-18)
(0.713549 0.0652389 0)
(1.0153 0.210384 0)
(0.944633 0.194211 0)
(0.804475 0.179983 -3.52954e-18)
(0.654422 0.152313 7.28956e-18)
(0.509224 0.111169 0)
(0.360042 0.0683704 -7.29076e-18)
(0.216493 0.0293252 0)
(0.0821323 -0.00530894 0)
(-0.0282879 -0.01804 0)
(-0.0562034 -0.0189156 -1.7314e-17)
(-0.0667324 -0.0249882 1.57511e-17)
(-0.0718834 -0.0159767 1.44478e-17)
(-0.0637615 0.00640361 0)
(-0.0508838 0.0207201 6.32471e-18)
(-0.05451 0.00998916 0)
(-0.0483044 -0.00293938 0)
(-0.0376346 -0.0040271 0)
(-0.0329313 -0.0010971 5.27149e-18)
(-0.036702 0.000899046 -1.03393e-17)
(-0.0388883 0.000900524 -5.09286e-18)
(-0.0395819 7.02956e-05 0)
(-0.0384895 -0.00112696 0)
(-0.0357708 -0.00235169 0)
(-0.0325257 -0.00294074 -7.41541e-18)
(-0.0293641 -0.00273981 0)
(-0.0265518 -0.00193984 4.95237e-18)
(-0.0243332 -0.000876832 2.48364e-18)
(-0.0228757 3.54884e-06 0)
(-0.0222439 0.000374826 0)
(-0.022303 0.000405146 0)
(-0.0228735 0.000226945 0)
(-0.0237264 3.38743e-05 -6.32905e-19)
(-0.0246905 -0.000125582 0)
(-0.0257064 -0.000218817 3.20358e-19)
(-0.026794 -0.00020754 1.61399e-19)
(-0.0280234 -7.3989e-05 0)
(-0.0294382 0.000164487 0)
(-0.0310666 0.000475304 6.62996e-19)
(-0.0329696 0.000838487 0)
(-0.0351661 0.00125021 -1.3529e-18)
(-0.0376709 0.00171563 0)
(-0.0404891 0.00224515 -1.38256e-18)
(-0.0436262 0.0028455 0)
(-0.047084 0.00350895 1.41377e-18)
(-0.0508502 0.00422377 1.43089e-18)
(-0.0548947 0.0050306 0)
(-0.0591906 0.00611607 0)
(-0.0637368 0.00785703 -2.97283e-18)
(-0.0685275 0.0107728 0)
(-0.0735317 0.0154643 1.45686e-20)
(-0.0787757 0.0224617 0)
(-0.0844669 0.031896 0)
(-0.0909685 0.043065 0)
(-0.0986003 0.0543138 0)
(-0.107099 0.0632899 6.03435e-18)
(-0.114931 0.0675236 0)
(-0.119661 0.0650394 -5.48355e-18)
(-0.119354 0.054961 2.65172e-18)
(-0.112543 0.0382728 -2.30631e-18)
(-0.0953141 0.0177723 -4.87138e-18)
(-0.0635657 -0.00478019 5.01576e-18)
(-0.0455959 -0.0307654 -5.53193e-18)
(-0.0203445 -0.0514061 6.47708e-18)
(0.00753299 -0.0661065 0)
(0.0384814 -0.0764576 -1.29319e-17)
(0.0729722 -0.0839116 -9.6564e-18)
(0.111773 -0.0891736 0)
(0.155061 -0.0922336 5.74057e-18)
(0.20246 -0.0927946 1.2567e-17)
(0.253377 -0.0906506 0)
(0.307148 -0.0857149 0)
(0.363191 -0.0779759 0)
(0.421034 -0.0675798 0)
(0.480417 -0.0548692 -1.36239e-17)
(0.541094 -0.0403846 5.93836e-18)
(0.603925 -0.0247906 -1.17711e-17)
(0.667334 -0.00902219 1.01614e-17)
(0.739108 0.00588655 -3.46809e-18)
(0.796011 0.0175066 0)
(0.911675 0.022989 0)
(0.978489 0.201538 0)
(0.978854 0.193006 -2.78635e-18)
(0.969154 0.205111 3.482e-18)
(0.939083 0.208532 -3.061e-18)
(0.878034 0.194606 2.8856e-18)
(0.785605 0.168719 2.84366e-18)
(0.669349 0.138081 0)
(0.541012 0.106021 0)
(0.40822 0.0750633 0)
(0.285943 0.0459344 6.86792e-18)
(0.173879 0.018021 0)
(0.0721776 -0.00640551 0)
(-0.0214749 -0.0141535 0)
(-0.046911 -0.00385609 -7.18583e-18)
(-0.0508324 -0.011681 0)
(-0.058695 -0.0181541 -6.05226e-18)
(-0.0592965 -0.011255 0)
(-0.0481144 0.00906191 5.87727e-18)
(-0.0464828 0.0164822 2.87333e-18)
(-0.0509061 0.0125866 0)
(-0.0532634 0.00614803 -2.79032e-18)
(-0.0550511 -0.000293312 0)
(-0.0556676 -0.00469842 0)
(-0.0547668 -0.00653186 5.437e-18)
(-0.0532162 -0.00660744 0)
(-0.0520381 -0.00572541 1.35842e-18)
(-0.051839 -0.00421774 -4.07792e-18)
(-0.0526355 -0.00222659 0)
(-0.0539975 -0.000214166 0)
(-0.0554756 0.0012472 -6.81651e-19)
(-0.0570783 0.00219128 0)
(-0.0587865 0.00270727 1.21114e-22)
(-0.0605224 0.00294064 0)
(-0.0622415 0.00305712 6.9096e-19)
(-0.0639518 0.00322082 8.69212e-20)
(-0.0657287 0.00348939 0)
(-0.0676342 0.00385126 1.7642e-19)
(-0.0696859 0.00426618 -3.55757e-19)
(-0.0718675 0.00472474 -3.58923e-19)
(-0.0741482 0.00522737 -7.2471e-19)
(-0.0764909 0.00577652 7.32151e-19)
(-0.0788561 0.00637673 7.39714e-19)
(-0.0812101 0.00702623 0)
(-0.0835079 0.00770205 1.51654e-18)
(-0.0856365 0.00837345 -3.07578e-18)
(-0.0873364 0.00906333 0)
(-0.0881933 0.00995578 -1.59169e-18)
(-0.0877349 0.0114493 3.24723e-18)
(-0.0854329 0.0140245 0)
(-0.0806359 0.0182672 -1.69928e-18)
(-0.0726451 0.0246716 1.78412e-18)
(-0.060962 0.0335028 -1.85118e-18)
(-0.0452307 0.0438568 -1.91974e-18)
(-0.0254182 0.0541815 0)
(-0.00173823 0.0622419 -3.94585e-18)
(0.0258574 0.0654908 -1.88622e-18)
(0.057274 0.0616313 1.63551e-18)
(0.0907047 0.0498181 1.52985e-18)
(0.124585 0.0290931 2.56423e-18)
(0.156314 0.00225902 0)
(0.186371 -0.0241538 0)
(0.214005 -0.0461828 0)
(0.242176 -0.0645256 -1.31037e-18)
(0.273836 -0.0802992 0)
(0.309907 -0.0940344 3.21817e-18)
(0.349822 -0.105678 0)
(0.392634 -0.114867 -1.98815e-18)
(0.437458 -0.121132 -4.46676e-18)
(0.483495 -0.124055 0)
(0.530073 -0.123404 -2.47739e-18)
(0.576712 -0.11919 2.58176e-18)
(0.623156 -0.11169 0)
(0.669355 -0.101431 0)
(0.715502 -0.0891107 0)
(0.761838 -0.0755679 -5.41307e-18)
(0.809242 -0.0617201 0)
(0.857011 -0.0487484 -1.88603e-18)
(0.910089 -0.0377544 3.36985e-18)
(0.952972 -0.0311064 0)
(1.03531 -0.0301942 3.93378e-19)
(0.970611 0.209117 0)
(0.963917 0.194765 1.52544e-18)
(0.96643 0.198514 0)
(0.977152 0.206407 1.69466e-18)
(0.982034 0.208884 -3.00451e-18)
(0.968293 0.204266 -1.34118e-18)
(0.930748 0.193726 0)
(0.870757 0.177878 0)
(0.79113 0.156581 0)
(0.695411 0.131331 1.35116e-18)
(0.58948 0.10541 1.38294e-18)
(0.48005 0.0807 0)
(0.369264 0.0579965 0)
(0.266647 0.0376065 0)
(0.17965 0.0185395 0)
(0.100391 0.00267259 6.40138e-18)
(0.0300554 -0.0099326 -3.3876e-18)
(-0.0310551 -0.00938019 0)
(-0.0328213 0.00100966 -3.28309e-18)
(-0.0347032 0.00245917 1.61859e-18)
(-0.0346429 0.00136225 3.21134e-18)
(-0.0358988 -0.00129807 0)
(-0.0391066 -0.00397831 0)
(-0.043488 -0.00523546 -3.1204e-18)
(-0.0472005 -0.00435534 0)
(-0.0494963 -0.00165757 -1.54402e-18)
(-0.0511765 0.00173537 1.54356e-18)
(-0.0536859 0.00425231 0)
(-0.0558303 0.00542672 0)
(-0.0580872 0.00597205 7.66975e-19)
(-0.060042 0.00603551 0)
(-0.0616768 0.0057589 -7.70034e-19)
(-0.0629406 0.00530885 0)
(-0.0638168 0.00486243 -1.94804e-19)
(-0.0644335 0.00465741 -9.81426e-20)
(-0.0648804 0.00477867 -2.47612e-20)
(-0.0651813 0.00517977 -3.00017e-19)
(-0.0652396 0.00578389 4.04355e-19)
(-0.0649712 0.00648326 4.09347e-19)
(-0.0643045 0.00721166 1.2452e-18)
(-0.0631562 0.00794298 -4.21201e-19)
(-0.0614385 0.00865974 4.28465e-19)
(-0.0590881 0.00933022 0)
(-0.0560485 0.00987948 8.91873e-19)
(-0.0522056 0.0101347 9.13583e-19)
(-0.0472522 0.00980086 0)
(-0.040717 0.00851052 1.93661e-18)
(-0.0327056 0.00622115 1.00048e-18)
(-0.0224909 0.0036783 0)
(-0.00985849 0.00149071 -3.26755e-18)
(0.00665586 0.000235665 -2.23629e-18)
(0.0280937 0.000511846 1.1089e-18)
(0.0543536 0.0021382 2.17244e-18)
(0.0860428 0.00422174 0)
(0.123179 0.005214 9.82992e-19)
(0.164907 0.00329675 2.68557e-18)
(0.209934 -0.00310336 1.5867e-18)
(0.256164 -0.0144989 -1.38956e-18)
(0.303059 -0.0297475 -6.41942e-19)
(0.348931 -0.0472186 0)
(0.393271 -0.0661207 0)
(0.436073 -0.0851555 0)
(0.478201 -0.103246 1.71082e-18)
(0.520446 -0.119748 6.45335e-19)
(0.562729 -0.134167 0)
(0.604379 -0.145948 -1.56532e-18)
(0.644686 -0.154521 1.74189e-18)
(0.683153 -0.15945 -1.87629e-18)
(0.719534 -0.160525 -2.02459e-18)
(0.753821 -0.157801 1.27404e-19)
(0.786235 -0.151591 -2.42377e-18)
(0.8172 -0.142431 0)
(0.847273 -0.13102 0)
(0.877128 -0.118149 0)
(0.907374 -0.104678 0)
(0.938918 -0.091485 0)
(0.971424 -0.0796156 3.67953e-18)
(1.00823 -0.0699108 -1.34647e-18)
(1.03847 -0.0642885 0)
(1.09572 -0.0625855 -4.24122e-19)
(0.972988 0.216082 0)
(0.965831 0.201808 1.87123e-18)
(0.959206 0.1956 2.49288e-19)
(0.961489 0.195546 1.90764e-18)
(0.972668 0.197536 0)
(0.985519 0.199235 -1.60783e-18)
(0.992497 0.199295 0)
(0.988452 0.196253 -3.62616e-19)
(0.970218 0.189033 0)
(0.935631 0.177562 -1.60616e-18)
(0.884731 0.162749 -1.24326e-18)
(0.819618 0.145667 -3.1551e-19)
(0.743324 0.126729 3.13198e-19)
(0.658087 0.106111 0)
(0.569157 0.0852835 3.13254e-19)
(0.47934 0.066243 0)
(0.393492 0.0502679 2.65495e-18)
(0.314101 0.0363412 -3.51402e-19)
(0.247074 0.0242755 0)
(0.192398 0.014726 -1.89992e-18)
(0.147776 0.00792398 0)
(0.110713 0.00340977 0)
(0.07988 0.000822639 0)
(0.0539891 -0.000616991 0)
(0.0324747 -0.00158392 -2.21739e-19)
(0.0157014 -0.00202587 0)
(0.00281491 -0.00138326 0)
(-0.0026397 0.000691204 1.15617e-19)
(-0.00512672 0.00211203 0)
(-0.00517791 0.00309867 0)
(-0.00385245 0.00365358 0)
(-0.00160007 0.00389835 -5.87553e-20)
(0.000988381 0.00395588 0)
(0.00445413 0.00374865 -2.67996e-19)
(0.00749157 0.00423455 0)
(0.0111595 0.00509848 3.01259e-20)
(0.0155781 0.00566741 1.51405e-19)
(0.0209104 0.00567052 3.04013e-20)
(0.0273296 0.00535336 -6.10041e-20)
(0.0349145 0.00484473 -4.89273e-19)
(0.043834 0.00413096 -4.89795e-19)
(0.0543092 0.00317517 4.89581e-19)
(0.0665402 0.00194938 -1.22088e-19)
(0.0807177 0.00042186 -9.72732e-19)
(0.0970444 -0.00146145 9.6646e-19)
(0.115505 -0.00375669 -1.19833e-19)
(0.136308 -0.00654819 0)
(0.158915 -0.0098926 -9.40037e-19)
(0.183494 -0.0137301 0)
(0.210114 -0.0179 9.20255e-19)
(0.238775 -0.0220601 0)
(0.2697 -0.0260897 8.98683e-19)
(0.303216 -0.0299666 0)
(0.339689 -0.0339128 -2.12515e-19)
(0.379347 -0.0384563 -8.07025e-19)
(0.422076 -0.044349 -7.48339e-19)
(0.467283 -0.0523573 1.73748e-19)
(0.513898 -0.0630236 0)
(0.560506 -0.0766392 5.43078e-19)
(0.605682 -0.0926687 -1.37064e-19)
(0.648559 -0.110113 0)
(0.688729 -0.127603 1.36803e-19)
(0.726062 -0.143873 -5.3319e-19)
(0.760484 -0.158059 -5.89104e-19)
(0.791809 -0.16958 0)
(0.819819 -0.177982 1.4781e-18)
(0.844444 -0.182932 0)
(0.865864 -0.18429 1.83477e-18)
(0.884508 -0.182138 2.01337e-18)
(0.900997 -0.176772 2.17849e-18)
(0.916086 -0.168665 2.71144e-19)
(0.930601 -0.158423 0)
(0.945363 -0.14673 0)
(0.961163 -0.134308 0)
(0.978612 -0.121896 -2.69948e-19)
(0.998452 -0.110217 0)
(1.02031 -0.100073 -1.67616e-18)
(1.04667 -0.0921092 1.65055e-18)
(1.06869 -0.0875432 1.0405e-19)
(1.11235 -0.0863147 4.51172e-20)
(0.974194 0.218514 -1.23265e-18)
(0.970935 0.206364 1.19305e-18)
(0.965119 0.198172 -2.82091e-19)
(0.961139 0.194112 0)
(0.962197 0.191942 0)
(0.96826 0.190544 0)
(0.977772 0.189885 0)
(0.988502 0.189481 1.25269e-18)
(0.997432 0.188308 0)
(1.00093 0.185358 -1.11995e-18)
(0.995773 0.179955 -1.3961e-18)
(0.979839 0.171905 3.20101e-19)
(0.952675 0.161434 9.67066e-19)
(0.914336 0.148646 0)
(0.865647 0.133742 -1.47593e-18)
(0.80825 0.117845 0)
(0.746069 0.102471 -1.1799e-18)
(0.683645 0.0879748 2.95111e-19)
(0.622836 0.0743862 -1.23445e-18)
(0.565748 0.0621127 -9.50604e-19)
(0.513196 0.0513536 0)
(0.465534 0.0420953 0)
(0.422937 0.0342189 -6.83319e-19)
(0.385359 0.0276174 0)
(0.352664 0.0221562 -5.42556e-19)
(0.324642 0.0176577 0)
(0.300893 0.0138548 0)
(0.281189 0.010482 -9.56156e-20)
(0.265389 0.00757267 0)
(0.253153 0.00512871 0)
(0.244127 0.00307958 0)
(0.238027 0.00134537 5.05372e-20)
(0.234531 -0.000145784 2.04864e-19)
(0.233687 -0.00138071 1.29092e-19)
(0.235265 -0.00282151 0)
(0.239354 -0.00442543 0)
(0.245905 -0.00606638 -2.59772e-20)
(0.254814 -0.00777702 -1.3013e-19)
(0.26603 -0.00965088 5.17e-20)
(0.279461 -0.0117616 0)
(0.295019 -0.0141595 0)
(0.31263 -0.0168829 -2.03972e-19)
(0.332217 -0.0199643 1.00403e-19)
(0.353695 -0.0234402 -4.00513e-19)
(0.376953 -0.0273534 3.96343e-19)
(0.401835 -0.031746 9.69919e-20)
(0.428135 -0.0366256 0)
(0.455615 -0.0418646 3.84719e-19)
(0.484106 -0.0473272 0)
(0.51347 -0.0528608 0)
(0.543608 -0.0583001 0)
(0.574526 -0.0635475 0)
(0.606314 -0.0686426 0)
(0.639068 -0.0738233 1.78531e-19)
(0.672791 -0.0795359 0)
(0.707278 -0.0863559 6.70681e-19)
(0.742041 -0.0948346 -1.52709e-19)
(0.776312 -0.105306 0)
(0.809147 -0.117704 5.79813e-19)
(0.839617 -0.131433 1.27556e-19)
(0.866993 -0.145574 5.66136e-19)
(0.890809 -0.159125 -1.32067e-19)
(0.910864 -0.171198 0)
(0.927181 -0.181141 -6.61573e-19)
(0.93994 -0.188519 0)
(0.949456 -0.193059 0)
(0.956198 -0.194636 -8.53631e-19)
(0.960807 -0.19329 0)
(0.964059 -0.189228 0)
(0.966796 -0.182799 -1.06469e-18)
(0.969862 -0.174461 -2.9598e-19)
(0.974049 -0.164738 0)
(0.980049 -0.154196 0)
(0.988452 -0.143404 0)
(0.999639 -0.132934 3.01621e-19)
(1.01409 -0.123333 -1.03113e-18)
(1.03125 -0.115179 -2.40279e-19)
(1.05319 -0.108944 -1.88643e-19)
(1.07176 -0.105342 -1.17845e-19)
(1.11021 -0.10449 -2.40815e-19)
(0.974501 0.21901 4.35567e-18)
(0.973757 0.208036 -4.18234e-18)
(0.971714 0.200425 0)
(0.969159 0.196211 -2.53747e-18)
(0.967053 0.192937 0)
(0.966166 0.189312 -2.23743e-18)
(0.967419 0.185818 0)
(0.971669 0.183008 2.97955e-18)
(0.978978 0.18073 -3.69953e-18)
(0.988283 0.178484 1.68923e-18)
(0.99769 0.175773 1.57926e-18)
(1.00497 0.172151 0)
(1.00811 0.167266 -4.27188e-18)
(1.00544 0.1607 -2.72091e-18)
(0.995587 0.152111 3.82442e-18)
(0.977795 0.141797 0)
(0.953045 0.130626 1.17144e-18)
(0.923753 0.119347 0)
(0.891694 0.108146 1.16793e-18)
(0.858157 0.0970049 1.16764e-18)
(0.824182 0.0861316 0)
(0.790759 0.0758046 0)
(0.758769 0.0662286 -6.39465e-19)
(0.728883 0.0575093 0)
(0.701547 0.0496298 6.21038e-19)
(0.676995 0.0425048 0)
(0.655349 0.0360387 0)
(0.636641 0.0301435 0)
(0.620902 0.0247284 0)
(0.608067 0.0197093 0)
(0.59806 0.0150082 0)
(0.590807 0.0105576 0)
(0.58623 0.00628865 1.77045e-19)
(0.584205 0.00214008 -8.59158e-20)
(0.584499 -0.00203211 4.39965e-20)
(0.587222 -0.00625866 0)
(0.59228 -0.0105181 0)
(0.599483 -0.0148264 8.62447e-20)
(0.608683 -0.0192344 -3.52019e-19)
(0.619746 -0.0237834 3.51495e-19)
(0.632528 -0.0285 0)
(0.64687 -0.0334044 8.71089e-19)
(0.662606 -0.0385131 -6.98662e-19)
(0.679556 -0.0438389 -3.57545e-19)
(0.697526 -0.0493888 -3.38673e-19)
(0.716302 -0.0551552 0)
(0.735655 -0.0610982 0)
(0.755355 -0.0671291 -1.03433e-18)
(0.77521 -0.0731474 0)
(0.795073 -0.0790541 0)
(0.814857 -0.0847648 0)
(0.834541 -0.0902549 7.05188e-19)
(0.854156 -0.0956088 1.40842e-18)
(0.873729 -0.10104 0)
(0.893214 -0.106875 0)
(0.912425 -0.113486 -6.49385e-19)
(0.93099 -0.12118 0)
(0.948368 -0.130085 1.29289e-18)
(0.963916 -0.140056 6.86033e-19)
(0.977014 -0.150662 0)
(0.987198 -0.161279 6.99098e-19)
(0.994258 -0.17122 1.33304e-18)
(0.998256 -0.179847 1.40446e-18)
(0.999492 -0.186668 7.13261e-19)
(0.998434 -0.191363 -1.61496e-18)
(0.995658 -0.193774 1.74596e-18)
(0.991821 -0.193874 2.83259e-18)
(0.987634 -0.191758 0)
(0.983826 -0.187635 0)
(0.981094 -0.181803 1.19639e-18)
(0.98006 -0.174626 0)
(0.981253 -0.16651 2.50158e-18)
(0.985089 -0.157887 2.53443e-18)
(0.9919 -0.149198 0)
(1.00185 -0.140886 2.40438e-18)
(1.01522 -0.13338 -1.04192e-18)
(1.03138 -0.127115 0)
(1.05222 -0.122435 0)
(1.06988 -0.119779 0)
(1.1068 -0.119345 -1.93195e-19)
(0.974733 0.218938 -3.35531e-18)
(0.975458 0.208201 3.212e-18)
(0.976056 0.201058 -6.23814e-18)
(0.975936 0.197366 2.86989e-18)
(0.974875 0.19446 0)
(0.9732 0.190786 2.53046e-18)
(0.971487 0.186584 -4.844e-18)
(0.970472 0.182339 -4.49109e-18)
(0.970994 0.17813 -7.92478e-20)
(0.973704 0.17395 0)
(0.978806 0.169868 0)
(0.985964 0.165856 3.59728e-18)
(0.994363 0.161685 3.29245e-18)
(1.00284 0.15694 -3.27823e-18)
(1.00995 0.151228 -8.89983e-18)
(1.01427 0.144451 0)
(1.01489 0.136908 0)
(1.01186 0.128902 0)
(1.00564 0.120422 0)
(0.996716 0.11145 0)
(0.985582 0.102194 0)
(0.972869 0.0929294 0)
(0.959258 0.0838688 1.24038e-18)
(0.945383 0.0751264 -2.58712e-18)
(0.931766 0.0667363 0)
(0.918814 0.0586983 0)
(0.906847 0.0510042 0)
(0.896107 0.0436242 0)
(0.886758 0.0364987 0)
(0.8789 0.0295849 -6.62349e-19)
(0.872597 0.0228558 0)
(0.867885 0.0162835 0)
(0.864766 0.0098339 1.26101e-20)
(0.863185 0.0034433 0)
(0.863048 -0.00275184 -4.10431e-20)
(0.864308 -0.00881329 0)
(0.866877 -0.0148273 1.7077e-19)
(0.870631 -0.0208272 0)
(0.875455 -0.0268306 6.72521e-19)
(0.881238 -0.032854 -3.30557e-19)
(0.88786 -0.0389089 -6.88641e-19)
(0.895188 -0.0450015 -6.64704e-19)
(0.903085 -0.0511322 6.67126e-19)
(0.911406 -0.0572971 6.70071e-19)
(0.920002 -0.0634855 1.40138e-18)
(0.928719 -0.0696759 1.4106e-18)
(0.937408 -0.0758289 0)
(0.945932 -0.0818831 -7.44267e-19)
(0.954191 -0.0877687 0)
(0.962131 -0.0934245 0)
(0.969747 -0.0988156 -1.48148e-18)
(0.977077 -0.103959 -7.24043e-19)
(0.984181 -0.10895 4.75923e-20)
(0.991105 -0.113967 0)
(0.997828 -0.119254 0)
(1.00422 -0.125068 0)
(1.01003 -0.131611 1.49281e-18)
(1.0149 -0.138954 -1.39846e-18)
(1.01841 -0.146984 -1.38766e-18)
(1.02022 -0.155398 0)
(1.02009 -0.163743 -1.42615e-18)
(1.01805 -0.171511 9.51787e-20)
(1.01428 -0.17823 -1.57431e-18)
(1.00917 -0.183536 1.75589e-18)
(1.00321 -0.187197 -4.74609e-20)
(0.996947 -0.189103 -1.97837e-18)
(0.990922 -0.189242 -2.1427e-18)
(0.985676 -0.187683 0)
(0.981707 -0.18457 0)
(0.979454 -0.180116 0)
(0.979284 -0.174586 0)
(0.981491 -0.16829 -2.83887e-18)
(0.986299 -0.161573 -2.87432e-18)
(0.993899 -0.154802 0)
(1.00436 -0.148353 -2.72465e-18)
(1.01794 -0.142589 4.91128e-18)
(1.03402 -0.137865 0)
(1.05446 -0.134423 0)
(1.07175 -0.132576 0)
(1.10764 -0.132354 9.13987e-19)
(0.975035 0.218502 8.34188e-18)
(0.977127 0.207476 0)
(0.979623 0.200809 1.42781e-17)
(0.980942 0.19772 0)
(0.980747 0.195178 6.21495e-18)
(0.979838 0.19182 0)
(0.978655 0.187904 5.474e-18)
(0.977181 0.183662 0)
(0.975604 0.178993 -5.03757e-18)
(0.974439 0.173897 0)
(0.97427 0.168549 8.88261e-18)
(0.975577 0.163112 -4.1119e-18)
(0.978659 0.157621 0)
(0.983537 0.151978 7.30899e-18)
(0.989866 0.146033 -1.87029e-19)
(0.996991 0.139703 -6.68318e-18)
(1.00405 0.133126 6.4773e-18)
(1.01036 0.12639 0)
(1.01554 0.119354 0)
(1.01936 0.111922 6.08755e-18)
(1.02166 0.104163 0)
(1.02251 0.0962153 -2.96152e-18)
(1.02211 0.0881975 0)
(1.02073 0.0801845 2.80505e-18)
(1.01865 0.0722204 0)
(1.01612 0.064333 2.89693e-18)
(1.01339 0.0565383 0)
(1.01063 0.048835 0)
(1.008 0.0412127 1.44747e-18)
(1.00562 0.0336719 6.95702e-19)
(1.00358 0.0262205 0)
(1.00194 0.0188627 0)
(1.00072 0.0116005 -1.08755e-18)
(0.999973 0.00443614 0)
(0.999639 -0.00253853 0)
(0.999694 -0.0093798 0)
(1.00013 -0.0161509 -1.78052e-19)
(1.00089 -0.0228651 0)
(1.00194 -0.0295181 -1.10543e-18)
(1.00322 -0.0361092 -7.50424e-19)
(1.00466 -0.0426386 7.24418e-19)
(1.00621 -0.0491031 0)
(1.0078 -0.0554962 0)
(1.00937 -0.0618083 1.54298e-18)
(1.01084 -0.0680266 -1.49745e-18)
(1.01217 -0.0741318 -1.51421e-18)
(1.01329 -0.0800953 0)
(1.01418 -0.0858784 -5.80782e-20)
(1.01484 -0.0914411 1.63494e-18)
(1.01528 -0.096756 0)
(1.01558 -0.101822 1.6282e-18)
(1.01581 -0.106682 1.70334e-18)
(1.01606 -0.111429 -1.66988e-18)
(1.0164 -0.116213 0)
(1.01682 -0.121224 0)
(1.01725 -0.126647 0)
(1.01751 -0.132626 -1.68029e-18)
(1.01736 -0.1392 0)
(1.01655 -0.14628 0)
(1.01486 -0.153637 0)
(1.01218 -0.160938 3.65791e-18)
(1.00856 -0.167804 -1.80173e-18)
(1.00418 -0.17388 0)
(0.999352 -0.178877 -2.00269e-18)
(0.994432 -0.182592 -2.22525e-18)
(0.989805 -0.184905 4.61838e-18)
(0.985841 -0.185767 -4.89429e-18)
(0.98288 -0.185197 -5.17642e-18)
(0.981227 -0.183277 0)
(0.981142 -0.180156 -5.70033e-18)
(0.982845 -0.176043 0)
(0.986528 -0.171199 0)
(0.992354 -0.165934 0)
(1.0005 -0.160586 5.99329e-18)
(1.01106 -0.155505 -5.73972e-18)
(1.02433 -0.151027 -8.00323e-18)
(1.03982 -0.14745 0)
(1.05938 -0.144941 3.60951e-18)
(1.07592 -0.143705 0)
(1.11026 -0.143557 -1.5048e-18)
(0.975434 0.21769 -9.46225e-18)
(0.979143 0.20609 -9.21068e-18)
(0.983423 0.200245 -1.64445e-17)
(0.98558 0.197996 0)
(0.985486 0.195678 -1.41313e-17)
(0.984786 0.192413 -6.73197e-18)
(0.9842 0.188726 0)
(0.983452 0.184719 1.19981e-17)
(0.982353 0.180193 1.12003e-17)
(0.981033 0.175095 0)
(0.979702 0.169516 -1.00457e-17)
(0.978603 0.163553 0)
(0.97805 0.15727 0)
(0.978376 0.150691 8.71045e-18)
(0.979804 0.14382 8.07321e-18)
(0.982396 0.13669 -1.82318e-19)
(0.986006 0.129512 1.84344e-19)
(0.990362 0.12244 0)
(0.995174 0.115376 0)
(1.0001 0.108199 -6.97545e-18)
(1.00479 0.100887 -7.06627e-18)
(1.00904 0.0934787 1.03565e-17)
(1.01274 0.0860186 3.45184e-18)
(1.01588 0.078537 3.42359e-18)
(1.01848 0.0710515 0)
(1.02058 0.0635716 -3.27242e-18)
(1.02225 0.0561017 0)
(1.02354 0.0486424 0)
(1.02449 0.0411941 -3.30613e-18)
(1.02515 0.0337642 0)
(1.02555 0.0263661 0)
(1.02574 0.0190147 0)
(1.02573 0.011727 8.20366e-19)
(1.02555 0.00453579 -4.27753e-19)
(1.02527 -0.00254317 2.13741e-19)
(1.02488 -0.00951131 0)
(1.02441 -0.0163842 0)
(1.02388 -0.0231667 0)
(1.02327 -0.0298549 8.34021e-19)
(1.02258 -0.0364461 8.38829e-19)
(1.0218 -0.0429388 -1.75005e-18)
(1.02092 -0.04933 0)
(1.01993 -0.0556142 0)
(1.01883 -0.0617847 -3.53042e-18)
(1.01761 -0.0678323 -1.81426e-18)
(1.01628 -0.0737446 0)
(1.01483 -0.079504 0)
(1.0133 -0.0850889 1.8255e-18)
(1.01172 -0.0904797 5.63391e-20)
(1.01014 -0.0956688 0)
(1.00865 -0.100671 0)
(1.00733 -0.105531 -1.93745e-18)
(1.00625 -0.110334 0)
(1.00547 -0.115201 0)
(1.00498 -0.120275 0)
(1.00471 -0.125697 0)
(1.00453 -0.131568 0)
(1.00427 -0.137915 -4.16305e-18)
(1.00374 -0.144669 0)
(1.00277 -0.151653 0)
(1.00128 -0.158613 1.67434e-19)
(0.999294 -0.165249 0)
(0.996926 -0.171262 0)
(0.99437 -0.176392 0)
(0.991864 -0.180437 9.98283e-18)
(0.989655 -0.183257 -5.23199e-18)
(0.987979 -0.184773 5.5368e-18)
(0.987053 -0.184971 1.47766e-20)
(0.987074 -0.1839 0)
(0.988223 -0.181677 6.4306e-18)
(0.990675 -0.178486 -6.54974e-18)
(0.99461 -0.174577 0)
(1.00022 -0.170247 0)
(1.00772 -0.165835 -1.45928e-19)
(1.0173 -0.161684 6.48924e-18)
(1.02935 -0.158116 5.98037e-18)
(1.04348 -0.155386 0)
(1.0616 -0.153614 -4.09718e-18)
(1.07701 -0.152826 0)
(1.10951 -0.15276 1.1342e-18)
(0.975986 0.216474 0)
(0.981692 0.204215 2.12177e-17)
(0.987769 0.199647 1.88246e-17)
(0.990441 0.198411 0)
(0.990122 0.196236 8.03078e-18)
(0.989271 0.192974 -7.77134e-18)
(0.988772 0.189389 0)
(0.988281 0.185463 -1.35668e-17)
(0.987611 0.180999 0)
(0.986852 0.175995 0)
(0.98604 0.170512 0)
(0.985145 0.164577 0)
(0.984206 0.1582 0)
(0.983343 0.151386 1.82805e-19)
(0.982702 0.144142 -9.52998e-18)
(0.982426 0.13652 -1.82177e-19)
(0.98266 0.128776 1.8359e-19)
(0.9835 0.121146 0)
(0.984945 0.113609 0)
(0.986874 0.106091 0)
(0.989103 0.0985722 -2.02548e-19)
(0.991462 0.0910736 2.06466e-19)
(0.993841 0.0836209 -3.95283e-18)
(0.996166 0.0762242 -3.92166e-18)
(0.998381 0.0688805 0)
(1.00044 0.0615804 -3.98608e-18)
(1.00231 0.0543145 3.97353e-18)
(1.00397 0.0470744 0)
(1.00538 0.0398546 1.92541e-18)
(1.00655 0.0326562 1.98356e-18)
(1.00745 0.0254879 0)
(1.00808 0.0183641 0)
(1.00845 0.0112995 1.00236e-18)
(1.00859 0.00433119 -1.48561e-20)
(1.00854 -0.00257339 -4.94877e-19)
(1.00833 -0.00938605 0)
(1.00799 -0.0161009 0)
(1.00753 -0.0227257 -1.01143e-18)
(1.00697 -0.0292632 0)
(1.0063 -0.0357119 -1.02138e-18)
(1.00555 -0.0420701 -5.90205e-20)
(1.00473 -0.0483353 0)
(1.00383 -0.0545033 2.08829e-18)
(1.00289 -0.0605691 4.1566e-18)
(1.0019 -0.0665255 2.07068e-18)
(1.00089 -0.0723636 0)
(0.999866 -0.0780713 -4.35513e-18)
(0.998868 -0.0836353 0)
(0.997929 -0.0890454 -2.17806e-18)
(0.997101 -0.0943014 0)
(0.996442 -0.0994211 0)
(0.996011 -0.104447 0)
(0.99586 -0.109451 0)
(0.996015 -0.11453 0)
(0.996465 -0.119798 -4.7787e-18)
(0.99715 -0.125365 4.81061e-18)
(0.997963 -0.131307 0)
(0.99876 -0.137645 4.72422e-18)
(0.999388 -0.144318 -4.91568e-18)
(0.999713 -0.151185 0)
(0.999654 -0.15803 -4.91041e-18)
(0.999196 -0.164599 0)
(0.998395 -0.170623 0)
(0.997361 -0.175858 0)
(0.996233 -0.180099 -5.68185e-18)
(0.995163 -0.183195 6.0236e-18)
(0.994299 -0.185051 -6.29323e-18)
(0.993788 -0.185631 1.31458e-17)
(0.993784 -0.184971 -6.84364e-18)
(0.994455 -0.18318 0)
(0.995998 -0.18044 7.39615e-18)
(0.998645 -0.177008 -7.449e-18)
(1.00266 -0.173194 0)
(1.00838 -0.169345 -1.17062e-19)
(1.01606 -0.165809 -7.11073e-18)
(1.0262 -0.16291 0)
(1.03854 -0.160848 0)
(1.05506 -0.159747 -4.57281e-18)
(1.06927 -0.159315 0)
(1.10039 -0.159517 -1.28665e-18)
(0.976761 0.214804 0)
(0.984936 0.20201 -1.22242e-17)
(0.992771 0.199204 -1.07052e-17)
(0.995649 0.198991 0)
(0.994983 0.196871 1.84291e-17)
(0.993957 0.193635 1.74029e-17)
(0.993389 0.19014 0)
(0.992829 0.186205 1.56674e-17)
(0.992161 0.181685 -1.48779e-17)
(0.99156 0.176662 0)
(0.991075 0.171202 0)
(0.990636 0.165313 0)
(0.990183 0.158988 0)
(0.989696 0.15221 -1.13238e-17)
(0.989165 0.144966 -1.1128e-17)
(0.988598 0.137281 1.02287e-17)
(0.988069 0.129389 -3.0279e-17)
(0.9877 0.12154 0)
(0.987572 0.113753 0)
(0.98769 0.10599 9.70316e-18)
(0.988003 0.0982519 1.89773e-17)
(0.988459 0.0905695 -9.29185e-18)
(0.989025 0.0829724 0)
(0.989682 0.0754712 0)
(0.990408 0.068062 -4.65954e-18)
(0.991176 0.0607341 9.17957e-18)
(0.991956 0.0534757 -9.15679e-18)
(0.992717 0.046276 0)
(0.993431 0.0391256 0)
(0.994073 0.0320212 -2.2605e-18)
(0.994622 0.0249665 0)
(0.995062 0.0179692 2.33087e-18)
(0.995387 0.0110429 -1.14224e-18)
(0.99562 0.00418607 -1.44927e-20)
(0.99577 -0.00261203 -7.26681e-21)
(0.99584 -0.00932797 0)
(0.995846 -0.0159551 0)
(0.995804 -0.0225014 -2.90005e-20)
(0.995721 -0.0289711 1.18355e-18)
(0.9956 -0.0353625 3.53986e-18)
(0.995451 -0.0416734 4.72932e-18)
(0.995279 -0.0479013 2.41025e-18)
(0.995095 -0.0540432 -2.3712e-18)
(0.994906 -0.0600945 -2.39228e-18)
(0.99472 -0.0660495 2.473e-18)
(0.99455 -0.0719007 0)
(0.994409 -0.0776391 4.93762e-18)
(0.994318 -0.0832556 -5.1092e-18)
(0.994304 -0.0887442 0)
(0.994402 -0.0941082 0)
(0.994652 -0.0993659 0)
(0.995096 -0.104556 0)
(0.995764 -0.109739 0)
(0.996669 -0.114998 0)
(0.99779 -0.120425 5.39613e-18)
(0.999073 -0.126108 -1.09873e-17)
(1.00042 -0.132107 -5.59712e-18)
(1.00171 -0.138435 5.64053e-18)
(1.0028 -0.145036 5.54278e-18)
(1.00357 -0.151783 -5.76806e-18)
(1.00391 -0.158486 5.86738e-18)
(1.00378 -0.164912 0)
(1.00316 -0.170811 6.16417e-18)
(1.00209 -0.175945 -6.36478e-18)
(1.00064 -0.180108 0)
(0.998883 -0.183141 -1.36523e-17)
(0.99693 -0.184942 7.10462e-18)
(0.994917 -0.185476 -1.48601e-17)
(0.993021 -0.184786 7.74866e-18)
(0.991473 -0.182996 0)
(0.990559 -0.180311 8.23317e-18)
(0.990624 -0.177011 8.48794e-18)
(0.992051 -0.173426 -8.46279e-18)
(0.995275 -0.169921 -8.46481e-18)
(1.00067 -0.166843 8.15407e-18)
(1.00881 -0.164519 0)
(1.01948 -0.163087 0)
(1.0348 -0.162723 5.26329e-18)
(1.04821 -0.162661 0)
(1.07924 -0.163495 1.48458e-18)
(0.977833 0.212617 1.6209e-17)
(0.988995 0.19965 0)
(0.998472 0.199058 -2.40998e-17)
(1.00125 0.199733 2.18337e-17)
(1.00018 0.19759 -2.0821e-17)
(0.99903 0.194434 1.997e-17)
(0.998399 0.191033 0)
(0.997724 0.187058 1.60212e-19)
(0.996946 0.182455 1.67972e-17)
(0.996278 0.177367 0)
(0.995792 0.171857 0)
(0.995442 0.165931 0)
(0.995188 0.159586 2.77131e-17)
(0.995003 0.152813 0)
(0.994848 0.145595 2.46957e-17)
(0.994672 0.13794 0)
(0.994465 0.130056 4.61905e-17)
(0.994268 0.122182 0)
(0.994123 0.114345 0)
(0.994032 0.10652 -2.20861e-17)
(0.993975 0.0987124 -1.08169e-17)
(0.993934 0.0909553 0)
(0.993916 0.0832786 0)
(0.993934 0.075697 0)
(0.994001 0.0682111 5.26129e-18)
(0.99412 0.0608148 -5.24414e-18)
(0.994285 0.0534999 -1.07977e-19)
(0.994488 0.0462574 0)
(0.994717 0.0390786 5.33995e-18)
(0.994959 0.0319595 0)
(0.995202 0.024902 0)
(0.995436 0.01791 -2.63462e-18)
(0.995656 0.0109906 1.35021e-18)