/*--------------------------------*- C++ -*----------------------------------*\
| =========                 |                                                 |
| \\      /  F ield         | OpenFOAM: The Open Source CFD Toolbox           |
|  \\    /   O peration     | Version:  v1912                                 |
|   \\  /    A nd           | Website:  www.openfoam.com                      |
|    \\/     M anipulation  |                                                 |
\*---------------------------------------------------------------------------*/
FoamFile
{
    version     2.0;
    format      ascii;
    class       volScalarField;
    location    "175";
    object      epsilon;
}
// * * * * * * * * * * * * * * * * * * * * * * * * * * * * * * * * * * * * * //

dimensions      [0 2 -3 0 0 0 0];


internalField   nonuniform List<scalar> 
2000
(
0.0135126
0.0111845
0.00819021
0.00480135
0.00122147
0.000121663
9.66431e-05
0.000112688
0.000114492
8.64199e-05
5.14239e-05
3.40565e-05
3.81189e-05
4.29318e-05
4.87885e-05
5.77979e-05
7.04956e-05
8.65653e-05
0.000106311
0.000130611
0.000160629
0.000197745
0.000243496
0.000299478
0.000367194
0.000447859
0.00054224
0.000650558
0.000772469
0.00090713
0.00105331
0.00120955
0.00137427
0.00154598
0.0017234
0.00190574
0.00209287
0.00228569
0.00248656
0.00270021
0.0029243
0.00315211
0.00338414
0.00362136
0.0038642
0.00411262
0.00436622
0.00462435
0.00488617
0.00515077
0.00541714
0.00568427
0.00595116
0.00621676
0.00647796
0.00673414
0.00698513
0.00723125
0.00747482
0.007725
0.00801303
0.00832685
0.0086549
0.0089918
0.00933669
0.00969059
0.0100556
0.0104346
0.0108314
0.0112507
0.0116983
0.0121813
0.0127089
0.0132926
0.0139479
0.0146963
0.0155707
0.0166218
0.0179313
0.0198969
0.122256
0.0401411
0.0185261
0.0102232
0.00590903
0.00348124
0.0020649
0.00118801
0.00145566
0.000684575
0.000302242
0.000206081
0.00016508
0.000131342
0.000108527
0.000106276
0.000115858
0.000131022
0.000151201
0.000177007
0.000209215
0.000248873
0.000297291
0.000355917
0.000426212
0.00050951
0.000606884
0.000719041
0.000846266
0.000988362
0.00114464
0.00131394
0.00149469
0.00168508
0.00188323
0.00208747
0.0022965
0.00250922
0.00272455
0.00293818
0.00314914
0.00335943
0.00356955
0.00378031
0.00399198
0.00420436
0.0044169
0.00462886
0.00483934
0.00504743
0.00525222
0.00545311
0.00565031
0.00584717
0.00602965
0.00620127
0.00636295
0.00651492
0.00665778
0.00679303
0.0069224
0.00704538
0.0071623
0.00727342
0.00737933
0.00748109
0.00758019
0.00767848
0.00777814
0.00788172
0.00799207
0.00811243
0.0082464
0.0083977
0.00857049
0.00876608
0.00899064
0.00920973
0.00950787
0.00951091
0.111974
0.0306053
0.0126533
0.00692948
0.00433062
0.00288081
0.0020053
0.00147514
0.00138894
0.00132299
0.00131608
0.00151757
0.00157514
0.000973749
0.000614456
0.000464642
0.000414289
0.000396006
0.000399167
0.000419515
0.000453641
0.000500259
0.000559438
0.000631582
0.000717389
0.000817814
0.000933812
0.00106606
0.0012148
0.00137975
0.00156008
0.00175447
0.00196131
0.00217888
0.00240584
0.00264156
0.00288658
0.00314332
0.00340233
0.00365992
0.00391703
0.00417236
0.00442331
0.00467128
0.00491607
0.00515682
0.00539236
0.00562138
0.00584248
0.00605427
0.00625546
0.00644486
0.00662154
0.00678473
0.00693261
0.00706472
0.00718088
0.00728113
0.00736576
0.00743531
0.00749068
0.0075331
0.00756415
0.00758533
0.00759823
0.0076047
0.0076068
0.00760685
0.00760737
0.00761106
0.00762082
0.00763965
0.00767056
0.00771629
0.00777889
0.00785789
0.00795113
0.00803429
0.00814539
0.00803389
0.109259
0.0268001
0.00926415
0.00444703
0.00268937
0.00184508
0.00135665
0.00105151
0.000919297
0.000887449
0.00095106
0.00119585
0.00164701
0.00208108
0.00243592
0.00245524
0.0021226
0.00174824
0.00150186
0.00137466
0.0013223
0.0013173
0.00134631
0.00140115
0.0014769
0.00157136
0.00168395
0.00181476
0.00196402
0.00213189
0.00231834
0.00252305
0.00274529
0.00298427
0.00324036
0.00351449
0.00381012
0.00410906
0.00440728
0.00470327
0.00499467
0.005279
0.00555446
0.00581995
0.00607444
0.0063167
0.00654541
0.00675919
0.00695664
0.00713647
0.00729752
0.00743883
0.00755969
0.00765965
0.00773845
0.00779618
0.00783329
0.00785054
0.00784895
0.00782981
0.00779471
0.00774558
0.00768457
0.00761393
0.00753596
0.00745306
0.00736771
0.00728246
0.00719991
0.0071227
0.00705348
0.00699485
0.00694927
0.00691883
0.00690479
0.00690635
0.00692119
0.00693145
0.0069668
0.00685266
0.108843
0.0260421
0.00822883
0.00339504
0.00179881
0.0011572
0.000843105
0.000662408
0.000563095
0.000519148
0.000525688
0.000609068
0.000818071
0.00117778
0.0017426
0.00251553
0.00329922
0.0038707
0.00412993
0.00411518
0.00394991
0.00375474
0.00359665
0.00349475
0.00344524
0.00343911
0.00346904
0.00353039
0.00362063
0.00373845
0.00388316
0.00405405
0.0042502
0.00447113
0.00472611
0.00500233
0.00528224
0.00556336
0.00584208
0.00611512
0.00637914
0.00663095
0.00686795
0.00708808
0.00728968
0.0074713
0.00763168
0.00776973
0.00788452
0.00797535
0.0080418
0.00808374
0.00810136
0.00809521
0.00806616
0.00801544
0.00794456
0.00785532
0.00774973
0.00763001
0.00749851
0.00735773
0.00721023
0.00705856
0.00690519
0.00675256
0.00660299
0.00645874
0.00632196
0.00619476
0.00607915
0.00597705
0.00589027
0.00582033
0.00576822
0.00573357
0.00571535
0.0057012
0.0057174
0.00563728
0.108786
0.0259478
0.00802266
0.00308857
0.00145465
0.00082718
0.000552341
0.000415627
0.000342638
0.000304409
0.000290901
0.000305861
0.000365219
0.00049012
0.000719112
0.00110903
0.00168246
0.00243386
0.00332244
0.00425589
0.00511166
0.00578584
0.00623335
0.00647266
0.00656035
0.00655997
0.00652267
0.00648196
0.00645674
0.00645652
0.00648553
0.006545
0.00663757
0.00676325
0.00690226
0.00705104
0.00720634
0.00736448
0.00752131
0.00767264
0.00781446
0.0079431
0.00805543
0.00814896
0.00822172
0.00827224
0.00829945
0.00830271
0.00828176
0.00823671
0.0081681
0.00807684
0.00796421
0.00783187
0.00768178
0.00751613
0.00733736
0.00714802
0.00695072
0.00674811
0.00654274
0.00633713
0.00613363
0.00593442
0.00574146
0.00555655
0.00538126
0.00521699
0.00506502
0.0049265
0.00480253
0.00469413
0.00460233
0.00452803
0.00447202
0.00443432
0.00441519
0.00440634
0.00443094
0.00439873
0.108778
0.0259454
0.00799958
0.00302531
0.0013556
0.000706604
0.000424244
0.000289806
0.000221523
0.000185892
0.000168643
0.000165224
0.00017753
0.000211503
0.000279194
0.000401699
0.000597261
0.000885763
0.00128868
0.0018223
0.00249102
0.00328066
0.00415453
0.00505579
0.00591823
0.00668203
0.00730796
0.00778358
0.00812028
0.00834441
0.00848742
0.008578
0.00862513
0.00864082
0.00864165
0.00863581
0.00862645
0.00861389
0.00859688
0.00857342
0.00854118
0.00849773
0.00844081
0.00836849
0.00827924
0.00817201
0.00804626
0.00790196
0.00773962
0.00756019
0.00736508
0.00715606
0.00693523
0.00670493
0.00646764
0.00622593
0.00598239
0.00573951
0.00549966
0.00526502
0.00503754
0.00481893
0.00461064
0.00441386
0.00422952
0.00405834
0.00390085
0.00375745
0.00362841
0.00351398
0.00341438
0.00332988
0.00326085
0.00320773
0.00317111
0.0031513
0.00314946
0.00316042
0.00320385
0.00321909
0.108777
0.0259493
0.00800218
0.00301731
0.00133372
0.00067169
0.000379169
0.000238015
0.000165446
0.000126704
0.000106081
9.64549e-05
9.52776e-05
0.000102671
0.00012109
0.00015582
0.000211501
0.000293907
0.000410674
0.00057065
0.000783413
0.0010584
0.00140361
0.00182398
0.00231941
0.00288295
0.00349966
0.00414715
0.00479805
0.00542396
0.00599982
0.00650729
0.00694356
0.0072703
0.00748638
0.00760943
0.00765925
0.00765369
0.00760687
0.00752884
0.00742613
0.00730267
0.00716073
0.00700171
0.00682668
0.00663672
0.00643312
0.00621745
0.00599152
0.00575741
0.00551735
0.00527367
0.00502875
0.00478491
0.00454437
0.00430922
0.0040813
0.00386223
0.00365338
0.00345583
0.0032704
0.00309766
0.00293796
0.00279145
0.00265814
0.0025379
0.00243052
0.00233575
0.00225333
0.00218304
0.00212471
0.0020783
0.00204391
0.0020218
0.00201252
0.00201665
0.00203586
0.00206743
0.00212727
0.00217851
0.108777
0.0259519
0.0080054
0.00301802
0.00133025
0.000663329
0.000365851
0.000220157
0.000143603
0.000101336
7.73684e-05
6.3944e-05
5.73061e-05
5.58354e-05
5.92771e-05
6.85073e-05
8.42526e-05
0.000107471
0.000139543
0.000182092
0.000236972
0.000306228
0.00039204
0.000496633
0.000622121
0.000770262
0.000942125
0.00113773
0.00135574
0.00159327
0.00184586
0.00210771
0.00237312
0.00266645
0.00296221
0.00324109
0.00348827
0.0036932
0.00384995
0.00395689
0.00401568
0.00403028
0.00400585
0.00394808
0.00386259
0.00375464
0.00362903
0.00349003
0.0033414
0.00318646
0.00302812
0.00286893
0.0027111
0.00255652
0.00240676
0.00226313
0.00212664
0.00199806
0.00187792
0.00176656
0.00166414
0.00157069
0.00148613
0.0014103
0.001343
0.00128399
0.00123304
0.00118992
0.00115446
0.00112653
0.00110609
0.00109318
0.00108799
0.00109089
0.00110251
0.00112362
0.00115605
0.00119893
0.0012643
0.00133322
0.108777
0.025953
0.00800709
0.00301919
0.00133022
0.000661708
0.000362394
0.00021472
0.000136125
9.1804e-05
6.57544e-05
5.00923e-05
4.07503e-05
3.56041e-05
3.36185e-05
3.44628e-05
3.7983e-05
4.41234e-05
5.29851e-05
6.47172e-05
7.94674e-05
9.73552e-05
0.000118456
0.00014279
0.000170306
0.00020085
0.000234121
0.000269617
0.000306584
0.000343984
0.000380472
0.000414412
0.000444
0.000468211
0.000502702
0.000547736
0.000601897
0.00066284
0.000727515
0.000792509
0.000854417
0.000910189
0.000957369
0.000994247
0.00101989
0.00103409
0.00103727
0.0010303
0.00101441
0.000991
0.000961545
0.000927499
0.000890227
0.00085096
0.000810777
0.000770594
0.000731172
0.000693124
0.000656935
0.000622978
0.000591536
0.000562813
0.000536959
0.00051408
0.000494252
0.000477539
0.000464002
0.00045371
0.000446757
0.00044327
0.000443427
0.000447476
0.000455759
0.000468741
0.0004871
0.000511673
0.000544122
0.00058476
0.000641901
0.000708666
0.108777
0.0259528
0.0080074
0.00301972
0.00133051
0.000661529
0.000361604
0.000213203
0.000133776
8.85333e-05
6.14789e-05
4.47105e-05
3.40903e-05
2.73577e-05
2.32536e-05
2.10963e-05
2.05109e-05
2.11927e-05
2.2971e-05
2.5751e-05
2.94662e-05
3.40488e-05
3.94137e-05
4.54483e-05
5.20067e-05
5.8904e-05
6.591e-05
7.27439e-05
7.90732e-05
8.45173e-05
8.86604e-05
9.10732e-05
9.13499e-05
8.91738e-05
8.64256e-05
8.43561e-05
8.31389e-05
8.29341e-05
8.38642e-05
8.59897e-05
8.92901e-05
9.36553e-05
9.88897e-05
0.000104728
0.00011086
0.000116961
0.000122718
0.000127858
0.000132162
0.000135479
0.000137726
0.000138887
0.000139002
0.000138159
0.000136482
0.00013412
0.000131233
0.000127986
0.000124541
0.000121051
0.00011766
0.000114498
0.000111685
0.000109332
0.000107541
0.000106416
0.00010606
0.000106586
0.000108123
0.000110827
0.00011489
0.000120555
0.000128142
0.000138069
0.000150913
0.000167419
0.00018886
0.000216128
0.000254266
0.000302867
0.108778
0.0259514
0.0080065
0.00301953
0.00133055
0.000661518
0.000361433
0.000212799
0.000133076
8.74758e-05
6.00037e-05
4.27543e-05
3.15749e-05
2.41721e-05
1.9229e-05
1.59707e-05
1.39794e-05
1.28888e-05
1.24565e-05
1.25309e-05
1.30093e-05
1.38137e-05
1.48767e-05
1.61331e-05
1.7515e-05
1.89493e-05
2.03559e-05
2.16482e-05
2.27348e-05
2.35242e-05
2.39313e-05
2.38875e-05
2.33514e-05
2.23222e-05
2.11703e-05
2.00356e-05
1.89222e-05
1.78357e-05
1.67835e-05
1.57738e-05
1.48159e-05
1.39191e-05
1.30922e-05
1.23428e-05
1.16763e-05
1.10957e-05
1.06005e-05
1.01874e-05
9.85005e-06
9.57975e-06
9.36657e-06
9.20029e-06
9.07152e-06
8.97275e-06
8.89918e-06
8.84933e-06
8.82543e-06
8.83351e-06
8.88331e-06
8.98799e-06
9.16367e-06
9.42887e-06
9.80398e-06
1.03107e-05
1.09715e-05
1.181e-05
1.28507e-05
1.41207e-05
1.56517e-05
1.74831e-05
1.96676e-05
2.22794e-05
2.54259e-05
2.92653e-05
3.40381e-05
4.0097e-05
4.80539e-05
5.85766e-05
7.4047e-05
9.56111e-05
0.108778
0.0259486
0.00800454
0.0030187
0.00133023
0.000661376
0.000361325
0.000212658
0.000132856
8.71373e-05
5.95127e-05
4.20757e-05
3.06706e-05
2.29964e-05
1.77221e-05
1.40497e-05
1.15606e-05
9.87928e-06
8.74969e-06
8.00995e-06
7.55266e-06
7.30264e-06
7.20396e-06
7.21224e-06
7.29008e-06
7.40429e-06
7.52435e-06
7.62189e-06
7.67091e-06
7.64876e-06
7.53761e-06
7.3263e-06
7.01197e-06
6.6007e-06
6.1885e-06
5.79198e-06
5.41049e-06
5.04375e-06
4.69173e-06
4.35462e-06
4.03271e-06
3.72635e-06
3.43589e-06
3.16163e-06
2.90386e-06
2.66281e-06
2.43877e-06
2.23213e-06
2.0436e-06
1.87441e-06
1.72666e-06
1.60368e-06
1.5105e-06
1.45431e-06
1.44488e-06
1.49491e-06
1.62019e-06
1.83958e-06
2.17473e-06
2.64963e-06
3.28981e-06
4.12137e-06
5.1697e-06
6.45823e-06
8.00724e-06
9.83305e-06
1.19477e-05
1.43594e-05
1.70732e-05
2.00933e-05
2.34246e-05
2.7076e-05
3.10627e-05
3.54072e-05
4.01402e-05
4.52841e-05
5.08685e-05
5.66783e-05
6.30221e-05
6.79004e-05
0.108779
0.0259444
0.00800152
0.00301727
0.00132957
0.000661039
0.000361134
0.000212528
0.00013274
8.70041e-05
5.93386e-05
4.18402e-05
3.03538e-05
2.25776e-05
1.71776e-05
1.33506e-05
1.06814e-05
8.79531e-06
7.43523e-06
6.43939e-06
5.70185e-06
5.15064e-06
4.73507e-06
4.41815e-06
4.17195e-06
3.97477e-06
3.80928e-06
3.66146e-06
3.52006e-06
3.3763e-06
3.22391e-06
3.05914e-06
2.88076e-06
2.6888e-06
2.50964e-06
2.34196e-06
2.18469e-06
2.03703e-06
1.89829e-06
1.76795e-06
1.6456e-06
1.53091e-06
1.42368e-06
1.32387e-06
1.23176e-06
1.14809e-06
1.07443e-06
1.01353e-06
9.69954e-07
9.50757e-07
9.66271e-07
1.03097e-06
1.1643e-06
1.39142e-06
1.74381e-06
2.25955e-06
2.98328e-06
3.96547e-06
5.26104e-06
6.92747e-06
9.02246e-06
1.16015e-05
1.47158e-05
1.84101e-05
2.27226e-05
2.76843e-05
3.33203e-05
3.96525e-05
4.67014e-05
5.44902e-05
6.30469e-05
7.24067e-05
8.26119e-05
9.37072e-05
0.000105724
0.00011864
0.00013233
0.000146109
0.000159549
0.00016744
0.108779
0.0259384
0.00799743
0.00301526
0.00132856
0.000660503
0.000360829
0.000212342
0.000132614
8.69074e-05
5.92489e-05
4.17421e-05
3.02348e-05
2.24265e-05
1.69835e-05
1.31021e-05
1.03696e-05
8.41263e-06
6.97489e-06
5.89553e-06
5.06989e-06
4.42772e-06
3.92042e-06
3.51352e-06
3.18197e-06
2.90716e-06
2.67506e-06
2.47494e-06
2.29857e-06
2.13967e-06
1.99357e-06
1.85698e-06
1.7277e-06
1.60505e-06
1.49371e-06
1.39219e-06
1.29928e-06
1.21399e-06
1.13554e-06
1.06332e-06
9.97004e-07
9.36639e-07
8.8291e-07
8.37545e-07
8.03919e-07
7.87888e-07
7.98865e-07
8.51128e-07
9.65301e-07
1.16996e-06
1.50328e-06
2.01467e-06
2.76606e-06
3.83264e-06
5.30266e-06
7.27624e-06
9.86325e-06
1.31803e-05
1.73472e-05
2.24832e-05
2.87037e-05
3.6117e-05
4.48225e-05
5.49081e-05
6.64493e-05
7.95066e-05
9.41233e-05
0.000110322
0.000128099
0.000147424
0.000168235
0.000190435
0.000213892
0.000238433
0.000263833
0.000289762
0.000315777
0.000340549
0.00036351
0.000376196
0.108779
0.0259304
0.0079923
0.00301269
0.00132723
0.00065977
0.000360406
0.000212085
0.000132451
8.67964e-05
5.91676e-05
4.16755e-05
3.01726e-05
2.23607e-05
1.69077e-05
1.30107e-05
1.02584e-05
8.27861e-06
6.81579e-06
5.70971e-06
4.85643e-06
4.18639e-06
3.6518e-06
3.21901e-06
2.86382e-06
2.56851e-06
2.31987e-06
2.10792e-06
1.92506e-06
1.76544e-06
1.62457e-06
1.499e-06
1.38611e-06
1.28436e-06
1.19341e-06
1.11174e-06
1.03818e-06
9.71904e-07
9.12634e-07
8.60987e-07
8.19083e-07
7.91478e-07
7.86488e-07
8.17908e-07
9.07134e-07
1.08561e-06
1.39757e-06
1.90301e-06
2.68074e-06
3.83105e-06
5.47748e-06
7.76746e-06
1.08716e-05
1.49815e-05
2.03064e-05
2.70691e-05
3.55001e-05
4.58321e-05
5.82934e-05
7.30986e-05
9.04382e-05
0.000110463
0.000133266
0.000158862
0.000187167
0.000217981
0.000250987
0.000285754
0.000321758
0.000358421
0.00039515
0.000431386
0.000466642
0.000500525
0.000532755
0.000563052
0.000591331
0.000616062
0.000638277
0.000646905
0.108779
0.0259204
0.0079862
0.00300959
0.00132558
0.000658856
0.000359874
0.000211761
0.000132244
8.66597e-05
5.90731e-05
4.1607e-05
3.01195e-05
2.23161e-05
1.68665e-05
1.29688e-05
1.02132e-05
8.22804e-06
6.75857e-06
5.64502e-06
4.78383e-06
4.1058e-06
3.56345e-06
3.12344e-06
2.76185e-06
2.46121e-06
2.20852e-06
1.99401e-06
1.8102e-06
1.65131e-06
1.51285e-06
1.39131e-06
1.28389e-06
1.18865e-06
1.1042e-06
1.02972e-06
9.65839e-07
9.15834e-07
8.87326e-07
8.94717e-07
9.62259e-07
1.12767e-06
1.44618e-06
1.99502e-06
2.87825e-06
4.23144e-06
6.22539e-06
9.06852e-06
1.30074e-05
1.83257e-05
2.5341e-05
3.43999e-05
4.58713e-05
6.01367e-05
7.75778e-05
9.85571e-05
0.000123392
0.000152322
0.000185464
0.000222772
0.000263998
0.000308671
0.0003561
0.000405408
0.000455595
0.00050562
0.00055449
0.000601336
0.000645475
0.000686438
0.000723977
0.00075804
0.000788748
0.000816336
0.000841152
0.000863397
0.000883701
0.000900181
0.000916134
0.000914307
0.108778
0.0259086
0.00797934
0.00300607
0.00132369
0.00065779
0.00035925
0.000211379
0.000132
8.64978e-05
5.89618e-05
4.1528e-05
3.00616e-05
2.2272e-05
1.68314e-05
1.29392e-05
1.01865e-05
8.20255e-06
6.73307e-06
5.61874e-06
4.75628e-06
4.07672e-06
3.53276e-06
3.0912e-06
2.72824e-06
2.42649e-06
2.17306e-06
1.95821e-06
1.77451e-06
1.6162e-06
1.4788e-06
1.35875e-06
1.25352e-06
1.16452e-06
1.09922e-06
1.07574e-06
1.12834e-06
1.31349e-06
1.71624e-06
2.45663e-06
3.69638e-06
5.64482e-06
8.56304e-06
1.27655e-05
1.8619e-05
2.65389e-05
3.69826e-05
5.04407e-05
6.74232e-05
8.84417e-05
0.000113983
0.000144475
0.000180239
0.000221434
0.000268005
0.000319631
0.000375704
0.000435333
0.000497395
0.00056062
0.000623697
0.000685383
0.000744599
0.000800482
0.00085241
0.000899996
0.000943052
0.000981555
0.00101561
0.00104543
0.00107129
0.00109357
0.0011127
0.00112912
0.00114342
0.00115587
0.00116757
0.00117591
0.00118674
0.00117446
0.108778
0.0258952
0.00797201
0.00300229
0.00132163
0.000656625
0.000358563
0.000210956
0.000131728
8.6316e-05
5.88364e-05
4.14388e-05
2.99966e-05
2.22236e-05
1.67945e-05
1.29104e-05
1.01631e-05
8.18291e-06
6.71599e-06
5.60342e-06
4.74224e-06
4.06367e-06
3.52062e-06
3.08008e-06
2.71846e-06
2.41866e-06
2.16816e-06
1.95783e-06
1.78118e-06
1.63404e-06
1.51458e-06
1.42467e-06
1.4617e-06
1.78006e-06
2.56792e-06
4.08202e-06
6.65186e-06
1.06797e-05
1.66345e-05
2.50419e-05
3.64691e-05
5.15073e-05
7.07513e-05
9.47751e-05
0.000124102
0.000159167
0.000200274
0.000247549
0.000300887
0.00035992
0.000423997
0.000492194
0.00056337
0.000636247
0.000709516
0.000781941
0.000852451
0.000920185
0.000984506
0.00104498
0.00110131
0.00115331
0.00120086
0.00124386
0.00128226
0.00131605
0.00134528
0.00137009
0.00139072
0.00140749
0.00142085
0.00143131
0.00143948
0.00144596
0.00145155
0.00145656
0.00146259
0.00146609
0.00147581
0.00145557
0.108778
0.0258809
0.00796469
0.00299855
0.00131958
0.000655456
0.000357862
0.000210516
0.000131441
8.61222e-05
5.87019e-05
4.13438e-05
2.99295e-05
2.21774e-05
1.67661e-05
1.28999e-05
1.0173e-05
8.21906e-06
6.78907e-06
5.73109e-06
4.95266e-06
4.40091e-06
4.05223e-06
3.90765e-06
3.99166e-06
4.35365e-06
5.07125e-06
6.25589e-06
8.06049e-06
1.06898e-05
1.44131e-05
1.9951e-05
2.91909e-05
4.27535e-05
6.13373e-05
8.55731e-05
0.000115993
0.000152989
0.000196775
0.000247358
0.000304515
0.000367775
0.000436429
0.000509546
0.000586015
0.000664618
0.000744112
0.000823323
0.000901239
0.000977072
0.00105029
0.0011206
0.00118791
0.00125225
0.00131368
0.00137226
0.00142794
0.00148059
0.00152999
0.00157585
0.00161784
0.00165568
0.0016891
0.00171797
0.00174223
0.00176197
0.0017774
0.00178886
0.00179684
0.00180189
0.00180468
0.00180596
0.00180655
0.00180725
0.00180906
0.00181236
0.00181928
0.00182502
0.00184193
0.00181881
0.108779
0.0258671
0.00795846
0.0029955
0.00131796
0.000654539
0.000357327
0.000210215
0.000131313
8.61595e-05
5.89428e-05
4.18839e-05
3.09513e-05
2.40031e-05
1.99384e-05
1.82944e-05
1.8921e-05
2.17382e-05
2.68362e-05
3.44221e-05
4.47812e-05
5.82541e-05
7.52205e-05
9.60862e-05
0.000121272
0.000151204
0.000186307
0.000226995
0.000273666
0.000326687
0.000386374
0.000452963
0.000528161
0.000610062
0.000696707
0.000786013
0.000875961
0.000964723
0.00105077
0.00113297
0.00121062
0.00128344
0.00135156
0.00141546
0.00147578
0.00153332
0.00158883
0.00164298
0.00169626
0.00174899
0.00180125
0.00185294
0.00190382
0.00195351
0.00200154
0.00204741
0.00209059
0.00213058
0.0021669
0.00219916
0.00222705
0.00225037
0.00226907
0.00228324
0.00229313
0.00229915
0.00230186
0.00230195
0.00230024
0.00229764
0.00229513
0.00229377
0.00229469
0.00229896
0.00230798
0.00232226
0.00234479
0.00236881
0.00241237
0.00240008
0.108784
0.0258582
0.00795782
0.00299734
0.00132116
0.000659351
0.00036486
0.000222682
0.00015255
0.000122204
0.000118381
0.00013572
0.000172107
0.000226706
0.000299129
0.000388987
0.000490345
0.000599395
0.000713968
0.000832199
0.000952429
0.00107313
0.00119285
0.00131022
0.00142392
0.00153276
0.00163573
0.00173202
0.00182108
0.00190263
0.00197668
0.00204284
0.00210017
0.00214963
0.00219188
0.00222821
0.00226032
0.00228994
0.00231867
0.00234775
0.0023781
0.00241025
0.00244449
0.00248086
0.00251926
0.00255945
0.00260112
0.00264393
0.00268744
0.00273119
0.00277467
0.0028173
0.00285849
0.0028976
0.00293399
0.00296706
0.00299628
0.0030212
0.00304151
0.00305707
0.00306791
0.00307428
0.0030766
0.00307551
0.00307183
0.00306651
0.0030607
0.00305564
0.00305269
0.00305331
0.00305906
0.00307159
0.0030927
0.00312421
0.00316852
0.00322681
0.00330439
0.00339121
0.00351724
0.00356812
0.10896
0.0260629
0.00818865
0.0032632
0.00165352
0.00110674
0.00099733
0.00112642
0.00141252
0.00180164
0.00224499
0.00269921
0.00313046
0.00351595
0.00384237
0.00410319
0.00428694
0.00440353
0.00446758
0.00449188
0.00448725
0.00446256
0.00442498
0.00438015
0.00433242
0.004285
0.00424017
0.00419943
0.00416367
0.00413334
0.0041086
0.00408941
0.0040736
0.00406063
0.00405025
0.00404332
0.00404084
0.00404352
0.00405167
0.00406529
0.00408418
0.00410796
0.00413611
0.00416801
0.00420292
0.00424002
0.00427845
0.00431727
0.00435551
0.00439224
0.00442652
0.00445748
0.00448433
0.0045064
0.00452321
0.00453443
0.00453997
0.00453998
0.0045349
0.00452541
0.00451248
0.00449733
0.00448145
0.0044665
0.00445438
0.00444712
0.00444696
0.00445633
0.00447785
0.00451437
0.00456905
0.00464545
0.00474774
0.00488051
0.00505
0.0052609
0.00552686
0.00583463
0.00624297
0.00661746
0.117483
0.0358361
0.0174739
0.0123556
0.011224
0.0116233
0.0127033
0.0139643
0.0150216
0.0156379
0.0157562
0.0154581
0.0148853
0.0141763
0.0134333
0.0127188
0.0120663
0.0114936
0.0109985
0.0105698
0.0101953
0.00986515
0.00957194
0.00931031
0.0090764
0.00886739
0.00868109
0.00851567
0.00836949
0.00824096
0.00812889
0.00803094
0.00795095
0.00789511
0.00786321
0.00785237
0.00785888
0.00787909
0.00790969
0.00794778
0.00799115
0.00803772
0.00808554
0.00813277
0.00817771
0.0082188
0.00825454
0.00828359
0.00830476
0.00831705
0.00831971
0.00831229
0.00829466
0.00826712
0.00823035
0.0081855
0.00813419
0.00807848
0.00802089
0.00796437
0.00791223
0.00786818
0.00783622
0.00782074
0.00782644
0.00785829
0.00792197
0.00802396
0.00817153
0.00837308
0.00863861
0.00898015
0.0094127
0.00995417
0.010629
0.0114601
0.0125009
0.0137516
0.015403
0.0176397
0.223501
0.161833
0.12111
0.0944874
0.0764558
0.0640463
0.0554294
0.049436
0.0452119
0.0420864
0.0395703
0.0373626
0.0353196
0.0333971
0.0315969
0.0299312
0.028445
0.0271528
0.0260327
0.0250585
0.0242076
0.0234615
0.0228049
0.022226
0.021715
0.0212639
0.020866
0.0205151
0.0202057
0.0199325
0.0196906
0.0194756
0.0192779
0.0190875
0.0189014
0.0187197
0.0185429
0.0183711
0.0182041
0.018041
0.017881
0.0177235
0.0175682
0.0174146
0.0172627
0.0171128
0.0169652
0.0168205
0.0166799
0.0165445
0.0164161
0.0162968
0.0161892
0.0160962
0.0160216
0.0159693
0.0159443
0.015952
0.0159988
0.0160918
0.0162393
0.0164509
0.0167375
0.0171121
0.0175899
0.0181891
0.0189315
0.0198438
0.020959
0.0223179
0.0239718
0.0259862
0.0284435
0.0314562
0.0351545
0.039781
0.0454382
0.0530913
0.0613829
0.0762683
)
;

boundaryField
{
    inlet
    {
        type            fixedValue;
        value           uniform 0.63;
    }
    outlet
    {
        type            zeroGradient;
    }
    fixedWalls
    {
        lowReCorrection 0;
        type            epsilonWallFunction;
        value           nonuniform List<scalar> 
160
(
0.223501
0.161833
0.12111
0.0944874
0.0764558
0.0640463
0.0554294
0.049436
0.0452119
0.0420864
0.0395703
0.0373626
0.0353196
0.0333971
0.0315969
0.0299312
0.028445
0.0271528
0.0260327
0.0250585
0.0242076
0.0234615
0.0228049
0.022226
0.021715
0.0212639
0.020866
0.0205151
0.0202057
0.0199325
0.0196906
0.0194756
0.0192779
0.0190875
0.0189014
0.0187197
0.0185429
0.0183711
0.0182041
0.018041
0.017881
0.0177235
0.0175682
0.0174146
0.0172627
0.0171128
0.0169652
0.0168205
0.0166799
0.0165445
0.0164161
0.0162968
0.0161892
0.0160962
0.0160216
0.0159693
0.0159443
0.015952
0.0159988
0.0160918
0.0162393
0.0164509
0.0167375
0.0171121
0.0175899
0.0181891
0.0189315
0.0198438
0.020959
0.0223179
0.0239718
0.0259862
0.0284435
0.0314562
0.0351545
0.039781
0.0454382
0.0530913
0.0613829
0.0762683
0.0135126
0.0111845
0.00819021
0.00480135
0.00122147
0.000121663
9.66431e-05
0.000112688
0.000114492
8.64199e-05
5.14239e-05
3.40565e-05
3.81189e-05
4.29318e-05
4.87885e-05
5.77979e-05
7.04956e-05
8.65653e-05
0.000106311
0.000130611
0.000160629
0.000197745
0.000243496
0.000299478
0.000367194
0.000447859
0.00054224
0.000650558
0.000772469
0.00090713
0.00105331
0.00120955
0.00137427
0.00154598
0.0017234
0.00190574
0.00209287
0.00228569
0.00248656
0.00270021
0.0029243
0.00315211
0.00338414
0.00362136
0.0038642
0.00411262
0.00436622
0.00462435
0.00488617
0.00515077
0.00541714
0.00568427
0.00595116
0.00621676
0.00647796
0.00673414
0.00698513
0.00723125
0.00747482
0.007725
0.00801303
0.00832685
0.0086549
0.0089918
0.00933669
0.00969059
0.0100556
0.0104346
0.0108314
0.0112507
0.0116983
0.0121813
0.0127089
0.0132926
0.0139479
0.0146963
0.0155707
0.0166218
0.0179313
0.0198969
)
;
    }
    frontAndBack
    {
        type            empty;
    }
}


// ************************************************************************* //
