/*--------------------------------*- C++ -*----------------------------------*\
| =========                 |                                                 |
| \\      /  F ield         | OpenFOAM: The Open Source CFD Toolbox           |
|  \\    /   O peration     | Version:  v1912                                 |
|   \\  /    A nd           | Website:  www.openfoam.com                      |
|    \\/     M anipulation  |                                                 |
\*---------------------------------------------------------------------------*/
FoamFile
{
    version     2.0;
    format      ascii;
    class       volScalarField;
    location    "175";
    object      k;
}
// * * * * * * * * * * * * * * * * * * * * * * * * * * * * * * * * * * * * * //

dimensions      [0 2 -2 0 0 0 0];


internalField   nonuniform List<scalar> 
2000
(
0.0162095
0.0147776
0.0124075
0.00897586
0.00371948
0.000824348
0.000728798
0.000831656
0.000865191
0.0007378
0.00053653
0.000418713
0.000463275
0.000514292
0.000573865
0.000657743
0.000767576
0.00089804
0.00104876
0.00122297
0.00142481
0.00165863
0.00192851
0.0022377
0.00258806
0.00297949
0.00340978
0.00387478
0.00436882
0.00488533
0.00541741
0.00595836
0.00650205
0.00704326
0.00757805
0.00810413
0.00862125
0.00913171
0.00964125
0.0101608
0.0106827
0.0111898
0.0116831
0.0121647
0.0126352
0.0130939
0.0135397
0.0139708
0.0143852
0.0147809
0.015156
0.0155086
0.0158372
0.01614
0.0164122
0.0166535
0.0168641
0.0170454
0.0172013
0.017346
0.0175243
0.0177147
0.0178983
0.0180664
0.0182168
0.01835
0.0184676
0.0185718
0.0186655
0.0187518
0.0188345
0.0189178
0.0190068
0.0191076
0.0192281
0.0193789
0.019577
0.0198482
0.0202329
0.0209804
0.0068377
0.00499944
0.00452688
0.00410486
0.00326482
0.00245391
0.00191209
0.00163196
0.00452476
0.00323624
0.00179575
0.00136581
0.00139761
0.00140143
0.00137709
0.00147761
0.00167807
0.00193025
0.00222294
0.00255848
0.00294125
0.00337696
0.00387272
0.00443654
0.00507707
0.00580282
0.00662123
0.00753773
0.00855491
0.00967113
0.0108799
0.0121695
0.0135239
0.0149232
0.016346
0.0177711
0.0191789
0.0205513
0.0218697
0.0230788
0.0241756
0.0252125
0.0262064
0.0271665
0.0280968
0.0289979
0.0298687
0.0307068
0.0315095
0.0322736
0.0329962
0.0336754
0.0343109
0.034909
0.0354346
0.0358973
0.0363005
0.0366454
0.0369341
0.0371706
0.0373576
0.0374946
0.0375841
0.0376285
0.0376307
0.0375948
0.0375258
0.0374294
0.0373123
0.0371812
0.0370439
0.0369082
0.0367824
0.0366742
0.0365914
0.0365331
0.0365098
0.0364301
0.0365206
0.0361425
0.00514621
0.00248523
0.00187973
0.00175546
0.00163529
0.0014742
0.00132811
0.00124345
0.00172614
0.00203357
0.00243551
0.00379189
0.00572015
0.00486334
0.00363646
0.00312729
0.00318639
0.00343098
0.0037653
0.00418103
0.00467838
0.00525867
0.00592408
0.00667671
0.0075203
0.00846043
0.0095028
0.0106511
0.0119055
0.0132613
0.0147084
0.0162312
0.0178095
0.0194203
0.0210399
0.0226475
0.0242277
0.0257747
0.0272449
0.0286287
0.0299411
0.0311885
0.0323694
0.0334951
0.0345687
0.0355895
0.0365553
0.037463
0.0383094
0.039091
0.0398049
0.0404487
0.0410204
0.0415189
0.0419403
0.0422849
0.0425539
0.0427491
0.0428728
0.0429282
0.0429192
0.0428512
0.0427306
0.0425634
0.0423558
0.0421145
0.0418472
0.0415617
0.0412665
0.0409704
0.0406825
0.0404117
0.0401665
0.0399537
0.0397772
0.0396318
0.0395065
0.0393252
0.0392106
0.0385043
0.00490121
0.00193923
0.00108631
0.000851095
0.000792557
0.000769823
0.000751629
0.000743117
0.000857628
0.00103905
0.00133115
0.00198419
0.00324406
0.00464514
0.00618092
0.00738884
0.00771971
0.00753177
0.00737713
0.0074653
0.00779414
0.00831504
0.00898502
0.00977193
0.0106581
0.0116378
0.0127114
0.0138805
0.0151449
0.0165023
0.0179474
0.0194708
0.0210578
0.0226888
0.0243426
0.0260003
0.0276482
0.0292376
0.0307592
0.0322106
0.0335873
0.0348846
0.0361007
0.0372361
0.038291
0.0392643
0.0401543
0.0409588
0.0416755
0.0423025
0.0428383
0.0432819
0.0436334
0.0438934
0.0440633
0.0441456
0.0441437
0.0440621
0.043906
0.0436812
0.0433943
0.043053
0.0426656
0.0422406
0.0417865
0.0413119
0.0408256
0.0403367
0.0398541
0.0393868
0.0389436
0.0385328
0.0381619
0.0378366
0.037559
0.0373233
0.0371176
0.0368793
0.0367061
0.0360505
0.00486817
0.00184217
0.000889179
0.000554039
0.000439142
0.000407014
0.000404712
0.000413623
0.000452845
0.000525682
0.000649203
0.000896537
0.0014017
0.00223381
0.00354045
0.00542396
0.0075936
0.00964323
0.0112852
0.0124241
0.0131714
0.0137326
0.0142746
0.0148845
0.0155925
0.0164028
0.0173123
0.0183168
0.0194127
0.0205978
0.0218688
0.0232199
0.0246382
0.0261047
0.0276069
0.0291102
0.0305795
0.0320047
0.0333732
0.0346747
0.0358991
0.0370374
0.0380831
0.0390318
0.0398808
0.0406278
0.0412713
0.0418101
0.0422437
0.0425721
0.0427962
0.0429178
0.0429398
0.0428659
0.0427011
0.0424511
0.0421226
0.0417231
0.0412609
0.0407444
0.0401828
0.0395855
0.038962
0.0383218
0.0376741
0.0370278
0.0363916
0.0357736
0.0351819
0.0346239
0.0341071
0.0336381
0.0332231
0.0328667
0.0325712
0.0323329
0.0321451
0.0319609
0.0318696
0.0314297
0.00486377
0.00182805
0.000849453
0.000474232
0.000317516
0.000253173
0.000231613
0.000230701
0.000245525
0.000275564
0.000325373
0.00041496
0.000588437
0.00089822
0.0014332
0.00232818
0.00365258
0.00542839
0.00761523
0.0100707
0.0125746
0.0149049
0.0169166
0.018575
0.0199326
0.0210804
0.0221075
0.0230819
0.0240492
0.0250379
0.0260646
0.0271355
0.0282414
0.0293644
0.0304788
0.0315781
0.0326529
0.0336921
0.0346836
0.0356149
0.0364743
0.0372511
0.0379368
0.0385246
0.03901
0.0393897
0.0396623
0.0398273
0.0398858
0.0398398
0.0396928
0.0394495
0.0391155
0.0386978
0.0382043
0.0376436
0.0370251
0.0363586
0.0356542
0.034922
0.034172
0.0334139
0.0326572
0.0319104
0.0311819
0.030479
0.0298083
0.0291761
0.028588
0.0280489
0.0275639
0.0271373
0.0267734
0.0264757
0.0262468
0.0260858
0.0259918
0.0259316
0.0259892
0.0258244
0.00486318
0.00182655
0.000843157
0.000456553
0.000283054
0.000199662
0.000159926
0.000143594
0.000141889
0.000151134
0.000170792
0.000205195
0.000266564
0.000373569
0.000557336
0.00086988
0.00135605
0.00206635
0.00305745
0.00437805
0.00605438
0.00807456
0.0103776
0.0128555
0.0153721
0.017793
0.0200154
0.0219854
0.0236974
0.0251805
0.0264809
0.0276439
0.028669
0.0295787
0.0304043
0.0311619
0.0318585
0.0324952
0.0330698
0.0335778
0.0340135
0.0343706
0.0346431
0.034826
0.0349154
0.0349091
0.0348066
0.0346091
0.0343194
0.0339417
0.0334819
0.0329471
0.0323453
0.0316857
0.0309779
0.030232
0.0294584
0.0286673
0.0278687
0.0270722
0.0262864
0.0255197
0.0247793
0.0240717
0.0234023
0.0227759
0.0221964
0.0216673
0.0211913
0.020771
0.0204087
0.0201069
0.0198679
0.0196943
0.019589
0.0195533
0.019591
0.0196806
0.0198998
0.0200041
0.00486311
0.00182659
0.000842594
0.000453363
0.000274738
0.000183904
0.000135045
0.000108743
9.60478e-05
9.26631e-05
9.67205e-05
0.000108416
0.00013065
0.000169094
0.000233331
0.000339173
0.000499642
0.000730944
0.00105437
0.00149481
0.00207984
0.0028378
0.00379464
0.00496964
0.00637016
0.00798608
0.00978629
0.011719
0.0137174
0.0157089
0.0176261
0.0194157
0.0210743
0.0224939
0.0236555
0.0245896
0.0253329
0.0259187
0.0263731
0.0267139
0.0269518
0.0270929
0.0271405
0.0270964
0.0269628
0.0267424
0.0264391
0.026058
0.0256054
0.0250884
0.0245153
0.0238947
0.0232361
0.0225488
0.0218425
0.0211265
0.0204096
0.0197004
0.0190065
0.0183346
0.017691
0.0170806
0.0165077
0.0159758
0.0154877
0.0150455
0.0146509
0.014305
0.0140089
0.0137635
0.0135699
0.0134293
0.0133433
0.0133142
0.0133452
0.0134391
0.0136035
0.0138265
0.0141772
0.0144979
0.0048631
0.00182671
0.00084274
0.000452993
0.000273022
0.000179812
0.000127478
9.66772e-05
7.84373e-05
6.83102e-05
6.40551e-05
6.47729e-05
7.07525e-05
8.3477e-05
0.000105863
0.000142773
0.000197596
0.000274235
0.000377655
0.000513494
0.000688169
0.000908893
0.0011836
0.0015208
0.00192912
0.0024167
0.00299004
0.00365283
0.00440465
0.00523997
0.00614767
0.00711135
0.00811467
0.00922426
0.0103565
0.0114514
0.0124624
0.0133557
0.0141109
0.0147198
0.0151834
0.0155091
0.015708
0.0157925
0.0157752
0.0156684
0.0154835
0.0152314
0.0149222
0.0145657
0.0141709
0.0137468
0.0133019
0.012844
0.0123807
0.0119186
0.0114639
0.0110221
0.0105977
0.0101947
0.00981645
0.00946564
0.00914443
0.00885455
0.00859737
0.008374
0.00818534
0.00803222
0.00791546
0.00783596
0.00779483
0.00779349
0.00783389
0.00791861
0.00805143
0.00823665
0.00848355
0.0087883
0.00920927
0.00966162
0.0048631
0.00182677
0.000842863
0.000453046
0.000272755
0.000178867
0.00012539
9.29024e-05
7.23608e-05
5.92218e-05
5.10867e-05
4.67038e-05
4.55703e-05
4.7789e-05
5.40728e-05
6.58533e-05
8.40593e-05
0.000109685
0.000143907
0.000187852
0.000242564
0.000308982
0.000387934
0.000480115
0.000586052
0.00070601
0.000839841
0.0009868
0.00114534
0.00131293
0.00148594
0.00165957
0.0018283
0.00198955
0.00219514
0.00244605
0.00273748
0.00306041
0.00340262
0.00375006
0.00408847
0.00440473
0.0046879
0.00492987
0.0051255
0.00527251
0.00537112
0.00542354
0.0054335
0.00540568
0.00534536
0.00525803
0.00514912
0.00502383
0.00488702
0.00474309
0.004596
0.00444925
0.00430592
0.00416867
0.00403983
0.00392141
0.00381519
0.00372272
0.00364544
0.00358468
0.00354174
0.00351797
0.00351477
0.00353374
0.0035767
0.00364581
0.00374369
0.0038736
0.00403991
0.00424781
0.00450697
0.00481977
0.00523169
0.00571361
0.0048631
0.00182675
0.000842879
0.000453088
0.000272745
0.000178683
0.000124863
9.1809e-05
7.04196e-05
5.60891e-05
4.63402e-05
3.97909e-05
3.5684e-05
3.36711e-05
3.37255e-05
3.61265e-05
4.10584e-05
4.86937e-05
5.92712e-05
7.30062e-05
9.00518e-05
0.00011047
0.000134209
0.000161088
0.00019078
0.000222788
0.000256414
0.000290726
0.000324524
0.000356331
0.000384397
0.000406736
0.000421233
0.000425866
0.000427846
0.000432659
0.000441482
0.000455446
0.000475495
0.000502225
0.000535759
0.000575675
0.000621011
0.000670342
0.000721915
0.000773815
0.000824131
0.000871117
0.000913303
0.000949578
0.000979226
0.00100193
0.00101772
0.00102698
0.00103033
0.00102858
0.0010227
0.00101372
0.00100273
0.000990788
0.000978962
0.000968274
0.000959717
0.00095426
0.000952869
0.000956533
0.000966298
0.000983313
0.00100888
0.00104454
0.00109213
0.00115388
0.0012326
0.00133179
0.00145603
0.00161101
0.00180583
0.00204736
0.00236779
0.00277338
0.00486311
0.00182665
0.00084279
0.000453053
0.000272733
0.000178644
0.000124736
9.15108e-05
6.98363e-05
5.50739e-05
4.47071e-05
3.73007e-05
3.20113e-05
2.83462e-05
2.60428e-05
2.50123e-05
2.52261e-05
2.66122e-05
2.91349e-05
3.27722e-05
3.74934e-05
4.32428e-05
4.99298e-05
5.74216e-05
6.55383e-05
7.40478e-05
8.26628e-05
9.10384e-05
9.87776e-05
0.000105443
0.000110583
0.000113766
0.000114633
0.000112967
0.000110351
0.000107458
0.000104334
0.000101037
9.76349e-05
9.42093e-05
9.08483e-05
8.76446e-05
8.46901e-05
8.207e-05
7.98553e-05
7.80974e-05
7.68225e-05
7.60302e-05
7.56935e-05
7.57633e-05
7.61741e-05
7.68529e-05
7.77274e-05
7.87345e-05
7.98278e-05
8.09834e-05
8.22031e-05
8.35165e-05
8.49815e-05
8.66826e-05
8.87298e-05
9.12557e-05
9.4414e-05
9.83786e-05
0.000103345
0.000109533
0.000117197
0.000126641
0.000138239
0.000152476
0.000169997
0.00019169
0.000218807
0.000253135
0.000297298
0.000355098
0.000432683
0.000537821
0.0006903
0.000910977
0.00486312
0.00182648
0.000842607
0.00045294
0.000272671
0.000178603
0.000124688
9.14222e-05
6.96634e-05
5.47582e-05
4.41723e-05
3.6448e-05
3.07103e-05
2.64186e-05
2.32368e-05
2.09634e-05
1.95189e-05
1.87686e-05
1.86056e-05
1.89527e-05
1.97467e-05
2.09269e-05
2.2429e-05
2.41814e-05
2.61028e-05
2.81019e-05
3.00772e-05
3.19184e-05
3.35103e-05
3.47388e-05
3.54994e-05
3.57082e-05
3.5314e-05
3.43063e-05
3.31451e-05
3.19248e-05
3.06526e-05
2.93372e-05
2.79884e-05
2.66167e-05
2.5233e-05
2.38486e-05
2.24745e-05
2.11213e-05
1.9799e-05
1.85174e-05
1.72854e-05
1.61119e-05
1.50065e-05
1.39798e-05
1.30453e-05
1.22207e-05
1.15304e-05
1.10069e-05
1.06937e-05
1.06469e-05
1.09365e-05
1.16463e-05
1.28736e-05
1.47261e-05
1.73188e-05
2.07691e-05
2.51914e-05
3.06919e-05
3.7364e-05
4.52849e-05
5.4515e-05
6.50989e-05
7.70709e-05
9.04619e-05
0.000105311
0.000121682
0.000139678
0.000159468
0.000181318
0.000205606
0.000233007
0.000263954
0.000302034
0.000347008
0.00486313
0.00182622
0.000842337
0.000452757
0.000272555
0.000178527
0.000124633
9.13711e-05
6.95971e-05
5.46531e-05
4.39979e-05
3.6165e-05
3.02671e-05
2.57476e-05
2.22465e-05
1.9528e-05
1.7503e-05
1.60233e-05
1.49656e-05
1.42434e-05
1.37915e-05
1.35574e-05
1.34959e-05
1.35652e-05
1.37256e-05
1.3938e-05
1.41641e-05
1.4366e-05
1.45083e-05
1.45589e-05
1.44914e-05
1.42876e-05
1.39396e-05
1.34438e-05
1.29447e-05
1.24431e-05
1.194e-05
1.1437e-05
1.09361e-05
1.04392e-05
9.94863e-06
9.46675e-06
8.99609e-06
8.53962e-06
8.10116e-06
7.68614e-06
7.30274e-06
6.96363e-06
6.68827e-06
6.5058e-06
6.45852e-06
6.60567e-06
7.02722e-06
7.82714e-06
9.13572e-06
1.11102e-05
1.39336e-05
1.78107e-05
2.29625e-05
2.96182e-05
3.80057e-05
4.83425e-05
6.08267e-05
7.563e-05
9.28948e-05
0.000112733
0.000135231
0.000160454
0.000188457
0.000219294
0.000253027
0.000289728
0.000329479
0.000372354
0.000418364
0.000467337
0.000518766
0.000570539
0.000621243
0.00065576
0.00486313
0.00182586
0.000841984
0.000452512
0.00027239
0.000178413
0.000124552
9.13104e-05
6.95453e-05
5.45989e-05
4.39284e-05
3.60642e-05
3.01151e-05
2.55183e-05
2.19066e-05
1.90335e-05
1.68088e-05
1.50821e-05
1.37274e-05
1.26573e-05
1.18084e-05
1.11335e-05
1.05952e-05
1.01636e-05
9.8131e-06
9.52197e-06
9.27098e-06
9.04322e-06
8.824e-06
8.60102e-06
8.36467e-06
8.10833e-06
7.82857e-06
7.5282e-06
7.24009e-06
6.96291e-06
6.69576e-06
6.43801e-06
6.18936e-06
5.9499e-06
5.72034e-06
5.50256e-06
5.30046e-06
5.12156e-06
4.97918e-06
4.8957e-06
4.90673e-06
5.06638e-06
5.45333e-06
6.17727e-06
7.38534e-06
9.26749e-06
1.20601e-05
1.60471e-05
2.15574e-05
2.89591e-05
3.865e-05
5.1045e-05
6.65615e-05
8.5605e-05
0.000108556
0.000135757
0.000167506
0.000204052
0.000245582
0.000292225
0.000344035
0.000400988
0.00046296
0.000529722
0.000600927
0.0006761
0.000754634
0.000835786
0.000918645
0.00100204
0.00108448
0.00116246
0.00123426
0.00127889
0.00486313
0.0018254
0.000841553
0.000452208
0.000272178
0.000178262
0.000124443
9.12294e-05
6.94828e-05
5.45471e-05
4.38805e-05
3.60128e-05
3.00518e-05
2.54331e-05
2.17869e-05
1.88637e-05
1.65733e-05
1.47656e-05
1.33144e-05
1.21327e-05
1.11585e-05
1.03467e-05
9.66314e-06
9.08163e-06
8.58149e-06
8.1461e-06
7.76189e-06
7.41769e-06
7.10432e-06
6.81427e-06
6.54164e-06
6.28194e-06
6.03202e-06
5.79249e-06
5.56918e-06
5.3603e-06
5.16458e-06
4.9815e-06
4.81196e-06
4.65955e-06
4.53267e-06
4.44784e-06
4.43445e-06
4.54105e-06
4.84333e-06
5.45339e-06
6.52997e-06
8.28862e-06
1.10109e-05
1.50514e-05
2.08406e-05
2.88844e-05
3.9757e-05
5.40892e-05
7.2552e-05
9.58362e-05
0.00012463
0.000159596
0.000201345
0.000250412
0.000307219
0.000372041
0.000444954
0.00052579
0.00061409
0.000709075
0.000809645
0.000914411
0.00102177
0.00112998
0.00123734
0.00134224
0.00144329
0.00153938
0.00162971
0.00171353
0.00179056
0.00185761
0.00191704
0.00194525
0.00486313
0.00182484
0.000841051
0.000451853
0.000271924
0.000178079
0.000124308
9.11277e-05
6.94044e-05
5.4485e-05
4.38294e-05
3.59681e-05
3.00093e-05
2.53883e-05
2.17348e-05
1.87982e-05
1.64889e-05
1.46568e-05
1.31761e-05
1.19602e-05
1.09478e-05
1.00946e-05
9.3677e-06
8.74209e-06
8.1986e-06
7.7222e-06
7.30094e-06
6.92523e-06
6.58732e-06
6.28092e-06
6.00095e-06
5.74334e-06
5.50484e-06
5.28428e-06
5.08156e-06
4.8969e-06
4.73466e-06
4.60701e-06
4.53967e-06
4.58002e-06
4.80754e-06
5.34658e-06
6.38077e-06
8.16805e-06
1.10551e-05
1.54891e-05
2.20259e-05
3.13318e-05
4.41785e-05
6.14308e-05
8.40262e-05
0.000112948
0.000149193
0.000193732
0.000247464
0.000311162
0.000385402
0.000470486
0.000566348
0.000672479
0.000787864
0.000910971
0.0010398
0.00117201
0.00130507
0.00143647
0.0015639
0.00168541
0.00179952
0.00190523
0.00200201
0.00208971
0.00216851
0.0022388
0.00230118
0.00235592
0.00240424
0.00244265
0.00247811
0.00247796
0.00486312
0.00182418
0.000840494
0.000451456
0.000271637
0.000177869
0.000124151
9.10079e-05
6.9311e-05
5.44109e-05
4.37693e-05
3.59185e-05
2.99669e-05
2.53505e-05
2.1699e-05
1.87619e-05
1.64494e-05
1.46121e-05
1.3124e-05
1.18991e-05
1.08763e-05
1.00117e-05
9.27276e-06
8.63496e-06
8.07958e-06
7.59207e-06
7.16095e-06
6.77709e-06
6.43312e-06
6.12307e-06
5.84208e-06
5.58616e-06
5.35294e-06
5.15151e-06
5.00751e-06
4.97755e-06
5.16587e-06
5.74386e-06
6.97128e-06
9.21714e-06
1.2978e-05
1.88908e-05
2.7738e-05
4.04439e-05
5.80591e-05
8.17354e-05
0.000112689
0.000152155
0.000201333
0.000261322
0.000333045
0.00041716
0.000513962
0.000623284
0.000744407
0.000876018
0.00101622
0.0011626
0.00131244
0.00146286
0.00161111
0.00175473
0.00189173
0.0020206
0.00214032
0.00225031
0.00235031
0.0024403
0.00252043
0.00259098
0.00265234
0.00270498
0.0027495
0.00278651
0.00281686
0.00284091
0.0028606
0.00287166
0.00288544
0.00285993
0.00486311
0.00182343
0.000839897
0.00045103
0.000271327
0.000177639
0.000123978
9.08741e-05
6.92057e-05
5.43266e-05
4.37009e-05
3.58621e-05
2.99198e-05
2.53105e-05
2.16643e-05
1.87309e-05
1.64207e-05
1.45844e-05
1.30965e-05
1.1871e-05
1.08472e-05
9.98138e-06
9.24143e-06
8.60332e-06
8.04894e-06
7.56464e-06
7.14031e-06
6.7689e-06
6.44652e-06
6.17298e-06
5.95338e-06
5.80296e-06
6.00156e-06
6.97923e-06
9.25821e-06
1.35511e-05
2.07669e-05
3.19994e-05
4.84978e-05
7.16215e-05
0.000102781
0.000143368
0.000194681
0.000257845
0.000333731
0.000422868
0.000525366
0.000640838
0.000768354
0.000906425
0.00105305
0.0012058
0.00136201
0.00151897
0.00167414
0.00182531
0.00197074
0.00210921
0.0022399
0.00236235
0.00247634
0.00258173
0.00267843
0.00276635
0.00284539
0.00291548
0.00297663
0.00302891
0.00307254
0.00310786
0.00313531
0.00315546
0.003169
0.00317663
0.00317932
0.00317738
0.00317333
0.0031622
0.00315892
0.00311441
0.00486311
0.00182261
0.000839287
0.000450596
0.00027101
0.000177403
0.000123798
9.07335e-05
6.90938e-05
5.42363e-05
4.36276e-05
3.5803e-05
2.98734e-05
2.52768e-05
2.16457e-05
1.87331e-05
1.64536e-05
1.4664e-05
1.32498e-05
1.21416e-05
1.13057e-05
1.074e-05
1.04757e-05
1.05815e-05
1.11723e-05
1.242e-05
1.45681e-05
1.79494e-05
2.30078e-05
3.03243e-05
4.06476e-05
5.56408e-05
7.91432e-05
0.000112571
0.000157406
0.000214868
0.000285832
0.000370749
0.000469576
0.000581751
0.000706184
0.000841284
0.000985032
0.00113508
0.00128891
0.00144395
0.00159783
0.00174849
0.00189429
0.00203415
0.00216746
0.00229405
0.00241406
0.00252779
0.00263557
0.00273761
0.00283402
0.0029247
0.00300945
0.00308792
0.00315974
0.00322454
0.00328198
0.0033318
0.00337384
0.00340806
0.00343455
0.00345352
0.00346531
0.00347036
0.00346924
0.00346257
0.0034511
0.00343552
0.00341687
0.00339533
0.00337377
0.00334682
0.00333142
0.00327448
0.00486313
0.00182177
0.000838715
0.000450201
0.00027073
0.000177206
0.000123664
9.06574e-05
6.90873e-05
5.4334e-05
4.39017e-05
3.63919e-05
3.10356e-05
2.74823e-05
2.57216e-05
2.60762e-05
2.8968e-05
3.48436e-05
4.42978e-05
5.80316e-05
7.68254e-05
0.000101516
0.000132974
0.000172083
0.000219716
0.000276711
0.000343855
0.00042186
0.000511343
0.000612795
0.000726537
0.000852331
0.000990378
0.00113748
0.00129029
0.00144538
0.00159952
0.00174991
0.00189431
0.00203115
0.0021596
0.00227943
0.00239103
0.00249517
0.00259286
0.0026852
0.00277322
0.00285776
0.00293943
0.0030186
0.0030954
0.00316975
0.00324144
0.00331015
0.00337548
0.003437
0.00349427
0.00354681
0.00359417
0.00363592
0.00367169
0.00370115
0.00372409
0.0037404
0.00375009
0.0037533
0.0037503
0.00374147
0.00372729
0.00370831
0.00368517
0.00365853
0.00362912
0.00359758
0.00356491
0.00353117
0.00349929
0.00346403
0.0034419
0.00337986
0.00486338
0.00182132
0.00083878
0.000450678
0.000271743
0.000179118
0.000127274
9.75837e-05
8.23397e-05
7.89961e-05
8.77009e-05
0.000109979
0.000147954
0.000203889
0.000279914
0.000377795
0.000492676
0.000621088
0.000760838
0.000909723
0.00106555
0.00122613
0.00138929
0.00155294
0.00171506
0.00187383
0.00202764
0.00217522
0.00231561
0.00244825
0.00257288
0.00268886
0.00279306
0.00288634
0.00296952
0.00304394
0.00311126
0.00317316
0.0032311
0.00328626
0.00333948
0.00339128
0.00344198
0.00349175
0.00354062
0.00358859
0.00363561
0.00368159
0.00372638
0.0037698
0.00381158
0.00385141
0.00388889
0.00392357
0.00395498
0.00398264
0.00400608
0.00402486
0.00403863
0.00404711
0.00405013
0.00404763
0.00403967
0.00402642
0.00400817
0.00398532
0.00395836
0.00392782
0.00389431
0.00385845
0.00382089
0.00378229
0.00374332
0.00370456
0.00366693
0.00363045
0.00359788
0.00356486
0.00354366
0.00348948
0.0048773
0.00184559
0.000876501
0.00050854
0.00036299
0.000325743
0.000362568
0.000465259
0.000630671
0.000851756
0.00111579
0.0014068
0.00170888
0.00200845
0.00229495
0.00256061
0.00278965
0.00298156
0.00314119
0.00327362
0.00338374
0.00347603
0.00355444
0.00362235
0.00368253
0.0037372
0.00378802
0.00383619
0.00388252
0.00392752
0.00397149
0.00401457
0.00405351
0.004087
0.00411534
0.00413973
0.0041616
0.0041821
0.00420209
0.00422214
0.00424261
0.00426365
0.00428523
0.00430721
0.00432933
0.00435125
0.00437254
0.00439274
0.00441137
0.00442791
0.00444186
0.00445272
0.00446002
0.00446334
0.00446231
0.00445663
0.00444612
0.00443068
0.00441033
0.00438523
0.00435564
0.00432194
0.00428462
0.00424423
0.00420141
0.00415684
0.00411123
0.0040653
0.00401978
0.00397535
0.00393273
0.00389257
0.0038556
0.00382243
0.00379408
0.00377076
0.0037551
0.00374487
0.00374082
0.00373353
0.00556867
0.00287832
0.00213727
0.00201032
0.00218343
0.00254439
0.00303186
0.00357479
0.00409183
0.00451755
0.00482256
0.00501261
0.00511401
0.00515825
0.00517199
0.00517357
0.00516729
0.00515961
0.0051535
0.00514874
0.00514432
0.0051394
0.0051336
0.00512694
0.00511969
0.00511229
0.00510516
0.00509868
0.00509313
0.00508866
0.00508543
0.005083
0.00508144
0.00508314
0.00508981
0.00510147
0.00511724
0.00513595
0.00515643
0.0051776
0.00519865
0.00521881
0.00523732
0.00525347
0.00526655
0.00527592
0.00528095
0.00528106
0.00527574
0.00526454
0.00524711
0.00522321
0.00519273
0.00515568
0.00511224
0.00506274
0.00500766
0.00494762
0.0048834
0.00481587
0.00474602
0.00467489
0.00460359
0.00453324
0.00446493
0.00439974
0.00433872
0.00428299
0.00423361
0.00419159
0.00415796
0.00413379
0.00412027
0.00411851
0.00413038
0.0041558
0.00420058
0.00425598
0.00433629
0.00450598
0.0142815
0.0119092
0.0101451
0.00887966
0.0079582
0.00729424
0.0068281
0.0065168
0.00632039
0.00619827
0.00611472
0.00604488
0.0059759
0.00590395
0.00583008
0.00575675
0.0056885
0.00562674
0.00557124
0.00552136
0.00547632
0.00543538
0.00539792
0.00536348
0.00533167
0.0053022
0.00527477
0.0052491
0.00522483
0.00520159
0.00517891
0.00515646
0.00513281
0.00510643
0.00507703
0.0050448
0.00501003
0.00497291
0.00493355
0.00489197
0.00484815
0.00480214
0.00475397
0.00470373
0.00465151
0.00459746
0.00454176
0.00448463
0.00442633
0.00436719
0.00430756
0.00424789
0.00418865
0.00413039
0.00407373
0.00401933
0.00396793
0.00392032
0.00387733
0.00383988
0.00380892
0.00378547
0.00377061
0.0037655
0.00377136
0.00378957
0.00382157
0.00386902
0.00393378
0.00401796
0.00412401
0.00425484
0.00441374
0.00460523
0.00483316
0.00510844
0.00542587
0.00584249
0.00623727
0.00697428
)
;

boundaryField
{
    inlet
    {
        type            fixedValue;
        value           uniform 0.017;
    }
    outlet
    {
        type            zeroGradient;
    }
    fixedWalls
    {
        type            kqRWallFunction;
        value           nonuniform List<scalar> 
160
(
0.0142815
0.0119092
0.0101451
0.00887966
0.0079582
0.00729424
0.0068281
0.0065168
0.00632039
0.00619827
0.00611472
0.00604488
0.0059759
0.00590395
0.00583008
0.00575675
0.0056885
0.00562674
0.00557124
0.00552136
0.00547632
0.00543538
0.00539792
0.00536348
0.00533167
0.0053022
0.00527477
0.0052491
0.00522483
0.00520159
0.00517891
0.00515646
0.00513281
0.00510643
0.00507703
0.0050448
0.00501003
0.00497291
0.00493355
0.00489197
0.00484815
0.00480214
0.00475397
0.00470373
0.00465151
0.00459746
0.00454176
0.00448463
0.00442633
0.00436719
0.00430756
0.00424789
0.00418865
0.00413039
0.00407373
0.00401933
0.00396793
0.00392032
0.00387733
0.00383988
0.00380892
0.00378547
0.00377061
0.0037655
0.00377136
0.00378957
0.00382157
0.00386902
0.00393378
0.00401796
0.00412401
0.00425484
0.00441374
0.00460523
0.00483316
0.00510844
0.00542587
0.00584249
0.00623727
0.00697428
0.0162095
0.0147776
0.0124075
0.00897586
0.00371948
0.000824348
0.000728798
0.000831656
0.000865191
0.0007378
0.00053653
0.000418713
0.000463275
0.000514292
0.000573865
0.000657743
0.000767576
0.00089804
0.00104876
0.00122297
0.00142481
0.00165863
0.00192851
0.0022377
0.00258806
0.00297949
0.00340978
0.00387478
0.00436882
0.00488533
0.00541741
0.00595836
0.00650205
0.00704326
0.00757805
0.00810413
0.00862125
0.00913171
0.00964125
0.0101608
0.0106827
0.0111898
0.0116831
0.0121647
0.0126352
0.0130939
0.0135397
0.0139708
0.0143852
0.0147809
0.015156
0.0155086
0.0158372
0.01614
0.0164122
0.0166535
0.0168641
0.0170454
0.0172013
0.017346
0.0175243
0.0177147
0.0178983
0.0180664
0.0182168
0.01835
0.0184676
0.0185718
0.0186655
0.0187518
0.0188345
0.0189178
0.0190068
0.0191076
0.0192281
0.0193789
0.019577
0.0198482
0.0202329
0.0209804
)
;
    }
    frontAndBack
    {
        type            empty;
    }
}


// ************************************************************************* //
