/*--------------------------------*- C++ -*----------------------------------*\
| =========                 |                                                 |
| \\      /  F ield         | OpenFOAM: The Open Source CFD Toolbox           |
|  \\    /   O peration     | Version:  v1912                                 |
|   \\  /    A nd           | Website:  www.openfoam.com                      |
|    \\/     M anipulation  |                                                 |
\*---------------------------------------------------------------------------*/
FoamFile
{
    version     2.0;
    format      ascii;
    class       volScalarField;
    location    "175";
    object      nut;
}
// * * * * * * * * * * * * * * * * * * * * * * * * * * * * * * * * * * * * * //

dimensions      [0 2 -1 0 0 0 0];


internalField   nonuniform List<scalar> 
2000
(
0.00175001
0.00175725
0.00169168
0.00151019
0.00101935
0.000502693
0.000494636
0.000552399
0.000588425
0.000566899
0.000503809
0.000463314
0.000506735
0.000554476
0.000607497
0.000673663
0.000752182
0.000838475
0.00093115
0.00103061
0.00113745
0.00125209
0.00137466
0.00150481
0.0016417
0.00178395
0.00192976
0.00207706
0.00222377
0.00236789
0.00250766
0.00264163
0.00276866
0.00288793
0.00299897
0.00310165
0.00319625
0.00328344
0.00336442
0.00344114
0.00351226
0.00357507
0.00363003
0.00367767
0.00371829
0.003752
0.00377881
0.00379867
0.00381156
0.00381743
0.00381628
0.00380816
0.00379312
0.00377127
0.00374231
0.00370655
0.00366434
0.00361611
0.00356259
0.00350545
0.00344927
0.0033918
0.00333124
0.00326691
0.00319884
0.00312726
0.0030525
0.00297492
0.00289492
0.00281286
0.00272915
0.00264417
0.00255831
0.00247199
0.00238565
0.00229982
0.00221528
0.00213307
0.00205469
0.00199106
3.44185e-05
5.60397e-05
9.95538e-05
0.000148338
0.000162347
0.000155677
0.000159353
0.000201764
0.00126582
0.0013769
0.000960236
0.000814675
0.00106493
0.00134581
0.00157264
0.00184895
0.00218745
0.00255933
0.00294133
0.00332826
0.00372144
0.00412397
0.00454037
0.00497718
0.00544306
0.00594795
0.00650151
0.00711165
0.00778335
0.00851689
0.00930723
0.0101441
0.0110127
0.0118945
0.0127692
0.013616
0.0144153
0.015149
0.0157991
0.0163151
0.0167034
0.0170298
0.0173159
0.0175705
0.0177978
0.0180002
0.0181785
0.0183332
0.0184645
0.0185723
0.0186564
0.0187165
0.0187514
0.0187573
0.0187415
0.0187019
0.0186384
0.0185512
0.0184404
0.0183053
0.0181445
0.0179587
0.01775
0.0175201
0.0172707
0.0170033
0.0167194
0.0164208
0.016109
0.0157859
0.0154532
0.0151126
0.0147659
0.0144146
0.0140603
0.0137028
0.0133435
0.0129693
0.0126251
0.0123611
2.12863e-05
1.81627e-05
2.51324e-05
4.00241e-05
5.5575e-05
6.78955e-05
7.91649e-05
9.43338e-05
0.000193068
0.000281322
0.000405642
0.000852718
0.00186956
0.00218608
0.00193691
0.00189435
0.00220565
0.00267533
0.00319659
0.00375026
0.00434232
0.00497508
0.00564589
0.00635241
0.0070951
0.00787723
0.00870335
0.00957746
0.0105011
0.0114714
0.0124804
0.0135144
0.0145546
0.0155783
0.01656
0.0174752
0.0183013
0.0190213
0.0196352
0.0201546
0.0205978
0.0209821
0.0213189
0.0216158
0.0218771
0.0221057
0.022303
0.0224701
0.0226077
0.0227161
0.0227959
0.0228474
0.0228709
0.0228666
0.0228354
0.0227782
0.0226957
0.022589
0.0224589
0.0223063
0.0221322
0.0219379
0.021725
0.0214951
0.0212498
0.0209906
0.0207192
0.0204373
0.0201466
0.0198489
0.0195459
0.019239
0.0189297
0.0186186
0.018306
0.0179897
0.0176665
0.0173236
0.0169878
0.0166087
1.97876e-05
1.26288e-05
1.14642e-05
1.46598e-05
2.1021e-05
2.89074e-05
3.74785e-05
4.72656e-05
7.20086e-05
0.00010949
0.000167684
0.000296302
0.000575074
0.000933147
0.00141152
0.00200125
0.00252683
0.00292036
0.00326128
0.00364873
0.00413475
0.00472373
0.00539677
0.00613364
0.00692224
0.00775723
0.00863583
0.00955503
0.0105106
0.0114965
0.0125046
0.0135234
0.0145372
0.0155249
0.0164582
0.0173116
0.0180566
0.0187233
0.0193207
0.0198537
0.0203275
0.0207471
0.021117
0.0214414
0.0217235
0.0219659
0.0221702
0.0223379
0.0224701
0.0225679
0.0226324
0.0226648
0.0226661
0.0226377
0.022581
0.0224975
0.022389
0.0222574
0.0221044
0.0219321
0.0217424
0.0215375
0.0213196
0.0210909
0.0208533
0.020609
0.0203599
0.0201079
0.0198546
0.019602
0.0193513
0.019104
0.018861
0.0186224
0.0183874
0.0181533
0.0179152
0.0176598
0.0174055
0.0170689
1.95963e-05
1.17281e-05
8.64733e-06
8.13726e-06
9.64867e-06
1.28841e-05
1.74845e-05
2.32448e-05
3.27762e-05
4.79068e-05
7.21564e-05
0.000118772
0.000216153
0.000381303
0.000647382
0.00105256
0.00157299
0.00216221
0.00277536
0.00337584
0.00395294
0.00452029
0.00509883
0.00570555
0.00635119
0.00704101
0.00777581
0.00855297
0.00936769
0.0102139
0.0110842
0.0119694
0.0128544
0.0137171
0.0145135
0.0152462
0.0159325
0.0165703
0.0171582
0.0176955
0.0181823
0.0186187
0.0190055
0.0193442
0.0196364
0.0198835
0.0200871
0.0202488
0.02037
0.0204523
0.0204974
0.0205072
0.0204835
0.0204286
0.0203448
0.0202345
0.0201003
0.0199449
0.0197712
0.0195819
0.0193798
0.0191677
0.0189485
0.0187248
0.0184992
0.0182739
0.0180511
0.0178328
0.0176209
0.0174169
0.0172222
0.017038
0.0168651
0.0167035
0.0165526
0.0164099
0.0162715
0.0161255
0.0159881
0.0157708
1.95712e-05
1.15909e-05
8.09474e-06
6.55341e-06
6.23754e-06
6.97391e-06
8.74101e-06
1.15249e-05
1.58343e-05
2.24508e-05
3.27537e-05
5.06676e-05
8.53275e-05
0.000148151
0.000257074
0.000439881
0.000713669
0.00108965
0.00157091
0.00214473
0.002784
0.00345568
0.00413187
0.0047975
0.00545056
0.00609674
0.00674365
0.0073974
0.00806179
0.00873856
0.00942756
0.0101253
0.0108145
0.0114744
0.0121129
0.012728
0.0133159
0.0138726
0.0143945
0.0148786
0.0153221
0.0157229
0.0160796
0.0163914
0.0166583
0.0168805
0.0170588
0.0171943
0.0172884
0.017343
0.0173599
0.0173414
0.0172901
0.0172088
0.0171003
0.016968
0.0168149
0.0166445
0.0164601
0.0162652
0.0160629
0.0158564
0.0156488
0.015443
0.0152414
0.0150466
0.0148605
0.0146851
0.014522
0.0143726
0.0142382
0.0141195
0.0140175
0.0139325
0.0138641
0.013811
0.013771
0.0137349
0.0137193
0.0136451
1.95678e-05
1.1573e-05
7.99819e-06
6.20089e-06
5.31921e-06
5.07759e-06
5.42581e-06
6.40339e-06
8.17942e-06
1.10587e-05
1.55671e-05
2.29352e-05
3.60224e-05
5.93837e-05
0.000100131
0.000169535
0.000277096
0.000433842
0.000652857
0.000946637
0.00132436
0.00178862
0.002333
0.00294193
0.00359349
0.00426412
0.00493372
0.00558898
0.00622403
0.00683873
0.0074359
0.0080178
0.00857632
0.00911267
0.00962754
0.0101202
0.0105892
0.0110327
0.0114489
0.0118357
0.0121907
0.0125116
0.0127965
0.0130437
0.0132521
0.0134212
0.013551
0.0136423
0.0136962
0.0137144
0.0136989
0.0136522
0.013577
0.0134764
0.0133537
0.0132121
0.0130553
0.0128867
0.0127099
0.0125282
0.0123449
0.0121631
0.0119856
0.0118151
0.0116538
0.0115039
0.0113671
0.011245
0.0111389
0.0110499
0.010979
0.010927
0.0108947
0.0108824
0.0108907
0.0109192
0.0109678
0.01103
0.0111242
0.0111879
1.95674e-05
1.15717e-05
7.98492e-06
6.13077e-06
5.09349e-06
4.53166e-06
4.3288e-06
4.47138e-06
5.01837e-06
6.09909e-06
7.93671e-06
1.09673e-05
1.61239e-05
2.50641e-05
4.04651e-05
6.64447e-05
0.00010623
0.000163606
0.00024363
0.000352405
0.000496948
0.00068479
0.000923287
0.00121864
0.00157458
0.00199101
0.00246293
0.0029804
0.00352956
0.00409467
0.00466033
0.00521376
0.00575664
0.00626353
0.00672719
0.00715143
0.00754094
0.0078995
0.00822924
0.00853076
0.0088035
0.00904635
0.00925805
0.00943758
0.00958432
0.00969815
0.00977945
0.00982911
0.00984847
0.00983926
0.00980361
0.00974393
0.00966293
0.00956351
0.00944873
0.00932175
0.00918575
0.00904388
0.00889918
0.00875458
0.00861283
0.00847645
0.00834776
0.00822885
0.00812158
0.00802756
0.00794823
0.0078848
0.00783835
0.00780981
0.00780003
0.00780979
0.00783987
0.00789108
0.00796434
0.00806033
0.00818083
0.00832213
0.00850352
0.00868346
1.95673e-05
1.15722e-05
7.98449e-06
6.11933e-06
5.04316e-06
4.38682e-06
3.99772e-06
3.82084e-06
3.8559e-06
4.14429e-06
4.77294e-06
5.90513e-06
7.86186e-06
1.12322e-05
1.70154e-05
2.67793e-05
4.17078e-05
6.29791e-05
9.19871e-05
0.000130324
0.000179861
0.000242786
0.000321607
0.00041913
0.000538378
0.000682414
0.000854058
0.00105551
0.00128791
0.001551
0.00184274
0.00215942
0.00249727
0.00287192
0.00325878
0.00364139
0.00400716
0.00434686
0.00465478
0.00492822
0.00516677
0.00537134
0.00554359
0.00568537
0.0057985
0.00588469
0.00594556
0.00598267
0.00599767
0.00599231
0.00596848
0.00592826
0.00587386
0.0058076
0.00573189
0.00564916
0.00556181
0.00547218
0.00538253
0.00529497
0.0052115
0.00513396
0.00506407
0.00500339
0.00495335
0.00491527
0.00489036
0.00487973
0.00488444
0.00490549
0.00494386
0.00500053
0.00507658
0.00517318
0.00529181
0.00543404
0.005603
0.00579774
0.00603729
0.00630146
1.95673e-05
1.15724e-05
7.98513e-06
6.11838e-06
5.03346e-06
4.35148e-06
3.90469e-06
3.61763e-06
3.46187e-06
3.43831e-06
3.57218e-06
3.91901e-06
4.58643e-06
5.77296e-06
7.82747e-06
1.13252e-05
1.67427e-05
2.45396e-05
3.51765e-05
4.90744e-05
6.66353e-05
8.82572e-05
0.000114341
0.00014529
0.000181504
0.000223353
0.000271142
0.000325053
0.000385089
0.000451011
0.0005223
0.000598135
0.00067757
0.000760869
0.00086269
0.000983111
0.00112053
0.00127173
0.00143228
0.00159704
0.00176074
0.00191845
0.00206595
0.00219998
0.00231825
0.00241945
0.00250312
0.00256948
0.00261932
0.00265381
0.0026744
0.00268271
0.00268045
0.00266934
0.00265112
0.00262748
0.00260006
0.00257043
0.0025401
0.00251052
0.00248306
0.00245902
0.00243968
0.00242624
0.00241988
0.00242178
0.00243309
0.00245498
0.00248866
0.00253539
0.00259649
0.00267338
0.00276762
0.00288098
0.00301556
0.00317381
0.00335982
0.00357533
0.00383759
0.00414593
1.95673e-05
1.15722e-05
7.98512e-06
6.11845e-06
5.03196e-06
4.34368e-06
3.88039e-06
3.55811e-06
3.33619e-06
3.19811e-06
3.14364e-06
3.18713e-06
3.36168e-06
3.72972e-06
4.40219e-06
5.56786e-06
7.39711e-06
1.00693e-05
1.37642e-05
1.8628e-05
2.47687e-05
3.22573e-05
4.11301e-05
5.1387e-05
6.29869e-05
7.58371e-05
8.97792e-05
0.000104571
0.000119869
0.000135209
0.000149993
0.000163485
0.000174815
0.000183042
0.000190622
0.000199719
0.000210991
0.000225104
0.000242637
0.000263994
0.00028932
0.000318467
0.000350986
0.000386165
0.000423097
0.000460762
0.000498113
0.000534157
0.000568023
0.000599006
0.000626601
0.000650507
0.000670628
0.000687051
0.000700029
0.000709945
0.00071729
0.000722634
0.000726601
0.000729852
0.000733071
0.000736956
0.000742221
0.000749601
0.00075986
0.000773812
0.000792344
0.000816445
0.00084724
0.000886033
0.000934349
0.000993987
0.00106708
0.00115616
0.00126431
0.00139519
0.00155401
0.00174549
0.00198445
0.00228565
1.95673e-05
1.15716e-05
7.98433e-06
6.11788e-06
5.03139e-06
4.34189e-06
3.87438e-06
3.54174e-06
3.2984e-06
3.12066e-06
2.9979e-06
2.92885e-06
2.92084e-06
2.99168e-06
3.17439e-06
3.52553e-06
4.09689e-06
4.94529e-06
6.13299e-06
7.71386e-06
9.72519e-06
1.21832e-05
1.50819e-05
1.8394e-05
2.2071e-05
2.60421e-05
3.02115e-05
3.44565e-05
3.8625e-05
4.25371e-05
4.59889e-05
4.87634e-05
5.06463e-05
5.14527e-05
5.17685e-05
5.18701e-05
5.17754e-05
5.1512e-05
5.11177e-05
5.064e-05
5.01358e-05
4.96685e-05
4.93054e-05
4.91131e-05
4.91523e-05
4.94722e-05
5.01063e-05
5.10681e-05
5.23506e-05
5.3927e-05
5.57542e-05
5.7778e-05
5.99391e-05
6.21794e-05
6.44468e-05
6.66998e-05
6.89102e-05
7.10648e-05
7.31671e-05
7.52392e-05
7.73236e-05
7.94882e-05
8.18301e-05
8.44806e-05
8.76096e-05
9.14284e-05
9.61944e-05
0.000102219
0.000109886
0.000119681
0.000132243
0.000148435
0.000169468
0.000197058
0.000233701
0.000283027
0.000350634
0.00044442
0.000579176
0.000781176
1.95673e-05
1.15706e-05
7.98283e-06
6.11652e-06
5.0303e-06
4.34083e-06
3.87254e-06
3.53724e-06
3.28755e-06
3.09697e-06
2.95076e-06
2.84157e-06
2.7675e-06
2.7315e-06
2.74209e-06
2.81512e-06
2.96601e-06
3.2091e-06
3.5607e-06
4.03605e-06
4.64657e-06
5.39726e-06
6.28482e-06
7.29683e-06
8.41171e-06
9.59913e-06
1.08205e-05
1.20299e-05
1.31751e-05
1.41998e-05
1.5047e-05
1.56637e-05
1.60065e-05
1.60472e-05
1.5977e-05
1.58369e-05
1.56293e-05
1.53577e-05
1.50268e-05
1.4642e-05
1.42097e-05
1.37368e-05
1.32307e-05
1.2699e-05
1.21494e-05
1.15894e-05
1.10263e-05
1.04669e-05
9.91759e-06
9.38383e-06
8.87042e-06
8.3815e-06
7.92152e-06
7.49744e-06
7.12305e-06
6.8246e-06
6.64406e-06
6.63597e-06
6.85862e-06
7.36601e-06
8.20555e-06
9.4197e-06
1.1048e-05
1.31274e-05
1.56916e-05
1.87699e-05
2.23866e-05
2.65616e-05
3.13118e-05
3.66542e-05
4.26109e-05
4.92164e-05
5.65274e-05
6.46394e-05
7.37132e-05
8.40171e-05
9.60577e-05
0.000110632
0.000130275
0.000159606
1.95673e-05
1.15692e-05
7.98072e-06
6.11448e-06
5.02854e-06
4.33935e-06
3.87116e-06
3.53544e-06
3.28416e-06
3.08981e-06
2.93609e-06
2.81336e-06
2.71626e-06
2.64263e-06
2.59301e-06
2.57074e-06
2.58131e-06
2.62721e-06
2.71106e-06
2.83547e-06
3.00225e-06
3.21169e-06
3.46192e-06
3.74848e-06
4.06411e-06
4.3988e-06
4.73997e-06
5.07297e-06
5.3818e-06
5.65011e-06
5.86245e-06
6.00572e-06
6.07063e-06
6.0496e-06
6.00919e-06
5.95002e-06
5.87298e-06
5.77925e-06
5.67025e-06
5.5476e-06
5.41308e-06
5.26859e-06
5.11609e-06
4.95762e-06
4.79525e-06
4.63107e-06
4.46722e-06
4.30606e-06
4.15068e-06
4.00658e-06
3.88516e-06
3.80917e-06
3.8172e-06
3.96269e-06
4.30755e-06
4.91662e-06
5.85697e-06
7.19961e-06
9.02007e-06
1.13969e-05
1.44084e-05
1.81295e-05
2.26281e-05
2.79624e-05
3.41796e-05
4.13155e-05
4.93951e-05
5.84347e-05
6.84441e-05
7.94289e-05
9.1393e-05
0.000104339
0.000118265
0.000133162
0.000148996
0.000165681
0.000183032
0.00020051
0.000217706
0.000231139
1.95673e-05
1.15674e-05
7.9781e-06
6.11191e-06
5.02622e-06
4.33732e-06
3.86942e-06
3.53385e-06
3.28237e-06
3.08712e-06
2.93125e-06
2.80428e-06
2.69962e-06
2.61328e-06
2.54312e-06
2.48851e-06
2.45218e-06
2.43352e-06
2.43155e-06
2.44568e-06
2.4753e-06
2.51955e-06
2.5771e-06
2.64601e-06
2.7237e-06
2.8069e-06
2.89175e-06
2.97388e-06
3.04871e-06
3.11169e-06
3.1587e-06
3.18639e-06
3.19256e-06
3.17788e-06
3.15838e-06
3.1342e-06
3.10556e-06
3.07277e-06
3.03622e-06
2.99639e-06
2.95386e-06
2.90937e-06
2.86387e-06
2.81863e-06
2.77553e-06
2.73783e-06
2.71239e-06
2.71421e-06
2.7727e-06
2.93539e-06
3.26545e-06
3.83675e-06
4.73243e-06
6.04696e-06
7.88751e-06
1.0373e-05
1.36308e-05
1.77919e-05
2.29858e-05
2.93348e-05
3.69497e-05
4.59255e-05
5.63391e-05
6.82474e-05
8.16855e-05
9.66659e-05
0.000113175
0.000131173
0.000150586
0.000171305
0.000193183
0.000216031
0.000239619
0.000263673
0.000287878
0.000311865
0.000335202
0.000357121
0.00037717
0.00039129
1.95673e-05
1.15652e-05
7.97505e-06
6.10892e-06
5.02344e-06
4.33481e-06
3.86718e-06
3.53185e-06
3.28052e-06
3.08521e-06
2.92888e-06
2.80075e-06
2.69383e-06
2.60349e-06
2.52667e-06
2.46147e-06
2.4098e-06
2.37022e-06
2.34083e-06
2.32028e-06
2.30749e-06
2.30147e-06
2.3013e-06
2.30594e-06
2.31431e-06
2.3252e-06
2.33729e-06
2.34923e-06
2.35962e-06
2.36717e-06
2.37071e-06
2.36935e-06
2.3625e-06
2.35119e-06
2.33903e-06
2.32603e-06
2.31227e-06
2.29794e-06
2.28344e-06
2.26952e-06
2.25747e-06
2.24959e-06
2.25025e-06
2.26909e-06
2.32733e-06
2.46548e-06
2.74594e-06
3.24913e-06
4.07038e-06
5.32201e-06
7.13645e-06
9.66697e-06
1.30851e-05
1.75756e-05
2.33296e-05
3.05371e-05
3.93784e-05
5.00166e-05
6.259e-05
7.72045e-05
9.39263e-05
0.000112774
0.000133707
0.00015662
0.000181334
0.000207591
0.000235061
0.00026335
0.000292022
0.000320623
0.000348708
0.00037587
0.000401761
0.0004261
0.000448679
0.000469326
0.000487966
0.00050411
0.000518196
0.000526443
1.95673e-05
1.15625e-05
7.97163e-06
6.10561e-06
5.02032e-06
4.3319e-06
3.86449e-06
3.52937e-06
3.27823e-06
3.08304e-06
2.92673e-06
2.79842e-06
2.69096e-06
2.59951e-06
2.52074e-06
2.45231e-06
2.39588e-06
2.34977e-06
2.31187e-06
2.28062e-06
2.25488e-06
2.23371e-06
2.21635e-06
2.20211e-06
2.19039e-06
2.1806e-06
2.17219e-06
2.16463e-06
2.15742e-06
2.15011e-06
2.14233e-06
2.13377e-06
2.12424e-06
2.11427e-06
2.10469e-06
2.09589e-06
2.08889e-06
2.08576e-06
2.0903e-06
2.11004e-06
2.1617e-06
2.28146e-06
2.53377e-06
3.00976e-06
3.82152e-06
5.10279e-06
7.01364e-06
9.74262e-06
1.35043e-05
1.85333e-05
2.50754e-05
3.33767e-05
4.36716e-05
5.61701e-05
7.10443e-05
8.84152e-05
0.000108338
0.000130789
0.00015565
0.0001827
0.000211613
0.000241967
0.000273258
0.000304941
0.000336461
0.000367293
0.000396978
0.000425146
0.000451522
0.000475924
0.000498252
0.000518466
0.000536571
0.000552594
0.000566589
0.000578568
0.0005887
0.000596534
0.000603289
0.000604421
1.95673e-05
1.15593e-05
7.96791e-06
6.10202e-06
5.01691e-06
4.32866e-06
3.86142e-06
3.52645e-06
3.27545e-06
3.08041e-06
2.92423e-06
2.796e-06
2.68853e-06
2.59691e-06
2.51769e-06
2.44842e-06
2.39068e-06
2.3427e-06
2.30232e-06
2.26795e-06
2.23842e-06
2.21284e-06
2.19052e-06
2.17088e-06
2.15346e-06
2.13788e-06
2.12379e-06
2.11091e-06
2.09898e-06
2.08779e-06
2.07715e-06
2.06695e-06
2.0573e-06
2.05099e-06
2.05305e-06
2.07283e-06
2.12858e-06
2.26061e-06
2.54853e-06
3.11239e-06
4.10093e-06
5.68975e-06
8.0866e-06
1.15321e-05
1.6294e-05
2.26558e-05
3.09035e-05
4.1308e-05
5.41083e-05
6.94925e-05
8.75804e-05
0.000108406
0.000131904
0.000157896
0.000186089
0.000216082
0.000247382
0.000279436
0.000311672
0.000343541
0.000374557
0.000404326
0.000432552
0.00045904
0.000483673
0.000506393
0.000527179
0.000546028
0.000562944
0.000577933
0.000591005
0.000602175
0.000611466
0.000618904
0.000624555
0.000628418
0.000630776
0.000631153
0.000631412
0.000626783
1.95673e-05
1.15558e-05
7.96392e-06
6.09819e-06
5.01324e-06
4.32515e-06
3.85802e-06
3.52315e-06
3.27226e-06
3.07734e-06
2.9213e-06
2.79322e-06
2.68588e-06
2.59435e-06
2.51516e-06
2.44579e-06
2.38781e-06
2.33943e-06
2.29849e-06
2.2634e-06
2.23302e-06
2.20651e-06
2.18324e-06
2.16278e-06
2.14485e-06
2.12934e-06
2.11634e-06
2.10622e-06
2.09983e-06
2.0988e-06
2.10608e-06
2.12729e-06
2.21775e-06
2.46276e-06
3.0041e-06
4.04871e-06
5.83502e-06
8.62915e-06
1.27255e-05
1.84358e-05
2.60702e-05
3.59153e-05
4.8212e-05
6.31345e-05
8.07714e-05
0.000101111
0.000124034
0.000149306
0.000176588
0.000205447
0.000235383
0.000265861
0.000296353
0.000326374
0.000355518
0.000383477
0.000410047
0.000435117
0.000458648
0.000480645
0.000501134
0.000520136
0.000537663
0.000553711
0.000568261
0.000581287
0.00059276
0.000602652
0.000610943
0.000617617
0.000622665
0.000626087
0.00062789
0.000628085
0.00062673
0.000623807
0.000619656
0.000613849
0.000608542
0.000599737
1.95673e-05
1.15518e-05
7.95965e-06
6.09407e-06
5.00928e-06
4.32135e-06
3.85435e-06
3.51959e-06
3.2688e-06
3.07403e-06
2.91819e-06
2.79042e-06
2.68357e-06
2.59284e-06
2.51508e-06
2.44836e-06
2.39504e-06
2.35466e-06
2.32728e-06
2.31502e-06
2.32271e-06
2.35892e-06
2.43734e-06
2.57883e-06
2.81431e-06
3.18883e-06
3.76646e-06
4.63505e-06
5.91059e-06
7.74205e-06
1.03171e-05
1.39657e-05
1.93117e-05
2.66761e-05
3.63548e-05
4.85566e-05
6.33919e-05
8.08617e-05
0.000100852
0.000123138
0.000147391
0.000173199
0.000200092
0.00022757
0.000255139
0.000282343
0.000308793
0.000334193
0.000358341
0.000381137
0.000402564
0.000422666
0.000441526
0.000459237
0.000475883
0.000491531
0.000506219
0.000519962
0.000532755
0.000544578
0.000555405
0.000565201
0.000573928
0.000581546
0.000588012
0.000593281
0.000597309
0.000600054
0.000601476
0.00060154
0.00060022
0.000597491
0.000593346
0.000587775
0.000580828
0.000572482
0.000563084
0.000552382
0.000542287
0.000530565
1.95673e-05
1.15473e-05
7.95505e-06
6.08957e-06
5.00513e-06
4.3178e-06
3.85176e-06
3.51872e-06
3.27138e-06
3.08378e-06
2.94289e-06
2.84581e-06
2.80082e-06
2.83193e-06
2.9864e-06
3.34513e-06
3.9915e-06
5.02648e-06
6.5809e-06
8.8051e-06
1.1862e-05
1.59215e-05
2.11563e-05
2.77369e-05
3.58265e-05
4.55754e-05
5.71168e-05
7.05607e-05
8.59897e-05
0.000103453
0.000122956
0.000144343
0.000167139
0.000190876
0.000215062
0.000239208
0.000262868
0.000285674
0.000307351
0.000327724
0.000346721
0.000364353
0.000380695
0.000395864
0.000409995
0.000423219
0.000435646
0.000447365
0.000458433
0.000468886
0.000478742
0.000488011
0.000496697
0.000504802
0.000512329
0.000519276
0.000525637
0.000531398
0.000536537
0.000541021
0.000544808
0.00054785
0.000550091
0.000551477
0.000551947
0.000551446
0.000549917
0.000547308
0.00054357
0.000538659
0.000532538
0.000525177
0.000516561
0.000506676
0.000495571
0.000483248
0.000470001
0.000455905
0.000441973
0.000428367
1.95683e-05
1.15456e-05
7.95691e-06
6.09872e-06
5.03041e-06
4.37929e-06
3.99574e-06
3.84867e-06
3.99991e-06
4.59588e-06
5.84749e-06
8.02085e-06
1.14471e-05
1.65031e-05
2.3574e-05
3.30231e-05
4.45517e-05
5.7921e-05
7.29706e-05
8.95022e-05
0.000107289
0.000126084
0.000145627
0.000165656
0.000185916
0.00020617
0.000226211
0.000245864
0.000265
0.000283529
0.000301402
0.000318527
0.000334309
0.000348799
0.000362075
0.000374247
0.00038543
0.000395731
0.000405233
0.000413995
0.000422056
0.000429445
0.000436186
0.000442308
0.000447846
0.00045284
0.000457337
0.000461384
0.000465027
0.000468302
0.00047124
0.000473858
0.000476164
0.000478153
0.000479814
0.000481125
0.000482057
0.000482575
0.000482638
0.000482201
0.000481213
0.000479624
0.000477377
0.000474419
0.000470694
0.00046615
0.000460736
0.000454405
0.000447115
0.00043883
0.000429521
0.000419169
0.000407774
0.000395344
0.000381937
0.000367613
0.000352568
0.000337267
0.000321325
0.000307131
1.96486e-05
1.17622e-05
8.44374e-06
7.13261e-06
7.17168e-06
8.62877e-06
1.18627e-05
1.72955e-05
2.53427e-05
3.62414e-05
4.99107e-05
6.59887e-05
8.39572e-05
0.000103257
0.000123364
0.000143816
0.000163378
0.000181689
0.000198774
0.000214719
0.000229644
0.000243682
0.000256965
0.000269608
0.000281711
0.000293348
0.000304567
0.000315393
0.000325832
0.000335875
0.000345506
0.000354699
0.000363017
0.000370219
0.000376332
0.000381461
0.000385737
0.000389288
0.000392228
0.000394655
0.000396647
0.000398271
0.000399575
0.000400596
0.00040136
0.000401885
0.000402183
0.000402259
0.000402115
0.000401748
0.000401153
0.000400317
0.000399227
0.000397862
0.0003962
0.000394216
0.00039188
0.000389161
0.000386027
0.000382446
0.000378383
0.000373805
0.000368679
0.000362972
0.000356653
0.000349697
0.000342076
0.000333773
0.000324771
0.000315063
0.000304652
0.000293554
0.000281799
0.000269436
0.000256545
0.000243243
0.000229619
0.000216323
0.000201736
0.000189579
2.37559e-05
2.08065e-05
2.35272e-05
2.94381e-05
3.82274e-05
5.01278e-05
6.51243e-05
8.23617e-05
0.000100314
0.000117454
0.000132845
0.00014629
0.000158128
0.000168922
0.000179215
0.000189399
0.000199157
0.000208459
0.000217326
0.000225725
0.000233614
0.00024097
0.000247792
0.000254094
0.000259906
0.000265263
0.000270201
0.000274751
0.000278942
0.000282795
0.00028633
0.000289545
0.000292279
0.000294543
0.000296515
0.000298286
0.000299884
0.000301306
0.000302539
0.000303567
0.000304378
0.000304966
0.000305318
0.000305419
0.000305255
0.000304811
0.00030407
0.000303017
0.000301636
0.000299913
0.000297835
0.000295391
0.000292574
0.000289375
0.00028579
0.000281818
0.000277458
0.000272713
0.000267586
0.000262084
0.000256214
0.000249984
0.000243405
0.000236489
0.000229249
0.000221701
0.000213861
0.000205754
0.000197407
0.000188849
0.000180119
0.00017126
0.000162323
0.000153362
0.000144454
0.000135632
0.000127034
0.000118547
0.000109869
0.000103593
8.2132e-05
7.88758e-05
7.64846e-05
7.51037e-05
7.45524e-05
7.47667e-05
7.57011e-05
7.73157e-05
7.95202e-05
8.21564e-05
8.50408e-05
8.802e-05
9.09983e-05
9.39332e-05
9.68159e-05
9.9649e-05
0.000102384
0.00010494
0.000107307
0.000109491
0.000111498
0.00011333
0.000114992
0.000116486
0.000117817
0.00011899
0.000120008
0.000120876
0.000121595
0.000122166
0.000122592
0.000122873
0.000122996
0.00012295
0.000122735
0.000122358
0.000121828
0.000121151
0.000120335
0.000119385
0.000118305
0.000117101
0.000115779
0.000114344
0.000112803
0.000111162
0.000109429
0.000107611
0.000105715
0.000103751
0.000101727
9.96517e-05
9.75359e-05
9.53895e-05
9.32229e-05
9.10468e-05
8.88722e-05
8.671e-05
8.4571e-05
8.24656e-05
8.04041e-05
7.83958e-05
7.64496e-05
7.45733e-05
7.2774e-05
7.10577e-05
6.94291e-05
6.78921e-05
6.64494e-05
6.51029e-05
6.3853e-05
6.26997e-05
6.16414e-05
6.0679e-05
5.98031e-05
5.90396e-05
5.83123e-05
5.78648e-05
5.70407e-05
5.7398e-05
)
;

boundaryField
{
    inlet
    {
        type            fixedValue;
        value           uniform 0;
    }
    outlet
    {
        type            zeroGradient;
    }
    fixedWalls
    {
        type            nutkWallFunction;
        Cmu             0.09;
        kappa           0.41;
        E               9.8;
        value           nonuniform List<scalar> 
160
(
9.29711e-06
8.85655e-06
8.53151e-06
8.34321e-06
8.26789e-06
8.29717e-06
8.42472e-06
8.64464e-06
8.94392e-06
9.3004e-06
9.68875e-06
1.00881e-05
1.04855e-05
1.08756e-05
1.12572e-05
1.16308e-05
1.19902e-05
1.23249e-05
1.2634e-05
1.29185e-05
1.31793e-05
1.34168e-05
1.36318e-05
1.38248e-05
1.39965e-05
1.41476e-05
1.42786e-05
1.43901e-05
1.44824e-05
1.45558e-05
1.46104e-05
1.46463e-05
1.46622e-05
1.46563e-05
1.46287e-05
1.45803e-05
1.45123e-05
1.44255e-05
1.43206e-05
1.41984e-05
1.40594e-05
1.39042e-05
1.37335e-05
1.3548e-05
1.33485e-05
1.31357e-05
1.29104e-05
1.26736e-05
1.24263e-05
1.21693e-05
1.19039e-05
1.16311e-05
1.13523e-05
1.10685e-05
1.07813e-05
1.0492e-05
1.0202e-05
9.91271e-06
9.62561e-06
9.34212e-06
9.06362e-06
8.79141e-06
8.52674e-06
8.27075e-06
8.02447e-06
7.78879e-06
7.56446e-06
7.35211e-06
7.15222e-06
6.96511e-06
6.79097e-06
6.6299e-06
6.48172e-06
6.3467e-06
6.22354e-06
6.116e-06
6.01338e-06
5.95014e-06
5.83354e-06
5.88413e-06
0.000184713
0.000185409
0.000179095
0.000161492
0.000112756
5.86886e-05
5.78094e-05
6.40799e-05
6.79553e-05
6.56428e-05
5.88102e-05
5.4377e-05
5.91291e-05
6.43041e-05
6.99966e-05
7.70282e-05
8.52807e-05
9.42488e-05
0.000103776
0.000113896
0.000124659
0.000136098
0.000148214
0.000160967
0.000174266
0.000187974
0.000201918
0.000215905
0.000229743
0.000243255
0.000256287
0.000268716
0.000280447
0.000291417
0.000301594
0.000310974
0.000319591
0.000327513
0.000334854
0.000341794
0.000348215
0.000353877
0.000358823
0.000363106
0.000366753
0.000369777
0.00037218
0.00037396
0.000375114
0.00037564
0.000375538
0.00037481
0.000373463
0.000371504
0.000368908
0.000365699
0.000361908
0.000357571
0.000352752
0.000347601
0.000342529
0.000337332
0.000331848
0.000326013
0.000319827
0.000313309
0.000306488
0.000299393
0.000292059
0.000284518
0.000276804
0.000268951
0.000260993
0.000252967
0.000244915
0.000236883
0.000228945
0.000221198
0.000213787
0.00020775
)
;
    }
    frontAndBack
    {
        type            empty;
    }
}


// ************************************************************************* //
