/*--------------------------------*- C++ -*----------------------------------*\
| =========                 |                                                 |
| \\      /  F ield         | OpenFOAM: The Open Source CFD Toolbox           |
|  \\    /   O peration     | Version:  v1912                                 |
|   \\  /    A nd           | Website:  www.openfoam.com                      |
|    \\/     M anipulation  |                                                 |
\*---------------------------------------------------------------------------*/
FoamFile
{
    version     2.0;
    format      ascii;
    class       volScalarField;
    location    "175";
    object      p;
}
// * * * * * * * * * * * * * * * * * * * * * * * * * * * * * * * * * * * * * //

dimensions      [0 2 -2 0 0 0 0];


internalField   nonuniform List<scalar> 
2000
(
-0.0169209
0.0997798
0.156104
0.15223
0.13908
0.134059
0.133513
0.1341
0.134054
0.1344
0.13463
0.134554
0.134453
0.134465
0.134536
0.134567
0.134553
0.13452
0.134476
0.134418
0.13434
0.134232
0.134088
0.133899
0.133655
0.133348
0.132975
0.132542
0.132069
0.131594
0.131166
0.130849
0.13071
0.130815
0.131222
0.13197
0.133084
0.134579
0.136467
0.138738
0.141386
0.144434
0.147861
0.151652
0.1558
0.160296
0.165131
0.170289
0.17575
0.181489
0.18747
0.193652
0.199986
0.206415
0.212877
0.219299
0.225601
0.231698
0.237494
0.242892
0.247825
0.252163
0.255827
0.258701
0.260662
0.261591
0.261363
0.259848
0.256903
0.252369
0.246068
0.237791
0.227284
0.214231
0.198201
0.178653
0.154488
0.125062
0.0846523
0.0429917
0.0411969
0.125586
0.163643
0.150946
0.134741
0.132713
0.137596
0.138557
0.134442
0.132343
0.133425
0.134326
0.134362
0.134477
0.134675
0.134678
0.134609
0.134545
0.134515
0.134494
0.134463
0.134409
0.134321
0.134178
0.133955
0.133625
0.133169
0.132584
0.13189
0.131131
0.130381
0.129727
0.129263
0.129077
0.129244
0.129815
0.130813
0.13225
0.134192
0.136621
0.139439
0.142551
0.145974
0.149728
0.153818
0.158245
0.163002
0.168075
0.173443
0.179078
0.184943
0.190994
0.197177
0.20343
0.209682
0.215864
0.221892
0.227679
0.233131
0.238144
0.242599
0.24639
0.249436
0.251623
0.252829
0.252933
0.251807
0.249317
0.245315
0.239638
0.2321
0.222484
0.210527
0.19591
0.178223
0.156952
0.131335
0.100875
0.0630856
0.028735
0.0889697
0.122407
0.145188
0.144695
0.137384
0.135402
0.13672
0.136085
0.134289
0.134187
0.136434
0.136203
0.134078
0.133395
0.134264
0.134733
0.134771
0.134688
0.134635
0.134621
0.134607
0.13457
0.1345
0.134375
0.134159
0.133821
0.13334
0.132719
0.131992
0.131216
0.130471
0.12985
0.129441
0.129326
0.129564
0.130198
0.131251
0.132696
0.134503
0.136704
0.139293
0.14224
0.145537
0.149183
0.153175
0.157507
0.162168
0.167141
0.172403
0.177922
0.183659
0.189567
0.195589
0.201663
0.207719
0.213677
0.219453
0.224956
0.230089
0.234751
0.238838
0.24225
0.244886
0.246634
0.247375
0.246991
0.245357
0.242339
0.237792
0.231555
0.223445
0.213251
0.200724
0.18557
0.167435
0.145924
0.120515
0.0911701
0.0561868
0.0266225
0.110838
0.121049
0.134557
0.140437
0.139927
0.138866
0.138389
0.137323
0.136091
0.135474
0.135802
0.135817
0.135575
0.135051
0.135009
0.134926
0.134599
0.134486
0.134609
0.134753
0.134824
0.134837
0.134802
0.134704
0.134508
0.134183
0.133711
0.1331
0.132386
0.131629
0.130908
0.130308
0.129915
0.129801
0.13002
0.130603
0.131563
0.132943
0.134716
0.136879
0.139422
0.142331
0.145598
0.14922
0.153192
0.157505
0.162146
0.167096
0.172327
0.177807
0.183493
0.189335
0.195276
0.201249
0.207181
0.212992
0.218596
0.2239
0.228808
0.233221
0.237037
0.240155
0.24247
0.243873
0.244254
0.243495
0.241476
0.238066
0.233126
0.226498
0.218008
0.207452
0.194599
0.179184
0.1609
0.139445
0.114436
0.0860579
0.0527706
0.0255421
0.120938
0.125256
0.134414
0.140654
0.141784
0.141274
0.141172
0.140977
0.140107
0.138937
0.138046
0.137534
0.137066
0.136205
0.135842
0.135908
0.135798
0.135521
0.135259
0.135091
0.13505
0.135092
0.135142
0.135135
0.13502
0.134764
0.134355
0.133805
0.133153
0.132459
0.1318
0.131258
0.130911
0.130823
0.131044
0.131612
0.132566
0.133923
0.135678
0.137825
0.140355
0.143256
0.146518
0.150138
0.154106
0.158412
0.163039
0.167965
0.173162
0.178593
0.184213
0.18997
0.195805
0.20165
0.207431
0.213067
0.218472
0.223554
0.22822
0.232372
0.235912
0.23874
0.240756
0.241856
0.241932
0.240874
0.238565
0.23488
0.229684
0.222825
0.214134
0.203417
0.190454
0.175
0.156779
0.135538
0.110941
0.0833014
0.0509424
0.0247362
0.12709
0.129966
0.136276
0.141394
0.143103
0.143298
0.143661
0.143981
0.143672
0.142926
0.142197
0.141512
0.140532
0.1393
0.138472
0.138093
0.137715
0.137267
0.136905
0.13668
0.13653
0.136386
0.136225
0.13605
0.135848
0.135587
0.135234
0.13478
0.134246
0.133681
0.133147
0.13272
0.132463
0.132433
0.132701
0.133315
0.134307
0.13569
0.137463
0.139623
0.142161
0.145069
0.148337
0.151958
0.155921
0.160213
0.164815
0.169702
0.174842
0.180198
0.185722
0.191361
0.197054
0.202734
0.208325
0.213749
0.218921
0.223752
0.228152
0.232028
0.235286
0.23783
0.239565
0.240392
0.240209
0.238911
0.236385
0.232512
0.227158
0.220178
0.211406
0.200654
0.187709
0.172334
0.154266
0.133272
0.109009
0.0818644
0.0499338
0.0240492
0.131328
0.133532
0.138057
0.142243
0.144318
0.14511
0.145783
0.14636
0.146488
0.146241
0.145883
0.145411
0.144641
0.143634
0.142716
0.141952
0.141193
0.140473
0.139905
0.139506
0.139204
0.138933
0.138663
0.138376
0.138047
0.137647
0.137165
0.136618
0.136043
0.135489
0.135011
0.134657
0.13449
0.134577
0.134954
0.135669
0.136746
0.138195
0.140018
0.142214
0.144778
0.147702
0.150978
0.154597
0.158545
0.162808
0.167364
0.172186
0.177241
0.182488
0.18788
0.193363
0.198875
0.20435
0.209715
0.214892
0.219802
0.224358
0.228476
0.232068
0.235045
0.237317
0.238793
0.23938
0.238982
0.237496
0.234815
0.230821
0.225385
0.218364
0.209593
0.198887
0.186036
0.170804
0.152926
0.132171
0.108159
0.0813138
0.0494963
0.0235076
0.134337
0.13618
0.13982
0.1435
0.145758
0.14689
0.147739
0.148473
0.148877
0.148948
0.148852
0.148627
0.148196
0.147561
0.146871
0.146185
0.145465
0.144737
0.144069
0.143495
0.143003
0.142571
0.142177
0.141797
0.141396
0.140945
0.14043
0.13986
0.139266
0.138694
0.138198
0.137836
0.137654
0.137718
0.138087
0.138809
0.139911
0.141395
0.143257
0.145489
0.14808
0.151019
0.154297
0.157901
0.161817
0.166027
0.170509
0.175235
0.18017
0.185272
0.190495
0.195784
0.20108
0.206318
0.211427
0.216335
0.220964
0.225236
0.22907
0.232384
0.235094
0.237116
0.238364
0.238749
0.238178
0.236552
0.233767
0.229707
0.224245
0.217237
0.20852
0.197911
0.185195
0.170138
0.152461
0.131927
0.108099
0.0814077
0.0495039
0.0231304
0.136547
0.138245
0.141509
0.144932
0.147265
0.148602
0.1496
0.150459
0.151031
0.15129
0.151363
0.151316
0.151113
0.150742
0.150293
0.149827
0.149324
0.148783
0.14824
0.147726
0.147244
0.146782
0.146328
0.145871
0.145397
0.144896
0.144363
0.143808
0.143257
0.142744
0.142317
0.142029
0.141939
0.142071
0.142485
0.143204
0.144263
0.145686
0.147477
0.149637
0.152158
0.155028
0.158235
0.161762
0.165592
0.169702
0.174067
0.178655
0.183431
0.188352
0.193371
0.198436
0.20349
0.208469
0.213309
0.21794
0.22229
0.226285
0.229849
0.232906
0.235376
0.23718
0.238235
0.238455
0.23775
0.236025
0.233176
0.229088
0.223634
0.216673
0.208041
0.197553
0.184993
0.17012
0.152643
0.132309
0.108622
0.0819858
0.0498794
0.0229246
0.138212
0.139892
0.143043
0.146343
0.1487
0.150183
0.15133
0.152311
0.153012
0.153407
0.153605
0.153676
0.153607
0.153397
0.153112
0.152808
0.152477
0.152109
0.151728
0.151358
0.150999
0.150637
0.150261
0.149863
0.149435
0.148975
0.148483
0.147975
0.147477
0.147026
0.146667
0.146451
0.146428
0.146641
0.147125
0.147912
0.149017
0.150455
0.152234
0.154354
0.156809
0.159592
0.16269
0.166091
0.169777
0.173726
0.177914
0.18231
0.186877
0.191575
0.196358
0.201175
0.205971
0.210686
0.215258
0.219622
0.223709
0.227449
0.230772
0.233602
0.235866
0.237486
0.238381
0.23847
0.237662
0.235865
0.232975
0.228879
0.223452
0.216552
0.208015
0.197654
0.185253
0.170563
0.153282
0.133133
0.109565
0.0829332
0.0505785
0.0229081
0.139472
0.141217
0.144415
0.14768
0.150042
0.151633
0.152913
0.154006
0.154814
0.155327
0.155635
0.155803
0.155833
0.155732
0.155554
0.15535
0.155121
0.154862
0.154591
0.154326
0.154066
0.153798
0.153512
0.153201
0.15286
0.152488
0.15209
0.151681
0.151288
0.150946
0.150696
0.150582
0.150648
0.150931
0.15145
0.152255
0.153367
0.154796
0.156548
0.158625
0.161023
0.163734
0.166745
0.170043
0.17361
0.177423
0.181458
0.185683
0.190064
0.194563
0.199134
0.203731
0.208299
0.212784
0.217126
0.221262
0.225128
0.228657
0.231779
0.234423
0.236518
0.237987
0.238753
0.238735
0.237844
0.23599
0.233069
0.228972
0.223572
0.216729
0.20828
0.198038
0.185784
0.171268
0.154171
0.134201
0.110752
0.0841205
0.0515369
0.0231303
0.140416
0.142297
0.145655
0.148934
0.151286
0.152958
0.154354
0.15554
0.156438
0.15705
0.157456
0.157713
0.157831
0.157822
0.157731
0.157602
0.157445
0.157259
0.157058
0.156857
0.156656
0.156445
0.156216
0.155962
0.15568
0.155372
0.155043
0.154711
0.1544
0.154143
0.153979
0.153946
0.154086
0.154426
0.15499
0.155828
0.156963
0.158398
0.160141
0.162193
0.164549
0.167202
0.170142
0.173353
0.17682
0.18052
0.18443
0.188519
0.192755
0.197099
0.201508
0.205937
0.210334
0.214645
0.218813
0.222776
0.226473
0.229838
0.232805
0.235304
0.237264
0.238613
0.239273
0.239166
0.238206
0.236302
0.233353
0.22925
0.223868
0.217067
0.208687
0.198539
0.186404
0.172028
0.155084
0.135263
0.111913
0.0852816
0.0524728
0.023482
0.141106
0.143193
0.146787
0.150095
0.152423
0.154163
0.155658
0.156923
0.157894
0.158588
0.159078
0.159414
0.159611
0.159683
0.15967
0.159611
0.159518
0.159394
0.15925
0.159098
0.15894
0.158768
0.158576
0.158359
0.158116
0.157848
0.157565
0.157283
0.157027
0.156827
0.15672
0.156742
0.15693
0.157313
0.15792
0.158786
0.159933
0.161371
0.163105
0.165135
0.16746
0.170073
0.172962
0.176114
0.179512
0.183135
0.186957
0.190951
0.195082
0.199314
0.203604
0.207906
0.212172
0.216349
0.220379
0.224206
0.227767
0.230999
0.233839
0.236217
0.238066
0.239314
0.239886
0.239704
0.238684
0.236736
0.233761
0.22965
0.224279
0.217509
0.209179
0.199103
0.187057
0.172786
0.155954
0.136241
0.112943
0.0862872
0.0531839
0.0237783
0.141588
0.143957
0.147832
0.151157
0.153453
0.155253
0.156835
0.158165
0.159195
0.159959
0.160519
0.160923
0.161187
0.16133
0.161386
0.16139
0.161358
0.161291
0.1612
0.161093
0.160974
0.160838
0.160679
0.160494
0.160281
0.160047
0.159799
0.159555
0.15934
0.159183
0.159118
0.159181
0.159407
0.159823
0.160463
0.161349
0.162506
0.163945
0.165671
0.167686
0.169987
0.172568
0.175418
0.178522
0.181864
0.185423
0.189174
0.193089
0.197134
0.201272
0.205463
0.209661
0.213819
0.217884
0.221802
0.225516
0.228967
0.232091
0.234827
0.237109
0.238868
0.240036
0.240538
0.240297
0.23923
0.237249
0.234256
0.230141
0.224783
0.218042
0.209757
0.199742
0.187773
0.17359
0.15685
0.137224
0.113959
0.0872769
0.0538221
0.0241275
0.141898
0.144625
0.148801
0.152118
0.154379
0.156237
0.157894
0.159276
0.160357
0.161179
0.161799
0.16226
0.162583
0.162785
0.1629
0.162961
0.162982
0.162966
0.162922
0.162858
0.162776
0.162674
0.162547
0.162391
0.162207
0.162002
0.161785
0.161574
0.161392
0.16127
0.16124
0.161336
0.161591
0.162034
0.162694
0.163594
0.164757
0.166195
0.167913
0.169914
0.172193
0.174745
0.177559
0.180622
0.183916
0.18742
0.19111
0.194958
0.19893
0.202991
0.207099
0.211212
0.215281
0.219255
0.223082
0.226705
0.230066
0.233105
0.235758
0.237962
0.239651
0.240754
0.2412
0.240913
0.239811
0.237805
0.234799
0.230686
0.225342
0.21863
0.210389
0.200431
0.188532
0.174432
0.157778
0.138238
0.115014
0.0883419
0.0545258
0.0246875
0.142066
0.145231
0.149699
0.15298
0.15521
0.157124
0.158843
0.160269
0.161392
0.162263
0.162934
0.163445
0.163817
0.164071
0.164237
0.164346
0.164413
0.164443
0.164441
0.164414
0.164366
0.164295
0.164195
0.164066
0.163909
0.16373
0.16354
0.163357
0.163204
0.16311
0.163107
0.16323
0.163509
0.163971
0.164646
0.165556
0.166722
0.168158
0.169868
0.171854
0.174114
0.17664
0.179424
0.18245
0.185702
0.18916
0.192798
0.19659
0.200501
0.204497
0.208538
0.21258
0.216577
0.220479
0.224232
0.227782
0.231071
0.234039
0.236625
0.238766
0.240395
0.241445
0.241845
0.241519
0.240386
0.238361
0.235347
0.231236
0.225907
0.219224
0.211023
0.20112
0.189288
0.175266
0.158697
0.13925
0.116081
0.0894656
0.0553138
0.0254581
0.142116
0.145797
0.15053
0.153747
0.155953
0.157921
0.159691
0.161153
0.162312
0.163225
0.16394
0.164493
0.164908
0.165206
0.165415
0.165567
0.165675
0.165744
0.165778
0.165784
0.165766
0.165722
0.165648
0.165543
0.165409
0.165252
0.165085
0.164925
0.164796
0.164725
0.164746
0.164889
0.165187
0.165664
0.16635
0.167267
0.168435
0.169867
0.171569
0.173542
0.175783
0.178287
0.181043
0.184038
0.187255
0.190674
0.194269
0.198014
0.201876
0.20582
0.209806
0.213792
0.21773
0.221571
0.225263
0.228751
0.231978
0.234885
0.237411
0.239495
0.241071
0.242073
0.242432
0.242073
0.240917
0.238877
0.235859
0.231756
0.226447
0.219794
0.211637
0.201789
0.190023
0.176079
0.159596
0.140246
0.117143
0.0906203
0.056175
0.0263656
0.142072
0.146341
0.151293
0.154426
0.156619
0.158636
0.160447
0.161938
0.163129
0.164079
0.164832
0.165421
0.165873
0.166208
0.166455
0.166644
0.166788
0.166891
0.166957
0.166992
0.167
0.16698
0.166928
0.166844
0.16673
0.166593
0.166445
0.166304
0.166194
0.166143
0.16618
0.16634
0.166654
0.167142
0.167835
0.168757
0.169926
0.171354
0.173048
0.17501
0.177236
0.179721
0.182455
0.185424
0.188612
0.191998
0.195559
0.199266
0.203087
0.206986
0.210925
0.214859
0.218744
0.222528
0.226162
0.22959
0.232758
0.235607
0.238079
0.240113
0.241644
0.242609
0.242938
0.242556
0.241387
0.239343
0.236329
0.232241
0.226956
0.220337
0.212224
0.20243
0.190729
0.176861
0.16046
0.141208
0.118179
0.0917704
0.0570874
0.027341
0.141952
0.146872
0.151986
0.155023
0.157214
0.159278
0.161121
0.162635
0.163853
0.164834
0.165618
0.16624
0.166723
0.167091
0.167372
0.167593
0.167768
0.167902
0.167995
0.168056
0.168087
0.168088
0.168056
0.16799
0.167894
0.167774
0.167643
0.167519
0.167426
0.16739
0.167442
0.167615
0.167942
0.168437
0.169136
0.17006
0.171227
0.172652
0.174339
0.176291
0.178505
0.180975
0.18369
0.186638
0.1898
0.193157
0.196683
0.200351
0.204128
0.207981
0.211869
0.215751
0.219581
0.223311
0.226891
0.230267
0.233386
0.236191
0.238622
0.240619
0.24212
0.24306
0.24337
0.242977
0.241802
0.23976
0.236757
0.232687
0.227428
0.220844
0.212775
0.203034
0.191395
0.1776
0.161279
0.142121
0.119171
0.0928878
0.0580305
0.0283358
0.141774
0.147399
0.152611
0.15555
0.157745
0.159849
0.161721
0.163257
0.164499
0.165505
0.166317
0.166964
0.167475
0.167871
0.16818
0.168429
0.168632
0.168793
0.168911
0.168994
0.169045
0.169065
0.169049
0.168999
0.168917
0.168812
0.168695
0.168584
0.168504
0.168481
0.168546
0.168729
0.169067
0.169573
0.170278
0.171205
0.172372
0.173793
0.175472
0.177412
0.179609
0.182057
0.184746
0.187663
0.190792
0.194111
0.197598
0.201224
0.204959
0.208768
0.212612
0.21645
0.220237
0.223926
0.227465
0.230804
0.233887
0.236659
0.239061
0.241033
0.242513
0.243437
0.243736
0.243338
0.242165
0.24013
0.237141
0.233091
0.227861
0.221312
0.213286
0.203596
0.192016
0.178289
0.162044
0.142977
0.120108
0.0939538
0.0589878
0.0293203
0.141554
0.14792
0.153167
0.156019
0.158223
0.160352
0.162243
0.163799
0.165064
0.166096
0.166932
0.167604
0.168139
0.168559
0.168892
0.169165
0.169392
0.169575
0.169716
0.169819
0.169889
0.169926
0.169927
0.169893
0.169825
0.169732
0.169628
0.169528
0.169458
0.169444
0.169517
0.169708
0.170039
0.170546
0.171248
0.172167
0.173323
0.174729
0.176392
0.178311
0.180486
0.18291
0.185573
0.188463
0.191562
0.194852
0.198307
0.201902
0.205604
0.20938
0.213191
0.216995
0.22075
0.224406
0.227915
0.231225
0.234281
0.237029
0.23941
0.241365
0.242833
0.243748
0.244043
0.243646
0.242478
0.240455
0.237483
0.233456
0.228254
0.221741
0.213756
0.204114
0.192591
0.178928
0.162755
0.143773
0.120985
0.0949565
0.059943
0.030278
0.141306
0.148436
0.153641
0.156434
0.158667
0.160822
0.162724
0.164289
0.165568
0.166617
0.167473
0.168167
0.168723
0.169167
0.169523
0.169818
0.170066
0.170268
0.170425
0.170542
0.170624
0.17067
0.170679
0.17065
0.170588
0.170499
0.170396
0.170299
0.170229
0.170215
0.170287
0.170473
0.170799
0.171302
0.171997
0.172908
0.174055
0.17545
0.177099
0.179004
0.181163
0.183569
0.186213
0.189082
0.192159
0.195425
0.198856
0.202424
0.2061
0.209849
0.213634
0.217412
0.221141
0.224773
0.228259
0.231548
0.234585
0.237317
0.239684
0.241629
0.24309
0.244002
0.244298
0.243905
0.242747
0.240738
0.237784
0.23378
0.228607
0.222127
0.214182
0.204586
0.193115
0.179512
0.163406
0.144504
0.121795
0.0958837
0.0608734
0.0311934
0.14104
0.148976
0.154031
0.156751
0.159022
0.161214
0.163142
0.164728
0.166023
0.167087
0.167955
0.168659
0.169226
0.169678
0.170044
0.170347
0.170605
0.170815
0.170979
0.171101
0.171187
0.171237
0.171248
0.171222
0.17116
0.171073
0.170972
0.170875
0.170806
0.170794
0.170867
0.171056
0.171379
0.17188
0.172571
0.173476
0.174615
0.176001
0.17764
0.179534
0.181679
0.18407
0.186698
0.18955
0.192609
0.195855
0.199266
0.202815
0.20647
0.210199
0.213963
0.217722
0.221432
0.225046
0.228516
0.23179
0.234815
0.237536
0.239895
0.241835
0.243293
0.244206
0.244506
0.244121
0.242973
0.240979
0.238044
0.234063
0.228917
0.222469
0.21456
0.205006
0.193582
0.180033
0.163987
0.145156
0.122521
0.0967174
0.0617417
0.0320463
0.140714
0.149609
0.154506
0.157105
0.159356
0.161541
0.163465
0.165054
0.166354
0.167423
0.168297
0.169007
0.169578
0.170036
0.170407
0.170716
0.170979
0.171195
0.171363
0.17149
0.17158
0.171634
0.171649
0.171625
0.171567
0.171481
0.171382
0.171287
0.171219
0.171205
0.171276
0.171465
0.171789
0.172291
0.17298
0.173881
0.175015
0.176396
0.178027
0.179912
0.182049
0.18443
0.187047
0.189887
0.192933
0.196165
0.199562
0.203096
0.206737
0.210451
0.2142
0.217945
0.221642
0.225244
0.228704
0.231969
0.234986
0.237702
0.240059
0.241997
0.243457
0.244374
0.244681
0.244306
0.243171
0.241192
0.238276
0.234317
0.229197
0.222778
0.214903
0.205386
0.194003
0.180501
0.164507
0.145736
0.123166
0.0974614
0.0625365
0.0328614
0.140006
0.149779
0.154783
0.157393
0.15965
0.161825
0.163732
0.165311
0.166609
0.167681
0.168561
0.169279
0.169859
0.170326
0.170707
0.171026
0.1713
0.171527
0.171704
0.17184
0.171937
0.171998
0.172019
0.172001
0.171948
0.171867
0.171772
0.171681
0.171616
0.171606
0.171679
0.17187
0.172197
0.172697
0.173382
0.174277
0.175404
0.176776
0.178398
0.18027
0.182392
0.18476
0.187362
0.190186
0.193216
0.196433
0.199813
0.203331
0.206955
0.210654
0.214389
0.21812
0.221805
0.225397
0.228847
0.232106
0.235119
0.237832
0.240189
0.242131
0.243598
0.244524
0.244843
0.244484
0.243368
0.241411
0.238518
0.234587
0.229498
0.223115
0.215279
0.205806
0.194472
0.181025
0.165092
0.146394
0.123899
0.0983163
0.0634567
0.0339202
)
;

boundaryField
{
    inlet
    {
        type            zeroGradient;
    }
    outlet
    {
        type            fixedValue;
        value           uniform 0;
    }
    fixedWalls
    {
        type            zeroGradient;
    }
    frontAndBack
    {
        type            empty;
    }
}


// ************************************************************************* //
