/*--------------------------------*- C++ -*----------------------------------*\
| =========                 |                                                 |
| \\      /  F ield         | OpenFOAM: The Open Source CFD Toolbox           |
|  \\    /   O peration     | Version:  v1912                                 |
|   \\  /    A nd           | Website:  www.openfoam.com                      |
|    \\/     M anipulation  |                                                 |
\*---------------------------------------------------------------------------*/
FoamFile
{
    version     2.0;
    format      ascii;
    class       surfaceScalarField;
    location    "175";
    object      phi;
}
// * * * * * * * * * * * * * * * * * * * * * * * * * * * * * * * * * * * * * //

dimensions      [0 3 -1 0 0 0 0];
oriented        oriented;


internalField   nonuniform List<scalar> 
3895
(
0.00081296
0.000383217
0.000495759
0.000317201
0.000248399
0.00024736
6.44902e-05
0.000183908
-5.65649e-05
0.000121055
-0.000113316
5.67507e-05
-0.000118888
5.5727e-06
-9.83886e-05
-2.04996e-05
-9.66595e-05
-1.72918e-06
-8.92483e-05
-7.4112e-06
-7.74625e-05
-1.17857e-05
-8.20565e-05
4.59399e-06
-9.81492e-05
1.60927e-05
-0.000108548
1.03992e-05
-0.000113423
4.87458e-06
-0.000120151
6.72766e-06
-0.000130384
1.02331e-05
-0.000142366
1.19822e-05
-0.00015529
1.29243e-05
-0.0001694
1.41095e-05
-0.000185302
1.59025e-05
-0.000203613
1.83113e-05
-0.000224899
2.12857e-05
-0.000249651
2.47514e-05
-0.000278186
2.8535e-05
-0.000310532
3.23465e-05
-0.000346355
3.58227e-05
-0.000384956
3.86011e-05
-0.000425274
4.03182e-05
-0.000466014
4.07398e-05
-0.00050581
3.9796e-05
-0.000543362
3.75523e-05
-0.000577543
3.41805e-05
-0.000607461
2.99181e-05
-0.000632484
2.50234e-05
-0.000652226
1.97418e-05
-0.000666519
1.4293e-05
-0.000675333
8.81417e-06
-0.000678504
3.17041e-06
-0.00067676
-1.74375e-06
-0.000671421
-5.33837e-06
-0.000662563
-8.85798e-06
-0.000650314
-1.22495e-05
-0.000634741
-1.55725e-05
-0.000615875
-1.8866e-05
-0.000593733
-2.21419e-05
-0.000568339
-2.53949e-05
-0.00053973
-2.86086e-05
-0.000507969
-3.17604e-05
-0.000473145
-3.48241e-05
-0.000435373
-3.7772e-05
-0.000394798
-4.05754e-05
-0.000351596
-4.32023e-05
-0.000305945
-4.56508e-05
-0.000258046
-4.78991e-05
-0.000208142
-4.99034e-05
-0.0001565
-5.16418e-05
-0.000103407
-5.30937e-05
-4.91695e-05
-5.42373e-05
5.87691e-06
-5.50464e-05
6.15144e-05
-5.56375e-05
0.000117601
-5.60864e-05
0.000173783
-5.61818e-05
0.000229741
-5.59587e-05
0.000285188
-5.54466e-05
0.000339858
-5.46703e-05
0.000393512
-5.36542e-05
0.000445937
-5.24248e-05
0.000496949
-5.1012e-05
0.000546399
-4.94494e-05
0.000594174
-4.77759e-05
0.000640213
-4.60389e-05
0.000684516
-4.43026e-05
0.000727173
-4.26566e-05
0.000768435
-4.12624e-05
0.000808796
-4.03613e-05
0.000849358
-4.05615e-05
0.000892251
-4.2893e-05
0.00094099
-4.8739e-05
-7.36835e-05
0.00108704
0.000351985
0.00104376
0.000360481
0.000925069
0.000366053
0.000762332
0.000346646
0.000579122
0.000304265
0.000384378
0.000251495
0.000193949
0.000196002
3.75548e-05
0.000135894
-4.67699e-05
8.25955e-05
-8.2909e-05
2.87279e-05
-9.23977e-05
-2.29704e-06
-8.18818e-05
-5.92197e-06
-8.55859e-05
1.97968e-05
-9.29693e-05
1.77826e-05
-9.83896e-05
1.02948e-05
-0.000109329
1.76673e-05
-0.000121803
2.27064e-05
-0.000134305
2.44846e-05
-0.000146484
2.5103e-05
-0.000159013
2.66387e-05
-0.000172284
2.91738e-05
-0.000186358
3.23847e-05
-0.000201168
3.60957e-05
-0.000216609
4.0193e-05
-0.000232518
4.44442e-05
-0.000248605
4.84334e-05
-0.00026442
5.16375e-05
-0.000279371
5.35516e-05
-0.000292847
5.37943e-05
-0.000304294
5.2187e-05
-0.00031328
4.87818e-05
-0.00031954
4.38125e-05
-0.000322991
3.76311e-05
-0.000323717
3.06445e-05
-0.000321953
2.32596e-05
-0.000318043
1.58315e-05
-0.000312416
8.66661e-06
-0.000305847
2.24442e-06
-0.000298437
-4.2396e-06
-0.000290088
-1.00926e-05
-0.000280018
-1.54086e-05
-0.00026821
-2.06652e-05
-0.000254486
-2.5974e-05
-0.000238707
-3.13518e-05
-0.000220786
-3.67869e-05
-0.000200678
-4.22501e-05
-0.000178371
-4.77019e-05
-0.000153883
-5.30965e-05
-0.000127258
-5.83853e-05
-9.85641e-05
-6.3518e-05
-6.78914e-05
-6.84447e-05
-3.53497e-05
-7.31172e-05
-1.06131e-06
-7.74907e-05
3.4804e-05
-8.15161e-05
7.20588e-05
-8.5154e-05
0.000110522
-8.83662e-05
0.000149998
-9.11179e-05
0.000190285
-9.33813e-05
0.000231185
-9.51371e-05
0.000272521
-9.63827e-05
0.000314024
-9.714e-05
0.000355348
-9.74106e-05
0.000396339
-9.71722e-05
0.000436818
-9.64377e-05
0.000476607
-9.52364e-05
0.000515541
-9.3604e-05
0.000553468
-9.15812e-05
0.000590258
-8.92143e-05
0.000625801
-8.65558e-05
0.000660016
-8.36644e-05
0.000692848
-8.06073e-05
0.000724274
-7.74645e-05
0.000754309
-7.43378e-05
0.000783018
-7.13663e-05
0.000810521
-6.87648e-05
0.000837018
-6.68584e-05
0.000862726
-6.62697e-05
0.000887687
-6.78544e-05
0.000911794
-7.28457e-05
-8.92906e-05
0.00097612
0.000307778
0.00102675
0.000309848
0.00105929
0.000333518
0.0010521
0.000353833
0.000998533
0.000357831
0.00090327
0.000346757
0.000775384
0.000323888
0.000621712
0.000289566
0.000458939
0.000245369
0.000292216
0.000195451
0.000143756
0.000146164
3.96603e-05
9.81733e-05
-3.7482e-06
6.32054e-05
-2.02097e-05
3.42441e-05
-3.01885e-05
2.02737e-05
-3.71734e-05
2.46522e-05
-4.61222e-05
3.16552e-05
-5.57495e-05
3.41118e-05
-6.44915e-05
3.3845e-05
-7.19127e-05
3.40599e-05
-7.81791e-05
3.54402e-05
-8.33314e-05
3.75371e-05
-8.7129e-05
3.98933e-05
-8.94455e-05
4.25095e-05
-9.02845e-05
4.52832e-05
-8.9729e-05
4.78779e-05
-8.79018e-05
4.98104e-05
-8.49548e-05
5.06046e-05
-8.10724e-05
4.99119e-05
-7.64601e-05
4.75747e-05
-7.13122e-05
4.36339e-05
-6.57872e-05
3.82875e-05
-5.99898e-05
3.18337e-05
-5.3957e-05
2.46117e-05
-4.76646e-05
1.69672e-05
-4.10336e-05
9.20043e-06
-3.37576e-05
1.39062e-06
-2.56261e-05
-5.88704e-06
-1.68059e-05
-1.30598e-05
-6.89116e-06
-2.00074e-05
4.48247e-06
-2.67823e-05
1.73375e-05
-3.35202e-05
3.16589e-05
-4.02954e-05
4.74315e-05
-4.71244e-05
6.46355e-05
-5.39909e-05
8.32439e-05
-6.08585e-05
0.00010322
-6.76785e-05
0.000124518
-7.43944e-05
0.000147079
-8.09457e-05
0.00017083
-8.72696e-05
0.000195689
-9.33032e-05
0.000221557
-9.89849e-05
0.000248322
-0.000104256
0.000275864
-0.000109058
0.00030405
-0.00011334
0.00033274
-0.000117056
0.000361789
-0.000120167
0.000391051
-0.000122643
0.00042038
-0.000124466
0.000449626
-0.000125629
0.000478624
-0.000126138
0.000507216
-0.000126002
0.000535278
-0.000125234
0.000562698
-0.000123858
0.000589374
-0.000121912
0.000615215
-0.000119445
0.000640146
-0.000116512
0.000664108
-0.000113176
0.000687055
-0.000109503
0.000708961
-0.00010557
0.000729812
-0.000101458
0.000749609
-9.7262e-05
0.000768366
-9.30943e-05
0.0007861
-8.91005e-05
0.000802815
-8.54801e-05
0.000818487
-8.25299e-05
0.00083289
-8.06723e-05
0.000845647
-8.0612e-05
0.000855579
-8.27773e-05
-9.15115e-05
0.000857367
0.000272969
0.000897592
0.000269624
0.000949746
0.000281364
0.00100253
0.000301052
0.00104093
0.000319426
0.00105506
0.000332634
0.00103974
0.000339207
0.000991884
0.000337419
0.000912112
0.000325141
0.000804828
0.000302734
0.000678026
0.000272966
0.000538881
0.000237318
0.000404007
0.000198079
0.00028183
0.000156422
0.00018417
0.000117934
0.00012209
8.67322e-05
9.17188e-05
6.20264e-05
7.79108e-05
4.79199e-05
6.96439e-05
4.21119e-05
6.33356e-05
4.03682e-05
5.87957e-05
3.998e-05
5.66008e-05
3.9732e-05
5.69804e-05
3.95137e-05
5.99288e-05
3.95611e-05
6.52957e-05
3.99162e-05
7.28205e-05
4.03532e-05
8.21335e-05
4.04974e-05
9.27786e-05
3.99596e-05
0.000104263
3.84272e-05
0.000116123
3.57148e-05
0.000127977
3.17797e-05
0.000139563
2.67017e-05
0.000150744
2.06526e-05
0.00016151
1.38459e-05
0.000171962
6.51567e-06
0.000182313
-1.15065e-06
0.000192624
-8.92023e-06
0.000203442
-1.67054e-05
0.000214844
-2.44614e-05
0.000226993
-3.21566e-05
0.000240006
-3.97954e-05
0.000253901
-4.74157e-05
0.000268648
-5.50424e-05
0.000284198
-6.2674e-05
0.000300495
-7.02875e-05
0.00031748
-7.78435e-05
0.000335092
-8.52908e-05
0.000353267
-9.25698e-05
0.000371938
-9.9616e-05
0.00039103
-0.000106362
0.000410466
-0.000112739
0.000430162
-0.000118681
0.00045003
-0.000124123
0.000469975
-0.000129004
0.000489905
-0.00013327
0.000509722
-0.000136873
0.000529331
-0.000139776
0.000548639
-0.000141951
0.000567556
-0.000143383
0.000585997
-0.00014407
0.000603879
-0.00014402
0.000621131
-0.000143254
0.000637697
-0.0001418
0.000653535
-0.000139696
0.000668614
-0.000136992
0.000682917
-0.000133748
0.000696436
-0.000130031
0.000709174
-0.000125913
0.000721141
-0.000121471
0.000732358
-0.000116787
0.000742846
-0.000111947
0.00075263
-0.000107045
0.000761724
-0.000102188
0.000770127
-9.75037e-05
0.000777796
-9.31486e-05
0.000784614
-8.93478e-05
0.000790291
-8.63493e-05
0.000794343
-8.46643e-05
0.000795833
-8.42675e-05
-8.72519e-05
0.00075912
0.000239883
0.000789428
0.000239316
0.00082616
0.000244632
0.000871846
0.000255367
0.000923028
0.000268244
0.000973747
0.000281915
0.0010172
0.000295751
0.00104668
0.000307941
0.00105607
0.000315747
0.00104155
0.000317257
0.00100235
0.000312169
0.000938987
0.000300681
0.000854833
0.000282233
0.000754487
0.000256768
0.00064574
0.000226681
0.000537997
0.000194475
0.000444493
0.000155531
0.000371617
0.000120796
0.000320146
9.35829e-05
0.000286982
7.35324e-05
0.000267329
5.96329e-05
0.000256621
5.04399e-05
0.000251706
4.44292e-05
0.000250923
4.03433e-05
0.00025353
3.73099e-05
0.000259114
3.47689e-05
0.00026727
3.23417e-05
0.000277498
2.97315e-05
0.000289237
2.66876e-05
0.000301935
2.3017e-05
0.000315106
1.86089e-05
0.000328374
1.34334e-05
0.000341476
7.55032e-06
0.000354281
1.04115e-06
0.000366796
-5.99914e-06
0.000379097
-1.34521e-05
0.000391343
-2.11654e-05
0.000403669
-2.90318e-05
0.000416179
-3.69718e-05
0.000428958
-4.49352e-05
0.000442055
-5.28928e-05
0.000455473
-6.08339e-05
0.000469179
-6.87481e-05
0.00048312
-7.66144e-05
0.000497232
-8.44e-05
0.00051145
-9.20613e-05
0.000525705
-9.95456e-05
0.000539928
-0.000106793
0.00055405
-0.000113739
0.000568004
-0.000120315
0.000581718
-0.000126454
0.000595126
-0.000132089
0.00060816
-0.000137157
0.000620755
-0.000141598
0.000632848
-0.000145363
0.000644382
-0.000148408
0.000655308
-0.000150701
0.00066558
-0.000152223
0.000675163
-0.000152967
0.000684031
-0.000152938
0.000692167
-0.000152156
0.000699564
-0.000150651
0.000706229
-0.000148465
0.000712182
-0.000145648
0.000717451
-0.000142261
0.000722074
-0.000138371
0.000726094
-0.000134052
0.000729563
-0.000129381
0.00073253
-0.000124438
0.000735046
-0.000119304
0.00073716
-0.00011406
0.000738908
-0.000108794
0.000740314
-0.000103594
0.00074137
-9.85602e-05
0.000742023
-9.38014e-05
0.000742142
-8.9467e-05
0.000741455
-8.56628e-05
0.000739507
-8.27155e-05
0.000735676
-8.04373e-05
-7.91781e-05
0.000671951
0.000208768
0.000700419
0.000210848
0.000729695
0.000215356
0.000762602
0.00022246
0.000800451
0.000230395
0.000843571
0.000238795
0.000890935
0.000248387
0.000939726
0.00025915
0.000985502
0.00026997
0.00102329
0.00027947
0.00104887
0.000286593
0.00105909
0.000290451
0.0010515
0.000289823
0.00102467
0.000283602
0.000979474
0.000271876
0.000918571
0.000255379
0.00084908
0.000225021
0.000777586
0.00019229
0.000709343
0.000161826
0.000648424
0.000134452
0.000597466
0.000110591
0.000557548
9.0357e-05
0.000528345
7.36328e-05
0.000508572
6.01161e-05
0.000496542
4.93397e-05
0.000490598
4.07131e-05
0.000489339
3.36005e-05
0.000491663
2.7408e-05
0.000496706
2.16445e-05
0.000503773
1.59495e-05
0.000512289
1.00933e-05
0.000521802
3.92077e-06
0.000531929
-2.57687e-06
0.000542361
-9.39137e-06
0.000552975
-1.66133e-05
0.000563648
-2.41245e-05
0.000574332
-3.18494e-05
0.000585013
-3.9713e-05
0.000595693
-4.76517e-05
0.000606373
-5.56149e-05
0.000617042
-6.35623e-05
0.000627672
-7.14634e-05
0.000638213
-7.92898e-05
0.000648608
-8.70086e-05
0.000658788
-9.45803e-05
0.000668685
-0.000101958
0.000678229
-0.00010909
0.000687351
-0.000115915
0.000695986
-0.000122373
0.00070407
-0.000128399
0.000711544
-0.000133929
0.000718355
-0.0001389
0.000724456
-0.000143257
0.000729806
-0.000146948
0.000734374
-0.000149931
0.000738138
-0.000152172
0.000741087
-0.00015365
0.000743221
-0.000154357
0.000744552
-0.000154298
0.000745104
-0.000153489
0.000744909
-0.000151962
0.000744015
-0.000149757
0.000742476
-0.000146926
0.000740356
-0.000143529
0.000737727
-0.000139631
0.000734661
-0.000135306
0.000731235
-0.000130626
0.000727524
-0.00012567
0.000723598
-0.000120512
0.000719523
-0.000115228
0.000715354
-0.000109891
0.000711133
-0.000104573
0.000706883
-9.93436e-05
0.000702597
-9.42745e-05
0.000698223
-8.94275e-05
0.000693642
-8.48854e-05
0.000688623
-8.06441e-05
0.000682762
-7.68548e-05
0.000675664
-7.33391e-05
-6.89476e-05
0.00059375
0.000180655
0.000620765
0.000183832
0.000647712
0.000188409
0.000675586
0.000194586
0.000704954
0.000201027
0.000736703
0.000207045
0.000771997
0.000213093
0.000811469
0.000219679
0.000854623
0.000226817
0.000899813
0.000234279
0.00094462
0.000241786
0.000986222
0.000248849
0.00102147
0.000254572
0.00104725
0.000257827
0.00106121
0.000257913
0.00106205
0.000254538
0.00105
0.00023707
0.00102716
0.000215132
0.000996176
0.000192812
0.000959871
0.000170756
0.000921
0.000149462
0.000882071
0.000129286
0.000845223
0.000110482
0.000812121
9.32173e-05
0.000783893
7.75677e-05
0.000761095
6.35114e-05
0.000743756
5.09396e-05
0.00073149
3.96743e-05
0.000723644
2.94903e-05
0.000719453
2.01404e-05
0.000718165
1.13814e-05
0.0007191
2.98542e-06
0.000721699
-5.17561e-06
0.000725521
-1.32139e-05
0.00073016
-2.12514e-05
0.000735356
-2.93211e-05
0.000740921
-3.74139e-05
0.000746709
-4.5501e-05
0.000752605
-5.35483e-05
0.000758514
-6.15235e-05
0.000764349
-6.93975e-05
0.000770029
-7.71438e-05
0.000775474
-8.47345e-05
0.000780603
-9.21371e-05
0.000785335
-9.9313e-05
0.000789594
-0.000106217
0.000793304
-0.0001128
0.000796395
-0.000119006
0.000798803
-0.000124781
0.000800471
-0.000130067
0.000801351
-0.000134809
0.000801406
-0.000138955
0.000800609
-0.00014246
0.000798945
-0.000145285
0.000796414
-0.0001474
0.000793027
-0.000148785
0.000788811
-0.000149434
0.000783805
-0.000149352
0.000778062
-0.000148555
0.000771645
-0.000147072
0.000764628
-0.000144944
0.000757091
-0.00014222
0.000749121
-0.000138957
0.000740809
-0.000135217
0.000732246
-0.000131068
0.000723521
-0.00012658
0.000714716
-0.000121822
0.000705912
-0.000116866
0.000697178
-0.000111778
0.000688574
-0.000106624
0.000680149
-0.000101466
0.000671936
-9.636e-05
0.00066395
-9.13577e-05
0.000656181
-8.6505e-05
0.000648579
-8.18259e-05
0.000641041
-7.73472e-05
0.000633385
-7.29876e-05
0.000625251
-6.87217e-05
0.000616401
-6.44891e-05
-5.77896e-05
0.000524267
0.00015565
0.000548877
0.000159222
0.000573654
0.000163632
0.000599101
0.00016914
0.000625167
0.00017496
0.000651837
0.000180376
0.00067958
0.00018535
0.000709171
0.000190088
0.000741326
0.000194662
0.000776476
0.000199129
0.000814611
0.000203651
0.000855143
0.000208317
0.000896815
0.0002129
0.000937776
0.000216867
0.000975948
0.000219741
0.00100936
0.000221122
0.00103522
0.000211217
0.00105282
0.000197524
0.0010625
0.000183139
0.00106493
0.00016832
0.00106107
0.000153327
0.00105197
0.00013838
0.00103879
0.000123662
0.0010227
0.000109314
0.00100483
9.54343e-05
0.000986269
8.2072e-05
0.000967971
6.92382e-05
0.000950725
5.69201e-05
0.000935122
4.50929e-05
0.000921536
3.37269e-05
0.000910132
2.27856e-05
0.000900882
1.22352e-05
0.00089368
2.02645e-06
0.000888405
-7.93893e-06
0.000884732
-1.75787e-05
0.000882279
-2.68678e-05
0.000880696
-3.58312e-05
0.000879695
-4.44999e-05
0.000879046
-5.28989e-05
0.000878565
-6.10432e-05
0.000878105
-6.89369e-05
0.000877535
-7.65737e-05
0.000876739
-8.39384e-05
0.000875609
-9.10073e-05
0.000874046
-9.77498e-05
0.000871958
-0.00010413
0.000869266
-0.000110107
0.000865898
-0.000115638
0.000861797
-0.000120681
0.00085692
-0.00012519
0.000851237
-0.000129125
0.000844732
-0.000132451
0.000837407
-0.000135135
0.000829277
-0.000137155
0.000820375
-0.000138497
0.000810748
-0.000139158
0.000800456
-0.000139142
0.000789572
-0.000138468
0.000778181
-0.000137163
0.000766373
-0.000135263
0.000754242
-0.000132814
0.000741887
-0.000129865
0.000729405
-0.000126474
0.000716887
-0.000122699
0.000704421
-0.000118602
0.000692087
-0.000114246
0.000679955
-0.000109691
0.000668088
-0.000104999
0.000656536
-0.000100226
0.000645338
-9.54271e-05
0.000634525
-9.06525e-05
0.000624112
-8.59466e-05
0.000614099
-8.13455e-05
0.00060447
-7.68757e-05
0.000595178
-7.25341e-05
0.000586135
-6.83034e-05
0.000577204
-6.40569e-05
0.00056807
-5.95879e-05
0.000558611
-5.50303e-05
-4.66309e-05
0.000462816
0.000133509
0.000484788
0.00013725
0.000507026
0.000141393
0.000529984
0.000146182
0.000553646
0.000151298
0.000577784
0.000156238
0.000602319
0.000160815
0.000627371
0.000165036
0.000653198
0.000168834
0.000680191
0.000172135
0.000708834
0.000175009
0.000739551
0.000177599
0.00077251
0.00017994
0.000807473
0.000181904
0.000843834
0.00018338
0.000880702
0.000184254
0.00091544
0.00017648
0.00094677
0.000166194
0.000974145
0.000155764
0.000997273
0.000145192
0.00101608
0.00013452
0.00103066
0.000123799
0.00104124
0.000113086
0.00104812
0.000102432
0.00105168
9.18757e-05
0.00105232
8.14325e-05
0.00105046
7.10956e-05
0.00104653
6.08469e-05
0.00104096
5.06678e-05
0.00103414
4.05458e-05
0.00102645
3.04798e-05
0.0010182
2.04791e-05
0.00100964
1.05886e-05
0.0010009
7.9698e-07
0.000992294
-8.96865e-06
0.000983987
-1.85601e-05
0.000976082
-2.79264e-05
0.000968586
-3.70034e-05
0.00096143
-4.57436e-05
0.000954502
-5.41145e-05
0.00094766
-6.20958e-05
0.000940762
-6.9675e-05
0.000933667
-7.68434e-05
0.000926251
-8.35918e-05
0.000918409
-8.99078e-05
0.000910054
-9.57744e-05
0.000901118
-0.00010117
0.00089155
-0.000106071
0.000881321
-0.000110451
0.000870414
-0.000114283
0.000858832
-0.000117544
0.000846594
-0.000120213
0.000833735
-0.000122276
0.000820305
-0.000123725
0.000806368
-0.00012456
0.000792
-0.00012479
0.000777286
-0.000124429
0.000762319
-0.000123501
0.000747193
-0.000122037
0.000732004
-0.000120074
0.000716843
-0.000117653
0.000701798
-0.000114821
0.000686949
-0.000111624
0.000672366
-0.000108116
0.000658109
-0.000104346
0.000644231
-0.000100367
0.000630771
-9.62309e-05
0.00061776
-9.19881e-05
0.000605221
-8.76871e-05
0.000593168
-8.33737e-05
0.000581605
-7.90897e-05
0.00057053
-7.48713e-05
0.000559929
-7.0745e-05
0.000549779
-6.6725e-05
0.000540037
-6.27928e-05
0.000530631
-5.88967e-05
0.000521469
-5.4895e-05
0.00051228
-5.03996e-05
0.00050304
-4.57903e-05
-3.61506e-05
0.000408523
0.00011395
0.000428003
0.000117771
0.000447764
0.000121632
0.000468177
0.00012577
0.000489297
0.000130178
0.000511009
0.000134525
0.000533213
0.000138611
0.000555827
0.000142423
0.000578766
0.000145895
0.000602009
0.000148892
0.000625667
0.000151352
0.000649975
0.000153291
0.000675217
0.000154698
0.000701616
0.000155505
0.000729308
0.000155689
0.000758281
0.000155281
0.000787036
0.000147724
0.000814848
0.000138382
0.000841346
0.000129266
0.000866196
0.000120342
0.00088913
0.000111586
0.000909956
0.000102973
0.000928559
9.44826e-05
0.000944892
8.60993e-05
0.000958962
7.78054e-05
0.00097082
6.95748e-05
0.000980542
6.13728e-05
0.000988227
5.31623e-05
0.000993984
4.49107e-05
0.000997934
3.6596e-05
0.0010002
2.82102e-05
0.00100092
1.97615e-05
0.00100023
1.12828e-05
0.000998175
2.84848e-06
0.000994746
-5.53944e-06
0.000989991
-1.38052e-05
0.000984003
-2.19379e-05
0.000976898
-2.98989e-05
0.000968798
-3.76433e-05
0.000959815
-4.5131e-05
0.000950046
-5.23268e-05
0.000939569
-5.91988e-05
0.000928444
-6.57178e-05
0.000916708
-7.18565e-05
0.00090439
-7.75889e-05
0.000891505
-8.28897e-05
0.000878069
-8.7735e-05
0.0008641
-9.21025e-05
0.000849622
-9.59725e-05
0.000834667
-9.9328e-05
0.000819279
-0.000102156
0.000803514
-0.000104448
0.000787438
-0.000106199
0.000771124
-0.000107411
0.000754653
-0.00010809
0.000738112
-0.000108248
0.000721583
-0.0001079
0.000705152
-0.00010707
0.000688896
-0.000105781
0.000672886
-0.000104064
0.000657186
-0.000101953
0.000641849
-9.94841e-05
0.000626921
-9.66961e-05
0.000612436
-9.36307e-05
0.000598421
-9.03308e-05
0.000584894
-8.68403e-05
0.000571867
-8.32037e-05
0.000559344
-7.94651e-05
0.000547325
-7.56674e-05
0.000535802
-7.18512e-05
0.000524766
-6.80537e-05
0.000514201
-6.43067e-05
0.000504088
-6.06318e-05
0.0004944
-5.70367e-05
0.000485104
-5.3497e-05
0.000476144
-4.99366e-05
0.000467469
-4.62202e-05
0.000458866
-4.17961e-05
0.000450373
-3.72974e-05
-2.68251e-05
0.000360569
9.67009e-05
0.000377775
0.000100564
0.000395283
0.000104124
0.00041336
0.000107692
0.000432047
0.000111491
0.000451304
0.000115268
0.000471105
0.00011881
0.000491405
0.000122124
0.000512109
0.000125191
0.000533096
0.000127904
0.00055427
0.000130177
0.00057559
0.000131972
0.000597064
0.000133224
0.000618737
0.000133832
0.000640694
0.000133731
0.000663045
0.00013293
0.000684883
0.000125886
0.000705959
0.000117306
0.000726251
0.000108975
0.00074569
0.000100903
0.000764185
9.30909e-05
0.000781635
8.55224e-05
0.000797946
7.81714e-05
0.000813037
7.10088e-05
0.000826842
6.40006e-05
0.00083931
5.71063e-05
0.000850403
5.02798e-05
0.00086009
4.34752e-05
0.000868349
3.66525e-05
0.000875163
2.9782e-05
0.000880525
2.28477e-05
0.000884436
1.58502e-05
0.000886911
8.80771e-06
0.000887997
1.7632e-06
0.000887709
-5.25147e-06
0.0008861
-1.21963e-05
0.000883196
-1.90344e-05
0.000879029
-2.57316e-05
0.000873636
-3.22505e-05
0.000867062
-3.85571e-05
0.000859358
-4.46223e-05
0.000850579
-5.04202e-05
0.000840789
-5.59278e-05
0.000830056
-6.11238e-05
0.000818455
-6.59878e-05
0.000806066
-7.05003e-05
0.000792973
-7.46421e-05
0.000779266
-7.83951e-05
0.000765036
-8.17427e-05
0.000750378
-8.467e-05
0.000735386
-8.71643e-05
0.000720154
-8.92159e-05
0.000704774
-9.08181e-05
0.000689331
-9.1968e-05
0.000673907
-9.26661e-05
0.000658576
-9.29172e-05
0.000643406
-9.27303e-05
0.000628455
-9.21186e-05
0.000613774
-9.10997e-05
0.000599405
-8.96955e-05
0.000585384
-8.79321e-05
0.000571739
-8.58392e-05
0.000558493
-8.345e-05
0.000545662
-8.08002e-05
0.000533259
-7.79277e-05
0.00052129
-7.48717e-05
0.000509759
-7.16723e-05
0.000498663
-6.83691e-05
0.000487997
-6.50011e-05
0.000477751
-6.16053e-05
0.000467913
-5.82155e-05
0.000458466
-5.48605e-05
0.000449394
-5.15596e-05
0.000440675
-4.83171e-05
0.000432285
-4.51076e-05
0.000424191
-4.18419e-05
0.000416366
-3.8396e-05
0.00040868
-3.41098e-05
0.000401146
-2.97629e-05
-1.89784e-05
0.000318219
8.15151e-05
0.000333377
8.54054e-05
0.000348866
8.86356e-05
0.000364863
9.16954e-05
0.000381373
9.4981e-05
0.000398383
9.82576e-05
0.000415891
0.000101302
0.00043388
0.000104135
0.000452306
0.000106765
0.000471096
0.000109114
0.000490161
0.000111113
0.000509406
0.000112726
0.000528734
0.000113897
0.000548044
0.000114521
0.000567259
0.000114517
0.000586338
0.00011385
0.000604466
0.000107759
0.000621488
0.000100283
0.000637491
9.29715e-05
0.000652539
8.58557e-05
0.000666671
7.89581e-05
0.000679911
7.22829e-05
0.000692262
6.58203e-05
0.000703718
5.95527e-05
0.000714264
5.34544e-05
0.000723879
4.74917e-05
0.000732534
4.16248e-05
0.000740196
3.5813e-05
0.000746829
3.00198e-05
0.000752394
2.42171e-05
0.000756853
1.83882e-05
0.000760174
1.25292e-05
0.000762331
6.65052e-06
0.000763336
7.5878e-07
0.000763198
-5.1133e-06
0.000761955
-1.09534e-05
0.00075963
-1.67097e-05
0.000756252
-2.23536e-05
0.000751859
-2.78569e-05
0.000746494
-3.31926e-05
0.000740208
-3.83367e-05
0.000733056
-4.32683e-05
0.000725097
-4.79681e-05
0.000716391
-5.24179e-05
0.000707003
-5.66e-05
0.000697
-6.04968e-05
0.000686448
-6.40907e-05
0.000675418
-6.73645e-05
0.000663976
-7.03015e-05
0.000652193
-7.28862e-05
0.000640133
-7.51044e-05
0.000627861
-7.6944e-05
0.000615438
-7.83955e-05
0.000602923
-7.94525e-05
0.000590369
-8.0112e-05
0.000577827
-8.03752e-05
0.000565344
-8.02475e-05
0.000552964
-7.9739e-05
0.000540729
-7.88642e-05
0.000528675
-7.7642e-05
0.000516839
-7.60953e-05
0.00050525
-7.42503e-05
0.000493936
-7.21361e-05
0.00048292
-6.9784e-05
0.000472219
-6.72269e-05
0.000461846
-6.44987e-05
0.000451808
-6.16342e-05
0.000442107
-5.86683e-05
0.000432742
-5.56358e-05
0.000423707
-5.25703e-05
0.000414994
-4.95031e-05
0.000406595
-4.6461e-05
0.000398498
-4.34628e-05
0.000390693
-4.05123e-05
0.000383171
-3.75854e-05
0.000375922
-3.4593e-05
0.000368937
-3.14107e-05
0.000362196
-2.73695e-05
0.000355564
-2.31306e-05
-1.27137e-05
0.000280821
6.81677e-05
0.000294152
7.20742e-05
0.000307841
7.49462e-05
0.000321986
7.75508e-05
0.000336569
8.03982e-05
0.000351593
8.32331e-05
0.000367055
8.58402e-05
0.000382937
8.82529e-05
0.000399212
9.04902e-05
0.000415841
9.24856e-05
0.000432773
9.41813e-05
0.000449945
9.55543e-05
0.000467278
9.65637e-05
0.000484668
9.71311e-05
0.000502001
9.71835e-05
0.000519172
9.66801e-05
0.000535369
9.15609e-05
0.000550408
8.52443e-05
0.000564339
7.90398e-05
0.000577222
7.29736e-05
0.00058911
6.70694e-05
0.000600056
6.13366e-05
0.000610103
5.57733e-05
0.000619286
5.037e-05
0.000627631
4.511e-05
0.000635154
3.99686e-05
0.000641863
3.49158e-05
0.000647756
2.99194e-05
0.000652826
2.49503e-05
0.000657057
1.99853e-05
0.000660436
1.501e-05
0.000662945
1.00198e-05
0.000664576
5.01951e-06
0.000665328
7.26266e-09
0.0006652
-4.98579e-06
0.000664203
-9.95658e-06
0.000662353
-1.48592e-05
0.000659669
-1.96696e-05
0.000656177
-2.43651e-05
0.000651908
-2.89238e-05
0.000646897
-3.33255e-05
0.000641181
-3.75522e-05
0.0006348
-4.15872e-05
0.000627796
-4.54142e-05
0.000620214
-4.90171e-05
0.000612096
-5.23796e-05
0.000603491
-5.54852e-05
0.000594444
-5.83173e-05
0.000585002
-6.086e-05
0.000575214
-6.30979e-05
0.000565126
-6.50172e-05
0.000554789
-6.66061e-05
0.000544248
-6.78553e-05
0.000533555
-6.87588e-05
0.000522757
-6.93141e-05
0.000511904
-6.95223e-05
0.000501045
-6.93886e-05
0.000490228
-6.89219e-05
0.000479498
-6.81345e-05
0.000468898
-6.70418e-05
0.000458464
-6.56617e-05
0.000448229
-6.40147e-05
0.000438216
-6.21231e-05
0.000428443
-6.00113e-05
0.000418922
-5.77059e-05
0.000409659
-5.52352e-05
0.000400654
-5.263e-05
0.000391908
-4.99225e-05
0.000383419
-4.71462e-05
0.000375183
-4.43346e-05
0.0003672
-4.15195e-05
0.000359468
-3.87296e-05
0.00035199
-3.59846e-05
0.000344769
-3.32919e-05
0.000337813
-3.06286e-05
0.000331141
-2.79214e-05
0.000324756
-2.50256e-05
0.000318767
-2.13806e-05
0.000312878
-1.72415e-05
-7.73089e-06
0.000247797
5.64572e-05
0.00025951
6.0361e-05
0.000271604
6.28517e-05
0.0002841
6.50555e-05
0.000296973
6.75248e-05
0.000310243
6.99635e-05
0.000323901
7.21823e-05
0.000337924
7.42301e-05
0.000352287
7.61266e-05
0.000366961
7.7812e-05
0.000381907
7.92356e-05
0.000397082
8.03788e-05
0.000412434
8.12121e-05
0.000427889
8.16757e-05
0.00044336
8.17126e-05
0.000458751
8.12886e-05
0.000473322
7.699e-05
0.00048688
7.16871e-05
0.000499443
6.64761e-05
0.000511041
6.13759e-05
0.000521706
5.64041e-05
0.000531475
5.15676e-05
0.000540384
4.68646e-05
0.000548466
4.22876e-05
0.000555753
3.78235e-05
0.000562269
3.34527e-05
0.000568033
2.91513e-05
0.000573059
2.48939e-05
0.000577352
2.06571e-05
0.000580915
1.64224e-05
0.000583746
1.21786e-05
0.000585844
7.92179e-06
0.000587211
3.65286e-06
0.00058784
-6.21427e-07
0.000587733
-4.87872e-06
0.000586889
-9.1128e-06
0.000585321
-1.32917e-05
0.000583045
-1.73928e-05
0.000580077
-2.13972e-05
0.00057644
-2.52867e-05
0.000572158
-2.90438e-05
0.000567258
-3.26528e-05
0.00056177
-3.6099e-05
0.000555724
-3.9368e-05
0.000549152
-4.24454e-05
0.000542089
-4.53167e-05
0.000534572
-4.79672e-05
0.000526637
-5.03825e-05
0.000518325
-5.25487e-05
0.00050968
-5.44529e-05
0.000500747
-5.60838e-05
0.000491573
-5.74319e-05
0.000482208
-5.849e-05
0.000472702
-5.92532e-05
0.000463107
-5.9719e-05
0.000453472
-5.98874e-05
0.000443844
-5.97602e-05
0.000434263
-5.93415e-05
0.000424766
-5.86371e-05
0.000415379
-5.76549e-05
0.000406123
-5.64054e-05
0.00039701
-5.49021e-05
0.000388049
-5.31617e-05
0.000379242
-5.12049e-05
0.000370593
-4.90569e-05
0.000362105
-4.67466e-05
0.000353781
-4.43067e-05
0.000345631
-4.17727e-05
0.000337666
-3.91813e-05
0.000329901
-3.6569e-05
0.000322352
-3.39702e-05
0.000315037
-3.14146e-05
0.000307975
-2.89226e-05
0.000301186
-2.65036e-05
0.000294691
-2.41329e-05
0.000288529
-2.17595e-05
0.000282704
-1.92008e-05
0.000277406
-1.60823e-05
0.000272246
-1.20814e-05
-3.67269e-06
0.000218637
4.62027e-05
0.000228927
5.00713e-05
0.000239611
5.21676e-05
0.00025064
5.40264e-05
0.000261999
5.61657e-05
0.000273715
5.82472e-05
0.000285776
6.01211e-05
0.000298158
6.18487e-05
0.000310838
6.34462e-05
0.00032379
6.48602e-05
0.000336978
6.60471e-05
0.000350366
6.69916e-05
0.000363908
6.76702e-05
0.000377548
6.80356e-05
0.000391219
6.80413e-05
0.000404847
6.76603e-05
0.000417783
6.40543e-05
0.000429856
5.96145e-05
0.000441079
5.52529e-05
0.00045147
5.09849e-05
0.000461049
4.68245e-05
0.00046984
4.27763e-05
0.000477867
3.88378e-05
0.000485153
3.50017e-05
0.00049172
3.12563e-05
0.000497588
2.7585e-05
0.000502772
2.39676e-05
0.000507283
2.0383e-05
0.000511128
1.68117e-05
0.000514312
1.32389e-05
0.000516835
9.6552e-06
0.000518699
6.05794e-06
0.000519906
2.44572e-06
0.000520454
-1.16962e-06
0.000520347
-4.77131e-06
0.000519585
-8.35126e-06
0.00051818
-1.18864e-05
0.000516144
-1.53566e-05
0.000513492
-1.87456e-05
0.000510243
-2.20382e-05
0.000506419
-2.52195e-05
0.000502042
-2.82759e-05
0.000497138
-3.11947e-05
0.000491733
-3.39636e-05
0.000485859
-3.65707e-05
0.000479546
-3.90038e-05
0.00047283
-4.12513e-05
0.000465749
-4.33016e-05
0.000458344
-4.51438e-05
0.000450659
-4.67674e-05
0.000442738
-4.81628e-05
0.000434627
-4.93209e-05
0.00042637
-5.02332e-05
0.000418008
-5.08917e-05
0.000409578
-5.12891e-05
0.00040111
-5.14189e-05
0.000392626
-5.1276e-05
0.000384141
-5.08571e-05
0.000375667
-5.01623e-05
0.000367207
-4.91955e-05
0.000358767
-4.79656e-05
0.000350353
-4.64874e-05
0.000341972
-4.47815e-05
0.000333642
-4.28741e-05
0.000325382
-4.07969e-05
0.00031722
-3.85851e-05
0.00030919
-3.62768e-05
0.000301328
-3.39108e-05
0.000293672
-3.15253e-05
0.000286259
-2.91559e-05
0.000279123
-2.68338e-05
0.000272293
-2.45846e-05
0.000265794
-2.24233e-05
0.000259647
-2.03569e-05
0.000253867
-1.83534e-05
0.000248491
-1.63834e-05
0.000243515
-1.42245e-05
0.000239125
-1.16921e-05
0.000234989
-7.9458e-06
-5.66249e-07
0.000192891
3.72417e-05