/*--------------------------------*- C++ -*----------------------------------*\
| =========                 |                                                 |
| \\      /  F ield         | OpenFOAM: The Open Source CFD Toolbox           |
|  \\    /   O peration     | Version:  v1912                                 |
|   \\  /    A nd           | Website:  www.openfoam.com                      |
|    \\/     M anipulation  |                                                 |
\*---------------------------------------------------------------------------*/
FoamFile
{
    version     2.0;
    format      ascii;
    class       volVectorField;
    location    "175";
    object      U;
}
// * * * * * * * * * * * * * * * * * * * * * * * * * * * * * * * * * * * * * //

dimensions      [0 1 -1 0 0 0 0];


internalField   nonuniform List<vector> 
2000
(
(0.843124 0.195894 0)
(0.511694 0.132652 0)
(0.222178 0.0718674 0)
(0.061131 0.0151951 7.3655e-20)
(-0.00472245 -0.0308153 1.61493e-17)
(-0.0578392 -0.046626 1.46126e-17)
(-0.0677082 -0.0369962 0)
(-0.0630654 -0.00533928 0)
(-0.0519258 0.0272133 0)
(-0.0493239 0.0242411 3.23162e-17)
(-0.0421448 0.0127321 -2.00314e-17)
(-0.0370665 0.00774944 -1.86547e-17)
(-0.0428098 0.00600688 0)
(-0.0474075 0.00556966 0)
(-0.0484941 0.00586897 -1.44384e-17)
(-0.0490413 0.00725907 0)
(-0.0511025 0.00817571 1.28126e-17)
(-0.0541533 0.00861573 -1.23849e-21)
(-0.0575632 0.00888173 1.22167e-17)
(-0.0612723 0.00928388 -5.97986e-18)
(-0.0654734 0.00991181 1.17334e-17)
(-0.0703841 0.0107816 0)
(-0.0761983 0.0118897 0)
(-0.0830892 0.0132022 6.14577e-21)
(-0.0911876 0.0146349 0)
(-0.100544 0.0160505 -5.36173e-18)
(-0.111101 0.0172781 0)
(-0.12268 0.0181452 5.15712e-18)
(-0.134988 0.0185066 0)
(-0.147642 0.0182591 0)
(-0.160222 0.0173578 0)
(-0.17232 0.015819 1.20267e-18)
(-0.183575 0.0137096 0)
(-0.19369 0.0111308 -5.90928e-19)
(-0.202452 0.0081999 1.96702e-14)
(-0.209731 0.00503687 1.95457e-14)
(-0.215467 0.00175406 6.03543e-19)
(-0.219623 -0.00155134 -6.07225e-19)
(-0.222158 -0.00478332 0)
(-0.223097 -0.00780106 2.55612e-18)
(-0.222828 -0.0105134 0)
(-0.221641 -0.0129473 -2.73138e-18)
(-0.21946 -0.0152176 0)
(-0.216295 -0.0173752 -5.8896e-18)
(-0.212124 -0.0194353 3.09026e-18)
(-0.206916 -0.021395 0)
(-0.200634 -0.0232425 0)
(-0.19324 -0.0249602 -3.60796e-18)
(-0.184698 -0.0265275 0)
(-0.174973 -0.0279216 4.03494e-18)
(-0.164038 -0.0291188 0)
(-0.151871 -0.0300933 9.25709e-18)
(-0.138454 -0.0308182 -9.91788e-18)
(-0.123771 -0.0312671 1.06516e-17)
(-0.107807 -0.0314221 -5.68734e-18)
(-0.0905567 -0.0312711 0)
(-0.0720181 -0.0307965 6.62935e-18)
(-0.0521989 -0.0299807 -7.17979e-18)
(-0.031147 -0.0288019 -1.57373e-17)
(-0.00896914 -0.0272099 1.68823e-17)
(0.0143956 -0.0251061 -1.76412e-17)
(0.039121 -0.0224926 1.77909e-17)
(0.0649967 -0.0193817 -1.78863e-17)
(0.0920609 -0.0157817 1.81887e-17)
(0.120331 -0.0116958 -2.90362e-19)
(0.149802 -0.0071227 1.78103e-17)
(0.180473 -0.00205853 0)
(0.212365 0.00350191 0)
(0.245515 0.00956473 4.19318e-19)
(0.279984 0.0161371 0)
(0.315861 0.0232269 1.66366e-17)
(0.353273 0.0308434 0)
(0.392388 0.0389927 1.5299e-17)
(0.433486 0.0476811 -6.54299e-19)
(0.476813 0.0568751 1.33176e-17)
(0.52339 0.0665721 2.32227e-17)
(0.572384 0.0764158 8.25096e-19)
(0.631733 0.0864241 -8.36625e-18)
(0.680614 0.09471 -5.62284e-18)
(0.800357 0.0970271 0)
(1.01525 0.211455 0)
(0.942826 0.196058 0)
(0.799522 0.180995 -4.45293e-18)
(0.646024 0.151799 9.4e-18)
(0.497048 0.108993 0)
(0.345477 0.0652236 -1.03289e-17)
(0.198247 0.0242618 0)
(0.058172 -0.00898822 0)
(-0.0262352 -0.0142098 0)
(-0.034584 -0.0242215 -2.38736e-17)
(-0.0513292 -0.0183295 2.21167e-17)
(-0.0489713 0.00642177 2.0578e-17)
(-0.044141 0.0222295 0)
(-0.0455141 0.0182422 8.60492e-18)
(-0.0470071 0.0110995 0)
(-0.0497461 0.0103739 0)
(-0.0537196 0.0118106 0)
(-0.0577447 0.0130008 6.79823e-18)
(-0.0615789 0.0138651 -1.32339e-17)
(-0.0653934 0.0148527 -6.45076e-18)
(-0.0694136 0.0161746 0)
(-0.0737154 0.0178367 0)
(-0.0782932 0.0198023 0)
(-0.0831251 0.0220222 -8.85348e-18)
(-0.0881766 0.0243785 0)
(-0.093375 0.0266669 5.66157e-18)
(-0.0985874 0.0286289 2.77802e-18)
(-0.103622 0.0300066 0)
(-0.108257 0.030594 0)
(-0.112283 0.0302685 0)
(-0.11553 0.0290034 0)
(-0.117886 0.0268617 -6.38069e-19)
(-0.119303 0.0239743 0)
(-0.119797 0.020513 3.14093e-19)
(-0.119432 0.0166617 1.55861e-19)
(-0.118318 0.0125936 0)
(-0.116624 0.00846526 0)
(-0.114547 0.00441735 6.37356e-19)
(-0.112156 0.000526227 0)
(-0.109637 -0.00318908 -1.32201e-18)
(-0.106808 -0.00669589 0)
(-0.103284 -0.010026 -1.38408e-18)
(-0.0990924 -0.0132782 0)
(-0.0941654 -0.0165014 1.50456e-18)
(-0.0884294 -0.0197108 1.53968e-18)
(-0.0818239 -0.0228989 0)
(-0.0742994 -0.0260443 0)
(-0.0658138 -0.0291173 -3.52542e-18)
(-0.0563314 -0.0320833 0)
(-0.0458214 -0.0349044 -3.82314e-20)
(-0.0342584 -0.0375413 0)
(-0.0216208 -0.0399545 0)
(-0.00789228 -0.0421042 0)
(0.00693816 -0.0439446 0)
(0.0228684 -0.0454349 1.00958e-17)
(0.0398925 -0.0465403 0)
(0.0580113 -0.0472239 -1.06804e-17)
(0.077222 -0.0474509 5.52127e-18)
(0.0975215 -0.0471911 -5.57248e-18)
(0.118911 -0.0464202 -1.15856e-17)
(0.14138 -0.0451082 1.18321e-17)
(0.164888 -0.0432419 -1.20563e-17)
(0.189391 -0.0407907 1.22558e-17)
(0.214904 -0.0377461 0)
(0.241446 -0.034107 -1.86776e-17)
(0.269031 -0.0298752 -1.26506e-17)
(0.297686 -0.0250555 0)
(0.327447 -0.0196547 6.12464e-18)
(0.358373 -0.0136829 1.2602e-17)
(0.390541 -0.00715221 0)
(0.424057 -7.89686e-05 0)
(0.459061 0.0075145 0)
(0.495735 0.0155921 0)
(0.534321 0.0240957 -1.079e-17)
(0.575121 0.0328967 4.60152e-18)
(0.618616 0.0418178 -9.01677e-18)
(0.664984 0.0502081 7.75447e-18)
(0.716425 0.0577429 -2.63584e-18)
(0.764689 0.060971 0)
(0.845309 0.0553647 0)
(0.978937 0.202903 0)
(0.979956 0.1965 -3.67334e-18)
(0.969218 0.209705 4.39312e-18)
(0.935919 0.213211 -3.93513e-18)
(0.869979 0.198603 3.82249e-18)
(0.771588 0.171835 3.87366e-18)
(0.649171 0.139791 0)
(0.514351 0.105393 0)
(0.376428 0.07111 0)
(0.254332 0.0381075 9.89448e-18)
(0.138952 0.00896078 0)
(0.0395467 -0.0075653 0)
(0.00010535 -0.000723399 0)
(-0.0041896 -0.0011594 -9.93689e-18)
(-0.0145855 0.00144953 0)
(-0.0188808 0.0104125 -8.47897e-18)
(-0.0223091 0.0161281 0)
(-0.0262337 0.0170186 7.81457e-18)
(-0.0300037 0.0164207 3.79424e-18)
(-0.0332142 0.0165162 0)
(-0.035784 0.0175006 -3.60328e-18)
(-0.0377785 0.0189724 0)
(-0.0391791 0.0207239 0)
(-0.0399564 0.0226741 6.73044e-18)
(-0.0401204 0.0247092 0)
(-0.039714 0.0266226 1.61837e-18)
(-0.038794 0.0281455 -4.75596e-18)
(-0.0374235 0.0290108 0)
(-0.0356743 0.0290116 0)
(-0.0336281 0.0280419 -7.51711e-19)
(-0.0313687 0.0261068 0)
(-0.0289688 0.0233064 1.68936e-21)
(-0.0264807 0.0198091 0)
(-0.023931 0.0158188 7.15699e-19)
(-0.0213204 0.0115481 8.9318e-20)
(-0.0186118 0.00718784 0)
(-0.0157134 0.00288549 1.80176e-19)
(-0.0125545 -0.00126147 -3.63878e-19)
(-0.00904096 -0.00512952 -3.68527e-19)
(-0.00514227 -0.00875884 -7.49761e-19)
(-0.000684587 -0.0123057 7.651e-19)
(0.00446153 -0.0159115 7.81109e-19)
(0.0103086 -0.0196119 0)
(0.0168704 -0.0234068 1.62752e-18)
(0.0241682 -0.02728 -3.33075e-18)
(0.0322247 -0.031204 0)
(0.0410619 -0.0351445 -1.75347e-18)
(0.0507009 -0.039062 3.61796e-18)
(0.0611608 -0.0429133 0)
(0.0724581 -0.0466529 -1.92824e-18)
(0.0846069 -0.0502336 1.97537e-18)
(0.0976175 -0.0536076 -2.03796e-18)
(0.111497 -0.0567273 -2.10257e-18)
(0.126248 -0.0595456 0)
(0.141872 -0.0620152 -4.4973e-18)
(0.158364 -0.0640893 -2.30284e-18)
(0.175721 -0.0657247 2.40411e-18)
(0.193938 -0.066883 2.43484e-18)
(0.213009 -0.0675323 5.04184e-18)
(0.232931 -0.0676501 0)
(0.253696 -0.0672249 0)
(0.275293 -0.066246 0)
(0.297718 -0.0646932 -2.7091e-18)
(0.320985 -0.0625574 0)
(0.345121 -0.0598415 5.64333e-18)
(0.370158 -0.0565562 0)
(0.396139 -0.0527178 -2.79672e-18)
(0.423125 -0.0483477 -5.70384e-18)
(0.451194 -0.0434725 0)
(0.480445 -0.0381241 -2.71682e-18)
(0.511002 -0.0323416 2.64945e-18)
(0.543015 -0.0261743 0)
(0.576668 -0.0196896 0)
(0.61218 -0.0129869 0)
(0.649791 -0.00622555 -4.36203e-18)
(0.689826 0.000332707 0)
(0.732277 0.0062087 -1.52227e-18)
(0.778417 0.0107311 2.51643e-18)
(0.821644 0.0124106 0)
(0.888721 0.00847889 3.7794e-19)
(0.970709 0.210798 0)
(0.964257 0.199169 2.07021e-18)
(0.966631 0.204804 0)
(0.976262 0.213727 2.181e-18)
(0.978819 0.216553 -3.96133e-18)
(0.961444 0.211965 -1.84056e-18)
(0.919062 0.201102 0)
(0.85331 0.183867 0)
(0.765673 0.159627 0)
(0.661621 0.131218 1.90108e-18)
(0.54784 0.102409 1.97387e-18)
(0.430134 0.0744089 0)
(0.31723 0.0489949 0)
(0.221135 0.0270895 0)
(0.142402 0.0124585 0)
(0.0868352 0.00652563 8.6608e-18)
(0.0594376 0.00710367 -4.30574e-18)
(0.048214 0.00972771 0)
(0.0415442 0.0123724 -4.17748e-18)
(0.0363742 0.0148386 2.058e-18)
(0.0325497 0.0167598 4.03575e-18)
(0.0301481 0.0179927 0)
(0.029199 0.0188767 0)
(0.0296288 0.0197798 -3.79721e-18)
(0.0313328 0.02082 0)
(0.0341776 0.0218857 -1.81136e-18)
(0.0379872 0.0227485 1.76614e-18)
(0.0425453 0.0231623 0)
(0.047614 0.0229281 0)
(0.0529624 0.0219313 8.17318e-19)
(0.0583934 0.0201501 0)
(0.0637648 0.017641 -7.81069e-19)
(0.0689957 0.0145169 0)
(0.0740671 0.0109182 -1.87889e-19)
(0.0790068 0.00699315 -9.35978e-20)
(0.0839039 0.00287163 -2.34115e-20)
(0.0888476 -0.00133833 -2.79138e-19)
(0.0939959 -0.00558142 3.71431e-19)
(0.0995161 -0.00984264 3.7269e-19)
(0.10548 -0.0140932 1.12805e-18)
(0.11197 -0.018351 -3.78169e-19)
(0.119043 -0.0226669 3.83713e-19)
(0.126719 -0.0270714 0)
(0.134998 -0.0315707 8.02009e-19)
(0.143881 -0.0361542 8.14577e-19)
(0.153371 -0.0407986 0)
(0.163468 -0.0454713 1.71917e-18)
(0.174176 -0.0501326 8.86269e-19)
(0.185496 -0.0547381 0)
(0.197431 -0.0592396 -2.81749e-18)
(0.209981 -0.0635864 -1.93699e-18)
(0.223145 -0.0677265 9.98826e-19)
(0.236921 -0.0716075 2.06585e-18)
(0.251303 -0.0751769 0)
(0.266287 -0.0783838 1.10112e-18)
(0.281868 -0.0811801 3.40977e-18)
(0.298038 -0.083522 2.34513e-18)
(0.314795 -0.0853706 -2.41555e-18)
(0.332136 -0.0866943 -1.23733e-18)
(0.350061 -0.0874696 0)
(0.368574 -0.0876815 0)
(0.387684 -0.0873199 0)
(0.407406 -0.0863783 4.07633e-18)
(0.427771 -0.0848593 1.37184e-18)
(0.44882 -0.0827758 0)
(0.470609 -0.0801489 -2.79735e-18)
(0.493207 -0.0770062 2.84532e-18)
(0.516696 -0.0733816 -2.79956e-18)
(0.541181 -0.069315 -2.77567e-18)
(0.566782 -0.0648518 5.25706e-20)
(0.593642 -0.0600448 -2.72037e-18)
(0.621924 -0.0549565 0)
(0.651815 -0.0496655 0)
(0.683521 -0.0442769 0)
(0.717241 -0.0389393 0)
(0.753224 -0.0338803 0)
(0.791336 -0.0294261 3.08544e-18)
(0.832662 -0.0261054 -1.15105e-18)
(0.870942 -0.024495 0)
(0.930398 -0.0260963 -3.91537e-19)
(0.972919 0.21779 0)
(0.965116 0.20638 2.41039e-18)
(0.957351 0.202157 3.13352e-19)
(0.958491 0.20329 2.44299e-18)
(0.968839 0.206094 0)
(0.980947 0.208572 -2.13828e-18)
(0.986624 0.209216 0)
(0.980295 0.206198 -4.87956e-19)
(0.958008 0.198056 0)
(0.917111 0.184733 -2.22005e-18)
(0.858158 0.167626 -1.74155e-18)
(0.783681 0.147344 -4.43618e-19)
(0.695918 0.1242 4.45183e-19)
(0.600627 0.0999424 0)
(0.503369 0.076813 4.54875e-19)
(0.409413 0.0562101 0)
(0.327433 0.0393554 3.75967e-18)
(0.263312 0.0272003 -4.89702e-19)
(0.217236 0.019746 0)
(0.186625 0.0161001 -2.48764e-18)
(0.167464 0.0148782 0)
(0.155818 0.0148855 0)
(0.14889 0.0153897 0)
(0.145102 0.016007 0)
(0.143699 0.0165355 -2.36445e-19)
(0.144312 0.0168646 0)
(0.146668 0.0169177 0)
(0.150468 0.0166143 1.11251e-19)
(0.155384 0.0158651 0)
(0.16109 0.0145928 0)
(0.167297 0.0127551 0)
(0.173778 0.0103522 -5.11042e-20)
(0.180366 0.00742789 0)
(0.186965 0.00403817 -2.21236e-19)
(0.193552 0.000249826 0)
(0.200179 -0.00383278 2.40749e-20)
(0.206934 -0.0081351 1.19847e-19)
(0.213897 -0.0125865 2.41193e-20)
(0.221154 -0.0171577 -4.83323e-20)
(0.228773 -0.0218248 -3.84993e-19)
(0.236808 -0.0265777 -3.88707e-19)
(0.245294 -0.0314221 3.93766e-19)
(0.254243 -0.0363618 -1.00987e-19)
(0.263651 -0.0413917 -8.15474e-19)
(0.273508 -0.0464961 8.33202e-19)
(0.283803 -0.0516502 -1.07605e-19)
(0.294523 -0.0568209 0)
(0.305656 -0.0619686 -9.0088e-19)
(0.31719 -0.0670483 0)
(0.329112 -0.0720111 9.57394e-19)
(0.341411 -0.0768053 0)
(0.354074 -0.0813774 1.02193e-18)
(0.36709 -0.0856737 0)
(0.380447 -0.0896413 -2.7428e-19)
(0.394135 -0.0932294 -1.13029e-18)
(0.408146 -0.0963909 -1.16839e-18)
(0.422476 -0.0990837 3.01966e-19)
(0.437124 -0.101272 0)
(0.452093 -0.102929 1.28323e-18)
(0.467396 -0.104034 -3.29199e-19)
(0.48305 -0.104578 0)
(0.499081 -0.104557 3.4539e-19)
(0.515527 -0.103979 -1.41809e-18)
(0.532439 -0.102856 -1.44413e-18)
(0.549883 -0.101212 0)
(0.567938 -0.0990795 2.9619e-18)
(0.586696 -0.0964958 0)
(0.606269 -0.0935054 2.98004e-18)
(0.626782 -0.0901576 2.96169e-18)
(0.648379 -0.0865067 2.92084e-18)
(0.67122 -0.0826123 3.5133e-19)
(0.695483 -0.0785412 0)
(0.721359 -0.0743703 0)
(0.749053 -0.070194 0)
(0.778744 -0.0661286 -2.73125e-19)
(0.810663 -0.0623436 0)
(0.844595 -0.0590157 -1.42971e-18)
(0.881705 -0.0565219 1.39187e-18)
(0.915648 -0.0549218 9.36603e-20)
(0.969901 -0.0547908 4.89726e-20)
(0.974031 0.220517 -1.50122e-18)
(0.969589 0.21179 1.45644e-18)
(0.961607 0.205777 -3.5502e-19)
(0.955327 0.202583 0)
(0.954928 0.20072 0)
(0.960642 0.199773 0)
(0.970531 0.199761 0)
(0.981812 0.199945 1.67646e-18)
(0.990826 0.198994 0)
(0.993065 0.195664 -1.51143e-18)
(0.98469 0.189362 -1.90069e-18)
(0.963667 0.179972 4.43099e-19)
(0.929018 0.167457 1.3311e-18)
(0.880789 0.15183 0)
(0.820375 0.133893 -2.0876e-18)
(0.750217 0.114712 0)
(0.675707 0.0955902 -1.68774e-18)
(0.603091 0.0778906 4.25185e-19)
(0.536257 0.0623715 -1.77605e-18)
(0.477618 0.0493484 -1.36891e-18)
(0.428599 0.0388902 0)
(0.389616 0.0308765 0)
(0.360118 0.0250115 -9.36804e-19)
(0.338846 0.0208714 0)
(0.324245 0.0179854 -7.00559e-19)
(0.314841 0.0159089 0)
(0.309421 0.0142609 0)
(0.307055 0.012731 -1.11126e-19)
(0.307044 0.0110793 0)
(0.308854 0.00913809 0)
(0.312056 0.00681143 0)
(0.316316 0.0040623 5.22579e-20)
(0.321363 0.000872755 2.09061e-19)
(0.326979 -0.00274016 1.28769e-19)
(0.333053 -0.00671171 0)
(0.339511 -0.010997 0)
(0.346307 -0.0155441 -2.48245e-20)
(0.353434 -0.0202982 -1.25593e-19)
(0.360905 -0.0252188 4.97458e-20)
(0.368734 -0.0302764 0)
(0.376933 -0.035451 0)
(0.385506 -0.0407298 -2.08266e-19)
(0.394444 -0.046101 1.04244e-19)
(0.40373 -0.0515486 -4.31512e-19)
(0.413341 -0.0570504 4.41e-19)
(0.423251 -0.0625778 1.11396e-19)
(0.433433 -0.0680959 0)
(0.443859 -0.0735644 4.77235e-19)
(0.454504 -0.0789379 0)
(0.46534 -0.0841673 0)
(0.476344 -0.0892011 0)
(0.487493 -0.0939863 0)
(0.498765 -0.0984704 0)
(0.510146 -0.102602 2.88255e-19)
(0.521621 -0.106334 0)
(0.533183 -0.109623 1.24226e-18)
(0.544832 -0.112431 -3.2e-19)
(0.556575 -0.114729 0)
(0.568429 -0.116497 1.36711e-18)
(0.580418 -0.117723 3.52076e-19)
(0.59258 -0.118406 1.44616e-18)
(0.604963 -0.118552 -3.71718e-19)
(0.61763 -0.118178 0)
(0.630655 -0.117311 -1.54481e-18)
(0.644129 -0.115982 0)
(0.658155 -0.114233 0)
(0.672851 -0.112111 -1.59697e-18)
(0.688348 -0.109668 0)
(0.704793 -0.106959 0)
(0.722346 -0.104043 -1.56757e-18)
(0.74118 -0.100982 -3.8697e-19)
(0.761483 -0.0978422 0)
(0.783449 -0.0946931 0)
(0.807287 -0.0916132 0)
(0.833166 -0.0886836 3.02081e-19)
(0.861331 -0.0860172 -1.04674e-18)
(0.891502 -0.0836665 -2.1982e-19)
(0.925048 -0.0818773 -1.67275e-19)
(0.955322 -0.080422 -1.03451e-19)
(1.00578 -0.079139 -2.62287e-19)
(0.974215 0.221531 5.21075e-18)
(0.971746 0.214827 -5.02546e-18)
(0.96669 0.209679 0)
(0.960969 0.206003 -3.20938e-18)
(0.956637 0.202434 0)
(0.95465 0.1986 -2.93388e-18)
(0.955724 0.195147 0)
(0.960625 0.192512 3.97046e-18)
(0.969291 0.190461 -4.96328e-18)
(0.980187 0.188429 2.28554e-18)
(0.990706 0.185833 2.14501e-18)
(0.998082 0.182151 0)
(0.999816 0.176793 -5.81535e-18)
(0.993594 0.169137 -3.71311e-18)
(0.977761 0.159123 5.27016e-18)
(0.951636 0.147071 0)
(0.916537 0.133571 1.64329e-18)
(0.875164 0.119365 0)
(0.829952 0.105038 1.66248e-18)
(0.783088 0.0910953 1.68174e-18)
(0.736607 0.07796 0)
(0.692273 0.0659206 0)
(0.651496 0.0551331 -9.10306e-19)
(0.615293 0.0456472 0)
(0.58429 0.0374286 8.84538e-19)
(0.558726 0.0303697 0)
(0.538478 0.0243041 0)
(0.523128 0.0190264 0)
(0.51207 0.0143172 0)
(0.504623 0.00996578 0)
(0.500124 0.00579018 0)
(0.497977 0.00163561 0)
(0.497724 -0.0026004 2.20845e-19)
(0.498972 -0.00699172 -1.05132e-19)
(0.501405 -0.0115849 5.32201e-20)
(0.504786 -0.0164044 0)
(0.508954 -0.0214466 0)
(0.513797 -0.0266878 1.03957e-19)
(0.519231 -0.0320957 -4.27023e-19)
(0.525187 -0.0376384 4.30921e-19)
(0.531608 -0.0432881 0)
(0.538444 -0.0490226 1.10294e-18)
(0.545646 -0.0548214 -9.02134e-19)
(0.553166 -0.0606623 -4.694e-19)
(0.560955 -0.0665192 -4.62778e-19)
(0.568964 -0.0723611 0)
(0.577147 -0.0781518 0)
(0.585456 -0.0838501 -1.52977e-18)
(0.593847 -0.0894109 0)
(0.602279 -0.0947861 0)
(0.610714 -0.0999259 0)
(0.619123 -0.10478 1.17207e-18)
(0.627477 -0.1093 2.42907e-18)
(0.635759 -0.113439 0)
(0.643959 -0.117156 0)
(0.652076 -0.120415 -1.34381e-18)
(0.660121 -0.123186 0)
(0.668116 -0.125451 2.89658e-18)
(0.676097 -0.127197 1.49946e-18)
(0.684111 -0.128423 0)
(0.692219 -0.12914 1.58879e-18)
(0.700496 -0.129364 3.26537e-18)
(0.709029 -0.129122 3.34535e-18)
(0.717919 -0.128449 1.71408e-18)
(0.727279 -0.127387 -3.47671e-18)
(0.737232 -0.125984 3.52304e-18)
(0.747913 -0.124292 5.33867e-18)
(0.759469 -0.122367 0)
(0.772055 -0.120268 0)
(0.785838 -0.118053 1.76391e-18)
(0.800995 -0.115785 0)
(0.817715 -0.113526 3.31475e-18)
(0.836191 -0.111336 3.15674e-18)
(0.856629 -0.10928 0)
(0.879192 -0.107406 2.683e-18)
(0.904155 -0.105782 -1.17147e-18)
(0.931175 -0.104365 0)
(0.96189 -0.103283 0)
(0.989215 -0.102155 0)
(1.03706 -0.100184 -2.2364e-19)
(0.974268 0.222146 -3.98633e-18)
(0.97248 0.216651 3.83258e-18)
(0.969039 0.212054 -7.56821e-18)
(0.965138 0.208417 3.63515e-18)
(0.961702 0.204786 0)
(0.958703 0.200568 3.326e-18)
(0.956149 0.195948 -6.41252e-18)
(0.954823 0.191294 -6.01654e-18)
(0.955831 0.186787 -8.73057e-20)
(0.959858 0.18252 0)
(0.966879 0.17855 0)
(0.976232 0.174763 4.85771e-18)
(0.986723 0.170761 4.47406e-18)
(0.996635 0.166014 -4.40748e-18)
(1.00402 0.160189 -1.20883e-17)
(1.00708 0.153111 0)
(1.00469 0.144805 0)
(0.99664 0.135514 0)
(0.983388 0.125492 0)
(0.965673 0.115005 0)
(0.944406 0.1043 0)
(0.920546 0.0935798 0)
(0.895035 0.0830194 1.76125e-18)
(0.868773 0.0727714 -3.62907e-18)
(0.842606 0.0629564 0)
(0.8173 0.0536499 0)
(0.793522 0.0448787 0)
(0.77181 0.0366291 0)
(0.752551 0.0288571 0)
(0.735971 0.0215002 -9.16056e-19)
(0.722137 0.0144837 0)
(0.710995 0.00773678 0)
(0.702315 0.00116658 1.2285e-20)
(0.69602 -0.00527032 0)
(0.691857 -0.0116167 -5.51231e-20)
(0.689477 -0.0178893 0)
(0.688551 -0.0241083 2.26908e-19)
(0.688809 -0.0303008 0)
(0.690037 -0.0364926 9.08478e-19)
(0.692066 -0.0427006 -4.53833e-19)
(0.694762 -0.0489314 -9.45127e-19)
(0.698012 -0.0551817 -9.3889e-19)
(0.701715 -0.0614395 9.59075e-19)
(0.705781 -0.0676844 9.82359e-19)
(0.710122 -0.0738893 2.06212e-18)
(0.714658 -0.080021 2.12048e-18)
(0.719312 -0.0860421 0)
(0.724017 -0.0919116 -1.14858e-18)
(0.728712 -0.0975862 0)
(0.733343 -0.103021 0)
(0.737867 -0.108171 -2.50405e-18)
(0.742252 -0.112993 -1.28229e-18)
(0.746475 -0.117444 3.08396e-20)
(0.750527 -0.121487 0)
(0.754411 -0.125091 0)
(0.758147 -0.12823 0)
(0.761765 -0.130887 3.13275e-18)
(0.765315 -0.133053 -3.23334e-18)
(0.768856 -0.134729 -3.35167e-18)
(0.772466 -0.135925 0)
(0.776232 -0.136661 -3.58233e-18)
(0.780254 -0.136963 -9.38441e-22)
(0.784641 -0.136867 -3.79211e-18)
(0.789511 -0.136414 3.87599e-18)
(0.794991 -0.135649 1.00281e-20)
(0.801214 -0.134625 -4.02392e-18)
(0.808318 -0.133395 -4.0664e-18)
(0.816448 -0.132015 0)
(0.825757 -0.130542 0)
(0.836403 -0.129036 0)
(0.848553 -0.127554 0)
(0.862386 -0.126154 -3.8219e-18)
(0.878082 -0.124889 -3.64205e-18)
(0.895843 -0.12381 0)
(0.915819 -0.122944 -3.09635e-18)
(0.938325 -0.122324 5.43386e-18)
(0.962952 -0.121838 0)
(0.991645 -0.121509 0)
(1.01678 -0.12088 0)
(1.06317 -0.118604 1.02965e-18)
(0.974307 0.222606 9.38062e-18)
(0.972773 0.21791 0)
(0.96991 0.213549 1.72899e-17)
(0.966846 0.209742 0)
(0.964431 0.206063 8.07979e-18)
(0.962486 0.202026 0)
(0.960481 0.197512 7.2666e-18)
(0.958356 0.19258 0)
(0.956552 0.187282 -6.75645e-18)
(0.955677 0.181712 0)
(0.956331 0.17606 1.19992e-17)
(0.959044 0.170494 -5.58539e-18)
(0.964119 0.16502 0)
(0.971417 0.159499 9.93774e-18)
(0.980323 0.153784 -1.95342e-19)
(0.989896 0.147706 -9.02589e-18)
(0.998889 0.141184 8.7384e-18)
(1.00617 0.134245 0)
(1.01111 0.12689 0)
(1.01342 0.119149 8.24285e-18)
(1.01306 0.111087 0)
(1.01019 0.102777 -4.02655e-18)
(1.00503 0.0942988 0)
(0.997896 0.0857292 3.86368e-18)
(0.989124 0.077129 0)
(0.979064 0.0685398 3.94401e-18)
(0.968062 0.0599867 0)
(0.956456 0.0514864 0)
(0.944566 0.0430517 1.96669e-18)
(0.932693 0.0346943 9.56011e-19)
(0.921109 0.0264238 0)
(0.910044 0.0182446 0)
(0.899712 0.0101633 -1.47799e-18)
(0.890113 0.00216436 0)
(0.881432 -0.00575789 0)
(0.873835 -0.0135943 0)
(0.867397 -0.021323 -2.43464e-19)
(0.862116 -0.0289263 0)
(0.857925 -0.0363952 -1.52071e-18)
(0.85471 -0.0437266 -1.03839e-18)
(0.85233 -0.0509199 1.02611e-18)
(0.850636 -0.0579742 0)
(0.849479 -0.0648863 0)
(0.848721 -0.0716487 2.25914e-18)
(0.848241 -0.0782487 -2.26694e-18)
(0.847931 -0.0846677 -2.33865e-18)
(0.847701 -0.0908817 0)
(0.847474 -0.0968623 -5.0137e-20)
(0.847192 -0.102577 2.64619e-18)
(0.846806 -0.107993 0)
(0.846286 -0.113076 2.80775e-18)
(0.845615 -0.117792 2.96288e-18)
(0.844793 -0.122113 -3.04444e-18)
(0.843835 -0.126012 0)
(0.842774 -0.129472 0)
(0.841656 -0.132479 0)
(0.840545 -0.13503 -3.58135e-18)
(0.839517 -0.137128 0)
(0.838661 -0.138785 0)
(0.838076 -0.14002 0)
(0.837867 -0.14086 8.30337e-18)
(0.838146 -0.141338 -4.27689e-18)
(0.839028 -0.141491 0)
(0.840631 -0.141363 -4.51309e-18)
(0.843075 -0.140999 -4.60115e-18)
(0.846481 -0.140449 9.36624e-18)
(0.850973 -0.139765 -9.47581e-18)
(0.856678 -0.138999 -9.53097e-18)
(0.863727 -0.138206 0)
(0.872257 -0.137442 -9.43362e-18)
(0.882414 -0.136761 0)
(0.894356 -0.136216 0)
(0.908244 -0.135856 0)
(0.924272 -0.135724 8.0213e-18)
(0.942574 -0.135833 -7.3171e-18)
(0.963507 -0.136192 -9.64055e-18)
(0.986594 -0.136647 0)
(1.01412 -0.137128 4.08576e-18)
(1.03784 -0.137153 0)
(1.08395 -0.134915 -1.77603e-18)
(0.974319 0.222965 -1.06826e-17)
(0.972879 0.218869 -1.03286e-17)
(0.970246 0.214688 -1.98709e-17)
(0.967479 0.210705 0)
(0.965408 0.206839 -1.84493e-17)
(0.964013 0.202774 -8.85003e-18)
(0.962858 0.198347 0)
(0.961675 0.193541 1.60798e-17)
(0.960426 0.188324 1.51163e-17)
(0.959156 0.182654 0)
(0.958004 0.176578 -1.3629e-17)
(0.957296 0.170204 0)
(0.957495 0.16362 0)
(0.959027 0.156861 1.17994e-17)
(0.962145 0.149959 1.09897e-17)
(0.966919 0.142929 -1.88784e-19)
(0.973051 0.135865 1.92503e-19)
(0.979951 0.128859 0)
(0.987064 0.121862 0)
(0.993928 0.114816 -9.47839e-18)
(1.00019 0.107689 -9.5361e-18)
(1.00563 0.100467 1.40032e-17)
(1.01009 0.0931492 4.64876e-18)
(1.01352 0.0857443 4.60259e-18)
(1.01591 0.0782599 0)
(1.01731 0.0706997 -4.41943e-18)
(1.01778 0.0630616 0)
(1.01742 0.05534 0)
(1.0163 0.0475288 -4.41916e-18)
(1.01452 0.0396242 0)
(1.01217 0.0316272 0)
(1.00935 0.0235446 0)
(1.00616 0.0153981 1.09731e-18)
(1.00269 0.00719886 -5.69865e-19)
(0.99887 -0.0010182 2.85679e-19)
(0.994657 -0.00923638 0)
(0.990095 -0.0174299 0)
(0.985248 -0.0255623 0)
(0.980195 -0.0335969 1.14553e-18)
(0.97501 -0.0415017 1.16442e-18)
(0.969759 -0.04925 -2.44251e-18)
(0.964491 -0.0568192 0)
(0.959235 -0.0641896 0)
(0.954004 -0.0713424 -5.18694e-18)
(0.948791 -0.0782583 -2.70317e-18)
(0.943583 -0.0849169 0)
(0.938359 -0.0912965 0)
(0.9331 -0.0973742 2.92947e-18)
(0.927791 -0.103126 5.43534e-20)
(0.922427 -0.108531 0)
(0.917016 -0.113566 0)
(0.911577 -0.118213 -3.4359e-18)
(0.906147 -0.122457 0)
(0.900777 -0.12629 0)
(0.89553 -0.129705 0)
(0.890482 -0.132704 0)
(0.885717 -0.135294 0)
(0.881327 -0.137487 -8.84773e-18)
(0.877408 -0.139303 0)
(0.874057 -0.140763 0)
(0.871374 -0.141897 2.40099e-20)
(0.869455 -0.142736 0)
(0.868398 -0.143315 0)
(0.868296 -0.143675 0)
(0.869245 -0.143858 2.19292e-17)
(0.871339 -0.143907 -1.11634e-17)
(0.874675 -0.143871 1.13104e-17)
(0.879353 -0.143798 2.41852e-21)
(0.88548 -0.143741 0)
(0.893169 -0.14375 1.1308e-17)
(0.902543 -0.143879 -1.11164e-17)
(0.913739 -0.144179 0)
(0.926902 -0.144696 0)
(0.942216 -0.145471 3.30076e-20)
(0.959802 -0.14651 8.81896e-18)
(0.980066 -0.147812 7.76118e-18)
(1.00245 -0.149204 0)
(1.02963 -0.150542 -4.9229e-18)
(1.05261 -0.151336 0)
(1.09955 -0.149507 1.40854e-18)
(0.974304 0.223274 0)
(0.972844 0.21966 2.36185e-17)
(0.970297 0.215616 2.28289e-17)
(0.967693 0.211501 0)
(0.965747 0.207458 1.05424e-17)
(0.964459 0.203259 -1.02494e-17)
(0.963552 0.198742 0)
(0.962879 0.193915 -1.82715e-17)
(0.962385 0.188767 0)
(0.96196 0.183232 0)
(0.961465 0.177274 0)
(0.960849 0.170906 0)
(0.960209 0.164145 0)
(0.959734 0.156995 1.91229e-19)
(0.959646 0.149495 -1.2921e-17)
(0.960205 0.141713 -1.87282e-19)
(0.961603 0.133859 1.89114e-19)
(0.963861 0.126141 0)
(0.966871 0.118578 0)
(0.970467 0.111143 0)
(0.974465 0.103812 -2.02891e-19)
(0.978687 0.0965555 2.06022e-19)
(0.982971 0.0893463 -5.37115e-18)
(0.98718 0.0821605 -5.31732e-18)
(0.991203 0.0749763 0)
(0.994952 0.0677711 -5.34133e-18)
(0.998361 0.0605214 5.311e-18)
(1.00137 0.0532036 0)
(1.00394 0.0457971 2.57776e-18)
(1.00603 0.0382874 2.63479e-18)
(1.0076 0.0306674 0)
(1.00862 0.0229401 0)
(1.00909 0.0151202 1.33193e-18)
(1.00899 0.0072326 -1.70112e-20)
(1.00834 -0.000675405 -6.66511e-19)
(1.00717 -0.00857278 0)
(1.00546 -0.0164411 0)
(1.00321 -0.0242577 -1.38193e-18)
(1.00043 -0.031997 0)
(0.997114 -0.0396336 -1.42494e-18)
(0.993277 -0.0471434 -6.86711e-20)
(0.988936 -0.0545031 0)
(0.984114 -0.0616895 3.04839e-18)
(0.978841 -0.0686791 6.20155e-18)
(0.973154 -0.0754482 3.16434e-18)
(0.967095 -0.0819736 0)
(0.960717 -0.0882321 -6.89784e-18)
(0.954077 -0.094202 0)
(0.94724 -0.0998637 -3.65219e-18)
(0.94028 -0.1052 0)
(0.933272 -0.110195 0)
(0.9263 -0.11484 0)
(0.919449 -0.119126 0)
(0.912806 -0.12305 0)
(0.90646 -0.126612 -9.41405e-18)
(0.900499 -0.129817 9.79729e-18)
(0.895007 -0.132672 0)
(0.890069 -0.135191 1.05317e-17)
(0.885765 -0.137388 -1.09863e-17)
(0.882172 -0.139284 0)
(0.879365 -0.140902 -1.17388e-17)
(0.87742 -0.142269 0)
(0.876411 -0.143416 0)
(0.876412 -0.144379 0)
(0.877502 -0.145195 -1.31199e-17)
(0.87976 -0.145907 1.33849e-17)
(0.883273 -0.146558 -1.35771e-17)
(0.888129 -0.147197 2.73855e-17)
(0.894425 -0.147873 -1.37333e-17)
(0.902266 -0.148636 0)
(0.911767 -0.149538 1.34466e-17)
(0.923057 -0.15063 -1.31249e-17)
(0.936273 -0.151956 0)
(0.951599 -0.153556 5.07986e-20)
(0.969146 -0.155437 -1.09147e-17)
(0.989373 -0.157593 0)
(1.01166 -0.159845 0)
(1.03904 -0.162016 -6.24679e-18)
(1.06177 -0.163557 0)
(1.11039 -0.162531 -1.76337e-18)
(0.974265 0.223567 0)
(0.972691 0.220353 -1.35112e-17)
(0.970127 0.216372 -1.30576e-17)
(0.967638 0.212139 0)
(0.965804 0.207962 2.44016e-17)
(0.964552 0.203641 2.3122e-17)
(0.963664 0.199004 0)
(0.963078 0.194071 2.12046e-17)
(0.962806 0.188862 -2.01832e-17)
(0.962796 0.183333 0)
(0.962925 0.177447 0)
(0.963069 0.17119 0)
(0.96315 0.164545 0)
(0.963125 0.157476 -1.54333e-17)
(0.962982 0.149976 -1.50446e-17)
(0.962774 0.142074 1.39376e-17)
(0.962629 0.13398 -4.1121e-17)
(0.96268 0.125935 0)
(0.963008 0.118004 0)
(0.963647 0.110197 1.31645e-17)
(0.964602 0.102521 2.58243e-17)
(0.965856 0.0949703 -1.26777e-17)
(0.967369 0.0875302 0)
(0.969087 0.0801829 0)
(0.970949 0.072907 -6.29192e-18)
(0.972891 0.0656778 1.2409e-17)
(0.974843 0.058468 -1.23538e-17)
(0.976735 0.0512499 0)
(0.978489 0.0439994 0)
(0.980029 0.0366978 -3.04441e-18)
(0.981278 0.0293341 0)
(0.982162 0.0219065 3.12369e-18)
(0.982621 0.0144227 -1.54123e-18)
(0.982589 0.00690349 -1.61488e-20)
(0.982084 -0.000641827 -8.19385e-21)
(0.981103 -0.00818863 0)
(0.979638 -0.0157124 0)
(0.977691 -0.0231894 -3.34501e-20)
(0.975268 -0.0305946 1.66163e-18)
(0.972382 -0.0379031 5.03989e-18)
(0.969055 -0.0450917 6.83721e-18)
(0.965313 -0.0521392 3.53233e-18)
(0.961189 -0.059026 -3.55849e-18)
(0.956719 -0.0657339 -3.66184e-18)
(0.951945 -0.0722457 3.83971e-18)
(0.946911 -0.0785449 0)
(0.941666 -0.0846161 8.07955e-18)
(0.936263 -0.0904444 -8.494e-18)
(0.930757 -0.0960158 0)
(0.925208 -0.101317 0)
(0.919675 -0.106337 0)
(0.91422 -0.111065 0)
(0.908907 -0.115493 0)
(0.903799 -0.119615 0)
(0.898958 -0.123427 1.1033e-17)
(0.894448 -0.126928 -2.3034e-17)
(0.890335 -0.130123 -1.20049e-17)
(0.886682 -0.133017 1.24618e-17)
(0.88356 -0.135622 1.28647e-17)
(0.881037 -0.137954 -1.33806e-17)
(0.879189 -0.140034 1.38332e-17)
(0.878092 -0.141887 0)
(0.877827 -0.143542 1.46946e-17)
(0.878477 -0.145035 -1.50885e-17)
(0.880127 -0.146402 0)
(0.882866 -0.147686 -3.14849e-17)
(0.886783 -0.148929 1.59797e-17)
(0.89197 -0.150179 -3.23292e-17)
(0.898525 -0.151483 1.62303e-17)
(0.906554 -0.152892 0)
(0.91617 -0.154456 1.60483e-17)
(0.927504 -0.156227 1.56654e-17)
(0.940698 -0.158249 -1.51658e-17)
(0.955947 -0.160566 -1.43202e-17)
(0.973368 -0.163185 1.3237e-17)
(0.993485 -0.166106 0)
(1.01563 -0.169145 0)
(1.04323 -0.172143 7.75559e-18)
(1.06577 -0.174345 0)
(1.1164 -0.174482 2.21859e-18)
(0.974202 0.223865 1.62961e-17)
(0.972436 0.220979 0)
(0.969784 0.216985 -3.02302e-17)
(0.967372 0.212638 2.92004e-17)
(0.965644 0.208361 -2.78014e-17)
(0.964441 0.203944 2.67536e-17)
(0.96357 0.199205 0)
(0.962995 0.194174 2.02098e-19)
(0.962739 0.188879 2.29787e-17)
(0.962785 0.183285 0)
(0.963067 0.177366 0)
(0.963515 0.171115 0)
(0.964069 0.164517 3.77986e-17)
(0.964657 0.157535 0)
(0.965193 0.150144 3.37372e-17)
(0.965611 0.142343 0)
(0.965887 0.134314 6.28845e-17)
(0.966046 0.126286 0)
(0.966132 0.118322 0)
(0.96619 0.11044 -3.00729e-17)
(0.966264 0.102656 -1.47699e-17)
(0.966395 0.094977 0)
(0.966609 0.0874025 0)
(0.966921 0.0799262 0)
(0.96733 0.0725369 7.16205e-18)
(0.967827 0.0652182 -7.12899e-18)
(0.968387 0.0579496 -1.07618e-19)
(0.968976 0.0507093 0)
(0.969551 0.0434767 7.19523e-18)
(0.970059 0.0362353 0)
(0.970444 0.0289741 0)
(0.970652 0.0216886 -3.57168e-18)
(0.970632 0.0143819 1.82938e-18)
(0.970338 0.0070657 -1.56456e-20)
(0.969751 -0.000270523 4.55764e-19)
(0.96884 -0.00760285 0)
(0.967587 -0.0149049 0)
(0.965985 -0.0221559 1.87199e-18)