/*--------------------------------*- C++ -*----------------------------------*\
| =========                 |                                                 |
| \\      /  F ield         | OpenFOAM: The Open Source CFD Toolbox           |
|  \\    /   O peration     | Version:  v1912                                 |
|   \\  /    A nd           | Website:  www.openfoam.com                      |
|    \\/     M anipulation  |                                                 |
\*---------------------------------------------------------------------------*/
FoamFile
{
    version     2.0;
    format      ascii;
    class       volScalarField;
    location    "725";
    object      p;
}
// * * * * * * * * * * * * * * * * * * * * * * * * * * * * * * * * * * * * * //

dimensions      [0 2 -2 0 0 0 0];


internalField   nonuniform List<scalar> 
2000
(
-0.0459449
0.0714664
0.126047
0.119158
0.10333
0.0970249
0.0964197
0.0977684
0.0979857
0.0977645
0.0979046
0.0975815
0.0973239
0.0972682
0.0973259
0.0973476
0.0973046
0.097283
0.0972775
0.0972811
0.0972847
0.0972781
0.0972567
0.0972219
0.0971805
0.0971387
0.0971019
0.0970714
0.097045
0.0970199
0.0969941
0.0969671
0.0969388
0.0969092
0.0968787
0.0968479
0.0968174
0.0967878
0.0967595
0.0967326
0.0967077
0.0966853
0.096666
0.0966502
0.0966383
0.0966301
0.0966256
0.0966251
0.0966298
0.096639
0.096642
0.096596
0.096382
0.0957579
0.0943628
0.0918087
0.08781
0.0823222
0.0758199
0.0697357
0.0661764
0.0662482
0.0709333
0.0798096
0.0919002
0.106188
0.12182
0.138001
0.153821
0.168204
0.18012
0.188703
0.193128
0.192587
0.18629
0.173571
0.153301
0.125275
0.0837865
0.0415138
0.00730224
0.0924787
0.131296
0.118101
0.10036
0.0961621
0.0997036
0.102144
0.0993893
0.0961455
0.095708
0.0970082
0.0974563
0.0973242
0.0975486
0.0974504
0.0973265
0.0972239
0.0971891
0.0971778
0.0971956
0.0972358
0.0972427
0.097219
0.0971837
0.0971462
0.097111
0.0970799
0.0970535
0.0970287
0.0970009
0.0969717
0.0969421
0.0969123
0.096882
0.0968513
0.0968211
0.0967924
0.0967653
0.0967396
0.0967158
0.0966948
0.096677
0.0966626
0.0966511
0.096642
0.0966352
0.0966337
0.0966499
0.0967063
0.0968052
0.0968577
0.0965827
0.095423
0.092609
0.087483
0.0799001
0.0704737
0.0608495
0.054136
0.0538861
0.0592456
0.0677499
0.0786859
0.0915702
0.106033
0.121498
0.137199
0.152227
0.165587
0.176278
0.183332
0.18586
0.183133
0.174488
0.159385
0.136912
0.107236
0.0663588
0.029422
0.0583701
0.092168
0.114859
0.113302
0.104104
0.0999291
0.0999674
0.09933
0.0974241
0.0967394
0.0983295
0.0999281
0.0989479
0.0964884
0.0955943
0.0964681
0.0973526
0.0975283
0.0973688
0.0972638
0.0972053
0.0971686
0.0971497
0.0971616
0.0971691
0.097158
0.0971276
0.097083
0.0970476
0.0970135
0.0969877
0.0969642
0.0969407
0.0969179
0.0968956
0.0968713
0.0968441
0.0968151
0.0967864
0.0967597
0.096737
0.0967198
0.0967074
0.0966972
0.0966907
0.0967037
0.0967668
0.096911
0.0971639
0.0975337
0.097959
0.0982164
0.0978921
0.096371
0.0929868
0.0873345
0.0796562
0.0711712
0.0639269
0.0594927
0.0585462
0.0620784
0.0694351
0.0794825
0.0914363
0.10482
0.119053
0.133319
0.146667
0.15812
0.166738
0.171676
0.172226
0.167836
0.158028
0.142461
0.120543
0.0928042
0.0565273
0.0249886
0.0833573
0.093371
0.105921
0.11
0.107308
0.104289
0.102628
0.100896
0.0992735
0.0984564
0.0982694
0.0981719
0.0978273
0.0971325
0.0966083
0.0975524
0.0988061
0.0980679
0.0969095
0.0965074
0.0964566
0.0966296
0.0969177
0.0971415
0.0972708
0.0973485
0.0973914
0.0973673
0.0972826
0.0971841
0.0970899
0.0970101
0.096952
0.0969214
0.096904
0.0968857
0.0968589
0.0968304
0.0968037
0.0967803
0.0967632
0.0967547
0.0967524
0.096751
0.0967525
0.0967858
0.0969087
0.0971486
0.0975434
0.0980856
0.0987339
0.0991305
0.0988961
0.0974991
0.0944439
0.0895163
0.0830078
0.0757347
0.0688759
0.0643063
0.0631244
0.0660118
0.0725507
0.0817097
0.0926439
0.104738
0.117324
0.129585
0.140649
0.149679
0.155922
0.158734
0.157584
0.152054
0.14179
0.126566
0.105989
0.0806681
0.0487139
0.0208019
0.0956979
0.0992984
0.106818
0.110788
0.10966
0.107331
0.10595
0.104911
0.103609
0.102158
0.100807
0.0997188
0.0989921
0.0981546
0.0971921
0.0972214
0.0977755
0.0979898
0.0978411
0.0973895
0.0970492
0.0969351
0.0969926
0.0971718
0.0973629
0.0974755
0.0974322
0.0972489
0.0971189
0.0970201
0.0969453
0.0968926
0.0968608
0.0968662
0.0968926
0.0969111
0.0969127
0.0968933
0.0968597
0.0968232
0.096791
0.0967663
0.0967459
0.0967176
0.0966709
0.0966163
0.0966239
0.0968278
0.0972152
0.0977586
0.0983547
0.0987316
0.0984899
0.097154
0.0943236
0.089877
0.0841373
0.0779305
0.072507
0.0692789
0.0690725
0.0720996
0.0779967
0.0860369
0.0954866
0.105707
0.116059
0.125854
0.134392
0.141019
0.145156
0.146303
0.144036
0.138005
0.127901
0.113537
0.0945929
0.0716544
0.0432288
0.0181853
0.104139
0.105973
0.109926
0.112097
0.111282
0.109674
0.108715
0.10804
0.107081
0.10589
0.104761
0.103771
0.102758
0.101436
0.100062
0.0993542
0.0992241
0.0990943
0.0985289
0.0976447
0.0970282
0.0968241
0.0969123
0.0971185
0.0972874
0.0973794
0.0974175
0.0974094
0.0973292
0.0972212
0.0971151
0.0970248
0.0969571
0.0969261
0.0968852
0.0968372
0.0967947
0.0967659
0.0967362
0.0967092
0.0966944
0.0966959
0.0967118
0.0967371
0.0967727
0.0968415
0.097
0.0973122
0.097765
0.0982993
0.0987907
0.099003
0.098611
0.0972874
0.0948186
0.0912339
0.0868959
0.0824975
0.0789275
0.0770473
0.0774046
0.0801373
0.0850213
0.0915623
0.0991715
0.107284
0.115357
0.122842
0.12919
0.133884
0.136451
0.136468
0.133557
0.127385
0.117647
0.104149
0.0865841
0.0654849
0.0395021
0.0165488
0.11095
0.111773
0.11301
0.113348
0.112561
0.111576
0.110917
0.110378
0.109711
0.108955
0.108231
0.107511
0.106652
0.105544
0.104377
0.103522
0.103009
0.10241
0.101441
0.100342
0.0995266
0.0990864
0.0988956
0.0988037
0.0987162
0.0986122
0.098491
0.0983266
0.0981093
0.0978956
0.097718
0.0975777
0.0974659
0.0974086
0.097558
0.0976301
0.0976277
0.0976354
0.0976678
0.0977192
0.0977927
0.097893
0.0980208
0.0981744
0.0983568
0.0985836
0.0988836
0.0992822
0.0997642
0.100264
0.100662
0.100776
0.100383
0.0992825
0.0973753
0.094736
0.091658
0.0886347
0.0862692
0.0851392
0.0856405
0.0878882
0.0917284
0.0968088
0.102687
0.108916
0.11506
0.120681
0.125336
0.128591
0.130036
0.129285
0.125978
0.119786
0.110396
0.0975954
0.0810701
0.0612966
0.0369648
0.0155114
0.116827
0.116772
0.115857
0.114648
0.113825
0.113308
0.112831
0.112361
0.111918
0.111481
0.111029
0.110532
0.109933
0.109191
0.108386
0.107694
0.107153
0.106525
0.105658
0.104704
0.103904
0.103335
0.102936
0.102622
0.102343
0.102079
0.101818
0.101545
0.101268
0.101022
0.100826
0.100682
0.100595
0.100592
0.100686
0.100744
0.100766
0.100808
0.100887
0.100997
0.101135
0.101303
0.1015
0.101726
0.10198
0.102269
0.102605
0.102992
0.103407
0.10379
0.104042
0.104033
0.103617
0.102676
0.101169
0.0991743
0.0969164
0.0947472
0.0930871
0.0923348
0.0927687
0.0944796
0.0973717
0.101207
0.105667
0.110405
0.115066
0.119284
0.122681
0.124878
0.125505
0.124201
0.120621
0.114438
0.105332
0.0930715
0.0773203
0.058496
0.0352994
0.0148362
0.122231
0.121241
0.118277
0.115734
0.114978
0.11489
0.114556
0.114147
0.113883
0.113665
0.113395
0.11307
0.112681
0.112203
0.111666
0.111175
0.110761
0.110289
0.109654
0.108935
0.108284
0.107778
0.107393
0.107077
0.106793
0.10652
0.106251
0.105981
0.10572
0.105485
0.105291
0.105147
0.105059
0.105032
0.105036
0.105077
0.105127
0.105189
0.105278
0.105394
0.105533
0.105696
0.105881
0.106087
0.106312
0.106557
0.106824
0.107108
0.107383
0.107601
0.107686
0.107548
0.107091
0.106244
0.104991
0.103404
0.10165
0.0999837
0.0987065
0.0981046
0.0983854
0.0996303
0.101786
0.104688
0.108094
0.111725
0.115281
0.118446
0.120891
0.122282
0.122281
0.120554
0.116772
0.110612
0.101746
0.0899221
0.0747684
0.0566405
0.0342367
0.0143807
0.127461
0.125274
0.120079
0.116435
0.115971
0.116298
0.11607
0.115746
0.115661
0.11563
0.115507
0.115316
0.115074
0.114763
0.114401
0.114063
0.113772
0.113438
0.112986
0.112461
0.111974
0.111592
0.111303
0.111064
0.110846
0.110631
0.110417
0.110203
0.109994
0.109804
0.109645
0.109527
0.109456
0.109429
0.109385
0.109413
0.109462
0.109514
0.109579
0.109665
0.109768
0.109888
0.110022
0.110169
0.110327
0.110493
0.110666
0.110834
0.110977
0.111054
0.11101
0.110777
0.110291
0.109505
0.108418
0.107088
0.105646
0.104284
0.103226
0.102689
0.102835
0.103734
0.105351
0.107564
0.110179
0.112965
0.115664
0.118005
0.119699
0.120449
0.11995
0.117894
0.113967
0.10785
0.0992062
0.0877562
0.0730855
0.0554841
0.0336203
0.0141117
0.132699
0.12885
0.121157
0.116766
0.116858
0.11755
0.117378
0.117164
0.117267
0.117404
0.117415
0.117343
0.117222
0.117037
0.116802
0.116572
0.116367
0.116125
0.115792
0.115403
0.11504
0.114757
0.114544
0.114372
0.114213
0.114056
0.113898
0.113739
0.113584
0.113441
0.113321
0.11323
0.11317
0.113129
0.113095
0.113109
0.113142
0.113177
0.113221
0.113278
0.113349
0.113431
0.113521
0.113618
0.113719
0.11382
0.113917
0.113999
0.114046
0.114027
0.113897
0.113607
0.113109
0.112375
0.111408
0.110259
0.109032
0.107875
0.106963
0.106465
0.106505
0.107141
0.10835
0.110031
0.112027
0.114142
0.116157
0.117832
0.118917
0.119148
0.118252
0.115942
0.11192
0.105869
0.0974406
0.0863272
0.0720613
0.0548692
0.0333383
0.014029
0.138066
0.131897
0.121483
0.116824
0.11769
0.118653
0.118503
0.118427
0.118714
0.118995
0.119125
0.119166
0.119155
0.119081
0.118954
0.118814
0.11868
0.118509
0.118264
0.11797
0.117694
0.117478
0.117317
0.117189
0.117072
0.116956
0.116839
0.116721
0.116604
0.116496
0.116404
0.116333
0.116285
0.116249
0.116228
0.116234
0.116257
0.116284
0.116315
0.116355
0.116404
0.116458
0.116517
0.116577
0.116635
0.116688
0.11673
0.116749
0.116729
0.116643
0.116456
0.116131
0.115634
0.114944
0.11407
0.113055
0.111983
0.110974
0.110164
0.109686
0.109638
0.110065
0.110948
0.112203
0.113699
0.115267
0.116719
0.117847
0.118432
0.118242
0.11703
0.114531
0.110457
0.104493
0.0962772
0.0854728
0.0715541
0.0546903
0.0333168
0.014147
0.143638
0.13431
0.121091
0.116728
0.118491
0.119608
0.119474
0.119562
0.120017
0.120419
0.120652
0.120796
0.120886
0.120911
0.120878
0.120822
0.120756
0.120651
0.120479
0.120264
0.120057
0.119893
0.119774
0.11968
0.119595
0.11951
0.119423
0.119335
0.119247
0.119165
0.119094
0.119038
0.118997
0.118977
0.118963
0.118965
0.118981
0.119001
0.119023
0.11905
0.119081
0.119115
0.119148
0.119179
0.119204
0.11922
0.119218
0.11919
0.119119
0.118984
0.118757
0.118409
0.117915
0.117262
0.11646
0.115546
0.114591
0.113689
0.112951
0.11248
0.112354
0.112608
0.113221
0.114124
0.115205
0.11632
0.117305
0.117983
0.118161
0.117635
0.11618
0.113549
0.109461
0.103601
0.0955902
0.0850686
0.0714499
0.054859
0.033499
0.0144703
0.149457
0.135972
0.120078
0.116595
0.119257
0.120416
0.120321
0.120589
0.121192
0.121692
0.122018
0.122254
0.122432
0.122543
0.122594
0.122613
0.122611
0.122567
0.122462
0.122314
0.122168
0.122052
0.12197
0.121908
0.121851
0.121794
0.121733
0.121669
0.121606
0.121546
0.121492
0.12145
0.12142
0.121406
0.121396
0.121396
0.121407
0.121421
0.121435
0.121451
0.121468
0.121484
0.121497
0.121504
0.121502
0.121485
0.121448
0.12138
0.121269
0.121095
0.120836
0.12047
0.119979
0.119354
0.118606
0.117768
0.116898
0.116073
0.115381
0.114904
0.114703
0.114803
0.115187
0.115793
0.116526
0.117265
0.117869
0.118184
0.118042
0.117259
0.115629
0.112915
0.108842
0.103091
0.0952725
0.085004
0.0716438
0.0552903
0.0338361
0.0149803
0.155531
0.136775
0.118591
0.116517
0.119971
0.121089
0.121072
0.121525
0.12225
0.122833
0.123242
0.12356
0.123816
0.124001
0.124125
0.12421
0.124267
0.124279
0.124232
0.124144
0.12405
0.123978
0.123931
0.123898
0.123868
0.123836
0.123798
0.123757
0.123716
0.123674
0.123636
0.123605
0.123585
0.123575
0.123569
0.123569
0.123576
0.123585
0.123592
0.123598
0.123602
0.123603
0.123598
0.123584
0.123557
0.123513
0.123445
0.123343
0.123196
0.122987
0.1227
0.122316
0.121823
0.121215
0.120503
0.119716
0.118903
0.118125
0.117455
0.116956
0.116678
0.11664
0.116824
0.117181
0.11763
0.118066
0.11837
0.118406
0.118024
0.117057
0.115309
0.112553
0.108514
0.102871
0.095223
0.0851752
0.0720351
0.0558991
0.0342838
0.0156331
0.161839
0.136643
0.116806
0.116542
0.120608
0.121649
0.12175
0.122377
0.123202
0.123857
0.12434
0.124732
0.125055
0.125306
0.125493
0.125637
0.125747
0.125808
0.125813
0.125776
0.125729
0.125696
0.12568
0.125673
0.125668
0.125658
0.125642
0.125622
0.125599
0.125574
0.125549
0.12553
0.125518
0.125512
0.125508
0.125509
0.125513
0.125516
0.125516
0.125512
0.125504
0.12549
0.125467
0.125432
0.125381
0.125308
0.125209
0.125073
0.12489
0.124647
0.124328
0.123921
0.123416
0.122811
0.122116
0.121356
0.120572
0.119815
0.119143
0.11861
0.118254
0.118092
0.11811
0.118266
0.118492
0.118698
0.118779
0.118613
0.118065
0.116975
0.115157
0.112387
0.108393
0.10285
0.0953496
0.0854901
0.0725353
0.0566058
0.0348043
0.0163743
0.168329
0.135564
0.114903
0.116679
0.121151
0.122119
0.122372
0.123153
0.124057
0.124776
0.125327
0.125783
0.126166
0.126474
0.126717
0.126914
0.12707
0.127176
0.127226
0.127234
0.127227
0.127227
0.127239
0.127256
0.127272
0.127282
0.127284
0.12728
0.127274
0.127262
0.127248
0.127237
0.12723
0.127226
0.127223
0.12722
0.127218
0.127213
0.127202
0.127185
0.127161
0.127127
0.127081
0.12702
0.12694
0.126836
0.126701
0.126528
0.126306
0.126025
0.125671
0.125236
0.12471
0.124095
0.123401
0.122648
0.121871
0.121115
0.120427
0.119853
0.119428
0.119164
0.119052
0.119057
0.11912
0.119162
0.119089
0.118789
0.118133
0.11697
0.115116
0.112352
0.108406
0.102952
0.0955763
0.0858757
0.073076
0.0573446
0.0353639
0.0171533
0.174917
0.133561
0.113041
0.116911
0.12159
0.122521
0.122945
0.123855
0.124822
0.125597
0.126208
0.12672
0.127154
0.127512
0.127803
0.128044
0.12824
0.128384
0.128472
0.128518
0.128544
0.128571
0.128605
0.128641
0.128673
0.128698
0.128712
0.128719
0.128726
0.12872
0.128711
0.128702
0.128694
0.128686
0.128676
0.128664
0.128648
0.128628
0.1286
0.128563
0.128516
0.128457
0.128383
0.128292
0.128179
0.12804
0.127868
0.127657
0.127396
0.127077
0.126689
0.126224
0.125675
0.125045
0.124342
0.123585
0.122805
0.122039
0.121332
0.120721
0.120239
0.119899
0.119694
0.119594
0.119547
0.119482
0.11931
0.118927
0.118208
0.117006
0.115141
0.112394
0.108495
0.103118
0.0958474
0.0862804
0.0736106
0.0580671
0.0359338
0.0179301
0.181511
0.130732
0.111333
0.117196
0.12193
0.122872
0.123467
0.124476
0.125491
0.126312
0.126971
0.127526
0.128
0.128396
0.128723
0.128998
0.129226
0.129398
0.129515
0.129588
0.129638
0.129684
0.129732
0.129779
0.12982
0.129852
0.129872
0.129886
0.12989
0.129882
0.129871
0.129857
0.129841
0.129822
0.129799
0.129771
0.129738
0.129698
0.129648
0.129588
0.129516
0.129431
0.129329
0.129209
0.129066
0.128895
0.128692
0.128448
0.128155
0.127805
0.127389
0.1269
0.126332
0.125688
0.124975
0.124212
0.123425
0.122649
0.121924
0.121285
0.120763
0.120371
0.120104
0.119936
0.11982
0.119689
0.119459
0.119029
0.118278
0.11706
0.115198
0.112475
0.108621
0.103311
0.0961269
0.0866721
0.074111
0.0587423
0.0364924
0.0186775
0.18802
0.127206
0.109848
0.117484
0.122175
0.123168
0.123912
0.124987
0.126031
0.126883
0.127573
0.128156
0.128655
0.129076
0.129427
0.129723
0.12997
0.13016
0.130294
0.130383
0.130448
0.130503
0.130557
0.130608
0.130652
0.130685
0.130706
0.130716
0.130711
0.130699
0.130682
0.13066
0.130632
0.1306
0.130563
0.13052
0.13047
0.130412
0.130344
0.130264
0.130172
0.130065
0.129942
0.129799
0.129634
0.12944
0.129214
0.128947
0.128633
0.128263
0.127828
0.127323
0.126742
0.126088
0.125369
0.1246
0.123808
0.123024
0.122286
0.121629
0.12108
0.120655
0.120351
0.120142
0.119985
0.119817
0.119556
0.119103
0.118338
0.117119
0.115269
0.112571
0.108757
0.103505
0.0963935
0.0870329
0.0745636
0.0593539
0.0370258
0.0193804
0.194365
0.123142
0.108626
0.117738
0.122337
0.123391
0.12424
0.125349
0.126405
0.127272
0.127979
0.128577
0.129089
0.129522
0.129886
0.130194
0.13045
0.130649
0.130792
0.130889
0.13096
0.131019
0.131075
0.131126
0.131169
0.1312
0.131219
0.131222
0.131213
0.131197
0.131173
0.131142
0.131106
0.131065
0.131017
0.130963
0.130901
0.130831
0.13075
0.130657
0.130552
0.130432
0.130295
0.130139
0.129959
0.129752
0.129512
0.129233
0.128906
0.128524
0.12808
0.127565
0.126978
0.126319
0.125596
0.124824
0.124029
0.12324
0.122494
0.121825
0.12126
0.120816
0.120489
0.120257
0.120079
0.119891
0.119616
0.119154
0.118388
0.117175
0.11534
0.112667
0.10889
0.103687
0.0966368
0.0873559
0.0749649
0.0598961
0.0375255
0.0200343
0.200548
0.118809
0.107693
0.11793
0.12242
0.123524
0.124433
0.125554
0.126614
0.127488
0.128203
0.128807
0.129325
0.129765
0.130134
0.130448
0.130709
0.130912
0.131058
0.131159
0.131233
0.131294
0.13135
0.1314
0.131442
0.131471
0.131487
0.131489
0.131477
0.131457
0.131429
0.131393
0.131352
0.131305
0.131251
0.131191
0.131123
0.131045
0.130958
0.130858
0.130746
0.130619
0.130475
0.130312
0.130125
0.129912
0.129665
0.129379
0.129047
0.12866
0.12821
0.127693
0.127103
0.126442
0.125718
0.124945
0.124147
0.123356
0.122605
0.121929
0.121355
0.120899
0.12056
0.120317
0.120127
0.119932
0.119651
0.119189
0.118427
0.117224
0.115405
0.112757
0.109012
0.103852
0.0968541
0.0876409
0.0753176
0.0603711
0.0379885
0.0206431
0.206712
0.114721
0.107059
0.118047
0.122437
0.123572
0.124512
0.12564
0.126702
0.127579
0.128298
0.128905
0.129426
0.129868
0.130241
0.130557
0.13082
0.131025
0.131173
0.131276
0.131351
0.131412
0.131468
0.131519
0.131559
0.131587
0.131602
0.131605
0.131591
0.131569
0.131539
0.131502
0.131458
0.131408
0.131352
0.131289
0.131218
0.131138
0.131047
0.130945
0.130829
0.130699
0.130553
0.130387
0.130198
0.129982
0.129733
0.129445
0.12911
0.128721
0.128271
0.127752
0.127162
0.126501
0.125777
0.125004
0.124206
0.123413
0.12266
0.121979
0.1214
0.120938
0.120593
0.120343
0.12015
0.119952
0.119671
0.119213
0.118458
0.117267
0.115465
0.11284
0.109124
0.104001
0.09705
0.0878957
0.075633
0.0607919
0.0384207
0.021226
0.212808
0.111515
0.106663
0.118096
0.122417
0.123566
0.124519
0.125654
0.12672
0.1276
0.12832
0.12893
0.129452
0.129896
0.13027
0.130587
0.130851
0.131057
0.131206
0.13131
0.131385
0.131447
0.131503
0.131553
0.131593
0.131622
0.131637
0.131638
0.131625
0.131603
0.131572
0.131535
0.131491
0.13144
0.131384
0.13132
0.131248
0.131167
0.131075
0.130972
0.130856
0.130725
0.130578
0.130411
0.130222
0.130005
0.129756
0.129468
0.129133
0.128745
0.128295
0.127777
0.127188
0.126528
0.125804
0.125032
0.124234
0.12344
0.122685
0.122002
0.12142
0.120954
0.120605
0.120353
0.120158
0.119961
0.119684
0.119231
0.118485
0.117306
0.115521
0.112918
0.10923
0.104143
0.0972337
0.0881333
0.0759274
0.061181
0.0388337
0.0218162
0.217535
0.109572
0.106437
0.118123
0.122395
0.123541
0.124503
0.125644
0.126713
0.127594
0.128316
0.128926
0.12945
0.129894
0.130268
0.130586
0.130851
0.131057
0.131206
0.13131
0.131385
0.131447
0.131504
0.131554
0.131595
0.131624
0.131639
0.131641
0.131628
0.131605
0.131574
0.131537
0.131493
0.131442
0.131386
0.131322
0.13125
0.131169
0.131078
0.130975
0.130859
0.130729
0.130582
0.130415
0.130226
0.13001
0.129761
0.129473
0.12914
0.128752
0.128303
0.127786
0.127198
0.126539
0.125817
0.125046
0.124248
0.123453
0.122697
0.122012
0.121428
0.12096
0.120609
0.120356
0.120161
0.119965
0.119691
0.119244
0.118507
0.11734
0.115571
0.112987
0.109324
0.104268
0.0973963
0.0883432
0.0761861
0.0615243
0.0391931
0.0223781
)
;

boundaryField
{
    inlet
    {
        type            zeroGradient;
    }
    outlet
    {
        type            fixedValue;
        value           uniform 0;
    }
    fixedWalls
    {
        type            zeroGradient;
    }
    frontAndBack
    {
        type            empty;
    }
}


// ************************************************************************* //
