/*--------------------------------*- C++ -*----------------------------------*\
| =========                 |                                                 |
| \\      /  F ield         | OpenFOAM: The Open Source CFD Toolbox           |
|  \\    /   O peration     | Version:  v1912                                 |
|   \\  /    A nd           | Website:  www.openfoam.com                      |
|    \\/     M anipulation  |                                                 |
\*---------------------------------------------------------------------------*/
FoamFile
{
    version     2.0;
    format      ascii;
    class       surfaceScalarField;
    location    "725";
    object      phi;
}
// * * * * * * * * * * * * * * * * * * * * * * * * * * * * * * * * * * * * * //

dimensions      [0 3 -1 0 0 0 0];
oriented        oriented;


internalField   nonuniform List<scalar> 
3895
(
0.000814746
0.00038143
0.000499361
0.000315385
0.000251565
0.000247796
6.4863e-05
0.000186702
-6.21962e-05
0.000127059
-0.000127327
6.51304e-05
-0.000137638
1.03119e-05
-0.000113632
-2.40064e-05
-9.03514e-05
-2.32806e-05
-8.49477e-05
-5.4037e-06
-6.61304e-05
-1.88173e-05
-4.47475e-05
-2.13829e-05
-4.0468e-05
-4.27943e-06
-4.86758e-05
8.2078e-06
-4.57207e-05
-2.95513e-06
-3.20635e-05
-1.36572e-05
-2.51509e-05
-6.91259e-06
-2.59326e-05
7.81682e-07
-2.89538e-05
3.02124e-06
-3.04973e-05
1.54351e-06
-2.91952e-05
-1.30208e-06
-2.4908e-05
-4.28724e-06
-1.85858e-05
-6.3222e-06
-1.19798e-05
-6.606e-06
-6.20382e-06
-5.77599e-06
-1.89995e-06
-4.30387e-06
8.4455e-07
-2.7445e-06
2.45569e-06
-1.61114e-06
3.51376e-06
-1.05807e-06
4.42675e-06
-9.12995e-07
5.32123e-06
-8.94475e-07
6.17121e-06
-8.49983e-07
6.95659e-06
-7.85381e-07
7.641e-06
-6.84412e-07
8.15067e-06
-5.09665e-07
8.41976e-06
-2.69096e-07
8.391e-06
2.87658e-08
7.98723e-06
4.03764e-07
7.21554e-06
7.71693e-07
6.03596e-06
1.17958e-06
4.37139e-06
1.66457e-06
2.11552e-06
2.25586e-06
-8.54839e-07
2.97036e-06
-4.66523e-06
3.81039e-06
-9.43456e-06
4.76933e-06
-1.53143e-05
5.87973e-06
-2.26352e-05
7.32095e-06
-3.21023e-05
9.46702e-06
-4.50428e-05
1.29406e-05
-6.36112e-05
1.85684e-05
-9.07108e-05
2.70996e-05
-0.000129375
3.86644e-05
-0.000181936
5.25603e-05
-0.000249329
6.73934e-05
-0.000330205
8.08764e-05
-0.000420089
8.9884e-05
-0.000511604
9.15147e-05
-0.000595829
8.4225e-05
-0.000663887
6.80579e-05
-0.000707017
4.31303e-05
-0.000714313
7.29551e-06
-0.000696335
-1.79781e-05
-0.000657355
-3.89794e-05
-0.000600977
-5.63781e-05
-0.000531128
-6.98494e-05
-0.000450873
-8.02551e-05
-0.000362216
-8.86567e-05
-0.000266716
-9.55002e-05
-0.000165984
-0.000100732
-6.17112e-05
-0.000104273
4.41441e-05
-0.000105855
0.000149634
-0.00010549
0.0002532
-0.000103565
0.0003535
-0.0001003
0.000449658
-9.61582e-05
0.000541603
-9.19448e-05
0.000629585
-8.79824e-05
0.000716735
-8.71494e-05
0.000803387
-8.66528e-05
-0.000107451
0.00108795
0.000349294
0.00104738
0.000355946
0.000933278
0.000361903
0.000775747
0.000344233
0.000598431
0.000304375
0.000410383
0.000253178
0.000221248
0.000199447
5.3877e-05
0.000143365
-6.04245e-05
9.10208e-05
-0.000110188
4.43597e-05
-0.000131881
2.87611e-06
-0.000123966
-2.92984e-05
-0.000105667
-2.2578e-05
-0.000107779
1.03197e-05
-0.00010337
-7.36465e-06
-9.07441e-05
-2.62828e-05
-7.67537e-05
-2.0903e-05
-7.88678e-05
2.89581e-06
-8.71359e-05
1.12894e-05
-9.26376e-05
7.04522e-06
-9.45937e-05
6.53964e-07
-9.09689e-05
-7.912e-06
-8.48166e-05
-1.24745e-05
-7.80795e-05
-1.33431e-05
-7.15168e-05
-1.23387e-05
-6.58585e-05
-9.96213e-06
-6.1723e-05
-6.88007e-06
-5.95691e-05
-3.76504e-06
-5.92734e-05
-1.35372e-06
-6.03286e-05
1.4215e-07
-6.25499e-05
1.3269e-06
-6.52502e-05
1.85027e-06
-6.81233e-05
2.08771e-06
-7.10912e-05
2.28354e-06
-7.4285e-05
2.68405e-06
-7.78546e-05
3.30056e-06
-8.19108e-05
4.08494e-06
-8.65008e-05
4.99383e-06
-9.17282e-05
5.99907e-06
-9.76333e-05
7.08468e-06
-0.000104219
8.25017e-06
-0.000111472
9.50936e-06
-0.000119375
1.08729e-05
-0.000127889
1.23246e-05
-0.000136938
1.38178e-05
-0.000146401
1.53426e-05
-0.000156183
1.71038e-05
-0.000166303
1.95871e-05
-0.000176897
2.35344e-05
-0.000188119
2.97903e-05
-0.000200197
3.91775e-05
-0.000213462
5.19288e-05
-0.000227936
6.70351e-05
-0.00024275
8.22073e-05
-0.000255699
9.38249e-05
-0.000262905
9.70905e-05
-0.000259548
8.81578e-05
-0.000241499
6.61753e-05
-0.000207532
3.40915e-05
-0.000166592
2.19004e-06
-0.000119977
-3.93196e-05
-6.79586e-05
-6.99966e-05
-1.33309e-05
-9.36071e-05
4.29796e-05
-0.000112689
0.000102564
-0.000129434
0.000166606
-0.000144297
0.000234977
-0.000157028
0.000306632
-0.000167156
0.000380044
-0.000174144
0.000453446
-0.000177675
0.000525322
-0.000177732
0.000594445
-0.000174613
0.000659754
-0.000168875
0.000720685
-0.000161231
0.00077708
-0.000152553
0.000829046
-0.00014391
0.000877444
-0.000136381
0.000922303
-0.000132008
0.000966338
-0.000130687
-0.000142047
0.000975282
0.000305926
0.00102604
0.000305187
0.00106097
0.000326974
0.00105862
0.000346584
0.00101217
0.00035082
0.000925048
0.000340304
0.000805752
0.000318743
0.000661765
0.000287352
0.000504929
0.000247857
0.000345844
0.000203445
0.000190168
0.000158552
4.70569e-05
0.000113812
-4.98373e-05
7.43162e-05
-8.59827e-05
4.64651e-05
-0.000105865
1.25179e-05
-0.000113867
-1.8281e-05
-0.000101861
-3.29087e-05
-9.154e-05
-7.42546e-06
-9.89931e-05
1.87424e-05
-0.000108451
1.65031e-05
-0.000114959
7.16239e-06
-0.000119599
-3.27247e-06
-0.000121682
-1.03911e-05
-0.000120594
-1.44315e-05
-0.000118978
-1.39546e-05
-0.00011872
-1.022e-05
-0.000120417
-5.18305e-06
-0.00012424
5.73368e-08
-0.000128318
2.72472e-06
-0.000132827
4.65159e-06
-0.000137347
5.84652e-06
-0.000141925
6.42817e-06
-0.000146443
6.60543e-06
-0.000150811
6.65187e-06
-0.000155096
6.96864e-06
-0.00015946
7.66463e-06
-0.000164001
8.62592e-06
-0.000168697
9.69044e-06
-0.000173471
1.07725e-05
-0.000178232
1.18465e-05
-0.000182883
1.29011e-05
-0.000187315
1.39415e-05
-0.000191404
1.49614e-05
-0.000194951
1.58713e-05
-0.000197596
1.64632e-05
-0.000198695
1.64418e-05
-0.00019724
1.56489e-05
-0.000192264
1.46111e-05
-0.000182772
1.40424e-05
-0.000167705
1.4723e-05
-0.00014569
1.71621e-05
-0.000116022
2.22613e-05
-7.78533e-05
2.88663e-05
-3.05616e-05
3.49157e-05
2.55729e-05
3.76904e-05
8.79913e-05
3.46721e-05
0.000152165
2.39843e-05
0.000211866
6.47368e-06
0.00026646
-2.05019e-05
0.000318424
-4.97741e-05
0.000360887
-8.17824e-05
0.000402159
-0.000111268
0.000445648
-0.000137096
0.000492884
-0.000159925
0.000543347
-0.000179897
0.000595663
-0.000196612
0.000648127
-0.000209492
0.000699043
-0.000218071
0.000747014
-0.000222115
0.000791026
-0.000221686
0.00083046
-0.000217166
0.000865054
-0.000209207
0.000894842
-0.000198663
0.000920121
-0.00018651
0.000941366
-0.000173797
0.000959078
-0.000161622
0.000973855
-0.000151158
0.00098557
-0.000143723
0.000995288
-0.000140406
-0.000144895
0.000857109
0.000271374
0.000897355
0.000264941
0.000950164
0.000274165
0.00100471
0.000292042
0.00104637
0.000309153
0.00106531
0.000321372
0.00105664
0.000327411
0.00101794
0.000326054
0.000949552
0.000316241
0.00085508
0.000297917
0.000740895
0.000272737
0.000611932
0.000242776
0.000476494
0.000209754
0.000348327
0.000174632
0.000223535
0.00013731
0.000102248
0.000103006
-1.40355e-07
6.94799e-05
-5.16273e-05
4.40615e-05
-6.28738e-05
2.99889e-05
-6.47358e-05
1.83651e-05
-6.70842e-05
9.51083e-06
-7.29896e-05
2.63288e-06
-8.04531e-05
-2.92759e-06
-8.89799e-05
-5.90473e-06
-9.63339e-05
-6.60067e-06
-0.000101839
-4.7152e-06
-0.000106802
-2.19678e-07
-0.000112168
5.42314e-06
-0.000117752
8.30867e-06
-0.000122892
9.79159e-06
-0.000127255
1.02099e-05
-0.000130773
9.94635e-06
-0.000133518
9.34996e-06
-0.000135326
8.45974e-06
-0.000136527
8.16955e-06
-0.000137228
8.36556e-06
-0.000137486
8.88432e-06
-0.000136994
9.19814e-06
-0.00013559
9.36883e-06
-0.000133153
9.40988e-06
-0.000129536
9.28338e-06
-0.000124561
8.96689e-06
-0.000118074
8.4744e-06
-0.000109896
7.69309e-06
-9.97826e-05
6.34986e-06
-8.75147e-05
4.17399e-06
-7.21088e-05
2.42943e-07
-5.38926e-05
-3.60516e-06
-3.16084e-05
-8.2418e-06
-3.77728e-06
-1.31081e-05
3.08641e-05
-1.74793e-05
7.43276e-05
-2.12022e-05
0.0001274
-2.42059e-05
0.000189444
-2.71286e-05
0.000258375
-3.12402e-05
0.000331198
-3.8151e-05
0.000404547
-4.93653e-05
0.000476812
-6.57912e-05
0.000543752
-8.7442e-05
0.000606051
-0.000112072
0.00066219
-0.000137922
0.00071385
-0.000162929
0.000762309
-0.000185555
0.00080746
-0.000205076
0.00084855
-0.000220987
0.000884723
-0.000232786
0.000915308
-0.000240077
0.000939938
-0.000242701
0.000958607
-0.000240783
0.000971646
-0.000234725
0.000979643
-0.000225163
0.000983343
-0.000212907
0.000983554
-0.000198874
0.000981058
-0.000184014
0.000976538
-0.000169278
0.000970504
-0.000155588
0.000963246
-0.000143901
0.000954597
-0.000135074
0.000944416
-0.000130225
-0.000130348
0.000759397
0.000238011
0.000790536
0.000233802
0.000828351
0.000236349
0.000874985
0.000245408
0.000927002
0.000257137
0.000978871
0.000269503
0.00102441
0.000281869
0.00105755
0.000292917
0.00107319
0.000300602
0.00106786
0.000303244
0.00104042
0.000300179
0.000991565
0.000291629
0.000923239
0.000278079
0.00083886
0.000259011
0.000741525
0.000234645
0.000636636
0.000207896
0.000532151
0.000173965
0.000433901
0.000142312
0.000348944
0.000114945
0.00027603
9.12796e-05
0.000213747
7.17934e-05
0.000160429
5.59517e-05
0.000114132
4.3369e-05
7.45295e-05
3.36978e-05
4.17103e-05
2.62185e-05
1.65827e-05
2.04124e-05
3.24971e-07
1.60381e-05
-7.30359e-06
1.30517e-05
-9.54435e-06
1.05494e-05
-8.32349e-06
8.57073e-06
-5.00699e-06
6.89339e-06
-4.42801e-07
5.38215e-06
4.95501e-06
3.95215e-06
1.08596e-05
2.55516e-06
1.72692e-05
1.75997e-06
2.47907e-05
8.44029e-07
3.40011e-05
-3.26083e-07
4.48393e-05
-1.64001e-06
5.75794e-05
-3.37135e-06
7.25101e-05
-5.5208e-06
8.9911e-05
-8.11748e-06
0.000110074
-1.11965e-05
0.000133322
-1.47731e-05
0.000159898
-1.88832e-05
0.000189853
-2.36047e-05
0.000223064
-2.90369e-05
0.000258512
-3.52053e-05
0.000296703
-4.17961e-05
0.000337174
-4.87136e-05
0.000379776
-5.57095e-05
0.000424751
-6.24545e-05
0.00047232
-6.87709e-05
0.000522868
-7.47545e-05
0.000576559
-8.08189e-05
0.000633039
-8.77208e-05
0.000691285
-9.63966e-05
0.000749608
-0.000107688
0.000805816
-0.000121999
0.000857483
-0.000139109
0.000903422
-0.000158012
0.000942847
-0.000177347
0.000975604
-0.000195685
0.00100178
-0.000211735
0.00102133
-0.000224626
0.00103419
-0.000233844
0.00104049
-0.000239085
0.00104064
-0.000240231
0.00103533
-0.000237387
0.00102543
-0.000230884
0.00101195
-0.000221243
0.000995908
-0.000209124
0.000978272
-0.000195271
0.000959858
-0.00018046
0.000941301
-0.000165457
0.000923022
-0.000151
0.00090521
-0.000137776
0.000887797
-0.000126488
0.000870409
-0.000117685
0.000852405
-0.000112221
-0.00011024
0.000672433
0.000206414
0.000702275
0.000203961
0.000733372
0.000205252
0.000767839
0.00021094
0.000806614
0.000218362
0.000850036
0.000226081
0.000897301
0.000234604
0.000946031
0.000244187
0.000992641
0.000253992
0.00103305
0.000262834
0.00106349
0.000269743
0.00108117
0.000273948
0.00108444
0.000274805
0.00107207
0.000271381
0.0010437
0.000263017
0.00100103
0.000250564
0.000949033
0.000225964
0.000891657
0.000199688
0.0008319
0.000174702
0.000772155
0.000151025
0.000714621
0.000129328
0.000660584
0.000109989
0.000610848
9.3105e-05
0.000566003
7.85423e-05
0.000526254
6.59674e-05
0.000491582
5.50846e-05
0.000461958
4.56621e-05
0.000437594
3.74156e-05
0.000418144
2.99998e-05
0.000403376
2.33381e-05
0.00039297
1.72993e-05
0.000386585
1.17676e-05
0.00038395
6.5873e-06
0.00038526
1.24461e-06
0.000390208
-3.18756e-06
0.000398882
-7.82988e-06
0.000411102
-1.25465e-05
0.000426761
-1.72987e-05
0.000445607
-2.22169e-05
0.000467436
-2.73499e-05
0.000492034
-3.27162e-05
0.00051917
-3.83318e-05
0.000548603
-4.42062e-05
0.000580068
-5.03485e-05
0.000613236
-5.67728e-05
0.000647681
-6.34812e-05
0.000682907
-7.04318e-05
0.000718593
-7.74822e-05
0.000754353
-8.4473e-05
0.000789882
-9.12391e-05
0.000825046
-9.76185e-05
0.000859825
-0.000103549
0.000894226
-0.000109155
0.000928174
-0.000114767
0.000961355
-0.000120902
0.000993116
-0.000128158
0.00102246
-0.000137032
0.00104819
-0.000147732
0.00106913
-0.000160044
0.0010844
-0.000173289
0.00109352
-0.000186461
0.00109633
-0.000198495
0.00109304
-0.000208446
0.00108406
-0.000215649
0.00106996
-0.000219743
0.00105146
-0.000220587
0.00102945
-0.000218214
0.00100488
-0.000212817
0.000978736
-0.000204742
0.000951941
-0.000194448
0.000925288
-0.000182471
0.000899404
-0.000169387
0.000874727
-0.000155782
0.0008515
-0.00014223
0.000829785
-0.000129284
0.00080946
-0.000117451
0.000790229
-0.000107257
0.000771577
-9.9033e-05
0.000752867
-9.3511e-05
-9.02524e-05
0.000594386
0.000177665
0.00062317
0.000175177
0.000652323
0.000176099
0.000682115
0.000181149
0.000712924
0.000187552
0.000745613
0.000193392
0.000781181
0.000199036
0.000820193
0.000205175
0.000862411
0.000211774
0.000906707
0.000218538
0.000951215
0.000225234
0.000993659
0.000231504
0.00103171
0.000236754
0.00106298
0.000240113
0.0010853
0.000240697
0.00109753
0.000238336
0.00109977
0.000223725
0.00109369
0.000205768
0.00108083
0.000187563
0.00106268
0.000169175
0.00104092
0.000151083
0.00101711
0.000133799
0.000992585
0.00011763
0.000968435
0.000102692
0.000945448
8.89543e-05
0.000924203
7.63304e-05
0.000905148
6.47164e-05
0.000888605
5.3959e-05
0.000874707
4.3898e-05
0.00086359
3.44547e-05
0.000855329
2.55607e-05
0.000849964
1.71328e-05
0.000847483
9.06782e-06
0.000847317
1.41104e-06
0.000850203
-6.07394e-06
0.000855622
-1.3249e-05
0.000863399
-2.03233e-05
0.00087339
-2.72895e-05
0.000885345
-3.41728e-05
0.000898999
-4.10039e-05
0.000914078
-4.77943e-05
0.000930291
-5.4545e-05
0.000947337
-6.12523e-05
0.000964899
-6.79112e-05
0.000982641
-7.45146e-05
0.0010002
-8.10444e-05
0.00101723
-8.74554e-05
0.0010334
-9.36576e-05
0.00104847
-9.95414e-05
0.00106224
-0.000105011
0.00107463
-0.000110006
0.00108562
-0.000114541
0.00109523
-0.000118758
0.00110339
-0.000122935
0.00110994
-0.000127454
0.00111451
-0.000132725
0.00111655
-0.000139068
0.00111541
-0.000146589
0.00111046
-0.000155101
0.00110128
-0.000164111
0.00108773
-0.000172907
0.00106996
-0.000180729
0.00104843
-0.00018691
0.00102374
-0.000190966
0.000996632
-0.000192631
0.000967857
-0.000191812
0.000938196
-0.000188553
0.000908389
-0.000183011
0.00087909
-0.000175442
0.000850825
-0.000166183
0.00082398
-0.000155626
0.000798794
-0.000144201
0.000775367
-0.000132355
0.000753675
-0.000120539
0.000733589
-0.000109198
0.000714871
-9.87329e-05
0.000697189
-8.95754e-05
0.000680042
-8.18861e-05
0.000662962
-7.64307e-05
-7.20483e-05
0.000525111
0.000151816
0.000551936
0.000148352
0.000579146
0.000148889
0.000606467
0.000153827
0.000634006
0.000160013
0.000661953
0.000165445
0.000690628
0.000170361
0.000720605
0.000175198
0.000752535
0.000179845
0.000786873
0.000184199
0.000823722
0.000188386
0.00086273
0.000192496
0.00090308
0.000196403
0.000943486
0.000199707
0.000982309
0.000201874
0.00101803
0.000202617
0.00104832
0.000193431
0.00107278
0.000181313
0.00109162
0.000168723
0.00110524
0.000155556
0.00111427
0.000142046
0.00111951
0.000128562
0.00112176
0.00011538
0.00112179
0.000102658
0.00112029
9.04559e-05
0.00111784
7.87819e-05
0.00111494
6.76186e-05
0.00111197
5.69231e-05
0.00110923
4.66404e-05
0.00110695
3.67402e-05
0.0011053
2.72084e-05
0.00110441
1.80233e-05
0.0011043
9.17356e-06
0.00110491
8.00555e-07
0.00110635
-7.51101e-06
0.00110843
-1.53309e-05
0.00111104
-2.293e-05
0.00111407
-3.03163e-05
0.00111738
-3.74849e-05
0.00112082
-4.44446e-05
0.00112422
-5.11992e-05
0.00112742
-5.77435e-05
0.00113024
-6.40693e-05
0.0011325
-7.01686e-05
0.00113401
-7.60326e-05
0.00113462
-8.16453e-05
0.00113414
-8.69759e-05
0.00113245
-9.19735e-05
0.00112949
-9.65791e-05
0.00112523
-0.000100751
0.00111971
-0.000104483
0.00111299
-0.00010783
0.00110517
-0.000110933
0.00109625
-0.000114019
0.00108618
-0.000117378
0.00107476
-0.000121301
0.00106169
-0.000126004
0.00104665
-0.000131548
0.00102934
-0.000137788
0.0010096
-0.000144369
0.000987476
-0.000150787
0.000963231
-0.000156485
0.000937282
-0.00016096
0.000910143
-0.000163828
0.000882359
-0.000164847
0.000854456
-0.000163909
0.000826913
-0.000161009
0.000800135
-0.000156233
0.000774439
-0.000149746
0.000750042
-0.000141786
0.000727065
-0.00013265
0.000705549
-0.000122684
0.000685459
-0.000112266
0.000666709
-0.000101788
0.000649156
-9.16456e-05
0.000632606
-8.21828e-05
0.000616803
-7.3772e-05
0.000601352
-6.64354e-05
0.000585928
-6.10061e-05
-5.55732e-05
0.00046394
0.000128551
0.000488639
0.000123652
0.00051348
0.000124049
0.000538159
0.000129148
0.000563122
0.00013505
0.000588445
0.000140122
0.00061397
0.000144837
0.000639764
0.000149404
0.000666083
0.000153526
0.000693245
0.000157037
0.00072161
0.00016002
0.00075152
0.000162587
0.00078317
0.000164753
0.000816474
0.000166403
0.000850999
0.000167349
0.000886112
0.000167504
0.000919682
0.000159861
0.000950825
0.00015017
0.00097917
0.000140378
0.00100445
0.000130274
0.00102659
0.000119904
0.0010457
0.000109455
0.00106199
9.9089e-05
0.00107575
8.89013e-05
0.00108727
7.8933e-05
0.00109686
6.91968e-05
0.00110478
5.96941e-05
0.00111129
5.04164e-05
0.00111658
4.1349e-05
0.00112083
3.24909e-05
0.00112418
2.38568e-05
0.00112674
1.54624e-05
0.00112859
7.32568e-06
0.00112979
-3.97298e-07
0.0011303
-8.02075e-06
0.00113017
-1.52045e-05
0.00112938
-2.2139e-05
0.0011279
-2.88367e-05
0.0011257
-3.529e-05
0.00112276
-4.14966e-05
0.00111901
-4.74555e-05
0.00111443
-5.31619e-05
0.00110897
-5.86095e-05
0.0011026
-6.3793e-05
0.00109527
-6.87068e-05
0.00108697
-7.33419e-05
0.00107767
-7.76814e-05
0.0010674
-8.16994e-05
0.00105619
-8.53688e-05
0.00104411
-8.86773e-05
0.00103127
-9.16438e-05
0.00101778
-9.43336e-05
0.00100372
-9.68708e-05
0.000989134
-9.94373e-05
0.000974007
-0.000102251
0.000958232
-0.000105526
0.000941642
-0.000109414
0.000924048
-0.000113954
0.000905296
-0.000119035
0.000885317
-0.000124391
0.000864172
-0.000129641
0.00084204
-0.000134353
0.000819194
-0.000138115
0.000795958
-0.000140591
0.000772655
-0.000141544
0.000749582
-0.000140836
0.00072699
-0.000138418
0.000705077
-0.00013432
0.000683982
-0.000128652
0.000663792
-0.000121596
0.000644546
-0.000113404
0.000626246
-0.000104384
0.000608868
-9.48879e-05
0.000592365
-8.52854e-05
0.000576667
-7.59473e-05
0.000561667
-6.71829e-05
0.000547206
-5.93107e-05
0.000533018
-5.22472e-05
0.00051882
-4.68086e-05
-4.05183e-05
0.000410014
0.000107501
0.000432754
0.000100912
0.000455183
0.00010162
0.000477152
0.000107179
0.000499455
0.000112747
0.000522203
0.000117374
0.000545203
0.000121836
0.00056844
0.000126167
0.00059194
0.000130026
0.000615686
0.00013329
0.000639722
0.000135984
0.000664189
0.000138119
0.000689281
0.000139662
0.000715152
0.000140532
0.000741864
0.000140637
0.000769388
0.00013998
0.000796434
0.000132814
0.000822522
0.000124082
0.000847429
0.000115472
0.000870887
0.000106816
0.000892682
9.81091e-05
0.000912688
8.94488e-05
0.000930854
8.09228e-05
0.000947184
7.25713e-05
0.000961716
6.44008e-05
0.00097451
5.64033e-05
0.000985636
4.85678e-05
0.00099517
4.08823e-05
0.00100318
3.33362e-05
0.00100974
2.59308e-05
0.00101492
1.86823e-05
0.00101877
1.16135e-05
0.00102134
4.75243e-06
0.00102278
-1.83522e-06
0.00102302
-8.26334e-06
0.00102222
-1.44059e-05
0.00102039
-2.03111e-05
0.00101756
-2.60041e-05
0.00101375
-3.14826e-05
0.001009
-3.67407e-05
0.00100332
-4.17761e-05
0.000996742
-4.6586e-05
0.0009893
-5.11666e-05
0.000981021
-5.55145e-05
0.00097194
-5.9626e-05
0.000962094
-6.34958e-05
0.000951526
-6.71137e-05
0.000940293
-7.04657e-05
0.000928463
-7.35394e-05
0.000916121
-7.63351e-05
0.000903356
-7.88784e-05
0.000890253
-8.12308e-05
0.000876878
-8.34963e-05
0.000863261
-8.58196e-05
0.000849378
-8.83687e-05
0.000835156
-9.13043e-05
0.000820482
-9.47392e-05
0.000805226
-9.86982e-05
0.000789282
-0.000103091
0.000772598
-0.000107707
0.000755197
-0.00011224
0.000737178
-0.000116334
0.000718697
-0.000119634
0.000699939
-0.000121833
0.000681089
-0.000122694
0.000662314
-0.000122061
0.000643755
-0.000119858
0.000625522
-0.000116087
0.000607697
-0.000110827
0.000590341
-0.00010424
0.000573498
-9.65599e-05
0.0005572
-8.80863e-05
0.000541475
-7.91627e-05
0.00052634
-7.01512e-05
0.000511799
-6.1406e-05
0.000497827
-5.32109e-05
0.000484338
-4.58212e-05
0.000471177
-3.90867e-05
0.000458029
-3.36608e-05
-2.683e-05
0.000362528
8.82933e-05
0.000383496
7.99438e-05
0.000403597
8.15192e-05
0.000423064
8.77118e-05
0.00044288
9.2931e-05
0.000463078
9.71768e-05
0.000483524
0.00010139
0.000504297
0.000105394
0.00052542
0.000108903
0.000546805
0.000111905
0.000568366
0.000114423
0.000590058
0.000116428
0.000611865
0.000117854
0.000633785
0.000118612
0.000655814
0.000118608
0.000677971
0.000117824
0.000699347
0.000111438
0.00071975
0.000103679
0.00073919
9.60326e-05
0.000757603
8.84031e-05
0.00077491
8.08011e-05
0.000791052
7.33076e-05
0.000805983
6.59913e-05
0.000819676
5.88787e-05
0.000832111
5.19657e-05
0.000843278
4.52358e-05
0.000853176
3.86703e-05
0.000861807
3.22514e-05
0.000869179
2.59644e-05
0.000875304
1.98051e-05
0.000880204
1.37826e-05
0.000883906
7.91194e-06
0.000886454
2.20439e-06
0.00088792
-3.30189e-06
0.000888323
-8.66594e-06
0.00088775
-1.38328e-05
0.000886239
-1.87999e-05
0.000883822
-2.35873e-05
0.000880537
-2.81978e-05
0.000876423
-3.26267e-05
0.000871518
-3.68712e-05
0.000865861
-4.09291e-05
0.000859492
-4.47976e-05
0.000852451
-4.84734e-05
0.000844779
-5.19532e-05
0.000836515
-5.52319e-05
0.000827703
-5.8302e-05
0.000818392
-6.11546e-05
0.000808636
-6.37836e-05
0.000798495
-6.61943e-05
0.00078803
-6.84129e-05
0.000777293
-7.04944e-05
0.000766324
-7.25268e-05
0.000755133
-7.46284e-05
0.000743698
-7.69336e-05
0.000731962
-7.95691e-05
0.000719845
-8.26217e-05
0.000707254
-8.61071e-05
0.00069411
-8.99476e-05
0.00068037
-9.39668e-05
0.000666035
-9.79051e-05
0.000651154
-0.000101453
0.000635814
-0.000104294
0.00062012
-0.000106139
0.000604183
-0.000106756
0.000588104
-0.000105982
0.000571976
-0.00010373
0.000555882
-9.99926e-05
0.0005399
-9.48447e-05
0.000524106
-8.84463e-05
0.000508582
-8.10352e-05
0.000493408
-7.29126e-05
0.000478667
-6.44219e-05
0.000464434
-5.59182e-05
0.000450764
-4.77359e-05
0.000437687
-4.01336e-05
0.000425158
-3.32922e-05
0.000413108
-2.70373e-05
0.000401147
-2.16993e-05
-1.47055e-05
0.000320758
7.05686e-05
0.000340087
6.06147e-05
0.000357962
6.3644e-05
0.000375206
7.04678e-05
0.000392819
7.53176e-05
0.00041069
7.93065e-05
0.000428757
8.33231e-05
0.000447162
8.69891e-05
0.000465939
9.01263e-05
0.000485023
9.28204e-05
0.000504347
9.50997e-05
0.000523846
9.69281e-05
0.000543446
9.82544e-05
0.000563056
9.90021e-05
0.000582581
9.90827e-05
0.000601945
9.84601e-05
0.000620301
9.30824e-05
0.000637492
8.64873e-05
0.000653584
7.99407e-05
0.000668602
7.33851e-05
0.00068256
6.68435e-05
0.000695474
6.03934e-05
0.000707363
5.41018e-05
0.000718245
4.79975e-05
0.00072813
4.20805e-05
0.000737028
3.63374e-05
0.000744947
3.07516e-05
0.000751892
2.53066e-05
0.000757869
1.99874e-05
0.000762886
1.47878e-05
0.000766956
9.71298e-06
0.000770094
4.7736e-06
0.000772337
-3.92135e-08
0.000773718
-4.68259e-06
0.000774258
-9.20623e-06
0.000773999
-1.35734e-05
0.000772974
-1.77753e-05
0.000771211
-2.18235e-05
0.000768736
-2.57231e-05
0.00076558
-2.94711e-05
0.000761773
-3.30642e-05
0.000757345
-3.65004e-05
0.000752324
-3.9777e-05
0.000746742
-4.2891e-05
0.000740627
-4.58386e-05
0.00073401
-4.86153e-05
0.000726923
-5.1215e-05
0.0007194
-5.36316e-05
0.000711479
-5.58624e-05
0.0007032
-5.7915e-05
0.000694602
-5.98151e-05
0.000685719
-6.16119e-05
0.000676574
-6.33816e-05
0.00066717
-6.5224e-05
0.000657487
-6.72504e-05
0.000647481
-6.95639e-05
0.000637093
-7.22331e-05
0.000626252
-7.52662e-05
0.000614896
-7.85915e-05
0.000602981
-8.20522e-05
0.000590493
-8.54174e-05
0.000577449
-8.84083e-05
0.000563888
-9.07334e-05
0.000549871
-9.21223e-05
0.000535468
-9.23529e-05
0.000520755
-9.12691e-05
0.000505815
-8.87911e-05
0.000490744
-8.49218e-05
0.000475649
-7.97495e-05
0.00046065
-7.34466e-05
0.000445874
-6.62598e-05
0.000431454
-5.8493e-05
0.000417515
-5.04823e-05
0.000404163
-4.25659e-05
0.000391474
-3.50476e-05
0.000379499
-2.81578e-05
0.0003682
-2.19939e-05
0.000357567
-1.64044e-05
0.000347127
-1.12585e-05
-4.46956e-06
0.000284047
5.3995e-05
0.000301804
4.28575e-05
0.000317587
4.78611e-05
0.000332893
5.51619e-05
0.000348559
5.96515e-05
0.000364356
6.35097e-05
0.00038032
6.73584e-05
0.000396611
7.06988e-05
0.000413236
7.35008e-05
0.000430146
7.59107e-05
0.000447302
7.79437e-05
0.000464664
7.95662e-05
0.000482171
8.07472e-05
0.000499741
8.14324e-05
0.000517271
8.1552e-05
0.000534662
8.10698e-05
0.000551105
7.66394e-05
0.000566422
7.11705e-05
0.000580652
6.57101e-05
0.000593821
6.02161e-05
0.000605953
5.47115e-05
0.000617081
4.92656e-05
0.000627242
4.39408e-05
0.000636473
3.87668e-05
0.000644806
3.37473e-05
0.00065227
2.88735e-05
0.000658888
2.41333e-05
0.000664681
1.95138e-05
0.000669666
1.50021e-05
0.000673861
1.05934e-05
0.000677281
6.29289e-06
0.000679948
2.1064e-06
0.000681876
-1.96746e-06
0.000683099
-5.90495e-06
0.000683623
-9.73051e-06
0.000683477
-1.34278e-05
0.000682689
-1.69866e-05
0.000681278
-2.04129e-05
0.000679266
-2.37116e-05
0.000676676
-2.6881e-05
0.00067353
-2.99179e-05
0.00066985
-3.28201e-05
0.000665658
-3.55849e-05
0.000660976
-3.82092e-05
0.000655827
-4.06895e-05
0.000650232
-4.3021e-05
0.000644216
-4.51986e-05
0.000637802
-4.72173e-05
0.000631015
-4.90759e-05
0.000623883
-5.07826e-05
0.000616429
-5.2361e-05
0.000608672
-5.38554e-05
0.000600623
-5.53321e-05
0.000592276
-5.6877e-05
0.00058361
-5.85843e-05
0.000574585
-6.05394e-05
0.000565149
-6.27967e-05
0.00055524
-6.53569e-05
0.000544799
-6.81507e-05
0.00053378
-7.10331e-05
0.000522155
-7.3793e-05
0.000509923
-7.61757e-05
0.000497104
-7.79143e-05
0.000483743
-7.87619e-05
0.000469909
-7.85185e-05
0.00045569
-7.70504e-05
0.0004412
-7.43009e-05
0.000426574
-7.02955e-05
0.000411966
-6.51421e-05
0.000397545
-5.90254e-05
0.000383479
-5.21941e-05
0.000369928
-4.49421e-05
0.000357029
-3.7583e-05
0.000344887
-3.04236e-05
0.000333565
-2.37253e-05
0.000323096
-1.76888e-05
0.000313428
-1.23263e-05
0.000304585
-7.56132e-06
0.000296036
-2.71003e-06
3.594e-06
0.000251798
3.82832e-05
0.000267991
2.66645e-05
0.000281861
3.39914e-05
0.000295501
4.15218e-05
0.000309433
4.57198e-05
0.00032339
4.95521e-05
0.000337519
5.32297e-05
0.00035196
5.62578e-05
0.000366692
5.87689e-05
0.00038167
6.09326e-05
0.000396868
6.27455e-05
0.000412256
6.41784e-05
0.000427787
6.52161e-05
0.000443398
6.5821e-05
0.000459011
6.59389e-05
0.00047454
6.55413e-05
0.000489254
6.19247e-05
0.00050298
5.74452e-05
0.000515738
5.29517e-05
0.000527543
4.84116e-05
0.000538408
4.38458e-05
0.000548359
3.93149e-05
0.000557425
3.48745e-05
0.00056564
3.05524e-05
0.000573034
2.63533e-05
0.000579636
2.22708e-05
0.000585474
1.82958e-05
0.000590569
1.44185e-05
0.000594944
1.06268e-05
0.000598619
6.91843e-06
0.000601612
3.2997e-06
0.000603943
-2.24571e-07
0.000605629
-3.65294e-06
0.000606695
-6.97112e-06
0.000607154
-1.01895e-05
0.000607028
-1.33014e-05
0.000606338
-1.62974e-05
0.000605105
-1.91796e-05
0.000603345
-2.19515e-05
0.000601076
-2.46121e-05
0.000598316
-2.71577e-05
0.000595081
-2.95852e-05
0.000591388
-3.18915e-05
0.000587251
-3.40728e-05
0.000582686
-3.61247e-05
0.000577707
-3.80419e-05
0.000572327
-3.98188e-05
0.000566561
-4.14507e-05
0.000560421
-4.29364e-05
0.000553922
-4.42836e-05
0.000547075
-4.55139e-05
0.000539887
-4.6667e-05
0.000532357
-4.7802e-05
0.000524473
-4.89939e-05
0.000516213
-5.03241e-05
0.000507539
-5.18647e-05
0.000498401
-5.36589e-05
0.000488745
-5.57014e-05
0.000478519
-5.79244e-05
0.00046768
-6.01937e-05
0.000456204
-6.2317e-05
0.000444093
-6.40651e-05
0.000431379
-6.52008e-05
0.000418127
-6.55092e-05
0.000404431
-6.48226e-05
0.000390419
-6.30387e-05
0.000376247
-6.01292e-05
0.000362094
-5.61423e-05
0.000348151
-5.11989e-05
0.00033461
-4.54843e-05
0.00032165
-3.92343e-05
0.000309424
-3.27162e-05
0.000298048
-2.62066e-05
0.000287594
-1.99698e-05
0.000278088
-1.42191e-05
0.000269529
-9.12979e-06
0.000261834
-4.63112e-06
0.000255052
-7.79439e-07
0.000248646
3.69568e-06
9.37805e-06
0.000223468
2.31975e-05
0.000238065
1.2068e-05
0.000250245
2.18105e-05
0.00026246
2.93075e-05
0.000274839
3.33406e-05
0.000287177
3.72144e-05
0.000299706
4.07001e-05
0.00031253
4.34339e-05
0.000325606
4.56933e-05
0.000338896
4.76423e-05
0.00035238
4.92613e-05
0.000366029
5.05294e-05
0.000379802
5.14435e-05
0.000393646
5.1977e-05
0.000407498
5.20872e-05
0.000421286
5.17526e-05
0.000434366
4.88448e-05
0.00044658
4.52314e-05
0.000457947
4.1585e-05
0.000468477
3.78811e-05
0.000478183
3.41403e-05
0.000487081
3.0417e-05
0.000495193
2.67616e-05
0.000502546
2.31997e-05
0.000509164
1.97357e-05
0.00051507
1.63646e-05
0.000520287
1.30794e-05
0.000524833
9.87204e-06
0.00052873
6.72979e-06
0.000531995
3.65359e-06
0.000534646
6.49063e-07
0.000536702
-2.28076e-06
0.00053818
-5.13168e-06
0.000539102
-7.89282e-06
0.00053948
-1.05674e-05
0.00053933
-1.31515e-05
0.000538669
-1.56366e-05
0.000537512
-1.80218e-05
0.000535869
-2.03087e-05
0.000533752
-2.24954e-05
0.000531172
-2.45776e-05
0.000528138
-2.6551e-05
0.000524657
-2.84113e-05
0.000520739
-3.0154e-05
0.000516388
-3.1774e-05
0.000511612
-3.32657e-05
0.000506417
-3.46236e-05
0.000500809
-3.58433e-05
0.000494797
-3.69246e-05
0.000488389
-3.78754e-05
0.000481592
-3.87166e-05
0.00047441
-3.94851e-05
0.000466843
-4.02349e-05
0.000458882
-4.10328e-05
0.000450508
-4.19502e-05
0.000441692
-4.30487e-05
0.000432396
-4.43625e-05
0.000422577
-4.58827e-05
0.000412197
-4.75447e-05
0.00040123
-4.92265e-05
0.00038967
-5.07572e-05
0.000377542
-5.19367e-05
0.000364903
-5.25619e-05
0.000351848
-5.24537e-05
0.000338505
-5.14797e-05
0.000325034
-4.95681e-05
0.000311619
-4.67141e-05
0.000298456
-4.2979e-05
0.000285741
-3.84843e-05
0.000273659
-3.34022e-05
0.000262366
-2.79417e-05
0.000251983
-2.23326e-05
0.000242583
-1.68069e-05
0.000234197
-1.15837e-05
0.000226806
-6.82845e-06
0.000220377
-2.70067e-06
0.000214795
9.50681e-07
0.000210124
3.892e-06
0.000205901
7.91905e-06
1.29652e-05
0.00019856
8.56662e-06
0.000211521
-8.92927e-07
0.000222268
1.1064e-05
0.00023325