/*--------------------------------*- C++ -*----------------------------------*\
| =========                 |                                                 |
| \\      /  F ield         | OpenFOAM: The Open Source CFD Toolbox           |
|  \\    /   O peration     | Version:  v1912                                 |
|   \\  /    A nd           | Website:  www.openfoam.com                      |
|    \\/     M anipulation  |                                                 |
\*---------------------------------------------------------------------------*/
FoamFile
{
    version     2.0;
    format      ascii;
    class       volVectorField;
    location    "725";
    object      U;
}
// * * * * * * * * * * * * * * * * * * * * * * * * * * * * * * * * * * * * * //

dimensions      [0 1 -1 0 0 0 0];


internalField   nonuniform List<vector> 
2000
(
(0.84616 0.187394 0)
(0.515133 0.124089 0)
(0.223448 0.0684415 0)
(0.0598068 0.0174443 6.19505e-20)
(-0.00455616 -0.0232232 1.20741e-17)
(-0.0642033 -0.0384873 1.04288e-17)
(-0.0776008 -0.0372471 0)
(-0.0715948 -0.0166589 0)
(-0.0590605 0.0117122 0)
(-0.0421583 0.0254672 2.36816e-17)
(-0.0415846 0.0109785 -1.45088e-17)
(-0.0273673 -0.000620386 -1.36265e-17)
(-0.0163186 -0.00266636 0)
(-0.0200738 -0.00264042 0)
(-0.0219093 -0.00227084 -1.08251e-17)
(-0.0168768 0.000848242 0)
(-0.0105785 0.00349378 9.7446e-18)
(-0.00962627 0.00623717 3.09459e-21)
(-0.010634 0.00612805 9.42009e-18)
(-0.0114 0.00488873 -4.64943e-18)
(-0.0112613 0.00278229 9.19213e-18)
(-0.0100688 0.000804514 0)
(-0.00791663 -0.000199464 0)
(-0.00539739 -0.000630039 -7.21048e-23)
(-0.00310258 -0.000795117 0)
(-0.00127535 -0.000813971 -4.51939e-18)
(-5.23698e-05 -0.000750848 0)
(0.000644926 -0.000670218 4.52865e-18)
(0.00104345 -0.000655878 0)
(0.00133367 -0.00066201 0)
(0.00160966 -0.000587371 0)
(0.00188643 -0.000475912 1.1501e-18)
(0.00214786 -0.0003856 0)
(0.00238294 -0.000345658 -5.8373e-19)
(0.0025787 -0.000344228 1.94815e-14)
(0.00271036 -0.000360076 1.94679e-14)
(0.00277062 -0.000395988 6.01998e-19)
(0.00270541 -0.000489401 -6.09498e-19)
(0.00251766 -0.000631711 0)
(0.00220651 -0.000791032 2.50728e-18)
(0.0017523 -0.000943901 0)
(0.00112127 -0.00107734 -2.59e-18)
(0.000271825 -0.0011778 0)
(-0.000853691 -0.001228 -5.36198e-18)
(-0.00230757 -0.00124706 2.72445e-18)
(-0.00413015 -0.00132381 0)
(-0.0064103 -0.00150535 0)
(-0.00930812 -0.00170223 -2.85905e-18)
(-0.0131476 -0.00160558 0)
(-0.0185446 -0.000624277 2.93612e-18)
(-0.0264796 0.00193899 0)
(-0.038237 0.00637354 5.91605e-18)
(-0.0552018 0.0121286 -5.86366e-18)
(-0.078511 0.0178145 5.7405e-18)
(-0.108513 0.0215385 -2.74028e-18)
(-0.144298 0.0214337 0)
(-0.183754 0.0162868 2.32771e-18)
(-0.223945 0.00595766 -2.07104e-18)
(-0.261126 -0.00850391 -4.07587e-18)
(-0.29046 -0.0248639 3.30019e-18)
(-0.307078 -0.0398755 -3.25794e-18)
(-0.309454 -0.0503365 3.48711e-18)
(-0.302976 -0.0563358 -3.98169e-18)
(-0.287868 -0.0592233 4.79121e-18)
(-0.265263 -0.06003 -1.11169e-20)
(-0.236012 -0.0594893 7.19123e-18)
(-0.200545 -0.0578036 0)
(-0.159043 -0.0549641 0)
(-0.111775 -0.050963 7.53532e-20)
(-0.0594811 -0.045843 0)
(-0.00342478 -0.0395409 1.99169e-17)
(0.0562079 -0.0317214 0)
(0.119688 -0.0222395 1.98823e-17)
(0.186541 -0.0112508 -4.87458e-19)
(0.256031 0.00100481 1.71614e-17)
(0.329476 0.0142277 2.98551e-17)
(0.403386 0.0280451 7.33765e-19)
(0.490961 0.0420031 -1.01445e-17)
(0.556823 0.0544544 -6.52777e-18)
(0.713357 0.0651521 0)
(1.0153 0.210384 0)
(0.944633 0.194211 0)
(0.804475 0.179983 -3.53028e-18)
(0.654422 0.152313 7.29115e-18)
(0.509224 0.111169 0)
(0.360042 0.0683704 -7.29271e-18)
(0.216493 0.0293252 0)
(0.0821323 -0.00530901 0)
(-0.0282879 -0.01804 0)
(-0.0562032 -0.0189157 -1.73186e-17)
(-0.066732 -0.0249885 1.57553e-17)
(-0.0718827 -0.0159766 1.44517e-17)
(-0.0637602 0.00640454 0)
(-0.0508819 0.0207223 6.3264e-18)
(-0.0545074 0.00999218 0)
(-0.0483018 -0.00293715 0)
(-0.0376334 -0.00402575 0)
(-0.0329324 -0.00109644 5.27289e-18)
(-0.0367042 0.000899987 -1.0342e-17)
(-0.0388914 0.000901675 -5.09419e-18)
(-0.0395859 7.11797e-05 0)
(-0.0384945 -0.00112693 0)
(-0.0357767 -0.00235245 0)
(-0.0325323 -0.00294232 -7.41729e-18)
(-0.0293705 -0.00274225 0)
(-0.0265574 -0.0019433 4.95365e-18)
(-0.024337 -0.000881305 2.4843e-18)
(-0.022877 -1.31474e-06 0)
(-0.0222425 0.000370379 0)
(-0.0222987 0.00040213 0)
(-0.0228673 0.000226415 0)
(-0.0237205 3.75266e-05 -6.33072e-19)
(-0.0246873 -0.000116891 0)
(-0.0257087 -0.00020557 3.20432e-19)
(-0.026804 -0.000191605 1.61432e-19)
(-0.0280422 -5.85679e-05 0)
(-0.0294645 0.00017505 0)
(-0.0310965 0.000477496 6.63115e-19)
(-0.032999 0.000829059 0)
(-0.0351883 0.00122699 -1.35328e-18)
(-0.0376787 0.00167814 0)
(-0.0404757 0.00219545 -1.38319e-18)
(-0.043586 0.00278878 0)
(-0.047015 0.00345332 1.41454e-18)
(-0.0507553 0.00417916 1.43212e-18)
(-0.0547823 0.00500742 0)
(-0.0590733 0.006123 0)
(-0.0636297 0.0078983 -2.97485e-18)
(-0.0684474 0.0108484 0)
(-0.0734951 0.0155714 1.48028e-20)
(-0.0787961 0.0225909 0)
(-0.0845523 0.0320278 0)
(-0.0911186 0.0431729 0)
(-0.0987995 0.0543784 0)
(-0.107319 0.0633076 6.02551e-18)
(-0.115142 0.0674961 0)
(-0.119832 0.0649657 -5.47676e-18)
(-0.119464 0.0548444 2.64993e-18)
(-0.112605 0.0381298 -2.30622e-18)
(-0.0953246 0.0176273 -4.87546e-18)
(-0.0634821 -0.00492474 5.02435e-18)
(-0.0454744 -0.0309162 -5.54599e-18)
(-0.0201558 -0.0515409 6.4974e-18)
(0.00777777 -0.0662022 0)
(0.0387604 -0.0764941 -1.29627e-17)
(0.0732595 -0.0838709 -9.67508e-18)
(0.112043 -0.0890522 0)
(0.155288 -0.0920439 5.7472e-18)
(0.202624 -0.0925604 1.25742e-17)
(0.253467 -0.0904 0)
(0.307165 -0.0854753 0)
(0.363141 -0.0777699 0)
(0.42093 -0.0674231 0)
(0.480275 -0.0547695 -1.36168e-17)
(0.540929 -0.0403417 5.93542e-18)
(0.603754 -0.0247988 -1.17649e-17)
(0.66717 -0.00907309 1.01565e-17)
(0.738964 0.00580346 -3.46656e-18)
(0.795888 0.0173993 0)
(0.911604 0.0228604 0)
(0.978489 0.201538 0)
(0.978854 0.193006 -2.78712e-18)
(0.969154 0.205111 3.48274e-18)
(0.939083 0.208532 -3.06171e-18)
(0.878034 0.194606 2.8863e-18)
(0.785605 0.168719 2.84438e-18)
(0.669349 0.138081 0)
(0.541012 0.106021 0)
(0.40822 0.0750633 0)
(0.285943 0.0459344 6.86975e-18)
(0.17388 0.018021 0)
(0.0721776 -0.00640557 0)
(-0.0214751 -0.0141541 0)
(-0.0469103 -0.00385643 -7.18775e-18)
(-0.0508306 -0.0116809 0)
(-0.0586915 -0.0181537 -6.05391e-18)
(-0.0592915 -0.0112544 0)
(-0.0481077 0.00906381 5.87888e-18)
(-0.0464785 0.0164841 2.87411e-18)
(-0.0509024 0.0125886 0)
(-0.0532615 0.00615001 -2.79106e-18)
(-0.0550509 -0.000291749 0)
(-0.0556694 -0.00469758 0)
(-0.0547708 -0.00653212 5.43837e-18)
(-0.0532219 -0.00660932 0)
(-0.0520443 -0.00572915 1.35875e-18)
(-0.051844 -0.00422329 -4.07897e-18)
(-0.0526373 -0.00223484 0)
(-0.0539946 -0.000223363 0)
(-0.0554677 0.0012402 -6.81881e-19)
(-0.0570666 0.00218878 0)
(-0.0587726 0.0027121 1.47161e-22)
(-0.0605109 0.00295487 0)
(-0.0622375 0.00308076 6.91126e-19)
(-0.06396 0.00325169 8.69357e-20)
(-0.0657522 0.00352127 0)
(-0.0676725 0.00387449 1.7642e-19)
(-0.0697345 0.00427272 -3.55748e-19)
(-0.0719194 0.00470992 -3.58923e-19)
(-0.0741949 0.00518775 -7.24772e-19)
(-0.0765217 0.00571079 7.32325e-19)
(-0.0788602 0.00628761 7.40092e-19)
(-0.0811785 0.00692301 0)
(-0.083436 0.00760158 1.51776e-18)
(-0.0855244 0.00829633 -3.07903e-18)
(-0.0871916 0.0090282 0)
(-0.0880335 0.00997396 -1.5937e-18)
(-0.0875831 0.0115274 3.24947e-18)
(-0.0853092 0.0141646 0)
(-0.0805582 0.0184645 -1.69903e-18)
(-0.0726283 0.0249066 1.78337e-18)
(-0.0610148 0.0337425 -1.84924e-18)
(-0.0453555 0.0440674 -1.91663e-18)
(-0.0256053 0.0543278 0)
(-0.00196956 0.0622985 -3.9404e-18)
(0.0256017 0.0654507 -1.88353e-18)
(0.0570218 0.0614998 1.63503e-18)
(0.0904692 0.0496208 1.52878e-18)
(0.124365 0.0288367 2.56438e-18)
(0.156152 0.00197187 0)
(0.186276 -0.0244432 0)
(0.213985 -0.0464618 0)
(0.242228 -0.0647805 -1.3143e-18)
(0.273926 -0.0804972 0)
(0.31 -0.0941423 3.22774e-18)
(0.349893 -0.105675 0)
(0.392669 -0.114752 -1.99237e-18)
(0.437452 -0.120924 -4.4734e-18)
(0.48345 -0.123787 0)
(0.529998 -0.123114 -2.4788e-18)
(0.576617 -0.118914 2.58226e-18)
(0.623053 -0.111456 0)
(0.669254 -0.101256 0)
(0.71541 -0.089001 0)
(0.761762 -0.0755219 -5.40976e-18)
(0.809185 -0.0617297 0)
(0.856973 -0.0488028 -1.88498e-18)
(0.91007 -0.0378415 3.368e-18)
(0.952971 -0.0312176 0)
(1.03533 -0.0303229 3.93207e-19)
(0.970611 0.209117 0)
(0.963917 0.194765 1.52588e-18)
(0.96643 0.198514 0)
(0.977152 0.206407 1.69505e-18)
(0.982034 0.208884 -3.00524e-18)
(0.968293 0.204266 -1.34153e-18)
(0.930748 0.193726 0)
(0.870757 0.177878 0)
(0.79113 0.156581 0)
(0.695411 0.131331 1.3515e-18)
(0.58948 0.10541 1.3833e-18)
(0.48005 0.0807 0)
(0.369265 0.0579964 0)
(0.266647 0.0376063 0)
(0.17965 0.0185393 0)
(0.100392 0.00267217 6.40309e-18)
(0.0300569 -0.00993319 -3.3885e-18)
(-0.0310539 -0.00937992 0)
(-0.0328158 0.00101187 -3.28398e-18)
(-0.0346973 0.0024619 1.61903e-18)
(-0.0346362 0.00136572 3.2122e-18)
(-0.0358924 -0.00129413 0)
(-0.0391015 -0.00397477 0)
(-0.0434858 -0.00523287 -3.1212e-18)
(-0.0472016 -0.0043549 0)
(-0.0495 -0.00166127 -1.54441e-18)
(-0.0511819 0.00172609 1.54395e-18)
(-0.0536873 0.0042393 0)
(-0.0558258 0.00541075 0)
(-0.0580753 0.00595649 7.67243e-19)
(-0.0600232 0.00602635 0)
(-0.0616529 0.00576172 -7.70307e-19)
(-0.0629163 0.00532811 0)
(-0.0637985 0.00489649 -1.94844e-19)
(-0.0644302 0.00470484 -9.81577e-20)
(-0.0649016 0.00483404 -2.47608e-20)
(-0.0652257 0.00522482 -2.99997e-19)
(-0.0652995 0.00580608 4.04335e-19)
(-0.0650395 0.00647327 4.0934e-19)
(-0.0643738 0.00716206 1.24522e-18)
(-0.0632157 0.00785213 -4.2136e-19)
(-0.0614744 0.00853318 4.28694e-19)
(-0.0590858 0.00918075 0)
(-0.0559986 0.00972533 8.92946e-19)
(-0.0521053 0.0100006 9.14447e-19)
(-0.0471207 0.00972085 0)
(-0.040578 0.00852735 1.93906e-18)
(-0.0325511 0.00634886 1.00211e-18)
(-0.0223619 0.00389157 0)
(-0.00975592 0.00177243 -3.26939e-18)
(0.00671477 0.000567148 -2.23611e-18)
(0.0281019 0.000851193 1.10832e-18)
(0.0543216 0.00243597 2.1701e-18)
(0.0859765 0.00442965 0)
(0.123083 0.00529473 9.80962e-19)
(0.164791 0.00323428 2.68051e-18)
(0.209816 -0.00330012 1.58418e-18)
(0.25606 -0.0147989 -1.38792e-18)
(0.303022 -0.0301068 -6.41258e-19)
(0.348959 -0.0476096 0)
(0.393351 -0.0665177 0)
(0.436182 -0.0855245 0)
(0.478309 -0.103551 1.71586e-18)
(0.520523 -0.119954 6.47252e-19)
(0.562755 -0.134251 0)
(0.604351 -0.145905 -1.56933e-18)
(0.644612 -0.154366 1.74578e-18)
(0.68305 -0.159212 -1.87928e-18)
(0.719423 -0.160243 -2.0268e-18)
(0.75372 -0.157514 1.27252e-19)
(0.78616 -0.151331 -2.42409e-18)
(0.817157 -0.14222 0)
(0.847266 -0.130871 0)
(0.877156 -0.118065 0)
(0.907429 -0.104654 0)
(0.938994 -0.0915105 0)
(0.971515 -0.0796804 3.67726e-18)
(1.00833 -0.0700035 -1.34567e-18)
(1.03857 -0.0644012 0)
(1.09581 -0.0627098 -4.23922e-19)
(0.972988 0.216082 0)
(0.965831 0.201808 1.87173e-18)
(0.959206 0.1956 2.49347e-19)
(0.961489 0.195546 1.90808e-18)
(0.972668 0.197536 0)
(0.985519 0.199235 -1.60822e-18)
(0.992497 0.199295 0)
(0.988452 0.196253 -3.62704e-19)
(0.970218 0.189033 0)
(0.935631 0.177562 -1.60657e-18)
(0.884731 0.162749 -1.24358e-18)
(0.819618 0.145667 -3.1559e-19)
(0.743324 0.126729 3.13278e-19)
(0.658088 0.106111 0)
(0.569157 0.0852834 3.13337e-19)
(0.47934 0.0662428 0)
(0.393492 0.0502676 2.65566e-18)
(0.3141 0.0363409 -3.51497e-19)
(0.247073 0.0242755 0)
(0.192398 0.014727 -1.90043e-18)
(0.147778 0.00792656 0)
(0.110716 0.00341334 0)
(0.079884 0.000826626 0)
(0.0539939 -0.000612883 0)
(0.0324797 -0.00158154 -2.21789e-19)
(0.0157055 -0.00202831 0)
(0.00281617 -0.00139372 0)
(-0.00264089 0.000673017 1.15651e-19)
(-0.00512465 0.00208914 0)
(-0.00517121 0.00307604 0)
(-0.00383843 0.00364012 0)
(-0.00157708 0.00390283 -5.87838e-20)
(0.0010169 0.00398303 0)
(0.00448204 0.00380051 -2.68056e-19)
(0.00751416 0.00430014 0)
(0.0111683 0.00517254 3.01246e-20)
(0.0155698 0.00572981 1.51399e-19)
(0.0208834 0.00568689 3.03935e-20)
(0.0272919 0.00531994 -6.09884e-20)
(0.0348687 0.00476561 -4.89266e-19)
(0.0437862 0.00400331 -4.89856e-19)
(0.0542627 0.00300141 4.89756e-19)
(0.0664925 0.00174563 -1.22175e-19)
(0.0806619 0.000215782 -9.73737e-19)
(0.0969767 -0.00163393 9.67788e-19)
(0.115424 -0.00385827 -1.2006e-19)
(0.136195 -0.00654657 0)
(0.158799 -0.00977366 -9.4162e-19)
(0.183375 -0.0134988 0)
(0.209988 -0.0175804 9.21126e-19)
(0.238661 -0.0216897 0)
(0.269626 -0.0257133 8.98259e-19)
(0.303208 -0.0296312 0)
(0.339764 -0.033661 -2.12093e-19)
(0.37951 -0.0383198 -8.05052e-19)
(0.422319 -0.0443424 -7.46332e-19)
(0.467588 -0.052477 1.7331e-19)
(0.514243 -0.0632501 0)
(0.560864 -0.0769456 5.42341e-19)
(0.606025 -0.0930162 -1.37036e-19)
(0.64886 -0.110457 0)
(0.688965 -0.127901 1.37037e-19)
(0.726217 -0.144089 -5.3468e-19)
(0.760551 -0.15817 -5.90893e-19)
(0.791796 -0.169578 0)
(0.819746 -0.177873 1.48194e-18)
(0.844338 -0.182739 0)
(0.865755 -0.184043 1.83763e-18)
(0.88442 -0.181871 2.01544e-18)
(0.900949 -0.176516 2.17973e-18)
(0.916086 -0.168445 2.71231e-19)
(0.93065 -0.158252 0)
(0.945456 -0.146616 0)
(0.961291 -0.13425 0)
(0.978762 -0.121887 -2.69824e-19)
(0.998615 -0.110249 0)
(1.02048 -0.100136 -1.67509e-18)
(1.04683 -0.0921944 1.64952e-18)
(1.06884 -0.0876432 1.03988e-19)
(1.11247 -0.0864228 4.50911e-20)
(0.974194 0.218514 -1.23294e-18)
(0.970935 0.206364 1.19333e-18)
(0.965119 0.198172 -2.82158e-19)
(0.961139 0.194112 0)
(0.962197 0.191942 0)
(0.96826 0.190544 0)
(0.977772 0.189885 0)
(0.988502 0.189481 1.25298e-18)
(0.997432 0.188308 0)
(1.00093 0.185358 -1.12021e-18)
(0.995773 0.179955 -1.39644e-18)
(0.979839 0.171905 3.20182e-19)
(0.952675 0.161434 9.67302e-19)
(0.914336 0.148646 0)
(0.865647 0.133742 -1.4763e-18)
(0.80825 0.117845 0)
(0.746068 0.102471 -1.1802e-18)
(0.683644 0.0879749 2.9519e-19)
(0.622835 0.0743866 -1.23477e-18)
(0.565747 0.0621135 -9.5085e-19)
(0.513195 0.0513546 0)
(0.465534 0.0420967 0)
(0.422938 0.0342208 -6.83482e-19)
(0.385363 0.0276195 0)
(0.352672 0.0221579 -5.42673e-19)
(0.324655 0.0176574 0)
(0.300909 0.0138507 0)
(0.281205 0.0104715 -9.56418e-20)
(0.265398 0.00755493 0)
(0.253148 0.00510642 0)
(0.244104 0.00305913 0)
(0.237988 0.0013354 5.05621e-20)
(0.234491 -0.000139796 2.0496e-19)
(0.233648 -0.00135961 1.29136e-19)
(0.235237 -0.00277104 0)
(0.239352 -0.00435435 0)
(0.245965 -0.00599114 -2.59717e-20)
(0.254913 -0.00771752 -1.30071e-19)
(0.266145 -0.00963033 5.16758e-20)
(0.279589 -0.0117943 0)
(0.295152 -0.0142476 0)
(0.312748 -0.0170185 -2.03979e-19)
(0.332294 -0.0201295 1.00449e-19)
(0.353706 -0.0236078 -4.00925e-19)
(0.376879 -0.0274911 3.96955e-19)
(0.401671 -0.0318225 9.71818e-20)
(0.42789 -0.0366182 0)
(0.455313 -0.0417683 3.85484e-19)
(0.483778 -0.0471528 0)
(0.513148 -0.0526306 0)
(0.543329 -0.0580462 0)
(0.574323 -0.0633094 0)
(0.606208 -0.06846 0)
(0.639069 -0.0737291 1.78176e-19)
(0.672891 -0.0795498 0)
(0.707459 -0.0864815 6.6922e-19)
(0.742275 -0.0950591 -1.52344e-19)
(0.776564 -0.105603 0)
(0.809385 -0.118039 5.79313e-19)
(0.839811 -0.131765 1.27556e-19)
(0.867119 -0.145867 5.66552e-19)
(0.890854 -0.159349 -1.32318e-19)
(0.910826 -0.171334 0)
(0.92707 -0.181179 -6.62951e-19)
(0.939778 -0.188463 0)
(0.949269 -0.192923 0)
(0.956015 -0.194444 -8.55082e-19)
(0.960654 -0.193068 0)
(0.963954 -0.189002 0)
(0.966748 -0.182592 -1.06544e-18)
(0.969871 -0.174288 -2.96064e-19)
(0.97411 -0.16461 0)
(0.980152 -0.154114 0)
(0.988586 -0.143368 0)
(0.999792 -0.132937 3.01481e-19)
(1.01425 -0.123368 -1.03066e-18)
(1.03141 -0.115239 -2.40141e-19)
(1.05335 -0.109021 -1.88531e-19)
(1.07191 -0.10543 -1.17774e-19)
(1.11033 -0.104585 -2.40678e-19)
(0.974501 0.21901 4.35668e-18)
(0.973757 0.208036 -4.1833e-18)
(0.971714 0.200425 0)
(0.969159 0.196211 -2.53805e-18)
(0.967053 0.192937 0)
(0.966166 0.189312 -2.23794e-18)
(0.967419 0.185818 0)
(0.971669 0.183008 2.98023e-18)
(0.978977 0.18073 -3.70039e-18)
(0.988283 0.178484 1.68963e-18)
(0.99769 0.175773 1.57964e-18)
(1.00497 0.172151 0)
(1.00811 0.167265 -4.27291e-18)
(1.00544 0.160699 -2.72156e-18)
(0.995587 0.15211 3.82537e-18)
(0.977795 0.141797 0)
(0.953045 0.130626 1.17174e-18)
(0.923753 0.119347 0)
(0.891693 0.108147 1.16823e-18)
(0.858157 0.0970058 1.16794e-18)
(0.824182 0.0861326 0)
(0.79076 0.0758056 0)
(0.75877 0.0662293 -6.39611e-19)
(0.728887 0.0575092 0)
(0.701554 0.0496282 6.21176e-19)
(0.677005 0.0425007 0)
(0.655361 0.0360317 0)
(0.636652 0.0301338 0)
(0.620908 0.0247179 0)
(0.608064 0.0197012 0)
(0.598043 0.0150067 0)
(0.590775 0.0105657 0)
(0.586184 0.00630784 1.77113e-19)
(0.584149 0.00216964 -8.59477e-20)
(0.584451 -0.00199319 4.40058e-20)
(0.587192 -0.00621768 0)
(0.592281 -0.0104932 0)
(0.599518 -0.0148295 8.62081e-20)
(0.608752 -0.0192681 -3.51884e-19)
(0.619843 -0.0238469 3.51383e-19)
(0.632639 -0.0285893 0)
(0.646976 -0.0335096 8.71224e-19)
(0.662683 -0.0386173 -6.99055e-19)
(0.679584 -0.0439205 -3.57872e-19)
(0.697492 -0.0494254 -3.39194e-19)
(0.716206 -0.0551288 0)
(0.735507 -0.0610003 0)
(0.755177 -0.0669644 -1.03603e-18)
(0.775029 -0.0729328 0)
(0.794917 -0.0788155 0)
(0.814751 -0.084534 0)
(0.834503 -0.0900652 7.04846e-19)
(0.854194 -0.0954888 1.40698e-18)
(0.873836 -0.101009 0)
(0.893375 -0.10694 0)
(0.912614 -0.113639 -6.47994e-19)
(0.931178 -0.121404 0)
(0.948526 -0.130352 1.29141e-18)
(0.964019 -0.140334 6.85665e-19)
(0.977044 -0.150921 0)
(0.987148 -0.161492 6.99344e-19)
(0.99413 -0.171367 1.33453e-18)
(0.998062 -0.179918 1.40658e-18)
(0.999252 -0.186662 7.14804e-19)
(0.998174 -0.191288 -1.61787e-18)
(0.995402 -0.193643 1.74899e-18)
(0.991592 -0.193706 2.83716e-18)
(0.987449 -0.191574 0)
(0.983694 -0.187455 0)
(0.981018 -0.181641 1.19723e-18)
(0.980037 -0.174494 0)
(0.981277 -0.166414 2.50224e-18)
(0.985152 -0.157829 2.53457e-18)
(0.991992 -0.149177 0)
(1.00196 -0.140897 2.40374e-18)
(1.01534 -0.133417 -1.04159e-18)
(1.0315 -0.127173 0)
(1.05234 -0.122506 0)
(1.07001 -0.11986 0)
(1.10691 -0.119431 -1.93093e-19)
(0.974733 0.218938 -3.35607e-18)
(0.975458 0.208201 3.21273e-18)
(0.976056 0.201058 -6.23951e-18)
(0.975936 0.197366 2.87054e-18)
(0.974875 0.19446 0)
(0.9732 0.190786 2.53104e-18)
(0.971487 0.186584 -4.8451e-18)
(0.970472 0.182339 -4.49213e-18)
(0.970994 0.17813 -7.9248e-20)
(0.973704 0.17395 0)
(0.978806 0.169868 0)
(0.985964 0.165856 3.59811e-18)
(0.994363 0.161685 3.29324e-18)
(1.00283 0.15694 -3.27897e-18)
(1.00995 0.151228 -8.90195e-18)
(1.01427 0.144451 0)
(1.01489 0.136908 0)
(1.01186 0.128902 0)
(1.00564 0.120422 0)
(0.996716 0.111451 0)
(0.985583 0.102194 0)
(0.97287 0.0929299 0)
(0.95926 0.0838687 1.24068e-18)
(0.945386 0.0751251 -2.5877e-18)
(0.93177 0.0667332 0)
(0.918819 0.0586931 0)
(0.906851 0.0509971 0)
(0.896108 0.0436162 0)
(0.886755 0.0364919 0)
(0.87889 0.0295822 -6.62588e-19)
(0.872579 0.0228606 0)
(0.86786 0.0162983 0)
(0.864738 0.00985963 1.25906e-20)
(0.863161 0.00348181 0)
(0.863034 -0.00271202 -4.10504e-20)
(0.86431 -0.00878158 0)
(0.8669 -0.0148141 1.70748e-19)
(0.870673 -0.0208399 0)
(0.87551 -0.0268716 6.72319e-19)
(0.881295 -0.0329214 -3.30467e-19)
(0.887908 -0.0389965 -6.88657e-19)
(0.895213 -0.0450968 -6.64869e-19)
(0.903076 -0.0512183 6.67556e-19)
(0.911357 -0.057355 6.70779e-19)
(0.919914 -0.0634987 1.40303e-18)
(0.928603 -0.0696338 1.41249e-18)
(0.93728 -0.0757299 0)
(0.945815 -0.0817359 -7.44992e-19)
(0.954107 -0.0875912 0)
(0.962099 -0.0932405 0)
(0.969778 -0.0986509 -1.48157e-18)
(0.977174 -0.103838 -7.23614e-19)
(0.984338 -0.108891 4.79761e-20)
(0.991304 -0.113981 0)
(0.998046 -0.119341 0)
(1.00443 -0.125218 0)
(1.01021 -0.131807 1.49103e-18)
(1.01502 -0.139173 -1.39694e-18)
(1.01846 -0.147202 -1.38689e-18)
(1.02018 -0.155591 0)
(1.01999 -0.163893 -1.42709e-18)
(1.01787 -0.171607 9.48411e-20)
(1.01405 -0.178265 -1.57673e-18)
(1.00892 -0.183512 1.75845e-18)
(1.00295 -0.187121 -4.71047e-20)
(0.996696 -0.188988 -1.98179e-18)
(0.990697 -0.189102 -2.14603e-18)
(0.985487 -0.187533 0)
(0.981561 -0.184425 0)
(0.979353 -0.179988 0)
(0.979225 -0.174483 0)
(0.981472 -0.168218 -2.83966e-18)
(0.986315 -0.161534 -2.87452e-18)
(0.993944 -0.154794 0)
(1.00443 -0.148373 -2.72395e-18)
(1.01803 -0.142631 4.90958e-18)
(1.03412 -0.137925 0)
(1.05457 -0.134493 0)
(1.07185 -0.132653 0)
(1.10773 -0.132435 9.13489e-19)
(0.975035 0.218502 8.3436e-18)
(0.977127 0.207476 0)
(0.979623 0.200809 1.42812e-17)
(0.980942 0.19772 0)
(0.980747 0.195178 6.21634e-18)
(0.979837 0.19182 0)
(0.978655 0.187904 5.47524e-18)
(0.977181 0.183662 0)
(0.975604 0.178993 -5.03868e-18)
(0.974439 0.173897 0)
(0.97427 0.168549 8.88462e-18)
(0.975577 0.163112 -4.11285e-18)
(0.978659 0.157621 0)
(0.983537 0.151978 7.3107e-18)
(0.989866 0.146033 -1.87028e-19)
(0.996991 0.139703 -6.68472e-18)
(1.00405 0.133126 6.47879e-18)
(1.01036 0.12639 0)
(1.01554 0.119355 0)
(1.01936 0.111923 6.08895e-18)
(1.02167 0.104163 0)
(1.02251 0.0962154 -2.96219e-18)
(1.02211 0.0881969 0)
(1.02073 0.0801828 2.80568e-18)
(1.01865 0.0722172 0)
(1.01612 0.0643283 2.89761e-18)
(1.01338 0.0565324 0)
(1.01062 0.0488292 0)
(1.00799 0.041209 1.4479e-18)
(1.00561 0.0336727 6.95951e-19)
(1.00357 0.0262283 0)
(1.00192 0.0188787 0)
(1.00071 0.0116241 -1.08786e-18)
(0.999972 0.00446275 0)
(0.999649 -0.00251435 0)
(0.999719 -0.00936474 0)
(1.00016 -0.0161523 -1.78027e-19)
(1.00094 -0.0228881 0)
(1.00198 -0.0295632 -1.10526e-18)
(1.00325 -0.0361723 -7.50392e-19)
(1.00467 -0.0427117 7.2446e-19)
(1.00619 -0.0491746 0)
(1.00775 -0.0555523 0)
(1.00928 -0.0618359 1.54419e-18)
(1.01073 -0.0680154 -1.49922e-18)
(1.01205 -0.074077 -1.51623e-18)
(1.01319 -0.0799991 0)
(1.01411 -0.0857504 -5.78517e-20)
(1.01481 -0.0912969 1.63618e-18)
(1.01531 -0.0966145 0)
(1.01567 -0.101703 1.62822e-18)
(1.01595 -0.106601 1.70284e-18)
(1.01625 -0.111399 -1.66847e-18)
(1.01662 -0.11624 0)
(1.01704 -0.121305 0)
(1.01745 -0.126774 0)
(1.01767 -0.132783 -1.67834e-18)
(1.01746 -0.139371 0)
(1.01658 -0.146445 0)
(1.01482 -0.15378 0)
(1.01208 -0.161044 3.65908e-18)
(1.00841 -0.167866 -1.80333e-18)
(1.00399 -0.173894 0)
(0.999137 -0.178845 -2.00558e-18)
(0.994206 -0.182519 -2.22802e-18)
(0.989581 -0.184801 4.62504e-18)
(0.985631 -0.185644 -4.90115e-18)
(0.982693 -0.185067 -5.18309e-18)
(0.981068 -0.183153 0)
(0.981015 -0.180049 -5.70556e-18)
(0.982753 -0.17596 0)
(0.986471 -0.171146 0)
(0.992333 -0.165911 0)
(1.00051 -0.160592 5.99355e-18)
(1.0111 -0.155536 -5.73894e-18)
(1.0244 -0.151077 -8.00082e-18)
(1.0399 -0.147515 0)
(1.05948 -0.145014 3.60767e-18)
(1.07602 -0.143783 0)
(1.11035 -0.143635 -1.50395e-18)
(0.975434 0.21769 -9.4642e-18)
(0.979143 0.20609 -9.21255e-18)
(0.983423 0.200245 -1.64481e-17)
(0.98558 0.197996 0)
(0.985486 0.195678 -1.41344e-17)
(0.984786 0.192413 -6.73346e-18)
(0.9842 0.188726 0)
(0.983452 0.184719 1.20008e-17)
(0.982353 0.180193 1.12028e-17)
(0.981033 0.175095 0)
(0.979702 0.169516 -1.00479e-17)
(0.978603 0.163553 0)
(0.97805 0.15727 0)
(0.978376 0.150691 8.7124e-18)
(0.979803 0.14382 8.07506e-18)
(0.982396 0.13669 -1.82317e-19)
(0.986006 0.129512 1.84342e-19)
(0.990362 0.12244 0)
(0.995174 0.115376 0)
(1.0001 0.108199 -6.97706e-18)
(1.00479 0.100887 -7.06783e-18)
(1.00904 0.0934787 1.03588e-17)
(1.01274 0.0860179 3.45259e-18)
(1.01588 0.0785354 3.42434e-18)
(1.01848 0.0710488 0)
(1.02058 0.0635678 -3.27319e-18)
(1.02225 0.0560973 0)
(1.02353 0.0486385 0)
(1.02448 0.0411923 -3.30709e-18)
(1.02513 0.0337663 0)
(1.02554 0.0263737 0)
(1.02573 0.0190282 0)
(1.02572 0.0117449 8.2059e-19)
(1.02556 0.00455346 -4.27852e-19)
(1.02529 -0.00252762 2.13772e-19)
(1.02491 -0.00950276 0)
(1.02445 -0.0163884 0)
(1.02392 -0.0231869 0)
(1.02331 -0.0298909 8.33928e-19)
(1.0226 -0.036494 8.38805e-19)
(1.02179 -0.0429919 -1.75029e-18)
(1.02088 -0.0493794 0)
(1.01987 -0.0556502 0)
(1.01874 -0.061798 -3.53303e-18)
(1.01751 -0.0678164 -1.8158e-18)
(1.01617 -0.0736969 0)
(1.01474 -0.0794273 0)
(1.01324 -0.0849912 1.82726e-18)
(1.0117 -0.0903732 5.62588e-20)
(1.01018 -0.0955677 0)
(1.00874 -0.100589 0)
(1.00747 -0.105481 -1.93686e-18)
(1.00643 -0.110325 0)
(1.00566 -0.115235 0)
(1.00517 -0.120349 0)
(1.00489 -0.125804 0)
(1.00468 -0.131697 0)
(1.00437 -0.138051 -4.16015e-18)
(1.00379 -0.144797 0)
(1.00276 -0.151761 0)
(1.00123 -0.15869 1.67061e-19)
(0.999193 -0.165287 0)
(0.996786 -0.17126 0)
(0.994201 -0.176351 0)
(0.991675 -0.180362 9.9961e-18)
(0.989457 -0.183156 -5.2395e-18)
(0.987782 -0.184657 5.54455e-18)
(0.986865 -0.184852 1.47812e-20)
(0.986904 -0.183789 0)
(0.988078 -0.181584 6.43651e-18)
(0.990561 -0.178419 -6.55475e-18)
(0.994531 -0.174539 0)
(1.00018 -0.17024 0)
(1.00772 -0.165856 -1.45575e-19)
(1.01733 -0.161728 6.48826e-18)
(1.02941 -0.158177 5.97855e-18)
(1.04356 -0.155458 0)
(1.06169 -0.153691 -4.09506e-18)
(1.07711 -0.152905 0)
(1.1096 -0.152835 1.13355e-18)
(0.975986 0.216474 0)
(0.981692 0.204215 2.1222e-17)
(0.987769 0.199647 1.88286e-17)
(0.990441 0.198411 0)
(0.990122 0.196236 8.03256e-18)
(0.989271 0.192974 -7.77302e-18)
(0.988772 0.189389 0)
(0.988281 0.185463 -1.35698e-17)
(0.987611 0.180999 0)
(0.986852 0.175995 0)
(0.98604 0.170512 0)
(0.985145 0.164577 0)
(0.984206 0.1582 0)
(0.983343 0.151386 1.82805e-19)
(0.982702 0.144141 -9.53207e-18)
(0.982426 0.13652 -1.82176e-19)
(0.98266 0.128777 1.83588e-19)
(0.9835 0.121146 0)
(0.984945 0.113609 0)
(0.986875 0.106092 0)
(0.989103 0.0985724 -2.0255e-19)
(0.991463 0.0910735 2.06472e-19)
(0.993842 0.0836203 -3.95369e-18)
(0.996166 0.0762229 -3.92252e-18)
(0.998381 0.0688783 0)
(1.00044 0.0615776 -3.98699e-18)
(1.00231 0.0543114 3.97448e-18)
(1.00396 0.0470719 0)
(1.00538 0.0398539 1.92595e-18)
(1.00654 0.0326585 1.98411e-18)
(1.00744 0.0254942 0)
(1.00807 0.0183746 0)
(1.00845 0.0113127 1.00259e-18)
(1.0086 0.00434578 -1.48534e-20)
(1.00857 -0.0025614 -4.94949e-19)
(1.00836 -0.00938094 0)
(1.00802 -0.0161063 0)
(1.00756 -0.0227435 -1.01142e-18)
(1.00699 -0.0292925 0)
(1.00632 -0.0357493 -1.02144e-18)
(1.00554 -0.04211 -5.90435e-20)
(1.00469 -0.0483706 0)
(1.00378 -0.0545267 2.08924e-18)
(1.00281 -0.0605737 4.15931e-18)
(1.00181 -0.0665069 2.07242e-18)
(1.0008 -0.0723206 0)
(0.99979 -0.078007 -4.35879e-18)
(0.998817 -0.0835566 0)
(0.997914 -0.0889622 -2.1795e-18)
(0.997128 -0.0942251 0)
(0.996511 -0.0993628 0)
(0.996121 -0.104416 0)
(0.996002 -0.109453 0)
(0.996178 -0.114567 0)
(0.996635 -0.119868 -4.77513e-18)
(0.997314 -0.12546 4.80671e-18)
(0.998107 -0.131418 0)
(0.998873 -0.137759 4.72095e-18)
(0.999461 -0.144423 -4.91348e-18)
(0.999742 -0.151269 0)
(0.999637 -0.158085 -4.91144e-18)
(0.999134 -0.164618 0)
(0.998293 -0.170605 0)
(0.997224 -0.175804 0)
(0.996068 -0.180016 -5.68912e-18)
(0.994979 -0.18309 6.0315e-18)
(0.994106 -0.184935 -6.3017e-18)
(0.993598 -0.185516 1.31628e-17)
(0.993607 -0.184868 -6.85179e-18)
(0.994302 -0.183098 0)
(0.995878 -0.180388 7.40169e-18)
(0.998564 -0.176988 -7.45329e-18)
(1.00262 -0.173205 0)
(1.00837 -0.169383 -1.16752e-19)
(1.01609 -0.165868 -7.10993e-18)
(1.02627 -0.162982 0)
(1.03862 -0.160927 0)
(1.05515 -0.159827 -4.5703e-18)
(1.06936 -0.159394 0)
(1.10047 -0.159588 -1.28579e-18)
(0.976761 0.214804 0)
(0.984936 0.20201 -1.22266e-17)
(0.992771 0.199204 -1.07075e-17)
(0.995649 0.198991 0)
(0.994983 0.196871 1.84331e-17)
(0.993957 0.193635 1.74067e-17)
(0.993389 0.19014 0)
(0.992829 0.186205 1.56708e-17)
(0.992161 0.181685 -1.48812e-17)
(0.99156 0.176662 0)
(0.991075 0.171202 0)
(0.990636 0.165313 0)
(0.990183 0.158988 0)
(0.989696 0.15221 -1.13263e-17)
(0.989165 0.144966 -1.11304e-17)
(0.988598 0.137281 1.0231e-17)
(0.988069 0.12939 -3.02855e-17)
(0.9877 0.121541 0)
(0.987572 0.113754 0)
(0.98769 0.10599 9.70523e-18)
(0.988004 0.0982519 1.89814e-17)
(0.98846 0.0905694 -9.29385e-18)
(0.989026 0.0829718 0)
(0.989683 0.0754701 0)
(0.990408 0.0680603 -4.66054e-18)
(0.991175 0.0607319 9.18163e-18)
(0.991952 0.0534735 -9.15894e-18)
(0.992712 0.0462744 0)
(0.993424 0.0391256 0)
(0.994065 0.0320236 -2.26112e-18)
(0.994614 0.0249719 0)
(0.995057 0.0179775 2.33145e-18)
(0.995388 0.0110536 -1.14252e-18)
(0.995629 0.00419685 -1.44926e-20)
(0.995787 -0.00260457 -7.26949e-21)
(0.995864 -0.00932655 0)
(0.995875 -0.0159618 0)
(0.995833 -0.0225174 -2.90301e-20)
(0.995743 -0.0289952 1.18358e-18)
(0.995611 -0.0353917 3.5401e-18)
(0.995444 -0.041703 4.73008e-18)
(0.995253 -0.0479257 2.41092e-18)
(0.995049 -0.0540566 -2.37228e-18)
(0.994842 -0.0600921 -2.39375e-18)
(0.994646 -0.0660283 2.47468e-18)
(0.994473 -0.0718607 0)
(0.99434 -0.0775834 4.94176e-18)
(0.994268 -0.0831905 -5.11288e-18)
(0.994281 -0.0886783 0)
(0.994413 -0.0940509 0)
(0.994701 -0.0993262 0)
(0.995181 -0.104541 0)
(0.99588 -0.109753 0)
(0.996808 -0.115042 0)
(0.997943 -0.120496 5.39211e-18)
(0.999226 -0.126198 -1.09788e-17)
(1.00056 -0.132208 -5.59302e-18)
(1.00183 -0.138535 5.63695e-18)
(1.00289 -0.145124 5.54031e-18)
(1.00362 -0.151849 -5.76685e-18)
(1.00392 -0.158523 5.86786e-18)
(1.00374 -0.164914 0)
(1.00308 -0.170777 6.1684e-18)
(1.00197 -0.175877 -6.3708e-18)
(1.00049 -0.180013 0)
(0.998708 -0.183029 -1.36701e-17)
(0.996745 -0.184823 7.11421e-18)
(0.994735 -0.185364 -1.48795e-17)
(0.992855 -0.184692 7.75777e-18)
(0.991334 -0.182928 0)
(0.990457 -0.180276 8.24005e-18)
(0.990563 -0.177009 8.49252e-18)
(0.992031 -0.173455 -8.46567e-18)
(0.995292 -0.169975 -8.46534e-18)
(1.00072 -0.166915 8.15289e-18)
(1.00888 -0.1646 0)
(1.01956 -0.163171 0)
(1.03489 -0.162804 5.26038e-18)
(1.0483 -0.162738 0)
(1.0793 -0.163559 1.48361e-18)
(0.977833 0.212617 1.62118e-17)
(0.988995 0.19965 0)
(0.998472 0.199058 -2.41049e-17)
(1.00125 0.199733 2.18386e-17)
(1.00018 0.19759 -2.08255e-17)
(0.99903 0.194434 1.99743e-17)
(0.998399 0.191033 0)
(0.997724 0.187058 1.60212e-19)
(0.996946 0.182455 1.68008e-17)
(0.996278 0.177367 0)
(0.995792 0.171857 0)
(0.995442 0.165931 0)
(0.995188 0.159586 2.7719e-17)
(0.995003 0.152813 0)
(0.994848 0.145595 2.47011e-17)
(0.994671 0.13794 0)
(0.994464 0.130056 4.62004e-17)
(0.994268 0.122182 0)
(0.994123 0.114345 0)
(0.994033 0.10652 -2.20907e-17)
(0.993975 0.0987124 -1.08192e-17)
(0.993935 0.0909551 0)
(0.993917 0.0832781 0)
(0.993935 0.075696 0)
(0.994001 0.0682096 5.26242e-18)
(0.994118 0.0608131 -5.2453e-18)
(0.994282 0.0534983 -1.07977e-19)
(0.994483 0.0462564 0)
(0.994711 0.039079 5.34126e-18)
(0.994952 0.0319619 0)
(0.995196 0.0249067 0)
(0.995431 0.0179169 -2.63528e-18)