/*--------------------------------*- C++ -*----------------------------------*\
| =========                 |                                                 |
| \\      /  F ield         | OpenFOAM: The Open Source CFD Toolbox           |
|  \\    /   O peration     | Version:  v1912                                 |
|   \\  /    A nd           | Website:  www.openfoam.com                      |
|    \\/     M anipulation  |                                                 |
\*---------------------------------------------------------------------------*/
FoamFile
{
    version     2.0;
    format      ascii;
    class       volScalarField;
    location    "420";
    object      epsilon;
}
// * * * * * * * * * * * * * * * * * * * * * * * * * * * * * * * * * * * * * //

dimensions      [0 2 -3 0 0 0 0];


internalField   nonuniform List<scalar> 
12441
(
0.0102963
0.00908486
0.00832699
0.00770254
0.00718358
0.00674889
0.00638219
0.00607086
0.00580492
0.00557643
0.00537905
0.00520772
0.00505003
0.00491918
0.00480031
0.00469804
0.00487278
0.0202411
0.274763
3.03551
20.9528
39.25
0.0101188
0.00891996
0.00818384
0.00757674
0.0070718
0.00664854
0.00629126
0.00598781
0.00572852
0.00550573
0.00531328
0.00514631
0.00499177
0.00486459
0.00474907
0.00465129
0.00479994
0.0199779
0.258738
3.02778
21.2434
40.2318
0.00989677
0.0087172
0.00800015
0.00740893
0.00691734
0.0065054
0.00615781
0.00586275
0.00561083
0.00539459
0.00520808
0.00504666
0.00489705
0.00477508
0.00466452
0.00457205
0.00464762
0.0181025
0.219008
2.99673
21.6227
41.3784
0.00967319
0.00851355
0.00781478
0.00723869
0.00675975
0.00635852
0.00602006
0.0057329
0.00548789
0.00527781
0.00509685
0.00494058
0.00479653
0.00467928
0.004574
0.00448672
0.00450523
0.015849
0.180263
2.97379
22.0902
42.5504
0.00942896
0.00828894
0.00760889
0.00704843
0.00658267
0.00619267
0.00586389
0.00558519
0.00534768
0.00514436
0.00496961
0.00481923
0.00468051
0.0045691
0.00446943
0.00438927
0.00435674
0.0138246
0.160425
2.98032
22.6077
43.6698
0.00922299
0.00809932
0.00743448
0.00688665
0.00643145
0.00605036
0.00572918
0.00545702
0.00522519
0.00502689
0.00485662
0.00471034
0.0045764
0.00446885
0.00437382
0.00429766
0.00428195
0.0139405
0.179884
3.08681
23.2381
44.7472
0.00900233
0.00789572
0.00724733
0.00671322
0.00626959
0.00589837
0.00558568
0.00532093
0.00509565
0.00490324
0.00473834
0.0045971
0.00446751
0.00436569
0.00427332
0.00420466
0.0060351
0.0229991
0.28552
3.38777
24.0822
45.7945
0.00882387
0.00773107
0.00709552
0.00657201
0.00613721
0.0057734
0.00546697
0.00520755
0.00498685
0.0047984
0.00463698
0.00449887
0.00437336
0.00427534
0.00419148
0.0051681
0.0343365
0.0792876
0.599066
4.02331
25.2644
46.8732
0.00862973
0.00755187
0.00693083
0.00641943
0.00599485
0.00563973
0.00534079
0.00508791
0.00487296
0.00468966
0.0045329
0.00439913
0.00427757
0.00414581
0.00539388
0.0268983
0.173994
0.295898
1.28532
5.14517
26.9172
48.0153
0.00847505
0.00740898
0.00679893
0.00629659
0.00587951
0.00553068
0.00523701
0.00498858
0.00477743
0.00459738
0.00444345
0.00431237
0.00419385
0.00427409
0.025102
0.146987
0.511547
0.779547
2.36636
6.81229
29.1364
49.2846
0.0083056
0.00725252
0.0066552
0.00616348
0.00575536
0.00541416
0.00512706
0.00488434
0.00467821
0.00450263
0.00435271
0.00422633
0.00407813
0.00948638
0.111719
0.415616
0.989367
1.46886
3.62606
8.9195
31.9484
50.6975
0.00817059
0.00712782
0.00654007
0.0060562
0.00565457
0.00531877
0.00503618
0.00479726
0.00459433
0.00442148
0.00427393
0.0041512
0.00415546
0.0478952
0.306885
0.757241
1.43708
2.15384
4.8061
11.2481
35.2983
52.295
0.00802145
0.00699016
0.00641375
0.00593935
0.0055457
0.00521668
0.00493993
0.00470607
0.00450759
0.00433866
0.0041946
0.00403805
0.0083346
0.159559
0.552515
1.05127
1.7707
2.69944
5.78942
13.582
39.0749
54.0597
0.00790056
0.00687852
0.00631067
0.0058433
0.00545546
0.00513127
0.00485856
0.0046281
0.00443249
0.00426603
0.0041241
0.00388228
0.0365033
0.322302
0.759933
1.25972
1.99883
3.09461
6.57523
15.7744
43.1399
56.0037
0.00776917
0.00675717
0.00619934
0.00574032
0.00535951
0.00504131
0.00477373
0.00454771
0.00435597
0.00419291
0.00405399
0.00426125
0.108965
0.477332
0.909412
1.40182
2.15476
3.37679
7.20315
17.7542
47.36
58.0812
0.0076601
0.0066565
0.0061064
0.00565372
0.00527815
0.0049643
0.00470037
0.00447743
0.0042883
0.00412748
0.00399056
0.0094342
0.209498
0.597937
1.01336
1.50078
2.26499
3.58367
7.71471
19.5012
51.6192
60.2902
0.00754416
0.00654943
0.00600825
0.00556298
0.00519363
0.00488505
0.00462562
0.00440654
0.00422075
0.00406283
0.00392891
0.0318122
0.30775
0.686214
1.08744
1.57256
2.34646
3.74208
8.1427
21.024
55.8306
62.571
0.00744264
0.00645585
0.00592196
0.00548269
0.00511833
0.00481392
0.004558
0.00434191
0.00415868
0.004003
0.0038737
0.0784789
0.388603
0.750989
1.14246
1.62697
2.40956
3.86944
8.51075
22.3427
59.9322
64.9213
0.00734002
0.00636095
0.00583489
0.00540212
0.00504319
0.00474336
0.00449133
0.00427856
0.0040982
0.00394499
0.00380991
0.136767
0.450993
0.800095
1.18513
1.67003
2.46079
3.97689
8.83522
23.4808
63.8889
67.2818
0.00724539
0.0062738
0.00575459
0.00532748
0.00497327
0.00467741
0.00442874
0.00421885
0.00404098
0.00388995
0.00427872
0.192437
0.498863
0.838828
1.2196
1.70554
2.50431
4.07154
9.12718
24.4612
67.6844
69.6617
0.00715516
0.0061903
0.00567796
0.00525651
0.00490698
0.00461504
0.00436966
0.00416254
0.00398702
0.00383807
0.00989333
0.240047
0.53651
0.870583
1.24853
1.73599
2.54295
4.15795
9.39396
25.3048
71.3222
72.0102
0.00706439
0.00610687
0.00560127
0.00518542
0.00484061
0.00455268
0.00431072
0.00410657
0.00393363
0.00378745
0.0279094
0.27925
0.567158
0.89753
1.27365
1.76309
2.57867
4.23889
9.64026
26.0298
74.8191
74.3523
0.00698509
0.00603327
0.00553356
0.00512251
0.00478165
0.00449698
0.00425775
0.00405586
0.00388484
0.00374237
0.0573712
0.311472
0.592989
0.921104
1.2962
1.78806
2.61289
4.31589
9.86908
26.6526
78.2074
76.6493
0.0068986
0.00595388
0.00546067
0.00505508
0.00471884
0.00443812
0.00420229
0.00400337
0.00383494
0.00370262
0.0897707
0.338309
0.615445
0.94229
1.31704
1.8118
2.64655
4.3897
10.0823
27.1873
81.5295
78.9445
0.00683032
0.00589038
0.00540215
0.00500054
0.00466751
0.00438937
0.00415564
0.00395841
0.00379139
0.00368411
0.119457
0.361165
0.635486
0.961792
1.33681
1.83494
2.6802
4.46063
10.2812
27.6468
84.8413
81.212
0.00674463
0.005812
0.0053305
0.0049346
0.00460645
0.00433254
0.00410247
0.00390846
0.00374428
0.0036452
0.145066
0.381124
0.65377
0.980127
1.356
1.85793
2.71406
4.52884
10.4667
28.0422
88.2063
83.5114
0.00668548
0.00575667
0.00527922
0.00488649
0.00456084
0.00428889
0.00406039
0.00386761
0.00370448
0.00384075
0.167125
0.398974
0.670761
0.997678
1.37492
1.88104
2.74811
4.59448
10.6396
28.3833
91.6976
85.8273
0.00660176
0.00568025
0.00520951
0.00482254
0.00450185
0.00423423
0.00400949
0.00382003
0.0036599
0.00578597
0.186522
0.415271
0.686797
1.01473
1.39382
1.9044
2.78223
4.65768
10.8006
28.6783
95.3905
88.2307
0.00655209
0.00563352
0.00516595
0.00478135
0.00446242
0.00419608
0.00397231
0.00378353
0.00362434
0.0111432
0.204
0.430407
0.702125
1.03148
1.41282
1.92803
2.81626
4.71862
10.9504
28.9342
99.3617
90.7106
0.006468
0.00555709
0.0050966
0.00471811
0.00440451
0.00414283
0.00392313
0.00373794
0.00358289
0.020837
0.220077
0.44466
0.716933
1.04808
1.43198
1.95188
2.85009
4.77748
11.0898
29.1568
103.681
93.3406
0.00642577
0.00551694
0.00505877
0.00468191
0.00436941
0.00410847
0.00388927
0.00370439
0.0035518
0.0347864
0.23509
0.458232
0.731357
1.06461
1.45131
1.97587
2.88362
4.8344
11.2193
29.3511
108.41
96.1058
0.00634331
0.00544212
0.00499104
0.00462034
0.00431325
0.00405706
0.00384201
0.00366079
0.00351588
0.0519143
0.249253
0.471273
0.745497
1.08112
1.47078
1.99991
2.9168
4.88951
11.3399
29.5214
113.594
99.0732
0.00630962
0.00540975
0.00496017
0.00459034
0.00428366
0.00402755
0.00381241
0.00363096
0.00349487
0.0708293
0.262704
0.483892
0.75942
1.09763
1.49034
2.02395
2.94957
4.94292
11.4522
29.6721
119.269
102.217
0.00622515
0.00533348
0.00489154
0.00452842
0.00422765
0.00397677
0.0037662
0.00358879
0.00347379
0.0902904
0.275538
0.49617
0.773171
1.11414
1.50993
2.0479
2.98192
4.99469
11.557
29.8072
125.454
105.592
0.00619831
0.00530719
0.00486593
0.00450293
0.00420191
0.00395054
0.0037394
0.00356137
0.00347866
0.109433
0.28782
0.508165
0.786771
1.13061
1.5295
2.07172
3.01382
5.04486
11.6549
29.9307
132.163
109.157
0.00611132
0.00522907
0.00479606
0.00444033
0.00414573
0.00390003
0.00369384
0.00352015
0.00354909
0.127689
0.299588
0.519914
0.800225
1.14704
1.54898
2.09534
3.04525
5.09343
11.7468
30.0464
139.403
112.957
0.00608777
0.00520572
0.00477297
0.00441696
0.00412174
0.00387524
0.00366824
0.00349377
0.00625544
0.144685
0.310862
0.531438
0.813527
1.16336
1.56833
2.11873
3.07618
5.1404
11.8333
30.1571
147.174
116.938
0.00599578
0.00512371
0.00470011
0.00435216
0.00406403
0.00382377
0.00362219
0.00345244
0.0267889
0.160085
0.321645
0.542747
0.826657
1.17955
1.58749
2.14184
3.10657
5.1857
11.9154
30.2647
155.46
121.137
0.00596747
0.00509625
0.00467345
0.00432564
0.00403725
0.00379652
0.00359445
0.00342478
0.0518563
0.173391
0.331927
0.553836
0.839588
1.19556
1.6064
2.16462
3.13639
5.22927
11.9938
30.3697
164.208
125.495
0.00586279
0.00500332
0.00459128
0.0042529
0.00397281
0.00373938
0.00354365
0.0033845
0.0664401
0.184461
0.341695
0.56469
0.852287
1.21132
1.625
2.18702
3.16556
5.27103
12.0692
30.4715
173.286
130.045
0.0058212
0.00496388
0.00455376
0.00421651
0.00393704
0.00370396
0.00350855
0.0033483
0.0746405
0.193556
0.350937
0.575288
0.864715
1.22679
1.64324
2.20897
3.19403
5.31091
12.1425
30.5687
182.424
134.727
0.00569957
0.00485633
0.00445868
0.0041321
0.00386189
0.00363692
0.00344859
0.00350842
0.0796403
0.201033
0.359647
0.5856
0.876834
1.24189
1.66106
2.23043
3.2217
5.34882
12.214
30.6601
191.143
139.588
0.00561727
0.00478981
0.00440421
0.00408598
0.0038214
0.00360009
0.00341393
0.00397597
0.082917
0.207209
0.367827
0.59559
0.888601
1.25656
1.67837
2.25129
3.24846
5.38471
12.2838
30.7462
198.748
144.654
0.00525483
0.0044605
0.0041122
0.00382664
0.00358941
0.0033909
0.00322364
0.00418877
0.0851699
0.212328
0.375481
0.605214
0.899979
1.2707
1.69511
2.27149
3.2742
5.41862
12.3511
30.8285
204.434
150.447
95.0235
47.2154
31.9531
25.2911
24.8663
21.1105
20.2685
18.0937
16.9249
16.2643
15.6192
14.8369
15.7086
18.0781
21.5306
24.4696
26.7879
29.3493
32.157
34.2078
35.5542
36.5799
37.1998
37.3351
37.3666
37.2094
36.8181
35.9423
34.5428
34.7903
39.9391
13.8714
4.22425
3.48724
3.10195
94.6475
47.2335
32.0197
25.5824
25.3869
21.4982
20.6492
18.3895
17.1877
16.4801
15.7236
14.9364
15.8392
18.2525
21.7524
24.6746
26.9057
29.4362
32.3342
34.5867
36.1508
37.2952
37.9426
38.036
37.9952
37.7565
37.3012
36.3823
34.937
35.1831
40.1049
14.1067
4.22521
3.4832
3.09835
93.9266
47.2545
32.1484
26.1716
26.4234
22.2741
21.3878
18.9558
17.6928
16.9014
15.9418
15.1437
16.1074
18.6246
22.2262
25.1103
27.1714
29.6251
32.6708
35.3185
37.3555
38.7766
39.5019
39.5193
39.3283
38.9111
38.3089
37.2851
35.744
35.9801
40.2141
14.31
4.2269
3.47509
3.09116
92.8104
47.2688
32.3462
27.0832
27.9604
23.436
22.4531
19.7725
18.4332
17.5262
16.3021
15.4902
16.5523
19.25
23.0376
25.9011
27.7085
30.0038
33.2399
36.4967
39.2878
41.1717
42.0462
41.9564
41.5229
40.8007
39.9365
38.7214
37.0164
37.2126
40.5171
14.5429
4.22983
3.46296
3.08039
91.3035
47.2667
32.6237
28.3354
29.9732
24.9759
23.8186
20.8313
19.4045
18.3506
16.8368
16.0145
17.2172
20.1851
24.283
27.2113
28.717
30.7441
34.188
38.2856
42.1408
44.7151
45.8441
45.6223
44.8316
43.6308
42.336
40.8006
38.8344
38.9332
41.235
14.8617
4.23482
3.44684
3.06608
89.3553
47.2397
32.9954
29.9495
32.4522
26.8962
25.4774
22.1395
20.6151
19.3817
17.577
16.7537
18.1376
21.4706
26.0417
29.2085
30.4626
32.1274
35.766
40.9464
46.21
49.7635
51.3049
50.9403
49.6468
47.7214
45.7431
43.6874
41.3161
41.2196
42.5796
15.319
4.24292
3.42677
3.04824
87.0012
47.1802
33.4815
31.9585
35.4061
29.2164
27.445
23.7211
22.0893
20.6436
18.5584
17.7461
19.3457
23.1473
28.3981
32.0649
33.2516
34.5515
38.3677
44.877
51.9367
56.8438
59.0369
58.548
56.5671
53.5636
50.5168
47.6279
44.6317
44.1808
44.782
15.9668
4.25528
3.40279
3.02692
84.2135
47.0812
34.1086
34.4031
38.8506
31.9677
29.7547
25.6141
23.8674
22.18
19.8306
19.0406
20.8854
25.2805
31.4821
36.0012
37.4347
38.52
42.5591
50.6616
59.9619
66.7116
69.9155
69.3803
66.4883
61.9013
57.1989
52.9861
49.0247
47.9657
48.1246
16.8602
4.27314
3.37495
3.00215
81.0699
46.9364
34.9106
37.3191
42.792
35.183
32.45
27.8668
26.003
24.0535
21.4655
20.7081
22.827
27.9706
35.4812
41.3203
43.4356
44.629
49.0851
59.1057
71.1613
80.3719
85.1067
84.7206
80.6882
73.8248
66.5888
60.2916
54.839
52.7733
52.9743
18.0605
4.2977
3.3433
2.97399
77.574
46.7393
35.9297
40.7171
47.2135
38.8866
35.5776
30.5342
28.5597
26.3461
23.5638
22.8492
25.2742
31.3479
40.6105
48.3692
51.7202
53.4967
58.7811
71.1566
86.5312
98.8997
105.854
106.027
100.754
90.7938
79.7976
70.2845
62.5468
58.8614
59.8107
19.6378
4.32996
3.30792
2.9425
73.8369
46.4838
37.2165
44.5635
52.0699
43.0872
39.1799
33.6721
31.6045
29.1554
26.2574
25.6046
28.373
35.5598
47.0304
57.361
62.5553
65.4475
72.1754
87.4413
106.619
122.686
132.572
134.024
127.893
114.277
98.13
83.8965
72.7568
66.5454
69.2205
21.6713
4.37056
3.26885
2.90778
69.8857
46.1629
38.8288
48.7707
57.29
47.7751
43.288
37.3307
35.1998
32.5879
29.71
29.158
32.3179
40.7359
54.6913
68.0035
75.434
79.7695
88.535
107.13
130.206
149.86
162.932
166.522
160.849
144.307
122.377
101.987
86.1326
76.165
81.7902
24.246
4.41942
3.22618
2.86992
65.8489
45.77
40.8275
53.21
62.7882
52.9255
47.9155
41.5457
39.3901
36.7429
34.1015
33.7377
37.3477
46.9288
63.1317
79.0626
88.4354
94.0163
104.989
126.89
153.244
175.292
190.66
196.539
193.166
176.641
150.947
124.48
103.075
87.9711
97.7579
27.4386
4.47541
3.17997
2.82903
61.7626
45.2956
43.2659
57.7474
68.4798
58.5075
53.0591
46.3335
44.1884
41.6877
39.5958
39.5818
43.6883
54.0165
71.3916
88.4538
98.6182
104.847
117.722
142.335
170.701
193.202
208.806
215.544
214.861
201.84
177.703
148.788
122.973
101.866
116.305
31.2859
4.5358
3.13029
2.78527
57.7502
44.7237
46.1708
62.2885
74.2947
64.4983
58.702
51.685
49.5724
47.4223
46.2718
46.8696
51.4265
61.6133
78.3072
94.3661
103.964
110.514
125.047
151.612
180.583
201.703
215.29
220.496
220.537
211.593
193.875
169.045
143.203
116.976
134.784
35.7254
4.59579
3.07721
2.73877
53.8399
44.0394
49.5194
66.8038
80.1902
70.8783
64.8161
57.5774
55.4897
53.8682
54.0466
55.5578
60.3127
69.0689
83.1607
96.5719
104.912
112.04
128.362
156.325
184.723
203.161
213.151
214.949
213.219
206.095
195.214
179.087
159.142
131.288
149.028
40.5128
4.64811
3.02083
2.68973
50.1273
43.2337
53.2254
71.3233
86.1477
77.6188
71.3693
63.9848
61.8745
60.8709
62.6198
65.2411
69.653
75.7169
86.1013
96.3807
103.577
111.813
130.194
159.14
185.996
200.847
206.431
204.066
199.296
191.797
185.109
177.388
166.582
141.97
155.508
45.147
4.68309
2.96123
2.63831
46.6135
42.3107
57.1501
75.8733
92.1714
84.6814
78.3255
70.8856
68.6752
68.2504
71.5381
75.1535
78.4828
81.2029
87.9307
95.549
102.115
111.879
132.391
161.765
186.134
196.703
197.605
191.198
183.451
174.825
169.864
167.473
164.701
146.686
153.528
48.8677
4.68958
2.89853
2.58474
43.349
41.2994
61.1393
80.4727
98.2553
92.0005
85.6349
78.258
75.8683
75.8668
80.3567
84.5212
86.1475
85.6943
89.5895
95.4154
101.904
113.392
135.749
164.663
185.531
191.288
187.606
177.781
167.852
158.417
154.005
154.056
156.037
144.94
145.046
50.8116
4.65703
2.8329
2.52922
40.3033
40.2652
65.0272
85.15
104.369
99.4744
93.2234
86.0668
83.4598
83.6762
88.8663
92.9712
92.7072
89.7721
91.8401
96.7558
103.622
116.797
140.287
167.493
183.847
184.521
176.669
164.304
153.206
143.66
139.512
140.281
144.032
138.097
132.839
50.3527
4.57848
2.76455
2.47199
37.4893
39.3158
68.7074
89.8983
110.457
106.968
100.986
94.2441
91.4599
91.7268
97.1629
100.787
98.9194
94.2651
95.2345
99.9312
107.497
122.093
145.593
169.62
180.631
176.284
164.946
150.998
139.665
130.653
126.834
127.508
131.197
128.246
119.122
47.4468
4.45313
2.69375
2.41327
34.8769
38.5274
72.1714
94.6733
116.444
114.33
108.791
102.682
99.861
100.118
105.571
108.651
105.79
100.053
100.235
105.12
113.55
129.039
151.077
170.435
175.615
166.683
152.726
138.102
127.241
119.186
115.793
116.045
118.817
117.168
105.233
42.677
4.28698
2.62085
2.35331
32.4767
37.9532
75.4329
99.403
122.245
121.413
116.497
111.24
108.622
108.931
114.438
117.338
114.284
108.04
107.355
112.466
121.69
137.265
156.168
169.56
168.837
156.048
140.407
125.866
115.926
109.006
106.057
105.775
107.357
105.967
91.8612
36.9471
4.09095
2.54624
2.29233
30.2708
37.6447
78.4935
103.997
127.774
128.091
123.965
119.761
117.637
118.198
124.011
127.382
125.075
119.07
117.278
122.248
131.866
146.413
160.46
166.892
160.578
144.842
128.396
114.498
105.692
99.8916
97.3164
96.4738
96.8836
95.18
79.3384
31.0968
3.87767
2.47031
2.23059
28.2673
37.667
81.3453
108.357
132.953
134.268
131.075
128.1
126.787
127.898
134.384
139.077
138.585
133.938
130.902
134.944
144.106
156.213
163.786
162.617
151.293
133.542
117.025
104.124
96.4875
91.6671
89.3398
87.9449
87.3125
85.0022
67.8351
25.6905
3.65871
2.39349
2.1683
26.4614
38.1055
83.9819
112.389
137.717
139.882
137.737
136.141
135.965
137.992
145.573
152.522
155.018
153.257
149.301
151.28
158.59
166.513
166.183
157.11
141.484
122.564
106.515
94.7798
88.2302
84.1927
81.9711
80.0517
78.5316
75.4721
57.4506
21.0034
3.44304
2.31618
2.10569
24.8623
39.0581
86.4042
116.024
142.026
144.91
143.898
143.81
145.091
148.426
157.621
167.834
174.641
177.561
173.547
172.069
175.481
177.159
167.797
150.855
131.638
112.216
96.9721
86.4321
80.8224
77.3586
75.1153
72.7128
70.442
66.5807
48.2387
17.1027
3.23665
2.23874
2.04298
23.4808
40.6181
88.6209
119.223
145.868
149.369
149.55
151.087
154.137
159.221
170.638
185.223
197.899
207.424
204.46
197.958
194.774
187.893
168.757
144.31
122.14
102.686
88.4149
79.0033
74.1611
71.0805
68.7207
65.8848
62.9699
58.322
40.2097
13.9384
3.04292
2.16152
1.98035
22.3333
42.8574
90.6439
121.985
149.259
153.305
154.726
158.002
163.13
170.458
184.823
205.101
225.577
243.682
242.36
228.907
215.918
198.204
169.081
137.837
113.258
94.0539
80.7973
72.3948
68.1491
65.2953
62.7625
59.5454
56.0644
50.7062
33.3286
11.4104
2.86333
2.0848
1.91801
21.4546
45.812
92.4817
124.333
152.236
156.788
159.491
164.626
172.15
182.282
200.479
228.052
258.716
287.205
286.783
263.724
237.66
207.339
168.643
131.622
105.114
86.3167
74.0376
66.5031
62.7009
59.9574
57.2304
53.6799
49.6928
43.7549
27.5201
9.40652
2.69802
2.00884
1.85611
20.8892
49.4713
94.1383
126.311
154.851
159.896
163.929
171.061
181.329
194.902
218.007
254.871
298.534
338.357
335.865
299.637
257.897
214.347
167.206
125.694
97.7284
79.4159
68.0381
61.2314
57.7451
55.0345
52.1189
48.2743
43.8338
37.4884
22.6803
7.82262
2.54635
1.93386
1.79483
20.7351
53.7675
95.6155
127.968
157.163
162.713
168.14
177.435
190.84
208.6
237.926
286.505
346.054
395.861
385.551
332.456
274.129
218.322
164.499
119.941
91.0324
73.2627
62.6998
56.4936
53.2243
50.5028
47.4209
43.3111
38.4735
31.9145
18.6893
6.5695
2.40724
1.86005
1.73429
21.1259
58.5711
96.9168
129.36
159.237
165.319
172.233
183.903
200.91
223.739
260.894
324.08
401.594
455.615
429.345
357.248
284.009
218.603
160.324
114.203
84.922
67.7592
57.9305
52.2165
49.0926
46.3434
43.125
38.7693
33.6002
27.0227
15.4237
5.57444
2.27948
1.78756
1.67462
22.2957
63.6989
98.0505
130.542
161.139
167.801
176.331
190.654
211.837
240.817
287.79
368.814
463.71
509.988
459.683
369.943
286.203
214.995
154.612
108.322
79.2778
62.8106
53.6484
48.339
45.3132
42.5386
39.2138
34.6249
29.2014
22.7826
12.7657
4.7798
2.16181
1.71652
1.61594
24.5223
68.9378
99.0311
131.564
162.936
170.249
180.584
197.937
224.037
260.543
319.837
421.917
527.913
549.256
470.787
368.772
280.636
207.735
147.449
102.214
74.0013
58.3336
49.7835
44.8105
41.8554
39.0699
35.6647
30.8524
25.2615
19.1479
10.6088
4.14066
2.05303
1.64705
1.55835
28.1637
74.0772
99.8767
132.472
164.701
172.767
185.185
206.108
238.134
284.008
358.828
483.908
585.425
565.01
461.257
354.916
268.457
197.411
139.032
95.8576
69.0152
54.2573
46.2763
41.5887
38.6926
35.9172
32.4514
27.4263
21.7607
16.0612
8.8603
3.6223
1.95208
1.57925
1.50193
33.4954
78.9398
100.607
133.311
166.515
175.49
190.41
215.711
255.128
312.981
407.334
552.857
624.156
554.02
434.312
331.544
251.374
184.739
129.624
89.2996
64.2737
50.5233
43.0766
38.638
35.8007
33.0579
29.5451
24.3219
18.6744
13.4598
7.44176
3.19807
1.85802
1.51319
1.44676
40.701
83.4034
101.239
134.119
168.477
178.604
196.68
227.641
276.72
350.405
468.454
620.493
632.867
519.193
395.767
302.458
231.209
170.452
119.509
82.6146
59.7488
47.0832
40.1423
35.9282
33.1567
30.4683
26.9162
21.5159
15.9744
11.2802
6.28838
2.84748
1.77004
1.44896
1.39291
49.6321
87.4111
101.789
134.943
170.723
182.394
204.691
243.452
305.907
401.014
543.266
669.113
607.195
467.821
351.595
270.886
209.444
155.184
108.97
75.8995
55.4293
43.8969
37.4382
33.4333
30.7391
28.1232
24.5359
18.9868
13.6291
9.46206
5.34737
2.55478
1.68745
1.38663
1.34046
59.8743
90.9673
102.272
135.836
173.452
187.323
215.654
265.975
348.011
471.085
622.648
677.029
551.916
408.331
306.513
239.183
187.229
139.484
98.2762
69.2526
51.3093
40.931
34.935
31.1312
28.5275
25.9979
22.377
16.7143
11.6057
7.94988
4.57623
2.30785
1.60967
1.32626
1.28947
70.5911
94.1228
102.704
136.876
176.983
194.203
231.788
300.497
411.733
562.592
676.864
634.48
478.537
348.029
263.644
208.841
165.358
123.793
87.6823
62.7757
47.389
38.1582
32.609
29.0034
26.5029
24.0685
20.4147
14.6797
9.8706
6.69442
3.94101
2.09729
1.53625
1.26792
1.23999
80.9187
96.9552
103.101
138.184
181.877
204.55
257.38
356.643
505.903
652.398
668.073
551.798
399.818
291.862
224.797
180.813
144.436
108.489
77.4169
56.5626
43.6695
35.557
30.442
27.0349
24.6487
22.3131
18.627
12.8651
8.39077
5.65292
3.41473
1.91579
1.46679
1.21167
1.19209
89.3733
99.5597
103.49
139.971
189.201
221.413
300.883
447.422
614.183
677.87
588.729
451.329
325.636
242.491
190.835
155.669
124.893
93.8748
67.6771
50.6981
40.1554
33.1114
28.4202
25.2144
22.9502
20.7121
16.995
11.2536
7.13472
4.78891
2.97601
1.75763
1.40097
1.15758
1.14582
95.1437
102.049
103.914
142.638
201.2
251.328
376.437
561.482
654.276
599.33
470.247
353.749
261.185
200.636
161.916
133.697
107.072
80.2197
58.6266
45.2482
36.8506
30.8097
26.5346
23.5334
21.3959
19.2492
15.503
9.82849
6.07295
4.07167
2.60789
1.61831
1.33852
1.1057
1.10123
0.00337783
0.00250526
0.00227814
0.00216676
0.00212619
0.00212976
0.00216151
0.00425396
0.0863704
0.215519
0.380819
0.612045
0.908024
1.28061
1.70682
2.28563
3.29219
5.44227
12.3987
30.8914
206.706
160.161
0.0033444
0.00224247
0.00184249
0.00160674
0.00148574
0.00144803
0.00147997
0.00428781
0.0869622
0.217246
0.383882
0.615836
0.912254
1.28563
1.71265
2.29268
3.3014
5.45512
12.4278
30.9384
207.646
170.294
0.00354046
0.00237575
0.00188209
0.00154454
0.00132286
0.00119228
0.00116158
0.00431121
0.0873506
0.218508
0.386267
0.618606
0.915037
1.28867
1.71602
2.29674
3.307
5.46383
12.4503
30.9868
207.738
179.969
0.00367081
0.00251733
0.00200372
0.00162959
0.00135788
0.00116667
0.001032
0.00432687
0.0875643
0.219337
0.38797
0.620336
0.916342
1.28972
1.71689
2.29776
3.30888
5.46821
12.4646
31.0369
207.045
189.052
0.00392258
0.00276384
0.0022262
0.00182183
0.00151392
0.00127973
0.000998432
0.0043364
0.0876201
0.21975
0.388985
0.62101
0.916147
1.28874
1.71523
2.29569
3.30695
5.46806
12.4689
31.0893
205.61
198.005
0.00406023
0.00292964
0.00239828
0.00199173
0.0016748
0.00142477
0.000987397
0.00434078
0.0875278
0.219759
0.389305
0.620621
0.914442
1.28573
1.71103
2.29051
3.30113
5.4632
12.4618
31.144
203.468
206.997
0.00434049
0.00320789
0.00265928
0.00223308
0.0018956
0.00162416
0.00105647
0.00434056
0.0872934
0.219373
0.388932
0.619166
0.911228
1.2807
1.70429
2.28219
3.29136
5.45348
12.4419
31.2008
200.656
216.027
0.0044786
0.0033792
0.00284368
0.00242311
0.00208606
0.00181089
0.00118313
0.0043358
0.0869204
0.218599
0.387871
0.616654
0.906523
1.27368
1.69504
2.27075
3.27759
5.43876
12.4079
31.2587
197.224
225.033
0.00478405
0.00368455
0.00313438
0.00269655
0.00234158
0.00204852
0.00130779
0.00432624
0.0864108
0.217444
0.386133
0.613103
0.900353
1.26469
1.68333
2.25621
3.25978
5.4189
12.3588
31.3164
193.228
233.946
0.00490872
0.00384881
0.00331931
0.00289431
0.00254648
0.00225596
0.00139813
0.00431138
0.085766
0.215915
0.383738
0.608539
0.892764
1.2538
1.66921
2.2386
3.23789
5.39378
12.2938
31.3714
188.729
242.68
0.0052294
0.00417116
0.00362982
0.00319012
0.00282669
0.00252051
0.00151208
0.00429062
0.084986
0.214024
0.380712
0.602999
0.883809
1.24106
1.65277
2.21798
3.21191
5.36328
12.2121
31.4207
183.792
251.126
0.00533933
0.00432467
0.00380969
0.00338874
0.00303821
0.00274012
0.00163158
0.0042631
0.0840701
0.21178
0.377082
0.596529
0.873555
1.22657
1.6341
2.19443
3.18183
5.32728
12.1133
31.4599
178.484
259.151
0.0056721
0.00466084
0.00413652
0.00370303
0.00333873
0.00302666
0.00183593
0.00422782
0.0830155
0.209194
0.372884
0.589183
0.862078
1.2104
1.6133
2.16806
3.14766
5.28565
11.9971
31.4837
172.873
266.605
0.0057563
0.00479288
0.00430098
0.00389262
0.00354752
0.00324964
0.00211359
0.00418321
0.0818168
0.206278
0.368151
0.58102
0.849463
1.19268
1.59051
2.13898
3.10943
5.23826
11.8632
31.4859
167.026
273.335
0.00609208
0.00513323
0.00463411
0.00421524
0.00385831
0.0035484
0.00251815
0.00412744
0.0804643
0.203038
0.362918
0.572107
0.835802
1.1735
1.56586
2.10735
3.06722
5.18497
11.7117
31.4591
161.009
279.195
0.00615222
0.00524295
0.00478001
0.00439074
0.00405777
0.003767
0.00298429
0.00405735
0.0789421
0.199481
0.357218
0.562513
0.821192
1.15298
1.53949
2.07332
3.02111
5.12563
11.5426
31.3952
154.881
284.05
0.00648673
0.005583
0.00511461
0.00471643
0.00437307
0.00407164
0.00349669
0.00396933
0.0772251
0.195604
0.35108
0.552309
0.805733
1.13125
1.51155
2.03706
2.97124
5.06008
11.3562
31.2855
148.696
287.793
0.00651841
0.00566546
0.00523638
0.00487166
0.00455655
0.00427872
0.00389298
0.0038567
0.0752755
0.191394
0.344525
0.541566
0.789531
1.10844
1.4822
1.99878
2.91777
4.98819
11.1528
31.1207
142.503
290.338
0.00683898
0.00599238
0.00555964
0.00518786
0.00486418
0.00457752
0.0042697
0.00371826
0.0730369
0.186823
0.337565
0.530351
0.772691
1.08468
1.4516
1.95867
2.8609
4.9098
10.933
30.8917
136.343
291.628
0.00685355
0.00605575
0.0056622
0.00532473
0.00503082
0.00476982
0.00452481
0.00356327
0.0704277
0.181844
0.330197
0.518724
0.755319
1.06009
1.41991
1.91694
2.80086
4.82481
10.6975
30.5893
130.249
291.631
0.00716007
0.00636934
0.00597362
0.0056305
0.00532924
0.00506046
0.00482009
0.00346101
0.0673313
0.176376
0.322397
0.506733
0.737516
1.03481
1.38727
1.87379
2.73791
4.73312
10.447
30.2054
124.249
290.335
0.00715668
0.00641252
0.00605545
0.00574701
0.00547661
0.00523504
0.00502044
0.00359229
0.0635865
0.170299
0.314112
0.494408
0.719382
1.00896
1.35386
1.82943
2.67234
4.63472
10.1825
29.7326
118.364
287.743
0.00744654
0.0067096
0.00635129
0.00603817
0.00576133
0.00551283
0.00528978
0.00405099
0.0589798
0.163436
0.305245
0.481749
0.701
0.982681
1.31981
1.78407
2.60445
4.52961
9.90485
29.1652
112.608
283.872
0.00743061
0.00673703
0.00641564
0.00613635
0.00589017
0.00566921
0.00546874
0.00464212
0.0532494
0.155535
0.295646
0.468721
0.682439
0.956086
1.28527
1.73792
2.53456
4.4179
9.61527
28.4996
106.991
278.747
0.00770414
0.00701773
0.00669573
0.00641242
0.0061604
0.00593297
0.00572506
0.00523502
0.046139
0.146249
0.285083
0.45523
0.663736
0.929297
1.25038
1.69117
2.46301
4.29976
9.31483
27.7344
101.518
272.401
0.00767677
0.00703042
0.00674334
0.00649263
0.00627066
0.00607067
0.0058868
0.00561536
0.0375605
0.135124
0.273218
0.441104
0.644883
0.902417
1.21528
1.644
2.39016
4.17549
9.00464
26.8708
96.1879
264.876
0.00793327
0.00729372
0.0070063
0.00675196
0.00652454
0.0063184
0.00612839
0.00592303
0.0279365
0.121629
0.259576
0.42606
0.625803
0.875523
1.1801
1.59661
2.31636
4.04548
8.68581
25.913
90.9992
256.224
0.00789955
0.00729639
0.0070413
0.0068176
0.00661883
0.00643918
0.0062732
0.00610977
0.0185265
0.10528
0.2435
0.409667
0.606316
0.848648
1.14495
1.54917
2.242
3.91026
8.3594
24.8678
85.9447
246.508
0.00814116
0.00754428
0.00728893
0.00706178
0.00685773
0.00667203
0.00650017
0.00633641
0.0113176
0.0859711
0.22414
0.391294
0.5861
0.821748
1.10992
1.50185
2.16745
3.77047
8.02644
23.745
81.0157
235.805
0.00810337
0.00753939
0.00731377
0.0071152
0.00693822
0.00677784
0.00662928
0.00648751
0.00756245
0.0645576
0.200506
0.370045
0.564636
0.794654
1.07505
1.4548
2.09312
3.62696
7.68793
22.5567
76.2002
224.214
0.00833021
0.00777194
0.00754604
0.00734417
0.00716208
0.00699577
0.00684139
0.00669522
0.00655891
0.04334
0.171728
0.344694
0.541136
0.76702
1.04029
1.40813
2.01942
3.48069
7.34492
21.3171
71.4857
211.846
0.00829266
0.00776379
0.00756482
0.00738915
0.00723215
0.00708954
0.00695716
0.00683105
0.00659188
0.0256187
0.13771
0.313675
0.514454
0.73824
1.00545
1.3619
1.94673
3.33284
6.99856
20.0416
66.8578
198.838
0.00850599
0.0079823
0.00778303
0.00760421
0.0074423
0.00729391
0.00715577
0.00702491
0.00684347
0.0141276
0.10027
0.275283
0.482969
0.707362
0.97012
1.31606
1.87542
3.18474
6.65023
18.7466
62.3042
185.342
0.00847102
0.00797346
0.00779842
0.00764344
0.00750457
0.00737814
0.00726053
0.00714839
0.00702099
0.00877978
0.0640376
0.228389
0.444494
0.672971
0.933584
1.27038
1.80575
3.03783
6.30164
17.4487
57.8151
171.524
0.00867164
0.00817876
0.00800341
0.00784544
0.0077019
0.0075699
0.00744668
0.00732969
0.00721077
0.00715082
0.0352893
0.174047
0.396371
0.633034
0.894693
1.22439
1.73785
2.89365
5.95493
16.1642
53.3876
157.563
0.00864159
0.00817178
0.00801804
0.00788154
0.00775893
0.00764703
0.00754274
0.00744308
0.00734318
0.00696292
0.0178983
0.117498
0.33619
0.584741
0.851723
1.17725
1.67158
2.75362
5.61274
14.9086
49.0265
143.639
0.00883159
0.00836598
0.00821185
0.00807248
0.00794539
0.00782813
0.00771831
0.00761376
0.00751128
0.00720582
0.010333
0.0681741
0.263828
0.524556
0.802185
1.12763
1.60645
2.61896
5.2781
13.6962
44.7487
129.931
0.00880915
0.00836382
0.00822882
0.00810864
0.00800038
0.00790133
0.00780874
0.00772003