/*--------------------------------*- C++ -*----------------------------------*\
| =========                 |                                                 |
| \\      /  F ield         | OpenFOAM: The Open Source CFD Toolbox           |
|  \\    /   O peration     | Version:  v1912                                 |
|   \\  /    A nd           | Website:  www.openfoam.com                      |
|    \\/     M anipulation  |                                                 |
\*---------------------------------------------------------------------------*/
FoamFile
{
    version     2.0;
    format      ascii;
    class       volScalarField;
    location    "420";
    object      p;
}
// * * * * * * * * * * * * * * * * * * * * * * * * * * * * * * * * * * * * * //

dimensions      [0 2 -2 0 0 0 0];


internalField   nonuniform List<scalar> 
12441
(
8.92311
9.22378
10.0816
11.4158
13.1435
15.3116
18.0132
21.3478
25.5092
30.6533
36.9932
44.8262
54.5829
66.2533
81.9898
101.452
129.672
165.004
222.339
284.981
375.896
438.319
8.9231
9.22377
10.0816
11.4158
13.1434
15.3115
18.0131
21.3477
25.5091
30.6531
36.9928
44.8256
54.5819
66.2516
81.9868
101.445
129.656
164.979
222.258
284.906
375.849
438.126
8.92308
9.22375
10.0816
11.4157
13.1434
15.3115
18.013
21.3475
25.5088
30.6526
36.9921
44.8243
54.58
66.2482
81.9808
101.431
129.631
164.922
222.09
284.725
375.719
437.776
8.92306
9.22373
10.0816
11.4157
13.1433
15.3113
18.0128
21.3472
25.5083
30.6519
36.991
44.8225
54.5771
66.243
81.9718
101.41
129.597
164.836
221.912
284.449
375.482
437.232
8.92303
9.22369
10.0815
11.4156
13.1432
15.3112
18.0126
21.3468
25.5077
30.651
36.9895
44.8201
54.5733
66.2361
81.9599
101.382
129.553
164.727
221.747
284.102
375.149
436.489
8.92299
9.22365
10.0814
11.4155
13.1431
15.311
18.0123
21.3463
25.507
30.6498
36.9877
44.8171
54.5685
66.2275
81.945
101.348
129.499
164.6
221.561
283.683
374.724
435.549
8.92294
9.22359
10.0814
11.4154
13.1429
15.3107
18.0119
21.3457
25.5061
30.6484
36.9854
44.8135
54.5627
66.2171
81.9272
101.308
129.435
164.45
221.344
283.194
374.211
434.411
8.92289
9.22353
10.0813
11.4153
13.1427
15.3105
18.0115
21.345
25.5051
30.6467
36.9829
44.8093
54.5559
66.2051
81.9065
101.262
129.365
164.279
221.106
282.648
373.616
433.071
8.92282
9.22346
10.0812
11.4151
13.1425
15.3101
18.011
21.3442
25.5039
30.6448
36.9799
44.8045
54.5482
66.1914
81.8833
101.211
129.294
164.097
220.87
282.055
372.943
431.527
8.92275
9.22338
10.0811
11.415
13.1423
15.3098
18.0105
21.3433
25.5025
30.6427
36.9766
44.7991
54.5396
66.1762
81.8588
101.16
129.227
163.912
220.659
281.428
372.19
429.773
8.92268
9.22329
10.081
11.4148
13.142
15.3094
18.0099
21.3423
25.5011
30.6403
36.9729
44.793
54.53
66.1597
81.8346
101.115
129.182
163.747
220.506
280.776
371.357
427.8
8.92259
9.22319
10.0809
11.4146
13.1417
15.309
18.0092
21.3412
25.4994
30.6377
36.9688
44.7864
54.5195
66.1429
81.8144
101.088
129.193
163.639
220.442
280.102
370.437
425.6
8.92249
9.22308
10.0807
11.4144
13.1414
15.3085
18.0085
21.34
25.4976
30.6349
36.9644
44.7792
54.5083
66.1283
81.8085
101.103
129.309
163.636
220.475
279.4
369.421
423.162
8.92239
9.22297
10.0806
11.4142
13.1411
15.308
18.0077
21.3387
25.4957
30.6318
36.9596
44.7714
54.4972
66.1211
81.8341
101.192
129.578
163.78
220.576
278.65
368.3
420.472
8.92228
9.22284
10.0804
11.4139
13.1407
15.3074
18.0069
21.3373
25.4936
30.6285
36.9544
44.7631
54.4879
66.1306
81.9109
101.38
130.022
164.074
220.682
277.827
367.063
417.518
8.92216
9.22271
10.0802
11.4137
13.1403
15.3068
18.006
21.3358
25.4914
30.6249
36.9488
44.7544
54.4834
66.1688
82.0546
101.675
130.62
164.463
220.716
276.905
365.704
414.285
8.92204
9.22256
10.08
11.4134
13.1399
15.3062
18.005
21.3343
25.489
30.6211
36.9428
44.746
54.4899
66.2454
82.2688
102.065
131.297
164.843
220.619
275.865
364.213
410.758
8.9219
9.22241
10.0798
11.4131
13.1394
15.3055
18.004
21.3326
25.4865
30.6171
36.9364
44.7391
54.5143
66.3648
82.5436
102.512
131.938
165.101
220.361
274.695
362.586
406.924
8.92176
9.22225
10.0796
11.4128
13.139
15.3048
18.003
21.3308
25.4838
30.6128
36.9296
44.736
54.5629
66.5221
82.8562
102.961
132.424
165.162
219.945
273.394
360.817
402.767
8.92161
9.22208
10.0794
11.4124
13.1385
15.304
18.0018
21.3289
25.481
30.6082
36.9224
44.7403
54.637
66.7069
83.1745
103.346
132.664
165.012
219.395
271.964
358.906
398.271
8.92145
9.2219
10.0792
11.4121
13.1379
15.3033
18.0006
21.3269
25.478
30.6034
36.9152
44.7564
54.7338
66.903
83.4627
103.612
132.626
164.69
218.742
270.412
356.852
393.42
8.92129
9.22171
10.0789
11.4117
13.1374
15.3024
17.9994
21.3248
25.4749
30.5984
36.9085
44.7874
54.8448
67.0948
83.6887
103.729
132.346
164.262
218.014
268.747
354.653
388.197
8.92112
9.22152
10.0787
11.4113
13.1368
15.3016
17.998
21.3226
25.4717
30.593
36.9033
44.8336
54.962
67.265
83.8307
103.692
131.903
163.785
217.229
266.977
352.313
382.586
8.92093
9.22131
10.0784
11.4109
13.1362
15.3006
17.9967
21.3203
25.4682
30.5874
36.9013
44.8923
55.0754
67.4027
83.882
103.529
131.387
163.292
216.399
265.112
349.833
376.566
8.92075
9.2211
10.0781
11.4105
13.1356
15.2997
17.9952
21.3179
25.4646
30.5815
36.9047
44.9588
55.1791
67.4979
83.8506
103.279
130.869
162.794
215.527
263.161
347.215
370.12
8.92055
9.22087
10.0778
11.4101
13.1349
15.2987
17.9937
21.3155
25.4609
30.5753
36.9151
45.028
55.2662
67.5504
83.7545
102.985
130.385
162.291
214.615
261.133
344.462
363.224
8.92034
9.22064
10.0775
11.4096
13.1342
15.2977
17.9922
21.3129
25.457
30.569
36.9333
45.0954
55.335
67.5611
83.6157
102.681
129.947
161.774
213.663
259.039
341.578
355.858
8.92013
9.2204
10.0772
11.4091
13.1335
15.2966
17.9905
21.3102
25.4529
30.5628
36.9586
45.1574
55.382
67.5386
83.4542
102.388
129.547
161.24
212.67
256.885
338.562
347.997
8.91991
9.22015
10.0769
11.4086
13.1328
15.2955
17.9889
21.3074
25.4486
30.5568
36.9892
45.2116
55.4097
67.4893
83.285
102.113
129.173
160.683
211.635
254.681
335.416
339.613
8.91968
9.21989
10.0765
11.4081
13.132
15.2943
17.9871
21.3045
25.4442
30.5512
37.0228
45.2564
55.4174
67.4232
83.1178
101.857
128.813
160.103
210.558
252.428
332.136
330.68
8.91945
9.21962
10.0762
11.4076
13.1312
15.2932
17.9853
21.3015
25.4396
30.5462
37.0573
45.291
55.41
67.3452
82.9568
101.617
128.46
159.501
209.438
250.131
328.719
321.166
8.9192
9.21935
10.0758
11.4071
13.1304
15.2919
17.9835
21.2984
25.4348
30.5422
37.0913
45.3152
55.388
67.2623
82.8036
101.389
128.107
158.878
208.277
247.789
325.159
311.039
8.91895
9.21906
10.0755
11.4065
13.1296
15.2907
17.9816
21.2952
25.4299
30.5398
37.1236
45.3296
55.3567
67.176
82.6575
101.169
127.751
158.235
207.074
245.401
321.444
300.263
8.91869
9.21877
10.0751
11.4059
13.1287
15.2894
17.9796
21.2919
25.4248
30.5393
37.1531
45.3348
55.3166
67.0904
82.5174
100.952
127.39
157.573
205.829
242.968
317.566
288.801
8.91842
9.21846
10.0747
11.4053
13.1278
15.288
17.9776
21.2885
25.4195
30.5414
37.1794
45.3321
55.272
67.0044
82.3817
100.738
127.024
156.895
204.543
240.489
313.512
276.614
8.91815
9.21815
10.0743
11.4047
13.1269
15.2866
17.9755
21.2849
25.4141
30.5466
37.2023
45.3225
55.2226
66.9209
82.2491
100.523
126.651
156.201
203.218
237.965
309.27
263.659
8.91787
9.21783
10.0738
11.4041
13.126
15.2852
17.9733
21.2813
25.4086
30.5561
37.2219
45.3073
55.1719
66.8378
82.1185
100.308
126.272
155.492
201.852
235.399
304.829
249.894
8.91758
9.2175
10.0734
11.4034
13.125
15.2837
17.9711
21.2776
25.4034
30.5719
37.2388
45.2877
55.1189
66.7572
81.989
100.091
125.887
154.769
200.449
232.795
300.179
235.271
8.91728
9.21716
10.073
11.4028
13.124
15.2822
17.9688
21.2737
25.3998
30.5952
37.2532
45.2648
55.0662
66.6771
81.8599
99.8712
125.497
154.034
199.009
230.159
295.311
219.741
8.91697
9.21681
10.0725
11.4021
13.123
15.2807
17.9665
21.2697
25.4018
30.6264
37.2656
45.2395
55.0122
66.5996
81.7311
99.6503
125.102
153.288
197.537
227.497
290.221
203.253
8.91666
9.21646
10.072
11.4014
13.1219
15.2791
17.9641
21.2657
25.4151
30.6657
37.2761
45.2127
54.9594
66.5227
81.6024
99.4273
124.703
152.53
196.034
224.812
284.906
185.751
8.91633
9.21609
10.0716
11.4007
13.1209
15.2775
17.9616
21.2617
25.4455
30.7125
37.2845
45.185
54.9055
66.4488
81.4737
99.2032
124.301
151.761
194.506
222.108
279.365
167.188
8.916
9.21572
10.0711
11.3999
13.1198
15.2758
17.9591
21.2589
25.4966
30.7653
37.2906
45.1573
54.8525
66.3757
81.3451
98.9778
123.895
150.979
192.958
219.38
273.573
147.477
8.91567
9.21533
10.0706
11.3992
13.1186
15.2741
17.9564
21.2617
25.5675
30.8219
37.2941
45.1299
54.7981
66.3061
81.2172
98.7527
123.487
150.183
191.396
216.618
267.449
125.874
-19.9002
-21.7442
-21.9218
-21.4097
-18.2058
-16.4828
-14.4868
-13.4611
-12.7637
-12.9226
-12.7148
-11.2826
-7.07711
-1.17664
4.02233
5.88821
5.12165
4.92399
7.55609
11.1759
12.8623
12.3443
11.305
9.54238
7.93598
6.57152
5.23427
4.4561
3.06823
1.12136
-1.21302
-1.82668
-1.27093
4.38141
1.06822
-19.8999
-21.7246
-21.9468
-21.4124
-18.2058
-16.4813
-14.4874
-13.4612
-12.7633
-12.921
-12.713
-11.2803
-7.0752
-1.17475
4.02635
5.8961
5.13235
4.93366
7.56153
11.1791
12.8654
12.3473
11.3077
9.5448
7.93801
6.5732
5.23581
4.45739
3.06844
1.12411
-1.21252
-1.825
-1.29853
4.37987
1.06873
-19.8987
-21.7056
-21.9853
-21.4174
-18.2064
-16.4796
-14.4879
-13.4608
-12.7623
-12.9193
-12.7117
-11.2788
-7.07242
-1.17037
4.03511
5.91197
5.15559
4.95983
7.58146
11.1902
12.8724
12.3531
11.3127
9.54906
7.94157
6.57618
5.2385
4.45973
3.06945
1.12775
-1.21231
-1.82309
-1.32569
4.37851
1.06929
-19.8969
-21.6936
-22.036
-21.4244
-18.208
-16.4779
-14.488
-13.4601
-12.7611
-12.9175
-12.7109
-11.2776
-7.06892
-1.16501
4.04521
5.93066
5.1855
4.99825
7.61515
11.2097
12.8836
12.362
11.3203
9.55555
7.94701
6.58071
5.24249
4.4633
3.07137
1.13129
-1.21054
-1.81424
-1.34879
4.37708
1.06986
-19.8944
-21.6934
-22.0958
-21.4332
-18.2099
-16.4759
-14.4873
-13.4591
-12.7597
-12.9157
-12.7109
-11.2774
-7.066
-1.16042
4.05345
5.94603
5.2116
5.03519
7.65167
11.2328
12.8977
12.3734
11.3301
9.564
7.95415
6.58667
5.2477
4.46798
3.07416
1.13493
-1.20568
-1.79919
-1.36663
4.37572
1.07044
-19.8915
-21.7095
-22.1618
-21.4427
-18.2109
-16.4728
-14.4854
-13.4577
-12.7582
-12.9145
-12.7119
-11.2783
-7.06394
-1.15655
4.05977
5.95703
5.23058
5.06421
7.68394
11.256
12.9133
12.3864
11.3415
9.57391
7.96267
6.59384
5.25395
4.47361
3.0777
1.13881
-1.19706
-1.77782
-1.37926
4.37446
1.07104
-19.8879
-21.746
-22.2311
-21.4523
-18.2105
-16.4684
-14.4821
-13.456
-12.7568
-12.914
-12.714
-11.2802
-7.06234
-1.15227
4.0658
5.96541
5.2438
5.08516
7.70979
11.2772
12.9292
12.4
11.3535
9.58465
7.97211
6.60192
5.26101
4.47998
3.08186
1.14292
-1.18466
-1.74957
-1.3869
4.37332
1.07165
-19.8839
-21.8058
-22.3009
-21.4617
-18.2088
-16.4631
-14.4776
-13.4541
-12.7554
-12.9144
-12.7171
-11.2826
-7.06067
-1.14672
4.07286
5.97291
5.25352
5.10013
7.72976
11.2957
12.9443
12.4131
11.3653
9.59545
7.98188
6.6105
5.26861
4.48688
3.08646
1.14719
-1.16878
-1.71454
-1.3896
4.37227
1.0723
-19.8795
-21.8906
-22.3688
-21.4709
-18.2064
-16.4574
-14.4723
-13.4521
-12.7543
-12.9159
-12.7213
-11.2856
-7.05886
-1.13984
4.08132
5.98041
5.2613
5.11119
7.74505
11.3112
12.9577
12.4248
11.376
9.60546
7.99128
6.61907
5.27641
4.49403
3.09135
1.15156
-1.14998
-1.67368
-1.38739
4.37134
1.07297
-19.8749
-22.0003
-22.4326
-21.4801
-18.2037
-16.4518
-14.4666
-13.4502
-12.7533
-12.9184
-12.7264
-11.2891
-7.05701
-1.13229
4.09059
5.98786
5.26778
5.11959
7.75664
11.3234
12.9685
12.434
11.3845
9.61385
7.99958
6.62704
5.28399
4.50114
3.09629
1.15594
-1.12905
-1.62865
-1.3801
4.37051
1.07368
-19.8702
-22.1336
-22.4908
-21.4893
-18.2009
-16.4469
-14.4611
-13.4483
-12.7527
-12.9218
-12.7322
-11.293
-7.05544
-1.12492
4.09975
5.99479
5.27304
5.12581
7.76495
11.3321
12.9759
12.4402
11.3902
9.61993
8.00611
6.63383
5.2909
4.50788
3.10106
1.16027
-1.10693
-1.58149
-1.36756
4.36979
1.07441
-19.8656
-22.2871
-22.5422
-21.4987
-18.1985
-16.4429
-14.4562
-13.4468
-12.7524
-12.926
-12.7387
-11.2973
-7.05434
-1.11846
4.10779
6.00057
5.27694
5.13
7.77013
11.337
12.9795
12.4427
11.3929
9.62333
8.01043
6.63896
5.29671
4.51389
3.10541
1.16445
-1.08461
-1.53441
-1.34937
4.36916
1.07518
-19.8616
-22.4557
-22.5865
-21.5083
-18.1964
-16.4401
-14.4521
-13.4457
-12.7525
-12.931
-12.7456
-11.302
-7.05386
-1.11336
4.11408
6.00477
5.27939
5.1323
7.77242
11.3382
12.9795
12.4419
11.3924
9.62403
8.01241
6.64216
5.3011
4.51886
3.10906
1.16841
-1.06289
-1.48955
-1.32512
4.36868
1.07599
-19.858
-22.6328
-22.6235
-21.5179
-18.1951
-16.4389
-14.4493
-13.4451
-12.7532
-12.9365
-12.753
-11.307
-7.05399
-1.10976
4.11827
6.00715
5.28043
5.13301
7.77239
11.3364
12.9762
12.4381
11.3893
9.62241
8.01224
6.64345
5.30392
4.52256
3.11178
1.17211
-1.04228
-1.44884
-1.29425
4.36832
1.07684
-19.855
-22.8103
-22.6538
-21.5274
-18.1947
-16.4393
-14.448
-13.4453
-12.7544
-12.9428
-12.7608
-11.3124
-7.05469
-1.10754
4.1205
6.00781
5.28023
5.13252
7.77067
11.3323
12.9703
12.432
11.3842
9.619
8.01038
6.64311
5.30524
4.52492
3.11339
1.17551
-1.02284
-1.41388
-1.25637
4.36816
1.07772
-19.8527
-22.9797
-22.6781
-21.5362
-18.1953
-16.4416
-14.4482
-13.4464
-12.7563
-12.9498
-12.769
-11.3181
-7.05581
-1.10643
4.12109
6.00697
5.279
5.13124
7.76796
11.3266
12.9626
12.4241
11.3775
9.61438
8.00737
6.64157
5.30533
4.52604
3.11383
1.17865
-1.00428
-1.38577
-1.21126
4.36819
1.07864
-19.8514
-23.1331
-22.6975
-21.5439
-18.1972
-16.4461
-14.4503
-13.4486
-12.7591
-12.9577
-12.7779
-11.3241
-7.05733
-1.10607
4.1206
6.00504
5.27697
5.1295
7.76473
11.3198
12.9533
12.4148
11.3698
9.60893
8.00364
6.63927
5.30456
4.52615
3.1132
1.18158
-0.986103
-1.36495
-1.15945
4.3685
1.0796
-19.8514
-23.2652
-22.7129
-21.5499
-18.2008
-16.453
-14.4545
-13.452
-12.763
-12.9667
-12.7876
-11.3307
-7.05921
-1.10618
4.11943
6.00232
5.27435
5.12762
7.76136
11.3122
12.9427
12.4042
11.361
9.60287
7.99949
6.63653
5.30325
4.52556
3.11167
1.18435
-0.96782
-1.35102
-1.1021
4.36909
1.08059
-19.8528
-23.3736
-22.7255
-21.554
-18.2061
-16.4623
-14.4609
-13.457
-12.7681
-12.977
-12.7985
-11.3381
-7.06159
-1.10659
4.11798
5.99914
5.27134
5.1258
7.758
11.3038
12.9308
12.3923
11.3513
9.59628
7.99504
6.63356
5.30165
4.52453
3.10948
1.18705
-0.94912
-1.34293
-1.0412
4.37002
1.08161
-19.8555
-23.4593
-22.7367
-21.5567
-18.213
-16.4745
-14.47
-13.4638
-12.7749
-12.989
-12.8112
-11.3469
-7.06466
-1.10732
4.11628
5.99553
5.26801
5.12417
7.75472
11.2945
12.9174
12.3792
11.3406
9.58916
7.99033
6.63042
5.2999
4.52325
3.1068
1.18972
-0.929894
-1.33936
-0.978946
4.37126
1.08266
-19.8593
-23.5275
-22.7461
-21.559
-18.2212
-16.4897
-14.4822
-13.4731
-12.7836
-13.0031
-12.8266
-11.3579
-7.06896
-1.10856
4.11429
5.99147
5.26437
5.12277
7.75144
11.2844
12.9024
12.3646
11.3289
9.5815
7.98535
6.62714
5.29806
4.52185
3.10378
1.19245
-0.910161
-1.33906
-0.917465
4.37284
1.08374
-19.8637
-23.5845
-22.7529
-21.5621
-18.2305
-16.5083
-14.4981
-13.4853
-12.7949
-13.0199
-12.8456
-11.372
-7.07516
-1.11075
4.11165
5.98665
5.26029
5.12156
7.74811
11.2731
12.8859
12.3487
11.3163
9.57331
7.98008
6.6237
5.29615
4.52038
3.10052
1.19526
-0.890004
-1.34107
-0.858125
4.37467
1.08484
-19.8682
-23.6351
-22.7569
-21.5672
-18.2405
-16.5305
-14.5182
-13.5012
-12.8093
-13.0402
-12.8697
-11.3909
-7.08446
-1.11452
4.10802
5.98084
5.25564
5.12041
7.74457
11.2608
12.8677
12.3314
11.3027
9.56461
7.97452
6.6201
5.29419
4.51888
3.09709
1.1982
-0.869514
-1.34466
-0.80164
4.37679
1.08596
-19.872
-23.6831
-22.7579
-21.5759
-18.2511
-16.5568
-14.5433
-13.5214
-12.8273
-13.0645
-12.8998
-11.4157
-7.0981
-1.12087
4.10278
5.97362
5.25024
5.11919
7.74068
11.2473
12.8479
12.3128
11.2882
9.55544
7.96869
6.61634
5.29216
4.51734
3.09351
1.20129
-0.848803
-1.34929
-0.747848
4.3791
1.0871
-19.8745
-23.7319
-22.7547
-21.5889
-18.2626
-16.5879
-14.5742
-13.5464
-12.8497
-13.0937
-12.937
-11.448
-7.11739
-1.13091
4.09538
5.96474
5.24391
5.11769
7.73624
11.2325
12.8265
12.2929
11.273
9.54584
7.96259
6.61242
5.29006
4.51577
3.08981
1.20454
-0.827991
-1.35452
-0.696273
4.38165
1.08825
-19.8755
-23.7848
-22.746
-21.6071
-18.2749
-16.6244
-14.6116
-13.5769
-12.8767
-13.1281
-12.9815
-11.4881
-7.14275
-1.14559
4.08491
5.95372
5.23648
5.11576
7.73105
11.2164
12.8036
12.272
11.257
9.53585
7.95627
6.60835
5.28788
4.51415
3.08599
1.20793
-0.807236
-1.36
-0.646032
4.38437
1.0894
-19.8747
-23.8448
-22.7301
-21.6301
-18.2884
-16.6667
-14.6559
-13.6124
-12.9082
-13.1674
-13.0326
-11.5356
-7.17361
-1.16497
4.0708
5.94021
5.22775
5.11316
7.72486
11.1989
12.7792
12.25
11.2404
9.52551
7.94974
6.60416
5.28564
4.51246
3.08208
1.21143
-0.786703
-1.36543
-0.59639
4.38731
1.09056
-19.8722
-23.9148
-22.7068
-21.657
-18.3033
-16.7148
-14.7066
-13.6521
-12.9432
-13.2107
-13.0884
-11.5882
-7.20769
-1.18782
4.05268
5.92362
5.21746
5.10973
7.71746
11.1798
12.7534
12.227
11.2232
9.51489
7.94304
6.59986
5.28331
4.5107
3.07807
1.21503
-0.766598
-1.37061
-0.546475
4.39045
1.09172
-19.8682
-23.9976
-22.6769
-21.6861
-18.3198
-16.7679
-14.7618
-13.6933
-12.9797
-13.2561
-13.1463
-11.6433
-7.2419
-1.21146
4.03132
5.90378
5.20535
5.10523
7.70856
11.1589
12.7263
12.2033
11.2054
9.50402
7.9362
6.59547
5.28091
4.50886
3.07397
1.21867
-0.747133
-1.37532
-0.495742
4.39385
1.09288
-19.8627
-24.096
-22.643
-21.7149
-18.338
-16.8237
-14.8178
-13.7321
-13.0145
-13.3004
-13.2025
-11.6963
-7.27235
-1.23293
4.008
5.88065
5.19119
5.09951
7.69806
11.1362
12.6979
12.1787
11.1873
9.49295
7.92925
6.59101
5.27843
4.50692
3.06979
1.22232
-0.72857
-1.37946
-0.443534
4.39748
1.09403
-19.8559
-24.2138
-22.6088
-21.7405
-18.3582
-16.8789
-14.8692
-13.7634
-13.0435
-13.3403
-13.2532
-11.7435
-7.2959
-1.24984
3.98452
5.85491
5.175
5.09245
7.6858
11.1114
12.6681
12.1535
11.1688
9.48171
7.92221
6.58648
5.27586
4.50488
3.06555
1.22593
-0.711175
-1.38287
-0.389541
4.40144
1.09517
-19.8477
-24.3564
-22.5781
-21.7602
-18.3806
-16.9293
-14.9099
-13.7816
-13.0622
-13.372
-13.2946
-11.7804
-7.31018
-1.26144
3.96171
5.82717
5.157
5.0842
7.6719
11.0844
12.6369
12.1277
11.15
9.47036
7.91512
6.58191
5.2732
4.50274
3.06124
1.22945
-0.695286
-1.38551
-0.333286
4.40567
1.09631
-19.838
-24.5316
-22.5537
-21.7715
-18.4051
-16.9698
-14.9333
-13.7813
-13.0669
-13.3925
-13.324
-11.8049
-7.31496
-1.26852
3.93975
5.7982
5.13768
5.07496
7.65651
11.0553
12.6042
12.1012
11.1309
9.45894
7.908
6.5773
5.27045
4.50048
3.05689
1.23284
-0.681236
-1.38725
-0.27464
4.41028
1.09742
-19.8265
-24.7502
-22.536
-21.7737
-18.4316
-16.9958
-14.9345
-13.7593
-13.0551
-13.3999
-13.3397
-11.8153
-7.31155
-1.27311
3.91765
5.76809
5.11747
5.06515
7.64006
11.0242
12.57
12.0742
11.1116
9.44748
7.90088
6.57266
5.26761
4.49811
3.0525
1.23605
-0.669444
-1.3881
-0.213248
4.41522
1.09853
-19.8123
-25.0263
-22.5229
-21.768
-18.4596
-17.0042
-14.911
-13.7145
-13.0264
-13.3945
-13.3419
-11.8125
-7.30296
-1.27735
3.89458
5.73701
5.09678
5.05507
7.62286
10.9916
12.5345
12.0466
11.0922
9.43603
7.89377
6.568
5.26468
4.49561
3.04808
1.239
-0.660312
-1.38797
-0.149096
4.42059
1.09961
-19.7943
-25.3762
-22.5098
-21.7581
-18.4887
-16.9942
-14.8638
-13.6494
-12.9831
-13.3779
-13.3317
-11.7989
-7.29232
-1.28291
3.86957
5.70465
5.07578
5.04504
7.60542
10.9579
12.4979
12.0187
11.0727
9.42462
7.88671
6.56333
5.26166
4.49297
3.04363
1.24167
-0.654338
-1.38688
-0.0818813
4.42633
1.10068
-19.7705
-25.8167
-22.4908
-21.7486
-18.5182
-16.9676
-14.7971
-13.5688
-12.9292
-13.3528
-13.3112
-11.7791
-7.28221
-1.29032
3.84252
5.67102
5.05454
5.03514
7.58788
10.9236
12.4605
11.9904
11.0532
9.4133
7.8797
6.55864
5.25856
4.49019
3.0392
1.24395
-0.651969
-1.38481
-0.0116543
4.43256
1.10172
-19.7392
-26.3583
-22.4597
-21.7441
-18.5477
-16.9283
-14.7171
-13.4794
-12.8699
-13.3218
-13.2837
-11.7576
-7.27336
-1.29949
3.81311
5.63574
5.03294
5.02549
7.57056
10.8891
12.4227
11.9619
11.0337
9.40211
7.87278
6.55395
5.25537
4.48724
3.03476
1.24579
-0.653786
-1.38182
0.061917
4.43921
1.10274
-19.6995
-26.9924
-22.4094
-21.7472
-18.5764
-16.881
-14.6306
-13.388
-12.8099
-13.2871
-13.2542
-11.7378
-7.26544
-1.31011
3.78141
5.59883
5.01098
5.01607
7.5534
10.8548
12.3848
11.9333
11.0143
9.39107
7.86593
6.54926
5.2521
4.48412
3.0304
1.24705
-0.66032
-1.37787
0.138869
4.4464
1.10373
-19.6517
-27.6732
-22.3323
-21.7586
-18.6038
-16.83
-14.5439
-13.3007
-12.7524
-13.2514
-13.2275
-11.7202
-7.25759
-1.32243
3.74684
5.55996
4.98875
5.00714
7.5366
10.8207
12.3472
11.9049
10.995
9.3802
7.85918
6.54455
5.24876
4.48081
3.02609
1.24758
-0.67226
-1.37287
0.219641
4.45405
1.10469
-19.5885
-28.3045
-22.2205
-21.7768
-18.629
-16.7785
-14.4615
-13.2213
-12.6996
-13.2193
-13.2063
-11.7037
-7.25003
-1.33716
3.70925
5.51965
4.9669
4.99895
7.51983
10.7866
12.3099
11.8767
10.9759
9.36949
7.85254
6.53987
5.24538
4.47735
3.02191
1.24706
-0.68992
-1.36663
0.303757
4.46221
1.10561
-19.482
-28.7411
-22.0663
-21.7987
-18.6496
-16.728
-14.3866
-13.152
-12.6552
-13.1954
-13.1897
-11.6873
-7.24369
-1.35511
3.66889
5.47904
4.94648
4.9916
7.5025
10.7519
12.2727
11.8487
10.9571
9.35902
7.84609
6.53531
5.24205
4.4737
3.0177
1.24574
-0.712958
-1.36002
0.389486
4.47061
1.10653
-19.3364
-28.8114
-21.8626
-21.8203
-18.6631
-16.679
-14.3204
-13.0957
-12.6237
-13.1799
-13.1759
-11.6721
-7.24018
-1.37566
3.62858
5.44114
4.92843
4.98367
7.48241
10.7152
12.2351
11.8211
10.9387
9.34901
7.84003
6.53099
5.2388
4.46972
3.01349
1.24424
-0.740777
-1.35483
0.474717
4.4795
1.10745
-19.4206
-28.3797
-21.6018
-21.8404
-18.6706
-16.6333
-14.264
-13.0556
-12.606
-13.1708
-13.1649
-11.6597
-7.23931
-1.39639
3.5913
5.40707
4.91101
4.97177
7.4571
10.6759
12.1983
11.7953
10.9221
9.34022
7.83465
6.52677
5.23507
4.46484
3.00927
1.24065
-0.782127
-1.34718
0.576536
4.49113
1.10808
8.9154
9.21503
10.0702
11.3986
13.1177
15.2728
17.9543
21.2794
25.6346
30.8654
37.2939
45.1084
54.756
66.254
81.1193
98.5788
123.17
149.549
190.18
214.43
262.389
104.158
8.9152
9.2148
10.0699
11.3982
13.1171
15.2718
17.9528
21.3069
25.6837
30.8923
37.2906
45.0918
54.7234
66.2199
81.0504
98.455
122.941
149.084
189.3
212.841
258.523
101.214
8.91499
9.21457
10.0696
11.3977
13.1164
15.2707
17.9512
21.3412
25.726
30.9124
37.2844
45.0742
54.6918
66.1836
80.9802
98.327
122.704
148.6
188.398
211.191
254.499
102.882
8.91477
9.21432
10.0692
11.3972
13.1156
15.2696
17.9494
21.3758
25.7609
30.9268
37.2766
45.0559
54.6588
66.1478
80.9088
98.1947
122.457
148.096
187.473
209.473
250.361
102.76
8.91454
9.21405
10.0689
11.3967
13.1149
15.2684
17.9476
21.4062
25.7889
30.9365
37.2685
45.0375
54.6279
66.1095
80.8356
98.0563
122.198
147.571
186.519
207.686
246.099
100.956
8.9143
9.21377
10.0685
11.3961
13.114
15.2672
17.9457
21.4272
25.8106
30.9424
37.2606
45.0192
54.5962
66.0717
80.7608
97.9124
121.926
147.024
185.53
205.833
241.708
98.897
8.91404
9.21348
10.0681
11.3956
13.1132
15.2658
17.9437
21.4354
25.8262
30.9452
37.2536
45.0015
54.5668
66.0317
80.6839
97.7615
121.638
146.453
184.501
203.915
237.193
96.9803
8.91377
9.21317
10.0677
11.395
13.1123
15.2644
17.9415
21.4313
25.8361
30.9455
37.2476
44.9843
54.5369
65.9922
80.6052
97.6041
121.333
145.858
183.426
201.932
232.56
95.0424
8.91348
9.21285
10.0673
11.3943
13.1113
15.263
17.9393
21.4178
25.8404
30.9436
37.2427
44.9679
54.5094
65.9506
80.5239
97.439
121.009
145.236
182.297
199.885
227.812
92.9852
8.91318
9.2125
10.0668
11.3937
13.1103
15.2614
17.9369
21.398
25.8393
30.9398
37.2388
44.9523
54.4815
65.9095
80.4405
97.267
120.666
144.587
181.108
197.773
222.954
90.8328
8.91286
9.21214
10.0664
11.393
13.1092
15.2597
17.9344
21.3737
25.8325
30.9343
37.2359
44.9376
54.4557
65.8661
80.3542
97.087
120.302
143.908
179.855
195.596
217.991
88.6202
8.91252
9.21175
10.0659
11.3922
13.1081
15.258
17.9317
21.3465
25.8196
30.9268
37.2336
44.9238
54.4294
65.8231
80.2653
96.8997
119.917
143.199
178.532
193.352
212.928
86.3584
8.91216
9.21135
10.0653
11.3914
13.1069
15.2561
17.9289
21.318
25.8001
30.9169
37.2315
44.9108
54.4048
65.7775
80.1729
96.704
119.511
142.457
177.135
191.04
207.769
84.0512
8.91179
9.21092
10.0648
11.3906
13.1057
15.2542
17.9259
21.2897
25.7731
30.9042
37.2291
44.8985
54.3793
65.7318
80.0772
96.5005
119.084
141.681
175.66
188.66
202.52
81.7075
8.91139
9.21046
10.0642
11.3897
13.1043
15.2521
17.9227
21.2634
25.738
30.8877
37.2256
44.8869
54.3553
65.6831
79.9774
96.288
118.635
140.869
174.104
186.208
197.186
79.3393
8.91096
9.20998
10.0635
11.3887
13.1029
15.2499
17.9194
21.24
25.6945
30.8665
37.2203
44.8756
54.3301
65.6335
79.8734
96.0667
118.165
140.02
172.465
183.685
191.772
76.9598
8.91052
9.20947
10.0628
11.3877
13.1014
15.2475
17.9158
21.2203
25.6429
30.8393
37.2118
44.8645
54.3061
65.5805
79.7642
95.8354
117.672
139.133
170.741
181.088
186.28
74.583
8.91004
9.20893
10.0621
11.3867
13.0998
15.245
17.912
21.2043
25.5841
30.8047
37.1986
44.8528
54.2806
65.5258
79.6499
95.594
117.155
138.206
168.931
178.415
180.717
72.2227
8.90954
9.20836
10.0614
11.3856
13.0981
15.2424
17.908
21.1917
25.5205
30.7614
37.1788
44.84
54.2559
65.4669
79.5292
95.3411
116.614
137.238
167.035
175.666
175.085
69.8918
8.90901
9.20775
10.0606
11.3844
13.0964
15.2396
17.9037
21.1816
25.455
30.7082
37.15
44.8247
54.2295
65.4056
79.4019
95.0765
116.048
136.227
165.051
172.839
169.39
67.6005
8.90844
9.20711
10.0597
11.3831
13.0945
15.2366
17.8992
21.1731
25.3911
30.6449
37.1093
44.8051
54.203
65.3395
79.267
94.7985
115.455
135.172
162.98
169.932
163.635
65.3561
8.90784
9.20643
10.0588
11.3818
13.0925
15.2335
17.8943
21.1652
25.3322
30.5724
37.0536
44.7784
54.1737
65.2702
79.124
94.5069
114.833
134.071
160.82
166.943
157.825
63.1614
8.90721
9.20571
10.0579
11.3804
13.0903
15.2301
17.8891
21.1573
25.2809
30.4929
36.9802
44.7409
54.1422
65.1954
78.9717
94.1999
114.181
132.922
158.572
163.872
151.967
61.0145
8.90654
9.20494
10.0569
11.3789
13.0881
15.2266
17.8837
21.1493
25.2384
30.41
36.8874
44.6871
54.1041
65.1165
78.8098
93.8771
113.497
131.724
156.235
160.717
146.067
58.9085
8.90582
9.20412
10.0558
11.3773
13.0857
15.2228
17.8778
21.1408
25.2042
30.3282
36.7758
44.6105
54.0572
65.0307
78.637
93.5369
112.78
130.475
153.808
157.476
140.135
56.8315
8.90506
9.20326
10.0546
11.3756
13.0832
15.2188
17.8716
21.1317
25.1767
30.2514
36.649
44.5044
53.9932
64.9382
78.453
93.1787
112.028
129.172
151.291
154.147
134.179
54.7673
8.90425
9.20234
10.0534
11.3738
13.0805
15.2146
17.865
21.1219
25.1537
30.1824
36.5134
44.3635
53.904
64.8339
78.256
92.8009
111.24
127.814
148.685
150.728
128.21
52.6958
8.90339
9.20136
10.0521
11.3719
13.0776
15.2101
17.858
21.1115
25.1332
30.1225
36.3771
44.1874
53.7749
64.7139
78.0447
92.403
110.415
126.399
145.988
147.219
122.239
50.5949
8.90248
9.20032
10.0507
11.3699
13.0745
15.2053
17.8506
21.1004
25.1136
30.0709
36.2477
43.9821
53.5936
64.566
77.815
91.9829
109.55
124.925
143.202
143.616
116.281
48.4409
8.90151
9.19921
10.0493
11.3677
13.0713
15.2003
17.8427
21.0885
25.094
30.0259
36.1303
43.76
53.3489
64.3766
77.5609
91.5391
108.647
123.39
140.326
139.92
110.348
46.2107
8.90047
9.19804
10.0477
11.3654
13.0678
15.1949
17.8343
21.0758
25.0736
29.9851
36.0272
43.5367
53.0425
64.1243
77.2704
91.0671
107.703
121.793
137.362
136.129
104.455
43.8825
8.89937
9.19679
10.0461
11.363
13.0642
15.1891
17.8253
21.0623
25.0521
29.9462
35.9373
43.3262
52.6879
63.7914
76.9258
90.5611
106.718
120.132
134.311
132.243
98.6161
41.4373
8.89819
9.19545
10.0443
11.3604
13.0602
15.183
17.8158
21.0479
25.0293
29.9075
35.8575
43.1369
52.3118
63.3677
76.5019
90.009
105.687
118.407
131.174
128.262
92.8465
38.86
8.89694
9.19403
10.0424
11.3576
13.0561
15.1765
17.8057
21.0325
25.005
29.8675
35.7837
42.9705
51.9426
62.8638
75.9733
89.3936
104.606
116.615
127.953
124.188
87.1605
36.1401
8.89561
9.19252
10.0404
11.3547
13.0516
15.1696
17.795
21.0162
24.9791
29.8258
35.7119
42.8235
51.6025
62.3089
75.324
88.6903
103.465
114.756
124.651
120.023
81.5724
33.2726
8.89419
9.1909
10.0382
11.3515
13.0469
15.1623
17.7836
20.9988
24.9515
29.7816
35.6392
42.689
51.3004
61.7444
74.5608
87.8743
102.251
112.827
121.271
115.771
76.096
30.2583
8.89267
9.18918
10.036
11.3482
13.0419
15.1545
17.7714
20.9802
24.9222
29.7346
35.5636
42.5599
51.0334
61.2062
73.7178
86.928
100.944
110.826
117.819
111.438
70.7445
27.1042
8.89105
9.18735
10.0335
11.3446
13.0365
15.1461
17.7584
20.9605
24.8909
29.6848
35.4841
42.4301
50.7905
60.7144
72.8476
85.8549
99.526
108.751
114.301
107.033
65.5309
23.8229
8.88933
9.18539
10.0309
11.3408
13.0307
15.1372
17.7446
20.9394
24.8576
29.6318
35.3999
42.2958
50.5587
60.2692
72.0006
84.6838
97.9855
106.601
110.732
102.566
60.4685
20.4329
8.88748
9.1833
10.0281
11.3367
13.0246
15.1278
17.7299
20.917
24.8222
29.5755
35.3106
42.1545
50.3266
59.8566
71.2068
83.4631
96.3263
104.377
107.128
98.052
55.5708
16.9575
8.88551
9.18107
10.0252
11.3323
13.0181
15.1177
17.7143
20.893
24.7845
29.5156
35.2158
42.005
50.0865
59.4573
70.4686
82.2424
94.5708
102.085
103.515
93.5122
50.8531
13.4245
8.88341
9.17868
10.022
11.3277
13.0111
15.1069
17.6976
20.8675
24.7443
29.4519
35.115
41.8467
49.8341
59.0539
69.767
81.053
92.7556
99.7363
99.926
88.9744
46.3326
9.86585
8.88116
9.17613
10.0186
11.3227
13.0037
15.0954
17.6798
20.8403
24.7014
29.384
35.008
41.6789
49.5676
58.6345
69.0745
79.8999
90.9167
97.3433
96.3954
84.4747
42.0292
6.31697
8.87876
9.17341
10.015
11.3174
12.9957
15.0831
17.6608
20.8112
24.6558
29.3119
34.8942
41.5008
49.2857
58.1931
68.3667
78.7657
89.0774
94.915
92.9531
80.0554
37.9648
2.81666
8.87619
9.1705
10.0111
11.3118
12.9872
15.07
17.6406
20.7802
24.6072
29.2351
34.7733
41.3118
48.9876
57.7273
67.6272
77.6228
87.2427
92.4493
89.611
75.7611
34.1621
-0.593674
8.87344
9.16739
10.0069
11.3057
12.9781
15.0561
17.619
20.7471
24.5553
29.1534
34.6449
41.1112
48.6721
57.236
66.8487
76.4449
85.4014
89.9357
86.352
71.6296
30.6415
-3.87118
8.8705
9.16407
10.0025
11.2992
12.9684
15.0412
17.596
20.7118
24.5001
29.0664
34.5084
40.8984
48.3382
56.7178
66.0297
75.2146
83.5304
87.3656
83.1281
67.678
27.4164
-6.97344
8.86735
9.16051
9.99775
11.2923
12.958
15.0252
17.5714
20.6741
24.4412
28.9738
34.3633
40.6727
47.985
56.1715
65.1703
73.9251
81.6052
84.7358
79.8784
63.8907
24.4868
-9.86147
8.86398
9.1567
9.99267
11.2849
12.9469
15.0082
17.5451
20.6339
24.3784
28.8753
34.2092
40.4332
47.6115
55.5955
64.2704
72.577
79.6095
82.0437
76.5582
60.2162
21.8312
-12.5036
8.86037
9.15262
9.98723
11.2769
12.935
14.99
17.5171
20.591