/*--------------------------------*- C++ -*----------------------------------*\
| =========                 |                                                 |
| \\      /  F ield         | OpenFOAM: The Open Source CFD Toolbox           |
|  \\    /   O peration     | Version:  v1912                                 |
|   \\  /    A nd           | Website:  www.openfoam.com                      |
|    \\/     M anipulation  |                                                 |
\*---------------------------------------------------------------------------*/
FoamFile
{
    version     2.0;
    format      ascii;
    class       volScalarField;
    location    "420";
    object      yPlus;
}
// * * * * * * * * * * * * * * * * * * * * * * * * * * * * * * * * * * * * * //

dimensions      [0 0 0 0 0 0 0];


internalField   uniform 0;

boundaryField
{
    inlet
    {
        type            calculated;
        value           uniform 0;
    }
    outlet
    {
        type            calculated;
        value           uniform 0;
    }
    lowerSymmetry
    {
        type            symmetryPlane;
    }
    obstical
    {
        type            calculated;
        value           nonuniform List<scalar> 
88
(
479.922
482.13
486.531
493.104
501.785
512.487
525.119
539.593
555.824
573.73
593.234
614.261
636.728
660.545
685.618
711.853
739.159
767.456
796.672
826.746
857.632
889.289
921.691
954.819
988.662
1023.22
1058.49
1094.49
1131.23
1168.73
1207.01
1246.09
1285.99
1326.74
1368.35
1410.85
1454.26
1498.6
1543.88
1590.15
1637.41
1685.74
1735.54
1790.74
15.5838
18.4437
22.0003
26.0636
30.5695
35.5099
40.8959
46.7381
53.0338
59.7581
66.8551
74.2314
81.749
89.2295
96.5274
103.475
109.886
115.567
120.324
123.977
126.368
127.366
126.874
124.831
121.221
116.071
109.457
101.512
92.439
82.5532
72.3721
62.8153
55.5299
52.902
56.5637
65.7052
78.3882
93.2795
109.845
128.037
148.002
169.923
194.151
221.518
)
;
    }
    obsticalTop
    {
        type            calculated;
        value           nonuniform List<scalar> 
20
(
53.3845
38.7824
47.1417
53.2323
56.0776
57.7132
58.3172
58.0111
57.0628
55.6035
53.6086
50.9671
47.5835
43.269
37.9937
31.1154
24.7195
15.1775
13.6847
11.3151
)
;
    }
    top
    {
        type            calculated;
        value           uniform 0;
    }
    defaultFaces
    {
        type            empty;
    }
}


// ************************************************************************* //
