/*--------------------------------*- C++ -*----------------------------------*\
| =========                 |                                                 |
| \\      /  F ield         | OpenFOAM: The Open Source CFD Toolbox           |
|  \\    /   O peration     | Version:  v1912                                 |
|   \\  /    A nd           | Website:  www.openfoam.com                      |
|    \\/     M anipulation  |                                                 |
\*---------------------------------------------------------------------------*/
FoamFile
{
    version     2.0;
    format      ascii;
    class       volScalarField;
    location    "400";
    object      p;
}
// * * * * * * * * * * * * * * * * * * * * * * * * * * * * * * * * * * * * * //

dimensions      [0 2 -2 0 0 0 0];


internalField   nonuniform List<scalar> 
2000
(
-0.0463507
0.0710607
0.125641
0.118752
0.102924
0.0966169
0.0960107
0.0973614
0.0975802
0.0973556
0.0974913
0.09716
0.0968909
0.0968325
0.0968797
0.0968501
0.0967436
0.0967046
0.0966949
0.0966963
0.0966935
0.0966794
0.0966546
0.0966279
0.0966044
0.0965848
0.0965679
0.0965519
0.0965365
0.0965227
0.0965138
0.0965106
0.0965123
0.0965157
0.0965162
0.0965082
0.0964861
0.0964445
0.0963804
0.0962914
0.0961841
0.0960662
0.0959492
0.0958496
0.0957836
0.0957674
0.0958142
0.0959336
0.0961292
0.0963936
0.0967016
0.096993
0.0971341
0.0968642
0.0957896
0.0934757
0.0895839
0.0840201
0.0771992
0.0704594
0.0658928
0.0648641
0.0683129
0.0762016
0.0876877
0.101819
0.117731
0.134561
0.15128
0.166662
0.179531
0.18893
0.193958
0.193774
0.1876
0.174818
0.154355
0.126058
0.0842738
0.0416823
0.00689448
0.0920715
0.13089
0.117695
0.099954
0.0957527
0.0992854
0.101721
0.098975
0.0957425
0.0952992
0.0965915
0.0970457
0.0969173
0.0970791
0.0969054
0.0967319
0.0966216
0.0966035
0.0966045
0.0966282
0.0966566
0.0966533
0.0966324
0.096612
0.0965953
0.0965797
0.0965628
0.0965445
0.0965243
0.096508
0.0965003
0.0965039
0.0965175
0.0965355
0.096549
0.0965474
0.0965209
0.0964619
0.0963693
0.0962416
0.0960872
0.0959205
0.0957623
0.0956379
0.0955751
0.0955974
0.0957215
0.0959655
0.0963468
0.0968552
0.0973886
0.0976497
0.0970444
0.0947391
0.0899926
0.082549
0.0729119
0.0626584
0.0547862
0.0528976
0.0568082
0.0643721
0.0745091
0.0869106
0.101277
0.117082
0.133499
0.149489
0.163895
0.175572
0.183449
0.186567
0.184174
0.175633
0.160459
0.137802
0.107877
0.0667462
0.029532
0.05796
0.0917583
0.11445
0.112893
0.103694
0.099517
0.099552
0.0989163
0.0970195
0.0963486
0.0979294
0.0994915
0.0984772
0.0959783
0.0950687
0.0959461
0.0968264
0.0969677
0.0967994
0.0967095
0.0966613
0.0966133
0.0965916
0.0966065
0.0966193
0.0966159
0.0965928
0.096552
0.0965078
0.09647
0.0964427
0.0964329
0.0964481
0.0964901
0.096553
0.0966232
0.0966802
0.0967019
0.09667
0.0965737
0.0964084
0.0961768
0.0958941
0.0955937
0.0953286
0.0951696
0.0951954
0.0954576
0.0960012
0.0968422
0.0979006
0.0989186
0.0994121
0.0986685
0.0959121
0.0906035
0.0828609
0.0738091
0.0655495
0.0599112
0.0577038
0.0598719
0.0660685
0.0752321
0.0866449
0.0999054
0.114465
0.129434
0.143716
0.15617
0.165717
0.171417
0.172513
0.168446
0.158769
0.143187
0.12116
0.09326
0.056811
0.0250712
0.0829452
0.092959
0.105509
0.109588
0.106895
0.103875
0.102214
0.100485
0.0988675
0.0980545
0.0978558
0.0977396
0.0973838
0.0966455
0.0960897
0.0970185
0.0982466
0.0975184
0.096351
0.0959083
0.0958568
0.0960695
0.0963847
0.0966177
0.0967507
0.0968244
0.0968561
0.0968122
0.0967006
0.0965703
0.0964525
0.0963752
0.0963619
0.0964256
0.0965535
0.0967165
0.0968703
0.096973
0.0969905
0.096901
0.0966909
0.0963512
0.095895
0.0953753
0.0948811
0.094544
0.0945348
0.0948785
0.0956507
0.0968787
0.0984516
0.0999454
0.100818
0.100404
0.0980649
0.0934673
0.0868343
0.0790101
0.0712482
0.0653507
0.0627191
0.0641473
0.0694379
0.0776908
0.0881066
0.100101
0.112995
0.125882
0.137755
0.147636
0.154665
0.158124
0.157451
0.152229
0.142125
0.126948
0.106341
0.0809423
0.0488878
0.0208538
0.0952841
0.0988845
0.106404
0.110374
0.109245
0.106915
0.105533
0.104494
0.103193
0.10174
0.100381
0.099281
0.0985397
0.0976687
0.0966728
0.0966878
0.0972293
0.0974201
0.0972351
0.0967809
0.0964493
0.0963579
0.0964483
0.0966736
0.0968938
0.0970184
0.0969693
0.0967626
0.0965626
0.0963727
0.096211
0.0961131
0.0961178
0.0962585
0.0965093
0.0968097
0.0971163
0.0973489
0.0974365
0.0973423
0.097055
0.0965731
0.0959105
0.0951209
0.0943229
0.0936942
0.0934364
0.0937808
0.0946787
0.0960923
0.0978497
0.0995391
0.100586
0.100353
0.098291
0.0941692
0.0882588
0.081403
0.0749136
0.0703154
0.0686793
0.0703816
0.0751818
0.0824424
0.0914676
0.10162
0.112224
0.12251
0.131674
0.138962
0.143716
0.145389
0.143532
0.137794
0.127879
0.113618
0.0947132
0.07177
0.0433086
0.0182093
0.103724
0.105557
0.109511
0.111681
0.110865
0.109256
0.108296
0.107619
0.106658
0.105463
0.104327
0.103324
0.102292
0.100942
0.0995417
0.0988186
0.0986748
0.0985211
0.0979346
0.0970507
0.0964392
0.0962583
0.0963884
0.0966346
0.0968266
0.0969279
0.0969555
0.0969006
0.0967339
0.0965021
0.0962755
0.0961268
0.0961125
0.0962645
0.0965289
0.0969021
0.09728
0.0975587
0.0976444
0.0974993
0.0971369
0.0965715
0.0958263
0.0949824
0.0941928
0.0936559
0.0935689
0.0940608
0.0951006
0.0965853
0.0982828
0.0997935
0.100619
0.100279
0.0984419
0.0950618
0.0904838
0.0854421
0.08092
0.0779047
0.0770901
0.0787405
0.0827256
0.0886185
0.0958588
0.103874
0.112086
0.11989
0.126668
0.131836
0.134869
0.135308
0.132752
0.126863
0.117337
0.103986
0.0865172
0.0654718
0.0395091
0.0165465
0.110533
0.111356
0.112593
0.11293
0.112142
0.111156
0.110495
0.109954
0.109284
0.108523
0.107791
0.107058
0.106181
0.10505
0.103861
0.10299
0.10246
0.101844
0.100863
0.099761
0.0989522
0.0985344
0.0983777
0.0983162
0.0982474
0.0981481
0.0980098
0.0977968
0.0974971
0.0971734
0.0968941
0.0967083
0.096653
0.0967824
0.0972661
0.0976952
0.0980594
0.0983467
0.0984815
0.0984131
0.0981393
0.0976804
0.0970833
0.0964461
0.0959161
0.0956577
0.0958086
0.0964382
0.0975057
0.0988741
0.100317
0.101517
0.102117
0.1018
0.100382
0.0978901
0.0946135
0.0910833
0.0879745
0.0859561
0.0855255
0.0868969
0.0899922
0.094508
0.100023
0.106089
0.11225
0.118033
0.122955
0.126538
0.128334
0.127926
0.124935
0.119018
0.109858
0.0972415
0.0808564
0.0611832
0.036918
0.0154877
0.116409
0.116354
0.115438
0.114229
0.113404
0.112885
0.112407
0.111934
0.111487
0.111045
0.110584
0.110075
0.10946
0.1087
0.107875
0.107166
0.106609
0.105967
0.10509
0.104133
0.103341
0.10279
0.102415
0.102124
0.10186
0.101596
0.101314
0.100995
0.100647
0.100315
0.100051
0.0998991
0.0999041
0.100105
0.100439
0.100803
0.101127
0.101377
0.101499
0.101456
0.101252
0.100917
0.100506
0.100101
0.0998123
0.0997523
0.100007
0.100609
0.10151
0.102591
0.103672
0.104522
0.104895
0.104586
0.103488
0.101644
0.0992722
0.0967481
0.0945409
0.0931146
0.0928211
0.0938233
0.0960835
0.0994041
0.10349
0.108004
0.112583
0.116846
0.12039
0.122806
0.123697
0.122678
0.119382
0.11347
0.10461
0.092564
0.0769902
0.0583047
0.0352118
0.0147969
0.121812
0.120823
0.117858
0.115314
0.114557
0.114466
0.114129
0.113718
0.113449
0.113225
0.112947
0.11261
0.112207
0.111711
0.111157
0.11065
0.110223
0.109738
0.109096
0.108374
0.10773
0.107237
0.106871
0.106573
0.106298
0.106022
0.105733
0.105426
0.105112
0.10482
0.10459
0.104459
0.104461
0.104604
0.104777
0.105055
0.105329
0.105535
0.105638
0.105621
0.105485
0.105255
0.104973
0.104699
0.104512
0.104491
0.104694
0.105135
0.105779
0.106534
0.107265
0.107808
0.107991
0.107673
0.106787
0.10537
0.10358
0.101683
0.100009
0.0988919
0.0985903
0.0992405
0.100837
0.103253
0.106272
0.109631
0.113031
0.116152
0.118652
0.120178
0.120374
0.118885
0.115365
0.109474
0.100871
0.0892887
0.0743456
0.0563895
0.0341187
0.0143328
0.127042
0.124854
0.119659
0.116014
0.115549
0.115873
0.115642
0.115315
0.115226
0.115188
0.115057
0.114854
0.114598
0.114272
0.113894
0.11354
0.113237
0.112893
0.112434
0.111908
0.111427
0.111056
0.110781
0.110555
0.110343
0.110125
0.109894
0.10965
0.109404
0.109176
0.108999
0.108901
0.1089
0.108991
0.109119
0.10933
0.109545
0.109701
0.109772
0.109749
0.109632
0.109437
0.109197
0.10896
0.108786
0.108731
0.108837
0.109115
0.109538
0.110037
0.110512
0.110841
0.110898
0.110581
0.109841
0.108705
0.107288
0.105785
0.104439
0.103498
0.103164
0.103548
0.104658
0.106405
0.108624
0.111099
0.113585
0.115811
0.117485
0.118302
0.117944
0.11609
0.112408
0.106563
0.0981994
0.087019
0.0725897
0.0551892
0.0334802
0.0140625
0.13228
0.12843
0.120736
0.116344
0.116434
0.117124
0.116949
0.116732
0.11683
0.11696
0.116962
0.11688
0.116745
0.116546
0.116296
0.116052
0.115835
0.115584
0.115245
0.114855
0.114498
0.114223
0.114023
0.11386
0.113706
0.113546
0.113374
0.113192
0.113008
0.112839
0.112709
0.112639
0.11264
0.112705
0.112814
0.112973
0.113136
0.113253
0.113301
0.11327
0.11316
0.112983
0.112764
0.112543
0.112363
0.11227
0.112295
0.112449
0.112712
0.113032
0.113334
0.113524
0.113505
0.113199
0.112569
0.111634
0.110478
0.109247
0.108127
0.107306
0.106941
0.107124
0.107864
0.109095
0.110684
0.112457
0.114208
0.115708
0.11671
0.116949
0.116147
0.11401
0.110222
0.10445
0.0963219
0.0855056
0.07151
0.0545443
0.0331834
0.0139855
0.137646
0.131477
0.121061
0.116401
0.117266
0.118226
0.118073
0.117993
0.118275
0.11855
0.11867
0.118701
0.118678
0.11859
0.118448
0.118296
0.11815
0.117971
0.11772
0.117427
0.117155
0.116946
0.116796
0.116676
0.116563
0.116444
0.116315
0.116177
0.116038
0.115911
0.115815
0.115765
0.115771
0.115829
0.115927
0.116057
0.116189
0.116286
0.116323
0.116291
0.116188
0.116024
0.115819
0.115603
0.115412
0.115284
0.115246
0.115306
0.115452
0.115645
0.115826
0.115923
0.115859
0.115573
0.115032
0.11425
0.113289
0.112261
0.111306
0.11057
0.110176
0.110196
0.11064
0.111455
0.112533
0.11373
0.114874
0.115772
0.116218
0.115985
0.114828
0.112479
0.108634
0.10296
0.0950653
0.0845848
0.0709624
0.0543466
0.0331528
0.0141152
0.143218
0.13389
0.120669
0.116305
0.118066
0.11918
0.119043
0.119127
0.119577
0.119972
0.120197
0.12033
0.120408
0.120419
0.120373
0.120304
0.120228
0.120115
0.119939
0.119723
0.11952
0.119364
0.119253
0.119166
0.119084
0.118997
0.1189
0.118795
0.118689
0.118593
0.118521
0.118486
0.118497
0.118554
0.118644
0.118756
0.118868
0.118952
0.118982
0.118951
0.118854
0.118699
0.118501
0.118286
0.118084
0.117924
0.117832
0.117818
0.117873
0.117969
0.118061
0.118091
0.117998
0.117733
0.117266
0.116605
0.115795
0.114921
0.11409
0.113414
0.11299
0.112873
0.113071
0.113539
0.114191
0.114905
0.115542
0.115942
0.115932
0.11532
0.11389
0.111392
0.107532
0.101973
0.0943039
0.0841302
0.0708305
0.0545054
0.0333297
0.0144543
0.149037
0.135551
0.119656
0.116172
0.118831
0.119987
0.119889
0.120154
0.120751
0.121245
0.121562
0.121788
0.121954
0.122052
0.122089
0.122096
0.122084
0.122033
0.121924
0.121776
0.121633
0.121524
0.12145
0.121394
0.121341
0.121281
0.121211
0.121134
0.121055
0.120983
0.12093
0.120907
0.120924
0.120979
0.121061
0.12116
0.12126
0.121333
0.121361
0.121331
0.121239
0.121091
0.120898
0.12068
0.120463
0.120274
0.120135
0.120056
0.120035
0.120052
0.120073
0.120051
0.119938
0.119691
0.119285
0.11872
0.118028
0.117271
0.116531
0.115894
0.115433
0.115192
0.115176
0.115349
0.11564
0.115953
0.116171
0.116167
0.115796
0.114893
0.113264
0.110672
0.106828
0.101389
0.0939298
0.0840292
0.0710062
0.0549329
0.0336632
0.0149811
0.155111
0.136354
0.118169
0.116093
0.119545
0.120661
0.120639
0.121088
0.121808
0.122385
0.122785
0.123093
0.123337
0.12351
0.123621
0.123694
0.123741
0.123746
0.123695
0.123607
0.123517
0.123451
0.123411
0.123384
0.123357
0.123323
0.123278
0.123225
0.12317
0.123119
0.123081
0.123069
0.12309
0.123142
0.123219
0.12331
0.1234
0.123468
0.123494
0.123466
0.123379
0.123235
0.123043
0.12282
0.122587
0.122369
0.122185
0.122049
0.121962
0.121911
0.12187
0.121804
0.121673
0.121439
0.121077
0.120584
0.119979
0.119306
0.118626
0.118003
0.117496
0.117138
0.116934
0.116856
0.116849
0.116835
0.116723
0.116406
0.115764
0.114651
0.112887
0.110244
0.106436
0.101114
0.0938396
0.0841749
0.0713855
0.0555411
0.0341079
0.0156482
0.161418
0.136221
0.116383
0.116117
0.120182
0.12122
0.121317
0.12194
0.122759
0.123407
0.123883
0.124264
0.124576
0.124815
0.124989
0.125122
0.125222
0.125277
0.125278
0.125241
0.125197
0.125169
0.12516
0.12516
0.125158
0.125146
0.125124
0.125093
0.125059
0.125025
0.125
0.124997
0.125022
0.125073
0.125145
0.12523
0.125314
0.125377
0.125401
0.125375
0.125291
0.125148
0.124953
0.12472
0.124468
0.124217
0.123989
0.123797
0.123647
0.123532
0.123434
0.123325
0.123172
0.122941
0.122607
0.122161
0.121612
0.120989
0.120339
0.11971
0.119148
0.118682
0.118317
0.118035
0.117793
0.11753
0.117172
0.11663
0.115798
0.114544
0.112696
0.110035
0.106272
0.101056
0.0939379
0.0844721
0.0718773
0.056248
0.0346256
0.0163998
0.167907
0.135143
0.11448
0.116254
0.120724
0.121689
0.121939
0.122715
0.123614
0.124326
0.124869
0.125315
0.125686
0.125983
0.126214
0.126399
0.126546
0.126645
0.126692
0.1267
0.126696
0.126702
0.12672
0.126743
0.126762
0.126771
0.126767
0.126754
0.126737
0.126718
0.126703
0.126707
0.126732
0.126781
0.126847
0.126925
0.127
0.127056
0.127076
0.127046
0.126959
0.12681
0.126605
0.126354
0.126075
0.125787
0.12551
0.125261
0.125049
0.124873
0.12472
0.124569
0.124389
0.12415
0.123827
0.123406
0.122887
0.122289
0.121646
0.120997
0.12038
0.119822
0.119331
0.118895
0.118481
0.118041
0.117513
0.11682
0.115865
0.114525
0.112633
0.109972
0.106257
0.101133
0.0941452
0.0848451
0.0724113
0.0569862
0.0351817
0.0171854
0.174495
0.133139
0.112618
0.116487
0.121163
0.122091
0.122512
0.123417
0.124378
0.125147
0.125749
0.126251
0.126674
0.12702
0.1273
0.127529
0.127717
0.127854
0.127939
0.127984
0.128014
0.128046
0.128086
0.128128
0.128163
0.128187
0.128197
0.128196
0.128193
0.128178
0.128169
0.128172
0.128194
0.128233
0.128289
0.128353
0.128415
0.128458
0.128467
0.128426
0.128326
0.128162
0.127938
0.127661
0.127349
0.12702
0.126696
0.126394
0.126126
0.125895
0.125693
0.125503
0.125297
0.125046
0.124723
0.124311
0.123804
0.123214
0.122567
0.121896
0.121233
0.120606
0.120023
0.11948
0.118951
0.118395
0.117759
0.116972
0.115945
0.114557
0.112647
0.11
0.10633
0.101284
0.0944031
0.0852404
0.0729396
0.0577063
0.0357469
0.0179651
0.18109
0.13031
0.11091
0.116771
0.121502
0.122442
0.123033
0.124038
0.125047
0.125861
0.126512
0.127057
0.12752
0.127904
0.12822
0.128485
0.128703
0.128869
0.128982
0.129055
0.129109
0.12916
0.129214
0.129266
0.129311
0.129342
0.129359
0.129367
0.129359
0.129343
0.129331
0.129328
0.129338
0.129364
0.129403
0.12945
0.129494
0.12952
0.129511
0.129454
0.129336
0.129153
0.128906
0.128603
0.12826
0.127896
0.127531
0.127186
0.126874
0.126602
0.126363
0.126143
0.125916
0.125653
0.125326
0.124916
0.124413
0.123824
0.123169
0.122479
0.121783
0.121108
0.120466
0.119854
0.119253
0.118628
0.117928
0.117089
0.116023
0.114614
0.112702
0.110074
0.106446
0.101466
0.094673
0.085624
0.0734334
0.0583773
0.0362996
0.0187123
0.187598
0.126784
0.109424
0.117059
0.121748
0.122738
0.123478
0.124549
0.125587
0.126431
0.127114
0.127687
0.128176
0.128584
0.128924
0.12921
0.129448
0.129632
0.129762
0.129852
0.129919
0.12998
0.13004
0.130096
0.130143
0.130176
0.130193
0.130196
0.130182
0.130162
0.130143
0.130129
0.130127
0.130138
0.130162
0.130192
0.130219
0.130229
0.130204
0.130131
0.129997
0.129798
0.129532
0.129209
0.128842
0.128452
0.12806
0.127686
0.127346
0.127046
0.126784
0.126544
0.126302
0.126031
0.125701
0.12529
0.124787
0.124197
0.123537
0.122833
0.122116
0.121411
0.120733
0.12008
0.119438
0.118774
0.118041
0.117175
0.116093
0.114678
0.112774
0.110168
0.106578
0.101653
0.0949322
0.0859776
0.073879
0.0589832
0.0368259
0.019413
0.193944
0.12272
0.108202
0.117313
0.121909
0.122961
0.123806
0.12491
0.125961
0.126821
0.127519
0.128108
0.128609
0.129031
0.129383
0.12968
0.129928
0.130121
0.13026
0.130358
0.130431
0.130496
0.130558
0.130614
0.13066
0.130692
0.130707
0.130702
0.130684
0.13066
0.130634
0.130612
0.1306
0.1306
0.130613
0.130631
0.130647
0.130645
0.130609
0.130525
0.130381
0.130169
0.129892
0.129556
0.129176
0.128771
0.128363
0.127973
0.127616
0.127301
0.127025
0.126774
0.126525
0.126249
0.125916
0.125505
0.125002
0.12441
0.123745
0.123033
0.122303
0.121581
0.120883
0.120209
0.119545
0.118861
0.118113
0.117238
0.116151
0.11474
0.112848
0.110264
0.106708
0.101831
0.0951694
0.0862936
0.0742729
0.0595187
0.0373178
0.0200634
0.200126
0.118387
0.10727
0.117505
0.121992
0.123093
0.123999
0.125115
0.12617
0.127037
0.127743
0.128338
0.128846
0.129273
0.129632
0.129935
0.130187
0.130384
0.130527
0.130628
0.130705
0.130771
0.130833
0.130889
0.130933
0.130963
0.130975
0.130969
0.130949
0.13092
0.130889
0.130862
0.130845
0.130839
0.130845
0.130858
0.130867
0.130858
0.130816
0.130726
0.130576
0.130359
0.130075
0.129733
0.129346
0.128933
0.128518
0.12812
0.127756
0.127434
0.127152
0.126896
0.126643
0.126364
0.12603
0.125618
0.125115
0.124523
0.123855
0.123139
0.122402
0.12167
0.120961
0.120277
0.119603
0.118912
0.118159
0.117282
0.116199
0.114796
0.112919
0.110355
0.106829
0.101992
0.0953813
0.0865721
0.0746183
0.0599865
0.0377728
0.0206682
0.20629
0.114299
0.106635
0.117622
0.12201
0.123141
0.124077
0.125201
0.126257
0.127128
0.127838
0.128436
0.128946
0.129377
0.129738
0.130044
0.130298
0.130497
0.130642
0.130745
0.130823
0.130889
0.130951
0.131007
0.131051
0.131079
0.13109
0.131085
0.131063
0.131032
0.131
0.130971
0.130951
0.130943
0.130946
0.130955
0.130961
0.13095
0.130906
0.130813
0.13066
0.13044
0.130154
0.129809
0.12942
0.129005
0.128587
0.128186
0.12782
0.127495
0.12721
0.126952
0.126698
0.126418
0.126085
0.125673
0.12517
0.124577
0.123909
0.123189
0.122449
0.121713
0.120999
0.12031
0.119633
0.11894
0.118187
0.117314
0.116238
0.114845
0.112982
0.11044
0.106941
0.102139
0.0955724
0.0868209
0.0749264
0.0604
0.0381971
0.0212473
0.212387
0.111093
0.106239
0.117671
0.12199
0.123135
0.124085
0.125215
0.126275
0.127148
0.12786
0.12846
0.128972
0.129405
0.129767
0.130074
0.13033
0.130529
0.130675
0.130779
0.130857
0.130924
0.130986
0.131041
0.131085
0.131113
0.131125
0.131119
0.131097
0.131066
0.131033
0.131004
0.130983
0.130974
0.130977
0.130986
0.130991
0.130979
0.130934
0.13084
0.130686
0.130466
0.13018
0.129834
0.129444
0.129029
0.128611
0.12821
0.127843
0.127518
0.127233
0.126975
0.12672
0.126441
0.126108
0.125697
0.125195
0.124602
0.123933
0.123212
0.12247
0.121732
0.121016
0.120325
0.119648
0.118956
0.118207
0.117339
0.116271
0.114889
0.113041
0.110519
0.107045
0.102277
0.0957515
0.0870526
0.0752141
0.0607822
0.0386031
0.0218343
0.217114
0.10915
0.106014
0.117698
0.121967
0.12311
0.124069
0.125205
0.126268
0.127143
0.127856
0.128457
0.12897
0.129403
0.129765
0.130073
0.130329
0.130529
0.130675
0.130779
0.130857
0.130924
0.130987
0.131043
0.131087
0.131116
0.131127
0.131121
0.131099
0.131068
0.131035
0.131006
0.130985
0.130977
0.13098
0.130989
0.130994
0.130982
0.130937
0.130843
0.13069
0.13047
0.130184
0.129839
0.129449
0.129035
0.128617
0.128216
0.127849
0.127525
0.12724
0.126982
0.126728
0.12645
0.126118
0.125707
0.125206
0.124613
0.123944
0.123223
0.12248
0.121741
0.121024
0.120333
0.119657
0.118967
0.118221
0.117358
0.116298
0.114927
0.113092
0.110588
0.107138
0.102399
0.0959094
0.0872572
0.0754669
0.0611198
0.0389566
0.0223942
)
;

boundaryField
{
    inlet
    {
        type            zeroGradient;
    }
    outlet
    {
        type            fixedValue;
        value           uniform 0;
    }
    fixedWalls
    {
        type            zeroGradient;
    }
    frontAndBack
    {
        type            empty;
    }
}


// ************************************************************************* //
