/*--------------------------------*- C++ -*----------------------------------*\
| =========                 |                                                 |
| \\      /  F ield         | OpenFOAM: The Open Source CFD Toolbox           |
|  \\    /   O peration     | Version:  v1912                                 |
|   \\  /    A nd           | Website:  www.openfoam.com                      |
|    \\/     M anipulation  |                                                 |
\*---------------------------------------------------------------------------*/
FoamFile
{
    version     2.0;
    format      ascii;
    class       volVectorField;
    location    "400";
    object      U;
}
// * * * * * * * * * * * * * * * * * * * * * * * * * * * * * * * * * * * * * //

dimensions      [0 1 -1 0 0 0 0];


internalField   nonuniform List<vector> 
2000
(
(0.84616 0.187394 0)
(0.515132 0.12409 0)
(0.223445 0.0684424 0)
(0.0598026 0.0174441 6.19788e-20)
(-0.00455683 -0.0232162 1.20266e-17)
(-0.0642204 -0.0384609 1.03844e-17)
(-0.0776261 -0.0372429 0)
(-0.0716154 -0.0167326 0)
(-0.0590613 0.0115243 0)
(-0.0420572 0.0252653 2.35843e-17)
(-0.0414662 0.0107994 -1.44491e-17)
(-0.0273228 -0.000937314 -1.35692e-17)
(-0.0161396 -0.00301925 0)
(-0.019305 -0.00265836 0)
(-0.0205628 -0.00201464 -1.07874e-17)
(-0.0144456 0.000303549 0)
(-0.00685599 0.00284884 9.72294e-18)
(-0.00548487 0.00626323 4.36509e-21)
(-0.00634662 0.00606346 9.41171e-18)
(-0.00684376 0.00449166 -4.64663e-18)
(-0.00660534 0.00215803 9.18596e-18)
(-0.00551422 0.000478196 0)
(-0.00368456 -0.000130721 0)
(-0.00198729 -0.000141144 1.11162e-22)
(-0.000795273 1.72432e-05 0)
(-0.00019793 0.000178061 -4.50296e-18)
(-7.58166e-05 0.00021646 0)
(-0.000215956 7.8179e-05 4.50749e-18)
(-0.000359905 -0.00016639 0)
(-0.000374011 -0.000339425 0)
(-0.000232911 -0.000427326 0)
(5.1481e-05 -0.000483728 1.14717e-18)
(0.000432643 -0.000546448 0)
(0.000878051 -0.000627067 -5.82417e-19)
(0.00135055 -0.000723199 1.94364e-14)
(0.00180206 -0.000830351 1.94192e-14)
(0.00217912 -0.000942616 6.00306e-19)
(0.00243011 -0.00104743 -6.0784e-19)
(0.00248679 -0.00112894 0)
(0.00230107 -0.00116052 2.49645e-18)
(0.00183598 -0.00113079 0)
(0.00105452 -0.00105597 -2.57387e-18)
(-5.80408e-05 -0.0009643 0)
(-0.00148506 -0.000900651 -5.30892e-18)
(-0.00323372 -0.0009355 2.69582e-18)
(-0.00530289 -0.00112298 0)
(-0.00769554 -0.00146615 0)
(-0.0105317 -0.00183854 -2.83502e-18)
(-0.0140821 -0.00194701 0)
(-0.0189102 -0.00123597 2.92932e-18)
(-0.0259672 0.00100094 0)
(-0.0365456 0.00514339 5.96685e-18)
(-0.0521081 0.0108558 -5.94682e-18)
(-0.0740219 0.0167942 5.85203e-18)
(-0.102836 0.0208131 -2.81734e-18)
(-0.137687 0.0210472 0)
(-0.1766 0.0164823 2.41059e-18)
(-0.216859 0.00694669 -2.1439e-18)
(-0.254854 -0.00674131 -4.17352e-18)
(-0.285838 -0.0225952 3.34799e-18)
(-0.304872 -0.0376063 -3.2226e-18)
(-0.309869 -0.0486643 3.37935e-18)
(-0.304962 -0.0553495 -3.80067e-18)
(-0.291577 -0.0587684 4.5563e-18)
(-0.270254 -0.0600431 -2.60269e-20)
(-0.241826 -0.0599042 6.83116e-18)
(-0.206652 -0.0585754 0)
(-0.164924 -0.0560195 0)
(-0.116977 -0.0522028 8.40043e-20)
(-0.0636762 -0.047152 0)
(-0.00642446 -0.0407936 1.97984e-17)
(0.0545122 -0.0327835 0)
(0.119247 -0.0230041 1.99319e-17)
(0.187238 -0.0116819 -4.93567e-19)
(0.257676 0.000897111 1.72212e-17)
(0.331808 0.0144072 2.99557e-17)
(0.40618 0.0284634 7.38523e-19)
(0.493881 0.042605 -1.01757e-17)
(0.559919 0.0551805 -6.54843e-18)
(0.715916 0.0660117 0)
(1.0153 0.210385 0)
(0.944633 0.194213 0)
(0.804472 0.179987 -3.51853e-18)
(0.654415 0.152317 7.26619e-18)
(0.509214 0.111174 0)
(0.360024 0.0683789 -7.26184e-18)
(0.216483 0.0293387 0)
(0.0821285 -0.00528193 0)
(-0.0282738 -0.0180533 0)
(-0.0563058 -0.018878 -1.72444e-17)
(-0.0668842 -0.0247819 1.56852e-17)
(-0.0720819 -0.0158089 1.43854e-17)
(-0.0642023 0.00614706 0)
(-0.0518873 0.0195638 6.29279e-18)
(-0.0560253 0.00805083 0)
(-0.0502393 -0.00485524 0)
(-0.0393782 -0.00577533 0)
(-0.0335189 -0.00238217 5.23946e-18)
(-0.0365304 -0.000119844 -1.02895e-17)
(-0.0381404 0.000147368 -5.07185e-18)
(-0.0382361 -0.000188347 0)
(-0.0365795 -0.000830518 0)
(-0.0332658 -0.00138134 0)
(-0.0295355 -0.00135566 -7.40612e-18)
(-0.0260417 -0.000779653 0)
(-0.0230742 3.93056e-05 4.95318e-18)
(-0.0208211 0.0008031 2.48434e-18)
(-0.0193942 0.00121719 0)
(-0.0188365 0.00113872 0)
(-0.019044 0.000764809 0)
(-0.019776 0.000333051 0)
(-0.0207535 -7.16818e-05 -6.32723e-19)
(-0.0218231 -0.000423909 0)
(-0.0229174 -0.000687424 3.20392e-19)
(-0.0240517 -0.000811259 1.61449e-19)
(-0.0252969 -0.000748654 0)
(-0.0267402 -0.000472295 0)
(-0.0284695 7.64637e-06 6.6345e-19)
(-0.0305439 0.000648593 0)
(-0.0330115 0.00140003 -1.35116e-18)
(-0.0358965 0.00221498 0)
(-0.0392046 0.00304394 -1.37602e-18)
(-0.0429173 0.00382992 0)
(-0.0469792 0.00451919 1.40288e-18)
(-0.0513055 0.00509162 1.41221e-18)
(-0.0557868 0.00560792 0)
(-0.0603351 0.00626487 0)
(-0.0649043 0.00745386 -2.93615e-18)
(-0.0694439 0.00970503 0)
(-0.0738981 0.0136493 7.59583e-21)
(-0.0783256 0.0199181 0)
(-0.0829796 0.0288728 0)
(-0.0882971 0.040073 0)
(-0.0948499 0.0518656 0)
(-0.102689 0.0616718 6.21336e-18)
(-0.11043 0.0669694 0)
(-0.115746 0.0658546 -5.67388e-18)
(-0.116617 0.0573023 2.72568e-18)
(-0.111118 0.0418349 -2.36417e-18)
(-0.0953776 0.0218071 -4.90695e-18)
(-0.065763 -0.000716581 4.96257e-18)
(-0.0457326 -0.026363 -5.37752e-18)
(-0.0226657 -0.0479704 6.20587e-18)
(0.00465979 -0.0636743 0)
(0.0350041 -0.0751118 -1.24286e-17)
(0.0691465 -0.0837485 -9.32651e-18)
(0.107859 -0.0901852 0)
(0.151378 -0.0942636 5.60517e-18)
(0.199303 -0.0955605 1.23761e-17)
(0.250951 -0.0938115 0)
(0.305541 -0.0889352 0)
(0.36239 -0.080961 0)
(0.420964 -0.0701096 0)
(0.480967 -0.0568162 -1.36665e-17)
(0.542124 -0.0417089 5.95618e-18)
(0.605275 -0.0255198 -1.18252e-17)
(0.668856 -0.00922456 1.02095e-17)
(0.740632 0.00611989 -3.48181e-18)
(0.797522 0.0180584 0)
(0.912825 0.0239086 0)
(0.978489 0.201539 0)
(0.978855 0.19301 -2.77478e-18)
(0.969154 0.205117 3.47113e-18)
(0.939081 0.20854 -3.05042e-18)
(0.878028 0.194616 2.87507e-18)
(0.785595 0.16873 2.83288e-18)
(0.669335 0.138088 0)
(0.540988 0.106026 0)
(0.408191 0.0750623 0)
(0.285878 0.0459353 6.84204e-18)
(0.173757 0.0180283 0)
(0.0721664 -0.00635064 0)
(-0.021219 -0.0137853 0)
(-0.0468249 -0.00348548 -7.15447e-18)
(-0.0513806 -0.0116218 0)
(-0.0603243 -0.0183482 -6.00585e-18)
(-0.0621298 -0.0116693 0)
(-0.0524714 0.00776888 5.82099e-18)
(-0.0503103 0.0150616 2.84903e-18)
(-0.0547751 0.0112303 0)
(-0.0568803 0.00482429 -2.76489e-18)
(-0.0584002 -0.00135678 0)
(-0.0581388 -0.00515841 0)
(-0.056143 -0.00636167 5.40011e-18)
(-0.0534143 -0.0059359 0)
(-0.0511809 -0.00475548 1.35387e-18)
(-0.0501794 -0.003178 -4.06808e-18)
(-0.0504906 -0.00126904 0)
(-0.0516364 0.000562782 0)
(-0.0530537 0.00183813 -6.79336e-19)
(-0.0547749 0.00258576 0)
(-0.0566233 0.00289059 -4.40617e-22)
(-0.0584752 0.00289287 0)
(-0.0602427 0.00277524 6.90068e-19)
(-0.0619245 0.00273762 8.69063e-20)
(-0.0635916 0.00290472 0)
(-0.0653466 0.0033315 1.76912e-19)
(-0.0672931 0.00399929 -3.57006e-19)
(-0.0694968 0.00486568 -3.60073e-19)
(-0.0719781 0.00587641 -7.25946e-19)
(-0.0747249 0.00697457 7.31384e-19)
(-0.0777044 0.00807579 7.3445e-19)
(-0.0808436 0.00905503 0)
(-0.0839947 0.00978404 1.49744e-18)
(-0.0869131 0.0101884 -3.02305e-18)
(-0.089248 0.0102979 0)
(-0.0905405 0.0103185 -1.55598e-18)
(-0.0902895 0.0107493 3.20226e-18)
(-0.0879085 0.0121003 0)
(-0.0827147 0.0150919 -1.69913e-18)
(-0.0740896 0.0204538 1.78581e-18)
(-0.0616162 0.0286503 -1.87285e-18)
(-0.0450136 0.0389898 -1.96248e-18)
(-0.0244021 0.0500609 0)
(-0.000120444 0.0595437 -4.05582e-18)
(0.0277425 0.0646537 -1.95329e-18)
(0.0591543 0.062856 1.67484e-18)
(0.0924496 0.0529255 1.57946e-18)
(0.126482 0.0340465 2.62838e-18)
(0.158085 0.00827826 0)
(0.187691 -0.0181713 0)
(0.214832 -0.0408169 0)
(0.242207 -0.0597683 -1.26044e-18)
(0.273132 -0.0764081 0)
(0.308801 -0.0913702 3.06983e-18)
(0.348649 -0.104514 0)
(0.391613 -0.115258 -1.91686e-18)
(0.436719 -0.122896 -4.34084e-18)
(0.483099 -0.126834 0)
(0.530023 -0.126757 -2.43916e-18)
(0.576962 -0.122679 2.55588e-18)
(0.623635 -0.114946 0)
(0.669983 -0.104189 0)
(0.716203 -0.091224 0)
(0.762545 -0.0769957 -5.43289e-18)
(0.809898 -0.0624997 0)
(0.85757 -0.0489626 -1.89246e-18)
(0.910511 -0.0375118 3.38702e-18)
(0.953267 -0.0305274 0)
(1.03536 -0.0292742 3.94705e-19)
(0.970611 0.209119 0)
(0.963917 0.194769 1.51887e-18)
(0.966431 0.19852 0)
(0.977154 0.206417 1.6889e-18)
(0.982036 0.208897 -2.99353e-18)
(0.968292 0.204281 -1.33592e-18)
(0.930742 0.193739 0)
(0.870739 0.177889 0)
(0.791096 0.156592 0)
(0.695359 0.13135 1.34601e-18)
(0.5894 0.105436 1.37749e-18)
(0.47997 0.0807183 0)
(0.369178 0.058032 0)
(0.266628 0.0376737 0)
(0.179622 0.0186013 0)
(0.100378 0.0027418 6.36856e-18)
(0.0295439 -0.00976624 -3.36877e-18)
(-0.0313377 -0.00941517 0)
(-0.0354404 0.000432515 -3.26042e-18)
(-0.0379589 0.00203079 1.60442e-18)
(-0.0389964 0.000686114 3.18108e-18)
(-0.0409913 -0.00221025 0)
(-0.0447557 -0.00489896 0)
(-0.0490952 -0.00591693 -3.08261e-18)
(-0.052369 -0.00473245 0)
(-0.0539372 -0.00179115 -1.52811e-18)
(-0.0547374 0.00181329 1.52931e-18)
(-0.0563874 0.00457282 0)
(-0.058115 0.00598871 0)
(-0.0600168 0.00661512 7.60415e-19)
(-0.0617711 0.00659656 0)
(-0.0632623 0.00610634 -7.6407e-19)
(-0.0643854 0.00533975 0)
(-0.0650723 0.00454766 -1.9393e-19)
(-0.0653889 0.00405958 -9.77902e-20)
(-0.0654264 0.0039943 -2.47387e-20)
(-0.0652938 0.00440735 -3.00223e-19)
(-0.0650228 0.00530843 4.04711e-19)
(-0.0645899 0.00659554 4.09543e-19)
(-0.0639287 0.00810329 1.24525e-18)
(-0.0629821 0.00966763 -4.18283e-19)
(-0.0617105 0.0111297 4.24237e-19)
(-0.0600265 0.012309 0)
(-0.0577484 0.0129597 8.73562e-19)
(-0.0546204 0.012781 8.97432e-19)
(-0.0503156 0.0115041 0)
(-0.0442833 0.00903122 1.889e-18)
(-0.0361272 0.0054256 9.68957e-19)
(-0.0256225 0.00138684 0)
(-0.0124475 -0.00234742 -3.21709e-18)
(0.00475408 -0.00485034 -2.22914e-18)
(0.0268042 -0.00516735 1.11747e-18)
(0.0534648 -0.00335842 2.20922e-18)
(0.0853761 -0.000264984 0)
(0.122671 0.00249876 1.02035e-18)
(0.164547 0.00285541 2.79426e-18)
(0.209638 -0.00116228 1.65261e-18)
(0.255949 -0.0105118 -1.4448e-18)
(0.3023 -0.0244636 -6.66885e-19)
(0.34772 -0.0412025 0)
(0.391642 -0.059766 0)
(0.434198 -0.0789959 0)
(0.476277 -0.0978245 1.64992e-18)
(0.518726 -0.115551 6.20156e-19)
(0.561469 -0.131553 0)
(0.603716 -0.145072 -1.50427e-18)
(0.644603 -0.155296 1.6772e-18)
(0.683529 -0.161574 -1.82259e-18)
(0.720198 -0.163567 -1.97902e-18)
(0.754599 -0.161291 1.27587e-19)
(0.786977 -0.155099 -2.39953e-18)
(0.817795 -0.145616 0)
(0.847661 -0.133656 0)
(0.877287 -0.120123 0)
(0.907312 -0.105971 0)
(0.938662 -0.0921456 0)
(0.971006 -0.0797321 3.69197e-18)
(1.00769 -0.0695918 -1.35047e-18)
(1.03783 -0.0636475 0)
(1.09501 -0.0616427 -4.25806e-19)
(0.972988 0.216083 0)
(0.965832 0.201811 1.86372e-18)
(0.959207 0.195606 2.48392e-19)
(0.96149 0.195554 1.90092e-18)
(0.972671 0.197548 0)
(0.985523 0.19925 -1.60189e-18)
(0.9925 0.199314 0)
(0.988451 0.196275 -3.61273e-19)
(0.970208 0.18906 0)
(0.935609 0.1776 -1.6e-18)
(0.884693 0.162797 -1.23832e-18)
(0.819562 0.145715 -3.14219e-19)
(0.743231 0.126773 3.11852e-19)
(0.657984 0.106144 0)
(0.569056 0.0853084 3.11692e-19)
(0.479276 0.0662724 0)
(0.393386 0.0502969 2.64078e-18)
(0.314048 0.0364059 -3.49462e-19)
(0.246935 0.0243691 0)
(0.192003 0.0147713 -1.88957e-18)
(0.147068 0.0078559 0)
(0.109563 0.00328314 0)
(0.0784003 0.000699599 0)
(0.0519728 -0.000817677 0)
(0.0300007 -0.001865 -2.21307e-19)
(0.0129436 -0.0023135 0)
(-0.000198735 -0.00157892 0)
(-0.00623824 0.000502273 1.14615e-19)
(-0.00848408 0.00216766 0)
(-0.00862781 0.00327271 0)
(-0.00733409 0.00376904 0)
(-0.0051592 0.00375484 -5.80017e-20)
(-0.00243185 0.00339161 0)
(0.00113489 0.00284229 -2.6772e-19)
(0.00462055 0.00289622 0)
(0.008676 0.00333947 3.01937e-20)
(0.0133868 0.00406951 1.52049e-19)
(0.0190204 0.0049777 3.06587e-20)
(0.0257341 0.00582263 -6.15706e-20)
(0.0335609 0.00633926 -4.91658e-19)
(0.0426768 0.00651002 -4.90972e-19)
(0.0533334 0.00634934 4.88691e-19)
(0.065792 0.00570698 -1.21147e-19)
(0.0802433 0.00432814 -9.5887e-19)
(0.096898 0.0019869 9.46368e-19)
(0.115907 -0.00141213 -1.1622e-19)
(0.136877 -0.00580836 0)
(0.159773 -0.0111369 -9.12882e-19)
(0.184937 -0.0169377 0)
(0.211958 -0.0227067 9.01547e-19)
(0.240593 -0.0279175 0)
(0.271027 -0.032303 9.00316e-19)
(0.303632 -0.0358079 0)
(0.338874 -0.0386974 -2.1861e-19)
(0.377158 -0.0416299 -8.39278e-19)
(0.418581 -0.0455656 -7.84664e-19)
(0.462736 -0.0515288 1.82425e-19)
(0.508672 -0.0603062 0)
(0.555045 -0.0723426 5.65972e-19)
(0.600422 -0.0873566 -1.40055e-19)
(0.643834 -0.104447 0)
(0.684814 -0.122273 1.35118e-19)
(0.72317 -0.139472 -5.16022e-19)
(0.758729 -0.155005 -5.65559e-19)
(0.791173 -0.168094 0)
(0.820144 -0.178074 1.41908e-18)
(0.845464 -0.184416 0)
(0.867269 -0.18683 1.78149e-18)
(0.886002 -0.185321 1.96773e-18)
(0.902347 -0.180187 2.14209e-18)
(0.917135 -0.171956 2.67579e-19)
(0.931272 -0.161322 0)
(0.945645 -0.149072 0)
(0.961091 -0.13602 0)
(0.978248 -0.122979 -2.69455e-19)
(0.997868 -0.110727 0)
(1.01957 -0.100094 -1.68115e-18)
(1.04585 -0.0917421 1.65563e-18)
(1.0678 -0.0868944 1.04257e-19)
(1.11149 -0.0854038 4.51953e-20)
(0.974194 0.218515 -1.22818e-18)
(0.970935 0.206367 1.18878e-18)
(0.96512 0.198177 -2.81077e-19)
(0.96114 0.19412 0)
(0.9622 0.191953 0)
(0.968264 0.190558 0)
(0.977778 0.189903 0)
(0.988511 0.189506 1.24808e-18)
(0.99744 0.188341 0)
(1.00094 0.185401 -1.11572e-18)
(0.995778 0.18001 -1.39065e-18)
(0.979839 0.171969 3.18776e-19)
(0.952662 0.161507 9.62954e-19)
(0.914306 0.148716 0)
(0.865595 0.133797 -1.46875e-18)
(0.808176 0.117886 0)
(0.745987 0.102499 -1.17381e-18)
(0.683558 0.0880002 2.93482e-19)
(0.622796 0.0744088 -1.22756e-18)
(0.565723 0.0621209 -9.45309e-19)
(0.513175 0.0513407 0)
(0.465473 0.0420623 0)
(0.422795 0.0341655 -6.80001e-19)
(0.385091 0.0275592 0)
(0.352247 0.0221123 -5.40334e-19)
(0.324065 0.0176538 0)
(0.300165 0.013927 0)
(0.280363 0.01068 -9.51979e-20)
(0.264576 0.00790398 0)
(0.252513 0.00554721 0)
(0.243785 0.00347087 0)
(0.237956 0.00154227 5.01317e-20)
(0.234593 -0.000305177 2.03348e-19)
(0.233596 -0.00199354 1.28447e-19)
(0.234841 -0.0039888 0)
(0.238398 -0.00601299 0)
(0.244256 -0.0077414 -2.60918e-20)
(0.252446 -0.00911854 -1.31331e-19)
(0.26311 -0.0102802 5.22571e-20)
(0.27628 -0.011436 0)
(0.291826 -0.0128076 0)
(0.309701 -0.0146104 -2.04656e-19)
(0.329961 -0.0170611 9.99907e-20)
(0.352571 -0.0203713 -3.94882e-19)
(0.377303 -0.024691 3.86981e-19)
(0.403783 -0.0300363 9.39122e-20)
(0.431551 -0.0362693 0)
(0.460182 -0.0429885 3.71108e-19)
(0.489384 -0.0498492 0)
(0.518894 -0.0564828 0)
(0.54859 -0.0625296 0)
(0.578553 -0.0677752 0)
(0.609011 -0.0722455 0)
(0.640235 -0.0762551 1.83558e-19)
(0.672425 -0.0804034 0)
(0.705568 -0.0854757 6.96433e-19)
(0.739337 -0.0922567 -1.59964e-19)
(0.773065 -0.1013 0)
(0.805841 -0.112725 5.95834e-19)
(0.836702 -0.126062 1.29925e-19)
(0.864834 -0.140404 5.67719e-19)
(0.889659 -0.154675 -1.30048e-19)
(0.910831 -0.16786 0)
(0.928223 -0.179148 -6.44594e-19)
(0.941878 -0.187938 0)
(0.952014 -0.193794 0)
(0.959056 -0.196456 -8.29752e-19)
(0.963659 -0.195876 0)
(0.966654 -0.192228 0)
(0.968967 -0.18588 -1.04523e-18)
(0.971528 -0.177347 -2.9205e-19)
(0.9752 -0.16723 0)
(0.980726 -0.156172 0)
(0.988725 -0.144817 0)
(0.999589 -0.13379 3.01049e-19)
(1.0138 -0.123684 -1.02852e-18)
(1.03078 -0.115099 -2.40435e-19)
(1.05262 -0.108519 -1.8891e-19)
(1.07111 -0.104671 -1.18073e-19)
(1.10954 -0.103583 -2.40955e-19)
(0.974501 0.219011 4.34046e-18)
(0.973757 0.208038 -4.16781e-18)
(0.971715 0.200429 0)
(0.96916 0.196218 -2.52871e-18)
(0.967056 0.192947 0)
(0.966169 0.189325 -2.22952e-18)
(0.967426 0.185835 0)
(0.971679 0.183031 2.96881e-18)
(0.978991 0.18076 -3.68594e-18)
(0.988302 0.178524 1.68281e-18)
(0.997717 0.175825 1.57307e-18)
(1.00501 0.172215 0)
(1.00815 0.16734 -4.25378e-18)
(1.00549 0.160777 -2.70885e-18)
(0.995634 0.15218 3.80633e-18)
(0.977825 0.141856 0)
(0.953058 0.130674 1.16533e-18)
(0.923748 0.119379 0)
(0.89168 0.108153 1.16139e-18)
(0.858143 0.0969907 1.16104e-18)
(0.82417 0.0860989 0)
(0.790745 0.0757581 0)
(0.758739 0.0661815 -6.36466e-19)
(0.728829 0.0574804 0)
(0.701463 0.0496325 6.18257e-19)
(0.676878 0.0425498 0)
(0.655209 0.0361342 0)
(0.63652 0.0302852 0)
(0.620863 0.0248897 0)
(0.608202 0.0198324 0)
(0.598452 0.015015 0)
(0.591497 0.0103749 0)
(0.587212 0.00587979 1.75895e-19)
(0.585323 0.00149617 -8.53641e-20)
(0.585549 -0.00280563 4.38224e-20)
(0.588026 -0.00698015 0)
(0.592622 -0.0109934 0)
(0.599215 -0.014882 8.69115e-20)
(0.607785 -0.0187554 -3.5489e-19)
(0.618324 -0.0227496 3.54198e-19)
(0.630793 -0.0269804 0)
(0.645133 -0.0315555 8.71301e-19)
(0.661243 -0.0365954 -6.93952e-19)
(0.678927 -0.0422094 -3.52759e-19)
(0.69787 -0.0484407 -3.30464e-19)
(0.717676 -0.055221 0)
(0.737918 -0.0623617 0)
(0.758208 -0.0695764 -1.00337e-18)
(0.778251 -0.0765752 0)
(0.797865 -0.0830873 0)
(0.816993 -0.0889078 0)
(0.835715 -0.0939741 7.07074e-19)
(0.854205 -0.0984177 1.42591e-18)
(0.872654 -0.102568 0)
(0.891178 -0.106915 0)
(0.909725 -0.112018 -6.74534e-19)
(0.928013 -0.118374 0)
(0.945533 -0.126269 1.32872e-18)
(0.961618 -0.135664 6.97985e-19)
(0.975569 -0.146176 0)
(0.986808 -0.157157 7.02283e-19)
(0.994988 -0.167844 1.3243e-18)
(1.00003 -0.177489 1.38411e-18)
(1.00213 -0.185465 6.94064e-19)
(1.00168 -0.191318 -1.57648e-18)
(0.999217 -0.194765 1.70173e-18)
(0.995408 -0.195689 2.75823e-18)
(0.991012 -0.194132 0)
(0.986827 -0.190287 0)
(0.983623 -0.184473 1.17438e-18)
(0.982088 -0.177097 0)
(0.982796 -0.168624 2.46804e-18)
(0.986192 -0.159543 2.50705e-18)
(0.992621 -0.150354 0)
(1.00224 -0.141548 2.3891e-18)
(1.01535 -0.133589 -1.03495e-18)
(1.03129 -0.126936 0)
(1.05196 -0.121945 0)
(1.0695 -0.119067 0)
(1.1063 -0.11842 -1.92741e-19)
(0.974733 0.218939 -3.34379e-18)
(0.975458 0.208204 3.201e-18)
(0.976057 0.201063 -6.21717e-18)
(0.975938 0.197373 2.85997e-18)
(0.974877 0.194469 0)
(0.973204 0.190798 2.52152e-18)
(0.971492 0.1866 -4.82688e-18)
(0.970481 0.182359 -4.47484e-18)
(0.971006 0.178156 -7.91281e-20)
(0.973724 0.173985 0)
(0.978836 0.169913 0)
(0.98601 0.165912 3.58308e-18)
(0.994428 0.16175 3.27858e-18)
(1.00292 0.15701 -3.26452e-18)
(1.01005 0.151297 -8.85917e-18)
(1.01438 0.144515 0)
(1.01501 0.136964 0)
(1.01196 0.128944 0)
(1.00574 0.120444 0)
(0.996793 0.111452 0)
(0.985639 0.102177 0)
(0.972902 0.0928999 0)
(0.959267 0.0838411 1.23432e-18)
(0.945369 0.0751149 -2.57537e-18)
(0.931737 0.0667513 0)
(0.918783 0.0587461 0)
(0.906834 0.0510841 0)
(0.896145 0.0437218 0)
(0.886889 0.0365821 0)
(0.879166 0.0296006 -6.5809e-19)
(0.873018 0.0227396 0)
(0.868444 0.0159792 0)
(0.865393 0.00931935 1.29409e-20)
(0.863777 0.00273342 0)
(0.863492 -0.00351099 -4.09081e-20)
(0.864476 -0.00946848 0)
(0.866692 -0.0152136 1.71225e-19)
(0.870099 -0.0207904 0)
(0.874668 -0.0262744 6.77082e-19)
(0.880358 -0.0317756 -3.32889e-19)
(0.887091 -0.037406 -6.90021e-19)
(0.894747 -0.0432676 -6.63813e-19)
(0.903169 -0.0494465 6.61684e-19)
(0.912144 -0.0559883 6.59594e-19)
(0.921407 -0.062868 1.37516e-18)
(0.930666 -0.0699756 1.37897e-18)
(0.939646 -0.077127 0)
(0.948131 -0.0840922 -7.30769e-19)
(0.955997 -0.0906478 0)
(0.963227 -0.0966182 0)
(0.969898 -0.101909 -1.47306e-18)
(0.976172 -0.106541 -7.27302e-19)
(0.982255 -0.110672 4.20729e-20)
(0.98833 -0.114591 0)
(0.994491 -0.118679 0)
(1.00068 -0.123339 0)
(1.00668 -0.128911 1.52948e-18)
(1.01208 -0.135573 -1.43661e-18)
(1.01643 -0.143282 -1.41645e-18)
(1.01925 -0.151751 0)
(1.02022 -0.160504 -1.42927e-18)
(1.01921 -0.168963 9.97617e-20)
(1.01634 -0.176563 -1.5508e-18)
(1.01192 -0.18283 1.72795e-18)
(1.00641 -0.18743 -5.42673e-20)
(1.00036 -0.190167 -1.92819e-18)
(0.994333 -0.190962 -2.0888e-18)
(0.988923 -0.189844 0)
(0.98468 -0.186946 0)
(0.982088 -0.18249 0)
(0.98155 -0.176772 0)
(0.983383 -0.170145 -2.80037e-18)
(0.987823 -0.163004 -2.84279e-18)
(0.995068 -0.155766 0)
(1.0052 -0.148852 -2.70702e-18)
(1.01846 -0.142661 4.88452e-18)
(1.03426 -0.137574 0)
(1.05447 -0.133844 0)
(1.07156 -0.131789 0)
(1.10724 -0.13138 9.12802e-19)
(0.975035 0.218503 8.31565e-18)
(0.977128 0.207478 0)
(0.979624 0.200813 1.42305e-17)
(0.980944 0.197726 0)
(0.98075 0.195187 6.19353e-18)
(0.979842 0.191831 0)
(0.978662 0.187919 5.45465e-18)
(0.977191 0.183681 0)
(0.975617 0.179017 -5.01962e-18)
(0.974458 0.173928 0)
(0.974298 0.168588 8.84922e-18)
(0.975618 0.163159 -4.09569e-18)
(0.978718 0.157675 0)
(0.983618 0.152037 7.2775e-18)
(0.98997 0.146093 -1.87124e-19)
(0.997117 0.139761 -6.65287e-18)
(1.00419 0.133178 6.44709e-18)
(1.01051 0.126433 0)
(1.0157 0.119384 0)
(1.01951 0.111936 6.05788e-18)
(1.0218 0.104161 0)
(1.02263 0.0962047 -2.94753e-18)
(1.0222 0.0881878 0)
(1.0208 0.0801865 2.79215e-18)
(1.01871 0.0722419 0)
(1.0162 0.0643771 2.88393e-18)
(1.01349 0.0565998 0)
(1.01078 0.0488963 0)
(1.00822 0.0412413 1.43969e-18)
(1.00591 0.0336217 6.91293e-19)
(1.00392 0.0260435 0)
(1.00228 0.0185288 0)
(1.00099 0.0111195 -1.08212e-18)
(1.00008 0.00389181 0)
(0.999539 -0.00306348 0)
(0.999334 -0.00976516 0)
(0.999516 -0.0162618 -1.78581e-19)
(1.00012 -0.0225948 0)
(1.00115 -0.0288264 -1.11007e-18)
(1.00257 -0.0350411 -7.52405e-19)
(1.00435 -0.0413213 7.25524e-19)
(1.00637 -0.0477304 0)
(1.00852 -0.0543047 0)
(1.01065 -0.0610432 1.52506e-18)
(1.0126 -0.0678962 -1.46904e-18)
(1.01418 -0.0747605 -1.48029e-18)
(1.01528 -0.0814912 0)
(1.01584 -0.087925 -6.25255e-20)
(1.01586 -0.0939146 1.6095e-18)
(1.01546 -0.0993611 0)
(1.01478 -0.104235 1.6204e-18)
(1.01405 -0.108592 1.70529e-18)
(1.01345 -0.112587 -1.68747e-18)
(1.01317 -0.116462 0)
(1.01326 -0.120513 0)
(1.01369 -0.12504 0)
(1.01427 -0.130285 -1.72121e-18)
(1.01472 -0.136371 0)
(1.0147 -0.143252 0)
(1.01392 -0.150711 0)
(1.01218 -0.158389 3.67487e-18)
(1.00944 -0.165854 -1.7947e-18)
(1.00581 -0.172675 0)
(1.00157 -0.178481 -1.97101e-18)
(0.997073 -0.18299 -2.19491e-18)
(0.992702 -0.18601 4.52889e-18)
(0.98885 -0.187436 -4.79138e-18)
(0.985886 -0.187247 -5.06453e-18)
(0.984137 -0.185508 0)
(0.983883 -0.18237 -5.58479e-18)
(0.985357 -0.178063 0)
(0.988756 -0.172887 0)
(0.994255 -0.167197 0)
(1.00204 -0.161383 5.92042e-18)
(1.01222 -0.155843 -5.68323e-18)
(1.02512 -0.150948 -7.94596e-18)
(1.04025 -0.147022 0)
(1.05951 -0.144245 3.59519e-18)
(1.07581 -0.142814 0)
(1.10988 -0.142516 -1.50202e-18)
(0.975434 0.217691 -9.4325e-18)
(0.979143 0.206092 -9.18212e-18)
(0.983424 0.200248 -1.63903e-17)
(0.985582 0.198001 0)
(0.985489 0.195686 -1.40827e-17)
(0.984791 0.192424 -6.70885e-18)
(0.984207 0.188739 0)
(0.983463 0.184737 1.19559e-17)
(0.982368 0.180216 1.11599e-17)
(0.981052 0.175124 0)
(0.97973 0.169551 -1.00079e-17)
(0.978641 0.163594 0)
(0.978102 0.157316 0)
(0.978446 0.150741 8.67464e-18)
(0.979893 0.14387 8.03794e-18)
(0.982506 0.136738 -1.82452e-19)
(0.986135 0.129556 1.84532e-19)
(0.990508 0.122477 0)
(0.995331 0.115402 0)
(1.00026 0.108214 -6.94139e-18)
(1.00495 0.100891 -7.03338e-18)
(1.00919 0.0934763 1.03085e-17)
(1.01288 0.0860172 3.43641e-18)
(1.01601 0.0785444 3.40857e-18)
(1.01861 0.0710732 0)
(1.02073 0.0636079 -3.25764e-18)
(1.02243 0.0561458 0)
(1.02375 0.0486773 0)
(1.02475 0.0411925 -3.28896e-18)
(1.02544 0.0336918 0)
(1.02584 0.0261918 0)
(1.02596 0.0187266 0)
(1.02582 0.0113457 8.16531e-19)
(1.02545 0.00413221 -4.26066e-19)
(1.02494 -0.00291732 2.13227e-19)
(1.02432 -0.00976485 0)
(1.02368 -0.0164158 0)
(1.02308 -0.0229054 0)
(1.02255 -0.0292846 8.36888e-19)
(1.0221 -0.0356144 8.40876e-19)
(1.02171 -0.0419521 -1.74928e-18)
(1.02131 -0.0483395 0)
(1.02084 -0.0547971 0)
(1.02022 -0.0613179 -3.49177e-18)
(1.01935 -0.0678605 -1.79008e-18)
(1.01815 -0.0743468 0)
(1.01658 -0.080671 0)
(1.01467 -0.0867188 1.79229e-18)
(1.01248 -0.0923916 5.83886e-20)
(1.01013 -0.0976299 0)
(1.0078 -0.10243 0)
(1.00565 -0.106853 -1.94004e-18)
(1.00387 -0.111033 0)
(1.00256 -0.115163 0)
(1.00178 -0.119474 0)
(1.00149 -0.124193 0)
(1.00154 -0.129501 0)
(1.00173 -0.135487 -4.23222e-18)
(1.00181 -0.142118 0)
(1.00155 -0.149227 0)
(1.00082 -0.156539 1.72127e-19)
(0.999563 -0.163713 0)
(0.997864 -0.170393 0)
(0.995889 -0.176249 0)
(0.993861 -0.181009 9.8302e-18)
(0.992026 -0.18447 -5.13081e-18)
(0.990621 -0.186496 5.42017e-18)
(0.989864 -0.187033 1.05719e-20)
(0.989952 -0.186106 0)
(0.991063 -0.183832 6.29928e-18)
(0.99337 -0.180414 -6.41987e-18)
(0.997058 -0.17614 0)
(1.00233 -0.171358 0)
(1.00943 -0.166459 -1.54125e-19)
(1.01857 -0.161839 6.42689e-18)
(1.03018 -0.157859 5.93643e-18)
(1.04391 -0.154794 0)
(1.06169 -0.15278 -4.08231e-18)
(1.07682 -0.151814 0)
(1.10906 -0.151647 1.13225e-18)
(0.975986 0.216475 0)
(0.981693 0.204217 2.11527e-17)
(0.98777 0.19965 1.8763e-17)
(0.990443 0.198416 0)
(0.990126 0.196243 8.00325e-18)
(0.989276 0.192984 -7.74503e-18)
(0.98878 0.189402 0)
(0.988292 0.185479 -1.35191e-17)
(0.987626 0.18102 0)
(0.986873 0.176022 0)
(0.986068 0.170544 0)
(0.985184 0.164615 0)
(0.984257 0.158242 0)
(0.983408 0.15143 1.82787e-19)
(0.982782 0.144185 -9.49025e-18)
(0.982522 0.136561 -1.82292e-19)
(0.98277 0.128813 1.83752e-19)
(0.983624 0.121176 0)
(0.985079 0.11363 0)
(0.987014 0.106103 0)
(0.989243 0.0985759 -2.02816e-19)
(0.991599 0.0910726 2.06633e-19)
(0.993974 0.0836208 -3.93517e-18)
(0.996297 0.0762306 -3.90446e-18)
(0.998519 0.0688968 0)
(1.0006 0.0616058 -3.96888e-18)
(1.0025 0.0543421 3.95593e-18)
(1.00419 0.0470903 0)
(1.00563 0.0398379 1.91576e-18)
(1.00681 0.0325828 1.97387e-18)
(1.00769 0.025338 0)
(1.00825 0.0181325 0)
(1.00849 0.0110071 9.98434e-19)
(1.00846 0.00401337 -1.48875e-20)
(1.00822 -0.00285222 -4.93697e-19)
(1.00782 -0.00955041 0)
(1.00734 -0.0160794 0)
(1.00685 -0.0224732 -1.01251e-18)
(1.00637 -0.0287767 0)
(1.00592 -0.0350372 -1.02205e-18)
(1.0055 -0.0412981 -5.83963e-20)
(1.00509 -0.0475904 0)
(1.00463 -0.053927 2.07589e-18)
(1.00408 -0.0602978 4.11699e-18)
(1.00338 -0.0666654 2.04315e-18)
(1.00249 -0.0729653 0)
(1.00139 -0.0791144 -4.29125e-18)
(1.0001 -0.085026 0)
(0.998683 -0.0906283 -2.14849e-18)
(0.997238 -0.0958817 0)
(0.995887 -0.100792 0)
(0.994762 -0.105419 0)
(0.993984 -0.109875 0)
(0.993641 -0.114321 0)
(0.993766 -0.118942 -4.83395e-18)
(0.994325 -0.123922 4.87883e-18)
(0.995215 -0.129406 0)
(0.996278 -0.135463 4.80266e-18)
(0.997329 -0.142066 -4.98242e-18)
(0.998195 -0.149082 0)
(0.99875 -0.156279 -4.9385e-18)
(0.998937 -0.163367 0)
(0.998779 -0.170026 0)
(0.998356 -0.175951 0)
(0.997788 -0.180871 -5.60094e-18)
(0.997205 -0.184571 5.92675e-18)
(0.996736 -0.186898 -6.17429e-18)
(0.996508 -0.187773 1.28693e-17)
(0.996655 -0.187209 -6.69511e-18)
(0.99733 -0.185311 0)
(0.998727 -0.182287 7.24946e-18)
(1.00109 -0.178437 -7.30598e-18)
(1.00472 -0.174127 0)
(1.00996 -0.169764 -1.25314e-19)
(1.01715 -0.16575 -7.02737e-18)
(1.02682 -0.162446 0)
(1.03873 -0.160072 0)
(1.05491 -0.158763 -4.55269e-18)
(1.06887 -0.158179 0)
(1.09981 -0.158345 -1.28569e-18)
(0.976761 0.214805 0)
(0.984936 0.202012 -1.21872e-17)
(0.992772 0.199207 -1.06703e-17)
(0.995651 0.198996 0)
(0.994986 0.196878 1.83666e-17)
(0.993963 0.193645 1.73436e-17)
(0.993398 0.190152 0)
(0.99284 0.18622 1.56131e-17)
(0.992178 0.181705 -1.48258e-17)
(0.991582 0.176686 0)
(0.991105 0.171231 0)
(0.990676 0.165347 0)
(0.990235 0.159026 0)
(0.98976 0.15225 -1.12782e-17)
(0.989243 0.145006 -1.10833e-17)
(0.988689 0.137318 1.01849e-17)
(0.988172 0.129422 -3.0148e-17)
(0.987812 0.121567 0)
(0.987692 0.113772 0)
(0.987813 0.106 9.66042e-18)
(0.988125 0.0982551 1.88933e-17)
(0.988578 0.0905688 -9.25077e-18)
(0.98914 0.082972 0)
(0.989797 0.0754752 0)
(0.99053 0.0680725 -4.6401e-18)
(0.991314 0.0607496 9.14055e-18)
(0.992117 0.0534901 -9.11695e-18)
(0.992908 0.0462778 0)
(0.99365 0.039099 0)
(0.994306 0.0319489 -2.24951e-18)
(0.994839 0.0248356 0)
(0.995224 0.0177791 2.32091e-18)
(0.995448 0.0108067 -1.13739e-18)
(0.995538 0.00394261 -1.44899e-20)
(0.995523 -0.0028061 -7.22159e-21)
(0.995437 -0.00941748 0)
(0.995326 -0.0158924 0)
(0.995241 -0.0222586 -2.84323e-20)
(0.995213 -0.028553 1.1844e-18)
(0.995258 -0.0348129 3.54105e-18)
(0.995373 -0.0410715 4.72465e-18)
(0.995538 -0.0473511 2.40307e-18)
(0.99572 -0.0536585 -2.35703e-18)
(0.995876 -0.0599805 -2.3709e-18)
(0.995959 -0.0662828 2.44711e-18)
(0.995932 -0.0725107 0)
(0.995774 -0.0785964 4.86546e-18)
(0.995492 -0.0844708 -5.04131e-18)
(0.995123 -0.0900788 0)
(0.994732 -0.095393 0)
(0.994406 -0.100425 0)
(0.99424 -0.105229 0)
(0.994323 -0.109908 0)
(0.994722 -0.114598 0)
(0.995463 -0.119458 5.45863e-18)
(0.996523 -0.12464 -1.11348e-17)
(0.997824 -0.130263 -5.67661e-18)
(0.999243 -0.136383 5.72183e-18)
(1.00063 -0.142973 5.61836e-18)
(1.00183 -0.14991 -5.83013e-18)
(1.00271 -0.156991 5.90966e-18)
(1.00319 -0.163948 0)
(1.00323 -0.170483 6.15263e-18)
(1.00282 -0.176297 -6.32233e-18)
(1.002 -0.181119 0)
(1.00079 -0.184723 -1.34367e-17)
(0.99928 -0.186948 6.96802e-18)
(0.997559 -0.187717 -1.45502e-17)
(0.995781 -0.187049 7.57941e-18)
(0.994168 -0.185075 0)
(0.993017 -0.182032 8.05613e-18)
(0.992703 -0.17825 8.32827e-18)
(0.993655 -0.174127 -8.31346e-18)
(0.996359 -0.170088 -8.34803e-18)
(1.00124 -0.166536 8.06429e-18)
(1.00892 -0.16383 0)
(1.01921 -0.162123 0)
(1.03428 -0.161598 5.24311e-18)
(1.04751 -0.161418 0)
(1.07851 -0.16229 1.48393e-18)
(0.977833 0.212618 1.61654e-17)
(0.988995 0.199651 0)
(0.998473 0.199061 -2.40204e-17)
(1.00125 0.199738 2.17591e-17)
(1.00018 0.197596 -2.07503e-17)
(0.999036 0.194443 1.99027e-17)
(0.998408 0.191044 0)
(0.997736 0.187073 1.6007e-19)
(0.996963 0.182473 1.67383e-17)
(0.996301 0.177389 0)
(0.995823 0.171884 0)
(0.995483 0.165962 0)
(0.99524 0.159621 2.76078e-17)
(0.995068 0.15285 0)
(0.994926 0.145632 2.45947e-17)
(0.994762 0.137974 0)
(0.994566 0.130086 4.59942e-17)
(0.994378 0.122206 0)
(0.994238 0.114362 0)
(0.994149 0.10653 -2.199e-17)
(0.99409 0.0987162 -1.07697e-17)
(0.994046 0.0909554 0)
(0.994024 0.0832785 0)
(0.994042 0.0756995 0)
(0.994114 0.0682175 5.23941e-18)
(0.994246 0.0608233 -5.22216e-18)
(0.994432 0.0535047 -1.08017e-19)
(0.99466 0.0462488 0)
(0.994913 0.039044 5.31658e-18)
(0.995168 0.0318866 0)
(0.995401 0.024783 0)
(0.995589 0.0177476 -2.62332e-18)