/*--------------------------------*- C++ -*----------------------------------*\
| =========                 |                                                 |
| \\      /  F ield         | OpenFOAM: The Open Source CFD Toolbox           |
|  \\    /   O peration     | Version:  v1912                                 |
|   \\  /    A nd           | Website:  www.openfoam.com                      |
|    \\/     M anipulation  |                                                 |
\*---------------------------------------------------------------------------*/
FoamFile
{
    version     2.0;
    format      ascii;
    class       volScalarField;
    location    "350";
    object      epsilon;
}
// * * * * * * * * * * * * * * * * * * * * * * * * * * * * * * * * * * * * * //

dimensions      [0 2 -3 0 0 0 0];


internalField   nonuniform List<scalar> 
12441
(
0.0102963
0.00908479
0.00832693
0.0077025
0.00718357
0.00674888
0.0063822
0.00607077
0.00580488
0.00557625
0.00537901
0.00520755
0.00504913
0.00491752
0.00480249
0.00469597
0.00485519
0.0199713
0.271458
3.01928
20.9557
39.25
0.0101187
0.00891984
0.00818373
0.00757666
0.00707175
0.00664847
0.00629123
0.00598765
0.00572842
0.00550545
0.00531316
0.00514604
0.00499067
0.00486273
0.00475121
0.00464945
0.00478774
0.0197157
0.255673
3.01162
21.2466
40.2318
0.00989668
0.00871708
0.00800004
0.00740884
0.00691727
0.00650531
0.00615776
0.00586257
0.0056107
0.00539428
0.00520793
0.00504633
0.00489593
0.00477318
0.00466688
0.00456973
0.00464038
0.0178789
0.216607
2.98099
21.6267
41.3784
0.0096731
0.00851343
0.00781466
0.00723859
0.00675968
0.00635842
0.00601999
0.00573271
0.00548775
0.00527748
0.00509669
0.00494024
0.00479537
0.00467747
0.00457592
0.00448496
0.00450183
0.0156661
0.178391
2.95852
22.0946
42.5504
0.00942888
0.00828882
0.00760877
0.00704833
0.00658259
0.00619256
0.00586382
0.00558499
0.00534752
0.00514401
0.00496942
0.00481884
0.00467936
0.00456731
0.00447175
0.00438711
0.00435463
0.0136765
0.15888
2.96542
22.6121
43.6698
0.0092229
0.0080992
0.00743436
0.00688654
0.00643136
0.00605025
0.0057291
0.00545683
0.00522503
0.00502653
0.00485642
0.00470995
0.00457521
0.00446714
0.00437552
0.00429597
0.0042802
0.0138189
0.178457
3.07173
23.2412
44.7472
0.00900225
0.00789561
0.00724722
0.00671311
0.00626949
0.00589824
0.00558559
0.00532072
0.00509547
0.00490286
0.00473812
0.00459668
0.00446636
0.0043641
0.0042756
0.00420279
0.00603502
0.0229074
0.283856
3.37102
24.0814
45.7945
0.00882379
0.00773095
0.0070954
0.00657189
0.00613711
0.00577327
0.00546688
0.00520735
0.00498668
0.00479803
0.00463677
0.00449845
0.00437219
0.00427402
0.0041933
0.00516811
0.034436
0.0793991
0.596155
4.00137
25.2551
46.8732
0.00862966
0.00755176
0.00693071
0.00641932
0.00599474
0.0056396
0.00534069
0.0050877
0.00487277
0.00468927
0.00453267
0.0043987
0.00427647
0.00414539
0.00540037
0.0269897
0.175612
0.29784
1.27934
5.11163
26.892
48.0153
0.00847496
0.00740887
0.00679881
0.00629647
0.00587941
0.00553055
0.00523692
0.00498838
0.00477724
0.004597
0.00444323
0.00431194
0.00419273
0.00427379
0.0252316
0.148886
0.522299
0.790246
2.35863
6.75956
29.0861
49.2846
0.00830553
0.00725242
0.00665509
0.00616337
0.00575525
0.00541402
0.00512695
0.00488413
0.00467801
0.00450224
0.00435247
0.00422591
0.00407699
0.00950034
0.113449
0.428045
1.02635
1.50314
3.62619
8.84345
31.8631
50.6975
0.0081705
0.00712771
0.00653995
0.00605608
0.00565446
0.00531863
0.00503608
0.00479706
0.00459415
0.00442111
0.0042737
0.00415082
0.00415502
0.0483545
0.317044
0.795494
1.51335
2.22505
4.82587
11.1507
35.1697
52.295
0.00802138
0.00699006
0.00641364
0.00593923
0.00554559
0.00521654
0.00493982
0.00470587
0.00450739
0.00433827
0.00419435
0.00403781
0.00836293
0.16379
0.582944
1.12354
1.88575
2.80973
5.83487
13.4697
38.8978
54.0597
0.00790048
0.00687842
0.00631056
0.00584318
0.00545535
0.00513114
0.00485846
0.00462791
0.00443231
0.00426566
0.00412386
0.00388274
0.036962
0.337806
0.81606
1.36298
2.14503
3.23827
6.64693
15.6551
42.9124
56.0037
0.0077691
0.00675707
0.00619924
0.00574021
0.0053594
0.00504117
0.00477362
0.0045475
0.00435577
0.00419253
0.00405373
0.00426503
0.11218
0.509784
0.989258
1.52956
2.32441
3.54667
7.29928
17.6353
47.0833
58.0812
0.00766002
0.00665639
0.00610628
0.0056536
0.00527804
0.00496417
0.00470027
0.00447723
0.00428811
0.00412711
0.0039903
0.00948523
0.219855
0.647919
1.11241
1.64723
2.45224
3.77396
7.83295
19.3888
51.2972
60.2902
0.00754409
0.00654934
0.00600815
0.00556287
0.00519352
0.00488492
0.00462551
0.00440634
0.00422056
0.00406247
0.00392863
0.0323366
0.328639
0.751611
1.20161
1.73344
2.54725
3.94865
8.28101
20.9227
55.4683
62.571
0.00744256
0.00645574
0.00592184
0.00548257
0.00511821
0.00481378
0.00455789
0.00434172
0.0041585
0.00400264
0.00387342
0.0811231
0.420826
0.829175
1.26864
1.79927
2.62115
4.08949
8.66752
22.2558
59.5358
64.9213
0.00733996
0.00636086
0.0058348
0.00540202
0.00504309
0.00474323
0.00449123
0.00427837
0.00409801
0.00394464
0.00380981
0.143992
0.493737
0.888846
1.3211
1.85166
2.6813
4.20856
9.0092
23.411
63.4647
67.2818
0.00724531
0.0062737
0.00575448
0.00532737
0.00497315
0.00467727
0.00442864
0.00421867
0.00404079
0.0038896
0.00428345
0.205884
0.550804
0.936456
1.36378
1.89505
2.7325
4.31364
9.31745
24.4102
67.2388
69.6617
0.0071551
0.00619021
0.00567787
0.00525641
0.00490688
0.00461491
0.00436956
0.00416236
0.00398684
0.00383774
0.00997518
0.260215
0.596413
0.975854
1.3998
1.93238
2.77802
4.40971
9.59978
25.2738
70.8613
72.0102
0.00706431
0.00610678
0.00560116
0.00518531
0.0048405
0.00455254
0.00431062
0.00410638
0.00393344
0.00378712
0.0285419
0.305946
0.634036
1.00955
1.43123
1.96569
2.82017
4.49981
9.86104
26.0196
74.3486
74.3523
0.00698504
0.00603319
0.00553347
0.00512242
0.00478155
0.00449685
0.00425765
0.00405568
0.00388466
0.00374208
0.0597546
0.344255
0.666098
1.03922
1.45956
1.99646
2.86057
4.58564
10.1043
26.6638
77.7325
76.6493
0.00689853
0.00595378
0.00546056
0.00505496
0.00471872
0.00443798
0.00420218
0.00400319
0.00383475
0.00370236
0.0951785
0.376698
0.694238
1.06605
1.48584
2.02576
2.90034
4.66801
10.3315
27.2202
81.0551
78.9445
0.00683027
0.00589031
0.00540206
0.00500045
0.00466742
0.00438925
0.00415555
0.00395825
0.00379123
0.003684
0.128587
0.404734
0.719566
1.09088
1.51087
2.05439
2.94016
4.74728
10.5438
27.7016
84.3714
81.212
0.00674456
0.00581191
0.00533039
0.00493448
0.00460633
0.0043324
0.00410236
0.00390828
0.00374409
0.00364555
0.158123
0.429533
0.742851
1.11433
1.53523
2.0829
2.98028
4.82362
10.7423
28.1188
87.7447
83.5114
0.00668544
0.00575661
0.00527914
0.00488641
0.00456075
0.00428878
0.00406031
0.00386745
0.00370431
0.00384608
0.184098
0.451965
0.764645
1.1369
1.55934
2.11163
3.02071
4.8972
10.9277
28.4816
91.2475
85.8273
0.00660169
0.00568016
0.00520941
0.00482242
0.00450173
0.00423408
0.00400938
0.00381985
0.00365972
0.00582602
0.20735
0.472657
0.78535
1.15892
1.58349
2.14075
3.06133
4.96819
11.1008
28.798
94.9548
88.2307
0.00655204
0.00563346
0.00516588
0.00478127
0.00446234
0.00419598
0.00397223
0.00378338
0.00362418
0.0113346
0.228639
0.492058
0.805269
1.18066
1.60786
2.1703
3.10197
5.0368
11.2621
29.0751
98.9431
90.7106
0.00646794
0.005557
0.0050965
0.00471799
0.00440438
0.00414269
0.00392302
0.00373776
0.00358272
0.0214868
0.248513
0.510489
0.824631
1.20229
1.63254
2.20023
3.14252
5.10324
11.4126
29.3184
103.282
93.3406
0.00642573
0.00551688
0.0050587
0.00468183
0.00436934
0.00410838
0.00388919
0.00370424
0.00355167
0.0364622
0.267333
0.528187
0.843605
1.22394
1.65752
2.23047
3.18287
5.16768
11.5528
29.5329
108.032
96.1058
0.00634324
0.00544203
0.00499093
0.00462022
0.00431312
0.00405692
0.0038419
0.00366062
0.00351576
0.0553865
0.285329
0.545328
0.862317
1.24566
1.6828
2.26092
3.223
5.2303
11.6836
29.7228
113.24
99.0732
0.00630958
0.0054097
0.00496011
0.00459028
0.00428359
0.00402746
0.00381234
0.00363082
0.00349484
0.076934
0.302643
0.562041
0.880851
1.26749
1.7083
2.2915
3.26286
5.29124
11.8057
29.8925
118.941
102.217
0.00622509
0.00533339
0.00489143
0.00452829
0.00422752
0.00397662
0.00376609
0.00358861
0.00347383
0.0997921
0.31937
0.578421
0.899264
1.28942
1.73398
2.32215
3.30245
5.35061
11.9199
30.0458
125.154
105.592
0.00619827
0.00530714
0.00486588
0.00450287
0.00420184
0.00395045
0.00373933
0.00356124
0.00347894
0.122948
0.335563
0.594537
0.917583
1.31144
1.75977
2.3528
3.34177
5.40849
12.0269
30.1869
131.895
109.157
0.00611126
0.00522899
0.00479595
0.0044402
0.00414559
0.00389987
0.00369372
0.00351997
0.00355081
0.145653
0.351251
0.610431
0.935814
1.33349
1.78559
2.38341
3.38081
5.46492
12.1276
30.3193
139.167
112.957
0.00608773
0.00520567
0.00477292
0.0044169
0.00412167
0.00387516
0.00366817
0.00349363
0.0063348
0.167344
0.366434
0.626126
0.953948
1.35555
1.81138
2.41392
3.41957
5.51993
12.2228
30.4461
146.974
116.938
0.00599572
0.00512362
0.0047
0.00435202
0.00406388
0.00382361
0.00362206
0.00345226
0.0285854
0.187475
0.381091
0.641628
0.971958
1.37755
1.83708
2.44429
3.45802
5.57351
12.3133
30.5691
155.297
121.137
0.00596743
0.0050962
0.00467339
0.00432557
0.00403718
0.00379643
0.00359437
0.00342467
0.058776
0.205271
0.395188
0.656926
0.989805
1.39943
1.86263
2.47448
3.49614
5.62564
12.4
30.689
164.086
125.495
0.00586273
0.00500323
0.00459115
0.00425275
0.00397265
0.00373919
0.0035435
0.00338447
0.0777714
0.220357
0.408683
0.671994
1.00744
1.42112
1.88794
2.50442
3.53388
5.67627
12.484
30.805
173.208
130.045
0.00582116
0.00496383
0.0045537
0.00421642
0.00393694
0.00370384
0.00350845
0.00335653
0.0889328
0.232938
0.421542
0.686798
1.02482
1.44255
1.91296
2.53405
3.57117
5.72535
12.566
30.9159
182.391
134.727
0.00569951
0.00485623
0.00445854
0.00413193
0.0038617
0.0036367
0.00344841
0.00366691
0.0959277
0.243406
0.43374
0.701291
1.04188
1.46362
1.93759
2.5633
3.60792
5.77285
12.6467
31.0207
191.156
139.588
0.00561723
0.00478975
0.00440413
0.00408588
0.00382128
0.00359993
0.0034138
0.00437372
0.100598
0.252139
0.445266
0.715418
1.05856
1.48425
1.96175
2.59206
3.64402
5.81876
12.7263
31.1197
198.808
144.654
0.00525476
0.00446038
0.00411204
0.00382647
0.00358924
0.00339071
0.0032237
0.0047102
0.103852
0.259441
0.456113
0.729112
1.0748
1.50431
1.98534
2.62025
3.67935
5.86314
12.8043
31.2148
204.539
150.447
95.0235
54.0714
36.6094
28.8418
27.132
22.5557
21.4786
19.216
18.0059
17.3268
16.8435
16.2828
17.8111
21.4108
26.3462
30.3191
32.0854
33.5912
35.5225
36.7155
37.4389
38.2004
38.5079
38.0245
37.2259
36.3183
35.1739
34.5193
37.0261
43.5991
6.67186
4.23035
4.09947
3.78506
3.35374
94.6475
54.1219
36.7513
29.2866
27.7968
23.0237
21.9293
19.5661
18.3181
17.5875
16.9699
16.3871
17.9348
21.6061
26.682
30.7957
32.533
33.8171
35.6529
36.984
37.9252
38.8526
39.2698
38.8103
37.9367
36.8841
35.6077
34.879
37.4001
44.9605
6.70448
4.22673
4.0945
3.78004
3.34947
93.9266
54.1952
37.0257
30.1873
29.1227
23.9611
22.8046
20.2405
18.9271
18.1002
17.2344
16.6072
18.1955
22.0067
27.3691
31.8002
33.5301
34.3747
35.9538
37.486
38.8386
40.1167
40.7947
40.425
39.4326
38.0879
36.5123
35.6176
38.1854
44.4309
6.74088
4.21948
4.08457
3.77001
3.34096
92.8104
54.2763
37.4452
31.5849
31.0953
25.3681
24.0704
21.2178
19.824
18.8609
17.6746
16.9844
18.6337
22.6639
28.5139
33.5257
35.3739
35.5464
36.6032
38.3375
40.2684
42.0683
43.1643
42.983
41.864
40.0794
37.9973
36.7909
39.467
43.0545
6.78674
4.2087
4.0697
3.75499
3.32823
91.3035
54.3506
38.0284
33.51
33.6856
27.2369
25.6972
22.4892
21.0048
19.8679
18.3345
17.5704
19.2992
23.6292
30.2116
36.1931
38.5095
37.8326
37.948
39.7631
42.3718
44.8337
46.5098
46.6562
45.4559
43.088
40.2302
38.486
41.3555
41.6354
6.85109
4.19455
4.0499
3.73502
3.31131
89.3553
54.4045
38.8007
35.9951
36.8792
29.5713
27.6782
24.0651
22.481
21.1342
19.2595
18.4203
20.2396
24.9338
32.5005
39.9473
43.431
41.9975
40.591
42.1527
45.413
48.623
51.0365
51.6908
50.5277
47.4531
43.4637
40.836
43.9966
40.6545
6.94444
4.1772
4.02523
3.71013
3.29023
87.0012
54.4263
39.796
39.0815
40.6773
32.3934
30.0324
25.9761
24.2844
22.6949
20.5031
19.5963
21.508
26.6123
35.3892
44.8082
50.4819
49.0156
45.4894
46.1458
49.8266
53.7797
57.062
58.436
57.5203
53.6657
48.0771
44.0397
47.5834
40.384
7.07826
4.15685
3.99571
3.68036
3.26504
84.2135
54.4055
41.058
42.8037
45.0779
35.7348
32.798
28.2692
26.4663
24.6091
22.1385
21.1815
23.1858
28.744
38.9252
50.7118
59.6014
59.7326
53.9933
52.7408
56.3081
60.8529
65.0738
67.3858
67.0285
62.4182
54.6327
48.3901
52.3701
41.0166
7.26529
4.13371
3.96141
3.64576
3.2358
81.0699
54.3326
42.6402
47.1558
50.052
39.6211
36.0221
31.0029
29.0933
26.9592
24.2675
23.2927
25.4025
31.4851
43.2477
57.5823
70.1298
73.9706
67.5278
63.3616
65.919
70.6848
75.797
79.224
79.8216
74.6415
63.9419
54.3095
58.683
42.7636
7.52044
4.10801
3.92238
3.6064
3.20257
77.574
54.1982
44.6058
52.0482
55.5265
44.0582
39.7503
34.2409
32.2418
29.8491
27.0244
26.0894
28.351
35.0886
48.5986
65.3525
80.8611
89.3841
86.172
79.5424
80.0865
84.4492
90.2172
94.8177
96.7872
91.4455
77.0958
62.3802
66.9154
45.9303
7.8618
4.07995
3.87871
3.56238
3.16545
73.8369
53.9928
47.0277
57.2842
61.3845
49.0219
44.0159
38.0423
35.9874
33.3974
30.5736
29.7731
32.293
39.914
55.2879
73.9303
90.5335
102.074
106.24
101.4
100.07
103.398
109.381
114.996
118.621
113.738
95.297
73.327
77.4726
50.987
8.31136
4.04972
3.83049
3.51381
3.12455
69.8857
53.7056
49.9865
62.5862
67.483
54.4589
48.8295
42.4494
40.3904
37.7233
35.0929
34.5738
37.5478
46.3609
63.5736
83.0969
98.5234
109.874
121.278
124.996
125.164
127.774
133.581
139.795
144.958
141.11
119.079
87.8252
90.6011
58.6298
8.89442
4.01739
3.77787
3.46082
3.08
65.8489
53.324
53.5616
67.684
73.6839
60.3
54.1736
47.4748
45.4747
42.9175
40.7357
40.6981
44.4246
54.7046
73.3654
92.417
105.089
114.052
128.562
143.199
150.478
154.736
160.705
167.046
172.969
169.992
146.439
105.896
106.017
69.7687
9.63563
3.98286
3.72097
3.40359
3.03195
61.7626
52.833
57.8023
72.4196
79.8827
66.4818
60.0057
53.0948
51.2106
49.0016
47.561
48.2314
53.0225
64.7349
83.831
101.213
110.943
117.261
131.178
152.49
168.914
177.82
185.25
191.554
196.883
193.203
170.987
125.779
122.366
85.216
10.5474
3.94572
3.65998
3.3423
2.98058
57.7502
52.2153
62.6671
76.7958
86.0246
72.9679
66.2777
59.2496
57.5104
55.8844
55.4449
56.9618
62.9192
75.3406
93.3954
108.764
116.645
121.294
133.205
155.624
177.578
191.324
201.071
207.332
210.662
203.9
184.344
143.207
136.969
104.641
11.6058
3.90514
3.59508
3.27719
2.92608
53.8399
51.4541
67.9402
80.9411
92.104
79.7643
72.9428
65.8633
64.2487
63.3528
64.0295
66.2898
72.9723
84.6299
100.515
114.615
122.302
126.547
136.525
156.8
179.23
194.994
206.111
211.793
212.067
200.773
183.071
153.155
146.677
124.789
12.7164
3.85969
3.52649
3.20851
2.86867
50.1273
50.541
73.1911
85.031
98.166
86.8712
79.9737
72.8778
71.305
71.1198
72.7641
75.3425
81.6787
91.0749
104.779
118.882
127.687
132.386
140.905
158.019
177.76
192.43
202.889
206.799
203.357
187.83
171.007
153.574
149.703
139.256
13.6972
3.80752
3.45446
3.13654
2.80861
46.6135
49.4909
77.874
89.1877
104.269
94.2921
87.3626
80.2738
78.6136
78.9359
81.1774
83.4111
88.131
94.6151
107.046
122.196
132.569
137.821
145.142
159.172
175.173
186.998
195.078
195.985
188.595
170.296
154.418
146.577
146.622
142.703
14.3253
3.74666
3.37925
3.06157
2.74613
43.349
48.359
81.5842
93.4631
110.456
102.006
95.1035
88.067
86.1871
86.711
89.1084
90.3634
92.6355
96.5129
108.761
125.447
136.987
142.143
148.061
159.362
171.777
180.311
185.129
182.292
171.249
151.942
137.703
135.946
139.47
135.324
14.4403
3.67567
3.30113
2.98394
2.68151
40.3033
47.2653
84.2561
97.8778
116.729
109.948
103.17
96.2828
94.1039
94.5458
96.7845
96.7411
96.4317
98.4032
111.193
129.396
141.235
145.239
149.162
157.925
167.311
172.79
174.125
167.43
153.534
134.761
122.804
124.615
130.263
121.334
14.0175
3.59412
3.22044
2.90399
2.61502
37.4893
46.3948
86.1632
102.419
123.05
118.003
111.497
104.92
102.462
102.665
104.684
103.438
100.975
101.703
115.273
134.573
145.657
147.399
148.582
154.782
161.659
164.486
162.465
152.304
136.678
119.555
110.182
114.054
120.272
104.916
13.1559
3.50267
3.13749
2.82206
2.54697
34.8769
45.9012
87.7231
107.042
129.345
126.024
119.977
113.926
111.33
111.314
113.315
111.362
107.511
107.505
121.633
141.255
150.49
148.994
146.779
150.275
154.994
155.495
150.38
137.474
121.303
106.481
99.6574
104.693
110.073
88.5924
12.0157
3.40292
3.05265
2.7385
2.47763
32.4767
45.7717
89.2614
111.682
135.526
133.852
128.474
123.193
120.711
120.662
123.035
121.164
116.933
116.739
130.886
149.677
155.858
150.282
144.182
144.873
147.652
146.016
138.135
123.362
107.673
95.398
90.8557
96.4534
99.8402
73.5591
10.7575
3.29697
2.96626
2.65369
2.40729
30.2708
45.9109
90.9021
116.253
141.493
141.34
136.837
132.573
130.542
130.769
133.993
133.179
129.786
130.24
143.682
160.09
161.866
151.458
141.172
139.008
139.972
136.296
126.031
110.29
95.8264
86.0455
83.39
89.0674
89.6154
60.3036
9.50665
3.18699
2.87869
2.56797
2.33624
28.2673
46.184
92.6415
120.653
147.152
148.364
144.924
141.908
140.709
141.598
146.165
147.433
146.238
148.716
160.836
172.885
168.663
152.705
138.064
133.046
132.236
126.566
114.365
98.4677
85.6644
78.1345
76.9241
82.2415
79.4609
48.9662
8.34352
3.07496
2.79031
2.48169
2.26475
26.4614
46.5025
94.4306
124.781
152.42
154.832
152.614
151.054
151.081
153.061
159.45
163.792
166.161
172.484
183.063
188.405
176.395
154.23
135.202
127.296
124.647
117.02
103.38
87.9854
77.0117
71.3909
71.1844
75.7273
69.5194
39.5014
7.30866
2.96252
2.70144
2.39519
2.19309
24.8623
46.9005
96.2189
128.552
157.236
160.696
159.823
159.903
161.543
165.064
173.751
182.07
189.282
201.382
210.729
206.823
185.087
156.165
132.842
122
117.342
107.807
93.2486
78.83
69.6593
65.5746
65.9597
69.3513
59.9994
31.7547
6.41418
2.85091
2.61244
2.30879
2.12151
23.4808
47.5409
97.9686
131.913
161.573
165.953
166.517
168.404
172.025
177.56
189.037
202.18
215.394
234.846
243.273
227.716
194.5
158.519
131.151
117.311
110.394
99.0396
84.0652
70.9162
63.3973
60.4849
61.0924
63.0247
51.1253
25.5133
5.65496
2.74101
2.52359
2.22278
2.05023
22.3333
48.6434
99.6524
134.844
165.432
170.637
172.71
176.558
182.518
190.564
205.376
224.167
244.474
272.289
279.26
249.955
204.045
161.089
130.085
113.26
103.823
90.7956
75.8582
64.1155
58.0314
55.9604
56.4729
56.7391
43.0834
20.5437
5.01715
2.63342
2.4352
2.13745
1.97949
21.4546
50.398
101.248
137.357
168.845
174.814
178.456
184.424
193.081
204.182
222.967
248.29
276.762
313.17
316.482
271.59
212.804
163.505
129.458
109.76
97.6055
83.1253
68.6034
58.2829
53.3926
51.8754
52.0312
50.5517
35.9873
16.6182
4.48376
2.52849
2.34753
2.05305
1.90947
20.8892
52.9116
102.736
139.484
171.858
178.563
183.842
192.103
203.842
218.624
242.171
275.052
312.789
356.98
352.508
290.406
219.693
165.257
128.919
106.618
91.6901
76.0536
62.241
53.2731
49.3387
48.135
47.7319
44.5603
29.87
13.5317
4.03779
2.42642
2.26081
1.96983
1.84036
20.7351
56.1941
104.096
141.271
174.532
181.973
188.974
199.738
215.014
234.244
263.587
305.319
353.4
402.857
384.552
304.233
223.714
165.847
128.091
103.576
86.0156
69.5888
56.6897
48.9517
45.7545
44.6702
43.5656
38.8763
24.6965
11.1086
3.66379
2.32729
2.17527
1.88797
1.77232
21.1259
60.1628
105.315
142.768
176.933
185.136
193.979
207.522
226.907
251.593
288.159
340.43
399.646
449.129
409.723
311.492
224.167
164.845
126.592
100.373
80.5315
63.7232
51.8586
45.1991
42.5479
41.4327
39.5433
33.5997
20.3857
9.20429
3.34846
2.23114
2.09109
1.80768
1.70548
22.2957
64.6594
106.389
144.03
179.134
188.149
199.011
215.715
239.987
271.53
317.361
382.367
452.369
492.509
424.954
311.199
220.745
161.999
124.162
96.7967
75.2086
58.4389
47.6553
41.9133
39.6471
38.3901
35.687
28.8028
16.8327
7.70284
3.08069
2.13792
2.00845
1.72911
1.63998
24.5223
69.4766
107.32
145.109
181.209
191.123
204.265
224.681
254.955
295.387
353.437
433.698
510.961
527.601
427.744
303.248
213.535
157.215
120.628
92.7224
70.0474
53.707
43.991
39.0084
36.9966
35.5219
32.0245
24.5237
13.9257
6.51313
2.85139
2.04759
1.9275
1.65241
1.57591
28.1637
74.3917
108.118
146.054
183.242
194.19
210.008
234.963
272.905
325.256
399.638
496.836
570.887
547.173
416.706
288.265
202.948
150.575
115.955
88.1198
65.07
49.4902
40.7836
36.4142
34.5543
32.8153
28.5818
20.7683
11.5577
5.56435
2.65323
1.9601
1.84838
1.57769
1.51338
33.4954
79.1998
108.796
146.908
185.328
197.523
216.63
247.404
295.589
364.384
459.964
571.069
620.752
544.487
392.517
267.663
189.645
142.278
110.177
83.0309
60.3093
45.7424
37.9592
34.074
32.2885
30.2626
25.3799
17.5168
9.63262
4.80195
2.48028
1.8754
1.77121
1.50508
1.45246
40.701
83.7413
109.369
147.716
187.588
201.375
224.742
263.38
325.885
417.52
536.901
646.061
643.349
516.772
357.861
243.258
174.429
132.633
103.42
77.5401
55.792
42.4114
35.4533
31.943
30.1758
27.8586
22.4322
14.7318
8.06759
4.18411
2.32784
1.79345
1.6961
1.43467
1.39323
49.6321
87.9189
109.849
148.525
190.188
206.135
235.345
285.225
368.498
490.165
623.89
696.29
624.984
467.74
316.98
217.047
158.156
122.011
95.8485
71.7506
51.5316
39.4406
33.2105
29.9869
28.1994
25.5994
19.7438
12.3668
6.79322
3.67875
2.19213
1.71422
1.62316
1.36655
1.33576
59.8743
91.7009
110.248
149.396
193.379
212.444
250.17
317.013
430.551
582.904
693.887
692.518
566.852
406.166
274.245
190.766
141.635
110.828
87.6819
65.7719
47.5243
36.7735
31.1845
28.1804
26.348
23.4814
17.3124
10.3714
5.75257
3.26131
2.07016
1.6377
1.55247
1.3008
1.2801
70.5911
95.1087
110.579
150.417
197.566
221.42
272.338
365.785
519.145
674.965
705.995
628.887
484.836
341.843
233.217
165.778
125.565
99.4991
79.1588
59.7155
43.7541
34.3559
29.3374
26.5051
24.6146
21.5017
15.1297
8.69608
4.89947
2.91291
1.95952
1.5639
1.48414
1.2375
1.22632
80.9187
98.196
110.859
151.727
203.462
235.138
307.669
441.921
625.256
713.706
644.121
529.162
398.093
281.802
196.006
142.936
110.494
88.4253
70.5458
53.6936
40.1978
32.1387
27.6387
24.949
22.9956
19.6577
13.1832
7.29467
4.19689
2.61898
1.8583
1.49284
1.41825
1.17671
1.17446
89.3733
101.033
111.109
153.567
212.415
257.693
366.54
548.359
691.312
659.18
534.685
423.77
319.277
229.413
163.543
122.708
96.8036
77.9473
62.1031
47.8174
36.8304
30.0785
26.0641
23.5039
21.4904
17.9481
11.4581
6.12538
3.6152
2.36827
1.76495
1.42454
1.35488
1.11851
1.12458
95.1437
103.702
111.367
156.4
227.228
297.348
459.621
634.168
644.965
535.728
417.164
331.127
253.087
185.325
135.902
105.2
84.6955
68.3337
54.0907
42.1971
33.6281
28.1375
24.5937
22.1642
20.0999
16.3724
9.9383
5.15146
3.13082
2.15202
1.67822
1.35904
1.2941
1.06294
1.07671
0.00337776
0.00250431
0.00227586
0.00216342
0.00212214
0.00212537
0.00215887
0.00481178
0.105602
0.264022
0.463715
0.738899
1.0864
1.51851
2.00208
2.64033
3.70463
5.89502
12.8609
31.2876
206.842
160.142
0.00334431
0.00224213
0.00184149
0.00160485
0.00148288
0.00144426
0.00147713
0.0048609
0.106467
0.266499
0.468074
0.744363
1.09259
1.52587
2.01066
2.65071
3.7182
5.91319
12.8966
31.342
207.808
170.265
0.00354039
0.00237569
0.00188192
0.00154402
0.00132175
0.00119037
0.00116003
0.00489339
0.107035
0.268305
0.471463
0.748395
1.09679
1.53056
2.01598
2.65724
3.72733
5.92666
12.9256
31.3978
207.927
179.933
0.00367072
0.00251731
0.00200376
0.0016296
0.00135771
0.00116609
0.0010319
0.00491415
0.107349
0.269481
0.473873
0.750963
1.09896
1.53253
2.01797
2.65983
3.73186
5.93518
12.9464
31.4554
207.26
189.01
0.00392252
0.00276389
0.00222642
0.00182218
0.00151432
0.00128002
0.000999341
0.00492583
0.107431
0.270053
0.475292
0.752045
1.09905
1.53176
2.01659
2.65842
3.73169
5.93852
12.9572
31.5155
205.854
197.958
0.00406014
0.00292964
0.00239843
0.00199205
0.00167527
0.00142533
0.000988762
0.0049299
0.107296
0.270039
0.475713
0.751628
1.09706
1.52824
2.01183
2.65297
3.72671
5.93649
12.9563
31.578
203.738
206.948
0.00434044
0.00320796
0.00265956
0.00223358
0.00189631
0.00162501
0.0010582
0.00492712
0.106955
0.269451
0.475139
0.749713
1.09298
1.52198
2.00369
2.64347
3.71685
5.92887
12.9424
31.6429
200.954
215.978
0.00447852
0.0033792
0.00284385
0.00242348
0.00208666
0.0018117
0.00118508
0.00491757
0.106412
0.268302
0.473579
0.746313
1.08685
1.51301
1.99223
2.62992
3.70204
5.91551
12.9141
31.7092
197.55
224.988
0.00478401
0.00368463
0.0031347
0.00269711
0.0023424
0.00204955
0.00130988
0.00490086
0.105672
0.266606
0.471055
0.741458
1.07871
1.50141
1.97749
2.61236
3.68222
5.89623
12.8702
31.7755
193.581
233.908
0.00490865
0.00384881
0.00331948
0.0028947
0.00254712
0.00225685
0.0014001
0.00487627
0.104737
0.264377
0.467601
0.735193
1.06863
1.48724
1.95956
2.59083
3.65738
5.87087
12.8099
31.8394
189.108
242.653
0.00522937
0.00417126
0.00363016
0.00319072
0.00282757
0.00252163
0.00151401
0.00484295
0.10361
0.261632
0.463256
0.727575
1.05669
1.4706
1.93857
2.56543
3.62748
5.8393
12.7323
31.8978
184.195
251.115
0.00533926
0.00432466
0.00380985
0.00338912
0.00303886
0.00274104
0.00163331
0.00479967
0.102292
0.258393
0.458069
0.718677
1.04299
1.45162
1.91465
2.53627
3.59254
5.80136
12.6369
31.9463
178.911
259.159
0.00567207
0.00466095
0.00413688
0.00370366
0.00333965
0.00302785
0.00183765
0.00474497
0.10078
0.254679
0.452095
0.708581
1.02764
1.43042
1.88795
2.50349
3.55256
5.75691
12.5233
31.9797
173.322
266.637
0.00575623
0.00479288
0.00430113
0.00389298
0.00354814
0.00325056
0.00211519
0.00467659
0.0990699
0.25051
0.44539
0.697382
1.01078
1.40718
1.85865
2.46726
3.50762
5.70579
12.3912
31.9916
167.497
273.397
0.00609207
0.00513334
0.00463447
0.00421588
0.00385924
0.0035496
0.00251989
0.00459181
0.0971506
0.245906
0.43801
0.68518
0.99253
1.38203
1.82694
2.42778
3.4578
5.64783
12.2405
31.9745
161.5
279.29
0.00615216
0.00524294
0.00478013
0.00439105
0.00405835
0.00376787
0.00298592
0.00448619
0.0950034
0.240878
0.430009
0.672079
0.973045
1.35517
1.79304
2.38527
3.40323
5.58288
12.0711
31.9203
155.39
284.185
0.00648673
0.00558312
0.00511497
0.00471706
0.00437399
0.00407283
0.00349845
0.00435462
0.0925981
0.235429
0.421434
0.658187
0.952469
1.32677
1.75714
2.33997
3.34409
5.51076
11.8834
31.8202
149.223
287.97
0.00651836
0.00566544
0.00523647
0.00487194
0.00455707
0.00427952
0.00389436
0.00418849
0.0898878
0.229551
0.412325
0.643611
0.930954
1.297
1.71948
2.29214
3.2806
5.43133
11.6776
31.6647
143.045
290.561
0.00683898
0.00599249
0.00555997
0.00518845
0.00486505
0.00457865
0.00427116
0.00398595
0.0868034
0.223214
0.402705
0.62845
0.908653
1.26606
1.68026
2.24206
3.21303
5.34445
11.4541
31.4445
136.9
291.9
0.0068535
0.00605573
0.00566227
0.00532496
0.00503128
0.00477053
0.00452585
0.00375832
0.0832447
0.21636
0.392579
0.612793
0.885715
1.23414
1.63972
2.19
3.14166
5.25
11.2136
31.1504
130.819
291.953
0.00716007
0.00636946
0.00597394
0.00563106
0.00533006
0.00506152
0.00482134
0.00358434
0.0790717
0.208895
0.381924
0.596714
0.862287
1.2014
1.59806
2.13623
3.06684
5.14793
10.9569
30.7739
124.831
290.707
0.00715665
0.0064125
0.0060555
0.00574721
0.005477
0.00523567
0.00502132
0.00365766
0.0740954
0.200674
0.370679
0.58026
0.838505
1.16804
1.55551
2.08105
2.98893
5.03823
10.6848
30.3076
118.957
288.165
0.00744655
0.00670972
0.00635159
0.00603869
0.00576209
0.00551381
0.00529092
0.00407895
0.0680753
0.191483
0.358729
0.563443
0.814488
1.13423
1.51226
2.02472
2.90831
4.92096
10.3983
29.7454
113.212
284.342
0.00743057
0.00673701
0.00641568
0.00613651
0.00589051
0.00566976
0.00546951
0.00465219
0.0607362
0.181025
0.345892
0.546222
0.790333
1.10014
1.46852
1.96751
2.82539
4.79626
10.0986
29.0835
107.604
279.261
0.00770416
0.00701784
0.00669601
0.0064129
0.0061611
0.00593388
0.00572612
0.0052391
0.0518504
0.168901
0.331885
0.528488
0.766093
1.06593
1.42448
1.90968
2.7406
4.66438
9.78664
28.3202
102.139
272.956
0.00767674
0.0070304
0.00674337
0.00649275
0.00627094
0.00607114
0.00588748
0.00561737
0.0414443
0.154613
0.316306
0.51003
0.741765
1.03173
1.38031
1.85149
2.65436
4.52567
9.46372
27.4563
96.816
265.467
0.0079333
0.00729383
0.00700657
0.0067524
0.00652518
0.00631923
0.00612935
0.00592468
0.030168
0.137619
0.298592
0.490505
0.717259
0.997657
1.33619
1.79316
2.56712
4.38061
9.13093
26.4959
91.6334
256.845
0.00789953
0.00729637
0.00704132
0.0068177
0.00661906
0.00643959
0.00627379
0.00611083
0.0195515
0.117516
0.277996
0.469391
0.692357
0.963747
1.29227
1.73492
2.47933
4.2298
8.7894
25.4455
86.5839
247.153
0.00814118
0.00754438
0.00728918
0.00706219
0.00685833
0.0066728
0.00650105
0.00633763
0.0116891
0.0944289
0.253591
0.445936
0.666667
0.929954
1.24867
1.67699
2.39146
4.07401
8.44024
24.3146
81.6584
236.468
0.00810336
0.00753938
0.00731379
0.00711528
0.00693842
0.00677819
0.00662979
0.00648834
0.00767581
0.0696205
0.224375
0.419095
0.639562
0.896078
1.20543
1.61956
2.30397
3.91416
8.08453
23.1151
76.8448
224.886
0.00833024
0.00777205
0.00754627
0.00734454
0.00716262
0.00699647
0.0068422
0.00669628
0.0065901
0.0458407
0.189633
0.387485
0.610102
0.8617
1.16251
1.56277
2.21736
3.75134
7.72339
21.8611
72.13
212.523
0.00829265
0.00776378
0.00756483
0.00738922
0.00723232
0.00708984
0.00695761
0.00683176
0.0065996
0.0266026
0.149699
0.349425
0.576944
0.826097
1.11968
1.50669
2.13206
3.58685
7.35807
20.5681
67.4991
199.513
0.00850602
0.0079824
0.00778325
0.00760456
0.0074428
0.00729455
0.00715651
0.00702587
0.0068461
0.0144428
0.107102
0.303247
0.538234
0.788144
1.07647
1.45126
2.04849
3.42213
6.99005
19.2525
62.9394
186.008
0.00847101
0.00797345
0.00779843
0.0076435
0.00750472
0.0073784
0.00726094
0.00714902
0.00702227
0.00886851
0.0671933
0.248202
0.49156
0.746194
1.03201
1.39622
1.96696
3.25878
6.62118
17.931
58.4402
172.177
0.00867167
0.00817885
0.00800361
0.00784576
0.00770235
0.00757049
0.00744735
0.00733056
0.00721199
0.00717428
0.036445
0.186206
0.434168
0.697929
0.984971
1.34102
1.88759
3.09846
6.25373
16.6203
53.9981
158.197
0.00864158
0.00817178
0.00801805
0.0078816
0.00775906
0.00764728
0.00754311
0.00744365
0.00734405
0.00696869
0.0182472
0.12365
0.363913
0.640244
0.933369
1.28467
1.81022
2.94272
5.89052
15.3363
49.6173
144.251
0.00883162
0.00836607
0.00821204
0.00807278
0.00794581
0.00782867
0.00771894
0.00761456
0.00751231
0.00720778
0.0104264
0.070674
0.281594
0.569422
0.874387
1.22564
1.73427
2.79284
5.53477
14.0937
45.3141
130.516
0.00880915
0.00836382
0.00822885
0.0081087
0.00800052
0.00790156
0.00780909
0.00772056
0.00763291
0.00745555
0.00802402
0.0353532
0.194194