/*--------------------------------*- C++ -*----------------------------------*\
| =========                 |                                                 |
| \\      /  F ield         | OpenFOAM: The Open Source CFD Toolbox           |
|  \\    /   O peration     | Version:  v1912                                 |
|   \\  /    A nd           | Website:  www.openfoam.com                      |
|    \\/     M anipulation  |                                                 |
\*---------------------------------------------------------------------------*/
FoamFile
{
    version     2.0;
    format      ascii;
    class       volScalarField;
    location    "350";
    object      nut;
}
// * * * * * * * * * * * * * * * * * * * * * * * * * * * * * * * * * * * * * //

dimensions      [0 2 -1 0 0 0 0];


internalField   nonuniform List<scalar> 
12441
(
5.82193e-24
1.79051e-20
8.10486e-20
3.32538e-19
1.06829e-18
3.88832e-18
1.01056e-17
2.50055e-17
6.13845e-17
1.27536e-16
3.05663e-16
7.71526e-16
2.17929e-15
7.40164e-15
1.03559e-13
1.89346e-11
0.000194963
0.00095414
0.00306495
0.00263691
0.00364643
0.00775321
6.34194e-24
3.03346e-20
1.1173e-19
4.23943e-19
1.30208e-18
4.8073e-18
1.21985e-17
3.00108e-17
7.36107e-17
1.54461e-16
3.79812e-16
1.02929e-15
2.82583e-15
9.37411e-15
1.12974e-13
3.89723e-11
5.79284e-05
0.00115685
0.0035096
0.00287097
0.00400881
0.00781733
6.36471e-24
3.58951e-20
1.20777e-19
4.48125e-19
1.37772e-18
4.90672e-18
1.29289e-17
3.20417e-17
8.05151e-17
1.71781e-16
4.17901e-16
1.11757e-15
2.78227e-15
7.66363e-15
5.347e-14
6.56815e-12
1.11156e-05
0.000848768
0.00139936
0.00270865
0.00416181
0.0078909
6.31917e-24
3.76912e-20
1.18532e-19
4.29303e-19
1.32533e-18
4.71353e-18
1.25133e-17
3.13274e-17
7.84948e-17
1.73683e-16
4.2377e-16
1.1541e-15
2.6082e-15
8.47348e-15
3.84729e-14
1.54185e-12
1.62563e-06
0.000592065
0.0010437
0.0026317
0.00432441
0.0079647
6.28514e-24
4.38826e-20
1.29777e-19
4.58308e-19
1.40267e-18
4.7793e-18
1.30908e-17
3.27952e-17
8.42983e-17
1.87535e-16
4.5418e-16
1.28479e-15
3.01612e-15
4.07123e-14
2.46974e-13
2.29577e-12
1.39605e-07
0.000418192
0.0010246
0.00261898
0.00446476
0.00803394
6.23495e-24
4.12875e-20
1.20538e-19
4.29182e-19
1.3427e-18
4.62202e-18
1.27502e-17
3.23933e-17
8.28943e-17
1.92698e-16
4.76962e-16
1.44568e-15
4.52881e-15
1.32885e-12
1.18882e-11
5.09934e-11
4.58444e-07
0.000384827
0.00109166
0.00267588
0.00459124
0.00809948
6.20006e-24
5.02633e-20
1.37794e-19
4.75761e-19
1.46012e-18
4.7924e-18
1.35929e-17
3.44539e-17
9.07028e-17
2.11137e-16
5.20863e-16
2.00028e-15
2.49993e-14
4.14465e-11
6.57263e-10
9.36801e-09
1.87461e-05
0.000404245
0.00127899
0.00286032
0.00473662
0.00816218
6.15028e-24
4.34517e-20
1.2317e-19
4.4015e-19
1.40813e-18
4.72273e-18
1.3512e-17
3.48451e-17
9.13195e-17
2.23861e-16
5.72531e-16
5.43651e-15
6.09253e-13
2.25262e-09
8.40846e-08
4.97707e-06
0.000195712
0.000465669
0.00173276
0.00323666
0.00492681
0.00822577
6.1175e-24
5.57036e-20
1.46129e-19
4.99669e-19
1.55409e-18
4.95858e-18
1.46115e-17
3.75708e-17
1.02074e-16
2.50962e-16
6.45374e-16
6.13563e-14
2.588e-11
7.41884e-08
1.04263e-05
0.000154879
0.000806691
0.000834134
0.00267349
0.00387861
0.00519414
0.00829204
6.07064e-24
4.43491e-20
1.25434e-19
4.56623e-19
1.50751e-18
4.95355e-18
1.47472e-17
3.87254e-17
1.04878e-16
2.75137e-16
7.48648e-16
1.68214e-12
1.08249e-09
4.43481e-06
0.000192232
0.000623926
0.00173013
0.00159076
0.00440889
0.00486431
0.00555194
0.00836448
6.04148e-24
6.02595e-20
1.53432e-19
5.25899e-19
1.67269e-18
5.20587e-18
1.60248e-17
4.20348e-17
1.19295e-16
3.1739e-16
8.92114e-16
5.23138e-11
5.50286e-08
8.23349e-05
0.000732546
0.00175818
0.00384701
0.00320411
0.00739553
0.00629444
0.00601346
0.00844366
5.99606e-24
4.46285e-20
1.27734e-19
4.76935e-19
1.63366e-18
5.28087e-18
1.64019e-17
4.4065e-17
1.25499e-16
3.64652e-16
1.15865e-15
1.45682e-09
3.24682e-06
0.000350845
0.00163491
0.00401859
0.00816258
0.00648478
0.0121028
0.00821401
0.00656762
0.00853143
5.97046e-24
6.41488e-20
1.60448e-19
5.53801e-19
1.81493e-18
5.54184e-18
1.79081e-17
4.8222e-17
1.46704e-16
4.44755e-16
1.69462e-15
3.5218e-08
7.2776e-05
0.00111316
0.00410855
0.00904856
0.0164718
0.0125505
0.0186984
0.010605
0.0072052
0.00862633
5.92648e-24
4.43249e-20
1.29668e-19
4.99306e-19
1.78316e-18
5.69182e-18
1.85321e-17
5.13838e-17
1.59851e-16
5.59187e-16
3.6015e-15
7.96476e-07
0.000350523
0.00293037
0.00927176
0.0183361
0.0303677
0.0223516
0.0268697
0.0133415
0.00789405
0.00872852
5.90411e-24
6.75151e-20
1.66653e-19
5.82613e-19
1.97796e-18
5.94004e-18
2.02687e-17
5.67826e-17
1.96056e-16
7.78757e-16
1.65178e-14
1.51965e-05
0.00115948
0.00702437
0.0186816
0.0331548
0.050552
0.0359998
0.035817
0.0162659
0.00861412
0.00883515
5.86042e-24
4.39586e-20
1.31996e-19
5.24799e-19
1.95776e-18
6.18545e-18
2.12018e-17
6.1679e-17
2.28168e-16
1.21634e-15
3.02173e-13
0.000138125
0.00293498
0.0146399
0.0335277
0.0539065
0.0762483
0.0523031
0.0445602
0.0191786
0.00932889
0.00894576
5.84134e-24
7.05399e-20
1.73503e-19
6.15115e-19
2.17057e-18
6.43946e-18
2.33103e-17
6.93784e-17
3.08234e-16
2.30508e-15
1.2603e-11
0.000531629
0.00679942
0.0268578
0.0538394
0.0798857
0.104933
0.0689865
0.0522359
0.0219411
0.0100237
0.00905718
5.79737e-24
4.3502e-20
1.34492e-19
5.53133e-19
2.16064e-18
6.77152e-18
2.4618e-17
7.72301e-17
4.08468e-16
5.44595e-15
5.4801e-10
0.0013833
0.0137903
0.0441744
0.0790632
0.109052
0.132742
0.0835017
0.0584048
0.0244311
0.0106714
0.00916919
5.78103e-24
7.32637e-20
1.80288e-19
6.4913e-19
2.38799e-18
7.01162e-18
2.71823e-17
8.90717e-17
6.61734e-16
1.69241e-14
4.40867e-08
0.00341662
0.0249219
0.0658337
0.107159
0.138409
0.155548
0.0941097
0.0630212
0.0266165
0.0112717
0.00927899
5.73649e-24
4.30532e-20
1.36871e-19
5.82403e-19
2.38687e-18
7.43814e-18
2.90072e-17
1.02317e-16
1.08044e-15
7.52761e-14
8.55413e-06
0.00734643
0.0403891
0.0907291
0.135941
0.16449
0.170253
0.100426
0.0663778
0.028468
0.0118108
0.00938714
5.72344e-24
7.57297e-20
1.86803e-19
6.83181e-19
2.62926e-18
7.67307e-18
3.23041e-17
1.22248e-16
2.19379e-15
7.8024e-13
0.000168216
0.0142079
0.0595628
0.116849
0.162338
0.184409
0.17582
0.103337
0.0688442
0.0300226
0.0123018
0.00949146
5.67807e-24
4.24344e-20
1.38572e-19
6.10929e-19
2.63513e-18
8.19333e-18
3.49398e-17
1.46466e-16
4.34021e-15
1.34067e-11
0.000665789
0.0246196
0.0811899
0.142541
0.184186
0.196464
0.173452
0.104272
0.0707874
0.0312933
0.0127422
0.00959327
5.66771e-24
7.80233e-20
1.92472e-19
7.15488e-19
2.88989e-18
8.41838e-18
3.94334e-17
1.83586e-16
1.02759e-14
1.66111e-10
0.0017808
0.0385487
0.103771
0.16576
0.199547
0.200664
0.165919
0.104511
0.0724391
0.032342
0.0131567
0.00969106
5.6218e-24
4.19646e-20
1.39793e-19
6.38009e-19
2.90263e-18
9.03769e-18
4.35013e-17
2.31495e-16
2.24206e-14
1.5581e-09
0.00414869
0.0554131
0.125883
0.185291
0.208206
0.198389
0.156321
0.104772
0.0739516
0.0331991
0.0135525
0.00978684
5.61497e-24
8.02762e-20
1.9758e-19
7.45825e-19
3.17123e-18
9.26749e-18
5.02649e-17
3.06434e-16
5.64414e-14
1.37804e-08
0.00842677
0.0740596
0.146363
0.200041
0.210604
0.1919
0.147051
0.105282
0.0753748
0.0339411
0.0139627
0.00987966
5.56726e-24
4.17925e-20
1.40765e-19
6.63878e-19
3.19207e-18
9.99261e-18
5.71527e-17
4.08467e-16
1.30483e-13
3.18929e-07
0.0151691
0.0933861
0.164354
0.209992
0.208391
0.183457
0.139352
0.105969
0.0767335
0.0346132
0.014401
0.00997203
5.56294e-24
8.24851e-20
2.021e-19
7.74029e-19
3.47295e-18
1.02325e-17
6.84613e-17
5.73372e-16
3.92548e-13
1.87198e-05
0.0244011
0.112263
0.179325
0.215359
0.203101
0.174848
0.133509
0.106681
0.0780088
0.0352981
0.0149041
0.0100634
5.5141e-24
4.18602e-20
1.41224e-19
6.87535e-19
3.50159e-18
1.10691e-17
8.13297e-17
8.10408e-16
1.82997e-12
0.000212204
0.0358418
0.129947
0.191054
0.217094
0.196433
0.167106
0.129273
0.10728
0.0791884
0.0360378
0.0154847
0.0101564
5.51315e-24
8.4677e-20
2.05801e-19
7.99233e-19
3.79633e-18
1.13445e-17
1.02515e-16
1.20443e-15
1.28017e-11
0.000715324
0.0488095
0.145834
0.199607
0.216032
0.189413
0.160658
0.12623
0.107689
0.0802402
0.0368959
0.0161728
0.0102507
5.46204e-24
4.20353e-20
1.40969e-19
7.0843e-19
3.8337e-18
1.2305e-17
1.2883e-16
1.79579e-15
7.40929e-11
0.00146207
0.0627114
0.15963
0.205264
0.213227
0.182847
0.155507
0.124
0.107874
0.0811461
0.0378841
0.0169683
0.0103488
5.46312e-24
8.68083e-20
2.08982e-19
8.2182e-19
4.1433e-18
1.26535e-17
1.72482e-16
2.80968e-15
3.56409e-10
0.00259208
0.0768789
0.171137
0.208452
0.209355
0.176985
0.15148
0.122297
0.10784
0.0818757
0.0390248
0.0178845
0.01045
5.41096e-24
4.22475e-20
1.39903e-19
7.26626e-19
4.19096e-18
1.37419e-17
2.30138e-16
4.38974e-15
1.38689e-09
0.00426162
0.0908607
0.180385
0.209652
0.20508
0.17199
0.148334
0.120934
0.107605
0.0824133
0.0402887
0.0189004
0.0105565
5.41514e-24
8.89201e-20
2.11419e-19
8.42404e-19
4.52277e-18
1.41937e-17
3.26408e-16
7.08384e-15
4.74639e-09
0.00668444
0.104199
0.187455
0.209347
0.200707
0.167754
0.145856
0.119795
0.107202
0.0827333
0.0416623
0.0200082
0.010667
5.35951e-24
4.228e-20
1.37813e-19
7.42898e-19
4.58507e-18
1.54542e-17
4.58267e-16
1.12961e-14
1.44515e-08
0.0100639
0.116665
0.19258
0.207965
0.196536
0.164227
0.143867
0.118815
0.106662
0.0828243
0.0430939
0.0211671
0.0107831
5.36563e-24
8.84596e-20
2.10344e-19
8.57258e-19
4.93673e-18
1.60485e-17
6.78002e-16
1.8508e-14
4.28016e-08
0.0146043
0.128068
0.195992
0.205871
0.192624
0.161245
0.142238
0.117962
0.10602
0.0826663
0.0445631
0.0223562
0.0109032
5.30596e-24
4.14873e-20
1.3258e-19
7.51645e-19
5.01029e-18
1.74633e-17
9.80506e-16
2.99197e-14
2.19671e-07
0.0205806
0.138433
0.198005
0.20335
0.189086
0.158742
0.140872
0.117223
0.105305
0.0822538
0.0460295
0.0235276
0.0110282
5.31246e-24
8.52655e-20
2.03831e-19
8.62092e-19
5.38125e-18
1.81873e-17
1.47476e-15
5.74615e-14
1.14374e-05
0.028361
0.147815
0.198888
0.20062
0.185883
0.156592
0.139712
0.116601
0.10455
0.0815752
0.0475
0.0246623
0.0111563
5.24602e-24
4.16164e-20
1.27329e-19
7.57723e-19
5.48286e-18
1.98579e-17
2.14244e-15
4.65054e-13
0.000217674
0.0385369
0.156408
0.198936
0.197839
0.183068
0.154764
0.138716
0.116103
0.103784
0.0806351
0.0489714
0.0257232
0.0112883
5.24942e-24
5.37915e-20
1.54727e-19
7.99512e-19
5.76905e-18
2.06399e-17
3.20166e-15
2.313e-11
0.00168033
0.0518399
0.164352
0.198382
0.195116
0.180587
0.153176
0.137868
0.115745
0.103039
0.079436
0.0504897
0.0267132
0.011422
5.17262e-24
4.32821e-20
1.14477e-19
7.24302e-19
5.9406e-18
2.35459e-17
4.66285e-15
1.03289e-09
0.00697962
0.0687533
0.171811
0.197461
0.192521
0.178493
0.151835
0.137162
0.115544
0.102337
0.0780011
0.052079
0.0276244
0.0115584
5.166e-24
1.93957e-21
1.12096e-20
4.00665e-19
5.44932e-18
2.44391e-17
7.20747e-15
1.8401e-07
0.0194465
0.0892427
0.178803
0.196342
0.190089
0.176745
0.150693
0.136608
0.11552
0.101706
0.0763561
0.0537777
0.0284947
0.0116955
5.07785e-24
1.71172e-20
4.47751e-20
4.174e-19
5.46252e-18
3.62093e-17
1.80067e-14
5.18277e-05
0.0419509
0.112917
0.185316
0.195201
0.187821
0.17542
0.149792
0.136218
0.11569
0.101159
0.0745526
0.0555295
0.0293384
0.0118345
5.03906e-24
6.72043e-22
8.45955e-23
2.35254e-19
5.06654e-18
8.28218e-17
3.70801e-13
0.00124308
0.0764542
0.139106
0.191192
0.194154
0.185697
0.17448
0.149099
0.136025
0.116072
0.100703
0.0726484
0.0571647
0.0301557
0.011976
4.83832e-24
2.10334e-19
4.58165e-19
1.0296e-18
7.26101e-18
9.1362e-16
7.18223e-12
0.00798398
0.123761
0.167417
0.196567
0.19342
0.183693
0.173998
0.148657
0.136044
0.116661
0.100279
0.0707148
0.058251
0.0306417
0.0121338
0.00987657
0.0273629
0.0287648
0.0109195
0.00866335
0.00876962
0.00898417
0.00936054
0.0093693
0.00996023
0.0143114
0.0135568
0.0122441
0.011611
0.0118098
0.0131212
0.0153245
0.0169155
0.0164228
0.0137571
0.0119104
0.0115886
0.0118314
0.0123588
0.0131057
0.0138664
0.0146532
0.015196
0.0142925
0.012108
0.0792081
0.124869
0.129119
0.139688
0.157936
0.00986353
0.0278404
0.0279214
0.0105826
0.00853919
0.00864065
0.00903998
0.00944495
0.00937926
0.00996764
0.0140081
0.0132095
0.0119373
0.0112801
0.0114445
0.0127246
0.0150578
0.0169887
0.0166892
0.0138422
0.0117835
0.0113774
0.0115797
0.0120803
0.0128289
0.0136198
0.0144405
0.0150067
0.0141251
0.0117186
0.0786815
0.124739
0.129057
0.139625
0.157889
0.00983842
0.0282686
0.0264499
0.00999795
0.00842564
0.00848871
0.00920698
0.0096377
0.00944599
0.0100144
0.012961
0.012066
0.0110356
0.0103416
0.0101528
0.0108989
0.0128314
0.014927
0.0153192
0.013104
0.0113071
0.0109097
0.0110677
0.0115237
0.0122679
0.0131111
0.0140049
0.0146219
0.0137795
0.0118064
0.0779396
0.124422
0.128879
0.139443
0.157742
0.00979929
0.0286402
0.0245687
0.00941594
0.00837834
0.00840369
0.00945892
0.00983052
0.00955239
0.0101148
0.0118219
0.0108009
0.00999524
0.00936668
0.00886955
0.00896144
0.0101724
0.0120829
0.0131166
0.0118597
0.0105622
0.0102253
0.0103349
0.0107253
0.0114446
0.0123431
0.0133409
0.0140449
0.0132493
0.0121009
0.0769241
0.123914
0.128585
0.139143
0.157494
0.00974597
0.0288444
0.0224121
0.00883302
0.00831413
0.00831827
0.00967774
0.00992659
0.0096072
0.0101692
0.0108404
0.00971597
0.00912476
0.00863952
0.00791979
0.00742259
0.00785538
0.00930879
0.0106969
0.0103667
0.00962544
0.00937352
0.00943439
0.00974132
0.0104042
0.0113372
0.0124544
0.0132858
0.0125393
0.0123991
0.0755562
0.123226
0.128187
0.138736
0.157158
0.00967615
0.0287849
0.020091
0.00820556
0.00817348
0.00816946
0.00977005
0.0098709
0.00953584
0.010073
0.00999266
0.00882172
0.00842391
0.00808649
0.00723379
0.00630467
0.00608531
0.00698143
0.00842168
0.0088045
0.00856385
0.00840544
0.00842467
0.00863907
0.00921154
0.0101363
0.0113641
0.0123607
0.0116667
0.0125556
0.0737614
0.122378
0.127707
0.138247
0.156757
0.00959042
0.0283983
0.0177198
0.00753416
0.00795499
0.0079459
0.00970296
0.00965545
0.00931143
0.00977814
0.00918804
0.00802186
0.00776724
0.00752932
0.00662965
0.00545906
0.00479473
0.00517409
0.00644328
0.00727525
0.00743038
0.00736819
0.00736121
0.00748722
0.00794363
0.00880409
0.0101052
0.0112914
0.0106602
0.0124742
0.0714827
0.121392
0.127171
0.137703
0.156318
0.00948687
0.027637
0.0154117
0.00686032
0.00769598
0.00767365
0.00949466
0.00930684
0.00894876
0.00929522
0.00836798
0.00724156
0.00706289
0.00686234
0.00598873
0.00475434
0.00385857
0.00383782
0.00480107
0.00583184
0.00626833
0.00630362
0.00629225
0.00634735
0.00667902
0.0074215
0.00873125
0.010107
0.00955927
0.0121015
0.0686856
0.120297
0.126607
0.137136
0.155872
0.00936733
0.0264935
0.0132607
0.00623951
0.00744493
0.00739353
0.00919014
0.00886847
0.00848493
0.00867062
0.00752613
0.00645717
0.00629333
0.00608299
0.00528848
0.0041294
0.0031828
0.00290678
0.00351203
0.00452129
0.00512295
0.00525194
0.00525895
0.00526971
0.00548765
0.00607659
0.00731509
0.00884595
0.008411
0.0114219
0.0653597
0.119121
0.126048
0.136578
0.15545
0.0092307
0.024976
0.0113344
0.00572082
0.00724564
0.00714639
0.00884312
0.00838941
0.00796672
0.00796473
0.00668674
0.00567943
0.00548728
0.00524315
0.00456008
0.00356902
0.00270419
0.00231369
0.00259233
0.00341026
0.00405365
0.00425757
0.00429899
0.00429379
0.00442456
0.00485239
0.00594402
0.00755851
0.00726752
0.0104543
0.0615215
0.117894
0.125526
0.136064
0.155087
0.00908003
0.0231317
0.00967144
0.00533897
0.00713174
0.00696681
0.0085051
0.00791663
0.00744048
0.00723809
0.00588522
0.00493344
0.00468832
0.00440685
0.00385247
0.00307714
0.00237299
0.00197801
0.0020237
0.00256947
0.00313477
0.00337318
0.00345052
0.00345144
0.0035284
0.00381539
0.00470923
0.00630759
0.00618223
0.00925161
0.05722
0.116645
0.125071
0.135627
0.154814
0.00891508
0.0210193
0.00828844
0.00511389
0.0071277
0.00688161
0.00822136
0.00749226
0.0069489
0.00654431
0.00515592
0.00424687
0.00393813
0.00363108
0.00321046
0.00266005
0.00214291
0.00180839
0.00173083
0.00202446
0.00243377
0.00265336
0.00275142
0.00276844
0.00282237
0.00300775
0.00369053
0.00516509
0.00520573
0.00790053
0.0525481
0.115403
0.124713
0.1353
0.154663
0.00874002
0.0187306
0.0071856
0.00505392
0.00725197
0.00691076
0.00802909
0.0071512
0.00652809
0.00592712
0.0045268
0.00364533
0.0032721
0.00296037
0.00266973
0.00232128
0.00197412
0.00172155
0.00160839
0.00173035
0.00197453
0.00213475
0.00222964
0.00226054
0.0023133
0.00244288
0.00293949
0.00420177
0.00438126
0.00651838
0.0476578
0.114201
0.124479
0.135112
0.154663
0.00855535
0.0163629
0.00635526
0.00516021
0.00752083
0.0070696
0.00795775
0.00692082
0.00620713
0.00541951
0.0040179
0.00314901
0.00271913
0.00242477
0.00225207
0.00205919
0.00183798
0.00165812
0.00156093
0.00160015
0.00172223
0.00181422
0.0018883
0.00192528
0.00198922
0.00210447
0.00246709
0.00347106
0.00373929
0.00523994
0.0427741
0.113075
0.124394
0.135091
0.154841
0.00836592
0.0140316
0.00578653
0.00543151
0.00795195
0.00737243
0.00802958
0.00682155
0.00600727
0.00504409
0.00364161
0.00277256
0.00229809
0.00203697
0.00196023
0.00186673
0.00172005
0.00158941
0.00152675
0.00154998
0.00160896
0.00165055
0.00170103
0.00173927
0.0018215
0.00195405
0.00224406
0.00299285
0.00329212
0.00419076
0.0381954
0.112071
0.12448
0.135261
0.15522
0.00817267
0.0118437
0.00547167
0.00586906
0.00856789
0.00783671
0.00826477
0.00686939
0.00594347
0.00481435
0.00340394
0.00252243
0.00201419
0.00178959
0.00177804
0.00173213
0.00161679
0.00151196
0.00148192
0.00152456
0.00156959
0.00158864
0.00162509
0.00166699
0.00177478
0.00194655
0.0022177
0.00274893
0.00303113
0.00345244
0.0342605
0.111247
0.124755
0.135645
0.155821
0.00798033
0.00990014
0.00541264
0.00648109
0.00939793
0.00849241
0.00868543
0.00707916
0.00602671
0.00473764
0.00330793
0.0023984
0.0018592
0.00165809
0.00167672
0.00164018
0.00152977
0.00143577
0.0014296
0.00150161
0.00156126
0.00158212
0.00161925
0.00167375
0.00181745
0.00204303
0.00233205
0.0026948
0.00292985
0.00304094
0.0312722
0.110675
0.125237
0.136262
0.156661
0.00778933
0.00828095
0.0056298
0.00728924
0.0104821
0.00938382
0.00932107
0.00746996
0.00626779
0.0048186
0.00335346
0.00239516
0.00181559
0.0016105
0.00162525
0.00157508
0.00145961
0.00137156
0.00138222
0.00148103
0.00156533
0.00160268
0.00165421
0.00173377
0.00192661
0.00221488
0.00253901
0.00277746
0.00295288
0.00291842
0.0294115
0.110426
0.125939
0.137126
0.157756
0.00760307
0.00703157
0.0061668
0.00833053
0.0118735
0.0105727
0.0102125
0.00806983
0.00668116
0.00506245
0.00354189
0.00250648
0.00186357
0.00161675
0.00159729
0.00152323
0.00140435
0.00132453
0.00134955
0.00147025
0.00157888
0.00163848
0.00171451
0.0018322
0.00208824
0.0024425
0.00280163
0.00294808
0.00306612
0.00302852
0.0287142
0.110565
0.126873
0.138254
0.159118
0.00742066
0.00614975
0.00709799
0.00965524
0.0136385
0.0121373
0.0114124
0.00891838
0.00728795
0.00547879
0.00387943
0.00272806
0.00198662
0.00165471
0.00157607
0.00147643
0.00136057
0.00129395
0.00133425
0.00147462
0.00160465
0.00168745
0.00179515
0.00196318
0.0022948
0.00271222
0.00309384
0.00316842
0.00324439
0.003326
0.0291269
0.11113
0.128047
0.139656
0.160758
0.00724378
0.00559185
0.00853165
0.0113286
0.0158554
0.0141677
0.0129829
0.0100655
0.008117
0.00608396
0.00437998
0.00306226
0.0021762
0.00171224
0.00155431
0.00143223
0.00132624
0.00127722
0.00133468
0.00149512
0.0016449
0.00175117
0.00189685
0.00212627
0.00254223
0.00301365
0.00339861
0.00341285
0.00347466
0.00378998
0.0305758
0.112134
0.129469
0.141343
0.162683
0.00707145
0.00530361
0.0106082
0.0134361
0.0186151
0.0167607
0.0149913
0.0115671
0.00920301
0.00689999
0.00506477
0.00351989
0.00243468
0.0017883
0.00153355
0.00139327
0.00130192
0.00127276
0.001348
0.00152977
0.00169988
0.00183151
0.0020224
0.00232324
0.00282743
0.00333829
0.00370622
0.00366783
0.00375618
0.00442511
0.0330007
0.113565
0.131144
0.143323
0.164901
0.00690537
0.00524966
0.0134888
0.0160968
0.0220289
0.0200226
0.01751
0.0134794
0.0105826
0.00795048
0.00595689
0.00412032
0.0027766
0.00189263
0.00152067
0.00136458
0.00129062
0.00128179
0.00137319
0.00157601
0.00176849
0.00192979
0.00217482
0.00255589
0.00314683
0.00367901
0.00401253
0.00392987
0.00409902
0.00525759
0.0363556
0.115394
0.133077
0.145604
0.167415
0.00674534
0.00541557
0.0173405
0.0194837
0.026242
0.0240779
0.0206195
0.015856
0.0122884
0.00925232
0.00706916
0.00488193
0.00322332
0.00204555
0.00152713
0.00135256
0.00129654
0.00130732
0.00141101
0.00163166
0.00184928
0.00204692
0.00235667
0.00282484
0.00349579
0.00403026
0.00431785
0.00420336
0.00452221
0.00633034
0.040596
0.117584
0.13527
0.148191
0.17023
0.00659312
0.00580636
0.0223055
0.0238414
0.0314414
0.0290718
0.0244067
0.0187412
0.0143414
0.0108059
0.00838977
0.00580758
0.00378952
0.00227306
0.00156759
0.00136406
0.00132455
0.0013537
0.0014642
0.00169551
0.00194102
0.00218394
0.00256989
0.00312922
0.00386903
0.00438843
0.00462586
0.00449856
0.0050524
0.00769919
0.0456659
0.120098
0.137725
0.151089
0.173345
0.00644962
0.0064427
0.0284704
0.0294839
0.0378412
0.035145
0.0289445
0.022154
0.0167365
0.012583
0.00987033
0.00686712
0.00446375
0.00259461
0.00166049
0.0014077
0.00138001
0.00142549
0.00153616
0.00176713
0.00204299
0.00234208
0.00281578
0.00346674
0.00426123
0.00475212
0.00494303
0.0048303
0.00572285
0.00942984
0.0514889
0.122899
0.140441
0.1543
0.176762
0.00631698
0.00734524
0.0358457
0.0367629
0.0456368
0.0423719
0.0342445
0.0260567
0.0194216
0.0145152
0.0114221
0.0079916
0.00519796
0.0030031
0.00182247
0.00149396
0.00146957
0.00152794
0.00163154
0.00184763
0.00215522
0.00252303
0.00309499
0.0038341
0.0046679
0.00512217
0.00527786
0.00521711
0.00657303
0.0115948
0.057966
0.125958
0.143418
0.157827
0.180477
0.00619775
0.00852801
0.0443986
0.0460132
0.0549362
0.0506768
0.0401957
0.0303181
0.0222774
0.0164856
0.0129204
0.00907778
0.00591285
0.0034555
0.0020588
0.00163457
0.0016011
0.00166634
0.00175525
0.00194008
0.00227894
0.00272888
0.00340759
0.00422757
0.00508592
0.00550154
0.00564072
0.00568081
0.00764851
0.0142694
0.0649787
0.129249
0.146653
0.16167
0.184487
0.00609509
0.00999148
0.0541223
0.0574959
0.0656875
0.059765
0.0465161
0.0346886
0.0251067
0.0183323
0.0142181
0.0100056
0.00651663
0.00388431
0.00235157
0.0018371
0.00178294
0.00184644
0.00191316
0.00205054
0.00241712
0.00296233
0.00375321
0.00464363
0.00551403
0.0058949
0.00604345
0.00624649
0.00900092
0.0175273
0.0723969
0.132752
0.150145
0.165829
0.188787
0.00601408
0.011739
0.0651116
0.0713311
0.0776108
0.0690945
0.0527431
0.0388063
0.0276463
0.0198622
0.0151646
0.0106567
0.00692439
0.00422219
0.00266363
0.00209915
0.00202044
0.00207225
0.00211013
0.0021878
0.00257518
0.00322668
0.00413119
0.00507948
0.00595274
0.00630828
0.00649938
0.00694263
0.0106879
0.0214346
0.0800882
0.136451
0.153889
0.1703
0.193369
0.00596079
0.0137879
0.0775475
0.0873655
0.0901232
0.0778918
0.0582695
0.0422328
0.0295977
0.0208777
0.0156271
0.0109349
0.00707445
0.00442072
0.00295295
0.00240468
0.00231201
0.00234435
0.00234969
0.00236321
0.00276139
0.00352618
0.0045409
0.00553342
0.00640427
0.0067486
0.00702315
0.00780142
0.0127728
0.0260435
0.087927
0.140334
0.157881
0.175083
0.198227
0.00594609
0.0161943
0.0915978
0.10496
0.102278
0.0852185
0.0624236
0.0445182
0.0306757
0.0212086
0.0155123
0.0107804
0.00693859
0.00446012
0.0031893
0.00272931
0.00264588
0.00265602
0.00263013
0.0025884
0.00298719
0.00386581
0.00498187
0.00600494
0.0068721
0.00722335
0.00763086
0.00885921
0.0153241
0.0313873
0.0958025
0.14439
0.162119
0.180173
0.203353
0.00598322
0.0190466
0.107191
0.12279
0.11279
0.0901046
0.0645862
0.045283
0.0306622
0.020747
0.014786
0.0101841
0.00652907
0.00435112
0.00335956
0.00304792
0.00300209
0.00299331
0.00294407
0.00287304
0.00326679
0.00425144
0.0054539
0.00649464
0.00736064
0.00774017
0.00833995
0.0101571
0.0184143
0.037476
0.103624
0.148613
0.166598
0.185572
0.208739
0.00609167
0.0224709
0.123793
0.138888
0.12023
0.0917537
0.0643291
0.0443058
0.0294585
0.0194747
0.0134864
0.00919366
0.00590007
0.0041308
0.00346793
0.00334199
0.00335676
0.00333575
0.00327636
0.00322037
0.00361593
0.00468915
0.00595698
0.00700375
0.00787457
0.00830664
0.00916944
0.0117416
0.0221185
0.0442946
0.111322
0.152999
0.171319
0.191279
0.214382
0.00628805
0.0265943
0.140276
0.151047
0.123377
0.0897581
0.0615307
0.0415854
0.027116
0.017478
0.0117289
0.0079162
0.00514324
0.00385285
0.00352972
0.0036011
0.00368863
0.00366252
0.00360872
0.00362515
0.00404913
0.00518469
0.00649088
0.00753361
0.00841857
0.00892999
0.0101399
0.0136656
0.0265126
0.0518043
0.118851
0.157549
0.176284
0.197302
0.220281
0.00658505
0.0315439
0.155126
0.157497
0.121587
0.0842357
0.0564256
0.0373576
0.0238381
0.0149402
0.00969512
0.0065081
0.00437142
0.00357319
0.00356521
0.00382199
0.00398164
0.00395553
0.00392234
0.00407206
0.00457523
0.00574149
0.00705449
0.00808484
0.00899666
0.00961696
0.0112738
0.015989
0.0316712
0.0599463
0.12619
0.162268
0.181503
0.203654
0.226442
0.00697682
0.037363
0.166814
0.157428
0.114988
0.0758048
0.0495516
0.0320458
0.0199421
0.0121142
0.00760977
0.00515198
0.00369101
0.00333652
0.00359236
0.00400511
0.00422703
0.00420451
0.00420484
0.00454028
0.0051922
0.00635879
0.00764496
0.00865668
0.00961197
0.0103738
0.0125959
0.0187805
0.0376666
0.0686487
0.133336
0.167171
0.186988
0.210355
0.232876
0.00744499
0.043954
0.17415
0.151103
0.104392
0.0654104
0.0416175
0.026169
0.0158007
0.00928347
0.00570475
0.00401287
0.00317058
0.00316758
0.00362254
0.00415178
0.0044208
0.00440549
0.00445055
0.0050078
0.00588313
0.00702836
0.00825655
0.00924624
0.0102663
0.0112063
0.0141339
0.022118
0.0445671
0.0778353
0.14031
0.172282
0.192764
0.217438
0.239605
0.00795396
0.0508309
0.176305
0.139529
0.0910024
0.0540803
0.0333441
0.0202398
0.0117817
0.00672307
0.00417094
0.00318614
0.00282682
0.00307036
0.00365803
0.0042621
0.00456339
0.00456185
0.00466362
0.0054593
0.00661686
0.00773286
0.0088801
0.00984839
0.01096
0.0121202
0.0159192
0.0260909
0.0524377
0.0874354
0.14715
0.177632
0.198861
0.224945
0.24666
0.00846726
0.0570368
0.172747
0.124027
0.0760835
0.0427233
0.0253459
0.0146985
0.0082113
0.00465918
0.00309946
0.00266895
0.00263464
0.00303155
0.00369328
0.00433442
0.00465589
0.00467953
0.00485377
0.00588749
0.0073533
0.00844525
0.00950296
0.0104558
0.0116918
0.0131214
0.0179885
0.0308015
0.0613413
0.0973935
0.15391
0.183267
0.205322
0.232931
0.254084
0.00894498
0.061077
0.16314
0.105906
0.0607355
0.0320223
0.0180803
0.00989198
0.00535072
0.00321364
0.00245137
0.00238876
0.00254786
0.0030274
0.00371766
0.00436554
0.00470008
0.00476702
0.00503698
0.00629689
0.00805307
0.00913286
0.0101105
0.0110601
0.0124592
0.0142165
0.0203855
0.0363675
0.0713412
0.107678
0.160661
0.189241
0.212195
0.241461
0.261927
0.0093615
0.0614169
0.14743
0.0863811
0.0458361
0.0224448
0.0118731
0.00608728
0.00335638
0.00234651
0.00210319
0.00225275
0.00251484
0.00303085
0.0037194
0.00435108
0.00469507
0.00483046
0.00523013
0.00669995
0.00868644
0.00976326
0.0106881
0.0116526
0.013258
0.0154129
0.0231621
0.0429238
0.0825063
0.11829
0.167489
0.195618
0.219537
0.250608
0.270249
0.0096768
0.0567389
0.125899
0.0666059
0.0321227
0.0143366
0.00698265
0.00346059
0.00219009
0.00188613
0.00192355
0.00217806
0.00248999
0.00301919
0.00368884
0.00428642
0.00463905
0.00487496
0.00545257
0.00711864
0.00924112
0.0103133
0.0112251
0.0122265
0.0140832
0.0167183
0.0263802
0.0506259
0.094916
0.129264
0.174488
0.202464
0.227409
0.260451
0.279113
0.00988074
0.0469243
0.0995346
0.0476546
0.0202424
0.00797538
0.0035977
0.00196622
0.00159253
0.00163631
0.00179997
0.00209508
0.00243348
0.00297052
0.00361415
0.00416214
0.00452371
0.004897
0.00571895
0.00757931
0.0097248
0.0107737
0.0117168
0.0127777
0.0149284
0.0181397
0.0301112
0.0596514
0.108667
0.140674
0.181765
0.209849
0.235874
0.271067
0.288587
4.88247e-24
3.1527e-19
1.14202e-18
4.3143e-18
2.50202e-17
3.15739e-14
9.04067e-11
0.0297769
0.168449
0.18941
0.200088
0.193137
0.182286
0.174005
0.148541
0.136297
0.117337
0.0998581
0.069277
0.0584177
0.0302595
0.0121418
4.99618e-24
7.3948e-20
8.35438e-20
6.24817e-18
6.24859e-17
2.46179e-13
9.24655e-10
0.0564374
0.198921
0.202719
0.201625
0.192901
0.181455
0.174241
0.148719
0.136671
0.118044
0.099621
0.0685657
0.058174
0.0298278
0.0121906
5.10229e-24
2.76625e-19
8.77846e-19
8.89989e-18
1.22248e-16
9.28641e-13
9.32366e-09
0.088278
0.226179
0.213655
0.202568
0.192672
0.180818
0.17465
0.14912
0.13722
0.118951
0.0994769
0.0682139
0.0575612
0.0292949
0.012349
5.06204e-24
5.72596e-20
2.14766e-20
6.84917e-18
1.92225e-16
2.27782e-12
1.69565e-07
0.121881
0.2497
0.222522
0.203327
0.19256
0.180441
0.175279
0.149783
0.137924
0.120025
0.0994334
0.0682102
0.0566117
0.028695
0.0126061
5.1659e-24
2.21306e-19
6.3216e-19
7.22873e-18
2.88052e-16
3.60745e-12
6.54816e-06
0.152046
0.269411
0.229641
0.204194
0.192646
0.180389
0.176111
0.150683
0.138773
0.121225
0.0994924
0.0685227
0.0553962
0.0280739
0.0129531
5.11409e-24
4.59236e-20
1.20666e-20
4.61441e-18
4.09555e-16
4.8677e-12
1.86225e-05
0.173118
0.285424
0.235369
0.20541
0.193021
0.180713
0.1772
0.151863
0.139753
0.12251
0.0996502
0.0691166
0.0539726
0.0274416
0.0134073
5.2294e-24
1.78688e-19
4.7332e-19
4.63559e-18
5.80047e-16
5.05694e-12
3.44269e-05
0.182365
0.29799
0.239999
0.207109
0.193747
0.181459
0.178534
0.153298
0.140868
0.12384
0.099903
0.0699393
0.0524227
0.0268238
0.0139823
5.17026e-24
3.80404e-20
7.88011e-21
2.77939e-18
7.71832e-16
4.37265e-12
2.57513e-05
0.180572
0.307311
0.243807
0.209397
0.194892
0.182658
0.18017
0.155036
0.14212
0.125183
0.10024
0.0709437
0.0508022
0.0262183
0.0146959
5.29808e-24
1.46656e-19
3.69517e-19
2.86064e-18
9.85383e-16
2.87798e-12
2.73665e-05
0.170603
0.313561
0.246969
0.212298
0.196492
0.184334
0.182094
0.157054
0.143529
0.126519
0.100654
0.0720717
0.0491838
0.0256444
0.0155518
5.22357e-24
3.24412e-20
5.8872e-21
1.68652e-18
1.14734e-15
1.68767e-12
3.52346e-05
0.155158
0.316746
0.249616
0.215831
0.198595
0.186498
0.184361
0.159404
0.145114
0.127843
0.101131
0.0732803
0.0476085
0.025093
0.0165534
5.35785e-24
1.21929e-19
2.97361e-19
1.84175e-18
1.2516e-15
8.5179e-13
4.00732e-05
0.135994
0.316773
0.251767
0.21994
0.201214
0.189158
0.186948
0.162062
0.146909
0.129167
0.101664
0.074519
0.046133
0.0245796
0.0176865
5.27119e-24
2.84274e-20
4.69162e-21
1.08035e-18
1.23828e-15
4.16193e-13
4.10413e-05
0.11473
0.313358
0.25338
0.224577
0.204378
0.192316
0.189902
0.165077
0.148941
0.130516
0.102243
0.0757595
0.0447808
0.0240911
0.0189356
5.41229e-24
1.02863e-19
2.48121e-19