/*--------------------------------*- C++ -*----------------------------------*\
| =========                 |                                                 |
| \\      /  F ield         | OpenFOAM: The Open Source CFD Toolbox           |
|  \\    /   O peration     | Version:  v1912                                 |
|   \\  /    A nd           | Website:  www.openfoam.com                      |
|    \\/     M anipulation  |                                                 |
\*---------------------------------------------------------------------------*/
FoamFile
{
    version     2.0;
    format      ascii;
    class       volScalarField;
    location    "350";
    object      p;
}
// * * * * * * * * * * * * * * * * * * * * * * * * * * * * * * * * * * * * * //

dimensions      [0 2 -2 0 0 0 0];


internalField   nonuniform List<scalar> 
12441
(
8.77535
9.07218
9.91991
11.2407
12.9526
15.1045
17.7847
21.1127
25.248
30.3587
36.6685
44.4162
54.1444
66.0797
81.7142
101.423
129.504
164.581
221.515
284.008
375.075
438.041
8.77534
9.07217
9.9199
11.2407
12.9526
15.1045
17.7846
21.1126
25.2478
30.3585
36.6681
44.4156
54.1434
66.0779
81.7112
101.416
129.488
164.557
221.434
283.932
375.027
437.846
8.77532
9.07215
9.91988
11.2407
12.9526
15.1044
17.7845
21.1124
25.2475
30.358
36.6673
44.4144
54.1415
66.0744
81.7053
101.402
129.464
164.5
221.265
283.751
374.896
437.493
8.7753
9.07212
9.91985
11.2406
12.9525
15.1043
17.7843
21.1121
25.2471
30.3573
36.6662
44.4126
54.1385
66.0691
81.6964
101.381
129.43
164.414
221.087
283.474
374.657
436.944
8.77527
9.07209
9.9198
11.2406
12.9524
15.1041
17.7841
21.1117
25.2465
30.3564
36.6647
44.4102
54.1346
66.062
81.6847
101.354
129.387
164.306
220.922
283.127
374.32
436.195
8.77523
9.07204
9.91974
11.2405
12.9522
15.1039
17.7838
21.1112
25.2458
30.3552
36.6628
44.4073
54.1298
66.0531
81.67
101.32
129.334
164.179
220.736
282.706
373.891
435.247
8.77518
9.07199
9.91967
11.2404
12.9521
15.1037
17.7834
21.1106
25.2449
30.3538
36.6606
44.4037
54.1239
66.0424
81.6525
101.28
129.271
164.031
220.518
282.216
373.374
434.099
8.77513
9.07193
9.91959
11.2402
12.9519
15.1034
17.783
21.1099
25.2438
30.3521
36.6579
44.3995
54.1171
66.03
81.6321
101.235
129.202
163.861
220.281
281.668
372.774
432.749
8.77507
9.07186
9.9195
11.2401
12.9517
15.1031
17.7825
21.1091
25.2427
30.3502
36.6549
44.3947
54.1094
66.0158
81.6093
101.185
129.131
163.679
220.044
281.075
372.094
431.192
8.775
9.07178
9.9194
11.2399
12.9515
15.1027
17.782
21.1082
25.2413
30.3481
36.6515
44.3893
54.1006
66.0001
81.5853
101.135
129.064
163.495
219.832
280.448
371.335
429.423
8.77492
9.07169
9.91929
11.2398
12.9512
15.1024
17.7814
21.1073
25.2399
30.3458
36.6477
44.3834
54.0909
65.983
81.5615
101.089
129.017
163.328
219.677
279.795
370.495
427.434
8.77483
9.07159
9.91916
11.2396
12.9509
15.1019
17.7807
21.1062
25.2382
30.3432
36.6436
44.3768
54.0803
65.9656
81.5413
101.06
129.021
163.215
219.609
279.122
369.568
425.217
8.77474
9.07149
9.91902
11.2394
12.9506
15.1014
17.78
21.105
25.2365
30.3404
36.6391
44.3696
54.0691
65.9501
81.5342
101.069
129.121
163.2
219.634
278.42
368.545
422.759
8.77464
9.07137
9.91887
11.2391
12.9503
15.1009
17.7792
21.1037
25.2345
30.3373
36.6342
44.3619
54.0579
65.9412
81.5555
101.145
129.361
163.323
219.725
277.671
367.417
420.05
8.77453
9.07125
9.91871
11.2389
12.9499
15.1004
17.7784
21.1024
25.2325
30.334
36.6289
44.3535
54.0482
65.9475
81.6226
101.309
129.761
163.587
219.818
276.848
366.174
417.075
8.77441
9.07112
9.91854
11.2386
12.9495
15.0998
17.7775
21.1009
25.2303
30.3305
36.6232
44.3449
54.0432
65.9793
81.7491
101.568
130.299
163.938
219.84
275.927
364.807
413.82
8.77428
9.07098
9.91836
11.2384
12.9491
15.0991
17.7765
21.0993
25.2279
30.3267
36.6172
44.3365
54.048
66.0451
81.9377
101.912
130.908
164.28
219.732
274.887
363.31
410.271
8.77415
9.07083
9.91816
11.2381
12.9486
15.0985
17.7755
21.0977
25.2254
30.3227
36.6106
44.3294
54.0692
66.1482
82.1794
102.304
131.482
164.504
219.466
273.717
361.675
406.414
8.77401
9.07067
9.91796
11.2378
12.9482
15.0978
17.7744
21.0959
25.2227
30.3184
36.6037
44.3259
54.1116
66.2843
82.453
102.695
131.911
164.541
219.044
272.416
359.9
402.234
8.77386
9.0705
9.91774
11.2374
12.9477
15.097
17.7733
21.094
25.2199
30.3139
36.5964
44.3292
54.1768
66.4435
82.7305
103.027
132.111
164.376
218.491
270.987
357.982
397.714
8.77371
9.07032
9.91751
11.2371
12.9472
15.0962
17.7721
21.0921
25.217
30.3091
36.5892
44.3429
54.2611
66.6117
82.9792
103.251
132.055
164.049
217.836
269.437
355.92
392.84
8.77354
9.07014
9.91727
11.2367
12.9466
15.0954
17.7708
21.09
25.2139
30.3041
36.5823
44.37
54.358
66.7745
83.1716
103.337
131.776
163.621
217.107
267.773
353.715
387.594
8.77337
9.06994
9.91702
11.2363
12.946
15.0945
17.7695
21.0879
25.2106
30.2988
36.5768
44.4102
54.459
66.9178
83.2875
103.286
131.347
163.145
216.323
266.006
351.369
381.96
8.77319
9.06974
9.91676
11.2359
12.9454
15.0936
17.7681
21.0856
25.2072
30.2932
36.5743
44.461
54.5567
67.0307
83.3225
103.119
130.851
162.653
215.493
264.143
348.882
375.918
8.773
9.06953
9.91648
11.2355
12.9448
15.0926
17.7667
21.0833
25.2036
30.2873
36.5765
44.5183
54.6443
67.106
83.2829
102.874
130.352
162.157
214.622
262.194
346.259
369.449
8.77281
9.06931
9.91619
11.2351
12.9442
15.0917
17.7652
21.0808
25.1999
30.2812
36.5848
44.5774
54.7177
67.1424
83.1861
102.59
129.885
161.655
213.711
260.17
343.502
362.533
8.77261
9.06908
9.9159
11.2346
12.9435
15.0906
17.7636
21.0783
25.196
30.275
36.5999
44.6344
54.7736
67.1423
83.0507
102.298
129.459
161.139
212.761
258.079
340.613
355.146
8.77239
9.06884
9.91559
11.2341
12.9428
15.0896
17.762
21.0756
25.1919
30.2688
36.621
44.6862
54.8111
67.1121
82.8956
102.013
129.067
160.606
211.77
255.93
337.593
347.265
8.77218
9.0686
9.91526
11.2337
12.942
15.0884
17.7603
21.0729
25.1877
30.2628
36.6463
44.7307
54.8303
67.0588
82.7331
101.746
128.699
160.051
210.738
253.73
334.444
338.863
8.77195
9.06834
9.91493
11.2332
12.9413
15.0873
17.7586
21.07
25.1833
30.2572
36.6737
44.7667
54.8329
66.9901
82.5726
101.495
128.343
159.473
209.664
251.482
331.162
329.913
8.77172
9.06808
9.91459
11.2326
12.9405
15.0861
17.7568
21.0671
25.1787
30.2521
36.7016
44.7934
54.821
66.9114
82.4169
101.259
127.992
158.874
208.548
249.19
327.743
320.383
8.77147
9.0678
9.91423
11.2321
12.9397
15.0849
17.7549
21.064
25.174
30.2479
36.7285
44.8111
54.7975
66.8278
82.2685
101.032
127.64
158.254
207.391
246.853
324.181
310.241
8.77123
9.06752
9.91386
11.2315
12.9389
15.0836
17.753
21.0609
25.1691
30.2449
36.7535
44.8199
54.7646
66.7418
82.1255
100.812
127.286
157.615
206.193
244.471
320.467
299.452
8.77097
9.06723
9.91348
11.231
12.938
15.0823
17.751
21.0576
25.164
30.2435
36.7757
44.8208
54.725
66.6555
81.9881
100.595
126.925
156.957
204.954
242.044
316.589
287.979
8.7707
9.06693
9.91309
11.2304
12.9371
15.081
17.749
21.0543
25.1588
30.2441
36.7948
44.8146
54.6804
66.5696
81.8538
100.379
126.559
156.282
203.674
239.571
312.535
275.782
8.77043
9.06662
9.91269
11.2298
12.9362
15.0796
17.7469
21.0508
25.1534
30.2472
36.8107
44.8025
54.6327
66.485
81.7223
100.163
126.186
155.592
202.355
237.054
308.295
262.82
8.77015
9.06631
9.91227
11.2291
12.9353
15.0781
17.7447
21.0472
25.1479
30.2537
36.8235
44.7856
54.5827
66.4012
81.5918
99.9453
125.807
154.888
200.997
234.495
303.856
249.049
8.76986
9.06598
9.91185
11.2285
12.9343
15.0767
17.7425
21.0436
25.1427
30.2652
36.8338
44.7648
54.5317
66.3189
81.4624
99.7253
125.421
154.17
199.601
231.899
299.209
234.422
8.76957
9.06564
9.91141
11.2278
12.9333
15.0752
17.7402
21.0398
25.1388
30.2827
36.8419
44.7412
54.4798
66.2374
81.3326
99.5035
125.03
153.44
198.17
229.272
294.345
218.891
8.76926
9.0653
9.91096
11.2272
12.9323
15.0736
17.7378
21.0359
25.1395
30.3064
36.8482
44.7156
54.4278
66.1574
81.2032
99.279
124.634
152.697
196.706
226.618
289.26
202.403
8.76895
9.06495
9.9105
11.2265
12.9313
15.0721
17.7354
21.0318
25.1495
30.3364
36.8528
44.6885
54.3755
66.0784
81.0729
99.0527
124.233
151.944
195.213
223.942
283.951
184.905
8.76863
9.06459
9.91003
11.2258
12.9302
15.0704
17.733
21.028
25.1732
30.3721
36.8556
44.6608
54.3233
66.0011
80.943
98.8244
123.828
151.179
193.695
221.246
278.417
166.348
8.7683
9.06422
9.90954
11.225
12.9291
15.0688
17.7304
21.0251
25.2136
30.4124
36.8563
44.6328
54.2708
65.925
80.8121
98.5949
123.419
150.402
192.156
218.528
272.632
146.646
8.76797
9.06384
9.90904
11.2243
12.928
15.0671
17.7278
21.027
25.2697
30.4554
36.8549
44.6054
54.2183
65.8511
80.6821
98.3644
123.007
149.609
190.603
215.776
266.516
125.056
-19.5401
-22.9916
-24.8253
-22.5131
-18.4641
-15.9885
-13.859
-12.4933
-11.324
-10.1326
-8.99442
-8.305
-7.98743
-5.96555
-0.472531
7.01294
12.2056
14.042
14.0502
14.2619
13.2757
12.3397
10.9375
8.80072
7.06025
5.50407
4.97656
4.07484
4.75279
-2.61764
-3.89898
6.95826
4.33814
2.6555
0.878536
-19.543
-22.9778
-24.8505
-22.5139
-18.4627
-15.9864
-13.8593
-12.4932
-11.3237
-10.1317
-8.99424
-8.30386
-7.98478
-5.96145
-0.46666
7.02269
12.219
14.0535
14.0559
14.2649
13.278
12.3416
10.9396
8.80294
7.06244
5.50622
4.97799
4.07562
4.76018
-2.61607
-3.94078
6.94761
4.33874
2.65585
0.878561
-19.5473
-22.9681
-24.8921
-22.5161
-18.4614
-15.9837
-13.8593
-12.4929
-11.3233
-10.1306
-8.99368
-8.30227
-7.9813
-5.95613
-0.45664
7.0425
12.2493
14.0848
14.0768
14.275
13.2835
12.346
10.9437
8.80702
7.06625
5.50976
4.98048
4.07737
4.76863
-2.61873
-3.979
6.93717
4.33945
2.65622
0.878587
-19.5533
-22.9694
-24.9492
-22.5206
-18.4609
-15.9806
-13.8589
-12.4924
-11.3228
-10.1295
-8.99332
-8.30086
-7.9777
-5.95068
-0.445475
7.06653
12.2894
14.1312
14.112
14.2927
13.2924
12.3528
10.9501
8.81315
7.07195
5.51501
4.98442
4.0796
4.77846
-2.62564
-4.0009
6.92696
4.3402
2.65661
0.878619
-19.561
-22.9864
-25.0186
-22.5274
-18.4602
-15.9769
-13.8576
-12.4917
-11.3223
-10.1284
-8.99345
-8.29984
-7.9751
-5.94709
-0.43711
7.08688
12.3261
14.1773
14.1507
14.3137
13.3036
12.3615
10.9582
8.82095
7.07929
5.52184
4.98975
4.08252
4.78924
-2.63314
-4.00557
6.91761
4.34101
2.657
0.878653
-19.5701
-23.0236
-25.0969
-22.5355
-18.458
-15.9717
-13.8549
-12.4907
-11.3217
-10.1276
-8.99398
-8.29924
-7.97364
-5.94544
-0.431974
7.10161
12.3543
14.2153
14.1857
14.3348
13.3158
12.3713
10.9672
8.8298
7.08783
5.53002
4.99635
4.08617
4.80071
-2.63762
-3.99434
6.90927
4.34189
2.6574
0.878689
-19.5805
-23.0848
-25.1808
-22.5441
-18.4539
-15.9651
-13.8507
-12.4896
-11.3209
-10.1271
-8.99488
-8.29889
-7.97291
-5.94477
-0.428699
7.1119
12.3746
14.2441
14.2148
14.3545
13.3285
12.3815
10.9766
8.83904
7.097
5.53913
5.00399
4.09046
4.81275
-2.6366
-3.96836
6.90191
4.34285
2.65779
0.878722
-19.5919
-23.172
-25.2671
-22.5532
-18.4483
-15.9575
-13.8453
-12.4885
-11.3202
-10.1269
-8.99609
-8.29872
-7.97254
-5.94414
-0.425892
7.11926
12.3884
14.2647
14.238
14.3724
13.3411
12.3916
10.9858
8.84803
7.10615
5.54865
5.01237
4.09527
4.8253
-2.62895
-3.92847
6.8955
4.34389
2.65819
0.878752
-19.6039
-23.2858
-25.3525
-22.5631
-18.4419
-15.9494
-13.8392
-12.4874
-11.3196
-10.1272
-8.99758
-8.29871
-7.97242
-5.94326
-0.422976
7.12448
12.3971
14.2785
14.2556
14.3881
13.3531
12.4011
10.9942
8.85617
7.11463
5.55795
5.02104
4.10046
4.83827
-2.61454
-3.8755
6.89
4.345
2.65858
0.878775
-19.6165
-23.4251
-25.4343
-22.5742
-18.4353
-15.9417
-13.8329
-12.4866
-11.3193
-10.1281
-8.99935
-8.29891
-7.97259
-5.94219
-0.419921
7.12786
12.4012
14.2862
14.2676
14.4009
13.3638
12.4095
11.0013
8.86296
7.12185
5.56636
5.02946
4.10588
4.85149
-2.59391
-3.81046
6.88541
4.34619
2.65897
0.878789
-19.6293
-23.5868
-25.5101
-22.5867
-18.4291
-15.9349
-13.8269
-12.4862
-11.3193
-10.1295
-9.00135
-8.29935
-7.97312
-5.94116
-0.417021
7.12961
12.4018
14.2886
14.2741
14.4099
13.3722
12.416
11.0067
8.868
7.12735
5.57331
5.03704
4.1113
4.86477
-2.56818
-3.73471
6.88179
4.34746
2.65934
0.878791
-19.6422
-23.766
-25.5781
-22.6006
-18.4236
-15.9294
-13.8218
-12.4863
-11.3198
-10.1316
-9.00361
-8.30006
-7.97401
-5.94028
-0.414535
7.12997
12.3996
14.2871
14.2757
14.4146
13.3776
12.42
11.0099
8.87106
7.13088
5.57841
5.04324
4.11644
4.87794
-2.539
-3.65005
6.87929
4.3488
2.6597
0.878779
-19.655
-23.9561
-25.6374
-22.6157
-18.4192
-15.9257
-13.8179
-12.487
-11.321
-10.1344
-9.00616
-8.30109
-7.97521
-5.93968
-0.412741
7.12924
12.3958
14.2827
14.2735
14.4152
13.3796
12.4213
11.0109
8.87208
7.13243
5.58154
5.04772
4.12099
4.89087
-2.50841
-3.55898
6.87812
4.35021
2.66005
0.87875
-19.6676
-24.149
-25.6878
-22.6312
-18.4164
-15.9239
-13.8156
-12.4886
-11.323
-10.1381
-9.00911
-8.30248
-7.97661
-5.93932
-0.411757
7.12761
12.391
14.2768
14.2687
14.4125
13.3784
12.4198
11.0095
8.87119
7.13218
5.58285
5.05041
4.12463
4.90348
-2.47863
-3.46479
6.87865
4.3517
2.66037
0.878704
-19.6799
-24.3358
-25.7296
-22.6463
-18.4153
-15.9243
-13.8152
-12.4911
-11.3258
-10.1426
-9.01256
-8.30428
-7.97813
-5.93923
-0.411629
7.12519
12.3858
14.2701
14.2624
14.4076
13.3747
12.416
11.006
8.86866
7.13052
5.58271
5.05148
4.1272
4.91574
-2.4515
-3.37169
6.88133
4.35324
2.66068
0.878638
-19.692
-24.5076
-25.7638
-22.6598
-18.4161
-15.9272
-13.8168
-12.495
-11.3298
-10.1482
-9.01671
-8.30655
-7.97968
-5.93929
-0.412192
7.12199
12.3799
14.2626
14.2553
14.4014
13.3694
12.4102
11.0008
8.86482
7.1278
5.58155
5.0513
4.12872
4.92769
-2.42803
-3.28466
6.88669
4.35485
2.66097
0.878552
-19.7038
-24.6565
-25.7914
-22.67
-18.4192
-15.9328
-13.8207
-12.5002
-11.335
-10.155
-9.02171
-8.30933
-7.98126
-5.9394
-0.413231
7.11801
12.373
14.2542
14.2475
14.3945
13.363
12.4031
10.9943
8.85993
7.12434
5.57975
5.05025
4.12939
4.93938
-2.40814
-3.20879
6.89513
4.35651
2.66123
0.878444
-19.7155
-24.7776
-25.814
-22.6756
-18.425
-15.9414
-13.8269
-12.5071
-11.3417
-10.1631
-9.02777
-8.31272
-7.98291
-5.93935
-0.414406
7.11324
12.3649
14.2444
14.2388
14.3868
13.3559
12.3949
10.9866
8.85421
7.12036
5.5776
5.04863
4.12951
4.95099
-2.39093
-3.14793
6.90677
4.35822
2.66146
0.878314
-19.7269
-24.8688
-25.8335
-22.6764
-18.4335
-15.9531
-13.8359
-12.516
-11.3501
-10.1728
-9.03515
-8.31697
-7.98485
-5.93909
-0.415436
7.10772
12.3551
14.2329
14.2289
14.3784
13.3482
12.3858
10.9779
8.84779
7.11596
5.57523
5.04664
4.12933
4.9627
-2.37524
-3.10342
6.92135
4.35998
2.66166
0.878161
-19.7379
-24.9318
-25.8519
-22.6732
-18.4443
-15.9681
-13.8481
-12.5274
-11.3607
-10.1844
-9.04426
-8.32239
-7.9873
-5.93851
-0.416016
7.10153
12.3436
14.2194
14.2177
14.369
13.3397
12.3759
10.9684
8.84078
7.11124
5.57273
5.04438
4.12903
4.97474
-2.36013
-3.07358
6.93823
4.3618
2.66182
0.877986
-19.7483
-24.9715
-25.87
-22.6676
-18.457
-15.9867
-13.8639
-12.5419
-11.3739
-10.1984
-9.05561
-8.32952
-7.99074
-5.93779
-0.41603
7.09469
12.3301
14.2038
14.2049
14.3585
13.3305
12.3651
10.958
8.83325
7.10626
5.57008
5.04192
4.12873
4.98725
-2.34504
-3.05478
6.95658
4.36366
2.66195
0.877787
-19.7576
-24.995
-25.8857
-22.6616
-18.4712
-16.0092
-13.884
-12.5605
-11.3905
-10.2152
-9.06991
-8.339
-7.99575
-5.93715
-0.415456
7.08716
12.3146
14.186
14.1905
14.3469
13.3204
12.3534
10.9468
8.82524
7.10106
5.56732
5.03927
4.12852
5.00027
-2.32977
-3.04274
6.97562
4.36556
2.66203
0.877566
-19.7654
-25.0084
-25.896
-22.6564
-18.4862
-16.0359
-13.9092
-12.5838
-11.4112
-10.2356
-9.08785
-8.35168
-8.00332
-5.93729
-0.414607
7.07874
12.2969
14.1657
14.1744
14.3341
13.3095
12.3408
10.9348
8.81683
7.09568
5.56442
5.03646
4.12844
5.01374
-2.31435
-3.03381
6.99476
4.36751
2.66207
0.877321
-19.7711
-25.0159
-25.8965
-22.6532
-18.502
-16.0673
-13.9401
-12.6129
-11.4369
-10.2602
-9.11008
-8.36833
-8.01453
-5.93916
-0.414025
7.06911
12.2767
14.143
14.1566
14.3202
13.2979
12.3274
10.9221
8.80806
7.09017
5.56141
5.03351
4.12855
5.02752
-2.29891
-3.02523
7.01369
4.3695
2.66206
0.877055
-19.774
-25.0211
-25.8812
-22.6523
-18.5183
-16.1041
-13.9779
-12.6488
-11.4684
-10.2895
-9.13679
-8.38955
-8.03059
-5.9443
-0.41474
7.05773
12.2539
14.1177
14.137
14.3051
13.2854
12.3131
10.9087
8.79898
7.08455
5.55829
5.03043
4.12886
5.04145
-2.28362
-3.01517
7.03231
4.37153
2.662
0.876766
-19.7736
-25.0279
-25.8437
-22.6533
-18.5351
-16.1469
-14.0235
-12.6922
-11.5064
-10.3237
-9.16769
-8.4153
-8.05206
-5.95401
-0.417996
7.04397
12.2281
14.0897
14.1156
14.2889
13.2723
12.2981
10.8946
8.78964
7.07884
5.55509
5.02727
4.12937
5.05531
-2.26864
-3.0024
7.05072
4.3736
2.66188
0.876456
-19.7693
-25.0403
-25.7803
-22.6548
-18.5525
-16.1964
-14.0774
-12.7434
-11.5508
-10.3623
-9.20163
-8.44488
-8.07881
-5.96918
-0.425171
7.02699
12.1991
14.0589
14.0923
14.2717
13.2585
12.2822
10.88
8.7801
7.07309
5.55183
5.02404
4.13009
5.06887
-2.25412
-2.98611
7.06908
4.37572
2.6617
0.876124
-19.7617
-25.063
-25.6917
-22.6548
-18.5708
-16.2525
-14.1394
-12.8015
-11.6008
-10.4043
-9.23687
-8.47665
-8.1094
-5.98912
-0.436975
7.00606
12.1665
14.0253
14.0672
14.2534
13.244
12.2657
10.8648
8.77038
7.06732
5.54856
5.0208
4.13097
5.08187
-2.24021
-2.96567
7.08763
4.37788
2.66145
0.875772
-19.7514
-25.1007
-25.5838
-22.6506
-18.5903
-16.3143
-14.2075
-12.8641
-11.6543
-10.4475
-9.27087
-8.50852
-8.14179
-6.01207
-0.453228
6.98073
12.1304
13.9889
14.0401
14.2338
13.2289
12.2484
10.8492
8.76054
7.06156
5.54531
5.01757
4.13196
5.09407
-2.22711
-2.9407
7.10661
4.38008
2.66113
0.875399
-19.7397
-25.1583
-25.465
-22.6395
-18.6115
-16.3799
-14.278
-12.9272
-11.708
-10.489
-9.3009
-8.53791
-8.17308
-6.03503
-0.472451
6.9512
12.0906
13.9498
14.011
14.213
13.2131
12.2304
10.8331
8.75061
7.05585
5.54214
5.01439
4.13299
5.10513
-2.21498
-2.91086
7.12624
4.38233
2.66074
0.875009
-19.728
-25.2415
-25.3445
-22.6194
-18.6352
-16.4457
-14.345
-12.9853
-11.7572
-10.5251
-9.32398
-8.56247
-8.2006
-6.0554
-0.492713
6.91831
12.0475
13.9082
13.98
14.1906
13.1964
12.2117
10.8165
8.74061
7.05023
5.53909
5.01129
4.13398
5.11478
-2.20408
-2.87599
7.14674
4.38464
2.66028
0.874598
-19.7174
-25.3568
-25.2305
-22.5901
-18.6627
-16.5072
-14.4019
-13.032
-11.797
-10.5524
-9.33774
-8.57993
-8.22157
-6.07074
-0.51188
6.88343
12.0016
13.8643
13.9472
14.1666
13.1785
12.1922
10.7996
8.7306
7.04475
5.53621
5.0083
4.13485
5.12257
-2.19461
-2.83595
7.16829
4.387
2.65974
0.874171
-19.7085
-25.5128
-25.13
-22.5541
-18.695
-16.5591
-14.4415
-13.0611
-11.8226
-10.5676
-9.34042
-8.58877
-8.23433
-6.08014
-0.528601
6.84786
11.954
13.8187
13.9128
14.1406
13.1593
12.1718
10.7823
8.72059
7.03946
5.53356
5.00543
4.13551
5.12813
-2.18687
-2.79076
7.19104
4.38942
2.65912
0.873724
-19.7018
-25.7206
-25.0477
-22.5178
-18.7332
-16.5963
-14.4581
-13.0679
-11.8307
-10.569
-9.33164
-8.58807
-8.23826
-6.08321
-0.541909
6.8127
11.9052
13.7718
13.877
14.1128
13.1385
12.1505
10.7647
8.71063
7.0344
5.53119
5.0027
4.13585
5.13089
-2.18108
-2.74042
7.21514
4.39192
2.65842
0.873262
-19.6969
-25.9943
-24.9857
-22.4903
-18.7775
-16.6153
-14.4483
-13.0505
-11.8199
-10.5561
-9.31223
-8.57825
-8.23476
-6.08094
-0.551756
6.77847
11.856
13.7241
13.8404
14.0832
13.116
12.128
10.7466
8.70075
7.02964
5.52916
5.00013
4.13582
5.13036
-2.17753
-2.68507
7.24072
4.39448
2.65763
0.872782
-19.6923
-26.3507
-24.9426
-22.4814
-18.8277
-16.6147
-14.4128
-13.0099
-11.7913
-10.5308
-9.28444
-8.56139
-8.22633
-6.07417
-0.55818
6.74537
11.8065
13.6757
13.8031
14.052
13.0915
12.1044
10.7283
8.69102
7.02522
5.52754
4.99774
4.13527
5.12574
-2.1764
-2.62474
7.26787
4.39712
2.65674
0.872286
-19.6856
-26.8073
-24.9139
-22.4986
-18.8824
-16.5962
-14.3553
-12.9504
-11.7482
-10.496
-9.25172
-8.54164
-8.21619
-6.06426
-0.561826
6.71318
11.757
13.6269
13.7654
14.0196
13.0652
12.0796
10.7096
8.68149
7.02122
5.52636
4.99553
4.13414
5.11646
-2.17796
-2.55965
7.29672
4.39984
2.65576
0.871771
-19.6734
-27.3766
-24.8927
-22.5448
-18.9401
-16.5635
-14.2822
-12.8783
-11.6956
-10.4558
-9.21896
-8.52392
-8.2064
-6.0517
-0.563046
6.6816
11.7069
13.5774
13.7273
13.9861
13.0373
12.0536
10.6907
8.67221
7.01769
5.5257
4.99354
4.13225
5.1015
-2.18234
-2.4898
7.32739
4.40264
2.65467
0.871238
-19.653
-28.0522
-24.8703
-22.6186
-18.9985
-16.5211
-14.2006
-12.8003
-11.6383
-10.4146
-9.19172
-8.51198
-8.19785
-6.03723
-0.562605
6.64996
11.6559
13.5269
13.6888
13.952
13.0079
12.0267
10.6716
8.66324
7.01467
5.52558
4.99175
4.12956
5.08014
-2.18981
-2.41524
7.36001
4.40553
2.65347
0.870683
-19.6225
-28.7903
-24.8372
-22.7152
-19.0554
-16.4737
-14.1171
-12.7224
-11.581
-10.3783
-9.1742
-8.5067
-8.19
-6.02077
-0.561062
6.61737
11.6032
13.4753
13.6501
13.9176
12.9776
11.9989
10.6525
8.65457
7.01218
5.52604
4.99021
4.12584
5.05103
-2.20037
-2.33569
7.39469
4.40849
2.65213
0.870108
-19.5748
-29.4917
-24.7834
-22.8276
-19.1086
-16.4248
-14.0369
-12.6489
-11.5293
-10.3522
-9.16693
-8.50673
-8.18211
-6.00296
-0.559904
6.5825
11.5485
13.423
13.6117
13.8831
12.9465
11.9703
10.633
8.64612
7.01017
5.52712
4.98901
4.12102
5.01361
-2.21393
-2.25157
7.43125
4.41153
2.65068
0.869508
-19.4883
-29.9983
-24.6991
-22.9471
-19.1548
-16.3761
-13.963
-12.5836
-11.4895
-10.3379
-9.1672
-8.50963
-8.17329
-5.9846
-0.560822
6.54455
11.4923
13.3714
13.5743
13.8487
12.9144
11.9406
10.6131
8.63772
7.00868
5.52905
4.98841
4.11505
4.96787
-2.23027
-2.16548
7.46883
4.41465
2.64912
0.868886
-19.3686
-30.1166
-24.5758
-23.0647
-19.1901
-16.3283
-13.8971
-12.5322
-11.4649
-10.3326
-9.17134
-8.51329
-8.16403
-5.96845
-0.565887
6.5045
11.4376
13.3226
13.5381
13.813
12.8797
11.9092
10.5926
8.62951
7.00813
5.53226
4.98875
4.1082
4.91509
-2.25028
-2.08096
7.50717
4.41794
2.64748
0.868231
-19.4458
-29.6971
-24.4082
-23.1763
-19.2158
-16.2829
-13.8418
-12.4986
-11.4529
-10.3326
-9.17773
-8.51764
-8.15619
-5.95631
-0.574221
6.466
11.3877
13.2774
13.5007
13.7724
12.8398
11.8756
10.5726
8.62315
7.01007
5.53754
4.98967
4.09755
4.84188
-2.27801
-1.97933
7.55593
4.42164
2.64534
0.867515
8.7677
9.06354
9.90865
11.2237
12.9271
15.0657
17.7257
21.0417
25.3227
30.4884
36.852
44.5851
54.1776
65.796
80.5821
98.1858
122.687
148.98
189.394
213.597
261.463
103.354
8.76751
9.06332
9.90836
11.2233
12.9264
15.0647
17.7241
21.0647
25.3612
30.5085
36.848
44.5711
54.1488
65.7587
80.5122
98.0569
122.454
148.518
188.518
212.013
257.604
100.42
8.7673
9.06308
9.90805
11.2228
12.9257
15.0636
17.7225
21.093
25.394
30.5231
36.8416
44.5564
54.1196
65.7204
80.4405
97.9246
122.214
148.037
187.621
210.369
253.586
102.097
8.76708
9.06284
9.90773
11.2223
12.925
15.0625
17.7208
21.1214
25.4207
30.533
36.8341
44.5411
54.0908
65.6814
80.3681
97.7872
121.964
147.537
186.699
208.657
249.454
101.983
8.76685
9.06258
9.90739
11.2218
12.9243
15.0613
17.7189
21.1456
25.4419
30.5393
36.8261
44.5255
54.0618
65.6412
80.2931
97.6448
121.702
147.016
185.749
206.877
245.198
100.185
8.76661
9.0623
9.90703
11.2213
12.9234
15.0601
17.717
21.1616
25.458
30.5425
36.8185
44.51
54.0336
65.6004
80.217
97.4961
121.426
146.472
184.764
205.031
240.815
98.1338
8.76636
9.06201
9.90665
11.2207
12.9226
15.0588
17.715
21.1664
25.4692
30.5433
36.8115
44.4947
54.0057
65.5583
80.1381
97.3413
121.136
145.905
183.738
203.119
236.307
96.2235
8.76609
9.06171
9.90625
11.2201
12.9217
15.0574
17.7129
21.1605
25.4758
30.5421
36.8053
44.4799
53.9787
65.5157
80.0577
97.1794
120.829
145.314
182.665
201.143
231.681
94.2917
8.7658
9.06139
9.90582
11.2195
12.9207
15.0559
17.7106
21.1466
25.4781
30.5393
36.8001
44.4655
53.952
65.4717
79.9741
97.0108
120.504
144.697
181.54
199.103
226.942
92.2403
8.7655
9.06105
9.90538
11.2188
12.9197
15.0543
17.7082
21.1274
25.476
30.535
36.7958
44.4518
53.9263
65.4272
79.8887
96.8344
120.159
144.052
180.356
196.999
222.092
90.0934
8.76519
9.06069
9.90491
11.2181
12.9187
15.0527
17.7057
21.1044
25.4693
30.5293
36.7921
44.4387
53.9008
65.3813
79.7997
96.6508
119.795
143.378
179.107
194.829
217.137
87.886
8.76485
9.06031
9.90441
11.2174
12.9176
15.0509
17.703
21.0793
25.4578
30.5221
36.789
44.4262
53.8759
65.3346
79.7083
96.4591
119.411
142.674
177.789
192.593
212.083
85.629
8.7645
9.05991
9.90388
11.2166
12.9164
15.049
17.7002
21.053
25.4408
30.513
36.7861
44.4143
53.8511
65.2862
79.6129
96.2596
119.005
141.937
176.398
190.289
206.933
83.3266
8.76412
9.05948
9.90332
11.2157
12.9151
15.0471
17.6972
21.0273
25.4178
30.5015
36.7829
44.4029
53.8266
65.2365
79.5144
96.0515
118.579
141.166
174.93
187.916
201.693
80.9873
8.76373
9.05903
9.90273
11.2149
12.9138
15.045
17.694
21.0032
25.3882
30.487
36.7789
44.3918
53.8018
65.1847
79.4112
95.8349
118.131
140.36
173.381
185.473
196.368
78.6234
8.76331
9.05856
9.90211
11.2139
12.9124
15.0428
17.6907
20.9818
25.3515
30.4686
36.7732
44.381
53.7771
65.1311
79.304
95.6086
117.661
139.517
171.751
182.958
190.963
76.248
8.76287
9.05805
9.90145
11.213
12.9109
15.0404
17.6871
20.9636
25.308
30.4453
36.7649
44.3702
53.7519
65.0747
79.1913
95.3728
117.169
138.635
170.037
180.369
185.481
73.8751
8.7624
9.05752
9.90075
11.2119
12.9093
15.0379
17.6833
20.9488
25.2585
30.4157
36.7528
44.3588
53.7265
65.0159
79.0736
95.126
116.654
137.714
168.238
177.705
179.928
71.5187
8.7619
9.05696
9.9
11.2108
12.9077
15.0353
17.6793
20.9369
25.2046
30.3788
36.735
44.3463
53.7004
64.9536
78.9491
94.8682
116.114
136.752
166.353
174.965
174.306
69.1913
8.76137
9.05636
9.89921
11.2096
12.9059
15.0325
17.6751
20.9272
25.1488
30.3335
36.7097
44.3316
53.6736
64.8881
78.8184
94.5978
115.549
135.747
164.381
172.146
168.62
66.9035
8.76081
9.05572
9.89838
11.2084
12.904
15.0295
17.6705
20.9188
25.0939
30.2795
36.6742
44.3131
53.6455
64.8185
78.6797
94.3145
114.956
134.697
162.323
169.248
162.875
64.6622
8.76022
9.05505
9.89749
11.2071
12.902
15.0264
17.6657
20.9111
25.0429
30.2174
36.6259
44.2885
53.6158
64.7451
78.5333
94.0169
114.335
133.602
160.177
166.269
157.076
62.4703
8.75959
9.05434
9.89655
11.2057
12.8999
15.0231
17.6606
20.9033
24.998
30.1489
36.5623
44.2543
53.5828
64.6669
78.3774
93.7044
113.684
132.459
157.943
163.207
151.229
60.3258
8.75892
9.05358
9.89555
11.2042
12.8977
15.0195
17.6551
20.8953
24.9602
30.0771
36.4819
44.2061
53.5449
64.5839
78.2125
93.3754
113
131.266
155.621
160.061
145.34
58.2218
8.75821
9.05278
9.89449
11.2026
12.8953
15.0158
17.6493
20.8869
24.9291
30.0054
36.385
44.138
53.4981
64.4948
78.0364
93.0295
112.284
130.021
153.21
156.83
139.419
56.1463
8.75746
9.05192
9.89336
11.2009
12.8928
15.0118
17.6432
20.8779
24.9035
29.9373
36.2742
44.044
53.437
64.3987
77.8497
92.6651
111.532
128.723
150.709
153.511
133.474
54.0828
8.75666
9.05101
9.89216
11.1992
12.8901
15.0076
17.6366
20.8682
24.8816
29.8753
36.155
43.9193
53.3527
64.2921
77.6499
92.2816
110.744
127.37
148.118
150.102
127.516
52.0115
8.75581
9.05005
9.89088
11.1973
12.8872
15.0031
17.6297
20.858
24.8615
29.8204
36.034
43.7632
53.234
64.1703
77.4364
91.8774
109.918
125.959
145.438
146.603
121.558
49.9099
8.7549
9.04902
9.88952
11.1953
12.8842
14.9983
17.6223
20.8469
24.8422
29.7721
35.9176
43.5805
53.0682
64.0239
77.205
91.4517
109.053
124.488
142.668
143.012
115.612
47.7546
8.75394
9.04793
9.88808
11.1931
12.881
14.9932
17.6144
20.8352
24.8226
29.7292
35.8105
43.3814
52.8464
63.8394
76.9508
91.0018
108.149
122.957
139.808
139.326
109.692
45.5222
8.75292
9.04677
9.88654
11.1909
12.8776
14.9879
17.6061
20.8226
24.8023
29.6896
35.7146
43.1794
52.5682
63.5987
76.6625
90.5249
107.204
121.364
136.86
135.547
103.812
43.1912
8.75183
9.04553
9.8849
11.1884
12.8739
14.9821
17.5972
20.8092
24.7809
29.6515
35.6292
42.9864
52.2459
63.2849
76.3246
90.0144
106.217
119.706
133.825
131.672
97.986
40.7425
8.75066
9.04421
9.88315
11.1859
12.87
14.976
17.5878
20.795
24.7582
29.6131
35.5519
42.81
51.9017
62.8888
75.9137
89.4604
105.185
117.983
130.704
127.703
92.2299
38.1611
8.74943
9.04281
9.88129
11.1831
12.8659
14.9696
17.5777
20.7798
24.7339
29.5735
35.4792
42.6522
51.5607
62.4187
75.4071
88.8462
104.102
116.194
127.498
123.64
86.5575
35.4368
8.74811
9.04131
9.87931
11.1802
12.8615
14.9627
17.567
20.7636
24.7082
29.5321
35.4079
42.5099
51.2423
61.8999
74.789
88.1502
102.961
114.336
124.21
119.488
80.9829
32.5646
8.7467
9.03972
9.87719
11.1771
12.8568
14.9553
17.5557
20.7464
24.6807
29.4882
35.3354
42.3776
50.9551
61.3684
74.0652
87.3486
101.748
112.408
120.844
115.249
75.5199
29.5456
8.7452
9.03802
9.87493
11.1738
12.8518
14.9475
17.5436
20.728
24.6515
29.4416
35.2599
42.2492
50.6968
60.8566
73.2649
86.4256
100.447
110.408
117.404
110.929
70.1813
26.3871
8.7436
9.03621
9.87252
11.1702
12.8464
14.9392
17.5307
20.7084
24.6204
29.3921
35.1804
42.1195
50.4582
60.3826
72.4347
85.3829
99.0388
108.334
113.897
106.535
64.9799
23.1019
8.74189
9.03427
9.86995
11.1664
12.8407
14.9304
17.517
20.6876
24.5872
29.3395
35.0963
41.9849
50.2281
59.9473
71.6198
84.2459
97.514
106.186
110.337
102.08
59.9284
19.7088
8.74006
9.03221
9.8672
11.1624
12.8347
14.9209
17.5024
20.6653
24.5519
29.2835
35.0071
41.8435
49.9966
59.5386
70.8479
83.0577
95.8751
103.963
106.74
97.5758
55.0402
16.2312
8.73811
9.03
9.86427
11.1581
12.8282
14.9108
17.4868
20.6416
24.5143
29.224
34.9124
41.6939
49.7567
59.1396
70.1218
81.8632
94.1424
101.673
103.131
93.0447
50.3301
12.6974
8.73603
9.02765
9.86113
11.1535
12.8212
14.9001
17.4702
20.6162
24.4743
29.1606
34.8117
41.5355
49.5045
58.735
69.4249
80.6912
92.3483
99.3263
99.5412
88.5133
45.815
9.13907
8.73381
9.02513
9.85778
11.1486
12.8138
14.8887
17.4525
20.5892
24.4316
29.0932
34.7048
41.3675
49.2381
58.3141
68.733
79.5468
90.5261
96.9348
96.0056
84.0169
41.5143
5.59191
8.73143
9.02244
9.8542
11.1433
12.8059
14.8764
17.4336
20.5604
24.3862
29.0214
34.5912
41.1893
48.9565
57.8712
68.0241
78.4147
88.6971
94.5064
92.5529
79.5972
37.4498
2.09459
8.72888
9.01957
9.85037
11.1377
12.7975
14.8634
17.4135
20.5296
24.3377
28.945
34.4704
41.0001
48.6585
57.4041
67.2834
77.2701
86.8666
92.0387
89.1956
75.2982
33.6439
-1.31167
8.72616
9.01649
9.84627
11.1317
12.7885
14.8495
17.392
20.4968
24.2861
28.8636
34.3421
40.7994
48.3432
56.9114
66.5038
76.089
85.0243
89.5221
85.918
71.157
30.117
-4.58424
8.72325
9.0132
9.84189
11.1253
12.7788
14.8346
17.3691
20.4617
24.231
28.777
34.2058
40.5865
48.0095
56.3919
65.6839
74.8556
83.1493
86.9482
82.6751
67.1912
26.8829
-7.68103
8.72014
9.00968
9.8372
11.1184
12.7685
14.8187
17.3447
20.4243
24.1723
28.6849
34.0609
40.3606
47.6564
55.8442
64.8237
73.5635
81.2194
84.3141
79.4091
63.3865
23.9418
-10.5633
8.71681
9.00592
9.83217
11.111
12.7575
14.8018
17.3186
20.3844
24.1098
28.5868
33.907
40.1211
47.2829
55.2668
63.9228
72.2132
79.2195
81.617
76.0772
59.6939
21.2726
-13.1997
8.71324
9.00189