/*--------------------------------*- C++ -*----------------------------------*\
| =========                 |                                                 |
| \\      /  F ield         | OpenFOAM: The Open Source CFD Toolbox           |
|  \\    /   O peration     | Version:  v1912                                 |
|   \\  /    A nd           | Website:  www.openfoam.com                      |
|    \\/     M anipulation  |                                                 |
\*---------------------------------------------------------------------------*/
FoamFile
{
    version     2.0;
    format      ascii;
    class       surfaceScalarField;
    location    "350";
    object      phi;
}
// * * * * * * * * * * * * * * * * * * * * * * * * * * * * * * * * * * * * * //

dimensions      [0 3 -1 0 0 0 0];
oriented        oriented;


internalField   nonuniform List<scalar> 
24588
(
6.81684e-05
1.96923e-08
6.81152e-05
5.39897e-08
6.80314e-05
8.31442e-08
6.79174e-05
1.13851e-07
6.77686e-05
1.48108e-07
6.75816e-05
1.87301e-07
6.73474e-05
2.33436e-07
6.70554e-05
2.92863e-07
6.66928e-05
3.61212e-07
6.62439e-05
4.49631e-07
6.56838e-05
5.58878e-07
6.49622e-05
7.06198e-07
6.41468e-05
8.74322e-07
6.29319e-05
1.15768e-06
6.14641e-05
1.45466e-06
5.91741e-05
2.31508e-06
5.62694e-05
2.90384e-06
5.15054e-05
4.76414e-06
4.48375e-05
6.66775e-06
3.36602e-05
1.11775e-05
2.00007e-05
1.36596e-05
2.00006e-05
6.81686e-05
3.99245e-08
6.8115e-05
1.08688e-07
6.80313e-05
1.66002e-07
6.79175e-05
2.27389e-07
6.77688e-05
2.959e-07
6.75818e-05
3.74565e-07
6.73475e-05
4.66854e-07
6.70556e-05
5.85787e-07
6.66927e-05
7.22416e-07
6.62448e-05
8.98295e-07
6.56837e-05
1.11855e-06
6.49585e-05
1.41397e-06
6.41578e-05
1.74052e-06
6.29243e-05
2.33598e-06
6.1456e-05
2.90924e-06
5.92357e-05
4.55927e-06
5.6286e-05
5.85203e-06
5.1474e-05
9.57623e-06
4.48826e-05
1.3259e-05
3.3564e-05
2.24961e-05
1.99618e-05
2.72619e-05
3.99623e-05
6.81686e-05
6.01555e-08
6.8115e-05
1.6338e-07
6.80313e-05
2.48905e-07
6.79174e-05
3.40983e-07
6.77687e-05
4.43744e-07
6.75817e-05
5.61859e-07
6.73474e-05
7.00379e-07
6.70554e-05
8.78729e-07
6.66926e-05
1.08365e-06
6.62447e-05
1.34695e-06
6.56837e-05
1.67811e-06
6.49584e-05
2.12113e-06
6.41597e-05
2.60769e-06
6.29283e-05
3.49988e-06
6.14556e-05
4.36742e-06
5.92698e-05
6.77357e-06
5.62839e-05
8.83613e-06
5.14949e-05
1.43655e-05
4.48585e-05
1.9895e-05
3.35849e-05
3.37699e-05
1.99821e-05
4.08648e-05
5.99443e-05
6.81686e-05
8.03855e-08
6.81151e-05
2.18026e-07
6.80313e-05
3.3175e-07
6.79175e-05
4.54519e-07
6.77688e-05
5.91504e-07
6.75819e-05
7.49091e-07
6.73476e-05
9.33771e-07
6.70556e-05
1.17162e-06
6.66928e-05
1.44485e-06
6.62448e-05
1.79565e-06
6.56836e-05
2.2378e-06
6.49585e-05
2.82883e-06
6.41545e-05
3.4765e-06
6.29237e-05
4.6779e-06
6.14497e-05
5.82836e-06
5.92864e-05
8.95936e-06
5.63073e-05
1.18135e-05
5.151e-05
1.91629e-05
4.48479e-05
2.65568e-05
3.36138e-05
4.50041e-05
2.00162e-05
5.44625e-05
7.99605e-05
6.81686e-05
1.00605e-07
6.81151e-05
2.72649e-07
6.80313e-05
4.14643e-07
6.79175e-05
5.68129e-07
6.77687e-05
7.39328e-07
6.75818e-05
9.36365e-07
6.73474e-05
1.16731e-06
6.70555e-05
1.46451e-06
6.66926e-05
1.80607e-06
6.62446e-05
2.24439e-06
6.56834e-05
2.79752e-06
6.49581e-05
3.53642e-06
6.41566e-05
4.34658e-06
6.2928e-05
5.8384e-06
6.14505e-05
7.2915e-06
5.92969e-05
1.11415e-05
5.63329e-05
1.47758e-05
5.1512e-05
2.39841e-05
4.48663e-05
3.32021e-05
3.36597e-05
5.62108e-05
2.00649e-05
6.80574e-05
0.000100025
6.81686e-05
1.2083e-07
6.81151e-05
3.27235e-07
6.80314e-05
4.97458e-07
6.79176e-05
6.81653e-07
6.77689e-05
8.87032e-07
6.7582e-05
1.12356e-06
6.73477e-05
1.40066e-06
6.70558e-05
1.75735e-06
6.66929e-05
2.16724e-06
6.62449e-05
2.69313e-06
6.56837e-05
3.35713e-06
6.49592e-05
4.24375e-06
6.41518e-05
5.21684e-06
6.29236e-05
7.01728e-06
6.14461e-05
8.75709e-06
5.92943e-05
1.33148e-05
5.63479e-05
1.77205e-05
5.15225e-05
2.88096e-05
4.48976e-05
3.98267e-05
3.37254e-05
6.73832e-05
2.01303e-05
8.16525e-05
0.000120156
6.81686e-05
1.41042e-07
6.81151e-05
3.81795e-07
6.80314e-05
5.80333e-07
6.79175e-05
7.95273e-07
6.77688e-05
1.03481e-06
6.75819e-05
1.3108e-06
6.73475e-05
1.63419e-06
6.70556e-05
2.05019e-06
6.66927e-05
2.52841e-06
6.62446e-05
3.14194e-06
6.56834e-05
3.91696e-06
6.49582e-05
4.95162e-06
6.41547e-05
6.08839e-06
6.29288e-05
8.17348e-06
6.14471e-05
1.02256e-05
5.92911e-05
1.54983e-05
5.63637e-05
2.06465e-05
5.15429e-05
3.36308e-05
4.49451e-05
4.6424e-05
3.38178e-05
7.85107e-05
2.02153e-05
9.52552e-05
0.000140371
6.81686e-05
1.61263e-07
6.81151e-05
4.36327e-07
6.80314e-05
6.63121e-07
6.79176e-05
9.08779e-07
6.77689e-05
1.18245e-06
6.75821e-05
1.49794e-06
6.73478e-05
1.86748e-06
6.70559e-05
2.34298e-06
6.66931e-05
2.88954e-06
6.6245e-05
3.59068e-06
6.56841e-05
4.47628e-06
6.49606e-05
5.6582e-06
6.41496e-05
6.95927e-06
6.29227e-05
9.3547e-06
6.14355e-05
1.17033e-05
5.92753e-05
1.7678e-05
5.63806e-05
2.35398e-05
5.15886e-05
3.84229e-05
4.50243e-05
5.2988e-05
3.39478e-05
8.95873e-05
2.03236e-05
0.000108879
0.000160694
6.81686e-05
1.81469e-07
6.81151e-05
4.90831e-07
6.80314e-05
7.4598e-07
6.79175e-05
1.0224e-06
6.77688e-05
1.33019e-06
6.75819e-05
1.68515e-06
6.73476e-05
2.10099e-06
6.70558e-05
2.63575e-06
6.66929e-05
3.25064e-06
6.62448e-05
4.03951e-06
6.56833e-05
5.03625e-06
6.49579e-05
6.36715e-06
6.41506e-05
7.83448e-06
6.29277e-05
1.05085e-05
6.14195e-05
1.32003e-05
5.92768e-05
1.98399e-05
5.63877e-05
2.64284e-05
5.16877e-05
4.31232e-05
4.51543e-05
5.95211e-05
3.41264e-05
0.000100615
2.04594e-05
0.000122547
0.000181154
6.81686e-05
2.01684e-07
6.81151e-05
5.45311e-07
6.80314e-05
8.28749e-07
6.79177e-05
1.13588e-06
6.7769e-05
1.47776e-06
6.75822e-05
1.87224e-06
6.7348e-05
2.33423e-06
6.70561e-05
2.92846e-06
6.66933e-05
3.61172e-06
6.62453e-05
4.48814e-06
6.5685e-05
5.595e-06
6.49627e-05
7.07285e-06
6.41412e-05
8.71014e-06
6.29133e-05
1.1695e-05
6.13961e-05
1.47145e-05
5.92966e-05
2.19497e-05
5.63955e-05
2.93287e-05
5.184e-05
4.76787e-05
4.5338e-05
6.60228e-05
3.43573e-05
0.000111596
2.0626e-05
0.000136278
0.00020178
6.81686e-05
2.21881e-07
6.81151e-05
5.99762e-07
6.80314e-05
9.11606e-07
6.79176e-05
1.24951e-06
6.77689e-05
1.62545e-06
6.7582e-05
2.05941e-06
6.73477e-05
2.56772e-06
6.70559e-05
3.22117e-06
6.66931e-05
3.97276e-06
6.62451e-05
4.93683e-06
6.56837e-05
6.15495e-06
6.4956e-05
7.78512e-06
6.41247e-05
9.60538e-06
6.29061e-05
1.28561e-05
6.13827e-05
1.62318e-05
5.93254e-05
2.40147e-05
5.64216e-05
3.22325e-05
5.20184e-05
5.20822e-05
4.55539e-05
7.24872e-05
3.46331e-05
0.000122517
2.08247e-05
0.000150086
0.000222604
6.81686e-05
2.42089e-07
6.81151e-05
6.54193e-07
6.80315e-05
9.94369e-07
6.79177e-05
1.36297e-06
6.77691e-05
1.77296e-06
6.75823e-05
2.24646e-06
6.73481e-05
2.8009e-06
6.70563e-05
3.51382e-06
6.66934e-05
4.33383e-06
6.62457e-05
5.38522e-06
6.56857e-05
6.71342e-06
6.49605e-05
8.49518e-06
6.41006e-05
1.05087e-05
6.29004e-05
1.40314e-05
6.13779e-05
1.77559e-05
5.93523e-05
2.60432e-05
5.64588e-05
3.51256e-05
5.2184e-05
5.63568e-05
4.57729e-05
7.88983e-05
3.49383e-05
0.000133352
2.10542e-05
0.00016397
0.000243659
6.81686e-05
2.62275e-07
6.81152e-05
7.08593e-07
6.80314e-05
1.07723e-06
6.79176e-05
1.4766e-06
6.7769e-05
1.92061e-06
6.75821e-05
2.43359e-06
6.73478e-05
3.03436e-06
6.70561e-05
3.80647e-06
6.66932e-05
4.69486e-06
6.62457e-05
5.83344e-06
6.56845e-05
7.27329e-06
6.49543e-05
9.21187e-06
6.40735e-05
1.14378e-05
6.29049e-05
1.51734e-05
6.13789e-05
1.92778e-05
5.93732e-05
2.80513e-05
5.64951e-05
3.80039e-05
5.23167e-05
6.05354e-05
4.59764e-05
8.52386e-05
3.52576e-05
0.00014407
2.13112e-05
0.000177917
0.00026497
6.81686e-05
2.82473e-07
6.81152e-05
7.62974e-07
6.80315e-05
1.16e-06
6.79177e-05
1.59004e-06
6.77692e-05
2.06807e-06
6.75824e-05
2.62059e-06
6.73483e-05
3.26748e-06
6.70565e-05
4.09907e-06
6.66936e-05
5.05594e-06
6.62462e-05
6.28152e-06
6.56841e-05
7.83394e-06
6.49543e-05
9.92974e-06
6.40642e-05
1.23486e-05
6.29077e-05
1.63246e-05
6.13808e-05
2.08072e-05
5.93872e-05
3.00455e-05
5.65245e-05
4.08663e-05
5.2417e-05
6.46429e-05
4.61581e-05
9.14974e-05
3.55795e-05
0.000154649
2.15915e-05
0.000191905
0.000286561
6.81686e-05
3.02646e-07
6.81152e-05
8.17321e-07
6.80315e-05
1.24289e-06
6.79176e-05
1.70367e-06
6.7769e-05
2.21569e-06
6.75822e-05
2.80769e-06
6.7348e-05
3.5009e-06
6.70562e-05
4.39168e-06
6.66934e-05
5.41696e-06
6.62458e-05
6.72983e-06
6.56802e-05
8.39819e-06
6.49465e-05
1.0654e-05
6.40581e-05
1.32572e-05
6.29086e-05
1.74631e-05
6.13826e-05
2.23304e-05
5.9396e-05
3.20332e-05
5.65464e-05
4.3716e-05
5.24927e-05
6.86966e-05
4.6318e-05
9.76721e-05
3.5897e-05
0.00016507
2.18906e-05
0.000205911
0.000308452
6.81686e-05
3.22832e-07
6.81152e-05
8.71653e-07
6.80315e-05
1.32567e-06
6.79178e-05
1.8171e-06
6.77692e-05
2.36309e-06
6.75825e-05
2.99463e-06
6.73485e-05
3.73396e-06
6.70567e-05
4.68421e-06
6.66938e-05
5.7781e-06
6.62453e-05
7.17891e-06
6.56731e-05
8.96915e-06
6.49449e-05
1.13752e-05
6.40548e-05
1.4151e-05
6.29081e-05
1.86107e-05
6.1384e-05
2.38567e-05
5.94013e-05
3.40159e-05
5.6562e-05
4.65552e-05
5.25516e-05
7.2707e-05
4.64591e-05
0.000103765
3.62067e-05
0.000175323
2.22049e-05
0.000219913
0.000330657
6.81686e-05
3.42989e-07
6.81152e-05
9.25951e-07
6.80315e-05
1.40858e-06
6.79176e-05
1.93073e-06
6.77691e-05
2.51067e-06
6.75822e-05
3.1817e-06
6.73481e-05
3.96736e-06
6.70564e-05
4.9767e-06
6.66934e-05
6.13935e-06
6.62446e-05
7.62843e-06
6.56616e-05
9.55096e-06
6.49468e-05
1.2086e-05
6.40514e-05
1.50549e-05
6.29078e-05
1.97487e-05
6.13852e-05
2.5377e-05
5.94045e-05
3.59973e-05
5.6573e-05
4.93868e-05
5.25992e-05
7.66809e-05
4.65848e-05
0.000109779
3.65074e-05
0.0001854
2.25314e-05
0.000233889
0.000353188
6.81686e-05
3.63162e-07
6.81152e-05
9.80234e-07
6.80315e-05
1.49138e-06
6.79178e-05
2.04413e-06
6.77693e-05
2.65803e-06
6.75826e-05
3.36858e-06
6.73486e-05
4.20036e-06
6.7057e-05
5.26908e-06
6.66938e-05
6.50084e-06
6.62447e-05
8.07809e-06
6.5651e-05
1.01435e-05
6.49495e-05
1.27853e-05
6.40492e-05
1.59544e-05
6.29075e-05
2.08927e-05
6.13862e-05
2.69002e-05
5.94063e-05
3.79769e-05
5.65809e-05
5.22121e-05
5.26396e-05
8.06222e-05
4.66986e-05
0.00011572
3.67995e-05
0.000195299
2.2868e-05
0.000247821
0.000376056
6.81687e-05
3.83303e-07
6.81152e-05
1.03448e-06
6.80315e-05
1.57433e-06
6.79177e-05
2.15777e-06
6.77691e-05
2.80558e-06
6.75823e-05
3.5556e-06
6.73482e-05
4.43374e-06
6.70567e-05
5.5614e-06
6.66934e-05
6.86241e-06
6.6244e-05
8.52809e-06
6.56446e-05
1.07419e-05
6.49503e-05
1.34787e-05
6.40477e-05
1.68615e-05
6.29075e-05
2.20289e-05
6.13872e-05
2.84186e-05
5.94074e-05
3.99572e-05
5.65869e-05
5.50327e-05
5.26759e-05
8.45333e-05
4.68039e-05
0.000121592
3.70842e-05
0.000205019
2.32132e-05
0.000261692
0.000399269
6.81686e-05
4.03461e-07
6.81152e-05
1.08871e-06
6.80316e-05
1.65715e-06
6.79178e-05
2.27115e-06
6.77694e-05
2.95288e-06
6.75827e-05
3.74242e-06
6.73488e-05
4.6667e-06
6.70573e-05
5.85364e-06
6.6694e-05
7.22399e-06
6.62406e-05
8.98202e-06
6.56442e-05
1.13376e-05
6.49499e-05
1.41724e-05
6.40469e-05
1.77626e-05
6.29076e-05
2.31707e-05
6.13882e-05
2.99397e-05
5.94082e-05
4.19369e-05
5.65922e-05
5.78486e-05
5.27102e-05
8.84152e-05
4.69035e-05
0.000127399
3.7363e-05
0.000214559
2.35667e-05
0.000275488
0.000422836
6.81687e-05
4.23585e-07
6.81152e-05
1.14291e-06
6.80315e-05
1.74014e-06
6.79177e-05
2.38478e-06
6.77692e-05
3.10042e-06
6.75824e-05
3.92939e-06
6.73484e-05
4.90007e-06
6.70569e-05
6.14586e-06
6.6694e-05
7.58521e-06
6.62321e-05
9.44456e-06
6.56487e-05
1.19206e-05
6.49492e-05
1.48717e-05
6.40466e-05
1.86686e-05
6.2908e-05
2.4306e-05
6.13894e-05
3.14566e-05
5.94092e-05
4.39175e-05
5.65975e-05
6.06605e-05
5.27444e-05
9.22683e-05
4.69997e-05
0.000133143
3.76382e-05
0.000223921
2.39281e-05
0.000289198
0.000446764
6.81686e-05
4.43727e-07
6.81152e-05
1.1971e-06
6.80316e-05
1.82299e-06
6.79179e-05
2.49814e-06
6.77695e-05
3.24767e-06
6.75828e-05
4.11616e-06
6.7349e-05
5.13295e-06
6.70575e-05
6.43807e-06
6.66951e-05
7.94594e-06
6.62229e-05
9.9173e-06
6.5654e-05
1.24892e-05
6.49487e-05
1.55767e-05
6.40466e-05
1.95687e-05
6.29085e-05
2.54464e-05
6.13909e-05
3.29758e-05
5.94108e-05
4.58974e-05
5.66036e-05
6.34675e-05
5.27796e-05
9.60922e-05
4.70945e-05
0.000138828
3.79118e-05
0.000233103
2.42979e-05
0.000302812
0.000471062
6.81687e-05
4.63834e-07
6.81152e-05
1.25124e-06
6.80315e-05
1.90601e-06
6.79177e-05
2.61178e-06
6.77692e-05
3.39517e-06
6.75825e-05
4.30308e-06
6.73486e-05
5.36625e-06
6.70571e-05
6.73032e-06
6.66953e-05
8.3061e-06
6.62158e-05
1.03973e-05
6.56573e-05
1.30476e-05
6.49484e-05
1.62857e-05
6.40468e-05
2.04729e-05
6.29093e-05
2.65811e-05
6.13928e-05
3.44907e-05
5.94133e-05
4.78772e-05
5.66112e-05
6.62697e-05
5.28167e-05
9.98868e-05
4.71894e-05
0.000144456
3.81861e-05
0.000242107
2.46769e-05
0.000316322
0.000495739
6.81686e-05
4.83959e-07
6.81152e-05
1.30538e-06
6.80316e-05
1.98888e-06
6.79179e-05
2.72512e-06
6.77695e-05
3.54236e-06
6.7583e-05
4.48979e-06
6.73492e-05
5.59904e-06
6.70577e-05
7.02251e-06
6.66962e-05
8.66599e-06
6.62121e-05
1.08819e-05
6.56588e-05
1.36007e-05
6.49483e-05
1.6996e-05
6.40473e-05
2.1372e-05
6.29104e-05
2.77203e-05
6.13952e-05
3.60073e-05
5.94171e-05
4.98551e-05
5.66207e-05
6.90661e-05
5.28559e-05
0.000103651
4.72855e-05
0.000150026
3.84635e-05
0.000250929
2.5066e-05
0.000329719
0.000520805
6.81687e-05
5.04048e-07
6.81153e-05
1.35948e-06
6.80316e-05
2.07194e-06
6.79177e-05
2.83875e-06
6.77693e-05
3.68984e-06
6.75826e-05
4.67667e-06
6.73488e-05
5.83231e-06
6.70574e-05
7.31462e-06
6.6696e-05
9.02578e-06
6.62097e-05
1.13687e-05
6.56594e-05
1.41511e-05
6.49484e-05
1.7707e-05
6.4048e-05
2.22747e-05
6.29117e-05
2.88539e-05
6.13983e-05
3.75192e-05
5.94226e-05
5.18312e-05
5.66324e-05
7.18563e-05
5.28976e-05
0.000107386
4.73837e-05
0.00015554
3.8746e-05
0.000259567
2.54666e-05
0.000342998
0.000546271
6.81686e-05
5.24157e-07
6.81153e-05
1.41357e-06
6.80316e-05
2.15484e-06
6.7918e-05
2.95206e-06
6.77696e-05
3.83699e-06
6.75831e-05
4.8633e-06
6.73494e-05
6.06509e-06
6.70582e-05
7.60655e-06
6.66952e-05
9.38713e-06
6.62097e-05
1.18547e-05
6.56596e-05
1.47011e-05
6.49487e-05
1.84178e-05
6.40488e-05
2.31728e-05
6.29134e-05
2.99916e-05
6.14021e-05
3.90319e-05
5.94297e-05
5.38034e-05
5.66466e-05
7.46393e-05
5.29418e-05
0.000111091
4.74844e-05
0.000160997
3.90361e-05
0.000268015
2.58801e-05
0.000356154
0.000572151
6.81687e-05
5.44227e-07
6.81153e-05
1.46762e-06
6.80316e-05
2.23794e-06
6.79178e-05
3.0657e-06
6.77694e-05
3.98444e-06
6.75827e-05
5.0501e-06
6.73489e-05
6.2984e-06
6.7058e-05
7.89819e-06
6.66897e-05
9.75381e-06
6.62127e-05
1.2332e-05
6.56598e-05
1.5254e-05
6.49491e-05
1.91285e-05
6.40499e-05
2.40742e-05
6.29154e-05
3.11234e-05
6.14068e-05
4.0539e-05
5.94387e-05
5.57719e-05
5.66633e-05
7.74149e-05
5.29884e-05
0.000114766
4.7588e-05
0.000166398
3.93357e-05
0.000276267
2.63081e-05
0.000369182
0.000598459
6.81686e-05
5.6432e-07
6.81153e-05
1.52166e-06
6.80317e-05
2.32086e-06
6.7918e-05
3.17898e-06
6.77697e-05
4.13154e-06
6.75833e-05
5.23662e-06
6.73496e-05
6.53123e-06
6.7059e-05
8.18947e-06
6.66828e-05
1.01284e-05
6.6218e-05
1.27971e-05
6.56601e-05
1.58119e-05
6.49497e-05
1.98388e-05
6.4051e-05
2.49711e-05
6.29179e-05
3.22588e-05
6.14123e-05
4.2046e-05
5.94495e-05
5.77345e-05
5.66826e-05
8.01816e-05
5.30373e-05
0.000118411
4.76947e-05
0.00017174
3.96464e-05
0.000284316
2.6752e-05
0.000382076
0.000625211
6.81687e-05
5.84372e-07
6.81153e-05
1.57567e-06
6.80316e-05
2.40399e-06
6.79178e-05
3.2926e-06
6.77695e-05
4.27898e-06
6.75829e-05
5.42332e-06
6.7349e-05
6.76464e-06
6.70588e-05
8.4804e-06
6.66768e-05
1.05089e-05
6.6222e-05
1.3252e-05
6.56605e-05
1.63735e-05
6.49503e-05
2.0549e-05
6.40524e-05
2.5871e-05
6.29207e-05
3.3388e-05
6.14187e-05
4.35465e-05
5.94619e-05
5.96916e-05
5.67044e-05
8.29392e-05
5.30887e-05
0.000122027
4.78045e-05
0.000177024
3.99697e-05
0.00029215
2.72134e-05
0.000394833
0.000652425
6.81686e-05
6.04448e-07
6.81153e-05
1.62966e-06
6.80317e-05
2.48695e-06
6.79181e-05
3.40585e-06
6.77698e-05
4.42603e-06
6.75835e-05
5.60973e-06
6.73497e-05
6.99751e-06
6.70597e-05
8.77109e-06
6.66735e-05
1.08937e-05
6.62248e-05
1.37008e-05
6.56609e-05
1.69373e-05
6.49511e-05
2.12587e-05
6.40539e-05
2.67665e-05
6.29239e-05
3.45202e-05
6.14258e-05
4.5046e-05
5.94759e-05
6.16414e-05
5.67288e-05
8.56862e-05
5.31426e-05
0.000125613
4.79172e-05
0.00018225
4.03065e-05
0.000299761
2.76934e-05
0.000407446
0.000680118
6.81687e-05
6.24483e-07
6.81153e-05
1.68362e-06
6.80316e-05
2.57011e-06
6.79178e-05
3.51946e-06
6.77695e-05
4.57344e-06
6.75831e-05
5.79634e-06
6.73492e-05
7.23092e-06
6.70594e-05
9.06159e-06
6.66711e-05
1.12806e-05
6.62267e-05
1.41452e-05
6.56615e-05
1.75025e-05
6.4952e-05
2.19682e-05
6.40557e-05
2.76647e-05
6.29275e-05
3.56457e-05
6.14337e-05
4.65382e-05
5.94914e-05
6.3584e-05
5.67557e-05
8.8422e-05
5.31989e-05
0.00012917
4.80327e-05
0.000187416
4.0657e-05
0.000307137
2.8193e-05
0.00041991
0.000708311
6.81687e-05
6.44544e-07
6.81153e-05
1.73757e-06
6.80317e-05
2.65308e-06
6.79181e-05
3.63268e-06
6.77699e-05
4.72044e-06
6.75837e-05
5.98267e-06
6.735e-05
7.4637e-06
6.70602e-05
9.35206e-06
6.66702e-05
1.16692e-05
6.62284e-05
1.4587e-05
6.56621e-05
1.80688e-05
6.4953e-05
2.26773e-05
6.40575e-05
2.85585e-05
6.29315e-05
3.6774e-05
6.14423e-05
4.80288e-05
5.95083e-05
6.55179e-05
5.67852e-05
9.1145e-05
5.32579e-05
0.000132697
4.81507e-05
0.000192523
4.10212e-05
0.000314266
2.87128e-05
0.000432218
0.000737024
6.81687e-05
6.64561e-07
6.81153e-05
1.79148e-06
6.80316e-05
2.73628e-06
6.79179e-05
3.74628e-06
6.77696e-05
4.86781e-06
6.75832e-05
6.16922e-06
6.73495e-05
7.69698e-06
6.70598e-05
9.64253e-06
6.66695e-05
1.20582e-05
6.62298e-05
1.50267e-05
6.56629e-05
1.86357e-05
6.4954e-05
2.33861e-05
6.40595e-05
2.94549e-05
6.29358e-05
3.78951e-05
6.14516e-05
4.95115e-05
5.95266e-05
6.74433e-05
5.68173e-05
9.38543e-05
5.33196e-05
0.000136195
4.82714e-05
0.000197571
4.13988e-05
0.000321139
2.9253e-05
0.000444364
0.000766277
6.81687e-05
6.84607e-07
6.81153e-05
1.84539e-06
6.80317e-05
2.81926e-06
6.79182e-05
3.85946e-06
6.77701e-05
5.01475e-06
6.75838e-05
6.35549e-06
6.73504e-05
7.92955e-06
6.70604e-05
9.93319e-06
6.66696e-05
1.24478e-05
6.62312e-05
1.54651e-05
6.56637e-05
1.92033e-05
6.49552e-05
2.40945e-05
6.40617e-05
3.03467e-05
6.29404e-05
3.90187e-05
6.14614e-05
5.09919e-05
5.95461e-05
6.93584e-05
5.68519e-05
9.65483e-05
5.33842e-05
0.000139663
4.83947e-05
0.000202561
4.17894e-05
0.000327744
2.9814e-05
0.00045634
0.000796091
6.81687e-05
7.04609e-07
6.81154e-05
1.89926e-06
6.80317e-05
2.90248e-06
6.79179e-05
3.97305e-06
6.77697e-05
5.16207e-06
6.75833e-05
6.542e-06
6.735e-05
8.16256e-06
6.70598e-05
1.0224e-05
6.66695e-05
1.2837e-05
6.62325e-05
1.59021e-05
6.56645e-05
1.97712e-05
6.49564e-05
2.48027e-05
6.40641e-05
3.12409e-05
6.29454e-05
4.01346e-05
6.14718e-05
5.24639e-05
5.95668e-05
7.12638e-05
5.68891e-05
9.92261e-05
5.34519e-05
0.0001431
4.85209e-05
0.000207492
4.21926e-05
0.000334072
3.03957e-05
0.000468137
0.000826487
6.81687e-05
7.24642e-07
6.81153e-05
1.95313e-06
6.80318e-05
2.98548e-06
6.79182e-05
4.08619e-06
6.77702e-05
5.30892e-06
6.7584e-05
6.72823e-06
6.7351e-05
8.39478e-06
6.70601e-05
1.05155e-05
6.66701e-05
1.32259e-05
6.62338e-05
1.63383e-05
6.56655e-05
2.03395e-05
6.49577e-05
2.55104e-05
6.40665e-05
3.21305e-05
6.29506e-05
4.1253e-05
6.14827e-05
5.39332e-05
5.95887e-05
7.31577e-05
5.69288e-05
0.000101886
5.35228e-05
0.000146506
4.86503e-05
0.000212364
4.26083e-05
0.000340114
3.09983e-05
0.000479747
0.000857485
6.81687e-05
7.4463e-07
6.81154e-05
2.00696e-06
6.80317e-05
3.06872e-06
6.7918e-05
4.19976e-06
6.77699e-05
5.45617e-06
6.75835e-05
6.91474e-06
6.73506e-05
8.62739e-06
6.70565e-05
1.08102e-05
6.66724e-05
1.36093e-05
6.6235e-05
1.67758e-05
6.56665e-05
2.0908e-05
6.49591e-05
2.62177e-05
6.40691e-05
3.30223e-05
6.2956e-05
4.23632e-05
6.14942e-05
5.53934e-05
5.96117e-05
7.50404e-05
5.6971e-05
0.000104527
5.35971e-05
0.00014988
4.87834e-05
0.000217178
4.30365e-05
0.000345861
3.16222e-05
0.000491161
0.000889107
6.81687e-05
7.64651e-07
6.81154e-05
2.06079e-06
6.80318e-05
3.15172e-06
6.79183e-05
4.31287e-06
6.77703e-05
5.60292e-06
6.75842e-05
7.10094e-06
6.73515e-05
8.85923e-06
6.70476e-05
1.11146e-05
6.66819e-05
1.39748e-05
6.62362e-05
1.72214e-05
6.56675e-05
2.14767e-05
6.49606e-05
2.69246e-05
6.40718e-05
3.39095e-05
6.29617e-05
4.34758e-05
6.15061e-05
5.68506e-05
5.96359e-05
7.69105e-05
5.70156e-05
0.000107147
5.36751e-05
0.00015322
4.89206e-05
0.000221933
4.34779e-05
0.000351304
3.2268e-05
0.000502371
0.000921375
6.81687e-05
7.84624e-07
6.81154e-05
2.11457e-06
6.80317e-05
3.23497e-06
6.7918e-05
4.42644e-06
6.777e-05
5.75011e-06
6.75837e-05
7.28736e-06
6.73509e-05
9.09178e-06
6.70409e-05
1.14252e-05
6.66888e-05
1.43269e-05
6.62373e-05
1.76729e-05
6.56686e-05
2.20454e-05
6.49621e-05
2.76311e-05
6.40746e-05
3.47988e-05
6.29677e-05
4.45799e-05
6.15185e-05
5.82982e-05
5.96611e-05
7.87681e-05
5.70626e-05
0.000109745
5.37572e-05
0.000156526
4.90622e-05
0.000226628
4.39327e-05
0.000356434
3.29362e-05
0.000513367
0.000954311
6.81687e-05
8.04633e-07
6.81154e-05
2.16835e-06
6.80319e-05
3.31798e-06
6.79184e-05
4.5395e-06
6.77705e-05
5.8968e-06
6.75844e-05
7.47339e-06
6.73517e-05
9.32377e-06
6.70394e-05
1.1738e-05
6.66913e-05
1.4675e-05
6.62383e-05
1.81258e-05
6.56697e-05
2.26141e-05
6.49637e-05
2.8337e-05
6.40776e-05
3.56832e-05
6.29738e-05
4.56863e-05
6.15313e-05
5.97424e-05
5.96873e-05
8.06119e-05
5.71118e-05
0.000112321
5.38434e-05
0.000159794
4.92082e-05
0.000231263
4.44008e-05
0.000361241
3.36273e-05
0.000524141
0.000987939
6.81687e-05
8.24601e-07
6.81154e-05
2.22211e-06
6.80318e-05
3.40122e-06
6.79181e-05
4.653e-06
6.77701e-05
6.04394e-06
6.75841e-05
7.65953e-06
6.73497e-05
9.55794e-06
6.7039e-05
1.20491e-05
6.66922e-05
1.50218e-05
6.62392e-05
1.85788e-05
6.56708e-05
2.31825e-05
6.49653e-05
2.90426e-05
6.40806e-05
3.65702e-05
6.29802e-05
4.67834e-05
6.15446e-05
6.11759e-05
5.97145e-05
8.24423e-05
5.71631e-05
0.000114872
5.39342e-05
0.000163023
4.93585e-05
0.000235839
4.48809e-05
0.000365718
3.43408e-05
0.000534681
0.00102228
6.81687e-05
8.44595e-07
6.81154e-05
2.27585e-06
6.80319e-05
3.48426e-06
6.79185e-05
4.76603e-06
6.77705e-05
6.19074e-06
6.75851e-05
7.84491e-06
6.73405e-05
9.80183e-06
6.70449e-05
1.23449e-05
6.66927e-05
1.53739e-05
6.624e-05
1.90316e-05
6.56719e-05
2.37506e-05
6.49669e-05
2.97474e-05
6.40836e-05
3.74516e-05
6.29867e-05
4.78832e-05
6.15583e-05
6.26063e-05
5.97426e-05
8.42577e-05
5.72164e-05
0.000117399
5.40301e-05
0.000166209
4.95127e-05
0.000240356
4.53685e-05
0.000369863
3.50735e-05
0.000544976
0.00105735
6.81687e-05
8.64542e-07
6.81154e-05
2.32954e-06
6.80318e-05
3.56754e-06
6.79182e-05
4.8795e-06
6.77701e-05
6.33806e-06
6.75849e-05
8.0302e-06
6.73325e-05
1.0054e-05
6.70494e-05
1.2628e-05
6.6693e-05
1.57304e-05
6.62407e-05
1.94838e-05
6.5673e-05
2.43183e-05
6.49686e-05
3.04518e-05
6.40868e-05
3.83357e-05
6.29935e-05
4.89732e-05
6.15724e-05
6.40252e-05
5.97716e-05
8.60589e-05
5.72713e-05
0.000119899
5.41313e-05
0.000169349
4.96704e-05
0.000244817
4.58542e-05
0.000373679
3.58177e-05
0.000555013
0.00109317
6.81686e-05
8.84501e-07
6.81154e-05
2.38324e-06
6.80319e-05
3.65049e-06
6.79186e-05
4.99236e-06
6.77706e-05
6.48468e-06
6.75858e-05
8.21503e-06
6.73308e-05
1.03083e-05
6.70505e-05
1.29083e-05
6.66931e-05
1.60878e-05
6.62413e-05
1.99357e-05
6.5674e-05
2.48856e-05
6.49703e-05
3.11555e-05
6.40899e-05
3.92142e-05
6.30003e-05
5.00658e-05
6.15868e-05
6.54406e-05
5.98012e-05
8.78442e-05
5.73276e-05
0.000122372
5.4239e-05
0.000172438
4.98308e-05
0.000249225
4.63348e-05
0.000377175
3.66528e-05
0.000564694
0.00112982
-2.65961e-06
2.65967e-06
-5.75624e-06
3.09664e-06
-6.79149e-06
1.03525e-06
-5.7073e-06
-1.08409e-06
-4.17703e-06
-1.52991e-06
-3.15346e-06
-1.02357e-06
-2.69351e-06
-4.5991e-07
-2.60496e-06
-8.87295e-08
-2.53678e-06
-6.91081e-08
-2.49785e-06
-4.00989e-08
-2.53148e-06
3.53434e-08
-2.40818e-06
-1.29312e-07
-1.91613e-06
-4.95508e-07
-8.94432e-07
-1.01769e-06
7.81081e-07
-1.66794e-06
3.16722e-06
-2.38123e-06
6.32096e-06
-3.15495e-06
1.01123e-05
-3.79268e-06
1.41502e-05
-4.04356e-06
1.80841e-05
-3.9315e-06
2.17876e-05
-3.70325e-06
2.5199e-05
-3.41191e-06
2.83374e-05
-3.13773e-06
3.12836e-05
-2.94688e-06
3.41223e-05
-2.84029e-06
3.70564e-05
-2.93303e-06
3.99731e-05
-2.91361e-06
4.20621e-05
-2.08971e-06
4.79779e-05
-5.93055e-06
5.95798e-05
-1.15896e-05
6.67245e-05
-7.14508e-06
6.74166e-05
-6.91623e-07
6.74111e-05
5.4284e-09
6.75099e-05
-9.87184e-08
-6.69117e-08
-2.60076e-06
5.26055e-06
-5.68141e-06
6.17732e-06
-6.71428e-06
2.06813e-06
-5.64415e-06
-2.15402e-06
-4.12e-06
-3.05341e-06
-3.10097e-06
-2.04261e-06
-2.6345e-06
-9.26298e-07
-2.54248e-06
-1.81114e-07
-2.47742e-06
-1.3592e-07
-2.45072e-06
-6.9043e-08
-2.49085e-06
7.82398e-08
-2.37633e-06
-2.54825e-07
-1.91878e-06
-9.59783e-07
-9.3885e-07
-1.98969e-06
7.35211e-07
-3.32686e-06
3.16282e-06
-4.79875e-06
6.33822e-06
-6.33272e-06
1.00967e-05
-7.554e-06
1.40737e-05
-8.03147e-06
1.79667e-05
-7.81983e-06
2.16659e-05
-7.402e-06
2.51062e-05
-6.85306e-06
2.82745e-05
-6.30481e-06
3.12392e-05
-5.9129e-06
3.4081e-05
-5.68512e-06
3.69983e-05
-5.84836e-06
3.99144e-05
-5.82386e-06
4.20084e-05
-4.18492e-06
4.75207e-05
-1.14701e-05
5.90212e-05
-2.30671e-05
6.6631e-05
-1.47556e-05
6.74264e-05
-1.48607e-06
6.7416e-05
1.56302e-08
6.75111e-05
-1.93725e-07
-1.33573e-07
-2.53525e-06
7.7959e-06
-5.59676e-06
9.23885e-06
-6.61774e-06
3.08912e-06
-5.54345e-06
-3.22813e-06
-4.02627e-06
-4.56995e-06
-3.01369e-06
-3.05521e-06
-2.54716e-06
-1.39275e-06
-2.45722e-06
-2.71381e-07
-2.40003e-06
-1.94715e-07
-2.38739e-06
-8.37304e-08
-2.43545e-06
1.28626e-07
-2.33718e-06
-3.63873e-07
-1.92211e-06
-1.38166e-06
-9.71304e-07
-2.9324e-06
7.25462e-07
-5.00796e-06
3.20229e-06
-7.26473e-06
6.39194e-06
-9.52504e-06
1.01084e-05
-1.12734e-05
1.40227e-05
-1.19572e-05
1.78795e-05
-1.16718e-05
2.15817e-05
-1.11038e-05
2.50495e-05
-1.03219e-05
2.82481e-05
-9.50216e-06
3.12307e-05
-8.89683e-06
3.40739e-05
-8.53147e-06
3.69739e-05
-8.74631e-06
3.98863e-05
-8.73033e-06
4.19893e-05
-6.28923e-06
4.71384e-05
-1.66469e-05
5.85325e-05
-3.44391e-05
6.65419e-05
-2.27656e-05
6.74352e-05
-2.37846e-06
6.74209e-05
2.97762e-08
6.75124e-05
-2.85144e-07
-1.99943e-07
-2.4594e-06
1.02554e-05
-5.49998e-06
1.22795e-05
-6.49634e-06
4.0855e-06
-5.40497e-06
-4.31928e-06
-3.89568e-06
-6.07861e-06
-2.89717e-06
-4.05372e-06
-2.43675e-06
-1.85311e-06
-2.35191e-06
-3.56578e-07
-2.30374e-06
-2.44579e-07
-2.30618e-06
-8.35481e-08
-2.36278e-06
1.87108e-07
-2.28149e-06
-4.56536e-07
-1.9063e-06
-1.76457e-06
-9.76429e-07
-3.8528e-06
7.51715e-07
-6.71746e-06
3.28249e-06
-9.78159e-06
6.48595e-06
-1.27319e-05
1.01562e-05
-1.49476e-05
1.40057e-05
-1.58206e-05
1.78285e-05
-1.5489e-05
2.15357e-05
-1.48104e-05
2.50315e-05
-1.38187e-05
2.82599e-05
-1.27292e-05
3.126e-05
-1.18985e-05
3.41042e-05
-1.13791e-05
3.69858e-05
-1.16255e-05
3.98897e-05
-1.1628e-05
4.20027e-05
-8.40365e-06
4.68388e-05
-2.15115e-05
5.81164e-05
-4.56938e-05
6.64569e-05
-3.11068e-05
6.7443e-05
-3.36371e-06
6.74258e-05
4.69315e-08
6.75138e-05
-3.73094e-07
-2.65969e-07
-2.37285e-06
1.26284e-05
-5.38993e-06
1.52965e-05
-6.34689e-06
5.04247e-06
-5.22706e-06
-5.43892e-06
-3.72875e-06
-7.57632e-06
-2.7526e-06
-5.02989e-06
-2.30435e-06
-2.30129e-06
-2.22656e-06
-4.34687e-07
-2.18839e-06
-2.84252e-07
-2.20544e-06
-6.85256e-08
-2.26893e-06
2.51526e-07
-2.20448e-06
-5.31348e-07
-1.86618e-06
-2.1105e-06
-9.4743e-07
-4.76202e-06
8.25787e-07
-8.47213e-06
3.4216e-06
-1.23625e-05
6.64118e-06
-1.59555e-05
1.02576e-05
-1.85686e-05
1.40348e-05
-1.96136e-05
1.78216e-05
-1.92697e-05
2.15339e-05
-1.85223e-05
2.50576e-05
-1.73435e-05
2.83158e-05
-1.59861e-05
3.13332e-05
-1.49175e-05
3.41775e-05
-1.4227e-05
3.70383e-05
-1.44839e-05
3.9928e-05
-1.45112e-05
4.2051e-05
-1.0528e-05
4.66179e-05
-2.6108e-05
5.77673e-05
-5.6821e-05
6.63755e-05
-3.97155e-05
6.74499e-05
-4.43734e-06
6.74306e-05
6.61518e-08
6.75152e-05
-4.57708e-07
-3.31598e-07
-2.27505e-06
1.49035e-05
-5.26512e-06
1.82866e-05
-6.16535e-06
5.94272e-06
-5.00684e-06
-6.59718e-06
-3.52478e-06
-9.05775e-06
-2.57978e-06
-5.97489e-06
-2.14947e-06
-2.73156e-06
-2.07985e-06
-5.04677e-07
-2.05262e-06
-3.13185e-07
-2.08317e-06
-4.03619e-08
-2.15061e-06
3.19566e-07
-2.10182e-06
-5.91679e-07
-1.79668e-06
-2.42448e-06
-8.77808e-07
-5.66966e-06
9.59514e-07
-1.02872e-05
3.64171e-06
-1.50256e-05
6.88741e-06
-1.92065e-05
1.04408e-05
-2.21286e-05
1.41305e-05
-2.33238e-05
1.78733e-05
-2.30051e-05
2.15873e-05
-2.22356e-05
2.51376e-05
-2.08952e-05
2.84258e-05
-1.92727e-05
3.14605e-05
-1.79541e-05
3.43032e-05
-1.70739e-05
3.71395e-05
-1.73174e-05
4.0007e-05
-1.73714e-05
4.21385e-05
-1.26611e-05
4.64702e-05
-3.04717e-05
5.74765e-05
-6.78036e-05
6.62975e-05
-4.85372e-05
6.74557e-05
-5.59462e-06
6.74353e-05
8.64487e-08
6.75168e-05
-5.39137e-07
-3.96778e-07
-2.16535e-06
1.7069e-05
-5.12353e-06
2.12448e-05
-5.94637e-06
6.76556e-06
-4.73968e-06
-7.80365e-06
-3.28158e-06
-1.05153e-05
-2.37685e-06
-6.87965e-06
-1.97005e-06
-3.13829e-06
-1.90915e-06
-5.65919e-07
-1.8936e-06
-3.30244e-07
-1.93633e-06
1.87364e-10
-2.00412e-06
3.86778e-07
-1.96881e-06
-6.37023e-07
-1.69248e-06
-2.70949e-06
-7.61715e-07
-6.58915e-06
1.163e-06
-1.21906e-05
3.96609e-06
-1.78089e-05
7.26291e-06
-2.25093e-05
1.07466e-05
-2.562e-05
1.43246e-05
-2.69264e-05
1.80056e-05
-2.66774e-05
2.17126e-05
-2.59421e-05
2.52871e-05
-2.44713e-05
2.86058e-05
-2.25896e-05
3.1658e-05
-2.10084e-05
3.44967e-05
-1.99172e-05
3.73019e-05
-2.01193e-05
4.01358e-05
-2.01974e-05
4.22721e-05
-1.47991e-05
4.63923e-05
-3.46265e-05
5.72363e-05
-7.8624e-05
6.62228e-05
-5.75243e-05
6.74605e-05
-6.83149e-06
6.744e-05
1.06846e-07
6.75185e-05
-6.17549e-07
-4.61459e-07
-2.04299e-06
1.91121e-05
-4.96259e-06
2.41645e-05
-5.68344e-06
7.48643e-06
-4.41998e-06
-9.06682e-06
-2.99635e-06
-1.19383e-05
-2.14095e-06
-7.73506e-06
-1.76295e-06
-3.51625e-06
-1.71068e-06
-6.1861e-07
-1.70709e-06
-3.35642e-07
-1.76032e-06
5.07087e-08
-1.82429e-06
4.49939e-07
-1.79914e-06
-6.74085e-07
-1.54637e-06
-2.97263e-06
-5.91354e-07
-7.53043e-06
1.44714e-06
-1.42025e-05
4.41808e-06
-2.07551e-05
7.81274e-06
-2.59116e-05
1.12311e-05
-2.90494e-05
1.46631e-05
-3.03913e-05
1.82512e-05
-3.02547e-05
2.19351e-05
-2.96251e-05
2.55292e-05