/*--------------------------------*- C++ -*----------------------------------*\
| =========                 |                                                 |
| \\      /  F ield         | OpenFOAM: The Open Source CFD Toolbox           |
|  \\    /   O peration     | Version:  v1912                                 |
|   \\  /    A nd           | Website:  www.openfoam.com                      |
|    \\/     M anipulation  |                                                 |
\*---------------------------------------------------------------------------*/
FoamFile
{
    version     2.0;
    format      ascii;
    class       volVectorField;
    location    "350";
    object      U;
}
// * * * * * * * * * * * * * * * * * * * * * * * * * * * * * * * * * * * * * //

dimensions      [0 1 -1 0 0 0 0];


internalField   nonuniform List<vector> 
12441
(
(29.9989 1.6916e-05 0)
(29.9855 5.12294e-05 0)
(29.9568 8.83663e-05 0)
(29.9129 0.00013613 0)
(29.8554 0.000199032 0)
(29.782 0.000283013 0)
(29.6909 0.000395618 0)
(29.5763 0.000558219 0)
(29.4342 0.000774384 0)
(29.2578 0.00108357 0)
(29.0399 0.00151474 0)
(28.7634 0.00214347 0)
(28.4185 0.00299569 0)
(27.9958 0.00446006 0)
(27.4085 0.00624453 0)
(26.6293 0.0112319 0)
(25.5905 0.0149563 0)
(23.9426 0.0311474 0)
(21.6193 0.052465 0)
(17.9543 0.0910548 0)
(12.1746 0.122494 0)
(5.84651 0.197648 0)
(29.9989 5.02926e-05 0)
(29.9854 0.000153159 0)
(29.9567 0.000263467 0)
(29.9128 0.000405915 0)
(29.8555 0.000593818 0)
(29.7819 0.000844436 0)
(29.6909 0.00118378 0)
(29.5763 0.00166973 0)
(29.4341 0.00231449 0)
(29.2577 0.00323741 0)
(29.0406 0.00452998 0)
(28.7631 0.00643622 0)
(28.4187 0.00892754 0)
(27.9973 0.0134101 0)
(27.406 0.0187988 0)
(26.6283 0.0334626 0)
(25.5923 0.0475167 0)
(23.9427 0.0893289 0)
(21.6191 0.137004 0)
(17.9524 0.26347 0)
(12.1755 0.359902 0)
(5.85009 0.590256 0)
(29.9989 8.35747e-05 0)
(29.9854 0.000255207 0)
(29.9567 0.00043777 0)
(29.9128 0.000674428 0)
(29.8555 0.000986931 0)
(29.7819 0.0014051 0)
(29.6909 0.00196961 0)
(29.5763 0.00277906 0)
(29.4341 0.00385411 0)
(29.2577 0.00538783 0)
(29.0406 0.00754633 0)
(28.7633 0.0107282 0)
(28.4186 0.0148369 0)
(28.0002 0.0223868 0)
(27.4074 0.0313883 0)
(26.6306 0.0548476 0)
(25.5942 0.0807546 0)
(23.9477 0.14573 0)
(21.6224 0.219037 0)
(17.9518 0.433547 0)
(12.1812 0.593841 0)
(5.85811 0.98089 0)
(29.9989 0.000117284 0)
(29.9854 0.000357949 0)
(29.9567 0.000612893 0)
(29.9129 0.000944212 0)
(29.8555 0.0013818 0)
(29.782 0.00196775 0)
(29.691 0.00275837 0)
(29.5764 0.00389186 0)
(29.4342 0.00539712 0)
(29.2578 0.00754317 0)
(29.0408 0.0105696 0)
(28.7634 0.0150249 0)
(28.4188 0.0207636 0)
(27.9969 0.0313828 0)
(27.4071 0.0439914 0)
(26.6293 0.0762886 0)
(25.5956 0.113248 0)
(23.9526 0.205126 0)
(21.6309 0.325811 0)
(17.9562 0.61165 0)
(12.1934 0.831745 0)
(5.87089 1.37318 0)
(29.9989 0.00015105 0)
(29.9854 0.000460537 0)
(29.9567 0.000787814 0)
(29.9128 0.0012138 0)
(29.8555 0.00177632 0)
(29.782 0.00252985 0)
(29.6909 0.00354646 0)
(29.5764 0.00500369 0)
(29.4342 0.00693911 0)
(29.2578 0.00969737 0)
(29.0407 0.0135912 0)
(28.7635 0.0193204 0)
(28.4185 0.0267021 0)
(28.0001 0.0403646 0)
(27.4084 0.0566153 0)
(26.6318 0.0975051 0)
(25.5986 0.145241 0)
(23.9573 0.265277 0)
(21.6421 0.415392 0)
(17.9666 0.785941 0)
(12.2133 1.06943 0)
(5.88873 1.76677 0)
(29.9989 0.000184809 0)
(29.9854 0.000563037 0)
(29.9567 0.000962707 0)
(29.9129 0.00148339 0)
(29.8555 0.00217078 0)
(29.782 0.00309193 0)
(29.691 0.00433457 0)
(29.5765 0.00611557 0)
(29.4343 0.00848117 0)
(29.2579 0.0118518 0)
(29.0409 0.0166132 0)
(28.7637 0.0236167 0)
(28.4194 0.0326409 0)
(27.9965 0.0493382 0)
(27.4086 0.0692449 0)
(26.6309 0.11861 0)
(25.6005 0.176964 0)
(23.9614 0.324874 0)
(21.6547 0.503409 0)
(17.9835 0.958922 0)
(12.2426 1.3068 0)
(5.912 2.16145 0)
(29.9989 0.000218559 0)
(29.9854 0.000665477 0)
(29.9567 0.00113759 0)
(29.9129 0.001753 0)
(29.8555 0.0025652 0)
(29.782 0.00365398 0)
(29.691 0.00512266 0)
(29.5764 0.00722735 0)
(29.4343 0.0100232 0)
(29.2579 0.0140066 0)
(29.0408 0.019635 0)
(28.7637 0.0279121 0)
(28.4188 0.0385899 0)
(28.0005 0.0582888 0)
(27.4101 0.0818714 0)
(26.6339 0.139576 0)
(25.6044 0.208001 0)
(23.9658 0.381979 0)
(21.6718 0.593577 0)
(18.01 1.13201 0)
(12.2836 1.54425 0)
(5.9412 2.55754 0)
(29.9989 0.000252305 0)
(29.9854 0.000767869 0)
(29.9567 0.00131244 0)
(29.9129 0.00202259 0)
(29.8556 0.00295952 0)
(29.7821 0.00421594 0)
(29.6911 0.00591064 0)
(29.5766 0.00833899 0)
(29.4345 0.011565 0)
(29.2581 0.016161 0)
(29.0411 0.0226566 0)
(28.7642 0.0322059 0)
(28.4204 0.044536 0)
(27.9961 0.0672137 0)
(27.4105 0.0943433 0)
(26.6327 0.160162 0)
(25.609 0.240601 0)
(23.9714 0.441059 0)
(21.7009 0.68484 0)
(18.0523 1.30459 0)
(12.3394 1.78201 0)
(5.97691 2.9555 0)
(29.9989 0.000286047 0)
(29.9854 0.000870208 0)
(29.9567 0.00148728 0)
(29.9129 0.00229217 0)
(29.8555 0.00335378 0)
(29.7821 0.00477786 0)
(29.691 0.00669862 0)
(29.5765 0.00945053 0)
(29.4344 0.0131068 0)
(29.2581 0.0183159 0)
(29.041 0.0256781 0)
(28.7638 0.0365028 0)
(28.4186 0.0504833 0)
(28.0016 0.07623 0)
(27.4144 0.106938 0)
(26.6348 0.181137 0)
(25.6173 0.271676 0)
(23.9821 0.499598 0)
(21.7527 0.775802 0)
(18.1177 1.47633 0)
(12.4132 2.02032 0)
(6.01976 3.35585 0)
(29.9989 0.000319783 0)
(29.9854 0.0009725 0)
(29.9568 0.0016621 0)
(29.9129 0.00256174 0)
(29.8556 0.00374795 0)
(29.7821 0.00533969 0)
(29.6912 0.0074865 0)
(29.5767 0.0105619 0)
(29.4346 0.0146484 0)
(29.2583 0.0204702 0)
(29.0414 0.0286981 0)
(28.765 0.0407975 0)
(28.4218 0.0564455 0)
(27.997 0.0849953 0)
(27.4173 0.120199 0)
(26.6336 0.202414 0)
(25.6291 0.303239 0)
(24.0045 0.556241 0)
(21.8283 0.86645 0)
(18.2083 1.64748 0)
(12.5074 2.25957 0)
(6.0704 3.75916 0)
(29.9989 0.000353512 0)
(29.9854 0.00107474 0)
(29.9568 0.00183691 0)
(29.9129 0.0028313 0)
(29.8556 0.00414207 0)
(29.7821 0.00590149 0)
(29.6911 0.00827432 0)
(29.5766 0.0116732 0)
(29.4346 0.0161899 0)
(29.2582 0.0226246 0)
(29.0413 0.0317189 0)
(28.7642 0.0450945 0)
(28.4178 0.0624632 0)
(27.9971 0.0937387 0)
(27.4199 0.13278 0)
(26.6337 0.22259 0)
(25.6446 0.335782 0)
(24.0407 0.612164 0)
(21.9147 0.956876 0)
(18.3183 1.81797 0)
(12.6224 2.50007 0)
(6.12947 4.16604 0)
(29.9989 0.000387235 0)
(29.9854 0.00117694 0)
(29.9568 0.00201172 0)
(29.9129 0.00310084 0)
(29.8557 0.0045361 0)
(29.7822 0.00646319 0)
(29.6913 0.00906207 0)
(29.5768 0.0127843 0)
(29.4348 0.0177314 0)
(29.2584 0.0247777 0)
(29.0418 0.0347404 0)
(28.7657 0.0493917 0)
(28.4224 0.0684856 0)
(27.9898 0.102731 0)
(27.42 0.146302 0)
(26.6351 0.243052 0)
(25.6595 0.368135 0)
(24.0803 0.666425 0)
(21.9953 1.04633 0)
(18.4367 1.98727 0)
(12.7564 2.74193 0)
(6.19744 4.57713 0)
(29.9989 0.000420949 0)
(29.9855 0.00127908 0)
(29.9568 0.00218653 0)
(29.9129 0.00337038 0)
(29.8556 0.00493008 0)
(29.7822 0.00702486 0)
(29.6912 0.00984975 0)
(29.5767 0.0138954 0)
(29.4347 0.0192728 0)
(29.2584 0.0269302 0)
(29.0419 0.0377545 0)
(28.7655 0.0537356 0)
(28.4214 0.0744991 0)
(27.9848 0.111837 0)
(27.4198 0.160052 0)
(26.6376 0.263102 0)
(25.6712 0.399976 0)
(24.114 0.718809 0)
(22.0626 1.13444 0)
(18.5537 2.15481 0)
(12.9058 2.985 0)
(6.27456 4.99301 0)
(29.9989 0.000454654 0)
(29.9855 0.00138118 0)
(29.9568 0.00236136 0)
(29.913 0.0036399 0)
(29.8557 0.00532399 0)
(29.7823 0.00758643 0)
(29.6913 0.0106374 0)
(29.577 0.0150063 0)
(29.4349 0.0208142 0)
(29.2586 0.0290832 0)
(29.0423 0.0407832 0)
(28.7673 0.0580775 0)
(28.426 0.0809318 0)
(27.9795 0.121026 0)
(27.4196 0.173394 0)
(26.6399 0.28254 0)
(25.679 0.431293 0)
(24.1394 0.769703 0)
(22.1165 1.22121 0)
(18.6632 2.3202 0)
(13.0665 3.229 0)
(6.3608 5.41418 0)
(29.9989 0.000488349 0)
(29.9855 0.00148323 0)
(29.9568 0.0025362 0)
(29.9129 0.00390943 0)
(29.8556 0.00571784 0)
(29.7822 0.00814797 0)
(29.6912 0.0114249 0)
(29.5769 0.0161172 0)
(29.4348 0.0223559 0)
(29.2586 0.031234 0)
(29.042 0.0438257 0)
(28.7679 0.0623008 0)
(28.4238 0.0872971 0)
(27.9761 0.129952 0)
(27.4195 0.186568 0)
(26.6417 0.301768 0)
(25.6839 0.462342 0)
(24.1575 0.819592 0)
(22.1598 1.30677 0)
(18.7629 2.48319 0)
(13.2348 3.47351 0)
(6.45592 5.84105 0)
(29.9989 0.000522033 0)
(29.9855 0.00158524 0)
(29.9568 0.00271106 0)
(29.913 0.00417893 0)
(29.8557 0.00611163 0)
(29.7823 0.00870942 0)
(29.6914 0.0122123 0)
(29.5771 0.017228 0)
(29.435 0.0238969 0)
(29.2587 0.0333915 0)
(29.0416 0.0468736 0)
(28.7683 0.0666528 0)
(28.4217 0.0936228 0)
(27.9738 0.138726 0)
(27.4194 0.199653 0)
(26.6432 0.320943 0)
(25.6867 0.493259 0)
(24.1703 0.868816 0)
(22.1953 1.39121 0)
(18.8524 2.64364 0)
(13.4075 3.71814 0)
(6.5595 6.27396 0)
(29.9989 0.000555705 0)
(29.9855 0.0016872 0)
(29.9568 0.00288595 0)
(29.9129 0.00444843 0)
(29.8556 0.00650537 0)
(29.7823 0.00927083 0)
(29.6913 0.0129996 0)
(29.577 0.0183386 0)
(29.435 0.025439 0)
(29.2586 0.0355478 0)
(29.0412 0.0499898 0)
(28.7675 0.0710456 0)
(28.4191 0.0998599 0)
(27.9726 0.147445 0)
(27.4194 0.212727 0)
(26.6443 0.34011 0)
(25.6882 0.524092 0)
(24.1795 0.917565 0)
(22.2257 1.47463 0)
(18.9329 2.80143 0)
(13.5824 3.9625 0)
(6.67101 6.71318 0)
(29.9989 0.000589365 0)
(29.9855 0.00178911 0)
(29.9568 0.00306086 0)
(29.913 0.00471791 0)
(29.8557 0.00689906 0)
(29.7824 0.00983213 0)
(29.6915 0.013787 0)
(29.5772 0.0194487 0)
(29.4353 0.0269823 0)
(29.2586 0.037701 0)
(29.0414 0.0531303 0)
(28.7658 0.0754814 0)
(28.4174 0.10601 0)
(27.972 0.156155 0)
(27.4195 0.225814 0)
(26.6452 0.35928 0)
(25.6888 0.554865 0)
(24.1863 0.965944 0)
(22.2527 1.55707 0)
(19.0057 2.95651 0)
(13.758 4.20624 0)
(6.78994 7.15891 0)
(29.9989 0.000623012 0)
(29.9855 0.00189097 0)
(29.9568 0.0032358 0)
(29.913 0.00498739 0)
(29.8557 0.00729269 0)
(29.7823 0.0103934 0)
(29.6913 0.0145742 0)
(29.5771 0.0205587 0)
(29.4352 0.0285256 0)
(29.2585 0.0398653 0)
(29.0417 0.0562611 0)
(28.764 0.0797994 0)
(28.4162 0.112154 0)
(27.9717 0.16486 0)
(27.4195 0.238906 0)
(26.646 0.378455 0)
(25.6889 0.585593 0)
(24.1916 1.01401 0)
(22.2778 1.6386 0)
(19.0725 3.10884 0)
(13.9337 4.44906 0)
(6.9158 7.61135 0)
(29.9989 0.000656647 0)
(29.9855 0.00199279 0)
(29.9568 0.00341077 0)
(29.913 0.00525685 0)
(29.8558 0.00768627 0)
(29.7824 0.0109545 0)
(29.6916 0.0153614 0)
(29.5773 0.0216683 0)
(29.4355 0.0300707 0)
(29.2587 0.042038 0)
(29.042 0.0594537 0)
(28.7625 0.0840323 0)
(28.4155 0.118284 0)
(27.9716 0.173579 0)
(27.4196 0.252001 0)
(26.6469 0.397638 0)
(25.6888 0.616284 0)
(24.1963 1.06179 0)
(22.3022 1.71924 0)
(19.1348 3.25839 0)
(14.1095 4.69069 0)
(7.04816 8.07065 0)
(29.9989 0.000690267 0)
(29.9855 0.00209456 0)
(29.9568 0.00358577 0)
(29.913 0.0055263 0)
(29.8557 0.00807981 0)
(29.7824 0.0115156 0)
(29.6914 0.0161486 0)
(29.5772 0.0227775 0)
(29.4354 0.0316155 0)
(29.259 0.0442249 0)
(29.0416 0.0626624 0)
(28.7614 0.0882596 0)
(28.4151 0.124426 0)
(27.9717 0.182299 0)
(27.4198 0.265094 0)
(26.6477 0.41683 0)
(25.6887 0.64695 0)
(24.2009 1.10928 0)
(22.3267 1.79903 0)
(19.1939 3.40516 0)
(14.2856 4.93091 0)
(7.18668 8.53697 0)
(29.9988 0.000723874 0)
(29.9855 0.00219629 0)
(29.9568 0.00376081 0)
(29.913 0.00579573 0)
(29.8558 0.00847329 0)
(29.7825 0.0120766 0)
(29.6917 0.0169356 0)
(29.5775 0.023887 0)
(29.4356 0.0331561 0)
(29.2596 0.0464701 0)
(29.0406 0.0658298 0)
(28.7607 0.0925011 0)
(28.4149 0.130568 0)
(27.9719 0.191026 0)
(27.4201 0.278183 0)
(26.6488 0.43603 0)
(25.689 0.677599 0)
(24.2058 1.15647 0)
(22.3517 1.87798 0)
(19.251 3.54916 0)
(14.4627 5.16953 0)
(7.33112 9.01047 0)
(29.9989 0.000757467 0)
(29.9855 0.00229797 0)
(29.9568 0.00393588 0)
(29.913 0.00606517 0)
(29.8557 0.0088667 0)
(29.7824 0.0126375 0)
(29.6915 0.0177225 0)
(29.5774 0.0249964 0)
(29.4355 0.0346945 0)
(29.26 0.0487571 0)
(29.0394 0.0689687 0)
(28.7602 0.0967728 0)
(28.4149 0.136716 0)
(27.9721 0.199749 0)
(27.4205 0.291267 0)
(26.65 0.455238 0)
(25.69 0.708231 0)
(24.2113 1.20331 0)
(22.3776 1.95611 0)
(19.3072 3.69038 0)
(14.6416 5.40639 0)
(7.48135 9.49132 0)
(29.9988 0.000791046 0)
(29.9855 0.0023996 0)
(29.9568 0.00411098 0)
(29.913 0.00633458 0)
(29.8558 0.00926007 0)
(29.7826 0.0131984 0)
(29.6917 0.0185093 0)
(29.5777 0.0261059 0)
(29.4358 0.0362296 0)
(29.2605 0.051072 0)
(29.0385 0.0720137 0)
(28.76 0.101064 0)
(28.4149 0.142863 0)
(27.9725 0.208473 0)
(27.421 0.304346 0)
(26.6515 0.474448 0)
(25.6917 0.738833 0)
(24.2178 1.24977 0)
(22.4047 2.03343 0)
(19.3634 3.8288 0)
(14.8234 5.64136 0)
(7.63732 9.97971 0)
(29.9988 0.00082461 0)
(29.9856 0.00250119 0)
(29.9568 0.00428612 0)
(29.913 0.00660398 0)
(29.8557 0.00965338 0)
(29.7825 0.0137592 0)
(29.6915 0.0192958 0)
(29.5775 0.0272155 0)
(29.4357 0.0377614 0)
(29.2604 0.0533666 0)
(29.0379 0.0749913 0)
(28.7599 0.105367 0)
(28.4151 0.149011 0)
(27.9729 0.217193 0)
(27.4217 0.317416 0)
(26.6534 0.493651 0)
(25.6945 0.769381 0)
(24.2252 1.29583 0)
(22.4328 2.10997 0)
(19.4201 3.96438 0)
(15.0092 5.87432 0)
(7.79907 10.4758 0)
(29.9988 0.000858159 0)
(29.9855 0.00260273 0)
(29.9568 0.00446129 0)
(29.9131 0.00687336 0)
(29.8559 0.0100467 0)
(29.7827 0.0143198 0)
(29.6918 0.0200827 0)
(29.5778 0.0283236 0)
(29.4361 0.0393086 0)
(29.2604 0.0556412 0)
(29.0376 0.0779407 0)
(28.7598 0.109676 0)
(28.4153 0.155155 0)
(27.9734 0.22591 0)
(27.4226 0.330476 0)
(26.6558 0.512835 0)
(25.6983 0.799848 0)
(24.2337 1.34151 0)
(22.4621 2.18573 0)
(19.478 4.09708 0)
(15.2003 6.10518 0)
(7.96674 10.98 0)
(29.9988 0.000891694 0)
(29.9856 0.00270423 0)
(29.9568 0.00463649 0)
(29.913 0.00714272 0)
(29.8557 0.0104399 0)
(29.7826 0.0148803 0)
(29.6916 0.0208694 0)
(29.5776 0.0294326 0)
(29.4362 0.0408636 0)
(29.2597 0.0580143 0)
(29.0374 0.0808984 0)
(28.7599 0.113987 0)
(28.4155 0.161297 0)
(27.9741 0.234621 0)
(27.4238 0.343518 0)
(26.6586 0.531985 0)
(25.7033 0.830217 0)
(24.2433 1.38681 0)
(22.4924 2.2607 0)
(19.5374 4.22679 0)
(15.3979 6.33384 0)
(8.14054 11.4923 0)
(29.9988 0.000925215 0)
(29.9856 0.00280568 0)
(29.9569 0.00481173 0)
(29.9131 0.00741206 0)
(29.8559 0.010833 0)
(29.7827 0.0154407 0)
(29.692 0.021656 0)
(29.5779 0.0305408 0)
(29.4368 0.042428 0)
(29.2592 0.0603474 0)
(29.0373 0.0838822 0)
(28.76 0.118298 0)
(28.4159 0.167434 0)
(27.9747 0.243326 0)
(27.4252 0.356537 0)
(26.6619 0.551085 0)
(25.7093 0.860483 0)
(24.254 1.43175 0)
(22.5236 2.33487 0)
(19.5985 4.3534 0)
(15.6033 6.56022 0)
(8.32075 12.0133 0)
(29.9988 0.000958721 0)
(29.9856 0.0029071 0)
(29.9569 0.004987 0)
(29.913 0.00768138 0)
(29.8558 0.0112262 0)
(29.7826 0.0160009 0)
(29.6917 0.0224432 0)
(29.5776 0.0316446 0)
(29.4369 0.0440454 0)
(29.2585 0.0625352 0)
(29.0374 0.0868945 0)
(28.7602 0.122609 0)
(28.4163 0.173568 0)
(27.9755 0.252021 0)
(27.4268 0.369528 0)
(26.6658 0.570126 0)
(25.7162 0.890643 0)
(24.2661 1.47633 0)
(22.5557 2.40825 0)
(19.6615 4.47678 0)
(15.8173 6.78423 0)
(8.50769 12.5431 0)
(29.9988 0.000992213 0)
(29.9856 0.00300846 0)
(29.9569 0.0051623 0)
(29.9131 0.00795067 0)
(29.8559 0.0116193 0)
(29.7828 0.016561 0)
(29.6921 0.0232304 0)
(29.5779 0.0327478 0)
(29.4374 0.0456845 0)
(29.2581 0.0646968 0)
(29.0375 0.0899279 0)
(28.7605 0.126919 0)
(28.4167 0.179697 0)
(27.9764 0.260705 0)
(27.4287 0.382486 0)
(26.67 0.589099 0)
(25.7241 0.920694 0)
(24.2794 1.52054 0)
(22.5887 2.48081 0)
(19.7262 4.59676 0)
(16.0408 7.00579 0)
(8.7017 13.0821 0)
(29.9988 0.00102569 0)
(29.9856 0.00310978 0)
(29.9569 0.00533763 0)
(29.9131 0.00821994 0)
(29.8558 0.0120123 0)
(29.7827 0.0171209 0)
(29.6918 0.0240174 0)
(29.5777 0.033851 0)
(29.4374 0.0473317 0)
(29.2579 0.0668501 0)
(29.0377 0.0929739 0)
(28.7607 0.131227 0)
(28.4172 0.185821 0)
(27.9774 0.269375 0)
(27.4308 0.395406 0)
(26.6747 0.607999 0)
(25.7329 0.950627 0)
(24.294 1.5644 0)
(22.6226 2.55256 0)
(19.7924 4.71317 0)
(16.2743 7.2248 0)
(8.90316 13.6308 0)
(29.9988 0.00105916 0)
(29.9856 0.00321106 0)
(29.9569 0.00551298 0)
(29.9131 0.00848917 0)
(29.856 0.0124053 0)
(29.7829 0.0176807 0)
(29.6922 0.0248044 0)
(29.5781 0.0349536 0)
(29.4377 0.0489873 0)
(29.258 0.0689827 0)
(29.0379 0.0960273 0)
(28.761 0.135533 0)
(28.4177 0.19194 0)
(27.9785 0.27803 0)
(27.4331 0.408286 0)
(26.6798 0.626821 0)
(25.7424 0.98043 0)
(24.3101 1.60789 0)
(22.6575 2.62349 0)
(19.8601 4.82585 0)
(16.5177 7.44114 0)
(9.11239 14.1895 0)
(29.9988 0.00109261 0)
(29.9856 0.0033123 0)
(29.9569 0.00568837 0)
(29.9131 0.00875839 0)
(29.8558 0.0127982 0)
(29.7828 0.0182404 0)
(29.6919 0.0255911 0)
(29.578 0.0360563 0)
(29.4375 0.0506473 0)
(29.2583 0.071101 0)
(29.0382 0.0990856 0)
(28.7614 0.139838 0)
(28.4183 0.198052 0)
(27.9797 0.286667 0)
(27.4356 0.421124 0)
(26.6852 0.645558 0)
(25.7528 1.01009 0)
(24.3276 1.65103 0)
(22.6933 2.69361 0)
(19.929 4.9346 0)
(16.7712 7.6547 0)
(9.32974 14.7586 0)
(29.9988 0.00112604 0)
(29.9856 0.00341349 0)
(29.9569 0.00586377 0)
(29.9132 0.00902757 0)
(29.856 0.0131911 0)
(29.783 0.0188 0)
(29.6923 0.0263773 0)
(29.5784 0.0371595 0)
(29.4376 0.0523097 0)
(29.2588 0.073207 0)
(29.0385 0.102148 0)
(28.7618 0.14414 0)
(28.4189 0.204157 0)
(27.9809 0.295286 0)
(27.4384 0.433917 0)
(26.691 0.664204 0)
(25.7639 1.03959 0)
(24.3465 1.69379 0)
(22.7303 2.76292 0)
(19.9992 5.03929 0)
(17.0343 7.86536 0)
(9.5555 15.3385 0)
(29.9988 0.00115947 0)
(29.9856 0.00351466 0)
(29.9569 0.0060392 0)
(29.9131 0.00929674 0)
(29.8559 0.0135838 0)
(29.7829 0.0193597 0)
(29.692 0.027163 0)
(29.5783 0.0382592 0)
(29.4372 0.0539711 0)
(29.2593 0.0753039 0)
(29.0388 0.105212 0)
(28.7622 0.148441 0)
(28.4195 0.210255 0)
(27.9823 0.303885 0)
(27.4413 0.446664 0)
(26.697 0.682754 0)
(25.7757 1.06893 0)
(24.3669 1.73619 0)
(22.7685 2.83141 0)
(20.0707 5.13974 0)
(17.3068 8.07296 0)
(9.78993 15.9296 0)
(29.9988 0.00119288 0)
(29.9856 0.00361578 0)
(29.9569 0.00621464 0)
(29.9132 0.00956584 0)
(29.8561 0.0139766 0)
(29.7831 0.0199186 0)
(29.6924 0.0279513 0)
(29.5788 0.0393563 0)
(29.4372 0.0555614 0)
(29.2599 0.077393 0)
(29.0392 0.10828 0)
(28.7626 0.152739 0)
(28.4202 0.216345 0)
(27.9837 0.312462 0)
(27.4443 0.459362 0)
(26.7034 0.7012 0)
(25.7883 1.09807 0)
(24.3887 1.77821 0)
(22.8081 2.8991 0)
(20.1436 5.23582 0)
(17.5886 8.27737 0)
(10.0333 16.5323 0)
(29.9988 0.00122629 0)
(29.9856 0.00371687 0)
(29.9569 0.0063901 0)
(29.9131 0.00983497 0)
(29.8559 0.014369 0)
(29.783 0.020479 0)
(29.6921 0.0287316 0)
(29.5788 0.0405016 0)
(29.4365 0.0569513 0)
(29.2605 0.0794853 0)
(29.0396 0.111349 0)
(28.7631 0.157035 0)
(28.4209 0.222427 0)
(27.9852 0.321019 0)
(27.4475 0.47201 0)
(26.71 0.719537 0)
(25.8016 1.12701 0)
(24.412 1.81984 0)
(22.8493 2.96598 0)
(20.2182 5.32738 0)
(17.8797 8.47843 0)
(10.2857 17.1471 0)
(29.9988 0.00125968 0)
(29.9856 0.00381791 0)
(29.9569 0.00656556 0)
(29.9132 0.010104 0)
(29.8561 0.0147615 0)
(29.7832 0.0210378 0)
(29.6925 0.0295196 0)
(29.5793 0.0416136 0)
(29.4367 0.058776 0)
(29.261 0.0816108 0)
(29.04 0.114419 0)
(28.7636 0.161329 0)
(28.4217 0.228501 0)
(27.9868 0.329552 0)
(27.4509 0.484606 0)
(26.717 0.737757 0)
(25.8155 1.15574 0)
(24.4367 1.86107 0)
(22.8923 3.03204 0)
(20.2946 5.4143 0)
(18.1802 8.676 0)
(10.5475 17.7743 0)
(29.9988 0.00129306 0)
(29.9857 0.00391891 0)
(29.9569 0.00674105 0)
(29.9132 0.010373 0)
(29.8559 0.0151541 0)
(29.7831 0.0215963 0)
(29.6922 0.0303034 0)
(29.5789 0.0427683 0)
(29.4371 0.0605463 0)
(29.2615 0.0837702 0)
(29.0404 0.11749 0)
(28.7641 0.165619 0)
(28.4225 0.234566 0)
(27.9884 0.338063 0)
(27.4544 0.497146 0)
(26.7242 0.755856 0)
(25.8301 1.18424 0)
(24.4628 1.90188 0)
(22.9374 3.09728 0)
(20.3729 5.49642 0)
(18.4906 8.86992 0)
(10.8189 18.4145 0)
(29.9988 0.00132643 0)
(29.9856 0.00401987 0)
(29.9569 0.0069165 0)
(29.9132 0.0106422 0)
(29.8562 0.0155457 0)
(29.7833 0.0221593 0)
(29.6927 0.0310685 0)
(29.5792 0.043944 0)
(29.4373 0.0620393 0)
(29.262 0.0859437 0)
(29.0408 0.120561 0)
(28.7647 0.169908 0)
(28.4233 0.240622 0)
(27.9901 0.346549 0)
(27.458 0.509631 0)
(26.7316 0.773828 0)
(25.8453 1.21249 0)
(24.4903 1.94225 0)
(22.9848 3.1617 0)
(20.4528 5.57362 0)
(18.8108 9.06003 0)
(11.1001 19.0679 0)
(29.9988 0.0013598 0)
(29.9857 0.00412081 0)
(29.9569 0.00709198 0)
(29.9132 0.0109109 0)
(29.856 0.0159385 0)
(29.7831 0.0227137 0)
(29.6925 0.0318896 0)
(29.5785 0.0448391 0)
(29.4373 0.0634687 0)
(29.2623 0.0881185 0)
(29.0412 0.123631 0)
(28.7652 0.174193 0)
(28.4242 0.246669 0)
(27.9919 0.355009 0)
(27.4617 0.522056 0)
(26.7393 0.791667 0)
(25.861 1.24048 0)
(24.5189 1.98215 0)
(23.0349 3.22529 0)
(20.5339 5.64575 0)
(19.1402 9.24621 0)
(11.3914 19.7351 0)
(29.9988 0.00139314 0)
(29.9857 0.00422175 0)
(29.9569 0.00726752 0)
(29.9133 0.0111799 0)
(29.8562 0.0163307 0)
(29.7832 0.0232733 0)
(29.6933 0.0326882 0)
(29.5772 0.0461304 0)
(29.4373 0.064931 0)
(29.2626 0.0902916 0)
(29.0416 0.126699 0)
(28.7658 0.178474 0)
(28.4251 0.252707 0)
(27.9937 0.363443 0)
(27.4656 0.53442 0)
(26.7473 0.809369 0)
(25.8773 1.26821 0)
(24.5487 2.02155 0)
(23.0882 3.28807 0)
(20.6153 5.71273 0)
(19.4757 9.42845 0)
(11.6928 20.4173 0)
(29.9988 0.00142632 0)
(29.9857 0.00432258 0)
(29.9569 0.00744318 0)
(29.9132 0.011449 0)
(29.8561 0.0167232 0)
(29.783 0.0238319 0)
(29.6933 0.0334974 0)
(29.576 0.0475135 0)
(29.4373 0.0664325 0)
(29.2628 0.0924652 0)
(29.042 0.129766 0)
(28.7664 0.182753 0)
(28.4259 0.258733 0)
(27.9955 0.371848 0)
(27.4695 0.546719 0)
(26.7555 0.826927 0)
(25.8941 1.29565 0)
(24.5795 2.06041 0)
(23.145 3.35004 0)
(20.6966 5.77453 0)
(19.8102 9.60646 0)
(12.0042 21.1218 0)
(29.9988 0.00145903 0)
(29.9856 0.00442244 0)
(29.9569 0.0076175 0)
(29.9133 0.0117167 0)
(29.8564 0.0171151 0)
(29.7833 0.0243806 0)
(29.6938 0.0343633 0)
(29.5756 0.0486331 0)
(29.4372 0.0679463 0)
(29.2629 0.0946372 0)
(29.0423 0.132832 0)
(28.7669 0.18703 0)
(28.4268 0.264749 0)
(27.9973 0.380216 0)
(27.4736 0.55895 0)
(26.7639 0.844337 0)
(25.9113 1.3228 0)
(24.6113 2.09865 0)
(23.2059 3.41123 0)
(20.7776 5.83123 0)
(20.1325 9.77819 0)
(12.4115 21.8702 0)
(-0.389997 0.0274148 0)
(-2.02071 0.029374 0)
(-3.08798 0.00904839 0)
(-2.87993 -0.00878199 0)
(-2.10838 -0.0113601 0)
(-1.54664 -0.00701023 0)
(-1.21496 -0.00290843 0)
(-1.1535 -0.000528457 0)
(-1.13847 -0.000392237 0)
(-1.09204 -0.000212068 0)
(-1.10653 0.000159283 0)
(-1.12181 -0.000613565 0)
(-0.993064 -0.00204663 0)
(-0.681323 -0.0037394 0)
(-0.0811307 -0.00560014 0)
(0.805178 -0.00746012 0)
(2.03077 -0.00923285 0)
(3.59335 -0.010308 0)
(5.37593 -0.0101278 0)
(7.14695 -0.00897838 0)
(8.83394 -0.00772257 0)
(10.4017 -0.00655334 0)
(11.8303 -0.00556777 0)
(13.1592 -0.00483233 0)
(14.4206 -0.00430276 0)
(15.6561 -0.00410537 0)
(17.0075 -0.00375002 0)
(18.2168 -0.00249686 0)
(18.8229 -0.00665286 0)
(23.5857 -0.0117817 0)
(29.0631 -0.00652853 0)
(29.6793 -0.000579262 0)
(29.6459 2.35232e-06 0)
(29.6772 -7.36119e-05 0)
(29.7338 -4.5599e-05 0)
(-0.370992 0.0812204 0)
(-1.99084 0.0876589 0)
(-3.05269 0.0270737 0)
(-2.84778 -0.0260383 0)
(-2.0823 -0.0340226 0)
(-1.52407 -0.0210268 0)
(-1.1904 -0.0087635 0)
(-1.12616 -0.00156874 0)
(-1.11067 -0.00111423 0)
(-1.0687 -0.000571799 0)
(-1.08871 0.000511885 0)
(-1.10222 -0.0016252 0)
(-0.984639 -0.00575495 0)
(-0.696679 -0.0109677 0)
(-0.10768 -0.0167307 0)
(0.795093 -0.0221806 0)
(2.04076 -0.0271913 0)
(3.59886 -0.030176 0)
(5.35431 -0.0296644 0)
(7.09908 -0.0265765 0)
(8.77741 -0.0230953 0)
(10.3529 -0.0196632 0)
(11.7975 -0.0166925 0)
(13.1373 -0.0144731 0)
(14.4039 -0.0128798 0)
(15.6361 -0.0122708 0)
(16.9758 -0.0112706 0)
(18.1972 -0.00745547 0)
(18.797 -0.0192937 0)
(23.1916 -0.0350177 0)
(28.9795 -0.020404 0)
(29.6842 -0.00183868 0)
(29.6494 1.56783e-05 0)
(29.6778 -0.000216993 0)
(29.7342 -0.000136627 0)
(-0.346653 0.133733 0)
(-1.95702 0.145547 0)
(-3.01203 0.0449831 0)
(-2.80318 -0.0432194 0)
(-2.03817 -0.0566581 0)
(-1.48599 -0.0350017 0)
(-1.1517 -0.0147129 0)
(-1.088 -0.00266297 0)
(-1.07385 -0.00181046 0)
(-1.03763 -0.000793768 0)
(-1.06432 0.000935107 0)
(-1.07772 -0.00266531 0)
(-0.975328 -0.00925321 0)
(-0.710151 -0.0178313 0)
(-0.1231 -0.0277181 0)
(0.803323 -0.0369777 0)
(2.06847 -0.0449579 0)
(3.61801 -0.0494461 0)
(5.34401 -0.0486087 0)
(7.06345 -0.0438187 0)
(8.73606 -0.0384161 0)
(10.3205 -0.0329071 0)
(11.7807 -0.0279648 0)
(13.1314 -0.0242013 0)
(14.4025 -0.021466 0)
(15.631 -0.0203668 0)
(16.9588 -0.0187495 0)
(18.1897 -0.0124544 0)
(18.7877 -0.0310408 0)
(22.8512 -0.0584927 0)
(28.9002 -0.03497 0)
(29.6885 -0.00330412 0)
(29.6529 3.47815e-05 0)
(29.6785 -0.000354402 0)
(29.7347 -0.000227222 0)
(-0.317112 0.184798 0)
(-1.91941 0.203121 0)
(-2.96444 0.0626067 0)
(-2.74322 -0.0606373 0)
(-1.97606 -0.0791803 0)
(-1.43356 -0.0488487 0)
(-1.10174 -0.0206058 0)
(-1.04088 -0.00369328 0)
(-1.02834 -0.00240037 0)
(-0.99865 -0.000868678 0)
(-1.03212 0.00143327 0)
(-1.0458 -0.00352523 0)
(-0.958922 -0.0124239 0)
(-0.713883 -0.0246133 0)
(-0.124159 -0.0391375 0)
(0.829176 -0.0524597 0)
(2.11479 -0.063258 0)
(3.65391 -0.06893 0)
(5.34843 -0.0675541 0)
(7.04297 -0.0610582 0)
(8.71138 -0.0538006 0)
(10.3051 -0.0462653 0)
(11.7807 -0.0393382 0)
(13.1422 -0.0339835 0)
(14.4177 -0.030058 0)
(15.6423 -0.0284189 0)
(16.9574 -0.0262248 0)
(18.1944 -0.0174696 0)
(18.7951 -0.0420573 0)
(22.5685 -0.0814354 0)
(28.825 -0.0503033 0)
(29.692 -0.00492745 0)
(29.6564 6.01835e-05 0)
(29.6792 -0.000486662 0)
(29.7351 -0.000317399 0)
(-0.281947 0.234216 0)
(-1.87814 0.260271 0)
(-2.90875 0.0796881 0)
(-2.6662 -0.0783871 0)
(-1.89627 -0.101505 0)
(-1.36701 -0.0624128 0)
(-1.04137 -0.0263707 0)
(-0.984885 -0.00465045 0)
(-0.974097 -0.00288491 0)
(-0.951673 -0.000791728 0)
(-0.990679 0.00200574 0)
(-1.00445 -0.00424007 0)
(-0.933197 -0.015299 0)
(-0.705441 -0.0312791 0)
(-0.107155 -0.0508165 0)
(0.87928 -0.0683567 0)
(2.18917 -0.0817665 0)
(3.71556 -0.0882757 0)
(5.37385 -0.0862642 0)
(7.0418 -0.0781771 0)
(8.70627 -0.0692178 0)
(10.3092 -0.0597366 0)
(11.8 -0.0508239 0)
(13.1724 -0.0438305 0)
(14.4521 -0.0386576 0)
(15.6722 -0.0364184 0)
(16.9733 -0.0336719 0)
(18.2123 -0.0225084 0)
(18.8201 -0.0524367 0)
(22.3389 -0.104098 0)
(28.7535 -0.0662075 0)
(29.6947 -0.00670906 0)
(29.6597 8.9656e-05 0)
(29.68 -0.000613869 0)
(29.7356 -0.000407072 0)
(-0.240699 0.281755 0)
(-1.83324 0.316945 0)
(-2.84354 0.0959411 0)
(-2.56997 -0.0966516 0)
(-1.79847 -0.123625 0)
(-1.28603 -0.075601 0)
(-0.970697 -0.0319422 0)
(-0.919451 -0.00551721 0)
(-0.910506 -0.00325584 0)
(-0.896115 -0.000573516 0)
(-0.938804 0.00262519 0)
(-0.951956 -0.00480993 0)
(-0.896037 -0.017882 0)
(-0.682436 -0.0378578 0)
(-0.0686654 -0.0627786 0)
(0.960723 -0.0846217 0)
(2.30415 -0.100344 0)
(3.81676 -0.107292 0)
(5.43099 -0.104585 0)
(7.06734 -0.0951068 0)
(8.72584 -0.0846481 0)
(10.3372 -0.0733123 0)
(11.8431 -0.0624154 0)
(13.2266 -0.0537365 0)
(14.5101 -0.0472584 0)
(15.7245 -0.0443553 0)
(17.0093 -0.0410711 0)
(18.2457 -0.0275723 0)
(18.8644 -0.0622636 0)
(22.1554 -0.126495 0)
(28.6857 -0.0825579 0)
(29.6967 -0.00864004 0)
(29.6629 0.000121624 0)
(29.6809 -0.000736256 0)
(29.7361 -0.000496168 0)
(-0.192901 0.327177 0)
(-1.78464 0.37307 0)
(-2.76705 0.11104 0)
(-2.4515 -0.115618 0)
(-1.68167 -0.145472 0)
(-1.18971 -0.0883073 0)
(-0.88903 -0.0372535 0)
(-0.843456 -0.00628416 0)
(-0.83635 -0.00350445 0)
(-0.830698 -0.000226954 0)
(-0.875082 0.0032576 0)
(-0.886461 -0.00525087 0)
(-0.845153 -0.0202154 0)
(-0.642537 -0.0444489 0)
(-0.00586975 -0.0751809 0)
(1.0798 -0.101421 0)
(2.47417 -0.119061 0)
(3.97707 -0.125923 0)
(5.53609 -0.122416 0)
(7.13085 -0.111781 0)
(8.77812 -0.100065 0)
(10.3957 -0.0869842 0)
(11.9167 -0.0741113 0)
(13.3119 -0.0637002 0)
(14.5989 -0.0558545 0)
(15.8057 -0.0522155 0)
(17.0703 -0.0483973 0)
(18.2976 -0.0326537 0)
(18.931 -0.0716066 0)
(22.0115 -0.148598 0)
(28.6215 -0.0992571 0)
(29.6978 -0.0107124 0)
(29.666 0.000154523 0)
(29.6818 -0.000854062 0)
(29.7366 -0.000584618 0)
(-0.138109 0.370233 0)
(-1.73214 0.428539 0)
(-2.67715 0.124594 0)
(-2.30716 -0.135443 0)
(-1.54468 -0.166911 0)
(-1.07677 -0.100407 0)
(-0.795133 -0.0422354 0)
(-0.755335 -0.00694824 0)
(-0.749876 -0.00362463 0)
(-0.753454 0.000232884 0)
(-0.797432 0.00386908 0)
(-0.80544 -0.00559051 0)
(-0.777496 -0.022349 0)
(-0.582557 -0.0511617 0)
(0.0848779 -0.0882252 0)
(1.24268 -0.119048 0)
(2.71391 -0.138149 0)
(4.22203 -0.144189 0)
(5.7129 -0.139643 0)
(7.24892 -0.128092 0)
(8.87507 -0.115414 0)
(10.4951 -0.100736 0)
(12.0307 -0.08591 0)
(13.4386 -0.0737211 0)
(14.7292 -0.0644367 0)
(15.9255 -0.0599767 0)
(17.1638 -0.0556145 0)
(18.3727 -0.0377399 0)
(19.0244 -0.0805116 0)
(21.9034 -0.170355 0)
(28.5607 -0.116223 0)
(29.6982 -0.0129184 0)
(29.669 0.000186771 0)
(29.6828 -0.000967552 0)
(29.7371 -0.000672354 0)
(-0.0759277 0.410656 0)
(-1.67544 0.483206 0)
(-2.57124 0.13614 0)
(-2.13341 -0.156253 0)
(-1.38675 -0.187755 0)
(-0.945999 -0.111773 0)
(-0.687524 -0.0468227 0)
(-0.653231 -0.00751398 0)
(-0.648898 -0.00361658 0)
(-0.661773 0.000785908 0)
(-0.702885 0.00441769 0)
(-0.705344 -0.00586211 0)
(-0.688761 -0.0243326 0)
(-0.497552 -0.0580953 0)
(0.209476 -0.102111 0)
(1.45663 -0.137848 0)
(3.03522 -0.157978 0)
(4.57903 -0.162196 0)
(5.9942 -0.15614 0)
(7.44572 -0.143873 0)
(9.03443 -0.130609 0)
(10.6505 -0.11454 0)
(12.1995 -0.0978089 0)
(13.6215 -0.0838014 0)
(14.9167 -0.0729939 0)
(16.0991 -0.0676038 0)
(17.3011 -0.0626678 0)
(18.4777 -0.0428081 0)
(19.1506 -0.0890042 0)
(21.8301 -0.191699 0)
(28.5036 -0.133379 0)
(29.6978 -0.0152506 0)
(29.6718 0.000216761 0)
(29.6839 -0.00107701 0)
(29.7377 -0.00075931 0)
(-0.00603638 0.448162 0)
(-1.6141 0.536873 0)
(-2.44637 0.145157 0)
(-1.92799 -0.178134 0)
(-1.20814 -0.207777 0)
(-0.796767 -0.122302 0)
(-0.56477 -0.0509641 0)
(-0.535164 -0.00799725 0)
(-0.53094 -0.00349234 0)
(-0.552443 0.00139944 0)
(-0.587495 0.00484982 0)
(-0.581437 -0.00611615 0)
(-0.573038 -0.0262292 0)
(-0.380151 -0.0653531 0)
(0.376825 -0.117032 0)
(1.73001 -0.15816 0)
(3.44229 -0.178995 0)
(5.06307 -0.180178 0)
(6.41697 -0.171792 0)
(7.7548 -0.158902 0)
(9.28197 -0.145519 0)
(10.8837 -0.128352 0)
(12.4433 -0.109804 0)
(13.8809 -0.0939503 0)
(15.183 -0.0815179 0)
(16.3483 -0.075048 0)
(17.4994 -0.0694745 0)
(18.6223 -0.0478173 0)
(19.3181 -0.0970908 0)
(21.794 -0.212553 0)
(28.4507 -0.150646 0)
(29.6965 -0.0177005 0)
(29.6744 0.000242876 0)
(29.685 -0.00118277 0)
(29.7383 -0.000845422 0)
(0.0717752 0.48245 0)
(-1.54753 0.589285 0)
(-2.29921 0.151108 0)
(-1.69126 -0.201103 0)
(-1.0105 -0.226736 0)