/*--------------------------------*- C++ -*----------------------------------*\
| =========                 |                                                 |
| \\      /  F ield         | OpenFOAM: The Open Source CFD Toolbox           |
|  \\    /   O peration     | Version:  v1912                                 |
|   \\  /    A nd           | Website:  www.openfoam.com                      |
|    \\/     M anipulation  |                                                 |
\*---------------------------------------------------------------------------*/
FoamFile
{
    version     2.0;
    format      ascii;
    class       volScalarField;
    location    "350";
    object      yPlus;
}
// * * * * * * * * * * * * * * * * * * * * * * * * * * * * * * * * * * * * * //

dimensions      [0 0 0 0 0 0 0];


internalField   uniform 0;

boundaryField
{
    inlet
    {
        type            calculated;
        value           uniform 0;
    }
    outlet
    {
        type            calculated;
        value           uniform 0;
    }
    lowerSymmetry
    {
        type            symmetryPlane;
    }
    obstical
    {
        type            calculated;
        value           nonuniform List<scalar> 
88
(
481.888
484.089
488.487
495.067
503.762
514.485
527.143
541.648
557.911
575.849
595.383
616.434
638.917
662.743
687.814
714.038
741.325
769.594
798.775
828.808
859.646
891.251
923.596
956.663
990.441
1024.93
1060.13
1096.06
1132.72
1170.14
1208.34
1247.34
1287.15
1327.81
1369.34
1411.75
1455.07
1499.31
1544.51
1590.68
1637.85
1686.08
1735.78
1790.88
44.5571
43.5025
42.7245
42.2955
42.2491
42.6311
43.5055
44.9519
47.0581
49.9057
53.5561
58.0399
63.3509
69.4453
76.2408
83.6142
91.3947
99.3519
107.204
114.767
121.864
128.319
133.946
138.558
141.961
143.964
144.376
143.014
139.7
134.275
126.617
116.666
104.472
90.2473
74.495
58.4478
45.7219
44.8
58.7493
80.4191
105.759
133.636
163.76
196.51
)
;
    }
    obsticalTop
    {
        type            calculated;
        value           nonuniform List<scalar> 
20
(
53.3585
38.7236
47.106
53.2136
56.0705
57.7164
58.3299
58.0363
57.1005
55.6549
53.6761
51.0549
47.6981
43.4201
38.1909
31.3683
25.0022
15.4927
13.9647
11.1987
)
;
    }
    top
    {
        type            calculated;
        value           uniform 0;
    }
    defaultFaces
    {
        type            empty;
    }
}


// ************************************************************************* //
