/*--------------------------------*- C++ -*----------------------------------*\
| =========                 |                                                 |
| \\      /  F ield         | OpenFOAM: The Open Source CFD Toolbox           |
|  \\    /   O peration     | Version:  v1912                                 |
|   \\  /    A nd           | Website:  www.openfoam.com                      |
|    \\/     M anipulation  |                                                 |
\*---------------------------------------------------------------------------*/
FoamFile
{
    version     2.0;
    format      ascii;
    class       volScalarField;
    location    "850";
    object      p;
}
// * * * * * * * * * * * * * * * * * * * * * * * * * * * * * * * * * * * * * //

dimensions      [0 2 -2 0 0 0 0];


internalField   nonuniform List<scalar> 
2000
(
-0.0459982
0.0714131
0.125993
0.119105
0.103277
0.0969716
0.0963664
0.0977151
0.0979325
0.0977113
0.0978513
0.0975282
0.0972706
0.0972149
0.0972726
0.0972942
0.097251
0.0972295
0.0972241
0.0972278
0.0972316
0.0972252
0.0972039
0.0971692
0.0971277
0.0970856
0.0970483
0.097017
0.0969898
0.0969641
0.096938
0.0969112
0.0968838
0.0968558
0.0968274
0.0967989
0.0967703
0.0967416
0.0967125
0.0966828
0.0966529
0.0966235
0.0965957
0.0965707
0.0965502
0.0965356
0.0965282
0.09653
0.0965428
0.0965667
0.0965906
0.0965711
0.0963881
0.095797
0.0944337
0.0919058
0.0879233
0.0824374
0.0759191
0.0697987
0.0661837
0.0661755
0.0707613
0.0795427
0.0915585
0.105805
0.121435
0.137654
0.153545
0.168021
0.180035
0.18871
0.193208
0.192717
0.186443
0.173724
0.153435
0.125378
0.0838527
0.0415382
0.00724896
0.0924254
0.131243
0.118048
0.100306
0.0961088
0.0996503
0.10209
0.099336
0.0960922
0.0956548
0.0969549
0.097403
0.0972709
0.0974952
0.0973969
0.0972729
0.0971703
0.0971356
0.0971244
0.0971424
0.0971829
0.0971901
0.0971666
0.0971313
0.0970937
0.0970579
0.0970259
0.0969982
0.096972
0.0969434
0.0969141
0.0968852
0.0968573
0.0968299
0.0968028
0.0967761
0.0967501
0.096724
0.0966965
0.0966678
0.0966384
0.0966093
0.0965813
0.096556
0.096535
0.0965209
0.0965188
0.0965428
0.0966167
0.0967431
0.0968333
0.0966046
0.0954953
0.0927297
0.087643
0.0800815
0.0706518
0.0609955
0.0542094
0.0538557
0.0591166
0.0675348
0.0783827
0.0911953
0.105616
0.121081
0.136824
0.151929
0.165386
0.176178
0.183325
0.185926
0.183246
0.174621
0.159516
0.137025
0.10732
0.0664109
0.0294376
0.0583168
0.0921148
0.114806
0.113249
0.104051
0.0998759
0.0999141
0.0992767
0.0973708
0.0966862
0.0982762
0.0998748
0.0988945
0.0964351
0.0955409
0.0964146
0.0972991
0.0974746
0.0973151
0.0972102
0.0971521
0.0971157
0.0970972
0.0971096
0.0971175
0.0971065
0.0970757
0.0970301
0.0969928
0.0969567
0.0969283
0.0969029
0.096879
0.0968583
0.0968406
0.0968233
0.0968041
0.0967825
0.0967587
0.096733
0.096706
0.096678
0.0966478
0.096614
0.0965808
0.0965681
0.0966126
0.0967498
0.0970096
0.097403
0.0978698
0.098186
0.0979324
0.0964849
0.0931666
0.0875606
0.0798978
0.0713907
0.0640948
0.0595885
0.0585522
0.0619807
0.069233
0.0791814
0.0910546
0.104391
0.118622
0.132928
0.146351
0.157897
0.16661
0.171633
0.172249
0.167902
0.158115
0.142551
0.120624
0.0928659
0.0565664
0.0250009
0.083304
0.0933178
0.105868
0.109947
0.107255
0.104235
0.102575
0.100843
0.0992203
0.0984031
0.0982162
0.0981186
0.097774
0.0970792
0.096555
0.097499
0.0987525
0.0980142
0.0968555
0.0964534
0.0964029
0.0965766
0.0968654
0.0970901
0.0972202
0.0972985
0.0973413
0.0973159
0.0972281
0.0971254
0.0970263
0.0969424
0.0968822
0.096853
0.096842
0.0968357
0.0968249
0.0968117
0.0967967
0.0967795
0.0967601
0.096738
0.0967091
0.0966686
0.0966229
0.0966089
0.0966949
0.0969184
0.0973168
0.0978899
0.0985946
0.0990749
0.0989379
0.0976395
0.0946691
0.0897992
0.0833127
0.0760243
0.0691147
0.0644622
0.0631753
0.0659441
0.0723666
0.0814234
0.0922806
0.104333
0.11692
0.12922
0.140349
0.149457
0.15578
0.158663
0.157568
0.152077
0.141835
0.126619
0.10604
0.0807091
0.0487401
0.0208109
0.0956446
0.0992451
0.106765
0.110735
0.109607
0.107278
0.105897
0.104858
0.103555
0.102104
0.100754
0.0996655
0.0989388
0.0981013
0.0971387
0.0971679
0.0977219
0.0979358
0.0977868
0.0973352
0.0969953
0.0968819
0.0969403
0.0971209
0.0973137
0.0974279
0.0973852
0.097201
0.0970674
0.0969618
0.0968782
0.096817
0.09678
0.0967858
0.0968205
0.0968582
0.0968847
0.0968891
0.0968764
0.096853
0.0968214
0.0967804
0.0967244
0.0966422
0.0965292
0.0964059
0.0963554
0.0965276
0.0969222
0.0975046
0.0981717
0.0986485
0.098522
0.0972997
0.0945646
0.0901812
0.0844636
0.0782357
0.072751
0.0694309
0.0691159
0.0720299
0.0778216
0.0857739
0.0951616
0.105351
0.115706
0.125532
0.134121
0.140808
0.145007
0.14621
0.143989
0.137992
0.127912
0.113559
0.0946197
0.0716786
0.0432448
0.0181914
0.104086
0.10592
0.109873
0.112044
0.111229
0.109621
0.108662
0.107987
0.107028
0.105836
0.104708
0.103718
0.102705
0.101383
0.100009
0.0993007
0.0991704
0.0990403
0.0984746
0.0975904
0.0969743
0.0967709
0.0968602
0.0970682
0.0972394
0.0973339
0.0973733
0.097364
0.0972786
0.0971613
0.097043
0.0969414
0.0968665
0.0968352
0.0968022
0.0967776
0.0967793
0.0967879
0.0967787
0.0967626
0.0967461
0.0967264
0.0966986
0.0966602
0.0966205
0.0966147
0.0967144
0.0969982
0.0974601
0.0980389
0.098607
0.0989206
0.0986399
0.0974211
0.0950355
0.0915018
0.0871768
0.0827536
0.0791269
0.0771675
0.0774338
0.0800736
0.0848718
0.0913424
0.0989021
0.106989
0.115061
0.122565
0.128948
0.133684
0.136298
0.136359
0.133486
0.127346
0.117632
0.104149
0.0865931
0.0654968
0.039511
0.0165523
0.110896
0.11172
0.112957
0.113295
0.112508
0.111523
0.110864
0.110325
0.109658
0.108902
0.108177
0.107458
0.106598
0.10549
0.104323
0.103469
0.102955
0.102357
0.101387
0.100288
0.0994731
0.0990337
0.0988442
0.098754
0.0986685
0.0985663
0.0984455
0.0982789
0.0980562
0.0978338
0.0976454
0.097495
0.0973768
0.0973212
0.0974866
0.0975813
0.0976125
0.0976514
0.097704
0.0977653
0.0978348
0.0979116
0.0979952
0.0980882
0.0982028
0.0983664
0.0986201
0.099
0.0994959
0.10004
0.100508
0.100708
0.100407
0.0993913
0.0975499
0.0949501
0.0918818
0.088839
0.0864293
0.0852372
0.0856663
0.0878397
0.0916108
0.0966331
0.102469
0.108672
0.114808
0.120437
0.125113
0.128398
0.129878
0.129163
0.12589
0.119727
0.110361
0.097579
0.081066
0.0612993
0.0369689
0.0155127
0.116773
0.116719
0.115803
0.114595
0.113772
0.113254
0.112778
0.112307
0.111865
0.111427
0.110976
0.110479
0.10988
0.109138
0.108332
0.10764
0.107099
0.106471
0.105604
0.10465
0.103851
0.103283
0.102884
0.102572
0.102295
0.102032
0.10177
0.101494
0.101213
0.100959
0.100754
0.100603
0.100514
0.100515
0.100622
0.1007
0.100749
0.100816
0.100912
0.101027
0.101157
0.1013
0.101458
0.101633
0.101833
0.102075
0.102377
0.102752
0.103181
0.1036
0.103908
0.103966
0.103622
0.102747
0.101292
0.0993307
0.0970834
0.0949026
0.0932114
0.092413
0.0927916
0.0944438
0.0972793
0.101065
0.105485
0.110196
0.114844
0.119062
0.122471
0.124689
0.125342
0.124069
0.120519
0.114364
0.105282
0.0930427
0.0773065
0.0584921
0.0353001
0.0148361
0.122177
0.121188
0.118224
0.115681
0.114925
0.114836
0.114502
0.114094
0.113829
0.113611
0.113342
0.113016
0.112628
0.112149
0.111612
0.111121
0.110708
0.110235
0.109601
0.108881
0.108231
0.107725
0.107341
0.107027
0.106744
0.106471
0.106201
0.105929
0.105664
0.105423
0.105223
0.105074
0.104987
0.104967
0.104976
0.105034
0.105104
0.105186
0.105286
0.105404
0.105535
0.105677
0.105831
0.105998
0.106182
0.106391
0.106633
0.106907
0.107192
0.107437
0.107565
0.10748
0.107079
0.106285
0.105077
0.103519
0.101777
0.100106
0.0988083
0.0981722
0.0984095
0.0996062
0.101713
0.10457
0.107938
0.111541
0.115079
0.118238
0.120689
0.122094
0.122114
0.120413
0.116658
0.110526
0.101686
0.0898837
0.0747475
0.0566319
0.034235
0.0143798
0.127407
0.12522
0.120026
0.116382
0.115918
0.116245
0.116017
0.115693
0.115608
0.115576
0.115454
0.115262
0.115021
0.11471
0.114348
0.114009
0.113718
0.113384
0.112932
0.112407
0.111922
0.11154
0.111251
0.111013
0.110795
0.110581
0.110366
0.11015
0.109938
0.109743
0.10958
0.109459
0.109388
0.109364
0.109329
0.10937
0.109435
0.109501
0.109575
0.109661
0.109757
0.10986
0.109969
0.110085
0.11021
0.110347
0.110498
0.110659
0.110808
0.110906
0.110895
0.110705
0.110265
0.109525
0.108476
0.107174
0.105747
0.104385
0.103313
0.10275
0.102861
0.103718
0.105293
0.107463
0.110042
0.112798
0.115477
0.117807
0.119501
0.12026
0.119778
0.117745
0.113843
0.107753
0.0991365
0.0877105
0.0730594
0.0554723
0.033617
0.0141107
0.132646
0.128797
0.121104
0.116713
0.116805
0.117496
0.117325
0.117111
0.117214
0.117351
0.117361
0.11729
0.117169
0.116984
0.116749
0.116519
0.116313
0.116071
0.115739
0.11535
0.114988
0.114704
0.114493
0.114321
0.114162
0.114005
0.113847
0.113686
0.113528
0.113381
0.113258
0.113165
0.113104
0.113067
0.113042
0.113066
0.113111
0.113157
0.113207
0.113265
0.11333
0.113398
0.113467
0.113538
0.113611
0.113688
0.113766
0.11384
0.113892
0.113888
0.113786
0.113531
0.113073
0.112379
0.111448
0.110326
0.109114
0.107961
0.107041
0.106522
0.106533
0.107134
0.108303
0.109944
0.111904
0.113989
0.11598
0.117641
0.118722
0.118958
0.118074
0.115785
0.111787
0.105764
0.0973637
0.086276
0.0720316
0.0548555
0.033334
0.0140285
0.138013
0.131844
0.121429
0.11677
0.117637
0.1186
0.11845
0.118374
0.11866
0.118942
0.119071
0.119112
0.119102
0.119028
0.1189
0.118761
0.118627
0.118456
0.11821
0.117917
0.117642
0.117425
0.117265
0.117137
0.117021
0.116905
0.116787
0.116667
0.116548
0.116437
0.116342
0.11627
0.116221
0.116189
0.116175
0.11619
0.116223
0.116258
0.116295
0.116336
0.116379
0.116422
0.116462
0.1165
0.116535
0.116566
0.116591
0.116602
0.116584
0.11651
0.116346
0.116052
0.11559
0.114936
0.114095
0.113107
0.112053
0.11105
0.110235
0.109741
0.109669
0.110064
0.110911
0.112128
0.113588
0.115124
0.11655
0.117661
0.118238
0.118049
0.116847
0.114366
0.110316
0.104381
0.0961944
0.0854176
0.071522
0.0546755
0.0333118
0.0141475
0.143585
0.134257
0.121037
0.116675
0.118437
0.119554
0.119421
0.119508
0.119964
0.120365
0.120599
0.120743
0.120832
0.120857
0.120825
0.120768
0.120703
0.120597
0.120426
0.120211
0.120004
0.119841
0.119722
0.119628
0.119543
0.119459
0.119371
0.119281
0.119191
0.119107
0.119033
0.118976
0.118936
0.118918
0.11891
0.11892
0.118944
0.118972
0.118999
0.119027
0.119053
0.119077
0.119094
0.119106
0.11911
0.119105
0.119087
0.11905
0.11898
0.118855
0.118647
0.118326
0.117863
0.117244
0.116474
0.115587
0.114651
0.113758
0.113018
0.112536
0.112389
0.112613
0.113193
0.11406
0.115104
0.116186
0.117143
0.1178
0.117967
0.117439
0.115992
0.113378
0.109314
0.103483
0.095503
0.0850106
0.0714164
0.0548437
0.0334937
0.0144718
0.149404
0.135919
0.120024
0.116542
0.119203
0.120362
0.120267
0.120536
0.121139
0.121639
0.121965
0.122201
0.122379
0.12249
0.12254
0.122559
0.122558
0.122514
0.122409
0.122261
0.122115
0.122
0.121918
0.121856
0.1218
0.121742
0.121681
0.121616
0.12155
0.121488
0.121432
0.121389
0.12136
0.121348
0.121343
0.12135
0.121369
0.12139
0.121409
0.121425
0.121438
0.121445
0.121444
0.121434
0.121412
0.121376
0.121324
0.121247
0.121134
0.120967
0.120725
0.120383
0.11992
0.119327
0.118611
0.1178
0.11695
0.116137
0.115446
0.114961
0.114742
0.114816
0.115167
0.115737
0.116434
0.117138
0.117712
0.118004
0.117848
0.117061
0.115437
0.112739
0.10869
0.102969
0.0951821
0.084944
0.0716094
0.0552749
0.0338304
0.0149829
0.155478
0.136722
0.118538
0.116464
0.119917
0.121036
0.121018
0.121471
0.122197
0.12278
0.123188
0.123507
0.123762
0.123948
0.124071
0.124157
0.124214
0.124225
0.124179
0.124091
0.123997
0.123925
0.123878
0.123846
0.123816
0.123784
0.123746
0.123703
0.12366
0.123616
0.123576
0.123545
0.123525
0.123517
0.123515
0.123522
0.123536
0.123551
0.123563
0.12357
0.123572
0.123565
0.123547
0.123517
0.123472
0.123409
0.123326
0.123214
0.123064
0.122861
0.122587
0.122225
0.121758
0.121181
0.1205
0.119741
0.118949
0.118186
0.117519
0.117015
0.116721
0.116658
0.116811
0.117133
0.117544
0.117945
0.118217
0.118227
0.11783
0.116856
0.115114
0.112373
0.108358
0.102746
0.0951304
0.0851138
0.0720001
0.0558836
0.0342778
0.0156365
0.161786
0.136589
0.116753
0.116488
0.120555
0.121596
0.121697
0.122324
0.123148
0.123803
0.124287
0.124678
0.125002
0.125253
0.12544
0.125584
0.125693
0.125755
0.12576
0.125723
0.125677
0.125643
0.125628
0.125622
0.125617
0.125607
0.12559
0.125568
0.125544
0.125517
0.12549
0.12547
0.125458
0.125454
0.125455
0.125461
0.125471
0.12548
0.125485
0.125483
0.125473
0.125452
0.125418
0.125367
0.125299
0.125209
0.125094
0.124947
0.124759
0.12452
0.124213
0.123826
0.123346
0.122771
0.122107
0.121375
0.120614
0.119873
0.119207
0.11867
0.1183
0.118115
0.118103
0.118224
0.118412
0.118581
0.118629
0.118437
0.117871
0.116774
0.11496
0.112205
0.108235
0.102722
0.0952554
0.0854277
0.0724998
0.0565902
0.0347978
0.0163781
0.168275
0.135511
0.114849
0.116626
0.121097
0.122065
0.122318
0.123099
0.124003
0.124722
0.125274
0.12573
0.126112
0.126421
0.126664
0.12686
0.127016
0.127122
0.127173
0.127181
0.127175
0.127175
0.127186
0.127204
0.12722
0.12723
0.127231
0.127226
0.127219
0.127205
0.12719
0.127178
0.127171
0.127169
0.127169
0.127172
0.127175
0.127176
0.12717
0.127155
0.127129
0.127089
0.127033
0.126958
0.126862
0.12674
0.12659
0.126404
0.126177
0.125897
0.125554
0.125136
0.124636
0.12405
0.123386
0.122663
0.12191
0.121171
0.120491
0.119915
0.119476
0.11919
0.119049
0.119018
0.119044
0.119049
0.118942
0.118614
0.117939
0.116768
0.114918
0.112168
0.108246
0.102823
0.0954808
0.0858125
0.07304
0.0573288
0.0353568
0.0171573
0.174863
0.133508
0.112988
0.116858
0.121537
0.122468
0.122892
0.123801
0.124769
0.125544
0.126155
0.126667
0.127101
0.127458
0.127749
0.12799
0.128187
0.128331
0.128419
0.128464
0.128491
0.128519
0.128553
0.128589
0.128621
0.128646
0.12866
0.128666
0.128671
0.128663
0.128652
0.128643
0.128635
0.128628
0.128622
0.128614
0.128605
0.12859
0.128567
0.128532
0.128484
0.12842
0.128337
0.128232
0.128103
0.127947
0.127759
0.127535
0.127267
0.126949
0.12657
0.126122
0.125597
0.124996
0.124324
0.123597
0.122842
0.122095
0.121396
0.120784
0.12029
0.119928
0.119694
0.119559
0.119474
0.119371
0.119165
0.118753
0.118015
0.116804
0.114942
0.11221
0.108334
0.102989
0.0957511
0.0862166
0.073574
0.0580508
0.035926
0.0179342
0.181457
0.130678
0.111279
0.117143
0.121876
0.122819
0.123414
0.124423
0.125437
0.126258
0.126917
0.127473
0.127946
0.128342
0.12867
0.128945
0.129173
0.129345
0.129461
0.129535
0.129585
0.129632
0.12968
0.129727
0.129768
0.1298
0.12982
0.129833
0.129836
0.129825
0.129813
0.129798
0.129782
0.129764
0.129744
0.129721
0.129693
0.129659
0.129614
0.129557
0.129485
0.129395
0.129284
0.129151
0.128992
0.128804
0.128584
0.128326
0.128027
0.127677
0.127269
0.126796
0.126252
0.125636
0.124955
0.124221
0.12346
0.122703
0.121987
0.121348
0.120815
0.120402
0.120106
0.119903
0.119749
0.11958
0.119316
0.118857
0.118086
0.116859
0.115
0.112291
0.10846
0.10318
0.0960299
0.0866075
0.0740737
0.0587254
0.0364839
0.0186814
0.187966
0.127153
0.109794
0.117431
0.122122
0.123115
0.123858
0.124934
0.125978
0.126829
0.12752
0.128103
0.128602
0.129022
0.129373
0.12967
0.129917
0.130107
0.130241
0.13033
0.130395
0.130451
0.130505
0.130556
0.1306
0.130633
0.130653
0.130663
0.130656
0.130643
0.130624
0.130601
0.130573
0.130542
0.130508
0.130469
0.130425
0.130373
0.130309
0.130233
0.13014
0.130029
0.129897
0.129742
0.12956
0.12935
0.129107
0.128827
0.128505
0.128134
0.127707
0.127218
0.126661
0.126035
0.125347
0.124608
0.123842
0.123078
0.12235
0.121692
0.121132
0.120687
0.120353
0.12011
0.119916
0.11971
0.119414
0.118932
0.118147
0.116919
0.11507
0.112386
0.108596
0.103374
0.0962959
0.0869677
0.0745256
0.0593363
0.0370165
0.0193841
0.194312
0.123089
0.108572
0.117685
0.122283
0.123338
0.124186
0.125296
0.126352
0.127218
0.127925
0.128523
0.129036
0.129469
0.129832
0.13014
0.130397
0.130596
0.130738
0.130836
0.130907
0.130967
0.131023
0.131074
0.131117
0.131148
0.131167
0.131168
0.131158
0.13114
0.131115
0.131084
0.131047
0.131007
0.130962
0.130912
0.130856
0.130791
0.130715
0.130626
0.13052
0.130396
0.130251
0.130082
0.129886
0.129662
0.129406
0.129113
0.128778
0.128396
0.127958
0.12746
0.126896
0.126265
0.125573
0.124832
0.124062
0.123293
0.122557
0.121888
0.121312
0.120847
0.120492
0.120226
0.12001
0.119785
0.119475
0.118984
0.118198
0.116975
0.115142
0.112483
0.108728
0.103555
0.0965386
0.0872899
0.074926
0.0598777
0.0375154
0.0200378
0.200495
0.118756
0.10764
0.117877
0.122367
0.12347
0.124379
0.125501
0.126561
0.127435
0.128149
0.128754
0.129272
0.129711
0.130081
0.130394
0.130655
0.130858
0.131005
0.131106
0.13118
0.131241
0.131298
0.131348
0.13139
0.131419
0.131434
0.131435
0.131422
0.1314
0.131371
0.131334
0.131293
0.131247
0.131196
0.13114
0.131077
0.131006
0.130923
0.130827
0.130714
0.130583
0.130431
0.130255
0.130053
0.129822
0.129559
0.12926
0.128919
0.128531
0.128089
0.127587
0.12702
0.126388
0.125694
0.124952
0.124181
0.123408
0.122667
0.121991
0.121407
0.120931
0.120564
0.120286
0.120059
0.119826
0.119511
0.11902
0.118238
0.117025
0.115208
0.112573
0.108851
0.10372
0.0967555
0.0875742
0.075278
0.0603519
0.0379775
0.0206463
0.206658
0.114668
0.107005
0.117994
0.122384
0.123519
0.124458
0.125587
0.126649
0.127526
0.128244
0.128852
0.129373
0.129815
0.130187
0.130503
0.130767
0.130971
0.13112
0.131223
0.131298
0.13136
0.131416
0.131467
0.131507
0.131535
0.13155
0.131551
0.131537
0.131513
0.131481
0.131443
0.131399
0.131351
0.131297
0.131238
0.131173
0.131098
0.131013
0.130913
0.130798
0.130664
0.130509
0.13033
0.130125
0.129892
0.129626
0.129325
0.128982
0.128593
0.12815
0.127647
0.12708
0.126447
0.125754
0.125011
0.124239
0.123465
0.122722
0.122041
0.121452
0.12097
0.120596
0.120313
0.120082
0.119847
0.119532
0.119045
0.11827
0.117069
0.115269
0.112656
0.108963
0.10387
0.0969509
0.0878284
0.0755925
0.0607719
0.038409
0.0212291
0.212755
0.111461
0.106609
0.118043
0.122364
0.123512
0.124466
0.125601
0.126666
0.127546
0.128267
0.128876
0.129399
0.129843
0.130216
0.130533
0.130798
0.131004
0.131153
0.131257
0.131332
0.131394
0.131451
0.131501
0.131541
0.13157
0.131584
0.131585
0.13157
0.131547
0.131515
0.131476
0.131432
0.131382
0.131328
0.131269
0.131202
0.131127
0.131041
0.130941
0.130824
0.13069
0.130534
0.130355
0.130149
0.129916
0.12965
0.129348
0.129006
0.128616
0.128174
0.127671
0.127105
0.126473
0.125781
0.125038
0.124266
0.123492
0.122747
0.122064
0.121471
0.120986
0.120609
0.120323
0.120091
0.119857
0.119545
0.119063
0.118297
0.117109
0.115325
0.112734
0.109069
0.10401
0.0971341
0.0880654
0.0758862
0.0611602
0.0388214
0.0218191
0.217482
0.109519
0.106384
0.11807
0.122342
0.123488
0.12445
0.125591
0.126659
0.127541
0.128262
0.128873
0.129396
0.129841
0.130215
0.130532
0.130797
0.131003
0.131153
0.131256
0.131332
0.131395
0.131452
0.131502
0.131543
0.131572
0.131587
0.131588
0.131573
0.131549
0.131517
0.131478
0.131434
0.131385
0.131331
0.131271
0.131205
0.13113
0.131044
0.130944
0.130828
0.130693
0.130537
0.130359
0.130154
0.12992
0.129655
0.129354
0.129012
0.128624
0.128182
0.127681
0.127115
0.126485
0.125793
0.125051
0.12428
0.123504
0.122758
0.122074
0.121479
0.120992
0.120613
0.120327
0.120095
0.119862
0.119553
0.119077
0.11832
0.117143
0.115375
0.112803
0.109163
0.104135
0.0972962
0.0882748
0.0761443
0.061503
0.0391802
0.022381
)
;

boundaryField
{
    inlet
    {
        type            zeroGradient;
    }
    outlet
    {
        type            fixedValue;
        value           uniform 0;
    }
    fixedWalls
    {
        type            zeroGradient;
    }
    frontAndBack
    {
        type            empty;
    }
}


// ************************************************************************* //
