/*--------------------------------*- C++ -*----------------------------------*\
| =========                 |                                                 |
| \\      /  F ield         | OpenFOAM: The Open Source CFD Toolbox           |
|  \\    /   O peration     | Version:  v1912                                 |
|   \\  /    A nd           | Website:  www.openfoam.com                      |
|    \\/     M anipulation  |                                                 |
\*---------------------------------------------------------------------------*/
FoamFile
{
    version     2.0;
    format      ascii;
    class       surfaceScalarField;
    location    "850";
    object      phi;
}
// * * * * * * * * * * * * * * * * * * * * * * * * * * * * * * * * * * * * * //

dimensions      [0 3 -1 0 0 0 0];
oriented        oriented;


internalField   nonuniform List<scalar> 
3895
(
0.000814746
0.00038143
0.000499361
0.000315385
0.000251565
0.000247796
6.4863e-05
0.000186702
-6.21962e-05
0.000127059
-0.000127327
6.51304e-05
-0.000137639
1.0312e-05
-0.000113632
-2.40064e-05
-9.03514e-05
-2.32809e-05
-8.49474e-05
-5.40396e-06
-6.61298e-05
-1.88176e-05
-4.47459e-05
-2.13839e-05
-4.04648e-05
-4.28105e-06
-4.86702e-05
8.20544e-06
-4.57114e-05
-2.95889e-06
-3.20518e-05
-1.36595e-05
-2.51401e-05
-6.91171e-06
-2.59226e-05
7.82464e-07
-2.89437e-05
3.0211e-06
-3.04865e-05
1.54277e-06
-2.91839e-05
-1.30259e-06
-2.48967e-05
-4.28716e-06
-1.85751e-05
-6.32162e-06
-1.19705e-05
-6.60463e-06
-6.19684e-06
-5.77362e-06
-1.89651e-06
-4.30033e-06
8.43124e-07
-2.73963e-06
2.44738e-06
-1.60426e-06
3.49672e-06
-1.04933e-06
4.39938e-06
-9.02657e-07
5.28733e-06
-8.87953e-07
6.1372e-06
-8.49875e-07
6.93055e-06
-7.93347e-07
7.63017e-06
-6.99619e-07
8.16358e-06
-5.33412e-07
8.46112e-06
-2.97536e-07
8.46968e-06
-8.5602e-09
8.08659e-06
3.83085e-07
7.32143e-06
7.65165e-07
6.12965e-06
1.19178e-06
4.42964e-06
1.70001e-06
2.11303e-06
2.31661e-06
-9.40762e-07
3.05379e-06
-4.85002e-06
3.90926e-06
-9.72147e-06
4.87145e-06
-1.56926e-05
5.97108e-06
-2.30788e-05
7.38624e-06
-3.257e-05
9.49121e-06
-4.54807e-05
1.29107e-05
-6.39568e-05
1.8476e-05
-9.09027e-05
2.69459e-05
-0.000129367
3.84648e-05
-0.000181708
5.23406e-05
-0.000248881
6.71728e-05
-0.000329547
8.06665e-05
-0.00041926
8.9713e-05
-0.000510688
9.14276e-05
-0.000594936
8.42484e-05
-0.000663126
6.81893e-05
-0.000706502
4.33764e-05
-0.000714089
7.58695e-06
-0.000696385
-1.77044e-05
-0.000657712
-3.86721e-05
-0.000601632
-5.60804e-05
-0.00053203
-6.96023e-05
-0.000451944
-8.00862e-05
-0.00036336
-8.85838e-05
-0.000267829
-9.55303e-05
-0.000166972
-0.000100857
-6.24984e-05
-0.000104474
4.36061e-05
-0.000106105
0.00014936
-0.000105754
0.000253171
-0.000103811
0.000353679
-0.000100508
0.000449995
-9.63165e-05
0.000542045
-9.20502e-05
0.000630082
-8.8037e-05
0.00071724
-8.71581e-05
0.00080387
-8.66297e-05
-0.000107378
0.00108795
0.000349294
0.00104738
0.000355946
0.000933278
0.000361903
0.000775747
0.000344233
0.000598431
0.000304375
0.000410383
0.000253178
0.000221248
0.000199447
5.3877e-05
0.000143365
-6.04247e-05
9.10208e-05
-0.000110188
4.43597e-05
-0.000131882
2.87624e-06
-0.000123968
-2.92985e-05
-0.000105671
-2.25782e-05
-0.000107783
1.03177e-05
-0.000103374
-7.36724e-06
-9.07482e-05
-2.62858e-05
-7.67547e-05
-2.09052e-05
-7.88655e-05
2.89319e-06
-8.71315e-05
1.12871e-05
-9.2631e-05
7.04231e-06
-9.45852e-05
6.51595e-07
-9.09567e-05
-7.91567e-06
-8.48009e-05
-1.24774e-05
-7.80607e-05
-1.33447e-05
-7.14963e-05
-1.23381e-05
-6.58385e-05
-9.95812e-06
-6.17062e-05
-6.87185e-06
-5.95587e-05
-3.75181e-06
-5.9271e-05
-1.33706e-06
-6.03473e-05
1.73634e-07
-6.25792e-05
1.34401e-06
-6.52858e-05
1.8567e-06
-6.81566e-05
2.07747e-06
-7.1109e-05
2.25275e-06
-7.42734e-05
2.63097e-06
-7.78031e-05
3.2322e-06
-8.1825e-05
4.01337e-06
-8.6378e-05
4.93609e-06
-9.15826e-05
5.96974e-06
-9.74881e-05
7.09728e-06
-0.000104104
8.31636e-06
-0.000111423
9.63563e-06
-0.000119425
1.10553e-05
-0.000128062
1.25463e-05
-0.000137241
1.40505e-05
-0.000146821
1.5551e-05
-0.000156686
1.72517e-05
-0.000166836
1.96406e-05
-0.000177395
2.34694e-05
-0.000188511
2.95921e-05
-0.000200416
3.88516e-05
-0.000213458
5.15066e-05
-0.000227691
6.65734e-05
-0.000242292
8.17739e-05
-0.000255102
9.34768e-05
-0.000262261
9.68718e-05
-0.000258948
8.81147e-05
-0.000241007
6.63073e-05
-0.000207153
3.43355e-05
-0.000166318
2.54098e-06
-0.000119841
-3.88897e-05
-6.79738e-05
-6.9572e-05
-1.35073e-05
-9.31386e-05
4.26313e-05
-0.000112219
0.000102052
-0.000129023
0.000165982
-0.000144016
0.000234319
-0.000156921
0.000306019
-0.00016723
0.000379538
-0.000174377
0.000453085
-0.000178021
0.000525117
-0.000178136
0.000594385
-0.000175022
0.00065982
-0.000169246
0.000720846
-0.000161534
0.000777303
-0.000152773
0.000829299
-0.000144046
0.000877701
-0.000136439
0.000922543
-0.000132
0.000966542
-0.00013063
-0.000141933
0.000975282
0.000305926
0.00102604
0.000305187
0.00106097
0.000326974
0.00105862
0.000346584
0.00101217
0.00035082
0.000925048
0.000340304
0.000805752
0.000318743
0.000661765
0.000287352
0.000504928
0.000247857
0.000345844
0.000203445
0.000190168
0.000158552
4.7057e-05
0.000113812
-4.98375e-05
7.43163e-05
-8.59847e-05
4.64649e-05
-0.00010587
1.25178e-05
-0.000113875
-1.82809e-05
-0.000101872
-3.29079e-05
-9.15518e-05
-7.42687e-06
-9.90033e-05
1.87386e-05
-0.000108459
1.64985e-05
-0.000114963
7.15499e-06
-0.0001196
-3.27896e-06
-0.000121677
-1.03999e-05
-0.000120582
-1.444e-05
-0.000118959
-1.39605e-05
-0.000118698
-1.02198e-05
-0.000120398
-5.17205e-06
-0.000124227
7.81181e-08
-0.00012832
2.75549e-06
-0.000132841
4.69421e-06
-0.000137384
5.88765e-06
-0.00014198
6.45279e-06
-0.000146504
6.60101e-06
-0.000150862
6.61063e-06
-0.000155114
6.8833e-06
-0.000159425
7.54301e-06
-0.000163904
8.49248e-06
-0.000168543
9.57516e-06
-0.000173274
1.07006e-05
-0.000178017
1.18406e-05
-0.000182683
1.29825e-05
-0.000187172
1.41238e-05
-0.000191361
1.52452e-05
-0.00019505
1.62347e-05
-0.000197865
1.68661e-05
-0.000199131
1.68167e-05
-0.000197792
1.59124e-05
-0.000192862
1.47111e-05
-0.000183364
1.3971e-05
-0.000168229
1.44573e-05
-0.000146084
1.67067e-05
-0.000116222
2.16449e-05
-7.78176e-05
2.81686e-05
-3.02816e-05
3.42379e-05
2.60579e-05
3.71374e-05
8.86137e-05
3.4316e-05
0.000152872
2.38567e-05
0.000212633
6.54566e-06
0.000267196
-2.02271e-05
0.00031909
-4.93528e-05
0.000361414
-8.12144e-05
0.000402461
-0.000110619
0.000445744
-0.000136421
0.000492824
-0.0001593
0.000543205
-0.000179404
0.000595502
-0.000196313
0.000647996
-0.000209414
0.000698969
-0.000218203
0.000747006
-0.000222414
0.000791078
-0.000222092
0.000830556
-0.000217615
0.000865176
-0.000209642
0.000894971
-0.000199041
0.000920243
-0.000186806
0.00094147
-0.000174
0.000959158
-0.000161734
0.000973909
-0.00015119
0.0009856
-0.00014369
0.000995295
-0.000140324
-0.000144769
0.000857109
0.000271374
0.000897355
0.000264941
0.000950164
0.000274165
0.00100471
0.000292042
0.00104637
0.000309153
0.00106531
0.000321372
0.00105664
0.000327411
0.00101794
0.000326054
0.000949552
0.000316241
0.00085508
0.000297917
0.000740895
0.000272737
0.000611932
0.000242776
0.000476494
0.000209754
0.000348327
0.000174632
0.000223535
0.00013731
0.000102247
0.000103007
-1.42422e-07
6.94814e-05
-5.1633e-05
4.40637e-05
-6.2884e-05
2.99897e-05
-6.47488e-05
1.83633e-05
-6.70991e-05
9.50525e-06
-7.30032e-05
2.62511e-06
-8.04625e-05
-2.94056e-06
-8.89821e-05
-5.92047e-06
-9.63251e-05
-6.61755e-06
-0.00010182
-4.72479e-06
-0.000106776
-2.15784e-07
-0.000112148
5.44973e-06
-0.000117747
8.35505e-06
-0.000122909
9.85575e-06
-0.0001273
1.02784e-05
-0.000130846
9.99868e-06
-0.000133607
9.36263e-06
-0.000135416
8.41891e-06
-0.000136591
8.05827e-06
-0.000137227
8.17899e-06
-0.00013741
8.67566e-06
-0.000136854
9.01913e-06
-0.000135394
9.24046e-06
-0.000132914
9.36076e-06
-0.00012928
9.34856e-06
-0.000124331
9.17538e-06
-0.000117929
8.8429e-06
-0.000109875
8.18046e-06
-9.99075e-05
6.89881e-06
-8.77937e-05
4.70283e-06
-7.2495e-05
6.13763e-07
-5.43369e-05
-3.44701e-06
-3.20659e-05
-8.30006e-06
-4.19867e-06
-1.34099e-05
3.05273e-05
-1.80193e-05
7.40949e-05
-2.19227e-05
0.000127281
-2.50177e-05
0.000189437
-2.7918e-05
0.00025847
-3.18952e-05
0.000331369
-3.85837e-05
0.000404752
-4.95256e-05
0.000476966
-6.56691e-05
0.000543805
-8.7066e-05
0.000605955
-0.000111502
0.000661966
-0.000137225
0.000713535
-0.000162188
0.000761968
-0.000184854
0.000807161
-0.000204493
0.00084834
-0.000220583
0.000884622
-0.000232596
0.000915309
-0.000240101
0.000940015
-0.000242909
0.000958726
-0.000241125
0.000971773
-0.000235139
0.00097975
-0.000225592
0.000983412
-0.000213304
0.000983576
-0.000199205
0.000981034
-0.000184264
0.000976476
-0.000169442
0.000970412
-0.00015567
0.000963135
-0.000143914
0.000954478
-0.000135032
0.000944297
-0.000130143
-0.000130232
0.000759397
0.000238011
0.000790536
0.000233802
0.000828351
0.000236349
0.000874985
0.000245408
0.000927002
0.000257137
0.000978871
0.000269503
0.00102441
0.000281869
0.00105755
0.000292918
0.00107319
0.000300602
0.00106786
0.000303245
0.00104042
0.000300179
0.000991565
0.00029163
0.000923239
0.00027808
0.00083886
0.000259011
0.000741525
0.000234645
0.000636635
0.000207896
0.000532151
0.000173965
0.000433902
0.000142313
0.000348946
0.000114945
0.000276031
9.12789e-05
0.000213745
7.17907e-05
0.000160424
5.59462e-05
0.000114124
4.33599e-05
7.45187e-05
3.36845e-05
4.16993e-05
2.62019e-05
1.65775e-05
2.0397e-05
3.29086e-07
1.60326e-05
-7.28832e-06
1.30671e-05
-9.52766e-06
1.05944e-05
-8.31843e-06
8.64652e-06
-5.02488e-06
6.98489e-06
-4.87371e-07
5.46117e-06
4.88161e-06
3.99365e-06
1.07579e-05
2.54266e-06
1.71448e-05
1.67131e-06
2.47386e-05
5.85179e-07
3.3984e-05
-5.69668e-07
4.48535e-05
-1.85041e-06
5.76382e-05
-3.54422e-06
7.26029e-05
-5.60397e-06
9.00272e-05
-8.07576e-06
0.000110206
-1.10035e-05
0.000133477
-1.44277e-05
0.000160078
-1.84205e-05
0.00019007
-2.30932e-05
0.000223342
-2.85695e-05
0.000258837
-3.48808e-05
0.000297069
-4.16793e-05
0.000337599
-4.88299e-05
0.00038025
-5.60615e-05
0.000425235
-6.30035e-05
0.000472753
-6.94413e-05
0.000523185
-7.545e-05
0.000576707
-8.14396e-05
0.000632991
-8.81788e-05
0.000691038
-9.66307e-05
0.000749184
-0.000107671
0.000805257
-0.000121742
0.000856843
-0.000138652
0.000902757
-0.000157417
0.000942219
-0.000176687
0.000975069
-0.000195039
0.00100139
-0.000211173
0.0010211
-0.000224205
0.00103412
-0.000233599
0.00104055
-0.000239026
0.00104079
-0.000240343
0.00103551
-0.000237634
0.00102561
-0.000231219
0.00101208
-0.000221617
0.000995987
-0.000209493
0.000978284
-0.000195602
0.000959809
-0.00018073
0.000941202
-0.000165656
0.000922888
-0.000151128
0.000905055
-0.000137838
0.000887635
-0.000126493
0.000870249
-0.000117647
0.000852257
-0.000112151
-0.000110142
0.000672433
0.000206414
0.000702275
0.000203961
0.000733372
0.000205252
0.000767839
0.00021094
0.000806614
0.000218362
0.000850036
0.000226081
0.000897301
0.000234604
0.000946031
0.000244187
0.000992641
0.000253992
0.00103305
0.000262834
0.00106349
0.000269743
0.00108117
0.000273948
0.00108444
0.000274805
0.00107207
0.000271382
0.0010437
0.000263018
0.00100103
0.000250564
0.000949034
0.000225965
0.000891658
0.000199688
0.000831903
0.000174701
0.000772159
0.000151023
0.000714626
0.000129324
0.000660588
0.000109984
0.000610849
9.30986e-05
0.000565999
7.85351e-05
0.000526239
6.59611e-05
0.000491553
5.50829e-05
0.000461917
4.56694e-05
0.000437548
3.74359e-05
0.000418107
3.00351e-05
0.000403369
2.33852e-05
0.000393005
1.73488e-05
0.00038666
1.18057e-05
0.000384054
6.59922e-06
0.000385397
1.20059e-06
0.000390336
-3.26832e-06
0.000398901
-7.97993e-06
0.000411033
-1.27018e-05
0.000426612
-1.74293e-05
0.000445371
-2.23025e-05
0.000467124
-2.73569e-05
0.000491667
-3.26195e-05
0.000518789
-3.81251e-05
0.000548268
-4.39066e-05
0.000579845
-4.99979e-05
0.000613184
-5.64321e-05
0.000647834
-6.322e-05
0.000683267
-7.03133e-05
0.000719133
-7.75452e-05
0.000755027
-8.47236e-05
0.000790619
-9.1654e-05
0.000825764
-9.81481e-05
0.000860445
-0.000104122
0.000894686
-0.000109691
0.000928437
-0.00011519
0.000961412
-0.000121154
0.000992986
-0.000128205
0.00102219
-0.000136871
0.00104783
-0.000147387
0.00106874
-0.000159561
0.00108405
-0.000172729
0.00109325
-0.000185889
0.00109619
-0.000197973
0.00109304
-0.000208023
0.00108419
-0.00021536
0.0010702
-0.000219603
0.00105177
-0.000220593
0.00102977
-0.000218346
0.00100518
-0.000213044
0.000978986
-0.000205027
0.000952122
-0.000194753
0.000925395
-0.000182766
0.00089944
-0.000169647
0.000874703
-0.000155993
0.000851431
-0.000142384
0.000829685
-0.000129381
0.000809342
-0.000117495
0.000790104
-0.000107256
0.000771453
-9.8996e-05
0.000752752
-9.34492e-05
-9.01661e-05
0.000594386
0.000177665
0.00062317
0.000175177
0.000652323
0.000176099
0.000682115
0.000181149
0.000712924
0.000187552
0.000745613
0.000193392
0.000781181
0.000199036
0.000820193
0.000205175
0.000862411
0.000211774
0.000906707
0.000218538
0.000951215
0.000225234
0.00099366
0.000231504
0.00103171
0.000236754
0.00106298
0.000240114
0.0010853
0.000240697
0.00109753
0.000238336
0.00109977
0.000223725
0.00109369
0.000205768
0.00108083
0.000187561
0.00106268
0.000169172
0.00104092
0.000151079
0.00101711
0.000133794
0.000992584
0.000117626
0.00096843
0.000102689
0.000945436
8.89549e-05
0.000924182
7.63371e-05
0.00090512
6.47315e-05
0.000888573
5.39835e-05
0.000874678
4.39299e-05
0.000863575
3.44878e-05
0.000855339
2.55849e-05
0.000850009
1.71359e-05
0.00084757
9.03819e-06
0.00084742
1.35018e-06
0.000850326
-6.17365e-06
0.000855716
-1.33701e-05
0.00086345
-2.04356e-05
0.00087338
-2.73599e-05
0.000885258
-3.41798e-05
0.000898833
-4.09324e-05
0.000913852
-4.76389e-05
0.000930043
-5.43157e-05
0.000947113
-6.0977e-05
0.000964748
-6.76326e-05
0.0009826
-7.42838e-05
0.00100029
-8.09116e-05
0.00101744
-8.7459e-05
0.00103371
-9.38143e-05
0.00104882
-9.98413e-05
0.00106259
-0.000105422
0.00107492
-0.000110476
0.00108581
-0.00011501
0.00109528
-0.000119163
0.00110331
-0.000123221
0.00110974
-0.000127586
0.00111422
-0.000132687
0.00111622
-0.000138868
0.00111509
-0.000146256
0.00111021
-0.000154677
0.00110112
-0.000163647
0.00108769
-0.000172453
0.00107005
-0.000180331
0.00104862
-0.000186601
0.00102403
-0.000190767
0.000996974
-0.000192547
0.000968219
-0.000191838
0.000938545
-0.000188672
0.0009087
-0.000183198
0.000879343
-0.00017567
0.000851015
-0.000166425
0.000824107
-0.000155858
0.000798863
-0.000144404
0.000775388
-0.000132517
0.000753658
-0.000120655
0.000733544
-0.000109267
0.000714807
-9.87583e-05
0.000697115
-8.95635e-05
0.000679964
-8.18446e-05
0.000662883
-7.6369e-05
-7.19667e-05
0.000525111
0.000151816
0.000551936
0.000148352
0.000579146
0.000148889
0.000606467
0.000153827
0.000634006
0.000160013
0.000661953
0.000165445
0.000690628
0.000170362
0.000720605
0.000175198
0.000752535
0.000179845
0.000786873
0.000184199
0.000823722
0.000188386
0.00086273
0.000192496
0.00090308
0.000196403
0.000943487
0.000199707
0.000982309
0.000201875
0.00101803
0.000202617
0.00104832
0.000193431
0.00107278
0.000181312
0.00109162
0.000168722
0.00110524
0.000155554
0.00111427
0.000142043
0.00111951
0.000128558
0.00112176
0.000115378
0.00112179
0.000102657
0.00112028
9.04596e-05
0.00111783
7.87915e-05
0.00111493
6.7635e-05
0.00111196
5.69457e-05
0.00110923
4.66657e-05
0.00110695
3.67615e-05
0.00110532
2.7217e-05
0.00110445
1.80098e-05
0.00110436
9.13136e-06
0.00110497
7.36466e-07
0.0011064
-7.60071e-06
0.00110845
-1.54243e-05
0.00111102
-2.30055e-05
0.00111401
-3.03484e-05
0.00111729
-3.74573e-05
0.0011207
-4.43512e-05
0.00112411
-5.1043e-05
0.00112733
-5.75395e-05
0.0011302
-6.3845e-05
0.00113253
-6.99606e-05
0.00113412
-7.58801e-05
0.0011348
-8.15832e-05
0.00113436
-8.70272e-05
0.00113269
-9.21433e-05
0.00112971
-9.68528e-05
0.00112538
-0.000101097
0.00111976
-0.000104859
0.00111294
-0.000108188
0.001105
-0.000111226
0.00109599
-0.000114212
0.00108585
-0.000117446
0.00107441
-0.000121238
0.00106136
-0.00012582
0.00104637
-0.000131269
0.00102914
-0.000137448
0.0010095
-0.000144008
0.00098749
-0.000150441
0.000963346
-0.000156187
0.00093748
-0.000160734
0.000910401
-0.000163688
0.000882651
-0.000164797
0.000854756
-0.000163944
0.0008272
-0.000161116
0.000800394
-0.000156392
0.000774659
-0.000149936
0.000750219
-0.000141984
0.000727199
-0.000132838
0.000705641
-0.000122846
0.000685515
-0.000112391
0.000666732
-0.000101872
0.000649153
-9.16881e-05
0.000632582
-8.21874e-05
0.000616764
-7.3745e-05
0.000601303
-6.63842e-05
0.000585873
-6.09384e-05
-5.54912e-05
0.00046394
0.000128551
0.000488639
0.000123652
0.00051348
0.000124049
0.000538159
0.000129148
0.000563122
0.00013505
0.000588445
0.000140122
0.00061397
0.000144837
0.000639764
0.000149404
0.000666083
0.000153526
0.000693245
0.000157037
0.00072161
0.00016002
0.00075152
0.000162587
0.00078317
0.000164753
0.000816474
0.000166403
0.000850999
0.00016735
0.000886112
0.000167504
0.000919682
0.000159861
0.000950826
0.000150169
0.00097917
0.000140377
0.00100445
0.000130273
0.00102659
0.000119902
0.0010457
0.000109452
0.00106199
9.90878e-05
0.00107574
8.89022e-05
0.00108727
7.89374e-05
0.00109685
6.92059e-05
0.00110478
5.97083e-05
0.00111129
5.04344e-05
0.00111659
4.13673e-05
0.00112085
3.25039e-05
0.0011242
2.38577e-05
0.00112677
1.54454e-05
0.00112861
7.2892e-06
0.00112981
-4.58652e-07
0.00113029
-8.08882e-06
0.00113014
-1.52729e-05
0.00112933
-2.21879e-05
0.00112783
-2.88483e-05
0.00112562
-3.52534e-05
0.00112268
-4.14092e-05
0.00111896
-4.73231e-05
0.00111442
-5.29991e-05
0.00110901
-5.84394e-05
0.0011027
-6.36438e-05
0.00109542
-6.86074e-05
0.00108716
-7.33161e-05
0.00107787
-7.77432e-05
0.00106758
-8.1849e-05
0.00105632
-8.55922e-05
0.00104417
-8.89488e-05
0.00103124
-9.19301e-05
0.00101765
-9.45987e-05
0.00100351
-9.70811e-05
0.000988862
-9.95664e-05
0.0009737
-0.000102284
0.000957921
-0.000105459
0.000941358
-0.000109258
0.000923817
-0.000113728
0.000905135
-0.000118766
0.000885236
-0.000124109
0.000864171
-0.000129375
0.000842112
-0.000134128
0.000819327
-0.000137949
0.000796135
-0.000140496
0.000772861
-0.000141523
0.000749801
-0.000140884
0.000727209
-0.000138524
0.000705285
-0.000134468
0.000684171
-0.000128822
0.000663956
-0.000121769
0.000644681
-0.000113563
0.00062635
-0.000104516
0.000608942
-9.49828e-05
0.000592411
-8.53402e-05
0.000576686
-7.59633e-05
0.000561664
-6.71651e-05
0.000547184
-5.9266e-05
0.000532984
-5.21833e-05
0.000518777
-4.67321e-05
-4.0434e-05
0.000410014
0.000107501
0.000432754
0.000100912
0.000455183
0.00010162
0.000477152
0.000107179
0.000499455
0.000112747
0.000522203
0.000117374
0.000545203
0.000121836
0.00056844
0.000126167
0.00059194
0.000130026
0.000615686
0.00013329
0.000639722
0.000135985
0.00066419
0.000138119
0.000689281
0.000139662
0.000715152
0.000140532
0.000741864
0.000140638
0.000769388
0.00013998
0.000796435
0.000132814
0.000822522
0.000124081
0.000847429
0.000115471
0.000870887
0.000106815
0.000892681
9.81073e-05
0.000912686
8.94473e-05
0.000930852
8.09222e-05
0.000947181
7.25726e-05
0.000961714
6.44049e-05
0.000974509
5.64109e-05
0.000985638
4.8579e-05
0.000995177
4.08957e-05
0.0010032
3.33488e-05
0.00100976
2.59384e-05
0.00101494
1.86801e-05
0.00101879
1.15975e-05
0.00102135
4.72128e-06
0.00102278
-1.88207e-06
0.001023
-8.31414e-06
0.00102218
-1.44534e-05
0.00102034
-2.03418e-05
0.00101749
-2.60053e-05
0.00101369
-3.14468e-05
0.00100895
-3.66673e-05
0.00100329
-4.16712e-05
0.000996757
-4.6462e-05
0.000989359
-5.10417e-05
0.000981125
-5.541e-05
0.000972081
-5.9563e-05
0.000962255
-6.34905e-05
0.000951687
-6.71749e-05
0.00094043
-7.05919e-05
0.000928556
-7.37184e-05
0.000916154
-7.65463e-05
0.000903319
-7.90958e-05
0.000890147
-8.14268e-05
0.000876712
-8.36457e-05
0.000863049
-8.59031e-05
0.00084914
-8.83755e-05
0.000834914
-9.12335e-05
0.000820256
-9.45994e-05
0.000805034
-9.85061e-05
0.000789137
-0.000102869
0.000772507
-0.000107479
0.000755162
-0.00011203
0.000737197
-0.000116162
0.000718764
-0.000119516
0.000700045
-0.000121778
0.000681225
-0.000122703
0.000662472
-0.00012213
0.000643924
-0.000119976
0.000625692
-0.000116237
0.000607861
-0.000110991
0.000590492
-0.000104399
0.000573628
-9.66991e-05
0.000557305
-8.8193e-05
0.000541552
-7.92301e-05
0.00052639
-7.01781e-05
0.000511823
-6.13959e-05
0.000497828
-5.31704e-05
0.000484321
-4.57585e-05
0.000471148
-3.90102e-05
0.000457991
-3.35757e-05
-2.67441e-05
0.000362528
8.82933e-05
0.000383496
7.99438e-05
0.000403597
8.15192e-05
0.000423064
8.77118e-05
0.00044288
9.29311e-05
0.000463078
9.71768e-05
0.000483524
0.00010139
0.000504297
0.000105394
0.00052542
0.000108903
0.000546805
0.000111905
0.000568367
0.000114423
0.000590058
0.000116428
0.000611865
0.000117854
0.000633785
0.000118613
0.000655815
0.000118608
0.000677971
0.000117824
0.000699348
0.000111438
0.00071975
0.000103678
0.00073919
9.60318e-05
0.000757602
8.84019e-05
0.00077491
8.07999e-05
0.00079105
7.33066e-05
0.000805981
6.59912e-05
0.000819674
5.88801e-05
0.000832109
5.19693e-05
0.000843278
4.5242e-05
0.000853178
3.86789e-05
0.000861813
3.22611e-05
0.000869189
2.59729e-05
0.000875318
1.98092e-05
0.000880219
1.37788e-05
0.000883919
7.89762e-06
0.000886461
2.17951e-06
0.000887916
-3.33737e-06
0.000888306
-8.70366e-06
0.000887718
-1.38655e-05
0.000886195
-1.88181e-05
0.000883771
-2.35821e-05
0.000880489
-2.81642e-05
0.000876387
-3.25652e-05
0.000871503
-3.67877e-05
0.000865875
-4.08343e-05
0.00085954
-4.4706e-05
0.000852531
-4.84014e-05
0.000844884
-5.19163e-05
0.000836636
-5.52418e-05
0.000827824
-5.83638e-05
0.000818498
-6.12654e-05
0.000808712
-6.39325e-05
0.000798529
-6.63637e-05
0.000788015
-6.85815e-05
0.000777228
-7.06402e-05
0.000766213
-7.26301e-05
0.000754985
-7.46747e-05
0.000743525
-7.69158e-05
0.000731779
-7.94881e-05
0.000719666
-8.24862e-05
0.000707092
-8.59324e-05
0.000693977
-8.97534e-05
0.000680273
-9.37745e-05
0.000665978
-9.77353e-05
0.000651139
-0.000101323
0.000635839
-0.000104217
0.000620183
-0.000106121
0.000604278
-0.000106798
0.000588224
-0.000106077
0.000572114
-0.000103865
0.000556028
-0.00010015
0.000540044
-9.50075e-05
0.00052424
-8.8596e-05
0.000508698
-8.11567e-05
0.000493501
-7.29961e-05
0.000478734
-6.44631e-05
0.000464475
-5.59186e-05
0.00045078
-4.77014e-05
0.000437683
-4.00728e-05
0.000425138
-3.32142e-05
0.000413079
-2.69509e-05
0.000401112
-2.16083e-05
-1.46203e-05
0.000320758
7.05686e-05
0.000340087
6.06147e-05
0.000357962
6.3644e-05
0.000375206
7.04679e-05
0.000392819
7.53176e-05
0.00041069
7.93065e-05
0.000428757
8.33231e-05
0.000447162
8.69892e-05
0.000465939
9.01263e-05
0.000485023
9.28205e-05
0.000504347
9.50998e-05
0.000523846
9.69282e-05
0.000543446
9.82545e-05
0.000563057
9.90022e-05
0.000582581
9.90828e-05
0.000601945
9.84601e-05
0.000620301
9.30822e-05
0.000637492
8.64869e-05
0.000653584
7.994e-05
0.000668602
7.33842e-05
0.000682559
6.68426e-05
0.000695473
6.03928e-05
0.000707362
5.4102e-05
0.000718243
4.7999e-05
0.000728129
4.20837e-05
0.000737028
3.63425e-05
0.000744949
3.07583e-05
0.000751896
2.53137e-05
0.000757876
1.9993e-05
0.000762896
1.47894e-05
0.000766967
9.70798e-06
0.000770104
4.76014e-06
0.000772343
-5.93249e-08
0.000773716
-4.71053e-06
0.000774247
-9.23432e-06
0.000773977
-1.35955e-05
0.000772943
-1.77843e-05
0.000771174
-2.18131e-05
0.0007687
-2.56903e-05
0.000765552
-2.94174e-05
0.00076176
-3.29955e-05
0.000757352
-3.64262e-05
0.000752356
-3.97095e-05
0.000746797
-4.28432e-05
0.000740703
-4.58223e-05
0.0007341
-4.86385e-05
0.000727017
-5.12802e-05
0.000719486
-5.37344e-05
0.000711545
-5.59922e-05
0.000703238
-5.8056e-05
0.000694605
-5.99487e-05
0.000685684
-6.17197e-05
0.000676502
-6.3448e-05
0.000667066
-6.52381e-05
0.000657358
-6.72081e-05
0.000647338
-6.94683e-05
0.000636946
-7.2094e-05
0.000626112
-7.50988e-05
0.000614773
-7.84145e-05
0.000602884
-8.18853e-05
0.000590428
-8.52792e-05
0.000577419
-8.8314e-05
0.000563895
-9.06931e-05
0.000549913
-9.214e-05
0.000535542
-9.24259e-05
0.000520854
-9.13884e-05
0.000505931
-8.89423e-05
0.000490868
-8.5087e-05
0.00047577
-7.991e-05
0.000460759
-7.3585e-05
0.000445966
-6.63632e-05
0.000431523
-5.85539e-05
0.00041756
-5.04994e-05
0.000404184
-4.25432e-05
0.000391476
-3.49931e-05
0.000379485
-2.80814e-05
0.000368176
-2.19055e-05
0.000357538
-1.63125e-05
0.000347095
-1.11658e-05
-4.3879e-06
0.000284047
5.3995e-05
0.000301804
4.28575e-05
0.000317587
4.78611e-05
0.000332893
5.51619e-05
0.000348559
5.96515e-05
0.000364356
6.35097e-05
0.00038032
6.73584e-05
0.000396611
7.06988e-05
0.000413236
7.35008e-05
0.000430146
7.59107e-05
0.000447302
7.79438e-05
0.000464664
7.95663e-05
0.000482171
8.07472e-05
0.000499741
8.14325e-05
0.000517271
8.1552e-05
0.000534662
8.10697e-05
0.000551105
7.66392e-05
0.000566422
7.11701e-05
0.000580652
6.57095e-05
0.000593821
6.02153e-05
0.000605953
5.47108e-05
0.00061708
4.92654e-05
0.000627241
4.39413e-05
0.000636472
3.87684e-05
0.000644805
3.37502e-05
0.00065227
2.88778e-05
0.00065889
2.41386e-05
0.000664684
1.9519e-05
0.000669672
1.50055e-05
0.000673868
1.05931e-05
0.000677289
6.28694e-06
0.000679955
2.09393e-06
0.000681881
-1.98509e-06
0.000683098
-5.92713e-06
0.000683615
-9.75148e-06
0.000683461
-1.3442e-05
0.000682666
-1.69885e-05
0.000681251
-2.03982e-05
0.000679239
-2.36787e-05
0.000676654
-2.68324e-05
0.000673518
-2.98597e-05
0.000669853
-3.2761e-05
0.000665679
-3.55355e-05
0.000661016
-3.81804e-05
0.000655884
-4.06902e-05
0.000650302
-4.30565e-05
0.000644291
-4.5269e-05
0.000637873
-4.73169e-05
0.000631074
-4.91936e-05
0.000623922
-5.09034e-05
0.000616441
-5.24682e-05
0.000608655
-5.3933e-05
0.000600574
-5.53675e-05
0.000592199
-5.68625e-05
0.000583509
-5.85185e-05
0.000574468
-6.04278e-05
0.000565025
-6.26507e-05
0.000555119
-6.51924e-05
0.000544691
-6.79862e-05
0.000533692
-7.08872e-05
0.000522096
-7.36825e-05
0.000509895
-7.61134e-05
0.000497109
-7.79074e-05
0.000483781
-7.88113e-05
0.000469973
-7.86186e-05
0.000455775
-7.71896e-05
0.000441295
-7.44631e-05
0.00042667
-7.04623e-05
0.000412056
-6.52953e-05
0.00039762
-5.91495e-05
0.000383536
-5.22786e-05
0.000369964
-4.49822e-05
0.000357045
-3.758e-05
0.000344885
-3.03834e-05
0.000333549
-2.36573e-05
0.000323071
-1.76035e-05
0.000313399
-1.22334e-05
0.000304556
-7.4692e-06
0.00029601
-2.61973e-06
3.66975e-06
0.000251798
3.82832e-05
0.000267991
2.66645e-05
0.000281861
3.39914e-05
0.000295501
4.15218e-05
0.000309433
4.57198e-05
0.00032339
4.95522e-05
0.000337519
5.32298e-05
0.00035196
5.62579e-05
0.000366692
5.87689e-05
0.00038167
6.09327e-05
0.000396868
6.27456e-05
0.000412256
6.41785e-05
0.000427787
6.52162e-05
0.000443398
6.5821e-05
0.000459011
6.59389e-05
0.00047454
6.55413e-05
0.000489254
6.19245e-05
0.00050298
5.74448e-05
0.000515738
5.29512e-05
0.000527542
4.8411e-05
0.000538408
4.38454e-05
0.000548358
3.93149e-05
0.000557424
3.48752e-05
0.000565639
3.05541e-05
0.000573033
2.6356e-05
0.000579636
2.22745e-05
0.000585475
1.83e-05
0.000590572
1.44222e-05
0.000594949
1.06285e-05
0.000598625
6.91655e-06
0.000601619
3.29303e-06
0.000603949
-2.36423e-07
0.000605633
-3.66861e-06
0.000606695
-6.98895e-06
0.000607148
-1.02049e-05
0.000607016
-1.33093e-05
0.000606321
-1.62936e-05
0.000605083
-1.9161e-05
0.000603323
-2.19181e-05
0.000601057
-2.45668e-05
0.000598305
-2.7107e-05
0.000595081
-2.95376e-05
0.000591402
-3.18565e-05
0.000587281
-3.40594e-05
0.000582731
-3.61397e-05
0.000577763
-3.80885e-05
0.000572389
-3.9895e-05
0.000566621
-4.15493e-05
0.000560473
-4.30457e-05
0.000553959
-4.43889e-05
0.00054709
-4.55996e-05
0.000539877
-4.67193e-05
0.00053232
-4.78107e-05
0.000524412
-4.89542e-05
0.000516131
-5.02377e-05
0.000507442
-5.17392e-05
0.000498299
-5.35074e-05
0.000488647
-5.55407e-05
0.000478434
-5.77727e-05
0.000467615
-6.00684e-05
0.000456165
-6.22325e-05
0.000444083
-6.40314e-05
0.000431397
-6.5222e-05
0.000418169
-6.5583e-05
0.000404491
-6.49407e-05
0.000390489
-6.31878e-05
0.000376319
-6.02926e-05
0.000362159
-5.63023e-05
0.000348203
-5.13391e-05
0.000334645
-4.55917e-05
0.000321667
-3.93008e-05
0.000309424
-3.27394e-05
0.000298034
-2.61894e-05
0.00028757
-1.99193e-05
0.000278057
-1.41451e-05
0.000269496
-9.04254e-06
0.000261803
-4.53979e-06
0.000255025
-6.91761e-07
0.000248626
3.77989e-06
9.44633e-06
0.000223468
2.31975e-05
0.000238065
1.2068e-05
0.000250245
2.18105e-05
0.00026246
2.93075e-05
0.000274839
3.33406e-05
0.000287177
3.72144e-05
0.000299706
4.07001e-05
0.00031253
4.34339e-05
0.000325606
4.56933e-05
0.000338896
4.76424e-05
0.00035238
4.92613e-05
0.000366029
5.05295e-05
0.000379802
5.14436e-05
0.000393646
5.19771e-05
0.000407498
5.20872e-05
0.000421286
5.17526e-05
0.000434366
4.88446e-05
0.00044658
4.52311e-05
0.000457947
4.15846e-05
0.000468477
3.78807e-05
0.000478182
3.41401e-05
0.00048708
3.04172e-05
0.000495193
2.67624e-05
0.000502546
2.32013e-05
0.000509163
1.97382e-05
0.00051507
1.63677e-05
0.000520288
1.30826e-05
0.000524835
9.87443e-06
0.000528734
6.73008e-06
0.000532
3.65052e-06
0.000534651
6.41805e-07
0.000536707
-2.29217e-06
0.000538184
-5.14572e-06
0.000539102
-7.90733e-06
0.000539476
-1.05783e-05
0.000539321
-1.31544e-05
0.000538655
-1.56281e-05
0.000537494
-1.8e-05
0.00053585
-2.02744e-05
0.000533736
-2.24525e-05
0.000531162
-2.45328e-05
0.000528137
-2.65125e-05
0.000524668
-2.83879e-05
0.000520762
-3.01534e-05
0.000516424
-3.18012e-05
0.000511657
-3.33217e-05
0.000506467
-3.47047e-05
0.000500858
-3.59409e-05
0.000494839
-3.70264e-05
0.000488417
-3.7967e-05
0.000481601
-3.87836e-05
0.000474397
-3.95157e-05
0.000466808
-4.02215e-05
0.000458827
-4.09735e-05
0.000450439
-4.18491e-05
0.000441615
-4.29156e-05
0.000432319
-4.42116e-05
0.00042251
-4.57308e-05
0.000412146
-4.74089e-05
0.0004012
-4.91224e-05
0.000389664
-5.06965e-05
0.000377558
-5.19262e-05
0.000364939
-5.26027e-05
0.000351897
-5.25412e-05
0.000338561
-5.1604e-05
0.000325088
-4.97155e-05
0.000311664
-4.68686e-05
0.000298487
-4.31248e-05
0.000285755
-3.86075e-05
0.000273656
-3.34922e-05
0.000262348
-2.79927e-05
0.000251952
-2.23438e-05
0.000242545
-1.6782e-05
0.000234155
-1.15299e-05
0.000226765
-6.75515e-06
0.00022034
-2.61742e-06
0.000214765
1.03579e-06
0.000210101
3.97178e-06
0.000205887
7.99433e-06
1.30248e-05
0.00019856
8.56662e-06
0.000211521
-8.92926e-07
0.000222268
1.1064e-05
0.00023325