/*--------------------------------*- C++ -*----------------------------------*\
| =========                 |                                                 |
| \\      /  F ield         | OpenFOAM: The Open Source CFD Toolbox           |
|  \\    /   O peration     | Version:  v1912                                 |
|   \\  /    A nd           | Website:  www.openfoam.com                      |
|    \\/     M anipulation  |                                                 |
\*---------------------------------------------------------------------------*/
FoamFile
{
    version     2.0;
    format      ascii;
    class       volScalarField;
    location    "20";
    object      epsilon;
}
// * * * * * * * * * * * * * * * * * * * * * * * * * * * * * * * * * * * * * //

dimensions      [0 2 -3 0 0 0 0];


internalField   nonuniform List<scalar> 
12441
(
0.0102455
0.00617996
0.00519769
0.00453172
0.00387993
0.00340001
0.00302649
0.00273997
0.00253079
0.0023388
0.00215844
0.00198705
0.00184217
0.00175454
0.00165469
0.00150959
0.00421867
0.0257357
0.899574
4.24095
26.7183
39.25
0.0100603
0.00469716
0.00379137
0.00318208
0.00261573
0.00219079
0.00188989
0.00167694
0.00151789
0.00139195
0.0012578
0.00105574
0.000955362
0.000873648
0.0007664
0.000655847
0.00106714
0.0297691
1.00404
4.37762
27.4124
40.2318
0.00984464
0.00485294
0.00411887
0.00360167
0.003048
0.00265479
0.00232673
0.00207214
0.00188941
0.00171472
0.00156271
0.00135495
0.00124575
0.00117354
0.00109735
0.000955823
0.00132288
0.0291876
0.39269
3.82467
27.1463
41.3784
0.00962373
0.00347323
0.00279275
0.00234267
0.00194074
0.00160734
0.00141813
0.00128094
0.0011656
0.00108973
0.000985224
0.000767537
0.000707785
0.000650983
0.000576753
0.000475048
0.000701315
0.0251046
0.211924
3.42609
27.3071
42.5504
0.00938503
0.00418517
0.00356205
0.003091
0.00258007
0.00224755
0.00193488
0.00169985
0.00153401
0.00137496
0.00124679
0.0010331
0.000949981
0.000885834
0.000830826
0.000741344
0.000762433
0.0200918
0.162144
3.22518
27.6662
43.6698
0.00918061
0.0026591
0.00215064
0.00183127
0.00155198
0.0012816
0.00116587
0.00107394
0.000983078
0.000931369
0.000841809
0.000621153
0.000573846
0.000521739
0.000478768
0.000444691
0.000694019
0.0196244
0.179874
3.23044
28.1985
44.7472
0.00896445
0.00373072
0.00315951
0.00270096
0.00221579
0.00192978
0.00163218
0.0014185
0.00127056
0.00113045
0.00102046
0.000813998
0.000731958
0.0006674
0.000617859
0.000669623
0.00455787
0.0315091
0.303427
3.52985
29.0401
45.7945
0.00878672
0.00210615
0.00172825
0.00150643
0.00131162
0.001085
0.00101133
0.000942558
0.000864753
0.000822218
0.000740914
0.000541303
0.000483719
0.000465928
0.000529578
0.00281828
0.0560107
0.106862
0.696891
4.28559
30.2629
46.8732
0.00859632
0.0033908
0.00284936
0.00239708
0.00193313
0.00168132
0.00140276
0.00121033
0.00107727
0.00095499
0.000858351
0.00069061
0.00061202
0.000609065
0.00268599
0.0384208
0.367736
0.449174
1.68819
5.75808
32.0654
48.0153
0.00844213
0.00170997
0.0014349
0.00128793
0.00115288
0.000958826
0.000908694
0.000851629
0.000781028
0.000741004
0.000664708
0.000513241
0.000487826
0.00105828
0.0305928
0.239216
1.07958
1.28638
3.64102
8.18765
34.5273
49.2846
0.00827593
0.00312926
0.00260414
0.00215466
0.00171067
0.00148609
0.0012276
0.00105485
0.000934635
0.00082717
0.000740135
0.000602825
0.000619455
0.00879918
0.187333
0.901837
2.78044
3.07279
6.80723
11.7337
37.7668
50.6975
0.00814112
0.00141847
0.00122404
0.00113297
0.00103962
0.000871095
0.000833482
0.000782185
0.000715731
0.000675495
0.000601916
0.000505802
0.0012634
0.0662146
0.657027
2.27927
5.61078
6.10962
11.1497
16.3164
41.7018
52.295
0.00799482
0.00291607
0.00240382
0.00195819
0.00153351
0.00132962
0.00109187
0.000936384
0.000825588
0.000729797
0.000649038
0.000648578
0.00997813
0.331712
1.75997
4.59824
9.6657
10.4799
16.2568
21.6702
46.2718
54.0597
0.00787415
0.0011972
0.001067
0.00101936
0.000955833
0.000807467
0.000775745
0.000726983
0.000662279
0.000620045
0.000547821
0.000937239
0.069259
0.91816
3.46326
7.6772
14.6311
15.9017
21.4869
27.3201
51.2288
56.0037
0.00774529
0.00273966
0.00223763
0.00179556
0.00138965
0.00120371
0.000985419
0.000844649
0.000740102
0.000652186
0.000581475
0.00292614
0.281612
1.96339
5.7345
11.2423
19.9833
21.7349
26.0849
32.8076
56.4231
58.0812
0.00763627
0.00102942
0.000950294
0.000935719
0.00089256
0.000759742
0.00072964
0.000681439
0.000616007
0.00056959
0.000518078
0.0146587
0.66577
3.35298
8.30391
14.9053
25.0767
27.1235
29.4636
37.6787
61.5759
60.2902
0.0075226
0.00258496
0.00209263
0.00165721
0.00127107
0.0010997
0.000900204
0.000771617
0.000669084
0.000584833
0.000544035
0.0666558
1.29738
4.9944
10.8655
18.2724
29.2374
31.2091
31.2786
41.6959
66.5814
62.571
0.00742115
0.000899683
0.000859173
0.0008696
0.000840792
0.000720881
0.000690628
0.00064198
0.000572721
0.000520474
0.000498306
0.197724
2.12141
6.69164
13.152
20.9799
31.9108
33.3794
31.5531
44.705
71.2362
64.9213
0.00732058
0.00245174
0.00196249
0.00153602
0.00116999
0.00101164
0.000829314
0.000710776
0.000605574
0.00052424
0.000575595
0.465262
3.09601
8.22786
14.9282
22.7467
32.77
33.4223
30.5498
46.7654
75.5404
67.2818
0.00722591
0.000795577
0.000783051
0.000812579
0.000794422
0.000685861
0.000654855
0.000605241
0.000529246
0.00047572
0.0016042
0.847855
4.10412
9.45891
16.0732
23.4147
31.7878
31.5708
28.7103
47.9446
79.3876
69.6617
0.00713755
0.00233539
0.00185016
0.00143252
0.00108463
0.000936999
0.000769624
0.000658607
0.000548719
0.000483755
0.0108412
1.34605
5.02947
10.2872
16.519
22.9786
29.2227
28.4059
26.4645
48.4279
82.8689
72.0102
0.00704675
0.000708028
0.000716159
0.000761843
0.000752556
0.000653946
0.00062196
0.000570792
0.000488909
0.000458354
0.0474506
1.90694
5.78125
10.7081
16.3055
21.5797
25.5551
24.6517
24.1756
48.3315
85.9505
74.3523
0.00696917
0.00223475
0.00175584
0.00134498
0.00101223
0.000873862
0.000718664
0.000613151
0.000501635
0.000465158
0.139569
2.47949
6.30873
10.7445
15.5179
19.4723
21.3745
20.9389
22.0636
47.8305
88.7882
76.6493
0.00688256
0.000637418
0.000659819
0.000719122
0.00071653
0.000626373
0.000592488
0.000539147
0.000455197
0.000453398
0.308382
3.01049
6.6072
10.4663
14.3112
16.9657
17.2482
17.6592
20.2448
47.0138
91.4027
78.9445
0.00681588
0.00213943
0.00167111
0.00126766
0.00094962
0.000819135
0.000674543
0.000573113
0.0004648
0.000489874
0.550611
3.45533
6.70067
9.94495
12.8455
14.3644
13.5931
14.9612
18.7434
46.017
93.9987
81.212
0.00673008
0.000583437
0.000613264
0.000683008
0.000685116
0.000602217
0.000565684
0.000510126
0.000427965
0.000601511
0.848842
3.79297
6.63124
9.2673
11.29
11.9142
10.613
12.8315
17.546
44.9016
96.642
83.5114
0.00667241
0.00205089
0.00159681
0.00120055
0.000895627
0.000771574
0.000635482
0.000537565
0.000439592
0.00163394
1.16818
4.01929
6.44334
8.5066
9.77482
9.77271
8.32302
11.1846
16.6127
43.7717
99.5768
85.8273
0.00658851
0.000540259
0.000572339
0.000651154
0.00065706
0.000580488
0.000540593
0.000483389
0.000422251
0.00600253
1.48106
4.1475
6.17972
7.73185
8.39792
8.00636
6.62915
9.92042
15.9047
42.6662
102.899
88.2307
0.00654025
0.00196913
0.00153247
0.00114237
0.000849089
0.000729567
0.000600357
0.000505814
0.000450217
0.0177084
1.76544
4.19645
5.87567
6.99093
7.20829
6.61158
5.40267
8.95081
15.3815
41.6573
106.866
90.7106
0.00645601
0.000504289
0.000534865
0.000622135
0.000631624
0.000560473
0.000516814
0.000458869
0.000428726
0.0409057
2.01438
4.18815
5.56004
6.31972
6.22455
5.54454
4.52423
8.20621
15.0118
40.7569
111.568
93.3406
0.00641512
0.00189432
0.00147702
0.00109195
0.000808427
0.000692228
0.000568273
0.000477403
0.000448376
0.0847556
2.22507
4.14175
5.25389
5.73576
5.43734
4.74735
3.89945
7.6349
14.7668
40.0025
117.232
96.1058
0.00633243
0.000473382
0.000498682
0.000594538
0.000607793
0.000541287
0.000493938
0.000436102
0.000427008
0.155761
2.40156
4.07395
4.97248
5.24782
4.82736
4.16405
3.45966
7.19932
14.6258
39.3794
123.89
99.0732
0.00630006
0.00182447
0.00142932
0.00104756
0.000772491
0.00065906
0.00053928
0.000451972
0.000454032
0.259738
2.54788
3.99725
4.7253
4.85442
4.36896
3.74809
3.15718
6.87271
14.5697
38.9
131.695
102.217
0.00621534
0.000449469
0.000466153
0.000570214
0.000586689
0.000524323
0.000473471
0.000416255
0.000454366
0.397319
2.67065
3.92138
4.51795
4.55129
4.03928
3.46387
2.96
6.63618
14.5855
38.5394
140.58
105.592
0.00618974
0.00175705
0.00138566
0.00100759
0.000740377
0.000629825
0.000513915
0.000430335
0.000512455
0.56667
2.77515
3.85274
4.35234
4.33029
3.81766
3.28589
2.84735
6.47669
14.6605
38.3086
150.608
109.157
0.00610249
0.000431769
0.000435144
0.000547373
0.000567142
0.000508759
0.000455552
0.000399636
0.000655482
0.765357
2.86743
3.79559
4.22808
4.184
3.68875
3.1967
2.80638
6.38549
14.7872
38.1984
161.623
112.957
0.00608018
0.001687
0.00134283
0.000968133
0.000709436
0.000601651
0.000490651
0.000412716
0.00444938
0.992535
2.95146
3.75161
4.1424
4.10366
3.6399
3.18504
2.8298
6.35701
14.9584
38.244
173.623
116.938
0.00598791
0.000470374
0.000453222
0.00055772
0.000565233
0.000507806
0.000447214
0.000404629
0.045814
1.24987
3.03026
3.72079
4.09101
4.08177
3.66214
3.24385
2.91414
6.38815
15.1727
38.4672
186.401
121.137
0.00596074
0.000899678
0.000673666
0.000545051
0.000495436
0.000436273
0.000398558
0.000383268
0.179807
1.53399
3.10346
3.70106
4.06777
4.10957
3.74713
3.36865
3.05824
6.47758
15.4299
38.9259
199.958
125.495
0.00585561
0.00196808
0.00173675
0.00121415
0.000788374
0.000648056
0.00048403
0.00044844
0.408067
1.83202
3.16865
3.6891
4.06531
4.17869
3.88757
3.55578
3.26185
6.62522
15.7371
39.6436
214.084
130.045
0.0058148
1.30228e-05
5.49934e-06
0.000233082
0.000427949
0.00038792
0.000385168
0.000611748
0.711185
2.1269
3.22074
3.68036
4.07483
4.27863
4.07421
3.80072
3.52413
6.83142
16.1038
40.6436
228.776
134.727
0.00569167
0.00202054
0.00173472
0.00107197
0.00067685
0.000541196
0.000423325
0.00417136
1.06377
2.40541
3.25503
3.67022
4.08703
4.39869
4.29658
4.09635
3.842
7.09588
16.5483
41.8729
243.624
139.588
0.00560921
3.59465e-06
1.26463e-09
0.000354524
0.000474285
0.000435546
0.000410314
0.0268172
1.4458
2.65875
3.26767
3.65421
4.0922
4.52536
4.53996
4.43135
4.20836
7.41544
17.0934
43.256
257.956
144.654
0.00524466
0.00130023
0.00108585
0.00071152
0.000526215
0.00044681
0.000403184
0.0896015
1.83636
2.88243
3.25885
3.62944
4.08158
4.6454
4.78737
4.78897
4.61063
7.78058
17.7801
44.6662
269.573
150.447
95.0235
119.112
58.0319
13.5065
25.3006
22.5094
21.4395
21.9791
23.1619
25.8329
38.4017
40.6591
40.8715
44.9802
55.969
71.9668
89.4021
101.382
94.9091
65.7826
36.7549
21.6805
14.2243
10.3947
8.45738
7.69852
7.18897
6.71075
6.45511
6.68016
7.26019
7.58731
7.37701
6.30892
5.21934
94.6475
120.454
55.6313
12.869
24.3284
21.5729
20.902
21.4275
22.4664
24.9942
36.0848
38.2232
38.4924
42.3329
52.6608
68.1785
86.2907
100.517
96.2657
66.7234
36.678
21.4895
14.1086
10.3186
8.39742
7.64542
7.14375
6.6749
6.42728
6.66031
7.24327
7.56981
7.36088
6.29537
5.2094
93.9266
121.214
51.6383
11.7536
22.9831
20.1463
20.0376
20.52
21.3868
23.6951
31.9976
33.5462
34.1302
37.7765
46.2795
58.8803
74.6213
89.0167
88.7982
63.6006
35.56
20.9735
13.8474
10.1598
8.27652
7.53978
7.05425
6.60391
6.37217
6.62078
7.20933
7.53475
7.32854
6.26819
5.1895
92.8104
121.77
46.7989
10.5515
21.525
18.5774
18.9906
19.2868
20.0855
22.1489
27.6791
28.4772
29.1228
32.8058
40.0091
49.5691
61.6565
74.2328
77.1071
57.9698
33.6517
20.1824
13.4569
9.92553
8.10053
7.38705
6.92502
6.50108
6.29205
6.56284
7.15915
7.48269
7.28034
6.22761
5.15977
91.3035
121.731
41.5733
9.38956
19.9031
16.9119
17.7444
17.7938
18.6024
20.3925
23.6504
23.7311
24.246
28.038
34.5798
41.929
50.5497
60.3064
64.5642
51.2243
31.2355
19.1783
12.9578
9.62586
7.87716
7.19425
6.76184
6.37065
6.18985
6.48819
7.09378
7.41437
7.21683
6.17393
5.12041
89.3553
120.782
36.2486
8.29372
18.121
15.1632
16.318
16.1366
16.984
18.4724
20.0041
19.4946
19.7971
23.5664
29.7863
35.8938
42.0057
48.9774
53.2288
44.4472
28.5833
18.0295
12.3745
9.27281
7.6155
6.96947
6.57136
6.21753
6.06903
6.39884
7.01451
7.33077
7.13868
6.1076
5.0717
87.0012
118.694
31.0345
7.27806
16.2715
13.3929
14.7758
14.4199
15.3032
16.4729
16.7453
15.8039
15.8781
19.3947
25.3314
30.9153
35.6181
40.4712
44.0028
38.3205
25.9169
16.8027
11.7329
8.87977
7.32538
6.7213
6.36064
6.04695
5.93331
6.29702
6.92282
7.23298
7.04673
6.02913
5.01399
84.2135
115.319
26.0921
6.36186
14.4717
11.6839
13.2009
12.734
13.6375
14.4904
13.8793
12.6723
12.5362
15.5934
21.1312
26.5738
30.7299
34.2907
36.963
33.1444
23.3892
15.5568
11.0585
8.46043
7.0167
6.45828
6.1367
5.86422
5.78652
6.18509
6.82027
7.12224
6.9419
5.93915
4.94768
81.0699
110.589
21.5404
5.56253
12.811
10.1067
11.6698
11.1442
12.0503
12.6079
11.4178
10.098
9.7879
12.2725
17.2739
22.7003
26.8305
29.7832
31.7603
28.9456
21.0874
14.3392
10.3747
8.028
6.69891
6.18842
5.90616
5.67441
5.63237
6.0654
6.70849
6.99986
6.82522
5.83835
4.87324
77.574
104.515
17.4608
4.88897
11.3415
8.70987
10.243
9.69334
10.5861
10.8844
9.35714
8.04537
7.60769
9.50795
13.8819
19.2695
23.6143
26.4093
27.9355
25.6051
19.0472
13.1846
9.70139
7.59445
6.38049
5.91886
5.67496
5.48213
5.47435
5.94021
6.58909
6.8672
6.69776
5.7275
4.79117
73.8369
97.1953
13.9055
4.34175
10.0875
7.523
8.96689
8.40962
9.27448
9.35698
7.67642
6.45241
5.93363
7.31195
11.0348
16.3005
20.9204
23.8033
25.0877
22.9598
17.271
12.1159
9.05449
7.16997
6.06869
5.65561
5.44812
5.2914
5.31553
5.8116
6.4636
6.72558
6.56063
5.60743
4.70201
69.8857
88.804
10.9066
3.91661
9.06086
6.56326
7.87829
7.31414
8.13663
8.04651
6.34137
5.24397
4.68293
5.63663
8.74333
13.7978
18.66
21.7372
22.9225
20.8559
15.743
11.1455
8.44564
6.76275
5.76934
5.40345
5.22972
5.10556
5.15855
5.68143
6.33342
6.57632
6.41494
5.47899
4.60634
65.8489
79.591
8.47841
3.60877
8.27081
5.83975
7.00623
6.42458
7.19039
6.96474
5.31326
4.3478
3.7705
4.40019
6.96405
11.7415
16.7766
20.0729
21.2424
19.1706
14.4395
10.2783
7.8825
6.37888
5.48681
5.16595
5.02281
4.9272
5.00557
5.55126
6.19981
6.42063
6.26179
5.34308
4.50476
61.7626
69.8617
6.61222
3.41597
7.72798
5.35701
6.37274
5.75598
6.45234
6.11838
4.55534
3.70273
3.12119
3.5119
5.62234
10.0895
15.2247
18.7244
19.9198
17.8122
13.3347
9.51329
7.36932
6.02246
5.22411
4.94551
4.82954
4.75825
4.85822
5.42235
6.06385
6.25965
6.10223
5.20059
4.39785
57.7502
59.9481
5.27142
3.33957
7.44557
5.11983
5.99455
5.32088
5.93811
5.51212
4.03861
3.26368
2.67627
2.89024
4.63624
8.79033
13.9645
17.6355
18.8731
16.715
12.4041
8.84591
6.90758
5.69588
4.98303
4.74357
4.6512
4.59996
4.7177
5.2957
5.92642
6.09444
5.93726
5.05243
4.28624
53.8399
50.1896
4.39479
3.387
7.44221
5.14068
5.88901
5.13315
5.66431
5.15187
3.74572
3.00291
2.3952
2.47095
3.93086
7.7916
12.96
16.7666
18.0489
15.8322
11.6258
8.26936
6.49673
5.40008
4.76438
4.56069
4.4884
4.45302
4.58475
5.17197
5.78825
5.92592
5.76784
4.89949
4.1705
50.1273
40.9369
3.91721
3.57305
7.74615
5.44823
6.08304
5.2155
5.65384
5.05086
3.67612
2.91189
2.25635
2.20945
3.44613
7.04707
12.1807
16.0895
17.4116
15.1305
10.9809
7.77602
6.13482
5.13493
4.56816
4.39679
4.34115
4.31766
4.45977
5.05161
5.64984
5.7549
5.59484
4.74261
4.05124
46.6135
32.5375
3.7958
3.92229
8.40141
6.096
6.62364
5.61015
5.94498
5.23873
3.85316
3.00437
2.25834
2.08072
3.13915
6.51978
11.602
15.5828
16.9368
14.5858
10.4535
7.35807
5.81906
4.89949
4.39377
4.2513
4.20904
4.1937
4.34282
4.93481
5.51158
5.5821
5.41908
4.58265
3.92902
43.349
25.2962
4.02997
4.4738
9.47515
7.17115
7.5883
6.39059
6.6029
5.77359
4.33524
3.32423
2.42497
2.08048
2.98512
6.1847
11.207
15.2328
16.6075
14.1813
10.0309
7.00825
5.54624
4.69233
4.24024
4.12329
4.09129
4.08066
4.23372
4.82155
5.37367
5.40812
5.24129
4.42038
3.80441
40.3033
19.4725
4.66983
5.28936
11.0688
8.80502
9.09648
7.67416
7.73281
6.75592
5.23085
3.95919
2.81612
2.23
2.97916
6.03074
10.9887
15.0329
16.4131
13.905
9.70317
6.71998
5.31306
4.51172
4.10631
4.01157
3.98692
3.97783
4.13208
4.71168
5.23622
5.23346
5.06215
4.25656
3.67792
37.4893
15.0753
5.82778
6.46701
13.3351
11.1885
11.3239
9.63535
9.49385
8.34311
6.71636
5.0623
3.54839
2.58855
3.14209
6.06563
10.9538
14.9872
16.3495
13.7494
9.46288
6.48778
5.11638
4.3558
3.99058
3.91484
3.89476
3.88431
4.03737
4.60488
5.09922
5.05854
4.88226
4.09186
3.55005
34.8769
11.9298
7.67542
8.16108
16.5025
14.5953
14.5217
12.5198
12.1124
10.761
9.04896
6.87651
4.82666
3.27846
3.53295
6.32419
11.1301
15.1159
16.4219
13.7112
9.30528
6.3072
4.95335
4.22274
3.89162
3.83171
3.81353
3.79911
3.94892
4.50074
4.96257
4.88366
4.70214
3.9269
3.42128
32.4767
9.77836
10.4223
10.609
20.9048
19.4102
19.0386
16.6566
15.8904
14.3067
12.5625
9.74886
6.97821
4.52914
4.27351
6.88283
11.5772
15.4636
16.6502
13.792
9.22811
6.17498
4.8215
4.11078
3.80799
3.76074
3.74192
3.72112
3.86602
4.39876
4.8261
4.70907
4.52226
3.76224
3.29205
30.2708
8.38585
14.2774
14.163
27.0087
26.1525
25.3354
22.4608
21.2015
19.3326
17.6318
14.1078
10.4579
6.73416
5.59065
7.88107
12.399
16.1083
17.0762
14.0001
9.23172
6.089
4.71879
4.01832
3.73831
3.70053
3.67855
3.64919
3.78788
4.2984
4.6896
4.53488
4.34303
3.59836
3.16274
28.2673
7.56712
19.4077
19.3226
35.4291
35.4683
33.9704
30.4093
28.4604
26.2045
24.6046
20.3855
15.7773
10.4759
7.87583
9.55225
13.7579
17.1694
17.7725
14.355
9.3195
6.04838
4.64366
3.9439
3.68126
3.64967
3.62202
3.58214
3.71368
4.19904
4.5528
4.36118
4.16478
3.43567
3.03375
26.4614
7.20495
25.9368
26.7616
46.9175
48.0698
45.5313
40.9721
38.0534
35.2275
33.7122
28.8954
23.3468
16.4177
11.7241
12.2555
15.8852
18.8095
18.8469
14.892
9.49861
6.05348
4.59499
3.88623
3.63559
3.60678
3.57094
3.51876
3.64261
4.10006
4.41543
4.18792
3.9878
3.2745
2.90539
24.8623
7.24309
34.0135
37.3452
62.311
64.6036
60.5
54.4907
50.2282
46.5492
44.9837
39.7145
33.304
25.022
17.8461
16.4788
19.0803
21.2287
20.4412
15.6689
9.78147
6.10608
4.5721
3.84416
3.60009
3.57048
3.52387
3.45781
3.57384
4.00082
4.27717
4.01502
3.81231
3.11511
2.77796
23.4808
7.68811
43.9351
52.1195
82.4211
85.4602
79.0649
71.0224
64.9629
60.0557
58.1769
52.6059
45.4183
36.2658
26.7495
22.7416
23.6719
24.64
22.7181
16.7696
10.1875
6.20948
4.57472
3.81663
3.57362
3.5394
3.47936
3.39803
3.50654
3.90066
4.13773
3.84233
3.63852
2.95771
2.65175
22.3333
8.60835
56.2452
72.2203
107.83
110.546
100.924
90.1892
81.8481
75.2916
72.7419
66.9998
59.0937
49.5751
38.3383
31.3467
29.9141
29.2173
25.8313
18.3023
10.7449
6.36887
4.60299
3.80262
3.55499
3.51212
3.43592
3.33817
3.4399
3.79893
3.99679
3.66964
3.46655
2.80244
2.52698
21.4546
10.1534
71.7323
98.5994
138.563
139.056
125.136
111.079
100.023
91.425
87.8172
82.0139
73.4295
63.9495
51.7842
42.0729
37.8135
35.0044
29.8737
20.3855
11.4923
6.59128
4.65722
3.801
3.54297
3.48715
3.39201
3.27695
3.37312
3.69501
3.85406
3.49675
3.29655
2.64941
2.40388
20.8892
12.5788
91.2548
131.485
173.676
169.315
150.074
132.238
118.198
107.288
102.287
96.5316
87.3222
78.1539
65.7653
54.0671
46.9787
41.8174
34.806
23.1181
12.4761
6.88557
4.73776
3.8104
3.53614
3.46287
3.34599
3.21305
3.30539
3.58829
3.70928
3.32344
3.12862
2.49872
2.28264
20.7351
16.303
115.391
169.704
210.936
198.813
173.562
151.809
134.786
121.504
114.904
109.32
99.5974
90.8995
78.8234
66.051
56.6136
49.1919
40.3932
26.5278
13.7445
7.26132
4.84452
3.82894
3.53284
3.43746
3.29615
3.14517
3.23592
3.4782
3.56224
3.14956
2.96285
2.35046
2.16343
21.1259
21.9809
143.981
210.284
246.897
224.539
193.197
167.814
148.148
132.707
124.489
119.222
109.182
101.048
89.6729
76.7028
65.7065
56.4437
46.1924
30.5132
15.3327
7.72687
4.97629
3.8539
3.53101
3.40889
3.24068
3.07202
3.16393
3.36422
3.41278
2.97506
2.79938
2.20475
2.04644
22.2957
30.6301
175.889
248.877
277.538
243.609
206.846
178.546
156.909
139.804
130.153
125.347
115.273
107.772
97.3939
84.9705
73.2969
62.8218
51.6232
34.8043
17.2393
8.28535
5.12988
3.88149
3.52809
3.37484
3.1777
2.99234
3.08866
3.24594
3.26084
2.80005
2.63833
2.06177
1.93181
24.5223
43.7444
209.221
280.985
299.286
253.952
213.112
182.944
160.247
142.196
131.481
127.253
117.482
110.698
101.542
90.2429
78.6967
67.6918
56.1011
38.9834
19.3997
8.92937
5.29905
3.90658
3.521
3.33278
3.1054
2.905
3.00937
3.12307
3.10647
2.62483
2.47992
1.92176
1.81972
28.1637
63.3739
241.981
303.346
309.956
254.775
211.628
180.802
158.048
139.879
128.589
125.003
115.88
109.905
102.133
92.3564
81.5736
70.6548
59.1745
42.5692
21.6661
9.63439
5.47361
3.92272
3.50614
3.2801
3.02211
2.8091
2.92542
2.99547
2.94991
2.44997
2.32442
1.78507
1.71035
33.4954
91.8616
272.568
314.611
309.123
246.614
203.04
172.733
150.866
133.394
122.061
119.124
110.949
105.878
99.5656
91.5276
81.9425
71.5931
60.6093
45.1394
23.8134
10.3541
5.63896
3.92252
3.47968
3.21432
2.92653
2.70407
2.83631
2.86327
2.79157
2.2763
2.17219
1.65213
1.60393
40.701
131.236
299.887
315.113
297.869
231.01
188.73
159.938
139.719
123.636
112.763
110.435
103.436
99.3381
94.4701
88.2193
80.0748
70.6317
60.4025
46.4242
25.5764
11.0199
5.77661
3.89834
3.43781
3.13337
2.81794
2.58982
2.74173
2.72683
2.6321
2.10491
2.02369
1.52348
1.50069
49.6321
182.083
323.081
306.135
278.123
209.974
170.404
143.858
125.818
111.631
101.641
99.8643
94.1808
91.0916
87.5707
83.0253
76.406
68.0719
58.7393
46.3511
26.7117
11.5489
5.86601
3.84334
3.37728
3.03595
2.69638
2.4668
2.64163
2.58684
2.47238
1.9371
1.87949
1.39971
1.40091
59.8743
243.172
341.415
289.23
251.952
185.446
149.674
125.851
110.295
98.3057
89.5245
88.2517
83.9404
81.8566
79.5458
76.5473
71.4244
64.2952
55.9188
45.0201
27.0549
11.8585
5.88751
3.75264
3.29586
2.92179
2.56281
2.33611
2.53629
2.4443
2.31354
1.77431
1.74024
1.28146
1.30491
70.5911
311.234
354.396
265.948
221.078
158.867
127.716
106.93
94.0014
84.3418
77.0083
76.2382
73.2929
72.196
70.9668
69.3299
65.6021
59.6942
52.2811
42.6567
26.554
11.8851
5.82608
3.62426
3.19276
2.79181
2.41908
2.19943
2.42633
2.30049
2.15685
1.61802
1.60662
1.16936
1.21303
80.9187
381.043
361.784
237.758
186.706
131.003
105.129
87.6629
77.4224
70.1218
64.4215
64.2186
62.6039
62.4792
62.2577
61.809
59.3341
54.6119
48.1481
39.5446
25.2678
11.5981
5.67429
3.45971
3.06884
2.64815
2.26787
2.05892
2.31267
2.1569
2.00372
1.46964
1.47932
1.06398
1.12557
89.3733
442.568
362.809
206.14
149.847
102.153
82.0408
68.2489
60.7443
55.8098
51.9035
52.402
52.0794
52.9399
53.7183
54.3066
52.9265
49.3223
43.7913
35.9771
23.3423
11.0069
5.43411
3.26381
2.92657
2.49395
2.11239
1.91707
2.19655
2.01515
1.85556
1.33035
1.35898
0.965784
1.04287
95.1437
482.443
354.704
172.133
111.582
72.6535
58.5536
48.8655
44.133
41.5723
39.5754
40.9306
41.8646
43.7434
45.5457
47.0395
46.6022
44.0294
39.4227
32.216
20.973
10.1566
5.11631
3.04404
2.76977
2.33308
1.95609
1.77644
2.07937
1.87684
1.71366
1.20108
1.24611
0.875071
0.965163
0.00337074
0.000648482
0.000552416
0.00056169
0.000467739
0.000373219
0.00036862
0.209169
2.10733
3.00943
3.22899
3.59886
4.05309
4.71958
4.96552
5.06794
4.94002
8.07975
18.4384
45.6922
273.046
158.396
0.00333763
5.92007e-05
2.27374e-06
0.000252598
0.000341763
0.000282384
0.000313119
0.307931
2.21473
3.0417
3.18629
3.56229
4.01207
4.74305
5.06462
5.24645
5.17257
8.28135
18.9285
46.2664
273.61
167.018
0.00353407
0.000655631
0.000447604
0.000305375
0.000292807
0.000236201
0.000281439
0.399501
2.25369
3.0272
3.12651
3.51046
3.94945
4.73219
5.12733
5.39262
5.39151
8.46437
19.4168
46.6142
272.096
175.296
0.0036643
6.34874e-05
3.51735e-07
0.000120805
0.000202784
0.000172585
0.000316197
0.483257
2.24095
2.97636
3.05416
3.44424
3.8665
4.68527
5.14734
5.49408
5.58306
8.62179
19.8877
46.7195
268.836
183.279
0.00391669
0.000765666
0.000514787
0.00027545
0.000203585
0.000159447
0.000976532
0.547281
2.19264
2.89848
2.97283
3.3652
3.76568
4.60255
5.12067
5.54162
5.73433
8.74629
20.3211
46.602
264.296
191.413
0.00405402
7.31114e-05
2.07165e-07
9.89841e-05
0.000142646
0.000121477
0.00136462
0.575875
2.12253
2.80231
2.886
3.27573
3.65062
4.4878
5.04817
5.53034
5.83488
8.8312
20.7001
46.2699
258.628
200.002
0.00433513
0.000893611
0.000595705
0.000307284
0.000179452
0.000131944
0.00146386
0.563962
2.04216
2.69537
2.79648
3.1786
3.52555
4.34611
4.93321
5.46033
5.87778
8.87089
21.0041
45.7603
252.156
209.135
0.0044727
8.5997e-05
1.5741e-07
0.000108773
0.000130103
0.000105781
0.000938927
0.521937
1.96048
2.58451
2.70718
3.07709
3.39513
4.18495
4.78334
5.33636
5.86052
8.86121
21.2191
45.0896
244.947
218.927
0.00477931
0.00103518
0.000687867
0.000362071
0.000192354
0.000135054
0.00066433
0.464736
1.8841
2.4754
2.6205
2.97441
3.26391
4.0116
4.60701
5.16721
5.7851
8.79998
21.3291
44.299
237.271
229.376
0.00490321
0.000102313
1.45858e-07
0.000128777
0.000143721
0.000115043
0.000521666
0.40333
1.817
2.37308
2.53903
2.87391
3.13625
3.83419
4.41474
4.96429
5.65779
8.68723
21.3273
43.4038
229.133
240.542
0.00522535
0.00118722
0.000788956
0.000428371
0.000226503
0.00016106
0.000435512
0.343012
1.761
2.28154
2.46504
2.77862
3.01595
3.65936
4.2159
4.74029
5.48811
8.52542
21.2058
42.4424
220.753
252.336
0.00533425
0.000123131
1.51927e-07
0.00015332
0.000172515
0.000143478
0.00041233
0.285841
1.71555
2.20423
2.40104
2.69147
2.90629
3.49356
4.02004
4.50773
5.28777
8.3193
20.967
41.4238
212.092
264.714
0.00566886
0.00134538
0.000897329
0.000503238
0.000274716
0.000203775
0.000401245
0.232528
1.67809
2.14357
2.34933
2.61507
2.8099
3.34128
3.83433
4.278
5.06923
8.07575
20.6123
40.3807
203.339
277.446
0.00575178
0.000150853
1.88672e-07
0.000180649
0.000211092
0.000185558
0.000335204
0.183068
1.64376
2.10117
2.31259
2.55204
2.72898
3.20652
3.66523
4.06059
4.84469
7.80322
20.1529
39.3145
194.436
290.354
0.00608974
0.0015026
0.00100752
0.000583178
0.000332361
0.000257223
0.000331014
0.139544
1.60574
2.07706
2.29328
2.5049
2.66527
3.09153
3.51677
3.8629
4.62501
7.51133
19.5982
38.2514
185.556
303.065
0.00614829
0.000189436
2.74162e-07
0.000209344
0.000255715
0.000233398
0.000282802
0.101138
1.55543
2.06948
2.29408
2.47655
2.62048
2.99835
3.39232
3.69019
4.41931
7.21001
18.9661
37.1862
176.635
315.294
0.00648537
0.00165395
0.00111685
0.00066659
0.000396675
0.000315534
0.000297825
0.0705238
1.48391
2.07365
2.31697
2.47019
2.59637
2.92786
3.29337
3.54591
4.23459
6.90907
18.2709
36.1392
167.837
326.588
0.00651515
0.000240209
4.61613e-07
0.000237906
0.000303645
0.000283466
0.00028166
0.0457327
1.3835
2.08145
2.3631
2.48979
2.59529
2.88126
3.22127
3.43201
4.07596
6.61741
17.5338
35.0997
159.1
336.639
0.00683861
0.00179883
0.00122385
0.00075158
0.000464975
0.000377464
0.000326468
0.0288149
1.25051
2.08071
2.43091
2.5397
2.62042
2.85937
3.17627
3.34946
3.94673
6.34282
16.7703
34.0834
150.577
345.01
0.00685092
0.000301816
7.93843e-07
0.000265231
0.000352415
0.00033547
0.000321022
0.0164592
1.08682
2.05656
2.5152
2.62452
2.67633
2.86413
3.1591
3.29852
3.84889
6.09154
16.0007
33.0759
142.206
351.458
0.00716069
0.00193863
0.00133095
0.00083935
0.000536392
0.000442776
0.000380821
0.00961322
0.900829
1.99339
2.60443
2.74755
2.76913
2.89806
3.17021
3.27925
3.78347
5.86834
15.2384
32.0895
134.127
355.648
0.00715475
0.00037627
1.4486e-06
0.000291759
0.000401349
0.000388899
0.00037292
0.00486202
0.706318
1.87935
2.68048
2.9088
2.90658
2.96584
3.21131
3.29179
3.75098
5.67658
14.4994
31.1084
126.276
357.474
0.00744811
0.00207183
0.00143477
0.000927844
0.000609472
0.000510574
0.000440054
0.00254136
0.519256
1.70976
2.71859
3.10099
3.097
3.07376
3.28477
3.33677
3.7518
5.51849
13.793
30.1433
118.778
356.748
0.00742933
0.00046433
2.66974e-06
0.000316457
0.000448879
0.000442086
0.000424818
0.00134229
0.355139
1.49063
2.69288
3.30574
3.34711
3.23116
3.39532
3.41562
3.78661
5.39548
13.1298
29.1788
111.566
353.521
0.00770661
0.00219861
0.00153638
0.00101756
0.000683855
0.0005793
0.00049856
0.000850694
0.223158
1.23745
2.58214
3.48999
3.65704
3.4487
3.54945
3.53109
3.85678
5.30862
12.5142
28.2257
104.743
347.762
0.00767616
0.000567856
5.1068e-06
0.000339931
0.000495018
0.000494394
0.00047741
0.000620943
0.12777
0.972874
2.37929
3.60879
4.0135
3.7378
3.75709
3.68767
3.96486
5.25906
11.9522
27.2711
98.2389
339.662
0.00793656
0.00231834
0.00163253
0.00110629
0.000758582
0.000648901
0.000562019
0.000576313
0.0644427
0.720116
2.09324
3.61409
4.38102
4.10449
4.02998
3.89222
4.11502
5.24857
11.4448
26.3268
92.1382
329.315
0.00789952
0.00068726
9.63189e-06
0.000361609
0.000538959
0.0005455
0.000534085
0.000537129
0.0284955
0.499025
1.75009
3.47206
4.69861
4.54286
4.38134
4.15415
4.31374
5.28006
10.9957
25.3828
86.3668
317.01
0.00814516
0.00243192
0.00172515
0.00119513
0.000834177
0.000719003
0.00063016
0.000584651
0.0100665
0.32077
1.38344
3.17609
4.88639
5.02194
4.81941
4.48518
4.57018
5.35819
10.605
24.4529
80.9871
302.926
0.0081039
0.000825026
1.84505e-05
0.000383446
0.000581957
0.000596131
0.00059188
0.00057682
0.00318673
0.189802
1.02958
2.75323
4.86946
5.47844
5.34045
4.8972
4.89659
5.49006
10.2765
23.5304
75.9222
287.406
0.00833487
0.00254032
0.00181117
0.00128233
0.000910387
0.000790495
0.000700165
0.000646378
0.0011056
0.101288
0.716107
2.25371
4.60661
5.81562
5.91365
5.39741
5.3074
5.68574
10.0123
22.6313
71.2141
270.672
0.00829369
0.000979491
3.39953e-05
0.000406272
0.000624109
0.000646616
0.000649153
0.000636187
0.000698516
0.0484654
0.462253
1.73741
4.11218
5.92889
6.47135
5.9792
5.8168
5.95842
9.81953
21.7535
66.7829
253.081
0.00851118
0.00264709
0.00189438
0.00137043
0.000988603
0.000863555
0.000770536
0.000715092
0.00070613
0.0207147
0.273249
1.25634
3.45114
5.73999
6.90453
6.60989
6.43257
6.32369
9.70442
20.9158
62.6536
234.872
0.00847252
0.00115168
6.13114e-05
0.000434667
0.000668359
0.000698835
0.000706185
0.000697161
0.000689668
0.00816778
0.14655
0.847599
2.71724
5.23793
7.08757
7.2192
7.14625
6.79705
9.67854
20.1212
58.7489
216.392
0.00867727
0.00275293
0.00197131
0.00145806
0.00106932
0.000939866
0.000841478
0.000784651
0.000756002
0.00326362
0.0701786
0.529122
2.00218
4.4819
6.91686
7.69899
7.91933
7.38847
9.75175
19.3922
55.0855
197.875
0.00864349
0.00134043
0.000104555
0.000471466
0.000716368
0.000754352
0.000764058
0.000757921
0.000731994
0.00153479
0.0303985
0.302448
1.3747
3.58657
6.3615
7.92214
8.67199
8.09347
9.93577
18.7357
51.5988
179.635
0.00883756
0.00286119
0.00204662
0.00154858
0.0011551
0.00102064
0.000915582
0.000855373
0.000808449
0.00101902
0.0121762
0.157083
0.87494
2.67606
5.47755
7.78263
9.28203