/*--------------------------------*- C++ -*----------------------------------*\
| =========                 |                                                 |
| \\      /  F ield         | OpenFOAM: The Open Source CFD Toolbox           |
|  \\    /   O peration     | Version:  v1912                                 |
|   \\  /    A nd           | Website:  www.openfoam.com                      |
|    \\/     M anipulation  |                                                 |
\*---------------------------------------------------------------------------*/
FoamFile
{
    version     2.0;
    format      ascii;
    class       volScalarField;
    location    "20";
    object      nut;
}
// * * * * * * * * * * * * * * * * * * * * * * * * * * * * * * * * * * * * * //

dimensions      [0 2 -1 0 0 0 0];


internalField   nonuniform List<scalar> 
12441
(
5.8508e-24
2.63212e-20
1.29844e-19
5.65211e-19
1.97791e-18
7.71815e-18
2.13106e-17
5.54029e-17
1.40798e-16
3.04076e-16
7.61738e-16
2.02198e-15
5.97313e-15
2.07448e-14
3.00563e-13
5.89009e-11
0.000224379
0.000740425
0.000924888
0.00187731
0.00285996
0.00775321
6.37879e-24
5.76051e-20
2.41172e-19
1.00942e-18
3.52023e-18
1.45889e-17
4.06074e-17
1.07156e-16
2.77801e-16
6.10926e-16
1.60439e-15
5.01712e-15
1.47618e-14
5.21763e-14
7.00372e-13
2.76284e-10
0.000259897
0.000766169
0.000893696
0.00197511
0.00310713
0.00781733
6.39835e-24
6.44764e-20
2.34584e-19
9.2182e-19
3.12666e-18
1.20235e-17
3.42168e-17
9.06537e-17
2.39094e-16
5.40403e-16
1.39271e-15
4.16223e-15
1.09346e-14
3.11707e-14
2.27401e-13
3.14019e-11
3.8991e-05
0.000519916
0.000771883
0.00211115
0.00331558
0.0078909
6.35159e-24
9.23872e-20
3.31676e-19
1.3265e-18
4.61618e-18
1.86461e-17
5.31194e-17
1.40202e-16
3.69559e-16
8.41131e-16
2.19222e-15
7.42835e-15
1.7671e-14
6.08839e-14
3.05241e-13
1.45567e-11
1.04352e-05
0.000369467
0.000878555
0.00227254
0.00349895
0.0079647
6.3145e-24
8.69104e-20
2.77213e-19
1.04507e-18
3.57866e-18
1.31682e-17
3.96726e-17
1.07751e-16
2.93862e-16
7.01607e-16
1.81026e-15
5.99284e-15
1.48566e-14
2.0991e-13
1.32929e-12
1.35859e-11
7.97351e-07
0.000284663
0.00100397
0.00240805
0.00364913
0.00803394
6.26368e-24
1.25755e-19
4.16676e-19
1.61395e-18
5.5641e-18
2.18199e-17
6.26549e-17
1.64594e-16
4.40581e-16
1.03997e-15
2.75161e-15
1.0962e-14
3.61077e-14
1.13776e-11
1.08647e-10
4.92626e-10
2.82735e-06
0.000270984
0.00108306
0.00254442
0.00378409
0.00809948
6.2262e-24
1.06376e-19
3.16069e-19
1.18248e-18
4.13136e-18
1.46476e-17
4.65172e-17
1.29235e-16
3.63756e-16
9.15719e-16
2.41843e-15
1.12956e-14
1.52544e-13
2.71017e-10
4.54827e-09
5.8797e-08
2.48215e-05
0.00029389
0.00119649
0.00273162
0.00392782
0.00816218
6.17623e-24
1.59496e-19
5.05678e-19
1.92018e-18
6.5887e-18
2.51295e-17
7.30409e-17
1.92509e-16
5.26602e-16
1.30634e-15
3.583e-15
4.51796e-14
5.50685e-12
2.06636e-08
6.65797e-07
9.12686e-06
0.000120326
0.000345994
0.00148229
0.00302201
0.00411153
0.00822577
6.14122e-24
1.24059e-19
3.5544e-19
1.3381e-18
4.81931e-18
1.66324e-17
5.563e-17
1.57931e-16
4.61707e-16
1.23229e-15
3.40801e-15
3.90797e-13
1.80836e-10
5.04938e-07
2.09628e-05
0.000108799
0.000385235
0.0005531
0.00202602
0.00344316
0.00435613
0.00829204
6.09425e-24
1.92153e-19
5.9433e-19
2.23235e-18
7.68793e-18
2.85723e-17
8.49899e-17
2.26833e-16
6.41498e-16
1.70688e-15
5.00432e-15
1.41323e-11
9.30374e-09
1.79096e-05
0.000158544
0.000388324
0.000837032
0.000977234
0.00285605
0.00401588
0.00467701
0.00836448
6.06309e-24
1.39658e-19
3.92108e-19
1.50432e-18
5.62746e-18
1.89656e-17
6.6926e-17
1.94628e-16
5.9709e-16
1.72753e-15
5.24621e-15
3.66729e-10
3.62175e-07
8.88958e-05
0.000443632
0.000834496
0.00142006
0.00156737
0.00393958
0.00474401
0.00507344
0.00844366
6.0177e-24
2.24256e-19
6.82474e-19
2.54938e-18
8.88545e-18
3.22433e-17
9.9104e-17
2.70246e-16
8.05557e-16
2.38664e-15
8.22659e-15
1.19552e-08
1.06781e-05
0.000256211
0.000788917
0.00140254
0.00220163
0.00236168
0.00523838
0.00561349
0.00553888
0.00853143
5.99029e-24
1.5377e-19
4.28092e-19
1.67969e-18
6.56324e-18
2.17425e-17
8.10197e-17
2.42343e-16
8.00946e-16
2.64384e-15
1.09514e-14
2.19254e-07
6.09955e-05
0.000549644
0.00136085
0.00221095
0.0032136
0.00336486
0.00671122
0.00659181
0.00605695
0.00862633
5.9463e-24
2.54665e-19
7.669e-19
2.86211e-18
1.01773e-17
3.61693e-17
1.16066e-16
3.27104e-16
1.06981e-15
3.84698e-15
2.71112e-14
3.2996e-06
0.000187066
0.00107813
0.00218474
0.00325534
0.00445214
0.00455175
0.00831208
0.00764506
0.00661253
0.00872852
5.92227e-24
1.66519e-19
4.61702e-19
1.86255e-18
7.62831e-18
2.4877e-17
9.81867e-17
3.05712e-16
1.15386e-15
5.00618e-15
1.15153e-13
2.21499e-05
0.000461877
0.00182384
0.00322276
0.00451085
0.00588007
0.00587439
0.0100226
0.0087435
0.00718823
0.00883515
5.87864e-24
2.84243e-19
8.48164e-19
3.17082e-18
1.1577e-17
4.04159e-17
1.3658e-16
4.05248e-16
1.58831e-15
8.81334e-15
2.32737e-12
8.93762e-05
0.000969209
0.00282896
0.00449144
0.00595736
0.0074563
0.00727746
0.0118464
0.00986895
0.00777163
0.00894576
5.85803e-24
1.78722e-19
4.98145e-19
2.06479e-18
8.86885e-18
2.86044e-17
1.19775e-16
3.96187e-16
1.94433e-15
1.6012e-14
9.10099e-11
0.000257908
0.00172237
0.00404184
0.00595406
0.00757849
0.00914207
0.00872832
0.0138294
0.0110099
0.00835068
0.00905718
5.8141e-24
3.12152e-19
9.26984e-19
3.48734e-18
1.31526e-17
4.52178e-17
1.6247e-16
5.22308e-16
2.96587e-15
4.18814e-14
4.25979e-09
0.000567546
0.0027356
0.00547374
0.0076264
0.00935252
0.0109034
0.0102303
0.0160435
0.0121627
0.00891865
0.00916919
5.79634e-24
1.90077e-19
5.36023e-19
2.28292e-18
1.02931e-17
3.28749e-17
1.47209e-16
5.36149e-16
4.47806e-15
1.27345e-13
2.91806e-07
0.0010574
0.00397442
0.00711194
0.00948326
0.011267
0.0127272
0.0118503
0.0185851
0.0133244
0.00946986
0.00927899
5.7519e-24
3.39506e-19
1.00583e-18
3.81831e-18
1.4942e-17
5.07249e-17
1.96169e-16
7.13172e-16
8.24912e-15
6.15476e-13
2.28408e-05
0.00178393
0.00542053
0.00898241
0.0115344
0.0133128
0.0146351
0.0137215
0.0215418
0.014494
0.0100033
0.00938714
5.73752e-24
2.0073e-19
5.7327e-19
2.50683e-18
1.18949e-17
3.77914e-17
1.83408e-16
7.72599e-16
1.59395e-14
6.18983e-12
0.000154779
0.00274664
0.00706317
0.0110844
0.0137562
0.0155078
0.0167141
0.016042
0.0249727
0.0156683
0.0105193
0.00949146
5.69222e-24
3.65998e-19
1.08379e-18
4.15814e-18
1.69493e-17
5.7039e-17
2.42157e-16
1.0537e-15
3.49185e-14
1.10771e-10
0.000400478
0.00394993
0.00890419
0.0134385
0.0161671
0.0178958
0.0191415
0.0190334
0.0288737
0.016847
0.0110222
0.00959327
5.68062e-24
2.10641e-19
6.06566e-19
2.72496e-18
1.36513e-17
4.33206e-17
2.33619e-16
1.21433e-15
7.95761e-14
1.33632e-09
0.000762425
0.00535214
0.0109565
0.0160326
0.0187687
0.0205737
0.0222051
0.022888
0.0331744
0.0180295
0.0115185
0.00969106
5.63484e-24
3.91969e-19
1.15691e-18
4.48479e-18
1.91153e-17
6.40339e-17
3.0853e-16
1.71886e-15
1.8888e-13
1.27231e-08
0.00128044
0.00693375
0.013227
0.0188729
0.0216168
0.0236882
0.0262859
0.0276952
0.0377395
0.0192217
0.0120182
0.00978684
5.62683e-24
2.21017e-19
6.38702e-19
2.94201e-18
1.55867e-17
4.9659e-17
3.09659e-16
2.11641e-15
4.60374e-13
1.03633e-07
0.00196795
0.00867485
0.0157175
0.0219428
0.0247711
0.0274455
0.0318068
0.0334067
0.0424009
0.0204321
0.0125327
0.00987966
5.57925e-24
4.16316e-19
1.22351e-18
4.79627e-18
2.14616e-17
7.18876e-17
4.14473e-16
3.12942e-15
1.14154e-12
1.93291e-06
0.00282572
0.0105755
0.0184114
0.0252503
0.0283372
0.0320729
0.0391321
0.0398358
0.0469792
0.0216759
0.0130752
0.00997203
5.57381e-24
2.31526e-19
6.68152e-19
3.15041e-18
1.76851e-17
5.68771e-17
4.37422e-16
4.12506e-15
3.30789e-12
4.40641e-05
0.00384546
0.0126238
0.0212808
0.0287825
0.0323998
0.0377802
0.0484552
0.0467104
0.0513138
0.0229679
0.0136575
0.0100634
5.52513e-24
4.40108e-19
1.28541e-18
5.09186e-18
2.39905e-17
8.07382e-17
6.03192e-16
6.40403e-15
1.58607e-11
0.000205964
0.00501789
0.014809
0.0242801
0.0325401
0.0370389
0.0446809
0.0596979
0.0537262
0.0552699
0.0243241
0.0142892
0.0101564
5.52309e-24
2.42251e-19
6.93744e-19
3.34509e-18
1.99514e-17
6.52459e-17
6.78285e-16
9.00884e-15
1.03052e-10
0.000457855
0.00632122
0.0170999
0.0273565
0.0364844
0.0422499
0.0527372
0.0724757
0.0605989
0.0587509
0.0257518
0.0149737
0.0102507
5.47213e-24
4.63207e-19
1.34323e-18
5.37242e-18
2.67328e-17
9.0951e-17
9.77918e-16
1.46278e-14
6.1917e-10
0.000767992
0.00773666
0.0194571
0.0304435
0.0405653
0.0479559
0.0617098
0.0861297
0.0670842
0.0616905
0.0272518
0.0157081
0.0103488
5.47215e-24
2.52814e-19
7.15751e-19
3.52362e-18
2.23934e-17
7.50988e-17
1.18044e-15
2.18007e-14
2.82318e-09
0.00111512
0.00923669
0.0218248
0.0334707
0.0446736
0.0539523
0.0711703
0.0998236
0.0729914
0.0640556
0.0288111
0.016481
0.01045
5.4202e-24
4.8568e-19
1.40018e-18
5.6467e-18
2.97405e-17
1.02995e-16
1.79003e-15
3.68472e-14
1.14189e-08
0.00151538
0.0107951
0.0241458
0.0363574
0.0486793
0.0599548
0.0805393
0.112661
0.078175
0.0658345
0.0304092
0.0172757
0.0105565
5.42332e-24
2.63655e-19
7.33677e-19
3.69131e-18
2.50795e-17
8.67366e-17
2.30748e-15
5.69065e-14
3.65346e-08
0.00197992
0.012377
0.0263575
0.0390247
0.0524047
0.0655934
0.0891733
0.123805
0.0825342
0.067038
0.0320152
0.0180705
0.010667
5.36791e-24
5.01693e-19
1.4461e-18
5.89964e-18
3.30387e-17
1.17209e-16
3.64515e-15
9.73859e-14
1.10488e-07
0.00252768
0.0139514
0.0284063
0.0413939
0.0556805
0.0704993
0.096447
0.132561
0.0859994
0.0676874
0.0335966
0.0188445
0.0107831
5.37302e-24
2.6719e-19
7.38641e-19
3.83105e-18
2.80173e-17
1.00661e-16
4.93325e-15
1.53162e-13
2.9057e-07
0.00316862
0.0154856
0.0302446
0.0434029
0.0583366
0.0743264
0.101847
0.138445
0.0885338
0.0678165
0.0351154
0.0195783
0.0109032
5.31358e-24
5.02436e-19
1.46123e-18
6.09722e-18
3.66233e-17
1.33865e-16
7.95017e-15
2.63531e-13
1.18998e-06
0.00391665
0.0169576
0.0318445
0.0450081
0.0602642
0.0768413
0.105032
0.141218
0.0901235
0.06746
0.0365352
0.0202587
0.0110282
5.31905e-24
2.63108e-19
7.24491e-19
3.93311e-18
3.1264e-17
1.17142e-16
1.10255e-14
4.86411e-13
1.62839e-05
0.00478172
0.0183517
0.0331935
0.0462005
0.0614022
0.0779274
0.105887
0.140902
0.0907833
0.0666566
0.0378148
0.0208769
0.0111563
5.25286e-24
4.53312e-19
1.32043e-18
5.91269e-18
3.94204e-17
1.49523e-16
1.73519e-14
3.9678e-12
0.000135817
0.00578039
0.0196702
0.0343054
0.0470032
0.0617831
0.0776361
0.104525
0.137772
0.0905496
0.0654389
0.0389166
0.0214308
0.0112883
5.25532e-24
3.047e-19
1.07338e-18
6.345e-18
4.70105e-17
1.79608e-16
2.8874e-14
2.06677e-10
0.000549274
0.00693696
0.0209283
0.0352121
0.0474775
0.061495
0.0761408
0.101273
0.132318
0.0894867
0.0638379
0.0398058
0.021921
0.011422
5.17891e-24
1.10031e-19
3.02622e-19
2.53697e-18
2.99349e-17
1.35857e-16
3.41359e-14
7.79541e-09
0.00133021
0.00826973
0.0221597
0.0359688
0.0477096
0.0607031
0.0737365
0.0966064
0.12518
0.0876793
0.0618771
0.040468
0.0223499
0.0115584
5.17165e-24
7.39295e-19
9.28201e-18
7.24799e-18
5.01313e-17
2.33343e-16
6.5652e-14
1.00962e-06
0.00243176
0.00977387
0.0234024
0.0366396
0.0478073
0.0595899
0.0707545
0.0910803
0.117062
0.085239
0.0595818
0.0409065
0.0227173
0.0116955
5.08485e-24
4.114e-20
1.1508e-19
1.60888e-18
3.11659e-17
2.43317e-16
1.46683e-13
4.55602e-05
0.00378302
0.0114262
0.0246938
0.0372982
0.0478799
0.0583694
0.0675503
0.0852387
0.108642
0.0822975
0.0569754
0.041138
0.02302
0.0118345
5.04627e-24
8.95474e-19
2.94608e-16
2.71129e-18
4.08208e-17
6.84549e-16
3.08506e-12
0.000202738
0.00531962
0.0131919
0.0260526
0.0380114
0.0480357
0.0572266
0.0644266
0.0795664
0.100506
0.0790195
0.0540881
0.0411261
0.0232412
0.011976
4.84764e-24
7.2154e-19
1.73505e-18
5.53707e-18
4.95263e-17
6.93321e-15
5.74262e-11
0.000419705
0.00699906
0.0150688
0.0275117
0.0388558
0.048372
0.0563453
0.0616486
0.0744353
0.0930973
0.075566
0.0509251
0.0407085
0.0232494
0.0121338
0.00987657
0.0124215
0.0181462
0.0233174
0.00929047
0.00878766
0.00900054
0.00818378
0.00728363
0.00668056
0.00627719
0.00542909
0.00533579
0.00552686
0.00555923
0.00552784
0.00549978
0.00560468
0.00614672
0.00767833
0.012132
0.0204187
0.0320299
0.0452095
0.0576857
0.0654156
0.0716947
0.0781663
0.0819805
0.0790249
0.0727895
0.0696215
0.0717524
0.0838065
0.101484
0.00986353
0.0125092
0.0184455
0.0240834
0.0097566
0.00922174
0.00948426
0.00862448
0.00764744
0.00701387
0.00658769
0.00566323
0.00556199
0.00575721
0.00579865
0.00574763
0.00567703
0.00571553
0.006181
0.00767259
0.0121842
0.0205701
0.0322308
0.0454363
0.0579567
0.0657067
0.0719783
0.0784162
0.0821932
0.0791068
0.0728289
0.0696503
0.071788
0.0838375
0.101517
0.00983842
0.012639
0.0189651
0.0256782
0.0106765
0.0100961
0.0104784
0.00950647
0.00835959
0.0076498
0.006981
0.00597332
0.00588333
0.00602453
0.00600424
0.0058863
0.00576562
0.0057642
0.00620266
0.00772346
0.0123496
0.0208672
0.0326058
0.045852
0.0584491
0.0662319
0.0724884
0.0788621
0.0825743
0.0792308
0.0728752
0.0696766
0.0718309
0.0838682
0.101553
0.00979929
0.0127658
0.0196582
0.0281858
0.0121034
0.0114755
0.0119891
0.0108148
0.00942805
0.00861323
0.00754889
0.00644187
0.00639529
0.00647096
0.00632121
0.006061
0.00583615
0.00578589
0.00622655
0.00784321
0.012639
0.0213136
0.0331501
0.0464466
0.0591465
0.0669689
0.0732012
0.0794826
0.0831066
0.0793857
0.0729226
0.0696966
0.0718788
0.0838973
0.101589
0.00974597
0.0128784
0.0205011
0.0315238
0.0140715
0.0133967
0.0140152
0.012546
0.0108479
0.00990759
0.00840383
0.00719367
0.00726308
0.00728102
0.00691936
0.00640717
0.00598435
0.00583978
0.00628714
0.00804723
0.0130572
0.0219128
0.0338631
0.0472158
0.0600385
0.0679012
0.0740984
0.0802612
0.0837774
0.0795664
0.0729713
0.0697132
0.0719356
0.0839309
0.101632
0.00967615
0.0129657
0.0215055
0.0356125
0.0166343
0.0159321
0.0165718
0.0147208
0.0126221
0.0115245
0.00962071
0.00833559
0.00861219
0.00855568
0.00789295
0.00701667
0.0062918
0.00598648
0.00642218
0.00834998
0.0136062
0.0226683
0.034746
0.048158
0.0611171
0.0690148
0.0751636
0.0811835
0.0845761
0.079771
0.0730245
0.069733
0.0720093
0.08398
0.101695
0.00959042
0.0130218
0.0227223
0.0404567
0.0198867
0.0192187
0.0197217
0.0173934
0.0147761
0.0134714
0.01125
0.00994685
0.0105212
0.0103313
0.00926194
0.00791229
0.00679563
0.00626646
0.00666096
0.0087609
0.0142853
0.0235831
0.0358005
0.049272
0.0623749
0.0702956
0.0763804
0.082235
0.0854921
0.0799992
0.0730877
0.0697651
0.0721097
0.0840582
0.101792
0.00948687
0.0130387
0.0242515
0.0461574
0.0239722
0.0234696
0.0235897
0.0206609
0.0173668
0.0157861
0.0133475
0.0121041
0.0130628
0.0126497
0.0110317
0.00907289
0.0074838
0.00668528
0.00701312
0.00927987
0.0150906
0.0246576
0.0370266
0.0505555
0.0638027
0.0717277
0.0777309
0.0834008
0.0865149
0.0802516
0.0731673
0.0698198
0.0722486
0.0841811
0.10194
0.00936733
0.0130163
0.02625
0.0528948
0.029087
0.0289848
0.028368
0.024672
0.0204854
0.0185401
0.015996
0.0148945
0.0163331
0.015606
0.0132405
0.0104748
0.00831923
0.00721937
0.00746717
0.00989705
0.0160143
0.0258893
0.0384216
0.0520039
0.0653887
0.0732927
0.0791953
0.0846641
0.0876331
0.0805294
0.0732704
0.0699087
0.0724386
0.0843655
0.102158
0.0092307
0.0129517
0.0289551
0.0609041
0.0354737
0.0361494
0.0343179
0.0296349
0.024264
0.0218422
0.019312
0.0184172
0.020449
0.0193496
0.0159642
0.0121043
0.00925983
0.00783082
0.00799648
0.010594
0.0170441
0.0272703
0.0399781
0.0536086
0.0671171
0.0749687
0.080751
0.0860069
0.0888342
0.0808341
0.0734047
0.0700434
0.0726926
0.0846288
0.102463
0.00908003
0.0128499
0.0327084
0.0704413
0.0433982
0.0453976
0.0417491
0.0358122
0.028871
0.0258346
0.0234396
0.0227642
0.0255156
0.0240558
0.0193022
0.0139563
0.0102692
0.00848212
0.00856988
0.0113478
0.0181632
0.028787
0.0416833
0.0553561
0.0689674
0.0767299
0.0823726
0.0874091
0.0901045
0.0811672
0.0735776
0.0702361
0.0730238
0.0849886
0.102876
0.00891508
0.0127118
0.0379872
0.0817183
0.0530853
0.0571005
0.0509558
0.0434831
0.0344945
0.0306808
0.0285327
0.0279999
0.031576
0.0298653
0.0233435
0.0160201
0.0113144
0.00914084
0.00915744
0.0121332
0.0193495
0.0304187
0.0435182
0.0572273
0.0709137
0.0785467
0.0840322
0.0888493
0.0914296
0.08153
0.0737967
0.0704983
0.0734453
0.0854624
0.103414
0.00874002
0.0125491
0.0453944
0.0947882
0.0646071
0.071359
0.0620825
0.0528442
0.0412861
0.0365236
0.0347061
0.0341226
0.0385524
0.0368043
0.0281253
0.0182708
0.012366
0.00978167
0.0097342
0.0129252
0.020577
0.0321379
0.045457
0.0591976
0.0729257
0.0803862
0.0857002
0.0903051
0.0927942
0.0819236
0.0740689
0.0708413
0.0739695
0.0860673
0.104097
0.00855535
0.0123745
0.055556
0.109398
0.0777414
0.0877354
0.0749302
0.0638396
0.0492644
0.0434044
0.0419497
0.0410187
0.0461922
0.0446958
0.0335792
0.0206569
0.0133935
0.0103839
0.0102792
0.0136989
0.0218159
0.0339109
0.0474682
0.0612366
0.0749687
0.0822138
0.0873462
0.0917539
0.0941829
0.0823492
0.0744008
0.0712758
0.0746085
0.0868197
0.104941
0.00836592
0.0122217
0.0687907
0.124902
0.0918751
0.105072
0.0887777
0.0759599
0.0581802
0.0511393
0.0499946
0.0483902
0.0540283
0.0530982
0.0394882
0.0230974
0.0143675
0.0109317
0.0107758
0.014431
0.0230339
0.0356991
0.0495149
0.06331
0.0770053
0.0839939
0.0889402
0.0931741
0.0955805
0.0828076
0.0747986
0.0718116
0.0753738
0.0877354
0.105964
0.00817267
0.0121421
0.084588
0.140256
0.106035
0.121597
0.10237
0.0881409
0.0674151
0.0592024
0.0581873
0.0556831
0.0613645
0.0612932
0.0454659
0.0254798
0.0152575
0.0114116
0.0112095
0.015099
0.0241977
0.0374606
0.0515567
0.0653798
0.0789969
0.0856923
0.0904543
0.0945455
0.0969729
0.0833002
0.0752682
0.0724581
0.0762762
0.0888296
0.107181
0.00798033
0.0122228
0.101132
0.154236
0.119099
0.13541
0.114187
0.0989192
0.0760076
0.0667094
0.0654763
0.0620563
0.0673022
0.0683476
0.0509805
0.0276695
0.0160361
0.0118137
0.0115691
0.0156825
0.025274
0.0391521
0.0535512
0.0674069
0.0809058
0.0872775
0.091864
0.0958509
0.0983478
0.0838283
0.0758149
0.0732239
0.0773261
0.0901168
0.108609
0.00778933
0.0125957
0.1155
0.165748
0.130093
0.145148
0.12294
0.106885
0.0828824
0.0726054
0.0706498
0.0664973
0.0708529
0.0732331
0.0554214
0.0295209
0.0166782
0.0121307
0.0118451
0.0161621
0.0262306
0.0407306
0.0554557
0.0693524
0.0826963
0.0887224
0.0931493
0.0970769
0.0996948
0.084394
0.0764444
0.0741173
0.0785336
0.0916113
0.110261
0.00760307
0.0134423
0.124843
0.174035
0.138415
0.150391
0.127992
0.111208
0.0872086
0.0760307
0.0728016
0.0681342
0.0711899
0.0750009
0.0581962
0.0308965
0.0171659
0.0123597
0.0120316
0.0165219
0.0270379
0.0421555
0.0572289
0.0711792
0.0843372
0.0900056
0.0942959
0.0982142
0.101006
0.085
0.0771619
0.0751464
0.0799085
0.0933272
0.112153
0.00742066
0.0149272
0.128066
0.178667
0.143828
0.151558
0.129437
0.111893
0.0886903
0.076673
0.0717798
0.0666591
0.0680273
0.0730173
0.0588245
0.0316784
0.0174871
0.0125014
0.0121256
0.0167479
0.027669
0.043389
0.0588325
0.0728537
0.0858022
0.0911119
0.0952956
0.0992584
0.102278
0.0856501
0.0779734
0.0763193
0.0814607
0.0952788
0.1143
0.00724378
0.0172091
0.12614
0.179411
0.146305
0.149423
0.127832
0.109604
0.0876023
0.0748653
0.0682683
0.062571
0.0619272
0.0672735
0.0570225
0.0317756
0.0176355
0.0125614
0.0121294
0.0168311
0.0281007
0.0443979
0.0602322
0.0743468
0.0870717
0.0920334
0.0961464
0.10021
0.103509
0.0863493
0.078885
0.0776446
0.0832008
0.097481
0.116716
0.00707145
0.0204062
0.121242
0.17623
0.145903
0.144722
0.123857
0.105257
0.0845887
0.0713745
0.0634233
0.0570031
0.0542307
0.0586407
0.0527977
0.0311196
0.0176031
0.0125453
0.0120484
0.0167663
0.0283143
0.0451534
0.0613986
0.0756348
0.0881323
0.092769
0.096853
0.101075
0.1047
0.0871037
0.0799037
0.0791315
0.0851394
0.0999495
0.119418
0.00690537
0.0245732
0.115524
0.169452
0.142813
0.138075
0.118159
0.0996942
0.0803901
0.0670536
0.0583409
0.0512094
0.0465272
0.0487828
0.046574
0.0296747
0.0173749
0.012457
0.0118912
0.0165546
0.0282962
0.0456327
0.062308
0.0767004
0.0889781
0.0933247
0.0974262
0.101864
0.105857
0.087921
0.0810375
0.0807908
0.0872886
0.102702
0.122422
0.00674534
0.0296491
0.110404
0.159926
0.137476
0.130128
0.111366
0.0935889
0.0756623
0.0625844
0.0537221
0.0460857
0.0400028
0.0395615
0.0392479
0.0274749
0.0169261
0.0122921
0.0116651
0.0162009
0.0280389
0.0458184
0.0629428
0.0775327
0.0896096
0.0937125
0.0978825
0.102593
0.106989
0.0888103
0.0822954
0.0826347
0.0896614
0.105757
0.125744
0.00659312
0.0354377
0.106474
0.148869
0.13059
0.121607
0.104123
0.0874576
0.0709043
0.0583909
0.0498398
0.0420018
0.0351247
0.0322683
0.0320127
0.0246879
0.0162381
0.0120398
0.0113746
0.0157145
0.0275415
0.0457003
0.0632918
0.0781275
0.090034
0.0939503
0.0982436
0.103281
0.108105
0.0897825
0.0836879
0.0846781
0.0922725
0.109136
0.129406
0.00644962
0.0415827
0.103655
0.137475
0.122934
0.113202
0.0970173
0.081676
0.0664476
0.0546722
0.0466841
0.0389258
0.0317688
0.0272589
0.0259272
0.0216407
0.0153242
0.0116884
0.0110199
0.0151053
0.0268096
0.0452748
0.0633508
0.0784879
0.0902646
0.0940611
0.0985362
0.103953
0.109221
0.0908503
0.0852272
0.0869386
0.0951386
0.112866
0.133426
0.00631698
0.0475619
0.101402
0.126548
0.11516
0.105397
0.0904636
0.0764636
0.0624632
0.051471
0.0441181
0.0366374
0.0295424
0.0241695
0.0215199
0.0187504
0.0142555
0.0112399
0.010603
0.0143859
0.0258549
0.0445458
0.0631229
0.0786237
0.0903206
0.0940725
0.0987909
0.104637
0.110351
0.0920281
0.0869275
0.089438
0.0982788
0.116975
0.137829
0.00619775
0.0527345
0.099002
0.116458
0.107693
0.0984078
0.0846553
0.0718882
0.0589915
0.0487413
0.0419827
0.0348886
0.0280414
0.0223768
0.0187238
0.0163673
0.0131554
0.0107202
0.010133
0.0135717
0.0246953
0.0435249
0.062618
0.0785518
0.0902262
0.094016
0.0990427
0.105364
0.111515
0.0933328
0.0888052
0.092203
0.101715
0.121499
0.142639
0.00609509
0.0564591
0.0958913
0.107352
0.100777
0.0922523
0.0796021
0.0679079
0.055987
0.0463995
0.0401428
0.0334768
0.0269597
0.0213344
0.0171291
0.0146488
0.0121615
0.0101803
0.00963453
0.0126893
0.0233556
0.0422314
0.0618536
0.0782958
0.0900106
0.0939266
0.0993302
0.106172
0.112733
0.0947833
0.0908796
0.0952662
0.105475
0.126479
0.147885
0.00601408
0.058268
0.0919034
0.0993704
0.0945717
0.0868619
0.075217
0.0644304
0.0533673
0.0443589
0.0385026
0.0322624
0.0260986
0.0206766
0.0162789
0.0135505
0.0113705
0.00967939
0.00914432
0.0117796
0.0218714
0.040693
0.0608547
0.0778865
0.0897078
0.093843
0.0996963
0.1071
0.114027
0.0964014
0.0931736
0.0986677
0.109587
0.131967
0.153599
0.00596079
0.0579977
0.0873037
0.0926804
0.0891799
0.0821464
0.0713803
0.0613519
0.0510437
0.0425431
0.0369981
0.0311573
0.0253407
0.0201923
0.0158281
0.0129161
0.010812
0.00926457
0.00870307
0.0108988
0.0202942
0.038948
0.0596548
0.0773625
0.0893568
0.0938079
0.100188
0.108194
0.115424
0.0982121
0.0957142
0.102457
0.114089
0.138023
0.15982
0.00594609
0.0558195
0.0826317
0.0873741
0.0846265
0.0780005
0.0679667
0.0585734
0.0489344
0.0408875
0.0355849
0.0301085
0.0246201
0.0197668
0.0155595
0.0125713
0.0104554
0.00895458
0.00834038
0.0101063
0.0186943
0.0370479
0.0582969
0.0767711
0.0890019
0.0938681
0.100858
0.109505
0.116953
0.100244
0.0985336
0.106694
0.119024
0.144722
0.16659
0.00598322
0.0521315
0.0784055
0.0833656
0.0808286
0.0742927
0.0648475
0.055998
0.0469629
0.0393331
0.0342256
0.02908
0.0238988
0.0193396
0.0153501
0.0123777
0.010242
0.00874202
0.00806832
0.00945087
0.0171581
0.0350615
0.0568359
0.07617
0.088694
0.0940763
0.101766
0.111092
0.118646
0.102532
0.101671
0.111452
0.124446
0.152151
0.173962
0.00609167
0.0474355
0.074878
0.0803772
0.0776014
0.0708652
0.0618924
0.0535293
0.0450558
0.0378241
0.0328849
0.0280449
0.0231538
0.0188774
0.0151314
0.0122398
0.0101094
0.00860192
0.00788016
0.0089564
0.015775
0.0330739
0.0553389
0.0756281
0.0884909
0.0944913
0.102977
0.113019
0.120542
0.105114
0.105171
0.116819
0.130418
0.160417
0.181996
0.00628805
0.0422381
0.0719541
0.0780056
0.0747011
0.0675517
0.0589764
0.0510729
0.0431419
0.0363076
0.0315289
0.0269796
0.0223693
0.0183632
0.0148689
0.012101
0.0100087
0.00850625
0.00775944
0.00862245
0.0146204
0.0311841
0.0538851
0.0752255
0.0884575
0.0951789
0.104568
0.115363
0.122685
0.108037
0.109092
0.122901
0.137016
0.169648
0.190768
0.00658505
0.037028
0.0693106
0.0758309
0.0718804
0.0642045
0.0559935
0.0485486
0.0411616
0.03474
0.0301312
0.025867
0.0215359
0.0177895
0.0145462
0.0119293
0.00990598
0.00842979
0.00768598
0.0084293
0.0137408
0.029493
0.0525627
0.0750508
0.0886654
0.0962117
0.106623
0.118211
0.125126
0.111355
0.113498
0.129822
0.144331
0.179995
0.200363
0.00697682
0.032213
0.0665843
0.0735112
0.0689384
0.0607152
0.0528683
0.0458989
0.0390722
0.0330917
0.0286761
0.0246981
0.0206509
0.0171584
0.0141621
0.0117126
0.00978287
0.00835567
0.00764365
0.00835155
0.0131496
0.028092
0.0514628
0.0751984
0.089191
0.0976688
0.109237
0.121659
0.127922
0.11513
0.118468
0.137729
0.152471
0.191632
0.210884
0.00744499
0.0280469
0.0635124
0.0708324
0.0657425
0.0570195
0.0495587
0.0430942
0.0368539
0.0313504
0.0271622
0.023476
0.0197202
0.0164783
0.0137225
0.0114482
0.00962992
0.00827268
0.00762017
0.00836428
0.0128334
0.0270496
0.0506737
0.0757637
0.0901137
0.0996348
0.112513
0.125815
0.13114
0.119432
0.124091
0.146789
0.16156
0.204763
0.222448
0.00795396
0.0245438
0.0599442
0.0676944
0.0622298
0.0530915
0.0460515
0.0401292
0.0345066
0.0295205
0.0256018
0.0222149
0.0187588
0.0157658
0.013241
0.0111421
0.00944594
0.00817656
0.00760991
0.00845088
0.0127651
0.0264086
0.0502749
0.0768401
0.091513
0.102199
0.116566
0.130801
0.134849
0.124342
0.13047
0.157194
0.171739
0.219616
0.235188
0.00846726
0.0215087
0.0557825
0.064064
0.0583958
0.0489431
0.0423639
0.0370249
0.0320538
0.0276266
0.0240233
0.0209434
0.0177918
0.0150423
0.0127331
0.0108019
0.00923263
0.00806624
0.00761081
0.0086013
0.0129167
0.026189
0.0503345
0.0785179
0.0934676
0.105452
0.121517
0.136746
0.139128
0.129947
0.137719
0.169157
0.183168
0.236446
0.249253
0.00894498
0.0186643
0.0509032
0.0598994
0.0542764
0.0446308
0.0385539
0.0338384
0.0295506
0.0257179
0.0224736
0.0197048
0.0168542
0.0143345
0.0122173
0.0104386
0.00899612
0.00794574
0.00762648
0.00881509
0.0132694
0.0264001
0.0509115
0.0808852
0.0960538
0.109491
0.127497
0.143789
0.144059
0.136343
0.145962
0.182911
0.196019
0.25553
0.264798
0.0093615
0.0158273
0.0451761
0.0551246
0.0499496
0.0402862
0.0347476
0.0306869
0.0271058
0.0238829
0.0210288
0.0185626
0.0159917
0.0136702
0.0117098
0.0100621
0.00874329
0.00782128
0.0076631
0.00909719
0.013819
0.0270543
0.0520604
0.0840308
0.0993459
0.114413
0.134642
0.152077
0.149727
0.143631
0.155333
0.198706
0.210474
0.27716
0.281987
0.0096768
0.0129528
0.0385559
0.0496191
0.0455354
0.0361659
0.0311969
0.0278048
0.0249247
0.0222774
0.0198155
0.0176138
0.0152651
0.0130836
0.0112305
0.00968532
0.00848492
0.00770422
0.00773263
0.00946144
0.014581
0.0281831
0.0538401
0.0880475
0.103416
0.120315
0.143092
0.161759
0.156218
0.151916
0.165969
0.216798
0.226724
0.301638
0.300983
0.00988074
0.0100865
0.0312511
0.0432988
0.0412218
0.0326407
0.0282404
0.0255172
0.0232734
0.0210866
0.0189734
0.0169491
0.0147113
0.012585
0.0107841
0.00930825
0.00822146
0.00760015
0.0078468
0.0099275
0.0155927
0.029847
0.0563218
0.0930365
0.108334
0.127296
0.152985
0.172982
0.163615
0.161301
0.178006
0.237448
0.244957
0.329262
0.321941
4.89263e-24
1.21751e-18
4.70495e-18
1.66171e-17
1.13517e-16
1.79803e-13
5.29479e-10
0.000684997
0.00844127
0.0166172
0.0287346
0.0396539
0.0488602
0.0559854
0.0598912
0.0710086
0.0879937
0.0728569
0.048321
0.0400013
0.0229227
0.0122756
5.00618e-24
2.80066e-18
6.76615e-17
3.9697e-17
2.71122e-16
1.25909e-12
4.36203e-09
0.000890904
0.00956255
0.0177612
0.0296193
0.0403078
0.049415
0.0560543
0.0590416
0.0690514
0.0848533
0.0711332
0.0467159
0.0394085
0.0226544
0.0124276
5.11141e-24
1.00236e-18
3.69085e-18
4.49992e-17
5.51836e-16
4.68003e-12
3.84302e-08
0.0010813
0.010742
0.0189365
0.0305462
0.0410758
0.0502145
0.0564879
0.0586315
0.0676156
0.0822349
0.0696527
0.0454096
0.0387713
0.0223861
0.0126757
5.07091e-24
2.27037e-18
1.22348e-16
9.23925e-17
1.28701e-15
1.53904e-11
5.53372e-07
0.00123938
0.0119614
0.0201472
0.0315475
0.0419847
0.0512858
0.0573328
0.0587209
0.0667726
0.080228
0.0684493
0.0444031
0.0381156
0.0221226
0.0130002
5.17359e-24
7.98867e-19
2.73405e-18
4.78202e-17
2.1426e-15
2.89602e-11
6.70111e-06
0.0013685
0.0132001
0.0213958
0.0326462
0.0430519
0.0526481
0.0586107
0.0593411
0.0665719
0.078889
0.067553
0.0436914
0.0374628
0.0218661
0.013396
5.12181e-24
1.8402e-18
1.39699e-16
9.28649e-17
4.80991e-15
5.71145e-11
1.34933e-05
0.00148201
0.0144286
0.0226808
0.0338587
0.0442895
0.0543064
0.0603423
0.0605214
0.0670413
0.0782464
0.0669866
0.0432606
0.0368349
0.0216176
0.0138729
5.2358e-24
6.41468e-19
2.11317e-18
3.36951e-17
6.1295e-15
6.2281e-11
2.48866e-05
0.00159325
0.0156067
0.0239922
0.0351889
0.0456976
0.0562556
0.0625213
0.0622642
0.0681974
0.0783108
0.0667703
0.0430955
0.0362499
0.0213771
0.0144398
5.17698e-24
1.49477e-18
1.42367e-16
6.19254e-17
1.2379e-14
7.48895e-11
3.25023e-05
0.00170131
0.0166803
0.02531
0.0366308
0.0472689
0.0584729
0.0651384
0.0645712
0.070041
0.0790769
0.0669179
0.0431769
0.0357265
0.0211451
0.0151027
5.30329e-24
5.22009e-19
1.68394e-18
2.13093e-17
1.19996e-14
4.36756e-11
5.39595e-05
0.00179909
0.0175863
0.026599
0.0381624
0.0489814
0.060922
0.0681517
0.067413
0.072563
0.0805297
0.0674411
0.0434889
0.0352793
0.0209223
0.015859
5.22936e-24
1.22038e-18
1.33983e-16
3.79104e-17
2.0334e-14
3.31079e-11
9.45662e-05
0.00187586
0.0182581
0.0278089
0.0397484
0.0508037
0.0635464
0.0715116
0.0707544
0.0757341
0.0826421
0.0683451
0.0440146
0.0349238
0.0207097
0.0166987
5.36198e-24
4.28392e-19
1.36822e-18
1.37183e-17
1.56245e-14
1.33361e-11
0.00013931
0.00192008
0.0186376
0.028871
0.0413334
0.0526874
0.0662749
0.0751293
0.0745198
0.0795067
0.0853755
0.0696325
0.0447424
0.0346715
0.0205091
0.0176009
5.27614e-24
9.98443e-19
1.17651e-16
2.38809e-17
2.18124e-14
7.95105e-12
0.000162572
0.00192648
0.0186844
0.0297026
0.0428448
0.0545732
0.0690168
0.0789064
0.0786223
0.0838014
0.0886732
0.0712977
0.0456606
0.0345352
0.0203221
0.0185383
5.41535e-24
3.56359e-19
1.14389e-18
9.29169e-18
1.39514e-14
2.8113e-12
0.000159712
0.00189201
0.0183859
0.0302125
0.0441867
0.0563836
0.071671
0.0827053
0.0829285
0.0885095
0.0924584
0.0733305
0.0467628
0.0345241
0.020152
0.0194759
5.31341e-24
8.18275e-19
9.52847e-17
1.59411e-17
1.63988e-14
1.48365e-12
0.000132979
0.00182007
0.0177594
0.030316
0.0452474
0.0580296
0.0741236