/*--------------------------------*- C++ -*----------------------------------*\
| =========                 |                                                 |
| \\      /  F ield         | OpenFOAM: The Open Source CFD Toolbox           |
|  \\    /   O peration     | Version:  v1912                                 |
|   \\  /    A nd           | Website:  www.openfoam.com                      |
|    \\/     M anipulation  |                                                 |
\*---------------------------------------------------------------------------*/
FoamFile
{
    version     2.0;
    format      ascii;
    class       volScalarField;
    location    "20";
    object      p;
}
// * * * * * * * * * * * * * * * * * * * * * * * * * * * * * * * * * * * * * //

dimensions      [0 2 -2 0 0 0 0];


internalField   nonuniform List<scalar> 
12441
(
3.34525
5.34483
21.837
26.4896
24.4897
8.52124
18.7788
10.9762
13.2608
19.6394
29.8252
51.8258
74.6688
85.9583
80.6975
81.8408
86.1749
137.344
183.53
242.223
344.714
448.225
3.34601
5.34534
21.8324
26.4908
24.491
8.5236
18.7746
10.9805
13.2575
19.6412
29.8285
51.8272
74.6664
85.9538
80.6924
81.825
86.149
137.338
183.481
242.193
344.602
447.989
3.34762
5.34599
21.8247
26.4924
24.4929
8.52687
18.7671
10.9867
13.2513
19.6445
29.8358
51.831
74.6634
85.9485
80.6835
81.8074
86.0994
137.281
183.438
241.991
344.426
447.218
3.35002
5.34657
21.8139
26.4945
24.4957
8.53089
18.7569
10.9945
13.2422
19.6501
29.8472
51.8374
74.6597
85.9413
80.67
81.7868
86.0146
137.173
183.376
241.622
344.155
446.146
3.35319
5.34745
21.8001
26.4971
24.4993
8.53628
18.7435
11.0042
13.23
19.6586
29.8628
51.8464
74.6549
85.9325
80.6523
81.7632
85.8987
137.018
183.304
241.113
343.832
444.792
3.35703
5.34828
21.7834
26.5004
24.5037
8.54296
18.727
11.0157
13.215
19.67
29.882
51.8571
74.6486
85.921
80.6299
81.7365
85.7529
136.82
183.232
240.523
343.41
443.088
3.36156
5.3494
21.7638
26.5044
24.5088
8.55108
18.7071
11.0288
13.1968
19.6845
29.9048
51.8699
74.6409
85.9083
80.604
81.7074
85.5783
136.574
183.176
239.858
342.856
441.021
3.36668
5.35039
21.7419
26.5093
24.5145
8.5605
18.6842
11.0435
13.176
19.702
29.9308
51.8839
74.6317
85.8932
80.5742
81.6746
85.376
136.283
183.147
239.125
342.156
438.579
3.37243
5.35169
21.7173
26.5147
24.5207
8.57136
18.6579
11.0597
13.1521
19.7226
29.96
51.8996
74.6213
85.8772
80.5415
81.6364
85.1529
135.95
183.16
238.309
341.292
435.806
3.37872
5.35281
21.6906
26.5211
24.5273
8.58344
18.6287
11.0777
13.1258
19.7462
29.9921
51.9162
74.6096
85.8592
80.5037
81.5904
84.9224
135.586
183.209
237.424
340.261
432.703
3.38559
5.35426
21.6615
26.5281
24.5342
8.59692
18.5962
11.0973
13.0968
19.7727
30.0269
51.9343
74.5967
85.8404
80.4604
81.5369
84.7005
135.199
183.284
236.458
339.053
429.309
3.39294
5.35548
21.6305
26.5361
24.5414
8.61152
18.5611
11.1186
13.0656
19.8018
30.064
51.9534
74.5823
85.8177
80.4091
81.4806
84.4997
134.789
183.354
235.43
337.674
425.605
3.40083
5.35705
21.5973
26.5446
24.5487
8.62744
18.5228
11.1417
13.0317
19.8337
30.1035
51.9744
74.5656
85.7906
80.3527
81.4277
84.3242
134.356
183.407
234.329
336.129
421.621
3.40916
5.35835
21.5624
26.554
24.5561
8.64438
18.4822
11.1666
12.9957
19.8681
30.1448
51.9971
74.5449
85.7549
80.2931
81.3837
84.1701
133.894
183.417
233.18
334.438
417.321
3.418
5.36005
21.5254
26.564
24.5635
8.66258
18.4386
11.1932
12.957
19.9052
30.1881
52.0225
74.5162
85.713
80.2382
81.35
84.0312
133.407
183.394
231.969
332.608
412.736
3.42723
5.36144
21.4869
26.575
24.5708
8.68172
18.3931
11.2217
12.916
19.9447
30.2329
52.0492
74.4767
85.6641
80.1875
81.3258
83.9004
132.897
183.322
230.722
330.653
407.818
3.43694
5.36325
21.4466
26.5863
24.578
8.70209
18.3448
11.2517
12.8722
19.9869
30.2793
52.0756
74.4237
85.6153
80.1467
81.3083
83.7745
132.376
183.224
229.421
328.581
402.607
3.447
5.36473
21.4049
26.5986
24.5851
8.72334
18.2948
11.2836
12.8264
20.0311
30.3275
52.098
74.3597
85.5634
80.1078
81.2965
83.6519
131.853
183.081
228.094
326.404
397.049
3.45751
5.36669
21.3616
26.6112
24.592
8.74574
18.2421
11.3168
12.7777
20.0776
30.3781
52.1132
74.2859
85.5144
80.0773
81.2889
83.5356
131.34
182.928
226.716
324.125
391.192
3.46834
5.36829
21.317
26.6245
24.5986
8.76897
18.1882
11.3516
12.7271
20.1259
30.4312
52.1185
74.2065
85.4588
80.0432
81.2872
83.4297
130.85
182.734
225.317
321.756
384.972
3.4796
5.37039
21.2709
26.6382
24.6049
8.7933
18.1317
11.3875
12.674
20.1762
30.486
52.1134
74.1213
85.4038
80.0171
81.2925
83.3428
130.395
182.542
223.868
319.294
378.444
3.49114
5.37213
21.2238
26.6525
24.611
8.8184
18.0743
11.4247
12.6196
20.2281
30.5416
52.0992
74.0328
85.3356
79.9829
81.3095
83.285
129.985
182.308
222.403
316.751
371.538
3.50308
5.37442
21.1752
26.667
24.6167
8.84455
18.0144
11.4625
12.5631
20.2818
30.5956
52.078
73.9375
85.2662
79.9591
81.3417
83.2736
129.632
182.078
220.888
314.119
364.323
3.51528
5.37632
21.1256
26.6821
24.6221
8.87141
17.9539
11.5014
12.5059
20.3371
30.6472
52.052
73.837
85.1764
79.9251
81.3975
83.3233
129.342
181.793
219.361
311.412
356.718
3.52785
5.37881
21.0747
26.6973
24.6271
8.89928
17.8912
11.5405
12.4474
20.3936
30.695
52.0224
73.7255
85.0852
79.9062
81.4837
83.4556
129.117
181.505
217.787
308.622
348.802
3.54067
5.3809
21.023
26.7129
24.6317
8.92782
17.828
11.5804
12.3888
20.4513
30.7403
51.9898
73.6058
84.9675
79.8742
81.6108
83.6788
128.957
181.141
216.204
305.766
340.484
3.55382
5.38365
20.97
26.7285
24.6358
8.9573
17.7628
11.6204
12.3297
20.5086
30.7829
51.9534
73.4706
84.8491
79.8625
81.7861
84.0089
128.857
180.761
214.574
302.829
331.847
3.5672
5.386
20.9163
26.7444
24.6396
8.98742
17.6974
11.6608
12.2714
20.5651
30.8261
51.9129
73.3247
84.696
79.8325
82.0152
84.4361
128.809
180.284
212.941
299.832
322.786
3.5809
5.38902
20.8615
26.7603
24.6429
9.01843
17.6301
11.7011
12.2133
20.6184
30.8688
51.866
73.1592
84.5419
79.825
82.2992
84.9637
128.803
179.78
211.257
296.755
313.388
3.59479
5.39161
20.8059
26.7764
24.6457
9.05004
17.5627
11.742
12.1567
20.6698
30.9151
51.8123
72.9817
84.3435
79.7873
82.6322
85.5609
128.831
179.165
209.573
293.618
303.533
3.609
5.39489
20.7494
26.7922
24.648
9.08248
17.4936
11.7825
12.1009
20.7173
30.9612
51.7495
72.7813
84.1434
79.7694
83.0057
86.2207
128.88
178.519
207.83
290.395
293.311
3.62337
5.39775
20.6922
26.8081
24.6499
9.11553
17.4246
11.8237
12.047
20.764
31.0116
51.6779
72.5686
83.8889
79.704
83.402
86.8992
128.943
177.757
206.085
287.108
282.589
3.63804
5.40141
20.6341
26.8237
24.6512
9.14934
17.354
11.8646
11.9943
20.8071
31.0598
51.5952
72.3314
83.6337
79.6526
83.8062
87.5873
129.007
176.965
204.27
283.724
271.456
3.65286
5.40477
20.5755
26.8392
24.6521
9.18371
17.2836
11.9062
11.9438
20.8512
31.112
51.503
72.0831
83.3178
79.5379
84.1975
88.2392
129.067
176.061
202.449
280.269
259.767
3.66796
5.40913
20.5161
26.8544
24.6523
9.21876
17.2117
11.9476
11.8947
20.8924
31.1597
51.3992
71.8111
83.0061
79.4331
84.5594
88.8503
129.112
175.132
200.545
276.701
247.611
3.68319
5.41325
20.4565
26.8694
24.6521
9.2543
17.1403
11.99
11.8478
20.9364
31.2104
51.2862
71.5317
82.6348
79.2585
84.8756
89.3829
129.136
174.102
198.631
273.048
234.829
3.69866
5.41823
20.3962
26.8841
24.6513
9.29046
17.0675
12.0322
11.8032
20.9767
31.2547
51.1626
71.2331
82.2769
79.0968
85.1372
89.8389
129.13
173.055
196.622
269.266
221.512
3.71423
5.42236
20.3355
26.8988
24.6503
9.32718
16.9955
12.0755
11.7651
21.0189
31.3011
51.0313
70.9327
81.8716
78.8743
85.339
90.1926
129.092
171.913
194.595
265.39
207.487
3.73003
5.4263
20.274
26.9129
24.6487
9.36463
16.9223
12.1185
11.7372
21.0533
31.3403
50.8923
70.6207
81.4925
78.6739
85.4863
90.4608
129.022
170.755
192.463
261.365
192.846
3.74595
5.42839
20.2117
26.9266
24.6468
9.40289
16.8499
12.1627
11.7256
21.088
31.3816
50.7485
70.3128
81.0847
78.4297
85.5728
90.6348
128.925
169.511
190.318
257.228
177.408
3.76216
5.43098
20.1479
26.9388
24.644
9.44235
16.7759
12.2073
11.7304
21.1147
31.4183
50.602
70.0025
80.7129
78.2125
85.6091
90.7414
128.782
168.273
188.086
252.9
161.254
3.77848
5.43586
20.0835
26.9492
24.6403
9.48333
16.7021
12.2549
11.7514
21.149
31.4611
50.4542
69.6997
80.3157
77.9536
85.5768
90.749
128.552
166.963
185.843
248.439
144.205
3.79494
5.44689
20.0202
26.9564
24.6352
9.52472
16.6283
12.3026
11.7793
21.1814
31.4993
50.3013
69.3873
79.9451
77.7169
85.5085
90.6927
128.248
165.667
183.42
243.806
126.235
3.81141
5.4579
19.9614
26.9599
24.6296
9.56218
16.56
12.3511
11.8224
21.2369
31.5391
50.132
69.0602
79.5332
77.4522
85.4467
90.6289
128.001
164.3
180.962
239.108
106.884
-25.8374
-56.3614
-22.1019
14.9645
62.136
41.429
73.0867
49.885
57.4467
48.2403
44.3554
35.6347
24.9708
24.8899
15.8286
14.9023
9.3623
4.91247
0.307366
-3.04709
-4.93862
-2.81875
0.116345
1.61047
4.0911
3.39771
4.00645
3.45491
5.6285
1.69825
2.89451
4.21026
0.939215
3.94318
1.14725
-25.9822
-56.3757
-22.0879
14.8498
62.0886
41.3933
73.0253
49.8709
57.4183
48.2279
44.3296
35.6369
24.9599
24.8844
15.8273
14.8982
9.35922
4.90899
0.301706
-3.05525
-4.94937
-2.82736
0.10997
1.60627
4.08846
3.39654
4.00533
3.45401
5.62649
1.6989
2.89434
4.20997
0.939368
3.94246
1.14709
-26.214
-56.4395
-22.1313
14.6813
62.0302
41.3315
72.9653
49.8317
57.3866
48.2058
44.3076
35.6197
24.9552
24.8768
15.8238
14.8942
9.35584
4.9057
0.296452
-3.06398
-4.96038
-2.83627
0.103199
1.6017
4.08571
3.39503
4.0039
3.45284
5.62524
1.69895
2.89416
4.2097
0.939231
3.94185
1.14687
-26.5005
-56.5396
-22.2591
14.4035
61.9306
41.2334
72.8767
49.7651
57.3401
48.1712
44.2798
35.5875
24.9486
24.8638
15.8178
14.8893
9.3521
4.9029
0.291787
-3.07264
-4.97153
-2.84527
0.0963863
1.59704
4.08277
3.39333
4.00239
3.45162
5.62387
1.69912
2.89406
4.20946
0.939181
3.94125
1.14668
-26.8329
-56.7108
-22.408
14.0139
61.7792
41.1043
72.7562
49.6738
57.2774
48.1224
44.2391
35.5461
24.9364
24.8427
15.807
14.8814
9.34683
4.89973
0.287119
-3.08131
-4.98233
-2.85399
0.0896046
1.59245
4.07963
3.39152
4.00078
3.45036
5.62216
1.69952
2.89405
4.20917
0.939266
3.94056
1.14651
-27.199
-56.9269
-22.5566
13.5234
61.5604
40.9373
72.6052
49.5601
57.1949
48.0556
44.1831
35.493
24.9139
24.8111
15.7897
14.869
9.33898
4.89529
0.281838
-3.09008
-4.99233
-2.86198
0.0830187
1.58796
4.07633
3.38966
3.99903
3.44905
5.61998
1.70021
2.89406
4.20876
0.939501
3.93968
1.14636
-27.5944
-57.1457
-22.724
12.9571
61.2809
40.7169
72.4132
49.4244
57.0939
47.9703
44.1051
35.4281
24.8769
24.7664
15.7638
14.8509
9.32763
4.88882
0.275247
-3.09939
-5.00178
-2.8694
0.0765195
1.5836
4.0729
3.38776
3.99718
3.44769
5.61753
1.7011
2.89411
4.20831
0.93981
3.9387
1.14623
-28.0009
-57.3796
-22.9441
12.3254
60.9656
40.4512
72.1769
49.254
56.9697
47.8721
44.0028
35.3501
24.8225
24.7067
15.7287
14.827
9.31299
4.88029
0.26734
-3.10899
-5.01015
-2.87578
0.070344
1.57938
4.06939
3.38586
3.99521
3.44627
5.61469
1.70223
2.89414
4.20775
0.940235
3.93754
1.14611
-28.4111
-57.6355
-23.1777
11.6529
60.5928
40.1233
71.897
49.0519
56.8191
47.7567
43.8864
35.2537
24.7479
24.6285
15.6823
14.7972
9.29529
4.86981
0.258069
-3.11899
-5.01769
-2.88132
0.0643516
1.57536
4.06581
3.38396
3.99322
3.44485
5.61169
1.70353
2.89419
4.20717
0.940702
3.93633
1.14602
-28.8059
-57.8972
-23.4593
10.9211
60.153
39.7133
71.5592
48.8175
56.6416
47.6161
43.7506
35.1329
24.6472
24.528
15.623
14.7619
9.27531
4.85793
0.248024
-3.12866
-5.02352
-2.88528
0.0588826
1.57158
4.06222
3.38214
3.99115
3.4434
5.60833
1.70504
2.8942
4.20648
0.941277
3.93493
1.14594
-29.1829
-58.149
-23.7632
10.1293
59.6321
39.1944
71.1428
48.5347
56.4312
47.4524
43.5767
34.9921
24.5129
24.3987
15.5473
14.7201
9.25317
4.8449
0.237353
-3.13801
-5.02788
-2.88794
0.0537931
1.56813
4.05866
3.38042
3.98913
3.44198
5.60484
1.70672
2.89422
4.20576
0.941882
3.93348
1.14589
-29.5259
-58.3773
-24.1482
9.24574
59.0377
38.5599
70.6343
48.1852
56.1743
47.2627
43.371
34.8455
24.3428
24.2355
15.4527
14.6721
9.22938
4.83114
0.226699
-3.14609
-5.02957
-2.88834
0.0495422
1.56509
4.05521
3.37886
3.98708
3.44057
5.60095
1.70862
2.89419
4.2049
0.942604
3.93183
1.14585
-29.837
-58.5826
-24.5652
8.28644
58.3603
37.7949
70.0232
47.7641
55.8667
47.0409
43.1393
34.6881
24.1497
24.0324
15.3362
14.6171
9.20387
4.81669
0.21602
-3.15307
-5.02896
-2.88687
0.0459458
1.56256
4.05191
3.3775
3.98514
3.43924
5.59698
1.71066
2.89417
4.20402
0.943348
3.93013
1.14585
-30.0963
-58.7562
-25.0759
7.22478
57.6233
36.9251
69.3089
47.2669
55.501
46.7801
42.8725
34.5176
23.9511
23.793
15.1982
14.5564
9.17711
4.80186
0.205865
-3.15792
-5.02468
-2.88231
0.0435544
1.56063
4.04887
3.37641
3.98324
3.43794
5.59259
1.71292
2.89409
4.20298
0.944213
3.9282
1.14586
-30.3061
-58.9038
-25.5841
6.11786
56.8469
35.9906
68.5096
46.7093
55.0831
46.4851
42.5752
34.3311
23.753
23.5313
15.0412
14.4902
9.14916
4.78666
0.196086
-3.16108
-5.01732
-2.87525
0.0421314
1.55943
4.04612
3.37561
3.98151
3.43677
5.58815
1.71532
2.89401
4.20191
0.945093
3.92622
1.14591
-30.4519
-59.0142
-26.1226
4.98112
56.1029
35.0976
67.6721
46.1181
54.62
46.1624
42.2482
34.1386
23.5536
23.273
14.8736
14.4206
9.1205
4.77122
0.187194
-3.16152
-5.00542
-2.86435
0.0423138
1.55904
4.04379
3.37518
3.97986
3.43566
5.58327
1.71791
2.89385
4.20067
0.946103
3.924
1.14596
-30.5435
-59.1023
-26.5097
3.94248
55.4469
34.3512
66.8656
45.5537
54.1429
45.8345
41.9093
33.9537
23.3678
23.0364
14.7058
14.3489
9.09134
4.75564
0.178967
-3.15977
-4.98991
-2.85047
0.0437693
1.55958
4.04189
3.37512
3.97844
3.43471
5.57839
1.72062
2.8937
4.1994
0.947123
3.92172
1.14606
-30.5669
-59.147
-26.7411
3.06211
54.9654
33.8763
66.1679
45.0769
53.6815
45.5237
41.5759
33.8007
23.215
22.839
14.5519
14.2776
9.06196
4.73991
0.171729
-3.15486
-4.96931
-2.83217
0.0471732
1.56112
4.04052
3.3755
3.97713
3.43383
5.57304
1.72353
2.89346
4.19794
0.94828
3.91916
1.14617
-30.5365
-59.1622
-26.6281
2.48156
54.6894
33.7167
65.6375
44.7505
53.2815
45.2617
41.2918
33.6905
23.116
22.6956
14.4235
14.2086
9.03269
4.72434
0.165275
-3.14752
-4.94487
-2.81065
0.0520765
1.56377
4.0397
3.3763
3.97609
3.43314
5.56773
1.72654
2.89323
4.19645
0.949443
3.91656
1.14632
-30.4441
-59.1771
-26.2806
2.21192
54.6517
33.877
65.2956
44.5912
52.9624
45.0622
41.0651
33.6326
23.0774
22.6225
14.3324
14.1442
9.00355
4.70866
0.159859
-3.1371
-4.91514
-2.78447
0.0591661
1.56756
4.03949
3.37758
3.97516
3.43252
5.56193
1.72974
2.8929
4.19475
0.95076
3.91364
1.14648
-30.3124
-59.1912
-25.6615
2.33074
54.8123
34.265
65.119
44.5884
52.7387
44.9327
40.9023
33.623
23.0981
22.6207
14.2833
14.0859
8.97492
4.69335
0.155487
-3.12438
-4.88172
-2.75507
0.0678568
1.57258
4.03989
3.37929
3.97452
3.43209
5.5562
1.73302
2.89257
4.19304
0.95208
3.91068
1.14669
-30.1347
-59.2204
-25.0153
2.76432
55.1584
34.8016
65.0572
44.6844
52.5849
44.8535
40.7763
33.6511
23.1583
22.6785
14.2764
14.0352
8.94644
4.67782
0.152185
-3.10883
-4.84337
-2.72102
0.0788214
1.57878
4.04093
3.38146
3.97397
3.43174
5.54996
1.73649
2.89215
4.19109
0.95357
3.90736
1.14691
-29.929
-59.2934
-24.3253
3.53641
55.63
35.388
65.057
44.8309
52.4809
44.8056
40.6761
33.6927
23.2346
22.7688
14.3039
13.9924
8.91857
4.66254
0.149918
-3.091
-4.80198
-2.68404
0.0913799
1.5862
4.04259
3.38404
3.9737
3.43155
5.54381
1.74004
2.89174
4.18913
0.955065
3.904
1.14718
-29.6828
-59.4255
-23.7917
4.5347
56.2231
36.0047
65.084
44.9806
52.3903
44.7606
40.5723
33.7245
23.2999
22.8629
14.354
13.9576
8.89116
4.64669
0.148451
-3.07075
-4.75637
-2.64288
0.106226
1.59477
4.04486
3.38704
3.97349
3.43141
5.53711
1.74377
2.89123
4.18691
0.956753
3.90024
1.14747
-29.4133
-59.6468
-23.3062
5.75042
56.8852
36.6115
65.1183
45.1214
52.3024
44.71
40.465
33.7323
23.3402
22.936
14.4107
13.9299
8.86475
4.63115
0.147736
-3.04886
-4.70858
-2.59946
0.122609
1.6045
4.0477
3.39038
3.97351
3.43143
5.53053
1.74756
2.89073
4.1847
0.95845
3.89643
1.14782
-29.1074
-59.9964
-23.0058
7.01498
57.6129
37.216
65.1513
45.2414
52.2004
44.6449
40.3428
33.7141
23.3498
22.977
14.4602
13.9073
8.83941
4.61549
0.147539
-3.02551
-4.65758
-2.55251
0.141163
1.61535
4.05108
3.39407
3.97355
3.43146
5.52335
1.75154
2.89012
4.1822
0.960366
3.89218
1.14818
-28.7835
-60.4876
-22.7433
8.28129
58.3372
37.7734
65.1657
45.3422
52.0878
44.5696
40.2171
33.674
23.3355
22.9843
14.4917
13.8872
8.81569
4.60073
0.148148
-3.00145
-4.6057
-2.50396
0.161003
1.62734
4.05495
3.39803
3.97377
3.43161
5.51632
1.75557
2.88954
4.1797
0.962297
3.88787
1.14863
-28.4287
-61.1193
-22.6224
9.40172
59.0399
38.2822
65.1503
45.4157
51.9573
44.4819
40.082
33.6191
23.3034
22.9652
14.5025
13.8659
8.79341
4.58643
0.149583
-2.97685
-4.5522
-2.45265
0.182673
1.64037
4.05925
3.40224
3.97394
3.43173
5.50864
1.7598
2.88885
4.1769
0.964482
3.88306
1.14908
-28.0641
-61.8511
-22.5659
10.3805
59.6554
38.7039
65.0896
45.4626
51.8142
44.3876
39.948
33.5557
23.2629
22.928
14.4936
13.8408
8.77202
4.57333
0.152012
-2.95233
-4.4996
-2.40066
0.205306
1.65427
4.06394
3.40664
3.97425
3.43194
5.50112
1.76408
2.88819
4.1741
0.966692
3.87819
1.14963
-27.6776
-62.5839
-22.5795
11.1842
60.1949
39.057
64.9852
45.4811
51.654
44.2854
39.8087
33.4872
23.2167
22.8812
14.4704
13.8096
8.75019
4.56052
0.155136
-2.92804
-4.44726
-2.347
0.229556
1.66878
4.06894
3.4112
3.97445
3.43206
5.49289
1.76857
2.88741
4.17095
0.969194
3.87273
1.15019
-27.291
-63.2565
-22.5068
11.8598
60.6342
39.3326
64.835
45.4754
51.4807
44.1778
39.6717
33.4132
23.169
22.8282
14.4368
13.7715
8.72653
4.54785
0.158792
-2.90483
-4.39771
-2.2939
0.25466
1.68387
4.07422
3.41586
3.97473
3.43222
5.48482
1.77312
2.88668
4.16781
0.971732
3.86721
1.15086
-26.8921
-63.8832
-22.4416
12.3924
60.9847
39.5535
64.6485
45.4495
51.2933
44.0617
39.5327
33.3343
23.1191
22.7729
14.3986
13.7279
8.70108
4.53473
0.162538
-2.88283
-4.35036
-2.24036
0.281199
1.69964
4.07966
3.4206
3.97482
3.43224
5.47598
1.7779
2.88583
4.16427
0.974607
3.86102
1.15155
-26.5051
-64.4968
-22.3111
12.8269
61.2211
39.7175
64.4289
45.4109
51.0988
43.9409
39.3995
33.2564
23.0712
22.7175
14.3589
13.6809
8.67402
4.52141
0.165981
-2.86292
-4.30763
-2.1886
0.308187
1.71615
4.08526
3.42536
3.97493
3.43225
5.46729
1.78274
2.88504
4.16073
0.977531
3.85473
1.15236
-26.1203
-64.9661
-22.1923
13.1758
61.366
39.8428
64.182
45.3597
50.8967
43.8179
39.2663
33.1837
23.0273
22.6653
14.3212
13.6329
8.64666
4.50837
0.169357
-2.84444
-4.2687
-2.13757
0.336103
1.73322
4.09092
3.43013
3.97478
3.43203
5.45777
1.78785
2.88412
4.15671
0.980826
3.84763
1.15319
-25.7587
-65.2408
-22.0433
13.4698
61.424
39.9356
63.9162
45.3038
50.6963
43.6972
39.1323
33.1082
22.9864
22.6147
14.2845
13.5846
8.61806
4.49492
0.172504
-2.82788
-4.23535
-2.08957
0.364017
1.75056
4.09659
3.43485
3.97459
3.43172
5.44837
1.79307
2.88328
4.15267
0.984179
3.84039
1.15416
-25.3994
-65.3873
-21.8887
13.6861
61.3923
39.9929
63.6293
45.2403
50.4898
43.5725
38.9954
33.0287
22.9451
22.5639
14.2481
13.5353
8.58828
4.48084
0.175601
-2.81231
-4.20611
-2.0436
0.392608
1.76796
4.1022
3.43952
3.97407
3.4311
5.43793
1.79864
2.8823
4.14811
0.987982
3.83222
1.15516
-25.0661
-65.5525
-21.7458
13.8498
61.2649
40.0087
63.3191
45.1712
50.2801
43.4459
38.8618
32.9489
22.906
22.5135
14.2122
13.4853
8.55745
4.46588
0.177943
-2.79847
-4.18207
-2.00174
0.420948
1.78544
4.10769
3.44407
3.97343
3.43031
5.42752
1.80437
2.88143
4.14347
0.991862
3.82384
1.15631
-24.7373
-65.6169
-21.5961
14
61.0764
40.0014
62.9929
45.0995
50.0679
43.3188
38.7292
32.8697
22.8684
22.4648
14.1784
13.4361
8.52714
4.45117
0.180123
-2.78532
-4.16101
-1.96253
0.449743
1.80301
4.113
3.44849
3.97234
3.42906
5.41604
1.81048
2.88039
4.13809
0.996237
3.81421
1.15746
-24.4282
-65.6117
-21.3246
14.1869
60.8416
39.981
62.6591
45.0327
49.8595
43.1949
38.6008
32.7921
22.834
22.4176
14.146
13.3874
8.49726
4.43694
0.182195
-2.77317
-4.14322
-1.92744
0.478033
1.82073
4.11805
3.45274
3.97105
3.4275
5.4046
1.81681
2.87946
4.13258
1.00068
3.80427
1.15878
-24.108
-65.6063
-20.9123
14.3972
60.5708
39.956
62.3201
44.9726
49.6569
43.0763
38.4756
32.7174
22.8028
22.3726
14.1161
13.3402
8.46862
4.42387
0.185011
-2.76075
-4.12631
-1.89448
0.506577
1.8385
4.12274
3.45682
3.9692
3.42529
5.3917
1.82354
2.87835
4.12624
1.00565
3.79295
1.16011
-23.7982
-65.6128
-20.332
14.6416
60.2434
39.9154
61.9663
44.9123
49.4572
42.9596
38.353
32.6425
22.7746
22.3284
14.087
13.2934
8.44024
4.41137
0.188067
-2.74879
-4.11097
-1.86458
0.534381
1.8563
4.12689
3.46068
3.96711
3.42254
5.37852
1.83049
2.87734
4.11982
1.01059
3.78132
1.16166
-23.451
-65.5689
-19.5912
14.9165
59.8486
39.8524
61.5902
44.8392
49.2528
42.8383
38.228
32.5635
22.7484
22.2844
14.059
13.2478
8.41288
4.39981
0.191336
-2.73697
-4.09556
-1.83536
0.562254
1.87381
4.1304
3.46435
3.96435
3.41884
5.36362
1.838
2.87607
4.11264
1.01612
3.76829
1.16324
-23.0013
-65.4998
-18.7159
15.2289
59.382
39.7497
61.1927
44.7429
49.041
42.7096
38.1001
32.4759
22.7229
22.238
14.0286
13.2011
8.385
4.38749
0.192815
-2.72721
-4.08088
-1.80667
0.589825
1.89163
4.13381
3.46808
3.96145
3.41473
5.34941
1.84559
2.87485
4.10503
1.02165
3.75444
1.16489
-22.2119
-65.4256
-17.6767
15.6122
58.9269
39.632
60.8007
44.6408
48.8332
42.5826
37.9729
32.3886
22.6995
22.1919
13.9978
13.1541
8.35668
4.37369
0.192219
-2.71615
-4.05855
-1.76798
0.623658
1.91327
4.13818
3.47281
3.95814
3.40977
5.33216
1.85492
2.87367
4.09557
1.02862
3.7371
1.16657
3.82446
5.46312
19.9178
26.9611
24.6254
9.586
16.5128
12.3864
11.9015
21.3208
31.5564
49.9094
68.6549
79.0856
77.2415
85.5951
90.825
128.293
163.176
179.039
235.186
87.2501
3.83407
5.46423
19.8871
26.9615
24.6219
9.59907
16.4838
12.4135
12.0265
21.4474
31.5637
49.654
68.2152
78.5681
77.0172
85.8708
91.1867
128.968
162.248
177.836
231.987
82.6737
3.8442
5.46656
19.8556
26.9608
24.6156
9.61307
16.4609
12.4326
12.1492
21.586
31.5625
49.3806
67.7416
78.0642
76.8351
86.1827
91.5889
129.649
161.355
176.418
228.95
82.7021
3.85483
5.46823
19.8229
26.9592
24.6074
9.62914
16.4402
12.4525
12.2853
21.7475
31.5693
49.1104
67.2766
77.524
76.6022
86.4348
91.9079
130.216
160.442
174.894
226.068
82.0005
3.86603
5.47126
19.7884
26.957
24.5978
9.64824
16.4147
12.4671
12.416
21.9004
31.5752
48.8498
66.8162
77.036
76.4113
86.667
92.1848
130.681
159.586
173.253
222.892
80.0539
3.87775
5.4739
19.7524
26.9546
24.5883
9.66973
16.3854
12.4886
12.5693
22.0686
31.5904
48.5955
66.3737
76.5253
76.1907
86.8757
92.4179
131.069
158.676
171.666
219.452
77.7198
3.8901
5.47793
19.7144
26.9518
24.5778
9.69384
16.3508
12.506
12.7159
22.2236
31.6027
48.3473
65.9317
76.0656
76.0205
87.0902
92.6419
131.383
157.783
169.979
215.759
75.6904
3.903
5.48157
19.6746
26.9489
24.5672
9.72025
16.3151
12.5323
12.8848
22.3931
31.6222
48.1009
65.4999
75.5703
75.8164
87.2913
92.8353
131.636
156.814
168.299
211.982
73.9267
3.91657
5.48671
19.6326
26.9457
24.555
9.74952
16.2749
12.5537
13.0411
22.5481
31.6372
47.8569
65.0605
75.1168
75.6573
87.5025
93.0244
131.829
155.85
166.498
208.067
72.3066
3.93074
5.4915
19.5885
26.9424
24.5425
9.78163
16.2331
12.5843
13.2147
22.7169
31.6585
47.6127
64.6274
74.6177
75.457
87.7024
93.1865
131.969
154.806
164.693
204.091
70.5146
3.94562
5.49783
19.542
26.9388
24.5283
9.81716
16.1859
12.6095
13.369
22.8679
31.6743
47.3693
64.1832
74.1577
75.2999
87.915
93.3485
132.057
153.762
162.771
199.955
68.4836
3.96114
5.50385
19.4932
26.9352
24.5137
9.85627
16.136
12.6433
13.5349
23.0289
31.6954
47.1248
63.7451
73.6467
75.0953
88.1162
93.4854
132.097
152.631
160.842
195.727
66.1198
3.97743
5.51154
19.4417
26.9313
24.4973
9.89946
16.0792
12.6732
13.6765
23.1669
31.7094
46.8802
63.2952
73.175
74.9325
88.3288
93.6226
132.091
151.491
158.799
191.322
63.5583
3.9944
5.51896
19.3876
26.9274
24.4806
9.94682
16.018
12.7113
13.8227
23.3099
31.7266
46.6339
62.8524
72.6493
74.7169
88.5251
93.732
132.038
150.253
156.746
186.816
60.8395
4.01219
5.52817
19.3304
26.9231
24.4619
9.99859
15.9491
12.7478
13.9429
23.4241
31.7344
46.3869
62.3991
72.1646
74.5423
88.7264
93.8388
131.939
149
154.579
182.133
58.126
4.03071
5.53714
19.2704
26.9189
24.443
10.0548
15.8753
12.7911
14.0628
23.536
31.7432
46.1381
61.9558
71.6281
74.3097
88.9015
93.9109
131.791
147.639
152.399
177.351
55.4371
4.05011
5.54806
19.207
26.9142
24.422
10.1155
15.794
12.834
14.1598
23.6146
31.7404
45.8885
61.5054
71.1358
74.1157
89.0705
93.9715
131.595
146.254
150.106
172.402
52.8721
4.07028
5.5588
19.1404
26.9095
24.4008
10.1808
15.7082
12.8812
14.254
23.6857
31.7362
45.6375
61.0678
70.5958
73.8631
89.2004
93.9868
131.343
144.752
147.798
167.361
50.3998
4.09138
5.57164
19.0702
26.9042
24.3775
10.2505
15.6158
12.927
14.332
23.7231
31.7198
45.3866
60.6279
70.1032
73.6474
89.3097
93.9813
131.038
143.219
145.38
162.162
48.0691
4.1133
5.58437
18.9963
26.8988
24.354
10.3247
15.5197
12.9738
14.408
23.7498
31.7025
45.1356
60.2046
69.5731
73.3736
89.3662
93.9201
130.668
141.56
142.946
156.878
45.8285
4.13622
5.59938
18.9185
26.8927
24.3284
10.4033
15.4174
13.0174
14.4754
23.7477
31.675
44.8868
59.785
69.0927
73.1339
89.3899
93.8272
130.235
139.863
140.403
151.447
43.7076
4.16
5.61437
18.8367
26.8863
24.3026
10.4865
15.3115
13.0602
14.5415
23.7363
31.6479
44.6417
59.3847
68.585
72.8438
89.3509
93.6699
129.726
138.035
137.846
145.945
41.6558
4.18483
5.63192
18.7506
26.8789
24.2746
10.5741
15.1994
13.1002
14.6033
23.7048
31.6144
44.4036
58.9947
68.1266
72.5858
89.2703
93.4748
129.147
136.164
135.185
140.31
39.694
4.21058
5.6496
18.6602
26.8709
24.2465
10.6663
15.084
13.1409
14.6613
23.6678
31.5826
44.1745
58.6269
67.6533
72.2844
89.1215
93.2113
128.478
134.156
132.51
134.619
37.7763
4.23744
5.67003
18.5653
26.8616
24.2159
10.7629
14.9622
13.1816
14.7131
23.62
31.5466
43.9581
58.2767
67.2266
72.01
88.9267
92.9066
127.731
132.104
129.732
128.817
35.9187
4.26526
5.69069
18.4657
26.8514
24.1854
10.8642
14.8378
13.2248
14.7565
23.5712
31.511
43.7542
57.9517
66.7961
71.701
88.6602
92.5331
126.886
129.916
126.942
122.988
34.0795
4.29426
5.7144
18.3613
26.8393
24.1522
10.9697
14.7077
13.2687
14.7899
23.519
31.472
43.564
57.6513
66.4095
71.4138
88.3447
92.1171
125.953
127.687
124.052
117.073
32.2637
4.32425
5.7385
18.2519
26.8259
24.1192
11.0802
14.5758
13.3151
14.8121
23.4694
31.4318
43.3826
57.3781
66.0297
71.1004
87.9578
91.6325
124.912
125.325
121.15
111.163
30.4268
4.35548
5.76591
18.1377
26.8102
24.0833
11.1946
14.4391
13.3612
14.823
23.4216
31.3895
43.2091
57.1302
65.6914
70.8051
87.5217
91.1051
123.777
122.927
118.148
105.204
28.5652
4.38776
5.79387
18.0181
26.7927
24.0476
11.3139
14.3018
13.4094
14.8236
23.3781
31.3455
43.0367
56.9026
65.3658
70.492
87.0166
90.5127
122.527
120.407
115.135
99.2927
26.6383
4.42134
5.82551
17.8935
26.7721
24.0087
11.4369
14.1607
13.4566
14.8155
23.3382
31.3017
42.8657
56.6905
65.0764
70.1935
86.463
89.8797
121.178
117.858
112.022
93.3718
24.635
4.45599
5.85787
17.7634
26.7491
23.97
11.5647
14.0202
13.5053
14.8027
23.3014
31.2567
42.691
56.484
64.7981
69.8817
85.8447
89.1867
119.707
115.2
108.896
87.5445
22.5141
4.492
5.89417
17.6285
26.7223
23.9277
11.6958
13.8769
13.5521
14.7874
23.2654
31.213
42.5183
56.2772
64.5447
69.5804
85.1806
88.4559
118.128
112.522
105.674
81.7528
20.2631
4.52913
5.93134
17.4878
26.6924
23.8857
11.8315
13.7357
13.5997
14.7729
23.2287
31.1661
42.3478
56.06
64.2922
69.2662
84.458
87.671
116.418
109.753
102.441
76.1051
17.8539
4.56767
5.97284
17.3424
26.6578
23.8396
11.9701
13.5926
13.6443
14.7595
23.1886
31.1185
42.189
55.83
64.0468
68.9547
83.6921
86.8525
114.592
106.975
99.1186
70.5378
15.28
4.60735
6.01538
17.1914
26.6193
23.7936
12.1132
13.4529
13.6891
14.7494
23.1445
31.0657
42.0415
55.582
63.786
68.6231
82.8709
85.9859
112.628
104.122
95.7905
65.1603
12.5239
4.6485
6.06244
17.0362
26.5752
23.7431
12.2583
13.3124
13.7299
14.7418
23.0947
31.0119
41.9103
55.3195
63.5131
68.2791
82.0033
85.0881
110.541
101.271
92.383
59.9035
9.5868
4.69082
6.1106
16.8755
26.5263
23.6925
12.4076
13.1767
13.7705
14.7389
23.0391
30.9529
41.7887
55.0429
63.2098
67.901
81.0747
84.1427
108.312
98.3617
88.9769
54.8743
6.47635
4.73466
6.1636
16.7111
26.4707
23.6367
12.5581
13.0412
13.8064
14.7391
22.9767
30.894
41.6774
54.7582
62.8801
67.4934
80.0892
83.1586
105.956
95.4546
85.5019
49.9983
3.21383
4.77969
6.21773
16.5416
26.4095
23.5807
12.7124
12.9119
13.8416
14.7447
22.9072
30.8295
41.5685
54.4628
62.5132
67.0387
79.0355
82.1141
103.458
92.4952
82.029
45.3756
-0.171764
4.82627
6.2767
16.3694
26.3407
23.5189
12.8667
12.7837
13.8713
14.753
22.8293
30.7696
41.4651
54.1568
62.1154
66.5417
77.9209
81.0115
100.835
89.5293
78.4907
40.9277
-3.64783
4.87405
6.3367
16.1925
26.2653
23.4565
13.024
12.6631
13.9001
14.7655
22.7405
30.715
41.3585
53.8304
61.6769
65.9915
76.7415
79.8309
98.0791
86.5099
74.9461
36.7421
-7.15932
4.92342
6.40166
16.014
26.1812
23.3876
13.1802
12.5444
13.9228
14.7789
22.6359
30.6839
41.2518
53.482
61.2015
65.3939
75.5055
78.5756
95.2113
83.4674
71.3319
32.7409
-10.6594
4.974
6.46747
15.8316
26.0896
23.3179
13.3386
12.4346
13.9444
14.7957
22.5256
30.6678
41.1311
53.1011
60.6773
64.7398
74.2131
77.2309
92.2324
80.3643
67.6972
28.9966
-14.0799
5.02619
6.53799
15.6489
25.9884
23.241
13.4944
12.3272
13.9593
14.8136
22.4187
30.6657
40.9979
52.6899
60.1117
64.0374
72.8717
75.8033
89.1649
77.2305
63.9883
25.4261
-17.3847
5.0796
6.60904
15.4632
25.8789
23.1631
13.6513
12.2299
13.9732
14.8353
22.3139
30.6578
40.84
52.2426
59.4956
63.2807
71.4825
74.286
86.0154
74.0492
60.2502
22.0751
-20.5003
5.13462
6.68458
15.2787
25.7589
23.0773
13.8039
12.1354
13.9801
14.8578
22.2115
30.6504
40.667
51.7676
58.8425
62.4834
70.0543
72.691
82.812
70.8479
56.4446
18.8587
-23.408
5.19085
6.7602
15.0921
25.6298
22.9901
13.9565
12.052
13.9861
14.8834
22.1106
30.631
40.4698
51.2604
58.1456
61.6383
68.5889
71.0159
79.567
67.6176
52.6179
15.8134
-26.0466
5.24869
6.83979
14.9085
25.4895
22.8945
14.1029
11.9716
13.9848
14.9088
22.0134
30.6103
40.2601
50.7279
57.4186
60.7571
67.0921
69.273
76.3022
64.3773
48.7523
12.8711
-28.4431
5.30771
6.91888
14.7237
25.3396
22.7974
14.2481
11.9032
13.9833
14.9357
21.9197
30.5749
40.0266
50.1632
56.6491
59.8275
65.5599
67.4584
73.0199
61.1205
44.9002
10.0563
-30.5375
5.36833
7.00145
14.5435
25.1779
22.6913
14.385
11.8377
13.9744
14.9614
21.8314
30.5359
39.7798
49.5732
55.8484
58.859
63.9938
65.5792
69.7336
57.8534
41.059
7.31251
-32.3729
5.4301
7.08288
14.3632
25.006
22.5836
14.5194
11.7849
13.9656
14.9869
21.7474
30.4797