/*--------------------------------*- C++ -*----------------------------------*\
| =========                 |                                                 |
| \\      /  F ield         | OpenFOAM: The Open Source CFD Toolbox           |
|  \\    /   O peration     | Version:  v1912                                 |
|   \\  /    A nd           | Website:  www.openfoam.com                      |
|    \\/     M anipulation  |                                                 |
\*---------------------------------------------------------------------------*/
FoamFile
{
    version     2.0;
    format      ascii;
    class       surfaceScalarField;
    location    "20";
    object      phi;
}
// * * * * * * * * * * * * * * * * * * * * * * * * * * * * * * * * * * * * * //

dimensions      [0 3 -1 0 0 0 0];
oriented        oriented;


internalField   nonuniform List<scalar> 
24588
(
6.94967e-05
-2.00714e-06
7.03319e-05
-4.66603e-06
7.05701e-05
4.89973e-07
6.9772e-05
8.77969e-07
7.03486e-05
9.82214e-07
6.92185e-05
4.05812e-07
6.8988e-05
1.38803e-06
6.84946e-05
1.39882e-06
6.74317e-05
3.90093e-07
6.67003e-05
1.4778e-06
6.55943e-05
4.40696e-07
6.53385e-05
-2.09525e-07
6.43367e-05
4.32181e-07
6.41847e-05
5.54688e-07
6.46617e-05
1.52575e-07
6.42084e-05
-3.43559e-07
6.18113e-05
2.11717e-06
5.77234e-05
4.34858e-06
5.21981e-05
5.95759e-06
4.05097e-05
1.13961e-05
2.55259e-05
1.48505e-05
2.56574e-05
6.97299e-05
-4.35669e-06
7.08052e-05
-1.03328e-05
7.08967e-05
1.5374e-06
6.97618e-05
2.24598e-06
7.01436e-05
2.54758e-06
6.90342e-05
5.21613e-07
6.84214e-05
3.52793e-06
6.79472e-05
2.87176e-06
6.6535e-05
1.09161e-06
6.59165e-05
2.89177e-06
6.49566e-05
5.86345e-07
6.50317e-05
-8.62175e-07
6.39877e-05
8.24156e-07
6.39395e-05
9.50343e-07
6.44239e-05
3.11494e-07
6.3631e-05
-3.30156e-07
6.32096e-05
2.13006e-06
5.60625e-05
1.19221e-05
5.15239e-05
1.11578e-05
4.04807e-05
2.20183e-05
2.55063e-05
2.96324e-05
5.13703e-05
6.95103e-05
-6.38163e-06
7.04318e-05
-1.52634e-05
7.07134e-05
2.1004e-06
6.97614e-05
3.24611e-06
7.01013e-05
4.07992e-06
6.90015e-05
8.01501e-07
6.84101e-05
5.40934e-06
6.79625e-05
4.38439e-06
6.65905e-05
1.63133e-06
6.59039e-05
4.43039e-06
6.48206e-05
9.30579e-07
6.47999e-05
-1.32784e-06
6.36382e-05
1.35366e-06
6.34249e-05
1.66708e-06
6.38806e-05
5.8104e-07
6.3164e-05
-4.94394e-07
6.28807e-05
2.01845e-06
5.5803e-05
1.93339e-05
5.10652e-05
1.66553e-05
4.03755e-05
3.22036e-05
2.54492e-05
4.43228e-05
7.70608e-05
6.95477e-05
-8.45787e-06
7.03523e-05
-2.02029e-05
7.03477e-05
3.26894e-06
6.92169e-05
4.64317e-06
6.96148e-05
5.63686e-06
6.85395e-05
8.72471e-07
6.79544e-05
7.53085e-06
6.75096e-05
5.76866e-06
6.61354e-05
2.30385e-06
6.55609e-05
5.74642e-06
6.45954e-05
1.05492e-06
6.46393e-05
-1.93774e-06
6.35856e-05
1.74308e-06
6.35505e-05
2.03295e-06
6.40009e-05
7.62367e-07
6.32127e-05
-4.82236e-07
6.28431e-05
1.97986e-06
5.5776e-05
2.67413e-05
5.08484e-05
2.21961e-05
4.02603e-05
4.24246e-05
2.53659e-05
5.90505e-05
0.000102614
6.9331e-05
-1.0214e-05
7.00565e-05
-2.4445e-05
7.03233e-05
3.73286e-06
6.93771e-05
5.606e-06
6.96677e-05
7.22068e-06
6.85692e-05
1.21008e-06
6.79912e-05
9.3132e-06
6.75899e-05
7.20036e-06
6.62784e-05
2.71121e-06
6.56164e-05
7.23281e-06
6.45033e-05
1.42736e-06
6.44343e-05
-2.31451e-06
6.32437e-05
2.29729e-06
6.29864e-05
2.81678e-06
6.34228e-05
1.09428e-06
6.27231e-05
-7.02137e-07
6.24451e-05
1.87684e-06
5.56228e-05
3.38217e-05
5.06589e-05
2.78447e-05
4.01768e-05
5.2466e-05
2.52985e-05
7.37069e-05
0.000128128
6.94165e-05
-1.20916e-05
7.00161e-05
-2.88594e-05
6.99223e-05
5.0103e-06
6.87766e-05
7.04997e-06
6.91696e-05
8.81701e-06
6.81109e-05
1.25829e-06
6.75415e-05
1.14459e-05
6.71301e-05
8.49616e-06
6.58034e-05
3.3338e-06
6.52917e-05
8.43634e-06
6.43366e-05
1.50561e-06
6.43478e-05
-2.8733e-06
6.32886e-05
2.68954e-06
6.32673e-05
3.14178e-06
6.37272e-05
1.24327e-06
6.29074e-05
-6.5084e-07
6.2445e-05
1.96359e-06
5.56288e-05
4.08967e-05
5.05212e-05
3.3473e-05
4.00955e-05
6.25873e-05
2.52475e-05
8.84158e-05
0.000153536
6.91949e-05
-1.36455e-05
6.97642e-05
-3.25428e-05
7.00215e-05
5.40119e-06
6.90799e-05
7.95777e-06
6.93029e-05
1.04913e-05
6.81773e-05
1.70241e-06
6.75891e-05
1.31927e-05
6.72179e-05
9.87566e-06
6.59423e-05
3.65146e-06
6.52955e-05
9.89607e-06
6.41587e-05
1.89512e-06
6.40537e-05
-3.17503e-06
6.28194e-05
3.28252e-06
6.25084e-05
4.03131e-06
6.29589e-05
1.58386e-06
6.223e-05
-8.59516e-07
6.18844e-05
1.97866e-06
5.54419e-05
4.75305e-05
5.03546e-05
3.91493e-05
4.00411e-05
7.25192e-05
2.52208e-05
0.000103032
0.000178952
6.93164e-05
-1.53737e-05
6.97599e-05
-3.65576e-05
6.95979e-05
6.76044e-06
6.84483e-05
9.43095e-06
6.88327e-05
1.21328e-05
6.77813e-05
1.74747e-06
6.72095e-05
1.53596e-05
6.68178e-05
1.11038e-05
6.55167e-05
4.2518e-06
6.50456e-05
1.10171e-05
6.40922e-05
1.94139e-06
6.40608e-05
-3.66403e-06
6.29814e-05
3.70179e-06
6.29802e-05
4.30868e-06
6.3468e-05
1.65502e-06
6.25012e-05
-6.35591e-07
6.17671e-05
2.4344e-06
5.53989e-05
5.40824e-05
5.02178e-05
4.47298e-05
3.99853e-05
8.25234e-05
2.521e-05
0.000117697
0.000204299
6.90911e-05
-1.67732e-05
6.95707e-05
-3.98541e-05
6.98364e-05
7.03398e-06
6.88875e-05
1.03167e-05
6.90405e-05
1.38897e-05
6.79034e-05
2.26944e-06
6.73119e-05
1.70354e-05
6.69758e-05
1.2422e-05
6.57343e-05
4.47267e-06
6.50929e-05
1.24562e-05
6.39324e-05
2.35228e-06
6.37941e-05
-3.89764e-06
6.2521e-05
4.33514e-06
6.21984e-05
5.25576e-06
6.25939e-05
2.04923e-06
6.18081e-05
-6.27526e-07
6.1103e-05
2.92824e-06
5.5257e-05
6.00546e-05
5.00706e-05
5.03617e-05
3.99499e-05
9.2336e-05
2.52199e-05
0.000132233
0.000229695
6.92319e-05
-1.8375e-05
6.95557e-05
-4.35597e-05
6.93531e-05
8.42797e-06
6.82181e-05
1.18004e-05
6.85985e-05
1.55612e-05
6.75628e-05
2.30843e-06
6.69952e-05
1.92157e-05
6.66247e-05
1.35838e-05
6.5352e-05
5.05135e-06
6.49157e-05
1.35036e-05
6.39512e-05
2.39587e-06
6.38633e-05
-4.29397e-06
6.27614e-05
4.79916e-06
6.27851e-05
5.48982e-06
6.30459e-05
2.18753e-06
6.19803e-05
-7.04243e-08
6.0721e-05
4.03661e-06
5.51409e-05
6.57501e-05
4.98958e-05
5.58611e-05
3.98922e-05
0.000102192
2.52403e-05
0.000146802
0.000255049
6.89997e-05
-1.9639e-05
6.93957e-05
-4.64958e-05
6.96685e-05
8.59687e-06
6.87261e-05
1.26402e-05
6.88118e-05
1.73886e-05
6.76603e-05
2.92729e-06
6.70755e-05
2.08239e-05
6.6773e-05
1.48467e-05
6.55631e-05
5.20191e-06
6.4926e-05
1.49338e-05
6.37387e-05
2.84804e-06
6.35521e-05
-4.44255e-06
6.231e-05
5.41884e-06
6.21136e-05
6.32342e-06
6.24406e-05
2.45207e-06
6.17564e-05
1.53485e-07
6.03112e-05
5.36628e-06
5.49959e-05
7.114e-05
4.967e-05
6.14965e-05
3.98182e-05
0.000111796
2.52719e-05
0.000161171
0.000280483
6.91588e-05
-2.11323e-05
6.93858e-05
-4.99411e-05
6.9154e-05
9.99968e-06
6.80403e-05
1.41234e-05
6.8415e-05
1.908e-05
6.73888e-05
2.97663e-06
6.68176e-05
2.30177e-05
6.64602e-05
1.5954e-05
6.52079e-05
5.77281e-06
6.47887e-05
1.59305e-05
6.38072e-05
2.9157e-06
6.36277e-05
-4.70555e-06
6.25543e-05
5.90659e-06
6.24139e-05
6.63945e-06
6.25028e-05
2.52067e-06
6.17043e-05
6.79247e-07
5.99515e-05
7.03914e-06
5.47903e-05
7.63711e-05
4.93697e-05
6.70701e-05
3.969e-05
0.00012139
2.53034e-05
0.0001755
0.00030588
6.89222e-05
-2.228e-05
6.92726e-05
-5.26136e-05
6.95651e-05
1.00234e-05
6.86253e-05
1.49404e-05
6.86484e-05
2.0951e-05
6.74971e-05
3.6674e-06
6.6926e-05
2.45187e-05
6.66554e-05
1.71587e-05
6.54712e-05
5.85966e-06
6.48112e-05
1.73747e-05
6.35924e-05
3.43735e-06
6.32773e-05
-4.69016e-06
6.21913e-05
6.49277e-06
6.19592e-05
7.33622e-06
6.22335e-05
2.64746e-06
6.16072e-05
1.04743e-06
5.96074e-05
8.97055e-06
5.44955e-05
8.15282e-05
4.89903e-05
7.28058e-05
3.95219e-05
0.00013066
2.53349e-05
0.000189519
0.000331362
6.90899e-05
-2.36704e-05
6.92397e-05
-5.58418e-05
6.89996e-05
1.13949e-05
6.79226e-05
1.64083e-05
6.82953e-05
2.26462e-05
6.72858e-05
3.72585e-06
6.6721e-05
2.67002e-05
6.63816e-05
1.82086e-05
6.51549e-05
6.4181e-06
6.47346e-05
1.83409e-05
6.37368e-05
3.55143e-06
6.33513e-05
-4.7032e-06
6.21978e-05
7.23825e-06
6.19117e-05
7.65728e-06
6.21674e-05
2.39821e-06
6.14864e-05
1.58347e-06
5.92149e-05
1.11935e-05
5.41012e-05
8.66872e-05
4.85356e-05
7.84657e-05
3.92971e-05
0.000139856
2.53583e-05
0.000203422
0.000356795
6.88477e-05
-2.47071e-05
6.91498e-05
-5.8242e-05
6.94615e-05
1.12805e-05
6.85373e-05
1.71807e-05
6.85029e-05
2.4552e-05
6.73511e-05
4.50011e-06
6.68046e-05
2.80983e-05
6.65721e-05
1.9351e-05
6.54177e-05
6.44931e-06
6.47468e-05
1.9792e-05
6.35052e-05
4.13248e-06
6.29437e-05
-4.36681e-06
6.18514e-05
8.06589e-06
6.16855e-05
8.1498e-06
6.206e-05
2.29455e-06
6.13187e-05
2.16699e-06
5.87533e-05
1.37124e-05
5.36058e-05
9.18639e-05
4.80265e-05
8.42255e-05
3.90411e-05
0.000148669
2.53763e-05
0.00021693
0.00038231
6.90278e-05
-2.60053e-05
6.91145e-05
-6.12785e-05
6.88722e-05
1.26025e-05
6.78321e-05
1.86301e-05
6.8197e-05
2.62499e-05
6.71963e-05
4.58515e-06
6.66321e-05
3.02675e-05
6.63104e-05
2.03467e-05
6.51086e-05
6.99421e-06
6.46885e-05
2.07308e-05
6.3646e-05
4.34259e-06
6.29095e-05
-3.9393e-06
6.17349e-05
9.02883e-06
6.16591e-05
8.17884e-06
6.20033e-05
1.88921e-06
6.10727e-05
3.0135e-06
5.8202e-05
1.65491e-05
5.30325e-05
9.70654e-05
4.74823e-05
8.98339e-05
3.87491e-05
0.000157388
2.53849e-05
0.000230275
0.000407753
6.87828e-05
-2.69437e-05
6.90611e-05
-6.34748e-05
6.93987e-05
1.23275e-05
6.84876e-05
1.93766e-05
6.84013e-05
2.81638e-05
6.72584e-05
5.42496e-06
6.67368e-05
3.15339e-05
6.65324e-05
2.14343e-05
6.53961e-05
6.99144e-06
6.46978e-05
2.2204e-05
6.34098e-05
5.04094e-06
6.25548e-05
-3.18773e-06
6.15751e-05
9.89666e-06
6.16096e-05
8.37598e-06
6.18957e-05
1.82957e-06
6.07442e-05
4.05741e-06
5.75715e-05
1.96883e-05
5.24069e-05
0.000102251
4.69317e-05
9.54604e-05
3.8447e-05
0.000165722
2.53882e-05
0.000243182
0.000433272
6.89679e-05
-2.81523e-05
6.90073e-05
-6.63519e-05
6.87796e-05
1.35643e-05
6.77847e-05
2.08005e-05
6.81415e-05
2.98578e-05
6.71539e-05
5.53803e-06
6.65984e-05
3.36715e-05
6.62991e-05
2.23731e-05
6.51188e-05
7.51975e-06
6.47081e-05
2.31121e-05
6.35236e-05
5.45617e-06
6.2469e-05
-2.30884e-06
6.15522e-05
1.06996e-05
6.16375e-05
8.20389e-06
6.1761e-05
1.61507e-06
6.03269e-05
5.43835e-06
5.68757e-05
2.31133e-05
5.17661e-05
0.000107385
4.63939e-05
0.000100867
3.81313e-05
0.000173989
2.53839e-05
0.000255923
0.000458699
6.87197e-05
-2.89964e-05
6.89719e-05
-6.83352e-05
6.9336e-05
1.31338e-05
6.84493e-05
2.15037e-05
6.83164e-05
3.17794e-05
6.71819e-05
6.44923e-06
6.66917e-05
3.4819e-05
6.65227e-05
2.33991e-05
6.54185e-05
7.46829e-06
6.46916e-05
2.46043e-05
6.33212e-05
6.34519e-06
6.22798e-05
-1.27561e-06
6.15572e-05
1.13719e-05
6.16238e-05
8.33428e-06
6.15501e-05
1.87707e-06
5.98342e-05
7.07547e-06
5.61442e-05
2.67776e-05
5.11419e-05
0.000112401
4.58912e-05
0.000106246
3.78223e-05
0.000181919
2.53761e-05
0.000268223
0.000484201
6.89135e-05
-3.01239e-05
6.89166e-05
-7.10711e-05
6.87065e-05
1.42723e-05
6.77531e-05
2.29043e-05
6.8096e-05
3.34756e-05
6.71148e-05
6.6035e-06
6.65648e-05
3.69272e-05
6.62897e-05
2.4282e-05
6.51477e-05
7.95135e-06
6.46883e-05
2.55496e-05
6.33734e-05
7.03565e-06
6.22349e-05
-2.31158e-07
6.16234e-05
1.1913e-05
6.1614e-05
8.23962e-06
6.12869e-05
2.09499e-06
5.92783e-05
9.04861e-06
5.54066e-05
3.06284e-05
5.05686e-05
0.000117259
4.54323e-05
0.0001114
3.75137e-05
0.000189856
2.53632e-05
0.000280378
0.000509597
6.86641e-05
-3.08832e-05
6.89067e-05
-7.28948e-05
6.93004e-05
1.36779e-05
6.84346e-05
2.35813e-05
6.82597e-05
3.53858e-05
6.71384e-05
7.57376e-06
6.66755e-05
3.79409e-05
6.65262e-05
2.52619e-05
6.54468e-05
7.8714e-06
6.46348e-05
2.71159e-05
6.32441e-05
8.18077e-06
6.21994e-05
8.33856e-07
6.16955e-05
1.23947e-05
6.15408e-05
8.56023e-06
6.09561e-05
2.85775e-06
5.8683e-05
1.12609e-05
5.46995e-05
3.45932e-05
5.00702e-05
0.000121897
4.50268e-05
0.000116553
3.72198e-05
0.000197536
2.5349e-05
0.000292105
0.000535066
6.886e-05
-3.19307e-05
6.88364e-05
-7.55113e-05
6.86548e-05
1.46958e-05
6.7747e-05
2.49561e-05
6.80754e-05
3.70813e-05
6.71043e-05
7.76935e-06
6.65631e-05
4.00093e-05
6.63138e-05
2.60901e-05
6.52071e-05
8.30246e-06
6.46075e-05
2.81981e-05
6.33182e-05
9.09036e-06
6.22474e-05
1.84528e-06
6.17777e-05
1.28162e-05
6.14411e-05
8.78316e-06
6.05866e-05
3.59309e-06
5.80706e-05
1.37531e-05
5.40533e-05
3.85941e-05
4.96648e-05
0.000126301
4.46711e-05
0.000121553
3.69322e-05
0.000205304
2.53324e-05
0.000303717
0.000560421
6.8609e-05
-3.26074e-05
6.88407e-05
-7.71625e-05
6.92668e-05
1.39406e-05
6.84256e-05
2.55977e-05
6.82139e-05
3.89854e-05
6.71075e-05
8.7937e-06
6.66727e-05
4.09097e-05
6.65559e-05
2.70098e-05
6.55106e-05
8.17862e-06
6.46321e-05
2.98114e-05
6.33303e-05
1.03334e-05
6.23202e-05
2.88483e-06
6.18369e-05
1.32901e-05
6.12816e-05
9.49588e-06
6.01794e-05
4.85648e-06
5.74692e-05
1.64157e-05
5.34942e-05
4.2556e-05
4.93556e-05
0.000130445
4.43643e-05
0.000126639
3.66618e-05
0.000212886
2.53171e-05
0.000314923
0.000585856
6.88119e-05
-3.3583e-05
6.87701e-05
-7.96734e-05
6.86182e-05
1.48309e-05
6.77504e-05
2.69514e-05
6.80583e-05
4.06887e-05
6.7094e-05
9.03755e-06
6.65573e-05
4.29436e-05
6.63426e-05
2.77779e-05
6.52846e-05
8.53388e-06
6.46068e-05
3.09617e-05
6.34225e-05
1.13067e-05
6.24241e-05
3.83943e-06
6.1878e-05
1.38003e-05
6.10976e-05
1.01592e-05
5.97634e-05
6.06358e-06
5.69029e-05
1.9261e-05
5.30348e-05
4.64121e-05
4.91372e-05
0.000134354
4.4097e-05
0.000131678
3.64008e-05
0.000220619
2.53029e-05
0.000326041
0.000611174
6.85611e-05
-3.41865e-05
6.87897e-05
-8.11918e-05
6.92459e-05
1.39272e-05
6.84297e-05
2.7568e-05
6.81876e-05
4.25616e-05
6.71014e-05
1.0106e-05
6.66886e-05
4.37188e-05
6.65881e-05
2.86563e-05
6.55653e-05
8.399e-06
6.46708e-05
3.25694e-05
6.35005e-05
1.25014e-05
6.25291e-05
4.83978e-06
6.18841e-05
1.44433e-05
6.08749e-05
1.1313e-05
5.93463e-05
7.75021e-06
5.63935e-05
2.21765e-05
5.26784e-05
5.01192e-05
4.8995e-05
0.00013804
4.38665e-05
0.000136889
3.616e-05
0.000228212
2.52941e-05
0.00033677
0.000636583
6.87653e-05
-3.50918e-05
6.87107e-05
-8.36135e-05
6.85933e-05
1.46791e-05
6.77669e-05
2.89004e-05
6.80545e-05
4.42709e-05
6.71016e-05
1.03959e-05
6.65725e-05
4.57112e-05
6.63902e-05
2.93712e-05
6.53718e-05
8.68664e-06
6.46889e-05
3.36932e-05
6.36207e-05
1.34435e-05
6.26322e-05
5.79176e-06
6.18649e-05
1.51823e-05
6.06448e-05
1.24138e-05
5.89519e-05
9.31258e-06
5.59527e-05
2.51672e-05
5.24163e-05
5.36472e-05
4.89137e-05
0.000141553
4.36645e-05
0.000142134
3.59338e-05
0.000235987
2.52918e-05
0.000347438
0.000661883
6.85139e-05
-3.56242e-05
6.87409e-05
-8.49927e-05
6.9231e-05
1.36248e-05
6.84382e-05
2.94896e-05
6.81688e-05
4.6124e-05
6.71043e-05
1.14997e-05
6.67135e-05
4.63837e-05
6.66299e-05
3.02097e-05
6.56725e-05
8.49637e-06
6.48295e-05
3.5154e-05
6.37377e-05
1.45818e-05
6.27179e-05
6.83969e-06
6.18148e-05
1.60871e-05
6.0401e-05
1.39687e-05
5.85853e-05
1.12773e-05
5.55845e-05
2.81392e-05
5.22351e-05
5.69919e-05
4.88774e-05
0.000144911
4.34909e-05
0.000147594
3.57343e-05
0.000243632
2.5301e-05
0.00035774
0.000687297
6.8723e-05
-3.64659e-05
6.86625e-05
-8.73356e-05
6.85822e-05
1.42321e-05
6.77911e-05
3.08058e-05
6.80521e-05
4.7851e-05
6.71067e-05
1.18411e-05
6.65873e-05
4.83375e-05
6.64205e-05
3.08915e-05
6.5544e-05
8.61477e-06
6.49335e-05
3.60861e-05
6.38666e-05
1.55622e-05
6.27857e-05
7.88842e-06
6.17461e-05
1.71032e-05
6.01677e-05
1.54284e-05
5.826e-05
1.30536e-05
5.52843e-05
3.11112e-05
5.21177e-05
6.01526e-05
4.88741e-05
0.000148164
4.33407e-05
0.00015312
3.55585e-05
0.000251464
2.53242e-05
0.000368006
0.000712625
6.84724e-05
-3.69344e-05
6.86985e-05
-8.86031e-05
6.92183e-05
1.30479e-05
6.84518e-05
3.13733e-05
6.81615e-05
4.96634e-05
6.71186e-05
1.29772e-05
6.6751e-05
4.88968e-05
6.66436e-05
3.17333e-05
6.58165e-05
8.34037e-06
6.50868e-05
3.72695e-05
6.39776e-05
1.67218e-05
6.283e-05
9.06194e-06
6.16578e-05
1.82793e-05
5.99399e-05
1.72803e-05
5.7974e-05
1.51631e-05
5.50446e-05
3.40184e-05
5.20486e-05
6.31459e-05
4.88932e-05
0.000151319
4.32162e-05
0.000158863
3.54195e-05
0.000259154
2.53671e-05
0.00037793
0.000738102
6.86808e-05
-3.7712e-05
6.86148e-05
-9.08749e-05
6.85726e-05
1.35063e-05
6.78175e-05
3.26731e-05
6.80549e-05
5.14041e-05
6.71189e-05
1.3369e-05
6.66163e-05
5.08034e-05
6.64507e-05
3.23982e-05
6.5706e-05
8.30414e-06
6.51874e-05
3.79943e-05
6.40814e-05
1.77608e-05
6.28536e-05
1.02603e-05
6.15608e-05
1.95519e-05
5.97333e-05
1.89905e-05
5.77309e-05
1.70377e-05
5.48552e-05
3.68937e-05
5.20137e-05
6.59829e-05
4.89281e-05
0.000154413
4.31147e-05
0.000164667
3.53158e-05
0.000267007
2.54332e-05
0.000387851
0.000763535
6.84299e-05
-3.81162e-05
6.86561e-05
-9.2018e-05
6.92096e-05
1.2187e-05
6.84633e-05
3.32204e-05
6.81553e-05
5.31909e-05
6.71349e-05
1.45226e-05
6.67927e-05
5.12707e-05
6.66673e-05
3.32369e-05
6.59277e-05
7.98645e-06
6.53028e-05
3.89452e-05
6.41625e-05
1.89476e-05
6.28559e-05
1.15914e-05
6.14551e-05
2.09579e-05
5.95415e-05
2.10342e-05
5.7524e-05
1.91918e-05
5.47068e-05
3.96932e-05
5.20029e-05
6.86852e-05
4.89729e-05
0.000157442
4.30394e-05
0.000170663
3.526e-05
0.000274681
2.55284e-05
0.000397459
0.000789171
6.86421e-05
-3.88346e-05
6.85769e-05
-9.42256e-05
6.85766e-05
1.2488e-05
6.78487e-05
3.45116e-05
6.80551e-05
5.49577e-05
6.71244e-05
1.49674e-05
6.66398e-05
5.31332e-05
6.64857e-05
3.38751e-05
6.58285e-05
7.8438e-06
6.53841e-05
3.95222e-05
6.423e-05
2.00444e-05
6.28408e-05
1.29535e-05
6.13486e-05
2.24321e-05
5.93734e-05
2.28949e-05
5.73523e-05
2.10904e-05
5.45909e-05
4.24562e-05
5.20077e-05
7.12649e-05
4.90247e-05
0.000160432
4.29881e-05
0.000176689
3.52505e-05
0.000282477
2.56565e-05
0.000407096
0.000814824
6.83925e-05
-3.91809e-05
6.86143e-05
-9.52635e-05
6.91963e-05
1.10614e-05
6.84787e-05
3.50365e-05
6.81599e-05
5.66898e-05
6.71598e-05
1.61415e-05
6.68376e-05
5.35016e-05
6.66894e-05
3.47143e-05
6.60111e-05
7.52159e-06
6.54702e-05
4.0299e-05
6.42753e-05
2.12823e-05
6.28095e-05
1.44421e-05
6.12403e-05
2.40073e-05
5.92217e-05
2.50391e-05
5.72083e-05
2.32336e-05
5.45011e-05
4.51487e-05
5.20226e-05
7.37422e-05
4.90801e-05
0.000163374
4.29633e-05
0.000182864
3.52979e-05
0.00029004
2.58227e-05
0.000416449
0.000840752
6.86028e-05
-3.98401e-05
6.85354e-05
-9.74094e-05
6.85747e-05
1.12093e-05
6.7876e-05
3.63168e-05
6.80577e-05
5.8478e-05
6.71356e-05
1.6636e-05
6.66688e-05
5.53225e-05
6.65141e-05
3.53398e-05
6.59227e-05
7.32285e-06
6.55328e-05
4.07737e-05
6.4306e-05
2.2457e-05
6.27656e-05
1.5957e-05
6.11354e-05
2.5621e-05
5.90914e-05
2.69708e-05
5.70903e-05
2.51192e-05
5.44316e-05
4.78107e-05
5.20436e-05
7.61269e-05
4.91381e-05
0.000166286
4.29625e-05
0.000189028
3.5399e-05
0.000297665
2.60299e-05
0.000425867
0.000866775
6.83535e-05
-4.01268e-05
6.85833e-05
-9.83431e-05
6.92025e-05
9.6456e-06
6.84985e-05
3.68339e-05
6.81693e-05
6.0175e-05
6.71934e-05
1.78091e-05
6.68896e-05
5.56099e-05
6.67166e-05
3.61786e-05
6.60831e-05
7.02815e-06
6.55926e-05
4.14385e-05
6.43166e-05
2.37691e-05
6.27101e-05
1.75865e-05
6.1032e-05
2.73051e-05
5.89752e-05
2.9155e-05
5.69922e-05
2.72223e-05
5.43786e-05
5.04112e-05
5.20681e-05
7.84364e-05
4.9197e-05
0.000169155
4.29872e-05
0.000195292
3.55617e-05
0.000304986
2.62822e-05
0.000435031
0.000893161
6.85681e-05
-4.07329e-05
6.85012e-05
-0.000100432
6.85844e-05
9.6451e-06
6.79097e-05
3.81063e-05
6.80618e-05
6.19997e-05
6.71484e-05
1.83502e-05
6.67033e-05
5.73949e-05
6.65359e-05
3.68061e-05
6.59962e-05
6.84095e-06
6.563e-05
4.18556e-05
6.43134e-05
2.50363e-05
6.2646e-05
1.92291e-05
6.09333e-05
2.90031e-05
5.88764e-05
3.11022e-05
5.69125e-05
2.90769e-05
5.43389e-05
5.2989e-05
5.20947e-05
8.06776e-05
4.92564e-05
0.000172001
4.3034e-05
0.000201503
3.57808e-05
0.000312303
2.65812e-05
0.000444284
0.000919733
6.832e-05
-4.09696e-05
6.8544e-05
-0.000101262
6.91945e-05
7.98349e-06
6.85149e-05
3.85993e-05
6.81732e-05
6.36648e-05
6.72145e-05
1.95422e-05
6.69294e-05
5.76113e-05
6.66698e-05
3.77122e-05
6.61235e-05
6.69113e-06
6.56571e-05
4.24492e-05
6.42928e-05
2.64348e-05
6.25736e-05
2.09693e-05
6.08363e-05
3.07466e-05
5.8788e-05
3.32743e-05
5.68466e-05
3.11351e-05
5.43104e-05
5.55133e-05
5.21231e-05
8.28641e-05
4.93156e-05
0.000174806
4.31035e-05
0.000207767
3.60619e-05
0.000319242
2.69298e-05
0.000453303
0.000946765
6.85334e-05
-4.1525e-05
6.84595e-05
-0.000103293
6.85796e-05
7.8497e-06
6.79318e-05
3.98612e-05
6.8061e-05
6.55184e-05
6.71576e-05
2.01251e-05
6.67229e-05
5.93737e-05
6.6447e-05
3.84366e-05
6.61205e-05
6.65244e-06
6.56688e-05
4.29252e-05
6.42602e-05
2.77958e-05
6.2495e-05
2.27095e-05
6.07434e-05
3.24855e-05
5.87125e-05
3.51946e-05
5.67938e-05
3.29493e-05
5.42914e-05
5.80208e-05
5.21533e-05
8.5e-05
4.93749e-05
0.000177591
4.31919e-05
0.000213936
3.63982e-05
0.000326101
2.73282e-05
0.000462432
0.00097408
6.82839e-05
-4.17087e-05
6.85085e-05
-0.000104016
6.91938e-05
6.07824e-06
6.85253e-05
4.03381e-05
6.81732e-05
6.71607e-05
6.7238e-05
2.13082e-05
6.69668e-05
5.95341e-05
6.65258e-05
3.94986e-05
6.62609e-05
6.62573e-06
6.56732e-05
4.36084e-05
6.42133e-05
2.9288e-05
6.24101e-05
2.45322e-05
6.06509e-05
3.42513e-05
5.86431e-05
3.73227e-05
5.67501e-05
3.49611e-05
5.42811e-05
6.04785e-05
5.21865e-05
8.70937e-05
4.94339e-05
0.000180341
4.32997e-05
0.000220121
3.67942e-05
0.000332508
2.77783e-05
0.000471335
0.00100196
6.85012e-05
-4.22172e-05
6.84407e-05
-0.000106014
6.86091e-05
5.7741e-06
6.79734e-05
4.16032e-05
6.80657e-05
6.90529e-05
6.71709e-05
2.19331e-05
6.6744e-05
6.12689e-05
6.64075e-05
4.02565e-05
6.63241e-05
6.60415e-06
6.56732e-05
4.42637e-05
6.41566e-05
3.07558e-05
6.23204e-05
2.63419e-05
6.05607e-05
3.59992e-05
5.85823e-05
3.91834e-05
5.67151e-05
3.67217e-05
5.42786e-05
6.29213e-05
5.22241e-05
8.91464e-05
4.94933e-05
0.000183078
4.34236e-05
0.000226176
3.72433e-05
0.000338757
2.82796e-05
0.000480365
0.00103022
6.82542e-05
-4.23714e-05
6.84813e-05
-0.000106658
6.91878e-05
3.94604e-06
6.85309e-05
4.20874e-05
6.8181e-05
7.06254e-05
6.7279e-05
2.30871e-05
6.70204e-05
6.1362e-05
6.652e-05
4.13282e-05
6.63955e-05
6.58798e-06
6.56629e-05
4.50738e-05
6.40888e-05
3.23702e-05
6.22257e-05
2.82262e-05
6.0469e-05
3.77646e-05
5.85227e-05
4.12671e-05
5.66852e-05
3.87032e-05
5.42835e-05
6.53105e-05
5.22686e-05
9.11603e-05
4.9553e-05
0.000185791
4.35644e-05
0.00023222
3.77512e-05
0.000344463
2.88341e-05
0.000489156
0.00105915
6.8478e-05
-4.28571e-05
6.85388e-05
-0.000108697
6.88091e-05
3.31218e-06
6.81315e-05
4.3369e-05
6.8115e-05
7.26021e-05
6.7204e-05
2.38173e-05
6.68592e-05
6.2912e-05
6.6494e-05
4.20345e-05
6.64338e-05
6.61613e-06
6.56468e-05
4.58522e-05
6.40139e-05
3.39491e-05
6.21274e-05
3.0081e-05
6.03778e-05
3.95015e-05
5.84674e-05
4.30442e-05
5.666e-05
4.03924e-05
5.42953e-05
6.76819e-05
5.23226e-05
9.31309e-05
4.96142e-05
0.000188506
4.37198e-05
0.000238096
3.83136e-05
0.000349944
2.9442e-05
0.000498102
0.00108858
6.82849e-05
-4.30742e-05
6.86466e-05
-0.000109395
6.94133e-05
1.37274e-06
6.87336e-05
4.38777e-05
6.8337e-05
7.41573e-05
6.7404e-05
2.49955e-05
6.72043e-05
6.28948e-05
6.66458e-05
4.30101e-05
6.64662e-05
6.71089e-06
6.56212e-05
4.67597e-05
6.3931e-05
3.56773e-05
6.20256e-05
3.20074e-05
6.02831e-05
4.12529e-05
5.84078e-05
4.50606e-05
5.66351e-05
4.23151e-05
5.43137e-05
6.99906e-05
5.23896e-05
9.50536e-05
4.96764e-05
0.000191216
4.3892e-05
0.000243934
3.89429e-05
0.000354788
3.01097e-05
0.000506815
0.00111878
6.85788e-05
-4.37186e-05
6.90153e-05
-0.000111778
6.93482e-05
4.53985e-07
6.84789e-05
4.5388e-05
6.8372e-05
7.62403e-05
6.74039e-05
2.58228e-05
6.71215e-05
6.44157e-05
6.66666e-05
4.36265e-05
6.64842e-05
6.89497e-06
6.55937e-05
4.76313e-05
6.38454e-05
3.73721e-05
6.19215e-05
3.39005e-05
6.01876e-05
4.29749e-05
5.83469e-05
4.677e-05
5.66097e-05
4.39288e-05
5.43378e-05
7.22702e-05
5.24713e-05
9.69177e-05
4.97452e-05
0.000193949
4.40782e-05
0.000249575
3.96572e-05
0.000359286
3.09356e-05
0.000515623
0.00114969
-1.19797e-05
1.19526e-05
-1.1644e-05
-3.23991e-07
-4.97844e-06
-6.67628e-06
8.19604e-07
-5.79615e-06
5.19528e-06
-4.37897e-06
9.92688e-06
-4.73217e-06
1.39069e-05
-3.98418e-06
1.81622e-05
-4.2592e-06
2.15145e-05
-3.39037e-06
2.53936e-05
-3.87982e-06
2.96188e-05
-4.42998e-06
3.2719e-05
-2.84863e-06
3.51276e-05
-2.44088e-06
3.79335e-05
-2.76163e-06
4.13601e-05
-3.40768e-06
4.50948e-05
-3.72544e-06
4.89104e-05
-3.81041e-06
5.26952e-05
-3.77988e-06
5.63078e-05
-3.62223e-06
5.94151e-05
-3.08647e-06
6.16897e-05
-2.26628e-06
6.32616e-05
-1.56858e-06
6.43257e-05
-1.05862e-06
6.49553e-05
-6.32543e-07
6.54109e-05
-4.55162e-07
6.57995e-05
-3.88119e-07
6.61512e-05
-3.51319e-07
6.64796e-05
-3.3097e-07
6.67741e-05
-2.83952e-07
6.70104e-05
-2.47276e-07
6.71821e-05
-1.8161e-07
6.73149e-05
-1.26933e-07
6.74382e-05
-1.33917e-07
6.75337e-05
-8.85146e-08
-2.3223e-08
-1.10288e-05
2.2937e-05
-1.15645e-05
2.35839e-07
-5.24734e-06
-1.30105e-05
5.73756e-07
-1.16111e-05
4.8926e-06
-8.70447e-06
9.95784e-06
-9.79948e-06
1.40193e-05
-8.05395e-06
1.80821e-05
-8.33094e-06
2.16364e-05
-7.01118e-06
2.51656e-05
-7.40925e-06
2.92006e-05
-8.7777e-06
3.22654e-05
-5.50649e-06
3.48966e-05
-5.12467e-06
3.74236e-05
-5.20553e-06
4.06024e-05
-6.54698e-06
4.41782e-05
-7.2793e-06
4.78304e-05
-7.45041e-06
5.15621e-05
-7.50102e-06
5.53081e-05
-7.38474e-06
5.87216e-05
-6.46103e-06
6.13263e-05
-4.85624e-06
6.30649e-05
-3.29922e-06
6.42022e-05
-2.18528e-06
6.48734e-05
-1.30923e-06
6.53469e-05
-9.28072e-07
6.57442e-05
-7.84389e-07
6.6103e-05
-7.09702e-07
6.64395e-05
-6.72524e-07
6.674e-05
-5.66184e-07
6.69811e-05
-5.09104e-07
6.71582e-05
-3.77357e-07
6.72927e-05
-2.50588e-07
6.742e-05
-2.8119e-07
6.75177e-05
-1.7313e-07
-4.82482e-08
-1.0544e-05
3.34335e-05
-1.12997e-05
1.01099e-06
-5.28105e-06
-1.9048e-05
5.81756e-07
-1.7473e-05
4.98608e-06
-1.31127e-05
1.00863e-05
-1.49002e-05
1.42228e-05
-1.2196e-05
1.82679e-05
-1.23812e-05
2.17427e-05
-1.05405e-05
2.51542e-05
-1.08227e-05
2.89808e-05
-1.28932e-05
3.20399e-05
-8.20315e-06
3.47056e-05
-7.83954e-06
3.71899e-05
-7.62247e-06
4.02042e-05
-9.53471e-06
4.35693e-05
-1.06308e-05
4.70303e-05
-1.09041e-05
5.06448e-05
-1.11073e-05
5.44469e-05
-1.12036e-05
5.8117e-05
-1.00945e-05
6.09991e-05
-7.72415e-06
6.28828e-05
-5.1776e-06
6.40829e-05
-3.37623e-06
6.47896e-05
-2.02115e-06
6.528e-05
-1.41773e-06
6.56868e-05
-1.19033e-06
6.6053e-05
-1.07519e-06
6.63967e-05
-1.02056e-06
6.67046e-05
-8.55772e-07
6.69504e-05
-7.74488e-07
6.71314e-05
-5.7535e-07
6.72696e-05
-3.78136e-07
6.73996e-05
-4.29747e-07
6.75004e-05
-2.61279e-07
-7.49723e-08
-1.0047e-05
4.34422e-05
-1.09141e-05
1.90112e-06
-5.1144e-06
-2.48638e-05
8.13536e-07
-2.33962e-05
5.288e-06
-1.75933e-05
1.03844e-05
-1.99985e-05
1.45437e-05
-1.63622e-05
1.85715e-05
-1.64164e-05
2.19756e-05
-1.39934e-05
2.53017e-05
-1.41492e-05
2.89541e-05
-1.67539e-05
3.19868e-05
-1.09458e-05
3.46775e-05
-1.05669e-05
3.71713e-05
-1.00484e-05
4.0074e-05
-1.24029e-05
4.3238e-05
-1.37735e-05
4.64837e-05
-1.41375e-05
4.99349e-05
-1.45478e-05
5.37339e-05
-1.50177e-05
5.75985e-05
-1.39211e-05
6.07087e-05
-1.08207e-05
6.27129e-05
-7.17357e-06
6.39659e-05
-4.61908e-06
6.47044e-05
-2.765e-06
6.52112e-05
-1.92403e-06
6.56276e-05
-1.60574e-06
6.60013e-05
-1.44861e-06
6.63523e-05
-1.37654e-06
6.66675e-05
-1.15394e-06
6.69182e-05
-1.04599e-06
6.71033e-05
-7.78747e-07
6.72453e-05
-5.09316e-07
6.73781e-05
-5.81903e-07
6.7482e-05
-3.52215e-07
-1.03358e-07
-9.52444e-06
5.292e-05
-1.04185e-05
2.81266e-06
-4.78834e-06
-3.05126e-05
1.20419e-06
-2.93899e-05
5.73296e-06
-2.21245e-05
1.08022e-05
-2.50674e-05
1.49495e-05
-2.05129e-05
1.89544e-05
-2.04239e-05
2.23005e-05
-1.73762e-05
2.5569e-05
-1.742e-05
2.90791e-05
-2.04424e-05
3.20789e-05
-1.37215e-05
3.47932e-05
-1.33151e-05
3.73333e-05
-1.25422e-05
4.01655e-05
-1.52175e-05
4.31439e-05
-1.6744e-05
4.6166e-05
-1.71543e-05
4.94243e-05
-1.77992e-05
5.31721e-05
-1.87805e-05
5.71709e-05
-1.78859e-05
6.04572e-05
-1.40942e-05
6.25559e-05
-9.26834e-06
6.38518e-05
-5.90681e-06
6.46186e-05
-3.53684e-06
6.51413e-05
-2.44605e-06
6.55672e-05
-2.03085e-06
6.59486e-05
-1.82927e-06
6.63068e-05
-1.73878e-06
6.66292e-05
-1.45932e-06
6.68849e-05
-1.32091e-06
6.70743e-05
-9.84057e-07
6.722e-05
-6.44281e-07
6.73557e-05
-7.35157e-07
6.74629e-05
-4.4671e-07
-1.33111e-07
-8.97031e-06
6.18548e-05
-9.82648e-06
3.69091e-06
-4.34315e-06
-3.6012e-05
1.69574e-06
-3.54257e-05
6.26492e-06
-2.66996e-05
1.12959e-05
-3.01005e-05
1.54111e-05
-2.46334e-05
1.93871e-05
-2.44062e-05
2.26876e-05
-2.07107e-05
2.59167e-05
-2.06491e-05
2.93102e-05
-2.39549e-05
3.22774e-05
-1.65109e-05
3.5016e-05
-1.60747e-05
3.76233e-05
-1.5099e-05
4.04166e-05
-1.79828e-05
4.32329e-05
-1.95409e-05
4.60417e-05
-1.99514e-05
4.90972e-05
-2.08441e-05
5.27584e-05
-2.24547e-05
5.68346e-05
-2.19257e-05
6.02449e-05
-1.74922e-05
6.24124e-05
-1.14274e-05
6.37414e-05
-7.2262e-06
6.45331e-05
-4.33378e-06
6.50713e-05
-2.98376e-06
6.55066e-05
-2.46524e-06
6.58955e-05
-2.21794e-06
6.62609e-05
-2.10931e-06
6.65902e-05
-1.77276e-06
6.6851e-05
-1.60282e-06
6.70447e-05
-1.19585e-06
6.71941e-05
-7.82695e-07
6.73329e-05
-8.92999e-07
6.74432e-05
-5.43656e-07
-1.64241e-07
-8.38385e-06
7.01904e-05
-9.15295e-06
4.47529e-06
-3.81275e-06
-4.13683e-05
2.24475e-06
-4.14858e-05
6.84317e-06
-3.12985e-05
1.18323e-05
-3.50891e-05
1.59063e-05
-2.8709e-05
1.98483e-05
-2.83493e-05
2.31136e-05
-2.39998e-05
2.63129e-05
-2.38505e-05
2.96042e-05
-2.73465e-05
3.25382e-05
-1.9324e-05
3.53042e-05
-1.88634e-05
3.79879e-05
-1.77532e-05
4.07648e-05
-2.07518e-05
4.34473e-05
-2.22197e-05
4.60678e-05
-2.25693e-05
4.89289e-05
-2.36995e-05
5.24824e-05
-2.60214e-05
5.65856e-05
-2.59977e-05
6.00708e-05
-2.09661e-05
6.22827e-05
-1.3636e-05
6.36357e-05
-8.57227e-06
6.4449e-05
-5.15203e-06
6.5002e-05
-3.53603e-06
6.54467e-05
-2.90915e-06
6.58429e-05
-2.61347e-06
6.62153e-05
-2.48563e-06
6.65513e-05
-2.09275e-06
6.6817e-05
-1.88766e-06
6.7015e-05
-1.40886e-06
6.7168e-05
-9.24746e-07
6.73099e-05
-1.05151e-06
6.74232e-05
-6.44111e-07
-1.96458e-07
-7.76583e-06
7.79202e-05
-8.41239e-06
5.14276e-06
-3.22411e-06
-4.65731e-05
2.82174e-06
-4.753e-05
7.44047e-06
-3.59229e-05
1.23882e-05
-4.00391e-05
1.64192e-05
-3.27445e-05
2.03244e-05
-3.22602e-05
2.35627e-05
-2.72618e-05
2.67341e-05
-2.70218e-05
2.99287e-05
-3.06025e-05
3.28269e-05
-2.21213e-05
3.56212e-05
-2.16676e-05
3.83808e-05
-2.0476e-05
4.11555e-05
-2.35044e-05
4.37318e-05
-2.47788e-05
4.6196e-05
-2.50227e-05
4.88852e-05
-2.63786e-05
5.23242e-05
-2.94711e-05
5.64146e-05
-3.00543e-05
5.99319e-05