/*--------------------------------*- C++ -*----------------------------------*\
| =========                 |                                                 |
| \\      /  F ield         | OpenFOAM: The Open Source CFD Toolbox           |
|  \\    /   O peration     | Version:  v1912                                 |
|   \\  /    A nd           | Website:  www.openfoam.com                      |
|    \\/     M anipulation  |                                                 |
\*---------------------------------------------------------------------------*/
FoamFile
{
    version     2.0;
    format      ascii;
    class       volVectorField;
    location    "20";
    object      U;
}
// * * * * * * * * * * * * * * * * * * * * * * * * * * * * * * * * * * * * * //

dimensions      [0 1 -1 0 0 0 0];


internalField   nonuniform List<vector> 
12441
(
(29.7012 -0.00159476 0)
(31.2252 -0.00521837 0)
(30.9819 0.00188844 0)
(31.0693 0.00286514 0)
(30.4571 0.00220039 0)
(30.9426 -0.000415402 0)
(30.4585 0.00230866 0)
(30.0221 0.0015692 0)
(30.1292 0.000249864 0)
(29.4113 0.00243167 0)
(29.1453 -0.000262316 0)
(28.8391 -0.00193385 0)
(28.6688 0.000328575 0)
(28.2023 0.0013952 0)
(28.0596 0.00178493 0)
(28.3406 -0.00215868 0)
(28.1794 0.0201067 0)
(26.5309 0.031557 0)
(24.3853 0.0440343 0)
(21.5537 0.0812902 0)
(14.6899 0.119137 0)
(8.3617 0.249873 0)
(29.6614 -0.00546885 0)
(31.4855 -0.0131281 0)
(31.1366 0.000228987 0)
(31.1929 0.00329514 0)
(30.3185 0.004355 0)
(30.9205 0.0025146 0)
(30.276 0.00682928 0)
(29.7639 0.00898777 0)
(29.8152 0.00154843 0)
(29.0283 0.00975945 0)
(28.825 0.00234272 0)
(28.6318 -0.00305627 0)
(28.5417 0.00473219 0)
(28.0597 0.0064704 0)
(27.9999 0.00262429 0)
(28.1219 -0.00333031 0)
(28.3632 0.0238088 0)
(26.5225 0.0989289 0)
(23.7847 0.11048 0)
(21.2857 0.267956 0)
(14.9521 0.400986 0)
(8.19029 0.762288 0)
(29.6969 -0.00884383 0)
(31.2776 -0.024278 0)
(31.0051 0.003302 0)
(31.1565 0.00626892 0)
(30.3479 0.00890136 0)
(30.8621 0.00196575 0)
(30.2939 0.015115 0)
(29.7461 0.0138264 0)
(29.8466 0.005795 0)
(29.043 0.0175959 0)
(28.802 0.00455725 0)
(28.5379 -0.00608111 0)
(28.4334 0.00808437 0)
(27.8651 0.0103786 0)
(27.7429 0.0041567 0)
(27.8983 -0.00380944 0)
(28.179 0.0235783 0)
(26.4321 0.189366 0)
(23.6277 0.190373 0)
(21.0768 0.417371 0)
(15.0285 0.646404 0)
(8.05354 1.25964 0)
(29.7046 -0.0123059 0)
(31.3078 -0.0336207 0)
(30.9032 0.00600186 0)
(30.9449 0.00972315 0)
(30.0828 0.013193 0)
(30.6936 0.00255022 0)
(30.0607 0.0223163 0)
(29.5767 0.0196069 0)
(29.6203 0.00851685 0)
(28.866 0.0247826 0)
(28.6733 0.00588914 0)
(28.4641 -0.0096612 0)
(28.3662 0.0104512 0)
(27.8834 0.0144268 0)
(27.8322 0.00532267 0)
(27.9166 -0.00514769 0)
(28.2056 0.0208968 0)
(26.3986 0.281775 0)
(23.6121 0.268463 0)
(20.9374 0.579596 0)
(15.0379 0.903037 0)
(7.95707 1.765 0)
(29.7343 -0.0155792 0)
(31.1055 -0.0418457 0)
(30.8333 0.00634278 0)
(30.9856 0.0117364 0)
(30.177 0.017272 0)
(30.6573 0.00343074 0)
(30.1098 0.0283405 0)
(29.5716 0.0246867 0)
(29.6946 0.0108635 0)
(28.9152 0.0312245 0)
(28.6765 0.00681373 0)
(28.3833 -0.0129382 0)
(28.268 0.0137494 0)
(27.6854 0.0176069 0)
(27.5363 0.0078171 0)
(27.7013 -0.00583435 0)
(27.9934 0.0207577 0)
(26.2752 0.371898 0)
(23.5701 0.346779 0)
(20.8449 0.739293 0)
(15.033 1.15942 0)
(7.88927 2.26501 0)
(29.7373 -0.0185286 0)
(31.1783 -0.0504407 0)
(30.727 0.0101291 0)
(30.7492 0.0157633 0)
(29.8875 0.0216296 0)
(30.5008 0.00347012 0)
(29.8699 0.0351549 0)
(29.4122 0.0298667 0)
(29.4529 0.0125609 0)
(28.736 0.0376699 0)
(28.5652 0.00797637 0)
(28.3426 -0.0159219 0)
(28.2327 0.0164359 0)
(27.7568 0.0235027 0)
(27.7091 0.00976363 0)
(27.7983 -0.00680166 0)
(28.06 0.0189228 0)
(26.2529 0.457677 0)
(23.5588 0.423866 0)
(20.7636 0.895553 0)
(15.02 1.41409 0)
(7.84486 2.76433 0)
(29.7628 -0.0215074 0)
(30.9745 -0.0574152 0)
(30.6962 0.00941516 0)
(30.8578 0.0171606 0)
(30.0401 0.025805 0)
(30.4799 0.00475034 0)
(29.9354 0.0412957 0)
(29.4015 0.0348619 0)
(29.5382 0.0151896 0)
(28.7721 0.0441171 0)
(28.5373 0.00929422 0)
(28.2186 -0.0182955 0)
(28.0985 0.0206993 0)
(27.4849 0.0261935 0)
(27.3159 0.0123655 0)
(27.5133 -0.00734095 0)
(27.7514 0.0170996 0)
(26.098 0.541953 0)
(23.5035 0.502436 0)
(20.7 1.05051 0)
(15.0124 1.66967 0)
(7.81791 3.26345 0)
(29.762 -0.0241291 0)
(31.0797 -0.0653493 0)
(30.5913 0.0145446 0)
(30.6019 0.0216277 0)
(29.742 0.0303617 0)
(30.3549 0.00477107 0)
(29.7193 0.0483416 0)
(29.279 0.039876 0)
(29.313 0.0164437 0)
(28.6196 0.050373 0)
(28.4645 0.0104633 0)
(28.2267 -0.0209275 0)
(28.0972 0.0231402 0)
(27.6238 0.0335311 0)
(27.5887 0.0137854 0)
(27.7042 -0.00929733 0)
(27.7887 0.0168392 0)
(26.0257 0.622903 0)
(23.4784 0.58159 0)
(20.6352 1.20429 0)
(15.0037 1.92511 0)
(7.80686 3.76269 0)
(29.7836 -0.0268814 0)
(30.8755 -0.0713728 0)
(30.6141 0.0121992 0)
(30.7782 0.0225579 0)
(29.9472 0.0347693 0)
(30.3495 0.00648874 0)
(29.8163 0.0543092 0)
(29.2862 0.0446561 0)
(29.4407 0.0191213 0)
(28.6832 0.0564866 0)
(28.4485 0.0116739 0)
(28.1073 -0.0229251 0)
(27.9812 0.0279514 0)
(27.3413 0.034811 0)
(27.1854 0.0158029 0)
(27.3908 -0.00977976 0)
(27.4401 0.0262482 0)
(25.8608 0.702682 0)
(23.4355 0.659616 0)
(20.5815 1.35797 0)
(15.002 2.18039 0)
(7.80796 4.26131 0)
(29.7829 -0.0292326 0)
(30.996 -0.0788912 0)
(30.487 0.0188554 0)
(30.493 0.0274524 0)
(29.6436 0.0394455 0)
(30.2532 0.00631516 0)
(29.6207 0.0613968 0)
(29.1973 0.049444 0)
(29.2262 0.0198241 0)
(28.5575 0.0625382 0)
(28.4127 0.0129309 0)
(28.1532 -0.0250454 0)
(27.9978 0.0304457 0)
(27.5242 0.0442359 0)
(27.5166 0.0167216 0)
(27.5583 -0.00581993 0)
(27.3452 0.0398066 0)
(25.718 0.775308 0)
(23.3835 0.735072 0)
(20.5117 1.5101 0)
(14.9976 2.4347 0)
(7.82093 4.76013 0)
(29.8023 -0.0318005 0)
(30.7875 -0.084035 0)
(30.5387 0.0148375 0)
(30.7073 0.0278965 0)
(29.8723 0.0439961 0)
(30.2316 0.0084411 0)
(29.7117 0.0671249 0)
(29.1914 0.0539436 0)
(29.3573 0.0225215 0)
(28.6127 0.0682995 0)
(28.3734 0.0141479 0)
(28.0111 -0.0265312 0)
(27.8644 0.0360665 0)
(27.2447 0.044125 0)
(27.2134 0.0182714 0)
(27.4241 0.000625556 0)
(27.1936 0.0551327 0)
(25.5943 0.842347 0)
(23.2966 0.809585 0)
(20.4282 1.66134 0)
(14.9939 2.68815 0)
(7.84268 5.25869 0)
(29.8005 -0.0339188 0)
(30.9237 -0.0912116 0)
(30.4022 0.0231131 0)
(30.4048 0.0331725 0)
(29.5702 0.0487585 0)
(30.1723 0.00814853 0)
(29.5404 0.074316 0)
(29.1295 0.0585998 0)
(29.1504 0.022796 0)
(28.503 0.0743149 0)
(28.3568 0.0156649 0)
(28.0811 -0.0280342 0)
(27.8635 0.0396953 0)
(27.4074 0.0520816 0)
(27.3483 0.0198305 0)
(27.4299 0.0060169 0)
(27.08 0.0706017 0)
(25.4655 0.905727 0)
(23.1756 0.885953 0)
(20.3089 1.81035 0)
(14.98 2.93924 0)
(7.8733 5.75804 0)
(29.8178 -0.0363232 0)
(30.7131 -0.0956538 0)
(30.4955 0.0170538 0)
(30.6614 0.0332015 0)
(29.8253 0.0534846 0)
(30.1441 0.0107265 0)
(29.6458 0.0797147 0)
(29.1344 0.0628527 0)
(29.311 0.02561 0)
(28.5754 0.0798673 0)
(28.3126 0.0170963 0)
(27.9414 -0.0285018 0)
(27.6919 0.0452459 0)
(27.2006 0.0508266 0)
(27.1959 0.0230532 0)
(27.4007 0.0108047 0)
(26.9787 0.0885471 0)
(25.3235 0.9683 0)
(23.0058 0.963741 0)
(20.1632 1.95733 0)
(14.9594 3.18775 0)
(7.90969 6.25729 0)
(29.817 -0.0382291 0)
(30.8552 -0.102602 0)
(30.3347 0.027031 0)
(30.3385 0.0387749 0)
(29.5273 0.0582073 0)
(30.1177 0.0102145 0)
(29.4952 0.086875 0)
(29.0978 0.0673305 0)
(29.1139 0.0254654 0)
(28.4893 0.0860052 0)
(28.3257 0.0190995 0)
(28.0474 -0.0283945 0)
(27.6514 0.0473754 0)
(27.1983 0.0564156 0)
(27.1972 0.0228492 0)
(27.3834 0.0145041 0)
(26.8614 0.10977 0)
(25.1433 1.03127 0)
(22.799 1.04308 0)
(19.9842 2.10081 0)
(14.9241 3.43187 0)
(7.952 6.75748 0)
(29.8327 -0.0404845 0)
(30.641 -0.106343 0)
(30.4513 0.0189901 0)
(30.6163 0.038449 0)
(29.7884 0.0630929 0)
(30.0627 0.0132422 0)
(29.5889 0.0919118 0)
(29.0923 0.0712327 0)
(29.2796 0.0283185 0)
(28.5568 0.0913406 0)
(28.2776 0.020629 0)
(27.8945 -0.0260235 0)
(27.4403 0.0502295 0)
(27.0704 0.0595279 0)
(27.1497 0.0220756 0)
(27.3636 0.0189137 0)
(26.7173 0.134857 0)
(24.9192 1.09503 0)
(22.5568 1.12249 0)
(19.7884 2.24105 0)
(14.8802 3.67186 0)
(7.99722 7.25731 0)
(29.8315 -0.0421976 0)
(30.7935 -0.113073 0)
(30.2794 0.0305023 0)
(30.2837 0.0441444 0)
(29.4968 0.0677218 0)
(30.0705 0.0126095 0)
(29.4545 0.0990587 0)
(29.068 0.0755863 0)
(29.0815 0.0278076 0)
(28.4779 0.0976432 0)
(28.2998 0.0230086 0)
(27.9798 -0.0234479 0)
(27.3365 0.0552563 0)
(27.0504 0.062882 0)
(27.163 0.0189411 0)
(27.323 0.0250507 0)
(26.5332 0.163881 0)
(24.6488 1.15921 0)
(22.2978 1.20164 0)
(19.5759 2.3771 0)
(14.8231 3.90628 0)
(8.04589 7.75803 0)
(29.8457 -0.0443089 0)
(30.5781 -0.116284 0)
(30.4279 0.0206622 0)
(30.5865 0.0436911 0)
(29.7695 0.0728237 0)
(30.0023 0.0160789 0)
(29.5571 0.103633 0)
(29.0721 0.0791883 0)
(29.2646 0.0307695 0)
(28.5504 0.102783 0)
(28.2453 0.0251146 0)
(27.8118 -0.0209959 0)
(27.2021 0.0624476 0)
(27.0273 0.0640522 0)
(27.1532 0.0166418 0)
(27.2553 0.0337414 0)
(26.3088 0.196623 0)
(24.3429 1.22345 0)
(22.032 1.27952 0)
(19.3622 2.50967 0)
(14.7601 4.13589 0)
(8.09534 8.25797 0)
(29.8453 -0.0458528 0)
(30.7339 -0.122793 0)
(30.238 0.0329303 0)
(30.2454 0.0492518 0)
(29.4875 0.0772629 0)
(30.0403 0.0153255 0)
(29.4376 0.110729 0)
(29.0626 0.0834385 0)
(29.0771 0.0299957 0)
(28.4885 0.109257 0)
(28.3102 0.0287604 0)
(27.8236 -0.0179233 0)
(27.1367 0.0693684 0)
(27.0596 0.0640922 0)
(27.1548 0.0147291 0)
(27.1514 0.0453188 0)
(26.0459 0.232716 0)
(24.0137 1.28712 0)
(21.7776 1.35596 0)
(19.1477 2.63834 0)
(14.6878 4.3595 0)
(8.14653 8.75867 0)
(29.8583 -0.0478186 0)
(30.5168 -0.125571 0)
(30.4029 0.0226393 0)
(30.5586 0.0488818 0)
(29.7586 0.082518 0)
(29.949 0.019105 0)
(29.5325 0.114801 0)
(29.0641 0.0866722 0)
(29.2638 0.0329601 0)
(28.5682 0.114228 0)
(28.2306 0.0325189 0)
(27.7036 -0.0128282 0)
(27.1008 0.0752359 0)
(27.0909 0.0637259 0)
(27.1205 0.0147858 0)
(27.0138 0.0599281 0)
(25.752 0.27168 0)
(23.6797 1.3497 0)
(21.5435 1.43044 0)
(18.9432 2.76414 0)
(14.6129 4.57837 0)
(8.19709 9.25819 0)
(29.8576 -0.0492148 0)
(30.6799 -0.131778 0)
(30.2059 0.0343886 0)
(30.2147 0.0541318 0)
(29.4847 0.0868291 0)
(30.013 0.0184036 0)
(29.4209 0.121918 0)
(29.0567 0.090815 0)
(29.0744 0.0318478 0)
(28.5135 0.120878 0)
(28.2879 0.0378721 0)
(27.671 -0.00632435 0)
(27.1032 0.0796858 0)
(27.1401 0.0635293 0)
(27.072 0.0165637 0)
(26.8437 0.0775239 0)
(25.436 0.312931 0)
(23.3592 1.41051 0)
(21.341 1.50315 0)
(18.7463 2.88704 0)
(14.5324 4.79142 0)
(8.24839 9.75848 0)
(29.8694 -0.0510383 0)
(30.4627 -0.13429 0)
(30.3921 0.0241954 0)
(30.5406 0.0539695 0)
(29.7586 0.092225 0)
(29.9098 0.0224377 0)
(29.5224 0.125422 0)
(29.0666 0.0937862 0)
(29.2642 0.0347922 0)
(28.5902 0.126045 0)
(28.1991 0.0417605 0)
(27.6127 0.000687424 0)
(27.1328 0.083233 0)
(27.1708 0.0642469 0)
(26.9863 0.0208496 0)
(26.6493 0.0979374 0)
(25.1097 0.355772 0)
(23.0723 1.46899 0)
(21.1719 1.57416 0)
(18.5633 3.00828 0)
(14.4522 5.00013 0)
(8.29835 10.2573 0)
(29.8694 -0.0522998 0)
(30.6268 -0.140211 0)
(30.1825 0.035115 0)
(30.1939 0.0588843 0)
(29.4943 0.096388 0)
(29.9957 0.0218201 0)
(29.4187 0.132542 0)
(29.064 0.0977932 0)
(29.0877 0.0334476 0)
(28.5498 0.13341 0)
(28.238 0.046235 0)
(27.6098 0.00760415 0)
(27.1799 0.086197 0)
(27.195 0.0661445 0)
(26.8838 0.0272307 0)
(26.4369 0.120899 0)
(24.7857 0.399433 0)
(22.8332 1.52462 0)
(21.0382 1.64412 0)
(18.3896 3.12792 0)
(14.3694 5.20342 0)
(8.34865 10.757 0)
(29.8803 -0.0539851 0)
(30.409 -0.14246 0)
(30.3809 0.0252949 0)
(30.5242 0.0589394 0)
(29.7619 0.101885 0)
(29.8771 0.0260152 0)
(29.5172 0.135499 0)
(29.0757 0.100513 0)
(29.2804 0.0362305 0)
(28.6282 0.138939 0)
(28.2117 0.051496 0)
(27.6193 0.0142556 0)
(27.2352 0.0891336 0)
(27.1932 0.0697278 0)
(26.7542 0.0359855 0)
(26.2167 0.146029 0)
(24.4782 0.443084 0)
(22.6509 1.57717 0)
(20.9351 1.71358 0)
(18.229 3.2471 0)
(14.2896 5.40289 0)
(8.39739 11.2551 0)
(29.8799 -0.0551224 0)
(30.5791 -0.1481 0)
(30.1664 0.0351372 0)
(30.1789 0.0634866 0)
(29.5067 0.105944 0)
(29.979 0.0255568 0)
(29.4162 0.142662 0)
(29.0679 0.104293 0)
(29.1078 0.0345894 0)
(28.5957 0.146528 0)
(28.2347 0.0573926 0)
(27.6582 0.0204608 0)
(27.2891 0.0923535 0)
(27.1781 0.0749401 0)
(26.6158 0.0466383 0)
(25.9967 0.172891 0)
(24.2002 0.48597 0)
(22.5243 1.6266 0)
(20.859 1.78334 0)
(18.0768 3.36575 0)
(14.2104 5.59734 0)
(8.44654 11.7541 0)
(29.8901 -0.0566796 0)
(30.362 -0.150174 0)
(30.3768 0.0258983 0)
(30.5119 0.0637966 0)
(29.7726 0.111531 0)
(29.8543 0.0298833 0)
(29.5234 0.145035 0)
(29.0898 0.106868 0)
(29.294 0.0371993 0)
(28.6613 0.152143 0)
(28.2409 0.06348 0)
(27.7056 0.026443 0)
(27.3356 0.0962217 0)
(27.1405 0.0819814 0)
(26.4649 0.0592746 0)
(25.7864 0.20096 0)
(23.9612 0.527432 0)
(22.4472 1.67317 0)
(20.8035 1.85398 0)
(17.9364 3.4848 0)
(14.1377 5.78841 0)
(8.49443 12.2515 0)
(29.8901 -0.0577025 0)
(30.5327 -0.155562 0)
(30.1556 0.0344352 0)
(30.1688 0.0679745 0)
(29.5259 0.115453 0)
(29.9674 0.0295934 0)
(29.4238 0.152234 0)
(29.08 0.1104 0)
(29.1363 0.0354277 0)
(28.6427 0.159936 0)
(28.2787 0.0694823 0)
(27.7639 0.0322976 0)
(27.3705 0.100875 0)
(27.0926 0.0906244 0)
(26.3168 0.0733051 0)
(25.5922 0.229754 0)
(23.7651 0.567061 0)
(22.4093 1.71726 0)
(20.765 1.92609 0)
(17.8045 3.60392 0)
(14.07 5.9748 0)
(8.54322 12.7501 0)
(29.8995 -0.0591369 0)
(30.3157 -0.157452 0)
(30.3744 0.0260071 0)
(30.5028 0.0685498 0)
(29.7842 0.121095 0)
(29.8371 0.0339675 0)
(29.5324 0.154057 0)
(29.1087 0.112874 0)
(29.3115 0.037655 0)
(28.7349 0.165508 0)
(28.3186 0.0753977 0)
(27.8201 0.0383295 0)
(27.3925 0.106481 0)
(27.0306 0.100911 0)
(26.1697 0.0886714 0)
(25.4199 0.258785 0)
(23.6103 0.604633 0)
(22.4006 1.75934 0)
(20.7389 1.99994 0)
(17.6848 3.72378 0)
(14.0136 6.15823 0)
(8.59147 13.2473 0)
(29.8994 -0.0600541 0)
(30.4907 -0.162579 0)
(30.1507 0.0330139 0)
(30.1646 0.0723336 0)
(29.5462 0.12494 0)
(29.9561 0.0339892 0)
(29.4293 0.161323 0)
(29.0932 0.116173 0)
(29.1493 0.0356247 0)
(28.7735 0.17124 0)
(28.3737 0.0812549 0)
(27.8743 0.0446264 0)
(27.4013 0.113028 0)
(26.965 0.112495 0)
(26.0345 0.104821 0)
(25.2712 0.287726 0)
(23.4915 0.64015 0)
(22.4121 1.79983 0)
(20.723 2.07578 0)
(17.5753 3.84384 0)
(13.9681 6.3374 0)
(8.64154 13.7462 0)
(29.9084 -0.0613736 0)
(30.2746 -0.164354 0)
(30.3733 0.0256297 0)
(30.4941 0.073222 0)
(29.7998 0.130636 0)
(29.826 0.03812 0)
(29.5453 0.162574 0)
(29.1342 0.118707 0)
(29.2995 0.0371963 0)
(28.8642 0.1756 0)
(28.4235 0.0871615 0)
(27.9196 0.0513519 0)
(27.3983 0.12054 0)
(26.8938 0.125301 0)
(25.9088 0.121712 0)
(25.1464 0.316305 0)
(23.402 0.673706 0)
(22.4368 1.83909 0)
(20.7147 2.1536 0)
(17.4802 3.96456 0)
(13.9404 6.51405 0)
(8.69228 14.2442 0)
(29.9087 -0.0621931 0)
(30.4485 -0.169231 0)
(30.1468 0.0309282 0)
(30.1603 0.0766132 0)
(29.5686 0.13438 0)
(29.9474 0.0388064 0)
(29.4383 0.169891 0)
(29.115 0.121881 0)
(29.1543 0.034754 0)
(28.9016 0.180357 0)
(28.476 0.0930845 0)
(27.9571 0.0585174 0)
(27.385 0.128914 0)
(26.8246 0.138994 0)
(25.7988 0.138897 0)
(25.0431 0.344412 0)
(23.3354 0.705481 0)
(22.4691 1.87739 0)
(20.7133 2.23338 0)
(17.3981 4.0852 0)
(13.9306 6.6869 0)
(8.7462 14.7447 0)
(29.9174 -0.0633969 0)
(30.2325 -0.170918 0)
(30.3737 0.0248182 0)
(30.4873 0.077853 0)
(29.8121 0.140113 0)
(29.8187 0.0423417 0)
(29.5565 0.17058 0)
(29.1643 0.124486 0)
(29.2912 0.0356762 0)
(28.9621 0.184543 0)
(28.52 0.0991092 0)
(27.9838 0.0661985 0)
(27.3634 0.138097 0)
(26.7555 0.153485 0)
(25.7009 0.156372 0)
(24.9589 0.371964 0)
(23.2862 0.735659 0)
(22.5054 1.91494 0)
(20.7171 2.3149 0)
(17.3329 4.20601 0)
(13.9456 6.85776 0)
(8.8024 15.2453 0)
(29.9174 -0.0641215 0)
(30.4097 -0.175587 0)
(30.1487 0.0280544 0)
(30.162 0.0808192 0)
(29.5898 0.143817 0)
(29.9375 0.0439602 0)
(29.4428 0.178027 0)
(29.1358 0.127488 0)
(29.1639 0.0330751 0)
(28.993 0.188245 0)
(28.5616 0.105222 0)
(28.0018 0.0743668 0)
(27.3351 0.147954 0)
(26.6919 0.168493 0)
(25.6179 0.173847 0)
(24.8905 0.398972 0)
(23.2501 0.764436 0)
(22.5427 1.95186 0)
(20.726 2.39799 0)
(17.2831 4.32613 0)
(13.9855 7.02536 0)
(8.86355 15.7495 0)
(29.926 -0.0652173 0)
(30.1948 -0.17725 0)
(30.3711 0.0234099 0)
(30.4789 0.0823876 0)
(29.8292 0.149608 0)
(29.8162 0.0467758 0)
(29.5706 0.178066 0)
(29.1945 0.130181 0)
(29.2814 0.0336593 0)
(29.0387 0.191666 0)
(28.5936 0.111523 0)
(28.01 0.0830363 0)
(27.3018 0.158402 0)
(26.6311 0.183927 0)
(25.5459 0.191347 0)
(24.8354 0.425446 0)
(23.2241 0.791989 0)
(22.5793 1.98825 0)
(20.7389 2.4823 0)
(17.2517 4.44565 0)
(14.0563 7.19152 0)
(8.92896 16.255 0)
(29.926 -0.0658536 0)
(30.3704 -0.18168 0)
(30.1487 0.0244334 0)
(30.16 0.0848595 0)
(29.6111 0.153164 0)
(29.9295 0.0492831 0)
(29.4505 0.18572 0)
(29.1583 0.13303 0)
(29.1661 0.0310397 0)
(29.0679 0.194635 0)
(28.6207 0.118004 0)
(28.0108 0.092161 0)
(27.2648 0.169315 0)
(26.5768 0.199593 0)
(25.486 0.208723 0)
(24.7909 0.451431 0)
(23.2056 0.818484 0)
(22.6139 2.02418 0)
(20.7558 2.56759 0)
(17.2365 4.5636 0)
(14.1574 7.35498 0)
(9.00136 16.7658 0)
(29.934 -0.0668341 0)
(30.1562 -0.183267 0)
(30.3785 0.021368 0)
(30.4774 0.0867444 0)
(29.8439 0.15895 0)
(29.8198 0.0514991 0)
(29.5867 0.18515 0)
(29.2284 0.135808 0)
(29.2724 0.0310848 0)
(29.1053 0.197605 0)
(28.6378 0.12472 0)
(28.0038 0.101725 0)
(27.225 0.180603 0)
(26.526 0.215434 0)
(25.4346 0.225964 0)
(24.7553 0.476962 0)
(23.1929 0.844069 0)
(22.6462 2.05967 0)
(20.7757 2.65347 0)
(17.2397 4.67994 0)
(14.2934 7.51756 0)
(9.08023 17.2794 0)
(29.9341 -0.0673837 0)
(30.3353 -0.187299 0)
(30.1514 0.0201394 0)
(30.1648 0.0887096 0)
(29.6319 0.162399 0)
(29.923 0.0546328 0)
(29.4584 0.192993 0)
(29.185 0.13853 0)
(29.162 0.0259147 0)
(29.129 0.200244 0)
(28.6485 0.131674 0)
(27.9912 0.111671 0)
(27.183 0.19217 0)
(26.4812 0.231309 0)
(25.3923 0.24304 0)
(24.7268 0.502082 0)
(23.1851 0.868876 0)
(22.6758 2.09475 0)
(20.7987 2.7397 0)
(17.2586 4.79361 0)
(14.4625 7.67795 0)
(9.16828 17.8 0)
(29.9422 -0.0682689 0)
(30.1221 -0.188534 0)
(30.3758 0.0189949 0)
(30.4728 0.0909473 0)
(29.8587 0.168162 0)
(29.8185 0.0562043 0)
(29.5969 0.191868 0)
(29.2573 0.141827 0)
(29.2305 0.0237364 0)
(29.1537 0.20274 0)
(28.6496 0.138877 0)
(27.9728 0.121956 0)
(27.1394 0.203936 0)
(26.4393 0.247144 0)
(25.3559 0.259929 0)
(24.7045 0.526825 0)
(23.1811 0.893015 0)
(22.7032 2.12943 0)
(20.8236 2.8259 0)
(17.2945 4.90458 0)
(14.6681 7.83783 0)
(9.26506 18.3253 0)
(29.9419 -0.0687872 0)
(30.3004 -0.191807 0)
(30.1482 0.0161052 0)
(30.1626 0.0927691 0)
(29.6495 0.171598 0)
(29.9152 0.0599864 0)
(29.4646 0.199758 0)
(29.2005 0.144536 0)
(29.1513 0.0272803 0)
(29.1713 0.20491 0)
(28.6441 0.146309 0)
(27.9503 0.132533 0)
(27.0941 0.215839 0)
(26.4023 0.262861 0)
(25.3261 0.276644 0)
(24.6872 0.551231 0)
(23.1807 0.916581 0)
(22.7289 2.16372 0)
(20.8502 2.91185 0)
(17.3447 5.01173 0)
(14.9071 7.99584 0)
(9.37322 18.8595 0)
(29.9495 -0.0696126 0)
(30.0865 -0.193064 0)
(30.378 0.0170677 0)
(30.4696 0.0957261 0)
(29.8674 0.17744 0)
(29.8192 0.061222 0)
(29.6075 0.19832 0)
(29.2831 0.147968 0)
(29.201 0.0326354 0)
(29.1917 0.20746 0)
(28.63 0.153997 0)
(27.9236 0.14335 0)
(27.0473 0.227802 0)
(26.367 0.278401 0)
(25.2997 0.293154 0)
(24.6744 0.575326 0)
(23.1836 0.939644 0)
(22.7542 2.19767 0)
(20.8771 2.9972 0)
(17.4104 5.11494 0)
(15.1821 8.15371 0)
(9.49229 19.4004 0)
(29.9483 -0.0699908 0)
(30.2688 -0.197698 0)
(30.1611 0.0126963 0)
(30.1747 0.0979393 0)
(29.6706 0.181318 0)
(29.9086 0.0654837 0)
(29.4732 0.20636 0)
(29.2141 0.151013 0)
(29.1988 0.0318533 0)
(29.2148 0.210545 0)
(28.6099 0.161963 0)
(27.8942 0.154369 0)
(26.9988 0.239794 0)
(26.3351 0.293731 0)
(25.2774 0.309487 0)
(24.6651 0.599152 0)
(23.1897 0.962285 0)
(22.7801 2.23138 0)
(20.9038 3.08175 0)
(17.4897 5.21314 0)
(15.4893 8.30997 0)
(9.62482 19.9522 0)
(29.9535 -0.0705862 0)
(30.0588 -0.200964 0)
(30.3805 0.0118419 0)
(30.4613 0.10104 0)
(29.8768 0.187134 0)
(29.8257 0.0668122 0)
(29.6277 0.204411 0)
(29.3132 0.155548 0)
(29.2222 0.0303918 0)
(29.2365 0.214133 0)
(28.5824 0.170271 0)
(27.8621 0.165581 0)
(26.9487 0.2518 0)
(26.3034 0.3089 0)
(25.256 0.325684 0)
(24.6592 0.622687 0)
(23.1991 0.984524 0)
(22.8087 2.26492 0)
(20.9286 3.16523 0)
(17.5847 5.30637 0)
(15.8317 8.46621 0)
(9.77024 20.5127 0)
(29.942 -0.0709313 0)
(30.2559 -0.204649 0)
(30.2547 0.00394802 0)
(30.2564 0.102177 0)
(29.7268 0.190962 0)
(29.9076 0.071354 0)
(29.4933 0.21109 0)
(29.2976 0.158636 0)
(29.2229 0.0293843 0)
(29.2584 0.217861 0)
(28.5498 0.178881 0)
(27.8287 0.176996 0)
(26.8967 0.263858 0)
(26.2739 0.323884 0)
(25.2362 0.341708 0)
(24.6558 0.64587 0)
(23.212 1.00631 0)
(22.8421 2.29819 0)
(20.9505 3.24745 0)
(17.6945 5.3936 0)
(16.2063 8.62062 0)
(9.93091 21.0872 0)
(29.9387 -0.0718757 0)
(30.0985 -0.203125 0)
(30.4836 0.00401035 0)
(30.5553 0.103708 0)
(29.9593 0.197007 0)
(29.8904 0.0719169 0)
(29.666 0.209483 0)
(29.4404 0.162177 0)
(29.2246 0.0282329 0)
(29.2783 0.221725 0)
(28.5111 0.187903 0)
(27.794 0.188785 0)
(26.843 0.276204 0)
(26.2429 0.338926 0)
(25.2141 0.357566 0)
(24.6547 0.668429 0)
(23.2284 1.02739 0)
(22.8831 2.33071 0)
(20.9667 3.32832 0)
(17.8232 5.47418 0)
(16.6202 8.77531 0)
(10.1061 21.6763 0)
(29.9195 -0.0725306 0)
(30.3609 -0.20441 0)
(30.5563 -0.00216773 0)
(30.4351 0.103659 0)
(29.8548 0.200421 0)
(30.0176 0.0832664 0)
(29.5522 0.209518 0)
(29.4754 0.166432 0)
(29.211 0.0276708 0)
(29.3003 0.224951 0)
(28.4691 0.197219 0)
(27.7596 0.201429 0)
(26.7873 0.289927 0)
(26.2129 0.355957 0)
(25.1903 0.375621 0)
(24.655 0.691662 0)
(23.2479 1.04867 0)
(22.9348 2.36226 0)
(20.9764 3.40516 0)
(17.9713 5.54862 0)
(17.0792 8.93445 0)
(10.3822 22.3201 0)
(-4.91857 0.125493 0)
(-5.76329 -0.00202639 0)
(-4.35823 -0.0605477 0)
(0.154156 -0.0459602 0)
(0.65933 -0.0305803 0)
(3.9179 -0.0336704 0)
(4.96063 -0.0238545 0)
(7.28961 -0.0249183 0)
(8.80126 -0.0190678 0)
(10.1606 -0.0192847 0)
(12.2818 -0.0202287 0)
(13.8406 -0.0121971 0)
(14.987 -0.0104857 0)
(15.9824 -0.00941785 0)
(17.4428 -0.0113737 0)
(19.0285 -0.0115868 0)
(20.7172 -0.0107624 0)
(22.3916 -0.00978095 0)
(24.0454 -0.00849519 0)
(25.566 -0.00657352 0)
(26.7669 -0.00458498 0)
(27.552 -0.00295866 0)
(28.1419 -0.0018367 0)
(28.478 -0.00101928 0)
(28.6913 -0.000678297 0)
(28.8775 -0.000533313 0)
(29.0322 -0.000446913 0)
(29.1869 -0.000393486 0)
(29.3207 -0.000300442 0)
(29.4453 -0.00025747 0)
(29.5272 -0.000175769 0)
(29.5958 -0.000104986 0)
(29.643 -0.000112431 0)
(29.7052 -6.05612e-05 0)
(29.7252 -1.55916e-05 0)
(-4.57342 0.358032 0)
(-5.51046 -0.00472502 0)
(-4.42689 -0.172005 0)
(-0.00783013 -0.140073 0)
(0.572453 -0.0974251 0)
(3.82115 -0.0975108 0)
(5.02029 -0.0767136 0)
(7.31169 -0.0738566 0)
(8.79011 -0.0554556 0)
(10.1857 -0.0571511 0)
(12.0981 -0.0619063 0)
(13.628 -0.0356407 0)
(14.855 -0.0287386 0)
(15.8416 -0.0298682 0)
(17.1616 -0.0340543 0)
(18.6529 -0.0345379 0)
(20.2698 -0.0327099 0)
(21.8892 -0.0301299 0)
(23.5521 -0.0269525 0)
(25.1784 -0.0213449 0)
(26.5555 -0.0144714 0)
(27.4469 -0.0091805 0)
(28.0762 -0.00570102 0)
(28.4365 -0.0031454 0)
(28.6608 -0.00207935 0)
(28.8516 -0.00163283 0)
(29.0098 -0.00136435 0)
(29.1672 -0.00118638 0)
(29.3047 -0.000940163 0)
(29.4318 -0.000754289 0)
(29.5153 -0.000513127 0)
(29.586 -0.000329482 0)
(29.6341 -0.000323069 0)
(29.6975 -0.000196971 0)
(29.7191 -4.81639e-05 0)
(-4.34664 0.57842 0)
(-5.30663 0.0108657 0)
(-4.40624 -0.280487 0)
(-0.06185 -0.233842 0)
(0.634261 -0.161882 0)
(3.84425 -0.169592 0)
(5.10967 -0.128045 0)
(7.41199 -0.121447 0)
(8.838 -0.0950069 0)
(10.2436 -0.0913103 0)
(12.019 -0.100074 0)
(13.5147 -0.0584137 0)
(14.768 -0.0508188 0)
(15.7645 -0.046449 0)
(17.0296 -0.0539788 0)
(18.4296 -0.0556046 0)
(19.9544 -0.0526333 0)
(21.4974 -0.0491818 0)
(23.1357 -0.0451654 0)
(24.8402 -0.0369551 0)
(26.3676 -0.0258834 0)
(27.3504 -0.0161497 0)
(28.0137 -0.00980205 0)
(28.3948 -0.00542077 0)
(28.6292 -0.00353019 0)
(28.8245 -0.00274762 0)
(28.9866 -0.00229357 0)
(29.1467 -0.00200911 0)
(29.2877 -0.00155595 0)
(29.4177 -0.00130015 0)
(29.5024 -0.000890216 0)
(29.5754 -0.000541963 0)
(29.6245 -0.000567016 0)
(29.6892 -0.000318696 0)
(29.7122 -8.33785e-05 0)
(-4.13846 0.787982 0)
(-5.07203 0.0269887 0)
(-4.3082 -0.383277 0)
(-0.0162908 -0.328743 0)
(0.792691 -0.228304 0)
(3.95455 -0.239522 0)
(5.25947 -0.181162 0)
(7.55598 -0.168631 0)
(8.94456 -0.132775 0)
(10.3557 -0.124904 0)
(12.0258 -0.137126 0)
(13.4857 -0.0812922 0)
(14.7468 -0.0723149 0)
(15.7666 -0.0640778 0)
(17.0086 -0.0735626 0)
(18.3314 -0.0757313 0)
(19.7581 -0.071793 0)
(21.2089 -0.0678479 0)
(22.7974 -0.0638479 0)
(24.553 -0.053802 0)
(26.2034 -0.038304 0)
(27.2621 -0.0235931 0)
(27.9535 -0.0141191 0)
(28.3527 -0.00780289 0)
(28.5967 -0.00503485 0)
(28.7966 -0.00389294 0)
(28.9625 -0.00324525 0)
(29.1254 -0.00284602 0)
(29.27 -0.00220381 0)
(29.4028 -0.00184275 0)
(29.489 -0.00126557 0)
(29.5642 -0.000766188 0)
(29.6144 -0.000806105 0)
(29.6805 -0.000451539 0)
(29.7049 -0.000120877 0)
(-3.93915 0.987101 0)
(-4.80528 0.0443496 0)
(-4.14405 -0.482965 0)
(0.103698 -0.424445 0)
(1.0162 -0.294996 0)
(4.12545 -0.309197 0)
(5.45356 -0.233785 0)
(7.72931 -0.215583 0)
(9.0924 -0.169661 0)
(10.5072 -0.157664 0)
(12.0996 -0.171857 0)
(13.5239 -0.104813 0)
(14.7852 -0.0939207 0)
(15.8372 -0.0818968 0)
(17.0784 -0.0925842 0)
(18.3376 -0.0946632 0)
(19.6665 -0.0896774 0)
(21.0169 -0.0855535 0)
(22.5375 -0.0823754 0)
(24.3197 -0.0713986 0)
(26.0641 -0.0515858 0)
(27.1825 -0.0314584 0)
(27.8959 -0.0186086 0)
(28.3105 -0.0102843 0)
(28.5638 -0.00658807 0)
(28.7683 -0.00506494 0)
(28.9379 -0.00421653 0)
(29.1037 -0.00370044 0)
(29.2518 -0.00286647 0)
(29.3874 -0.00239721 0)
(29.4752 -0.00164872 0)
(29.5525 -0.000996315 0)
(29.6038 -0.00105029 0)
(29.6715 -0.000588334 0)
(29.697 -0.00016056 0)
(-3.74293 1.17523 0)
(-4.507 0.0615722 0)
(-3.92537 -0.580043 0)
(0.273868 -0.521113 0)
(1.27827 -0.362546 0)
(4.33385 -0.378467 0)
(5.67697 -0.286087 0)
(7.92093 -0.262238 0)
(9.26754 -0.205856 0)
(10.685 -0.189987 0)
(12.2191 -0.204845 0)
(13.6099 -0.128597 0)
(14.8688 -0.115564 0)
(15.9573 -0.100186 0)
(17.2118 -0.111253 0)
(18.4207 -0.112489 0)
(19.6595 -0.106285 0)
(20.9103 -0.102188 0)
(22.3532 -0.100549 0)
(24.1403 -0.0894781 0)
(25.95 -0.0654996 0)
(27.1116 -0.0396398 0)
(27.8412 -0.0232343 0)
(28.2687 -0.0128528 0)
(28.5308 -0.00818893 0)
(28.7399 -0.00626374 0)
(28.9131 -0.00520741 0)
(29.0819 -0.00457209 0)
(29.2334 -0.00354579 0)
(29.3716 -0.00296221 0)
(29.4612 -0.00203947 0)
(29.5406 -0.00123259 0)
(29.593 -0.00129894 0)
(29.6623 -0.000729387 0)
(29.6889 -0.00020207 0)
(-3.5472 1.35184 0)
(-4.17966 0.0773737 0)
(-3.66304 -0.674646 0)
(0.474953 -0.618493 0)
(1.56011 -0.430641 0)
(4.5626 -0.447186 0)
(5.91797 -0.337959 0)
(8.12284 -0.308565 0)
(9.45944 -0.241543 0)
(10.8787 -0.221998 0)
(12.3666 -0.236573 0)
(13.7231 -0.152456 0)
(14.9805 -0.13732 0)
(16.1066 -0.119061 0)
(17.382 -0.129761 0)
(18.5531 -0.129381 0)
(19.7144 -0.121717 0)
(20.8744 -0.117743 0)
(22.2378 -0.118216 0)
(24.0125 -0.107783 0)
(25.86 -0.0798228 0)
(27.0494 -0.0480384 0)
(27.7895 -0.0279626 0)
(28.2277 -0.0154972 0)
(28.4981 -0.00983549 0)
(28.7118 -0.0074888 0)
(28.8886 -0.00621747 0)
(29.0602 -0.00546044 0)
(29.2151 -0.00424135 0)
(29.3558 -0.00353724 0)
(29.4471 -0.00243735 0)
(29.5286 -0.00147507 0)
(29.582 -0.00155166 0)
(29.6531 -0.000874881 0)
(29.6807 -0.000245251 0)
(-3.34968 1.51604 0)
(-3.8262 0.0910728 0)
(-3.36716 -0.766514 0)
(0.693186 -0.716017 0)
(1.84962 -0.499258 0)
(4.79985 -0.515384 0)
(6.16807 -0.389318 0)
(8.3298 -0.354536 0)
(9.66126 -0.276908 0)
(11.0811 -0.253749 0)
(12.5283 -0.267156 0)
(13.8483 -0.176269 0)
(15.1052 -0.159217 0)
(16.2673 -0.138544 0)
(17.5662 -0.148221 0)
(18.7093 -0.145521 0)
(19.8076 -0.136142 0)
(20.8907 -0.132304 0)
(22.18 -0.135311 0)
(23.9303 -0.126107 0)
(25.7921 -0.0943616 0)
(26.9956 -0.0565621 0)
(27.7412 -0.0327615 0)
(28.1878 -0.0182069 0)
(28.4661 -0.0115262 0)
(28.6843 -0.00873956 0)
(28.8646 -0.00724635 0)
(29.039 -0.00636536 0)
(29.197 -0.00495238 0)
(29.3402 -0.00412239 0)
(29.4331 -0.00284324 0)
(29.5167 -0.00172359 0)
(29.5712 -0.00180916 0)
(29.6439 -0.00102462 0)
(29.6724 -0.00028995 0)
(-3.15023 1.66739 0)
(-3.45019 0.102399 0)
(-3.04721 -0.855719 0)
(0.919262 -0.813171 0)
(2.13919 -0.568118 0)
(5.03761 -0.583078 0)
(6.42097 -0.440178 0)
(8.53796 -0.400057 0)
(9.86794 -0.311991 0)
(11.2871 -0.285274 0)
(12.6948 -0.296628 0)
(13.9754 -0.200037 0)
(15.2323 -0.181296 0)
(16.4271 -0.158644 0)
(17.7497 -0.166744 0)
(18.8724 -0.161111 0)
(19.9207 -0.149778 0)
(20.9416 -0.146029 0)
(22.1667 -0.151834 0)
(23.8858 -0.144301 0)
(25.7434 -0.108953 0)
(26.9496 -0.0651368 0)
(27.6964 -0.0376038 0)
(28.1496 -0.0209723 0)
(28.4352 -0.0132589 0)
(28.6579 -0.0100155 0)
(28.8414 -0.00829319 0)
(29.0186 -0.0072857 0)
(29.1796 -0.00567798 0)
(29.3248 -0.00471651 0)
(29.4194 -0.00325644 0)
(29.505 -0.00197801 0)
(29.5605 -0.00207099 0)
(29.6349 -0.00117862 0)
(29.6642 -0.000336013 0)
(-2.94813 1.80502 0)
(-3.05501 0.110725 0)
(-2.71258 -0.941903 0)
(1.14708 -0.909463 0)
(2.4241 -0.637084 0)
(5.27044 -0.650269 0)
(6.6719 -0.490599 0)
(8.74457 -0.44518 0)
(10.0761 -0.346852 0)
(11.493 -0.316472 0)
(12.8602 -0.325097 0)
(14.0989 -0.223693 0)
(15.3552 -0.203543 0)
(16.5772 -0.17925 0)
(17.9221 -0.185335 0)
(19.0305 -0.17626 0)
(20.0399 -0.162789 0)
(21.0121 -0.159073 0)
(22.1841 -0.167833 0)
(23.8698 -0.162266 0)
(25.7102 -0.123477 0)
(26.9107 -0.0736978 0)
(27.655 -0.0424654 0)
(28.1131 -0.0237848 0)
(28.4057 -0.0150318 0)
(28.6328 -0.0113159 0)
(28.8194 -0.00935714 0)
(28.999 -0.00822107 0)
(29.1628 -0.00641706 0)
(29.3101 -0.00531946 0)
(29.4061 -0.00367735 0)
(29.4938 -0.00223813 0)
(29.5501 -0.00233751 0)
(29.6262 -0.00133661 0)
(29.6562 -0.000383296 0)
(-2.74437 1.9289 0)
(-2.64417 0.115831 0)
(-2.37272 -1.02473 0)
(1.37266 -1.0046 0)
(2.70124 -0.70607 0)
(5.49476 -0.716951 0)
(6.91708 -0.540609 0)
(8.9472 -0.489889 0)
(10.2827 -0.381542 0)
(11.6958 -0.347307 0)
(13.0206 -0.352533 0)
(14.2164 -0.247149 0)
(15.4703 -0.225982 0)
(16.713 -0.200295 0)
(18.0783 -0.204045 0)
(19.1776 -0.191099 0)
(20.1573 -0.175329 0)
(21.0918 -0.171583 0)
(22.2209 -0.183374 0)
(23.8741 -0.179953 0)
(25.6893 -0.13785 0)
(26.878 -0.0822011 0)
(27.6172 -0.0473278 0)