/*--------------------------------*- C++ -*----------------------------------*\
| =========                 |                                                 |
| \\      /  F ield         | OpenFOAM: The Open Source CFD Toolbox           |
|  \\    /   O peration     | Version:  v1912                                 |
|   \\  /    A nd           | Website:  www.openfoam.com                      |
|    \\/     M anipulation  |                                                 |
\*---------------------------------------------------------------------------*/
FoamFile
{
    version     2.0;
    format      ascii;
    class       volScalarField;
    location    "20";
    object      yPlus;
}
// * * * * * * * * * * * * * * * * * * * * * * * * * * * * * * * * * * * * * //

dimensions      [0 0 0 0 0 0 0];


internalField   uniform 0;

boundaryField
{
    inlet
    {
        type            calculated;
        value           uniform 0;
    }
    outlet
    {
        type            calculated;
        value           uniform 0;
    }
    lowerSymmetry
    {
        type            symmetryPlane;
    }
    obstical
    {
        type            calculated;
        value           nonuniform List<scalar> 
88
(
663.624
653.677
648.387
648.317
652.415
660.226
671.18
684.991
701.194
719.598
739.808
761.699
784.903
809.337
834.664
860.872
887.66
915.078
942.855
971.102
999.565
1028.4
1057.36
1086.63
1115.98
1145.63
1175.35
1205.39
1235.53
1266.04
1296.73
1327.88
1359.3
1391.31
1423.72
1456.84
1490.51
1525.04
1560.26
1596.48
1633.54
1671.8
1711.26
1756.63
398.716
374.638
359.907
347.33
336.193
326.049
316.67
307.835
299.478
291.469
283.817
276.427
269.332
262.437
255.784
249.258
242.897
236.571
230.311
223.954
217.525
211.115
204.972
199.263
194.36
190.61
188.524
188.527
191
196.036
203.407
212.46
222.121
230.937
237.184
239.249
236.036
227.412
214.245
198.316
182.012
168
159.519
162.1
)
;
    }
    obsticalTop
    {
        type            calculated;
        value           nonuniform List<scalar> 
20
(
51.3707
29.7541
37.9229
44.8375
48.8656
52.282
54.6553
55.9897
56.4605
56.2208
55.1071
53.5883
51.4578
48.8235
45.4361
40.8786
36.3175
26.6866
21.9983
24.0169
)
;
    }
    top
    {
        type            calculated;
        value           uniform 0;
    }
    defaultFaces
    {
        type            empty;
    }
}


// ************************************************************************* //
