/*--------------------------------*- C++ -*----------------------------------*\
| =========                 |                                                 |
| \\      /  F ield         | OpenFOAM: The Open Source CFD Toolbox           |
|  \\    /   O peration     | Version:  v1912                                 |
|   \\  /    A nd           | Website:  www.openfoam.com                      |
|    \\/     M anipulation  |                                                 |
\*---------------------------------------------------------------------------*/
FoamFile
{
    version     2.0;
    format      ascii;
    class       volScalarField;
    location    "500";
    object      p;
}
// * * * * * * * * * * * * * * * * * * * * * * * * * * * * * * * * * * * * * //

dimensions      [0 2 -2 0 0 0 0];


internalField   nonuniform List<scalar> 
2000
(
-0.0459601
0.0714512
0.126031
0.119143
0.103315
0.0970091
0.0964035
0.0977526
0.0979705
0.0977494
0.0978881
0.0975593
0.0972965
0.0972403
0.0972967
0.0973142
0.0972702
0.097252
0.0972496
0.0972556
0.0972617
0.097258
0.0972405
0.0972104
0.0971735
0.0971353
0.0971008
0.0970713
0.0970457
0.0970211
0.0969961
0.0969698
0.0969418
0.0969118
0.09688
0.0968467
0.0968125
0.0967781
0.0967447
0.0967131
0.0966845
0.0966605
0.0966424
0.0966315
0.0966285
0.0966333
0.0966451
0.0966633
0.0966872
0.0967142
0.0967319
0.0966954
0.0964856
0.0958606
0.09446
0.0918953
0.0878802
0.082368
0.0758272
0.0696858
0.0660581
0.0660535
0.0706699
0.0795144
0.0916156
0.105952
0.121661
0.137931
0.153839
0.168296
0.180265
0.188877
0.193307
0.192749
0.186421
0.173666
0.153359
0.125303
0.0837947
0.0415081
0.00728666
0.0924632
0.131281
0.118086
0.100345
0.0961461
0.0996852
0.102124
0.0993714
0.0961284
0.0956887
0.0969863
0.0974341
0.0973036
0.0975189
0.0974123
0.0972881
0.0971904
0.097161
0.0971535
0.0971742
0.0972175
0.0972282
0.0972088
0.0971776
0.0971431
0.0971098
0.0970798
0.097054
0.0970297
0.0970029
0.096975
0.0969465
0.0969173
0.0968862
0.096853
0.0968182
0.0967837
0.0967498
0.096717
0.0966868
0.0966609
0.0966416
0.0966304
0.096628
0.0966344
0.0966484
0.0966716
0.0967143
0.0967962
0.0969166
0.0969841
0.0967173
0.0955603
0.0927432
0.0876067
0.0800041
0.070544
0.0608613
0.0540482
0.0536805
0.0589521
0.0674147
0.078338
0.0912491
0.105772
0.121325
0.137123
0.152245
0.165681
0.176424
0.183505
0.186035
0.183289
0.174613
0.159473
0.136967
0.107262
0.066368
0.0294183
0.0583541
0.0921521
0.114844
0.113286
0.104088
0.0999125
0.0999497
0.0993129
0.0974092
0.096724
0.0983074
0.0999
0.0989184
0.0964539
0.0955591
0.0964364
0.0973212
0.0974936
0.0973391
0.0972433
0.0971924
0.09716
0.0971426
0.0971546
0.0971626
0.0971522
0.0971221
0.097078
0.0970434
0.0970107
0.0969871
0.096967
0.0969476
0.0969285
0.0969083
0.0968833
0.0968516
0.0968142
0.0967739
0.0967336
0.0966965
0.0966663
0.0966449
0.0966335
0.0966364
0.0966701
0.0967638
0.0969451
0.0972381
0.0976475
0.0981074
0.0983899
0.0980785
0.0965572
0.093159
0.0874777
0.0797541
0.0712049
0.0638747
0.0593476
0.0583061
0.0617548
0.069064
0.0791031
0.0910883
0.104538
0.118862
0.133226
0.146667
0.158194
0.166861
0.171823
0.172376
0.16797
0.158138
0.142543
0.120598
0.0928362
0.0565428
0.0249906
0.0833409
0.0933547
0.105905
0.109984
0.107291
0.104272
0.102611
0.100879
0.0992573
0.0984387
0.0982471
0.0981469
0.0977999
0.0970946
0.0965687
0.0975174
0.0987729
0.0980393
0.0968884
0.0964888
0.0964442
0.0966217
0.0969102
0.0971329
0.0972612
0.0973389
0.0973824
0.0973573
0.097272
0.0971749
0.0970844
0.0970109
0.0969611
0.0969391
0.096929
0.0969138
0.0968822
0.0968417
0.0967974
0.0967514
0.096708
0.0966731
0.0966497
0.0966395
0.0966496
0.0967115
0.0968798
0.0971751
0.0976316
0.0982355
0.0989379
0.0993702
0.0991512
0.0977468
0.0946614
0.0896832
0.0831069
0.0757564
0.0688194
0.0641505
0.0628694
0.0656792
0.0721778
0.0813364
0.0923062
0.104465
0.117134
0.129485
0.140629
0.149722
0.156008
0.158842
0.157697
0.15216
0.14188
0.126637
0.106041
0.0807021
0.0487321
0.0208074
0.0956813
0.0992817
0.106801
0.110772
0.109643
0.107314
0.105932
0.104893
0.10359
0.102138
0.100784
0.0996936
0.0989634
0.0981194
0.0971558
0.0971888
0.0977439
0.0979571
0.097809
0.0973661
0.0970346
0.0969262
0.096986
0.0971686
0.0973618
0.0974742
0.0974252
0.0972348
0.0971012
0.0970021
0.0969316
0.0968884
0.0968709
0.0968918
0.0969327
0.0969608
0.0969584
0.0969239
0.0968657
0.0967953
0.0967231
0.0966574
0.0966028
0.0965558
0.0965147
0.0964957
0.0965687
0.0968539
0.0973212
0.0979413
0.0986039
0.0990253
0.0987998
0.0974508
0.0945804
0.0900718
0.0842537
0.0779588
0.0724419
0.0691165
0.0688236
0.071789
0.0776568
0.085701
0.0951843
0.10546
0.115882
0.125749
0.134351
0.141031
0.145206
0.146376
0.144119
0.138088
0.127978
0.113602
0.0946449
0.0716918
0.0432504
0.0181938
0.104122
0.105956
0.109909
0.11208
0.111265
0.109656
0.108697
0.108021
0.107061
0.105869
0.104738
0.103745
0.102729
0.101404
0.100029
0.0993224
0.099193
0.0990629
0.0985003
0.0976244
0.097015
0.0968153
0.096906
0.0971135
0.0972814
0.0973712
0.0974067
0.0973949
0.0973099
0.0972006
0.0970998
0.0970225
0.0969733
0.0969634
0.0969376
0.0968997
0.0968542
0.0968027
0.0967408
0.0966735
0.0966113
0.0965645
0.0965418
0.0965485
0.0965937
0.096704
0.0969321
0.0973292
0.0978685
0.0984839
0.099042
0.0992962
0.0989158
0.0975739
0.0950608
0.0914117
0.0869957
0.0825124
0.078857
0.0768963
0.0771854
0.0798701
0.0847312
0.0912753
0.0989102
0.107065
0.115191
0.122731
0.129131
0.133869
0.136471
0.136513
0.133617
0.127452
0.117715
0.104211
0.0866367
0.0655253
0.0395265
0.0165589
0.110933
0.111756
0.112993
0.113331
0.112544
0.111558
0.110899
0.110359
0.109691
0.108934
0.108207
0.107485
0.106623
0.105513
0.104345
0.103491
0.102979
0.102382
0.101416
0.100323
0.0995134
0.0990771
0.0988886
0.0987974
0.0987092
0.0986039
0.0984805
0.0983119
0.0980899
0.0978753
0.097703
0.0975741
0.0974777
0.0974367
0.0976102
0.0976907
0.0976827
0.0976703
0.0976718
0.0976832
0.0977106
0.0977666
0.0978618
0.0980033
0.0981999
0.0984684
0.0988328
0.0993088
0.099869
0.100439
0.100891
0.101037
0.10065
0.0995315
0.0975847
0.0948897
0.0917453
0.0886508
0.0862145
0.0850188
0.0854643
0.0876714
0.0914897
0.0965677
0.102461
0.108718
0.1149
0.120563
0.12526
0.128555
0.130033
0.129309
0.126022
0.119842
0.110457
0.097656
0.0811245
0.0613401
0.0369921
0.0155227
0.116809
0.116755
0.115839
0.114631
0.113807
0.113289
0.112813
0.112341
0.111897
0.111459
0.111006
0.110507
0.109906
0.109162
0.108356
0.107664
0.107124
0.106498
0.105634
0.104685
0.10389
0.103325
0.102927
0.102614
0.102336
0.102071
0.101807
0.101531
0.101252
0.101006
0.100816
0.100684
0.100612
0.100626
0.100734
0.100795
0.100809
0.100831
0.10088
0.100954
0.101055
0.101189
0.101364
0.101584
0.101854
0.10218
0.102569
0.103019
0.103498
0.103937
0.104232
0.104249
0.10384
0.102887
0.101349
0.0993113
0.0970006
0.0947734
0.0930545
0.0922463
0.0926312
0.094304
0.0971718
0.100998
0.105463
0.110219
0.114907
0.119158
0.122591
0.124825
0.125485
0.12421
0.120653
0.114486
0.10539
0.0931329
0.0773777
0.0585433
0.0353296
0.0148488
0.122213
0.121224
0.11826
0.115716
0.11496
0.114871
0.114537
0.114128
0.113862
0.113643
0.113372
0.113045
0.112655
0.112174
0.111637
0.111146
0.110734
0.110263
0.109632
0.108916
0.108269
0.107766
0.107383
0.107069
0.106785
0.106511
0.10624
0.105969
0.105707
0.105474
0.105286
0.10515
0.105074
0.105059
0.105071
0.105115
0.105157
0.105203
0.105268
0.105356
0.105467
0.105605
0.105773
0.105976
0.106214
0.106488
0.106797
0.10713
0.107456
0.107719
0.107841
0.107727
0.107279
0.106425
0.105151
0.10353
0.101734
0.10002
0.0986918
0.0980401
0.0982754
0.0994828
0.101612
0.104499
0.107903
0.111544
0.11512
0.118312
0.12079
0.122214
0.122247
0.120552
0.116796
0.110656
0.101804
0.089986
0.0748301
0.0566923
0.0342704
0.014395
0.127443
0.125256
0.120061
0.116417
0.115953
0.11628
0.116051
0.115726
0.115641
0.115608
0.115484
0.115291
0.115048
0.114735
0.114373
0.114035
0.113745
0.113413
0.112964
0.112442
0.111959
0.11158
0.111292
0.111055
0.110836
0.110622
0.110406
0.110192
0.109983
0.109795
0.109641
0.109531
0.109468
0.10945
0.109412
0.109441
0.109484
0.109523
0.109569
0.109632
0.109712
0.109812
0.109933
0.110078
0.110246
0.110435
0.110641
0.11085
0.111035
0.111151
0.11114
0.11093
0.110454
0.109667
0.108565
0.10721
0.105733
0.104329
0.103226
0.102643
0.102746
0.103606
0.105194
0.107388
0.109996
0.112786
0.115499
0.117863
0.119586
0.120369
0.119904
0.117882
0.113985
0.107892
0.0992658
0.0878242
0.0731526
0.0555412
0.0336577
0.0141279
0.132682
0.128832
0.121139
0.116748
0.11684
0.117531
0.117359
0.117144
0.117246
0.117382
0.117392
0.117319
0.117196
0.11701
0.116775
0.116545
0.116341
0.116101
0.115771
0.115384
0.115025
0.114744
0.114533
0.114362
0.114203
0.114046
0.113888
0.113729
0.113574
0.113434
0.113317
0.113233
0.113179
0.113145
0.113116
0.11313
0.113159
0.113183
0.113211
0.11325
0.113302
0.113367
0.113446
0.11354
0.113649
0.113768
0.113893
0.114009
0.114092
0.114108
0.114009
0.113741
0.113257
0.112525
0.111548
0.110379
0.109122
0.107928
0.106975
0.106433
0.10643
0.107028
0.108205
0.109863
0.111848
0.113962
0.115986
0.117681
0.118793
0.119057
0.118196
0.115923
0.111934
0.105911
0.0975031
0.0864003
0.0721344
0.0549321
0.0333798
0.0140472
0.138049
0.131879
0.121465
0.116806
0.117672
0.118634
0.118484
0.118407
0.118693
0.118973
0.119101
0.119141
0.11913
0.119055
0.118927
0.118788
0.118655
0.118486
0.118243
0.117952
0.117679
0.117464
0.117306
0.117178
0.117062
0.116946
0.116829
0.116711
0.116595
0.116489
0.116401
0.116335
0.116293
0.116263
0.116245
0.116252
0.116271
0.116288
0.116306
0.11633
0.116362
0.116402
0.116451
0.116508
0.116572
0.11664
0.116704
0.116753
0.116766
0.116712
0.116555
0.116253
0.11577
0.115086
0.114206
0.113175
0.112078
0.111035
0.110186
0.109665
0.109575
0.109963
0.110812
0.112041
0.113521
0.115085
0.116542
0.117687
0.118298
0.11814
0.116965
0.114505
0.110468
0.104536
0.0963435
0.0855516
0.0716335
0.0547587
0.0333621
0.0141672
0.143621
0.134293
0.121073
0.11671
0.118472
0.119589
0.119454
0.119541
0.119996
0.120397
0.120629
0.120772
0.12086
0.120884
0.120852
0.120796
0.120731
0.120628
0.120458
0.120245
0.120041
0.11988
0.119762
0.119669
0.119584
0.1195
0.119413
0.119325
0.119238
0.119159
0.119091
0.11904
0.119004
0.118989
0.118978
0.118981
0.118993
0.119005
0.119015
0.119028
0.119044
0.119065
0.119089
0.119116
0.119146
0.119173
0.119191
0.119189
0.119147
0.119043
0.118845
0.118521
0.118044
0.117399
0.116594
0.115668
0.11469
0.113758
0.112982
0.11247
0.112302
0.112514
0.113092
0.113966
0.115027
0.116133
0.117121
0.117813
0.118017
0.117524
0.116108
0.113519
0.109471
0.103645
0.0956604
0.0851528
0.0715351
0.0549325
0.0335479
0.0144919
0.14944
0.135955
0.12006
0.116577
0.119238
0.120396
0.120301
0.120569
0.121171
0.12167
0.121995
0.12223
0.122407
0.122517
0.122568
0.122587
0.122587
0.122545
0.122441
0.122296
0.122152
0.122038
0.121958
0.121897
0.121841
0.121784
0.121723
0.12166
0.121598
0.121539
0.121489
0.121451
0.121426
0.121416
0.121409
0.12141
0.121418
0.121425
0.121429
0.121432
0.121435
0.121439
0.121442
0.121445
0.121445
0.121439
0.121418
0.121374
0.12129
0.121146
0.120915
0.120574
0.120102
0.119487
0.11874
0.117893
0.117003
0.116149
0.115421
0.114903
0.114659
0.114717
0.115062
0.115637
0.116348
0.117075
0.117679
0.118007
0.117889
0.11714
0.115551
0.112882
0.108851
0.103138
0.0953463
0.0850929
0.0717339
0.055368
0.0338881
0.0150031
0.155514
0.136758
0.118573
0.116499
0.119952
0.12107
0.121052
0.121504
0.122229
0.122811
0.123219
0.123536
0.123791
0.123976
0.124099
0.124185
0.124243
0.124256
0.124211
0.124125
0.124034
0.123964
0.123918
0.123886
0.123857
0.123825
0.123788
0.123748
0.123707
0.123667
0.123632
0.123606
0.12359
0.123584
0.12358
0.123581
0.123586
0.123589
0.123587
0.123581
0.123573
0.123562
0.123548
0.123528
0.123503
0.123466
0.123412
0.123332
0.123211
0.123031
0.122772
0.122415
0.121941
0.121346
0.120638
0.119845
0.119014
0.118209
0.117503
0.116964
0.116642
0.116559
0.116703
0.117026
0.117449
0.117872
0.118174
0.118221
0.117864
0.116932
0.115226
0.112516
0.108522
0.102919
0.0952997
0.0852677
0.072129
0.0559801
0.0343381
0.0156567
0.161821
0.136625
0.116788
0.116523
0.12059
0.12163
0.12173
0.122357
0.12318
0.123835
0.124317
0.124708
0.12503
0.12528
0.125468
0.125612
0.125723
0.125786
0.125793
0.125758
0.125714
0.125682
0.125667
0.125662
0.125658
0.125648
0.125633
0.125612
0.125591
0.125568
0.125545
0.12553
0.125521
0.125519
0.125519
0.12552
0.125522
0.125521
0.125513
0.125498
0.125478
0.125452
0.125419
0.125378
0.125326
0.12526
0.125173
0.125057
0.124899
0.124684
0.124395
0.124015
0.123532
0.122942
0.122253
0.121488
0.120688
0.119905
0.119198
0.118624
0.118224
0.118016
0.117992
0.118112
0.11831
0.118501
0.118579
0.118424
0.1179
0.116846
0.115071
0.112349
0.108401
0.102898
0.0954283
0.0855853
0.0726319
0.0566891
0.0348603
0.0163983
0.168311
0.135546
0.114885
0.11666
0.121132
0.122099
0.122352
0.123132
0.124035
0.124753
0.125304
0.125759
0.126141
0.126449
0.126692
0.126889
0.127046
0.127154
0.127206
0.127216
0.127211
0.127213
0.127226
0.127245
0.127261
0.127272
0.127274
0.127271
0.127265
0.127255
0.127244
0.127236
0.127233
0.127233
0.127233
0.127231
0.127228
0.127218
0.1272
0.127173
0.127137
0.127092
0.127036
0.126968
0.126886
0.126787
0.126663
0.126508
0.12631
0.126057
0.125733
0.125325
0.124824
0.124226
0.123539
0.122783
0.121992
0.12121
0.120488
0.119872
0.119401
0.119091
0.118935
0.118903
0.118937
0.118963
0.118886
0.118597
0.117965
0.116837
0.115028
0.112313
0.108413
0.103001
0.0956561
0.0859725
0.0731744
0.0574294
0.035421
0.0171777
0.174899
0.133543
0.113023
0.116893
0.121571
0.122502
0.122925
0.123834
0.124801
0.125575
0.126185
0.126696
0.127129
0.127487
0.127778
0.128019
0.128216
0.128362
0.128452
0.128499
0.128528
0.128557
0.128592
0.128629
0.128662
0.128687
0.128702
0.12871
0.128717
0.128713
0.128706
0.128701
0.128696
0.128692
0.128685
0.128674
0.128658
0.128634
0.128599
0.128553
0.128494
0.128423
0.128339
0.12824
0.128125
0.127989
0.127828
0.127633
0.127396
0.127105
0.126747
0.126311
0.125788
0.125176
0.124482
0.123723
0.122929
0.122138
0.121396
0.120744
0.120215
0.119828
0.119579
0.119441
0.119364
0.119282
0.119106
0.118733
0.118038
0.116871
0.115051
0.112353
0.108502
0.103168
0.0959278
0.0863781
0.07371
0.0581528
0.0359915
0.0179549
0.181493
0.130714
0.111315
0.117178
0.121911
0.122853
0.123447
0.124455
0.125469
0.12629
0.126948
0.127502
0.127975
0.128371
0.128698
0.128974
0.129202
0.129376
0.129495
0.12957
0.129622
0.12967
0.129719
0.129767
0.129809
0.129842
0.129862
0.129877
0.129882
0.129875
0.129866
0.129855
0.129843
0.129827
0.129807
0.129782
0.129748
0.129705
0.129649
0.12958
0.129496
0.129399
0.129287
0.129158
0.129011
0.128843
0.128649
0.128422
0.128153
0.127831
0.127445
0.126986
0.126444
0.125819
0.125116
0.124351
0.123551
0.12275
0.12199
0.12131
0.120741
0.120302
0.119991
0.119784
0.119638
0.119489
0.119255
0.118835
0.118107
0.116925
0.115108
0.112434
0.108627
0.10336
0.0962073
0.0867701
0.0742108
0.0588285
0.0365506
0.0187027
0.188002
0.127188
0.10983
0.117466
0.122156
0.123149
0.123892
0.124967
0.12601
0.12686
0.12755
0.128132
0.128631
0.129051
0.129402
0.129699
0.129947
0.130138
0.130274
0.130365
0.130432
0.130489
0.130545
0.130597
0.130641
0.130675
0.130696
0.130707
0.130702
0.130692
0.130677
0.130657
0.130633
0.130605
0.130572
0.13053
0.13048
0.130419
0.130345
0.130256
0.130153
0.130034
0.1299
0.129748
0.129579
0.129387
0.12917
0.12892
0.128629
0.128287
0.127883
0.127407
0.126854
0.126219
0.12551
0.12474
0.123935
0.123127
0.122354
0.121655
0.12106
0.120588
0.120238
0.11999
0.119804
0.119618
0.119352
0.118908
0.118167
0.116983
0.115177
0.112529
0.108763
0.103553
0.0964737
0.0871309
0.0746636
0.0594402
0.0370843
0.0194061
0.194347
0.123124
0.108607
0.117719
0.122318
0.123372
0.12422
0.125328
0.126384
0.12725
0.127956
0.128553
0.129064
0.129497
0.129861
0.130169
0.130427
0.130627
0.130772
0.130871
0.130944
0.131005
0.131062
0.131114
0.131158
0.13119
0.131209
0.131212
0.131204
0.131189
0.131168
0.13114
0.131107
0.13107
0.131025
0.130973
0.130911
0.130838
0.130751
0.13065
0.130533
0.130401
0.130253
0.130088
0.129904
0.129699
0.129468
0.129205
0.128901
0.128547
0.128133
0.12765
0.127089
0.12645
0.125737
0.124965
0.124156
0.123343
0.122563
0.121852
0.121241
0.120749
0.120377
0.120106
0.119898
0.119692
0.119412
0.118959
0.118217
0.117039
0.115248
0.112625
0.108895
0.103735
0.0967166
0.0874535
0.0750647
0.0599825
0.0375842
0.0200606
0.20053
0.118791
0.107675
0.117912
0.122401
0.123504
0.124413
0.125534
0.126593
0.127466
0.12818
0.128783
0.129301
0.12974
0.130109
0.130423
0.130686
0.13089
0.131038
0.131141
0.131217
0.131279
0.131337
0.131388
0.131431
0.131461
0.131477
0.131479
0.131468
0.131449
0.131423
0.131391
0.131353
0.13131
0.13126
0.131201
0.131133
0.131053
0.130959
0.130851
0.130727
0.130588
0.130433
0.130261
0.13007
0.129858
0.12962
0.129351
0.129041
0.128682
0.128264
0.127776
0.127213
0.126573
0.125859
0.125085
0.124275
0.12346
0.122674
0.121956
0.121336
0.120833
0.120449
0.120166
0.119947
0.119733
0.119448
0.118995
0.118256
0.117088
0.115313
0.112714
0.109017
0.103899
0.0969334
0.0877381
0.0754172
0.0604574
0.0380472
0.0206702
0.206694
0.114703
0.107041
0.118029
0.122418
0.123553
0.124492
0.125619
0.126681
0.127557
0.128274
0.128881
0.129402
0.129844
0.130216
0.130532
0.130797
0.131003
0.131153
0.131258
0.131334
0.131398
0.131456
0.131507
0.131548
0.131577
0.131592
0.131595
0.131582
0.131561
0.131533
0.131499
0.131459
0.131413
0.131361
0.131299
0.131228
0.131145
0.131049
0.130938
0.130811
0.130669
0.130511
0.130336
0.130143
0.129928
0.129688
0.129416
0.129104
0.128744
0.128324
0.127836
0.127273
0.126632
0.125918
0.125145
0.124334
0.123517
0.122729
0.122007
0.121382
0.120872
0.120482
0.120194
0.11997
0.119754
0.119469
0.119019
0.118287
0.117131
0.115373
0.112796
0.109129
0.104048
0.0971287
0.0879924
0.0757322
0.0608781
0.0384795
0.0212539
0.212791
0.111497
0.106644
0.118078
0.122398
0.123546
0.124499
0.125634
0.126698
0.127577
0.128297
0.128906
0.129428
0.129871
0.130245
0.130563
0.130828
0.131035
0.131186
0.131292
0.131369
0.131432
0.13149
0.131541
0.131582
0.131611
0.131626
0.131629
0.131616
0.131595
0.131567
0.131532
0.131492
0.131445
0.131392
0.13133
0.131258
0.131174
0.131077
0.130965
0.130838
0.130695
0.130536
0.130361
0.130167
0.129952
0.129711
0.129439
0.129127
0.128767
0.128348
0.12786
0.127298
0.126658
0.125945
0.125173
0.124362
0.123544
0.122755
0.12203
0.121401
0.120889
0.120495
0.120204
0.119979
0.119763
0.119481
0.119037
0.118314
0.11717
0.115429
0.112874
0.109234
0.104189
0.0973119
0.0882296
0.0760263
0.061267
0.0388928
0.0218449
0.217517
0.109554
0.106419
0.118105
0.122376
0.123522
0.124483
0.125624
0.126691
0.127572
0.128293
0.128903
0.129425
0.129869
0.130243
0.130561
0.130827
0.131035
0.131186
0.131291
0.131369
0.131433
0.131491
0.131543
0.131584
0.131613
0.131629
0.131631
0.131619
0.131597
0.131569
0.131534
0.131494
0.131447
0.131394
0.131332
0.13126
0.131177
0.13108
0.130968
0.130841
0.130698
0.13054
0.130364
0.130171
0.129956
0.129716
0.129445
0.129134
0.128774
0.128356
0.12787
0.127308
0.12667
0.125958
0.125186
0.124376
0.123557
0.122767
0.122041
0.12141
0.120895
0.1205
0.120208
0.119983
0.119768
0.119489
0.119051
0.118336
0.117204
0.115478
0.112942
0.109328
0.104313
0.097474
0.0884392
0.0762848
0.0616103
0.0392524
0.0224078
)
;

boundaryField
{
    inlet
    {
        type            zeroGradient;
    }
    outlet
    {
        type            fixedValue;
        value           uniform 0;
    }
    fixedWalls
    {
        type            zeroGradient;
    }
    frontAndBack
    {
        type            empty;
    }
}


// ************************************************************************* //
