/*--------------------------------*- C++ -*----------------------------------*\
| =========                 |                                                 |
| \\      /  F ield         | OpenFOAM: The Open Source CFD Toolbox           |
|  \\    /   O peration     | Version:  v1912                                 |
|   \\  /    A nd           | Website:  www.openfoam.com                      |
|    \\/     M anipulation  |                                                 |
\*---------------------------------------------------------------------------*/
FoamFile
{
    version     2.0;
    format      ascii;
    class       surfaceScalarField;
    location    "500";
    object      phi;
}
// * * * * * * * * * * * * * * * * * * * * * * * * * * * * * * * * * * * * * //

dimensions      [0 3 -1 0 0 0 0];
oriented        oriented;


internalField   nonuniform List<scalar> 
3895
(
0.000814746
0.000381431
0.00049936
0.000315385
0.000251564
0.000247796
6.48621e-05
0.000186702
-6.21979e-05
0.00012706
-0.000127334
6.51357e-05
-0.000137651
1.0317e-05
-0.000113642
-2.40089e-05
-9.03394e-05
-2.33023e-05
-8.4916e-05
-5.42332e-06
-6.60509e-05
-1.88651e-05
-4.4521e-05
-2.15299e-05
-4.00384e-05
-4.48254e-06
-4.80156e-05
7.97715e-06
-4.47934e-05
-3.22217e-06
-3.1107e-05
-1.36864e-05
-2.45402e-05
-6.5668e-06
-2.55793e-05
1.03914e-06
-2.86771e-05
3.09781e-06
-3.02969e-05
1.61974e-06
-2.91349e-05
-1.16197e-06
-2.51645e-05
-3.97036e-06
-1.92198e-05
-5.94475e-06
-1.29937e-05
-6.22603e-06
-7.52393e-06
-5.46981e-06
-3.39908e-06
-4.12485e-06
-7.02246e-07
-2.69684e-06
9.52967e-07
-1.65521e-06
2.1398e-06
-1.18683e-06
3.23056e-06
-1.09076e-06
4.31935e-06
-1.0888e-06
5.3648e-06
-1.04544e-06
6.33559e-06
-9.70792e-07
7.18125e-06
-8.45659e-07
7.8294e-06
-6.48154e-07
8.20481e-06
-3.75408e-07
8.24673e-06
-4.19192e-08
7.85885e-06
3.87885e-07
7.05741e-06
8.01439e-07
5.8282e-06
1.2292e-06
4.11659e-06
1.71162e-06
1.8309e-06
2.28569e-06
-1.14299e-06
2.97389e-06
-4.92437e-06
3.78138e-06
-9.6311e-06
4.70672e-06
-1.54165e-05
5.78539e-06
-2.26132e-05
7.19674e-06
-3.19287e-05
9.31548e-06
-4.46935e-05
1.27648e-05
-6.30631e-05
1.83696e-05
-8.99405e-05
2.68774e-05
-0.000128367
3.84262e-05
-0.000180702
5.23354e-05
-0.000247926
6.72243e-05
-0.000328711
8.07845e-05
-0.000418579
8.98679e-05
-0.000510159
9.15803e-05
-0.000594553
8.43941e-05
-0.000662907
6.83539e-05
-0.000706482
4.35748e-05
-0.000714232
7.75027e-06
-0.000696606
-1.7626e-05
-0.000657905
-3.87008e-05
-0.000601693
-5.62119e-05
-0.000531886
-6.98076e-05
-0.000451564
-8.03223e-05
-0.000362756
-8.88079e-05
-0.000267051
-9.57049e-05
-0.000166092
-0.000100958
-6.16007e-05
-0.000104492
4.444e-05
-0.000106041
0.000150067
-0.000105627
0.00025371
-0.000103643
0.000354035
-0.000100325
0.000450175
-9.61402e-05
0.000542069
-9.18938e-05
0.000629977
-8.79079e-05
0.000717037
-8.70605e-05
0.000803591
-8.65534e-05
-0.000107342
0.00108795
0.000349294
0.00104738
0.000355947
0.000933277
0.000361904
0.000775744
0.000344235
0.000598427
0.000304378
0.000410382
0.000253181
0.000221251
0.000199448
5.38795e-05
0.000143363
-6.0441e-05
9.10182e-05
-0.000110238
4.43736e-05
-0.000132005
2.90215e-06
-0.000124226
-2.93087e-05
-0.000106061
-2.26485e-05
-0.000108121
1.00378e-05
-0.000103691
-7.65234e-06
-9.07724e-05
-2.6605e-05
-7.62131e-05
-2.11261e-05
-7.78862e-05
2.71217e-06
-8.59327e-05
1.11443e-05
-9.12675e-05
6.95455e-06
-9.31119e-05
6.82493e-07
-8.93867e-05
-7.69555e-06
-8.31791e-05
-1.21524e-05
-7.64613e-05
-1.29438e-05
-6.9982e-05
-1.19491e-05
-6.44535e-05
-9.65341e-06
-6.04795e-05
-6.67078e-06
-5.84894e-05
-3.64532e-06
-5.83651e-05
-1.31118e-06
-5.95698e-05
1.13986e-07
-6.19215e-05
1.26285e-06
-6.4725e-05
1.75813e-06
-6.76778e-05
1.98193e-06
-7.0702e-05
2.1786e-06
-7.39481e-05
2.5979e-06
-7.75692e-05
3.24574e-06
-8.16828e-05
4.07171e-06
-8.63227e-05
5.02773e-06
-9.15962e-05
6.07493e-06
-9.75563e-05
7.18931e-06
-0.000104207
8.36228e-06
-0.000111524
9.60269e-06
-0.00011947
1.09203e-05
-0.000127991
1.2302e-05
-0.000136996
1.37115e-05
-0.000146365
1.51543e-05
-0.000156017
1.68487e-05
-0.000165982
1.92809e-05
-0.000176409
2.31922e-05
-0.000187466
2.94264e-05
-0.000199399
3.88099e-05
-0.000212558
5.15852e-05
-0.00022698
6.67575e-05
-0.000241804
8.20484e-05
-0.000254837
9.38175e-05
-0.000262223
9.72536e-05
-0.000259137
8.84946e-05
-0.000241423
6.668e-05
-0.000207763
3.46935e-05
-0.000167051
2.86331e-06
-0.000120641
-3.86595e-05
-6.87661e-05
-6.95014e-05
-1.42103e-05
-9.32565e-05
4.21032e-05
-0.000112525
0.000101759
-0.000129464
0.000165939
-0.000144502
0.000234495
-0.000157363
0.000306352
-0.000167562
0.000379955
-0.000174562
0.000453518
-0.000178054
0.000525514
-0.000178037
0.000594712
-0.000174825
0.00066006
-0.000168991
0.000720994
-0.000161259
0.000777364
-0.00015251
0.000829287
-0.000143816
0.000877631
-0.000136252
0.000922431
-0.00013186
0.000966403
-0.000130526
-0.000141886
0.000975282
0.000305926
0.00102604
0.000305188
0.00106097
0.000326975
0.00105862
0.000346586
0.00101217
0.000350823
0.000925046
0.000340308
0.000805748
0.000318745
0.000661756
0.000287354
0.000504913
0.000247862
0.000345832
0.000203454
0.000190173
0.000158561
4.70458e-05
0.000113819
-4.99582e-05
7.43555e-05
-8.63598e-05
4.64394e-05
-0.000106474
1.24614e-05
-0.000114666
-1.84123e-05
-0.000102718
-3.30741e-05
-9.2204e-05
-7.80199e-06
-9.93324e-05
1.82727e-05
-0.00010856
1.61824e-05
-0.00011478
6.90261e-06
-0.000119124
-3.35144e-06
-0.000120912
-1.03644e-05
-0.000119602
-1.42537e-05
-0.000117843
-1.37089e-05
-0.00011755
-9.94642e-06
-0.000119323
-4.89718e-06
-0.000123259
2.90418e-07
-0.000127446
2.87618e-06
-0.000132073
4.74072e-06
-0.000136679
5.8692e-06
-0.000141316
6.39485e-06
-0.000145868
6.53396e-06
-0.000150257
6.56724e-06
-0.000154559
6.89992e-06
-0.000158948
7.63447e-06
-0.000163534
8.65782e-06
-0.000168298
9.79222e-06
-0.00017316
1.09367e-05
-0.000178027
1.20559e-05
-0.000182792
1.31278e-05
-0.000187335
1.41453e-05
-0.000191507
1.50924e-05
-0.000195086
1.58812e-05
-0.000197702
1.63273e-05
-0.000198717
1.61694e-05
-0.000197151
1.52823e-05
-0.000192058
1.41884e-05
-0.00018245
1.3584e-05
-0.000167283
1.42594e-05
-0.000145206
1.67331e-05
-0.000115549
2.19284e-05
-7.74647e-05
2.8673e-05
-3.03232e-05
3.49069e-05
2.56081e-05
3.78862e-05
8.77987e-05
3.5063e-05
0.000151769
2.45246e-05
0.000211397
7.05139e-06
0.000265869
-1.97779e-05
0.000317797
-4.9065e-05
0.000360292
-8.1154e-05
0.000401593
-0.000110802
0.000445169
-0.000136833
0.000492528
-0.000159884
0.000543132
-0.000180068
0.000595587
-0.000196957
0.000648172
-0.000209949
0.000699182
-0.000218572
0.000747214
-0.000222594
0.000791255
-0.000222095
0.000830691
-0.000217473
0.000865266
-0.0002094
0.000895021
-0.000198746
0.00092026
-0.000186499
0.000941463
-0.000173713
0.000959134
-0.000161487
0.000973875
-0.000150993
0.000985559
-0.000143545
0.000995254
-0.00014022
-0.000144721
0.000857109
0.000271374
0.000897356
0.000264942
0.000950165
0.000274166
0.00100471
0.000292044
0.00104637
0.000309156
0.00106531
0.000321376
0.00105664
0.000327416
0.00101793
0.00032606
0.000949543
0.000316248
0.000855071
0.000297927
0.000740884
0.000272747
0.000611917
0.000242786
0.0004765
0.000209773
0.000348298
0.000174641
0.00022345
0.000137309
0.00010204
0.000102998
-4.95908e-07
6.94614e-05
-5.23243e-05
4.40265e-05
-6.3918e-05
2.98664e-05
-6.59635e-05
1.82278e-05
-6.84039e-05
9.34302e-06
-7.4242e-05
2.48669e-06
-8.15098e-05
-3.0966e-06
-8.9705e-05
-6.05853e-06
-9.66779e-05
-6.73598e-06
-0.000101839
-4.78514e-06
-0.00010657
-1.66299e-07
-0.000111858
5.57878e-06
-0.000117433
8.45095e-06
-0.000122579
9.88637e-06
-0.000126949
1.02397e-05
-0.00013047
9.9155e-06
-0.000133209
9.27252e-06
-0.000135008
8.36646e-06
-0.000136197
8.08956e-06
-0.000136894
8.33077e-06
-0.000137192
8.95636e-06
-0.000136768
9.36825e-06
-0.000135446
9.61479e-06
-0.000133109
9.71828e-06
-0.000129607
9.62618e-06
-0.000124755
9.29319e-06
-0.000118379
8.7161e-06
-0.000110274
7.77615e-06
-0.000100177
6.23075e-06
-8.78269e-05
3.81933e-06
-7.22966e-05
-2.48012e-07
-5.39725e-05
-4.13579e-06
-3.155e-05
-8.83842e-06
-3.60719e-06
-1.36835e-05
3.10808e-05
-1.79548e-05
7.45334e-05
-2.15243e-05
0.00012753
-2.43234e-05
0.000189457
-2.70204e-05
0.000258259
-3.09151e-05
0.000330964
-3.76425e-05
0.000404215
-4.87267e-05
0.000476349
-6.50823e-05
0.000543287
-8.67156e-05
0.000605638
-0.000111416
0.000661888
-0.000137404
0.000713685
-0.0001626
0.000762291
-0.000185439
0.000807579
-0.000205171
0.000848774
-0.000221264
0.000885011
-0.000233194
0.000915615
-0.000240553
0.000940224
-0.000243181
0.000958845
-0.000241214
0.000971819
-0.000235069
0.000979745
-0.000225399
0.000983379
-0.000213034
0.000983533
-0.0001989
0.000980993
-0.000183959
0.000976444
-0.000169163
0.000970391
-0.000155435
0.000963125
-0.000143727
0.000954475
-0.000134896
0.0009443
-0.000130045
-0.000130186
0.000759397
0.000238011
0.000790536
0.000233803
0.000828351
0.00023635
0.000874986
0.00024541
0.000927002
0.000257139
0.000978872
0.000269507
0.00102441
0.000281874
0.00105755
0.000292924
0.00107319
0.00030061
0.00106786
0.000303256
0.00104041
0.000300192
0.000991556
0.000291643
0.000923237
0.000278092
0.00083886
0.000259018
0.000741525
0.000234644
0.000636627
0.000207896
0.000532126
0.000173963
0.000433847
0.000142305
0.00034879
0.000114924
0.000275762
9.12551e-05
0.000213343
7.17627e-05
0.000159912
5.59176e-05
0.000113481
4.33341e-05
7.37557e-05
3.36669e-05
4.08286e-05
2.61911e-05
1.56544e-05
2.0389e-05
-5.38983e-07
1.60271e-05
-8.02363e-06
1.30634e-05
-1.01262e-05
1.05535e-05
-8.78688e-06
8.54702e-06
-5.36916e-06
6.82193e-06
-7.14172e-07
5.26051e-06
4.75914e-06
3.79921e-06
1.07315e-05
2.39408e-06
1.71944e-05
1.62666e-06
2.47292e-05
7.9599e-07
3.39281e-05
-2.4254e-07
4.47663e-05
-1.46998e-06
5.74833e-05
-3.1022e-06
7.23869e-05
-5.18526e-06
8.97629e-05
-7.74983e-06
0.000109908
-1.08515e-05
0.000133145
-1.4521e-05
0.00015971
-1.87897e-05
0.000189652
-2.37104e-05
0.000222816
-2.93449e-05
0.000258234
-3.5666e-05
0.000296439
-4.23413e-05
0.000336884
-4.92829e-05
0.000379425
-5.62244e-05
0.00042431
-6.28402e-05
0.000471761
-6.89755e-05
0.00052219
-7.4752e-05
0.000575779
-8.06097e-05
0.000632195
-8.73305e-05
0.000690422
-9.58704e-05
0.000748779
-0.000107083
0.000805075
-0.000121378
0.000856891
-0.000138531
0.000903009
-0.000157535
0.000942623
-0.000177018
0.000975557
-0.000195534
0.00100189
-0.000211768
0.00102154
-0.000224825
0.00103445
-0.000234172
0.00104075
-0.000239493
0.00104086
-0.000240665
0.00103548
-0.000237798
0.00102549
-0.000231232
0.00101193
-0.000221504
0.000995817
-0.000209288
0.000978125
-0.000195341
0.000959674
-0.000180449
0.000941097
-0.000165381
0.000922812
-0.000150879
0.000905006
-0.000137628
0.000887607
-0.000126328
0.000870237
-0.000117526
0.000852256
-0.000112064
-0.000110102
0.000672434
0.000206414
0.000702275
0.000203962
0.000733372
0.000205254
0.00076784
0.000210942
0.000806615
0.000218364
0.000850038
0.000226084
0.000897303
0.000234609
0.000946033
0.000244194
0.000992644
0.000254
0.00103306
0.000262844
0.00106349
0.000269755
0.00108117
0.000273961
0.00108445
0.000274818
0.00107208
0.000271389
0.0010437
0.000263017
0.00100104
0.000250559
0.000949048
0.000225955
0.000891679
0.000199673
0.000831922
0.000174682
0.000772171
0.000151006
0.00071462
0.000129313
0.000660558
0.00010998
0.00061079
9.31018e-05
0.000565912
7.85447e-05
0.00052613
6.59736e-05
0.000491424
5.50951e-05
0.000461774
4.56774e-05
0.000437408
3.74295e-05
0.000417961
3e-05
0.000403192
2.33159e-05
0.000392764
1.72499e-05
0.000386331
1.16941e-05
0.000383628
6.50172e-06
0.000384888
1.13386e-06
0.00038976
-3.24499e-06
0.000398393
-7.83737e-06
0.000410629
-1.2478e-05
0.000426322
-1.71629e-05
0.00044524
-2.20208e-05
0.000467172
-2.71173e-05
0.000491909
-3.24864e-05
0.00051921
-3.81526e-05
0.000548815
-4.41256e-05
0.000580429
-5.04036e-05
0.000613697
-5.69784e-05
0.000648176
-6.38238e-05
0.000683377
-7.08679e-05
0.000718987
-7.79505e-05
0.000754614
-8.49103e-05
0.000789975
-9.15851e-05
0.000824957
-9.78228e-05
0.000859563
-0.000103581
0.000893818
-0.000109007
0.000927664
-0.000114455
0.000960795
-0.000120462
0.000992563
-0.000127638
0.00102197
-0.000136487
0.0010478
-0.000147215
0.00106888
-0.000159604
0.00108431
-0.000172964
0.00109357
-0.000186278
0.0010965
-0.000198465
0.00109329
-0.00020856
0.00108435
-0.000215884
0.00107024
-0.000220062
0.0010517
-0.000220949
0.00102961
-0.000218577
0.00100495
-0.000213145
0.000978731
-0.000205008
0.000951864
-0.000194637
0.000925155
-0.000182579
0.000899231
-0.000169418
0.000874531
-0.000155748
0.000851296
-0.000142146
0.000829583
-0.000129167
0.000809269
-0.000117314
0.000790054
-0.000107114
0.000771422
-9.88931e-05
0.000752734
-9.33764e-05
-9.01362e-05
0.000594386
0.000177665
0.00062317
0.000175177
0.000652323
0.0001761
0.000682115
0.00018115
0.000712925
0.000187554
0.000745614
0.000193395
0.000781182
0.00019904
0.000820196
0.00020518
0.000862415
0.000211781
0.000906712
0.000218547
0.000951223
0.000225245
0.000993669
0.000231515
0.00103172
0.000236765
0.00106299
0.000240121
0.00108531
0.000240699
0.00109754
0.000238331
0.00109978
0.000223714
0.0010937
0.000205751
0.00108084
0.00018754
0.0010627
0.000169151
0.00104095
0.000151062
0.00101714
0.000133784
0.000992624
0.000117622
0.000968479
0.00010269
0.000945496
8.89565e-05
0.000924256
7.63356e-05
0.000905211
6.4722e-05
0.000888681
5.39591e-05
0.000874797
4.38847e-05
0.00086369
3.44225e-05
0.00085543
2.55097e-05
0.000850055
1.70695e-05
0.000847554
9.00308e-06
0.000847324
1.36367e-06
0.000850158
-6.07876e-06
0.000855519
-1.3199e-05
0.000863255
-2.02139e-05
0.000873224
-2.71316e-05
0.00088519
-3.39875e-05
0.000898892
-4.08193e-05
0.000914052
-4.76455e-05
0.000930367
-5.44682e-05
0.000947519
-6.12779e-05
0.000965172
-6.8056e-05
0.00098297
-7.47761e-05
0.00100054
-8.1398e-05
0.00101753
-8.78574e-05
0.00103364
-9.40533e-05
0.0010486
-9.98769e-05
0.00106226
-0.000105241
0.00107453
-0.000110098
0.00108543
-0.000114479
0.00109497
-0.000118548
0.00110312
-0.000122601
0.00110969
-0.000127032
0.00111431
-0.000132262
0.00111643
-0.000138609
0.0011154
-0.000146178
0.00111057
-0.000154773
0.00110149
-0.000163891
0.00108802
-0.000172808
0.00107031
-0.000180753
0.00104879
-0.000187043
0.00102409
-0.000191185
0.000996937
-0.000192905
0.000968097
-0.000192109
0.000938361
-0.000188841
0.000908478
-0.000183263
0.000879108
-0.000175639
0.000850784
-0.000166313
0.000823894
-0.000155688
0.000798675
-0.000144199
0.000775226
-0.0001323
0.000753524
-0.000120444
0.000733435
-0.000109077
0.000714721
-9.86005e-05
0.000697049
-8.94417e-05
0.000679915
-8.17595e-05
0.000662851
-7.6312e-05
-7.19499e-05
0.000525111
0.000151816
0.000551936
0.000148352
0.000579146
0.00014889
0.000606468
0.000153829
0.000634007
0.000160015
0.000661954
0.000165448
0.000690629
0.000170365
0.000720607
0.000175202
0.000752537
0.000179851
0.000786878
0.000184206
0.000823729
0.000188394
0.000862739
0.000192505
0.000903092
0.000196412
0.0009435
0.000199713
0.000982323
0.000201876
0.00101804
0.000202613
0.00104833
0.000193421
0.00107279
0.000181298
0.00109162
0.000168703
0.00110524
0.000155533
0.00111428
0.000142025
0.00111952
0.000128544
0.00112177
0.000115367
0.00112181
0.000102649
0.00112032
9.04508e-05
0.00111788
7.87781e-05
0.00111499
6.76129e-05
0.00111204
5.69112e-05
0.0011093
4.66174e-05
0.00110702
3.67034e-05
0.00110537
2.71603e-05
0.00110447
1.7972e-05
0.00110434
9.13177e-06
0.00110492
7.81143e-07
0.00110633
-7.49042e-06
0.0011084
-1.52633e-05
0.001111
-2.28167e-05
0.00111404
-3.01707e-05
0.00111738
-3.73288e-05
0.00112087
-4.43042e-05
0.00112432
-5.11028e-05
0.00112757
-5.77177e-05
0.00113043
-6.41334e-05
0.0011327
-7.03291e-05
0.00113421
-7.62798e-05
0.00113476
-8.19534e-05
0.00113421
-8.73064e-05
0.00113244
-9.22816e-05
0.00112938
-9.68229e-05
0.00112504
-0.000100897
0.00111945
-0.000104511
0.00111271
-0.000107734
0.00110488
-0.000110722
0.001096
-0.000113718
0.00108599
-0.000117019
0.00107465
-0.000120922
0.00106168
-0.000125642
0.00104674
-0.000131236
0.00102951
-0.000137551
0.00100985
-0.000144225
0.000987781
-0.000150741
0.000963564
-0.000156535
0.000937614
-0.000161093
0.000910453
-0.000164024
0.000882628
-0.000165081
0.000854673
-0.000164154
0.000827073
-0.00016124
0.000800238
-0.000156428
0.000774489
-0.00014989
0.000750045
-0.000141869
0.000727029
-0.000132672
0.000705481
-0.00012265
0.000685367
-0.000112187
0.0006666
-0.000101676
0.000649038
-9.15159e-05
0.000632486
-8.20477e-05
0.000616686
-7.36417e-05
0.000601243
-6.63172e-05
0.000585831
-6.08994e-05
-5.54901e-05
0.00046394
0.000128551
0.000488639
0.000123653
0.00051348
0.00012405
0.000538159
0.00012915
0.000563123
0.000135052
0.000588446
0.000140125
0.000613971
0.00014484
0.000639765
0.000149408
0.000666085
0.000153531
0.000693249
0.000157043
0.000721615
0.000160027
0.000751527
0.000162594
0.000783179
0.000164759
0.000816485
0.000166407
0.000851011
0.00016735
0.000886124
0.0001675
0.000919693
0.000159852
0.000950834
0.000150156
0.000979176
0.000140361
0.00100445
0.000130255
0.00102659
0.000119885
0.0010457
0.000109439
0.00106199
9.90762e-05
0.00107575
8.88915e-05
0.00108727
7.89252e-05
0.00109686
6.91892e-05
0.00110479
5.96842e-05
0.0011113
5.0401e-05
0.00111659
4.13252e-05
0.00112084
3.24577e-05
0.00112418
2.38174e-05
0.00112673
1.54238e-05
0.00112856
7.29804e-06
0.00112975
-4.01124e-07
0.00113025
-7.99334e-06
0.00113012
-1.51393e-05
0.00112935
-2.20404e-05
0.00112789
-2.87173e-05
0.00112573
-3.51686e-05
0.00112283
-4.13948e-05
0.00111912
-4.73951e-05
0.00111456
-5.3162e-05
0.00110911
-5.86821e-05
0.00110272
-6.39391e-05
0.00109536
-6.89155e-05
0.00108699
-7.35903e-05
0.00107762
-7.79382e-05
0.00106727
-8.193e-05
0.00105599
-8.55413e-05
0.00104386
-8.87678e-05
0.00103099
-9.16389e-05
0.00101749
-9.42318e-05
0.00100345
-9.66824e-05
0.000988913
-9.91828e-05
0.000973852
-0.000101958
0.000958155
-0.000105225
0.000941647
-0.000109134
0.000924133
-0.000113721
0.00090545
-0.000118868
0.000885527
-0.000124302
0.00086442
-0.000129634
0.000842308
-0.000134423
0.000819465
-0.000138251
0.000796216
-0.000140774
0.000772888
-0.000141753
0.000749782
-0.000141047
0.000727151
-0.00013861
0.000705197
-0.000134474
0.000684061
-0.000128753
0.00066383
-0.000121639
0.000644546
-0.000113388
0.000626213
-0.000104317
0.000608807
-9.47809e-05
0.000592283
-8.51527e-05
0.000576571
-7.58036e-05
0.000561565
-6.70413e-05
0.000547104
-5.91808e-05
0.000532922
-5.21352e-05
0.000518735
-4.67127e-05
-4.04497e-05
0.000410014
0.000107501
0.000432754
0.000100912
0.000455183
0.000101621
0.000477152
0.00010718
0.000499455
0.000112749
0.000522203
0.000117377
0.000545204
0.000121839
0.000568442
0.000126171
0.000591942
0.000130031
0.000615689
0.000133296
0.000639726
0.00013599
0.000664195
0.000138125
0.000689287
0.000139666
0.00071516
0.000140534
0.000741873
0.000140637
0.000769397
0.000139976
0.000796443
0.000132806
0.000822529
0.00012407
0.000847433
0.000115457
0.000870889
0.0001068
0.000892681
9.80934e-05
0.000912684
8.9435e-05
0.000930849
8.09115e-05
0.000947178
7.25622e-05
0.00096171
6.43931e-05
0.000974504
5.63954e-05
0.000985631
4.85578e-05
0.000995164
4.0868e-05
0.00100317
3.33158e-05
0.00100973
2.59042e-05
0.00101489
1.86526e-05
0.00101873
1.15863e-05
0.00102129
4.73592e-06
0.00102272
-1.83225e-06
0.00102296
-8.23568e-06
0.00102218
-1.43503e-05
0.00102037
-2.02319e-05
0.00101756
-2.5912e-05
0.00101379
-3.13927e-05
0.00100906
-3.66701e-05
0.00100341
-4.17413e-05
0.000996846
-4.66003e-05
0.000989401
-5.12374e-05
0.000981102
-5.56405e-05
0.000971983
-5.97967e-05
0.000962085
-6.3692e-05
0.000951457
-6.73105e-05
0.000940164
-7.06362e-05
0.000928281
-7.36592e-05
0.0009159
-7.63865e-05
0.000903114
-7.88525e-05
0.00089001
-8.11282e-05
0.000876655
-8.33272e-05
0.000863074
-8.56019e-05
0.000849242
-8.81258e-05
0.000835079
-9.10616e-05
0.000820466
-9.4521e-05
0.00080527
-9.85254e-05
0.000789381
-0.000102979
0.000772742
-0.000107664
0.000755377
-0.000112268
0.000737381
-0.000116427
0.000718911
-0.000119781
0.000700152
-0.000122016
0.000681292
-0.000122892
0.000662498
-0.000122254
0.000643913
-0.000120024
0.000625648
-0.000116209
0.000607788
-0.000110893
0.000590395
-0.000104245
0.000573515
-9.65078e-05
0.000557183
-8.79854e-05
0.000541429
-7.90267e-05
0.000526272
-6.99962e-05
0.000511716
-6.12478e-05
0.000497738
-5.30626e-05
0.000484249
-4.5692e-05
0.000471095
-3.89812e-05
0.000457958
-3.35762e-05
-2.67758e-05
0.000362528
8.82934e-05
0.000383496
7.99442e-05
0.000403597
8.15199e-05
0.000423064
8.77128e-05
0.00044288
9.29325e-05
0.000463078
9.71788e-05
0.000483525
0.000101393
0.000504298
0.000105398
0.000525421
0.000108907
0.000546808
0.000111909
0.00056837
0.000114428
0.000590063
0.000116432
0.000611871
0.000117858
0.000633791
0.000118614
0.000655821
0.000118607
0.000677978
0.000117819
0.000699354
0.00011143
0.000719755
0.000103668
0.000739193
9.60195e-05
0.000757604
8.8389e-05
0.00077491
8.07875e-05
0.000791049
7.32956e-05
0.000805979
6.59813e-05
0.000819671
5.88704e-05
0.000832106
5.19584e-05
0.000843273
4.52284e-05
0.00085317
3.86612e-05
0.000861799
3.2239e-05
0.000869167
2.59478e-05
0.000875286
1.97846e-05
0.000880178
1.37608e-05
0.000883871
7.89362e-06
0.000886411
2.19556e-06
0.000887874
-3.29509e-06
0.000888278
-8.63957e-06
0.000887713
-1.37859e-05
0.000886218
-1.87365e-05
0.000883822
-2.35165e-05
0.000880562
-2.8132e-05
0.000876471
-3.25795e-05
0.000871585
-3.6855e-05
0.000865938
-4.09534e-05
0.000859567
-4.48665e-05
0.000852511
-4.85843e-05
0.00084481
-5.2096e-05
0.000836508
-5.53901e-05
0.000827653
-5.84549e-05
0.000818297
-6.12805e-05
0.000808501
-6.38633e-05
0.000798329
-6.62146e-05
0.000787845
-6.8368e-05
0.000777103
-7.03868e-05
0.000766143
-7.2367e-05
0.000754974
-7.44332e-05
0.000743573
-7.67241e-05
0.000731879
-7.93675e-05
0.000719807
-8.24492e-05
0.000707263
-8.59812e-05
0.000694165
-8.98806e-05
0.000680465
-9.39648e-05
0.000666164
-9.79674e-05
0.00065131
-0.000101573
0.000635987
-0.000104458
0.000620301
-0.00010633
0.000604362
-0.000106953
0.000588272
-0.000106164
0.000572124
-0.000103876
0.000556002
-0.000100087
0.000539987
-9.48782e-05
0.000524158
-8.84167e-05
0.000508598
-8.09479e-05
0.000493393
-7.27797e-05
0.000478626
-6.42595e-05
0.000464374
-5.57441e-05
0.000450692
-4.75665e-05
0.000437612
-3.99819e-05
0.000425086
-3.31664e-05
0.000413045
-2.69403e-05
0.000401096
-2.16272e-05
-1.46655e-05
0.000320758
7.05687e-05
0.000340087
6.06151e-05
0.000357962
6.36446e-05
0.000375206
7.04688e-05
0.00039282
7.53189e-05
0.00041069
7.93082e-05
0.000428757
8.33253e-05
0.000447163
8.6992e-05
0.00046594
9.01298e-05
0.000485025
9.28244e-05
0.000504349
9.51039e-05
0.00052385
9.69321e-05
0.000543451
9.82576e-05
0.000563062
9.90035e-05
0.000582587
9.90815e-05
0.00060195
9.84557e-05
0.000620305
9.3075e-05
0.000637496
8.64774e-05
0.000653587
7.99289e-05
0.000668603
7.33725e-05
0.000682559
6.68314e-05
0.000695472
6.03826e-05
0.000707361
5.40927e-05
0.000718242
4.79898e-05
0.000728127
4.20736e-05
0.000737025
3.63303e-05
0.000744943
3.07432e-05
0.000751886
2.52958e-05
0.00075786
1.99737e-05
0.000762873
1.47719e-05
0.000766936
9.6972e-06
0.000770068
4.76182e-06
0.000772306
-4.23059e-08
0.000773683
-4.67255e-06
0.000774224
-9.18044e-06
0.000773971
-1.35323e-05
0.000772957
-1.7723e-05
0.000771209
-2.17681e-05
0.000768752
-2.56751e-05
0.000765614
-2.94415e-05
0.000761821
-3.30626e-05
0.000757401
-3.65333e-05
0.000752381
-3.98463e-05
0.00074679
-4.29927e-05
0.000740656
-4.59627e-05
0.000734013
-4.87466e-05
0.000726893
-5.13356e-05
0.000719336
-5.37233e-05
0.000711383
-5.59098e-05
0.000703076
-5.79082e-05
0.000694459
-5.97511e-05
0.000685568
-6.14951e-05
0.000676424
-6.32234e-05
0.000667032
-6.5041e-05
0.00065737
-6.70626e-05
0.000647395
-6.9392e-05
0.000637042
-7.20961e-05
0.00062624
-7.5179e-05
0.000614923
-7.85639e-05
0.000603046
-8.20878e-05
0.000590592
-8.55131e-05
0.000577574
-8.85552e-05
0.000564033
-9.09166e-05
0.000550026
-9.23229e-05
0.000535622
-9.25495e-05
0.000520898
-9.14401e-05
0.00050594
-8.89176e-05
0.000490842
-8.49898e-05
0.000475716
-7.97522e-05
0.000460685
-7.33848e-05
0.000445879
-6.61422e-05
0.000431433
-5.83342e-05
0.000417474
-5.03005e-05
0.00040411
-4.23797e-05
0.000391417
-3.48735e-05
0.000379443
-2.80077e-05
0.000368152
-2.1875e-05
0.000357529
-1.63176e-05
0.000347101
-1.11994e-05
-4.44245e-06
0.000284047
5.39951e-05
0.000301804
4.28578e-05
0.000317587
4.78616e-05
0.000332893
5.51628e-05
0.000348559
5.96526e-05
0.000364356
6.35113e-05
0.000380321
6.73604e-05
0.000396612
7.07013e-05
0.000413238
7.35038e-05
0.000430148
7.59141e-05
0.000447304
7.79474e-05
0.000464667
7.95696e-05
0.000482175
8.07497e-05
0.000499745
8.14333e-05
0.000517276
8.15505e-05
0.000534666
8.10655e-05
0.000551109
7.66325e-05
0.000566425
7.11614e-05
0.000580654
6.56994e-05
0.000593822
6.02046e-05
0.000605953
5.47005e-05
0.00061708
4.92558e-05
0.00062724
4.39324e-05
0.00063647
3.87596e-05
0.000644803
3.37406e-05
0.000652267
2.88666e-05
0.000658885
2.41253e-05
0.000664677
1.95042e-05
0.00066966
1.49906e-05
0.000673851
1.0581e-05
0.000677266
6.28162e-06
0.000679928
2.09962e-06
0.000681852
-1.96601e-06
0.000683072
-5.89207e-06
0.000683596
-9.70477e-06
0.000683454
-1.33905e-05
0.000682673
-1.69422e-05
0.000681274
-2.03688e-05
0.000679276
-2.3677e-05
0.0006767
-2.68651e-05
0.000673565
-2.99283e-05
0.000669893
-3.28609e-05
0.000665703
-3.56561e-05
0.000661016
-3.83057e-05
0.000655854
-4.08008e-05
0.00065024
-4.3133e-05
0.000644199
-4.52948e-05
0.000637758
-4.72819e-05
0.000630944
-4.90964e-05
0.000623788
-5.07517e-05
0.000616315
-5.22783e-05
0.000608547
-5.37273e-05
0.000600495
-5.51712e-05
0.000592155
-5.67005e-05
0.000583504
-5.84118e-05
0.000574503
-6.03907e-05
0.000565096
-6.2689e-05
0.00055522
-6.53032e-05
0.000544814
-6.81581e-05
0.000533829
-7.11026e-05
0.000522235
-7.39189e-05
0.000510026
-7.63463e-05
0.000497222
-7.81129e-05
0.000483867
-7.89682e-05
0.000470029
-7.87108e-05
0.000455796
-7.72079e-05
0.000441285
-7.44065e-05
0.000426633
-7.0338e-05
0.000411999
-6.51176e-05
0.000397552
-5.8938e-05
0.000383465
-5.2055e-05
0.000369898
-4.47677e-05
0.00035699
-3.73922e-05
0.000344845
-3.02348e-05
0.000333526
-2.35541e-05
0.000323064
-1.7546e-05
0.000313406
-1.22175e-05
0.000304575
-7.48591e-06
0.000296039
-2.66333e-06
3.61029e-06
0.000251798
3.82833e-05
0.000267991
2.66648e-05
0.000281861
3.39919e-05
0.000295501
4.15226e-05
0.000309433
4.57208e-05
0.000323391
4.95536e-05
0.000337519
5.32316e-05
0.000351961
5.62601e-05
0.000366693
5.87716e-05
0.000381671
6.09357e-05
0.00039687
6.27487e-05
0.000412258
6.41813e-05
0.00042779
6.52182e-05
0.000443402
6.58215e-05
0.000459015
6.59373e-05
0.000474543
6.55372e-05
0.000489258
6.19181e-05
0.000502982
5.74367e-05
0.00051574
5.29419e-05
0.000527543
4.84012e-05
0.000538408
4.38358e-05
0.000548358
3.93059e-05
0.000557424
3.48667e-05
0.000565638
3.05456e-05
0.000573031
2.63469e-05
0.000579634
2.22642e-05
0.000585471
1.82884e-05
0.000590565
1.44099e-05
0.000594938
1.06171e-05
0.000598611
6.90869e-06
0.0006016
3.29199e-06
0.000603927
-2.27375e-07
0.000605609
-3.64785e-06
0.000606673
-6.95585e-06
0.000607132
-1.01636e-05
0.000607008
-1.32668e-05
0.000606325
-1.62589e-05
0.0006051
-1.91442e-05
0.00060335
-2.19275e-05
0.000601093
-2.46073e-05
0.000598342
-2.71781e-05
0.000595115
-2.96332e-05
0.000591424
-3.19655e-05
0.000587285
-3.41664e-05
0.000582711
-3.6227e-05
0.000577717
-3.8139e-05
0.000572318
-3.98955e-05
0.000566529
-4.14929e-05
0.000560366
-4.29337e-05
0.000553846
-4.42314e-05
0.000546981
-4.54139e-05
0.000539782
-4.65278e-05
0.000532248
-4.76376e-05
0.00052437
-4.88224e-05
0.000516123
-5.0165e-05
0.000507469
-5.17367e-05
0.000498358
-5.35775e-05
0.000488732
-5.56772e-05
0.000478536
-5.7962e-05
0.000467724
-6.0291e-05
0.000456271
-6.24655e-05
0.000444175
-6.42509e-05
0.000431468
-6.54058e-05
0.000418212
-6.57125e-05
0.000404505
-6.50034e-05
0.000390475
-6.3178e-05
0.000376281
-6.02128e-05
0.000362105
-5.6162e-05
0.000348142
-5.11539e-05
0.000334585
-4.53811e-05
0.000321615
-3.90855e-05
0.000309386
-3.25384e-05
0.000298012
-2.60182e-05
0.000287565
-1.9788e-05
0.000278069
-1.40581e-05
0.000269522
-8.99883e-06
0.000261839
-4.53466e-06
0.000255069
-7.15664e-07
0.000248674
3.73137e-06
9.38605e-06
0.000223468
2.31976e-05
0.000238065
1.20683e-05
0.000250246
2.18109e-05
0.00026246
2.93082e-05
0.000274839
3.33416e-05
0.000287177
3.72157e-05
0.000299707
4.07017e-05
0.000312531
4.34359e-05
0.000325607
4.56957e-05
0.000338898
4.7645e-05
0.000352382
4.9264e-05
0.000366032
5.05319e-05
0.000379805
5.14452e-05
0.000393649
5.19772e-05
0.000407501
5.20855e-05
0.000421289
5.17485e-05
0.000434369
4.88385e-05
0.000446582
4.52235e-05
0.000457948
4.15759e-05
0.000468478
3.78716e-05
0.000478183
3.41311e-05
0.00048708
3.04087e-05
0.000495192
2.67544e-05
0.000502544
2.31932e-05
0.000509162
1.97296e-05
0.000515068
1.63582e-05
0.000520284
1.30724e-05
0.000524829
9.86425e-06
0.000528725
6.72157e-06
0.000531987
3.64609e-06
0.000534635
6.44263e-07
0.000536688
-2.28033e-06
0.000538164
-5.12358e-06
0.000539083
-7.8755e-06
0.000539461
-1.0541e-05
0.000539313
-1.31188e-05
0.000538657
-1.56026e-05
0.000537506
-1.79933e-05
0.000535872
-2.02932e-05
0.000533764
-2.24998e-05
0.000531192
-2.46065e-05
0.000528165
-2.66053e-05
0.000524687
-2.84879e-05
0.000520766
-3.02454e-05
0.000516408
-3.18689e-05
0.000511619
-3.33503e-05
0.000506407
-3.46835e-05
0.000500781
-3.58662e-05
0.000494749
-3.69023e-05
0.000488323
-3.78056e-05
0.000481513
-3.86033e-05
0.000474324
-3.93387e-05
0.000466757
-4.00706e-05
0.000458803
-4.0869e-05
0.000450444
-4.1806e-05
0.000441649
-4.29411e-05
0.000432376
-4.43051e-05
0.000422582
-4.58832e-05
0.000412225
-4.76049e-05
0.000401276
-4.93417e-05
0.000389727
-5.09167e-05
0.000377601
-5.21254e-05
0.000364957
-5.27612e-05
0.000351888
-5.26439e-05
0.000338527
-5.16419e-05
0.000325035
-4.96862e-05
0.000311599
-4.67769e-05
0.000298418
-4.29813e-05
0.000285692
-3.84277e-05
0.000273605
-3.32943e-05
0.000262315
-2.7795e-05
0.000251939
-2.2163e-05
0.000242552
-1.66311e-05
0.000234181
-1.14171e-05
0.000226807
-6.68341e-06
0.000220393
-2.58493e-06
0.000214825
1.03362e-06
0.000210164
3.94455e-06
0.00020595
7.94537e-06
1.29675e-05
0.00019856
8.56669e-06
0.000211521
-8.92704e-07
0.000222268
1.10644e-05