/*--------------------------------*- C++ -*----------------------------------*\
| =========                 |                                                 |
| \\      /  F ield         | OpenFOAM: The Open Source CFD Toolbox           |
|  \\    /   O peration     | Version:  v1912                                 |
|   \\  /    A nd           | Website:  www.openfoam.com                      |
|    \\/     M anipulation  |                                                 |
\*---------------------------------------------------------------------------*/
FoamFile
{
    version     2.0;
    format      ascii;
    class       volVectorField;
    location    "500";
    object      U;
}
// * * * * * * * * * * * * * * * * * * * * * * * * * * * * * * * * * * * * * //

dimensions      [0 1 -1 0 0 0 0];


internalField   nonuniform List<vector> 
2000
(
(0.84616 0.187394 0)
(0.515133 0.124089 0)
(0.223448 0.0684417 0)
(0.0598061 0.0174442 6.19537e-20)
(-0.00455585 -0.0232213 1.20723e-17)
(-0.0642072 -0.0384797 1.0427e-17)
(-0.0776074 -0.0372445 0)
(-0.0716011 -0.016676 0)
(-0.0590624 0.0116642 0)
(-0.0421395 0.0253959 2.3678e-17)
(-0.0415598 0.0108824 -1.45064e-17)
(-0.0273327 -0.000754043 -1.36241e-17)
(-0.0161597 -0.00276545 0)
(-0.0197912 -0.00264546 0)
(-0.02159 -0.00215593 -1.08255e-17)
(-0.0164817 0.000948431 0)
(-0.0101821 0.00363411 9.74552e-18)
(-0.00944167 0.00633392 3.22608e-21)
(-0.0105232 0.00617764 9.41857e-18)
(-0.0113112 0.00494133 -4.64861e-18)
(-0.0112105 0.00286104 9.19078e-18)
(-0.0100894 0.00090158 0)
(-0.00806699 -7.87278e-05 0)
(-0.00568199 -0.000500435 -3.90191e-23)
(-0.00351242 -0.000676829 0)
(-0.00177428 -0.000723204 -4.51667e-18)
(-0.000579518 -0.000711398 0)
(0.000120974 -0.000709512 4.5302e-18)
(0.000545821 -0.000746269 0)
(0.000904183 -0.00078008 0)
(0.00124641 -0.000714413 0)
(0.00158894 -0.000606978 1.15054e-18)
(0.00191367 -0.000517654 0)
(0.00220699 -0.000474494 -5.83874e-19)
(0.00245257 -0.000463692 1.94847e-14)
(0.00262242 -0.00046453 1.94697e-14)
(0.00270847 -0.000473884 6.0202e-19)
(0.00266513 -0.000524686 -6.09487e-19)
(0.00247606 -0.000626534 0)
(0.00214971 -0.000764081 2.50697e-18)
(0.00167673 -0.000913654 0)
(0.00103086 -0.00105458 -2.58967e-18)
(0.000175883 -0.00116708 0)
(-0.000945944 -0.00123318 -5.36015e-18)
(-0.00238489 -0.00126902 2.72399e-18)
(-0.00418056 -0.00135821 0)
(-0.00642343 -0.00154613 0)
(-0.00927424 -0.0017457 -2.86059e-18)
(-0.0130574 -0.00165163 0)
(-0.0183888 -0.000676619 2.93965e-18)
(-0.0262479 0.00187538 0)
(-0.0379195 0.00629734 5.92551e-18)
(-0.0547909 0.0120537 -5.87389e-18)
(-0.078013 0.01777 5.75085e-18)
(-0.107954 0.0215355 -2.74575e-18)
(-0.143708 0.0214621 0)
(-0.183158 0.0163432 2.3317e-18)
(-0.223381 0.00605042 -2.07381e-18)
(-0.26065 -0.00836841 -4.07797e-18)
(-0.290138 -0.0246954 3.29716e-18)
(-0.306952 -0.0397113 -3.24901e-18)
(-0.30953 -0.0502213 3.47339e-18)
(-0.303174 -0.0562718 -3.96379e-18)
(-0.28817 -0.0592025 4.77217e-18)
(-0.265614 -0.0600464 -1.23444e-20)
(-0.23636 -0.0595333 7.17164e-18)
(-0.200842 -0.057866 0)
(-0.159254 -0.0550344 0)
(-0.111878 -0.0510308 7.53614e-20)
(-0.0594721 -0.0458986 0)
(-0.00331313 -0.0395743 1.993e-17)
(0.0564176 -0.0317257 0)
(0.119964 -0.0222142 1.98901e-17)
(0.186861 -0.0112012 -4.87535e-19)
(0.256368 0.001072 1.71662e-17)
(0.329805 0.014306 2.98612e-17)
(0.403687 0.028129 7.33721e-19)
(0.491211 0.0420869 -1.01449e-17)
(0.557031 0.0545378 -6.52783e-18)
(0.713452 0.0652286 0)
(1.0153 0.210384 0)
(0.944633 0.194211 0)
(0.804474 0.179983 -3.52983e-18)
(0.654421 0.152314 7.29021e-18)
(0.509222 0.11117 0)
(0.360038 0.0683724 -7.2915e-18)
(0.216491 0.0293287 0)
(0.0821354 -0.00530309 0)
(-0.0282821 -0.0180302 0)
(-0.0562252 -0.0188842 -1.7315e-17)
(-0.0667811 -0.0249642 1.57509e-17)
(-0.0719856 -0.0160168 1.44457e-17)
(-0.0639385 0.00626676 0)
(-0.0510692 0.0205035 6.32415e-18)
(-0.0547262 0.00972465 0)
(-0.0484244 -0.00309165 0)
(-0.0375084 -0.00406523 0)
(-0.0325184 -0.00107343 5.27315e-18)
(-0.0362206 0.000862879 -1.03447e-17)
(-0.0383371 0.000856674 -5.09609e-18)
(-0.0389886 8.67322e-05 0)
(-0.0378596 -0.00101744 0)
(-0.0351172 -0.00216976 0)
(-0.031871 -0.00273736 -7.42359e-18)
(-0.0287421 -0.00256442 0)
(-0.0259842 -0.00181898 4.9575e-18)
(-0.0238287 -0.00081543 2.48592e-18)
(-0.0224351 1.09417e-05 0)
(-0.0218706 0.000342116 0)
(-0.0219899 0.000348797 0)
(-0.0226114 0.000158855 0)
(-0.0235093 -3.65337e-05 -6.33256e-19)
(-0.0245099 -0.000190161 0)
(-0.0255557 -0.000271488 3.20493e-19)
(-0.0266715 -0.000244393 1.61463e-19)
(-0.0279294 -9.32739e-05 0)
(-0.0293736 0.000162076 0)
(-0.0310253 0.000485402 6.63107e-19)
(-0.0329397 0.000853632 0)
(-0.0351475 0.00126109 -1.35299e-18)
(-0.0376613 0.00171338 0)
(-0.0404839 0.00222195 -1.38251e-18)
(-0.0436157 0.0027955 0)
(-0.0470547 0.00343054 1.4145e-18)
(-0.0507871 0.00412253 1.43161e-18)
(-0.0547864 0.00491898 0)
(-0.0590322 0.00600664 0)
(-0.063531 0.0077568 -2.97693e-18)
(-0.0682834 0.0106856 0)
(-0.0732624 0.0153917 1.54257e-20)
(-0.0784986 0.0223976 0)
(-0.0842027 0.0318318 0)
(-0.0907307 0.0430034 0)
(-0.0983902 0.0542744 0)
(-0.106919 0.0632901 6.03718e-18)
(-0.11479 0.0675657 0)
(-0.119564 0.0651263 -5.48384e-18)
(-0.119321 0.0551056 2.65166e-18)
(-0.112624 0.0384856 -2.30449e-18)
(-0.0955513 0.0180345 -4.86662e-18)
(-0.0638784 -0.0045045 5.00845e-18)
(-0.045782 -0.0305403 -5.52226e-18)
(-0.0206055 -0.0513079 6.46575e-18)
(0.00733147 -0.0661105 0)
(0.0383262 -0.0765387 -1.29265e-17)
(0.0728743 -0.0840336 -9.65622e-18)
(0.111736 -0.0893008 0)
(0.15508 -0.092338 5.74342e-18)
(0.202524 -0.0928593 1.25735e-17)
(0.253469 -0.0906692 0)
(0.307253 -0.0856891 0)
(0.363294 -0.0779141 0)
(0.421126 -0.0674936 0)
(0.480491 -0.0547714 -1.36257e-17)
(0.541146 -0.0402867 5.93879e-18)
(0.603954 -0.0247013 -1.17704e-17)
(0.66734 -0.00894676 1.01601e-17)
(0.739093 0.00594463 -3.46762e-18)
(0.795978 0.0175513 0)
(0.911625 0.0230093 0)
(0.978489 0.201538 0)
(0.978854 0.193007 -2.78664e-18)
(0.969154 0.205112 3.48229e-18)
(0.939083 0.208533 -3.06127e-18)
(0.878033 0.194608 2.88585e-18)
(0.785603 0.168721 2.8439e-18)
(0.669346 0.138082 0)
(0.541008 0.106022 0)
(0.408215 0.0750644 0)
(0.28593 0.0459397 6.86861e-18)
(0.173866 0.0180322 0)
(0.07219 -0.00638574 0)
(-0.02148 -0.014101 0)
(-0.047073 -0.00388297 -7.18521e-18)
(-0.0510927 -0.0117526 0)
(-0.0590884 -0.0182644 -6.04856e-18)
(-0.0597581 -0.011376 0)
(-0.0485835 0.008854 5.87399e-18)
(-0.0466493 0.0163448 2.87306e-18)
(-0.0510155 0.0125177 0)
(-0.0532397 0.00614608 -2.79091e-18)
(-0.0549088 -0.000218486 0)
(-0.0553858 -0.00455728 0)
(-0.054368 -0.00635535 5.44121e-18)
(-0.0527345 -0.0064309 0)
(-0.051522 -0.00557891 1.35966e-18)
(-0.0513431 -0.00410983 -4.08168e-18)
(-0.0521903 -0.00214966 0)
(-0.053597 -0.000171139 0)
(-0.0551238 0.00126043 -6.82121e-19)
(-0.0567679 0.00218013 0)
(-0.0585055 0.00268103 1.38295e-22)
(-0.060264 0.00290942 0)
(-0.0620021 0.00303111 6.91446e-19)
(-0.0637321 0.00320876 8.69812e-20)
(-0.065533 0.00349761 0)
(-0.0674678 0.00388168 1.76491e-19)
(-0.0695533 0.00431489 -3.55831e-19)
(-0.0717707 0.00478356 -3.58927e-19)
(-0.0740868 0.00528393 -7.24593e-19)
(-0.0764608 0.00581462 7.31945e-19)
(-0.0788489 0.00637931 7.39895e-19)
(-0.0812102 0.00698041 0)
(-0.0834915 0.0076037 1.51696e-18)
(-0.0855762 0.00822874 -3.07732e-18)
(-0.0872151 0.00888724 0)
(-0.0880137 0.00977092 -1.59389e-18)
(-0.0875124 0.0112788 3.25195e-18)
(-0.085184 0.0138843 0)
(-0.0803817 0.0181681 -1.70123e-18)
(-0.0724141 0.0246112 1.78762e-18)
(-0.0607916 0.0334798 -1.85413e-18)
(-0.0451554 0.0438625 -1.92176e-18)
(-0.0254554 0.0542148 0)
(-0.00189251 0.0623057 -3.9468e-18)
(0.0255717 0.0655928 -1.88665e-18)
(0.0568773 0.0617697 1.63715e-18)
(0.0902312 0.0500054 1.52941e-18)
(0.124073 0.0293177 2.5649e-18)
(0.155792 0.00247291 0)
(0.185917 -0.0239987 0)
(0.213649 -0.0461155 0)
(0.241925 -0.0645557 -1.30812e-18)
(0.273681 -0.0804232 0)
(0.309833 -0.0942284 3.21608e-18)
(0.349811 -0.105905 0)
(0.392668 -0.115088 -1.9886e-18)
(0.43752 -0.121314 -4.46901e-18)
(0.48357 -0.12418 0)
(0.530151 -0.123464 -2.47887e-18)
(0.576783 -0.119191 2.58319e-18)
(0.623217 -0.111643 0)
(0.669403 -0.101351 0)
(0.715535 -0.0890137 0)
(0.761858 -0.0754676 -5.41362e-18)
(0.80925 -0.0616269 0)
(0.857007 -0.0486684 -1.88604e-18)
(0.910075 -0.0376913 3.36938e-18)
(0.952949 -0.0310568 0)
(1.03528 -0.0301674 3.93324e-19)
(0.970611 0.209118 0)
(0.963917 0.194766 1.52561e-18)
(0.96643 0.198515 0)
(0.977152 0.206409 1.69481e-18)
(0.982035 0.208887 -3.00477e-18)
(0.968293 0.204269 -1.3413e-18)
(0.930747 0.193728 0)
(0.870754 0.17788 0)
(0.791124 0.156583 0)
(0.695403 0.131335 1.35125e-18)
(0.58947 0.105415 1.38299e-18)
(0.480045 0.080704 0)
(0.369256 0.0580078 0)
(0.266642 0.0376205 0)
(0.179621 0.0185502 0)
(0.100338 0.00267628 6.40122e-18)
(0.0298385 -0.00993816 -3.38707e-18)
(-0.0312529 -0.00943838 0)
(-0.0334076 0.000833546 -3.28195e-18)
(-0.0353078 0.00231271 1.61777e-18)
(-0.0353312 0.00120461 3.20968e-18)
(-0.0365932 -0.00143018 0)
(-0.0397374 -0.00407325 0)
(-0.0439581 -0.00528619 -3.11931e-18)
(-0.0474713 -0.00434747 0)
(-0.0495698 -0.00158434 -1.54421e-18)
(-0.051099 0.00186278 1.54408e-18)
(-0.053546 0.00438071 0)
(-0.0556704 0.00552569 0)
(-0.0579214 0.00603014 7.67302e-19)
(-0.0598734 0.00605736 0)
(-0.061506 0.00575419 -7.70482e-19)
(-0.0627689 0.00529108 0)
(-0.0636485 0.00484706 -1.94905e-19)
(-0.0642763 0.00466337 -9.81996e-20)
(-0.0647438 0.00481704 -2.47758e-20)
(-0.065077 0.00524557 -3.00104e-19)
(-0.0651771 0.00586951 4.04375e-19)
(-0.0649533 0.00658087 4.09282e-19)
(-0.0643317 0.00730453 1.2447e-18)
(-0.0632272 0.00800844 -4.21122e-19)
(-0.0615458 0.00867253 4.28403e-19)
(-0.0592136 0.00926648 0)
(-0.0561655 0.00972558 8.91484e-19)
(-0.0522862 0.00989973 9.14079e-19)
(-0.0472859 0.0095243 0)
(-0.0406986 0.00825341 1.93878e-18)
(-0.0326089 0.00603293 1.0023e-18)
(-0.0223628 0.00357418 0)
(-0.00969788 0.00148011 -3.27461e-18)
(0.00681255 0.000333909 -2.24011e-18)
(0.0282146 0.000713036 1.10977e-18)
(0.054405 0.00242075 2.17476e-18)
(0.0860071 0.00455574 0)
(0.123049 0.0055659 9.83545e-19)
(0.164686 0.00363883 2.68602e-18)
(0.209642 -0.00279018 1.58653e-18)
(0.255834 -0.0142273 -1.38892e-18)
(0.302728 -0.0295356 -6.41203e-19)
(0.348667 -0.0470791 0)
(0.393114 -0.0660689 0)
(0.436028 -0.085203 0)
(0.478251 -0.103389 1.70728e-18)
(0.520562 -0.119964 6.44431e-19)
(0.562881 -0.134423 0)
(0.604541 -0.146204 -1.56483e-18)
(0.644835 -0.154745 1.74218e-18)
(0.683277 -0.159618 -1.87694e-18)
(0.719627 -0.160625 -2.02559e-18)
(0.753883 -0.157833 1.27675e-19)
(0.78627 -0.151564 -2.42521e-18)
(0.817213 -0.14236 0)
(0.84727 -0.13092 0)
(0.877115 -0.118036 0)
(0.907353 -0.104565 0)
(0.938892 -0.0913814 0)
(0.971395 -0.0795269 3.67978e-18)
(1.0082 -0.0698401 -1.34657e-18)
(1.03844 -0.0642323 0)
(1.09568 -0.0625532 -4.24065e-19)
(0.972988 0.216082 0)
(0.965831 0.201809 1.87141e-18)
(0.959206 0.195601 2.49308e-19)
(0.961489 0.195548 1.90779e-18)
(0.972668 0.197538 0)
(0.98552 0.199238 -1.60795e-18)
(0.992498 0.199299 0)
(0.988453 0.196257 -3.6264e-19)
(0.970217 0.189038 0)
(0.935629 0.177569 -1.60626e-18)
(0.884727 0.162756 -1.2433e-18)
(0.819613 0.145673 -3.15511e-19)
(0.743317 0.126735 3.13187e-19)
(0.658087 0.106115 0)
(0.569158 0.0852845 3.13226e-19)
(0.479344 0.0662439 0)
(0.393475 0.0502682 2.65482e-18)
(0.314079 0.0363434 -3.51394e-19)
(0.247016 0.0242783 0)
(0.192274 0.0147206 -1.90033e-18)
(0.147579 0.00790562 0)
(0.110427 0.00338199 0)
(0.0795424 0.000791994 0)
(0.0535873 -0.000659239 0)
(0.0320037 -0.00164537 -2.21896e-19)
(0.0152061 -0.00210186 0)
(0.0022168 -0.00143788 0)
(-0.00306678 0.000682983 1.15589e-19)
(-0.00547165 0.00210925 0)
(-0.00544765 0.00308731 0)
(-0.00405412 0.00362627 0)
(-0.00175253 0.00386414 -5.87724e-20)
(0.000892688 0.00392884 0)
(0.00439992 0.00374474 -2.6817e-19)
(0.00746357 0.00425757 0)
(0.0111232 0.00517135 3.0138e-20)
(0.0155302 0.00582668 1.51469e-19)
(0.020847 0.00586894 3.0406e-20)
(0.0272384 0.00553495 -6.09971e-20)
(0.0347993 0.00499515 -4.89177e-19)
(0.0437015 0.00423667 -4.89608e-19)
(0.0541662 0.00320926 4.89342e-19)
(0.066393 0.00188654 -1.21996e-19)
(0.0805638 0.000252233 -9.7251e-19)
(0.0968752 -0.00172751 9.66652e-19)
(0.115323 -0.00409138 -1.19926e-19)
(0.136074 -0.00690593 0)
(0.158645 -0.0102199 -9.4173e-19)
(0.183219 -0.0139738 0)
(0.209816 -0.0180243 9.22655e-19)
(0.238436 -0.0220468 0)
(0.269327 -0.0259449 9.00968e-19)
(0.302827 -0.0297119 0)
(0.339305 -0.0335827 -2.12873e-19)
(0.378989 -0.0380924 -8.07735e-19)
(0.421761 -0.0439923 -7.48489e-19)
(0.467027 -0.0520426 1.73676e-19)
(0.513713 -0.0627762 0)
(0.560403 -0.0764714 5.42223e-19)
(0.605669 -0.0925913 -1.36809e-19)
(0.648632 -0.110132 0)
(0.688869 -0.127713 1.36531e-19)
(0.726244 -0.144055 -5.32105e-19)
(0.760676 -0.158285 -5.88262e-19)
(0.791986 -0.169819 0)
(0.819961 -0.178202 1.47774e-18)
(0.844539 -0.18311 0)
(0.865912 -0.184411 1.83557e-18)
(0.884512 -0.182196 2.01454e-18)
(0.900967 -0.176771 2.17986e-18)
(0.916033 -0.168616 2.7129e-19)
(0.930534 -0.158337 0)
(0.94529 -0.146623 0)
(0.96109 -0.134194 0)
(0.978541 -0.121785 -2.70047e-19)
(0.998386 -0.110117 0)
(1.02025 -0.099988 -1.67638e-18)
(1.04662 -0.0920425 1.65072e-18)
(1.06864 -0.0874906 1.0407e-19)
(1.1123 -0.0862852 4.51242e-20)
(0.974194 0.218515 -1.23275e-18)
(0.970935 0.206364 1.19315e-18)
(0.965119 0.198173 -2.82113e-19)
(0.961139 0.194114 0)
(0.962198 0.191944 0)
(0.968261 0.190547 0)
(0.977773 0.189888 0)
(0.988505 0.189486 1.25276e-18)
(0.997435 0.188314 0)
(1.00094 0.185365 -1.11999e-18)
(0.995777 0.179963 -1.39613e-18)
(0.979843 0.171913 3.201e-19)
(0.952677 0.161441 9.67035e-19)
(0.914339 0.14865 0)
(0.86565 0.133741 -1.47582e-18)
(0.808254 0.117842 0)
(0.746077 0.102467 -1.17985e-18)
(0.683656 0.0879708 2.95093e-19)
(0.622855 0.0743825 -1.23444e-18)
(0.565763 0.062109 -9.50673e-19)
(0.513202 0.0513513 0)
(0.465526 0.042095 0)
(0.422912 0.0342197 -6.83456e-19)
(0.385315 0.0276204 0)
(0.3526 0.0221633 -5.42665e-19)
(0.324566 0.0176697 0)
(0.300798 0.0138653 0)
(0.281083 0.0104808 -9.56374e-20)
(0.26528 0.00755446 0)
(0.253036 0.00509066 0)
(0.24399 0.00302184 0)
(0.237855 0.00127414 5.05715e-20)
(0.234319 -0.000217172 2.05044e-19)
(0.23344 -0.00143903 1.29219e-19)
(0.234996 -0.00284816 0)
(0.23906 -0.0043995 0)
(0.245652 -0.00598105 -2.59955e-20)
(0.25463 -0.00763849 -1.30168e-19)
(0.265897 -0.00948526 5.16983e-20)
(0.279385 -0.0116032 0)
(0.295018 -0.0140393 0)
(0.312711 -0.0168271 -2.03732e-19)
(0.332369 -0.019992 1.0028e-19)
(0.353889 -0.023558 -4.00092e-19)
(0.37715 -0.0275504 3.96118e-19)
(0.401993 -0.0319929 9.70032e-20)
(0.428219 -0.0368759 0)
(0.455607 -0.042072 3.85384e-19)
(0.484004 -0.0474605 0)
(0.513274 -0.0528996 0)
(0.543335 -0.0582353 0)
(0.574201 -0.0633868 0)
(0.60597 -0.0684092 0)
(0.638736 -0.0735508 1.78797e-19)
(0.672498 -0.0792613 0)
(0.707044 -0.086113 6.70802e-19)
(0.741878 -0.0946489 -1.5262e-19)
(0.776224 -0.105193 0)
(0.809134 -0.11767 5.79081e-19)
(0.839672 -0.131475 1.2731e-19)
(0.8671 -0.145686 5.65222e-19)
(0.890947 -0.159294 -1.31808e-19)
(0.911009 -0.171405 0)
(0.927309 -0.181362 -6.60914e-19)
(0.940034 -0.188731 0)
(0.949505 -0.193241 0)
(0.956201 -0.194772 -8.53625e-19)
(0.960769 -0.193373 0)
(0.963989 -0.189257 0)
(0.966704 -0.182779 -1.06519e-18)
(0.969759 -0.174401 -2.96151e-19)
(0.973942 -0.164651 0)
(0.979944 -0.154092 0)
(0.988353 -0.143296 0)
(0.999547 -0.132829 3.01737e-19)
(1.014 -0.123239 -1.03157e-18)
(1.03117 -0.1151 -2.40344e-19)
(1.05312 -0.108882 -1.88686e-19)
(1.0717 -0.105293 -1.17867e-19)
(1.11016 -0.104464 -2.40879e-19)
(0.974501 0.21901 4.35601e-18)
(0.973757 0.208036 -4.18266e-18)
(0.971714 0.200426 0)
(0.969159 0.196212 -2.53765e-18)
(0.967054 0.192939 0)
(0.966167 0.189315 -2.23757e-18)
(0.967421 0.185821 0)
(0.971672 0.183012 2.9797e-18)
(0.978981 0.180735 -3.69969e-18)
(0.988288 0.17849 1.68929e-18)
(0.997697 0.17578 1.57928e-18)
(1.00498 0.172159 0)
(1.00812 0.167273 -4.27175e-18)
(1.00545 0.160704 -2.72078e-18)
(0.995597 0.152111 3.82421e-18)
(0.977803 0.141795 0)
(0.953053 0.130621 1.17139e-18)
(0.923763 0.119339 0)
(0.891706 0.108135 1.16792e-18)
(0.858173 0.0969937 1.16771e-18)
(0.824202 0.0861228 0)
(0.790784 0.0757994 0)
(0.758798 0.0662269 -6.39546e-19)
(0.728917 0.0575109 0)
(0.701587 0.0496333 6.2112e-19)
(0.677041 0.0425079 0)
(0.655402 0.0360391 0)
(0.6367 0.0301388 0)
(0.620965 0.0247169 0)
(0.608131 0.019691 0)
(0.598116 0.0149863 0)
(0.590845 0.0105387 0)
(0.586243 0.00628111 1.7714e-19)
(0.584183 0.00215215 -8.59785e-20)
(0.584442 -0.00199433 4.40287e-20)
(0.587139 -0.00619161 0)
(0.592191 -0.010433 0)
(0.599406 -0.014742 8.6254e-20)
(0.608634 -0.0191644 -3.5194e-19)
(0.619743 -0.0237402 3.51298e-19)
(0.632584 -0.0284974 0)
(0.646988 -0.0334551 8.70157e-19)
(0.662773 -0.0386231 -6.97949e-19)
(0.679749 -0.0440034 -3.57334e-19)
(0.697716 -0.0495903 -3.38508e-19)
(0.716459 -0.0553651 0)
(0.735754 -0.0612814 0)
(0.755385 -0.0672539 -1.03596e-18)
(0.775171 -0.0731922 0)
(0.794975 -0.0790084 0)
(0.814719 -0.0846303 0)
(0.834387 -0.0900466 7.06589e-19)
(0.854012 -0.0953526 1.41071e-18)
(0.873618 -0.100768 0)
(0.893151 -0.106619 0)
(0.912418 -0.113271 -6.49367e-19)
(0.93104 -0.121027 0)
(0.94847 -0.130002 1.29198e-18)
(0.964059 -0.140044 6.85565e-19)
(0.977183 -0.150716 0)
(0.987378 -0.161389 6.98427e-19)
(0.994432 -0.171371 1.33139e-18)
(0.998406 -0.180023 1.40293e-18)
(0.999606 -0.186848 7.12573e-19)
(0.998505 -0.191531 -1.61398e-18)
(0.995685 -0.193913 1.74537e-18)
(0.991806 -0.193973 2.83244e-18)
(0.987586 -0.191812 0)
(0.983753 -0.187645 0)
(0.981004 -0.181772 1.19696e-18)
(0.979961 -0.174562 0)
(0.98115 -0.166422 2.50289e-18)
(0.984986 -0.157786 2.53582e-18)
(0.991799 -0.149093 0)
(1.00175 -0.140786 2.40569e-18)
(1.01513 -0.133291 -1.04257e-18)
(1.03129 -0.127041 0)
(1.05214 -0.122377 0)
(1.06981 -0.119735 0)
(1.10674 -0.119323 -1.93307e-19)
(0.974733 0.218938 -3.35556e-18)
(0.975458 0.208202 3.21224e-18)
(0.976057 0.201059 -6.23857e-18)
(0.975937 0.197368 2.87009e-18)
(0.974875 0.194461 0)
(0.973201 0.190788 2.53062e-18)
(0.971488 0.186587 -4.84427e-18)
(0.970475 0.182342 -4.49132e-18)
(0.970997 0.178134 -7.92359e-20)
(0.973709 0.173955 0)
(0.978813 0.169874 0)
(0.985974 0.165862 3.59727e-18)
(0.994375 0.161691 3.29236e-18)
(1.00285 0.156944 -3.27815e-18)
(1.00997 0.15123 -8.89944e-18)
(1.01428 0.14445 0)
(1.01491 0.136904 0)
(1.01187 0.128895 0)
(1.00565 0.120412 0)
(0.996722 0.111439 0)
(0.985589 0.102184 0)
(0.972877 0.0929215 0)
(0.95927 0.083863 1.24058e-18)
(0.945401 0.0751221 -2.58749e-18)
(0.93179 0.0667322 0)
(0.918845 0.0586929 0)
(0.906886 0.0509965 0)
(0.896152 0.0436131 0)
(0.886807 0.0364828 0)
(0.878949 0.0295645 -6.62495e-19)
(0.872639 0.0228343 0)
(0.867915 0.0162667 0)
(0.864779 0.00982851 1.25951e-20)
(0.863181 0.00345857 0)
(0.863031 -0.00271297 -4.10719e-20)
(0.864288 -0.00875227 0)
(0.866868 -0.0147533 1.70821e-19)
(0.870644 -0.0207535 0)
(0.875497 -0.0267706 6.72337e-19)
(0.881312 -0.0328215 -3.30351e-19)
(0.887963 -0.0389174 -6.88167e-19)
(0.895313 -0.04506 -6.64023e-19)
(0.903215 -0.0512416 6.66481e-19)
(0.911521 -0.0574478 6.69605e-19)
(0.920082 -0.0636586 1.40121e-18)
(0.928749 -0.0698457 1.41109e-18)
(0.937378 -0.0759675 0)
(0.945845 -0.0819666 -7.45029e-19)
(0.954058 -0.0877819 0)
(0.961972 -0.0933632 0)
(0.969583 -0.0986859 -1.48418e-18)
(0.976931 -0.103777 -7.25454e-19)
(0.984073 -0.108739 4.74231e-20)
(0.99105 -0.113753 0)
(0.997833 -0.11906 0)
(1.00429 -0.124916 0)
(1.01015 -0.131513 1.4926e-18)
(1.01505 -0.138915 -1.39743e-18)
(1.01859 -0.147005 -1.38625e-18)
(1.0204 -0.15547 0)
(1.02028 -0.163857 -1.42434e-18)
(1.01821 -0.171653 9.53741e-20)
(1.01442 -0.178387 -1.57261e-18)
(1.00927 -0.183691 1.75447e-18)
(1.00328 -0.187337 -4.73957e-20)
(0.996979 -0.189216 -1.97772e-18)
(0.990921 -0.18932 -2.14251e-18)
(0.985647 -0.187721 0)
(0.981656 -0.184568 0)
(0.979386 -0.180077 0)
(0.979202 -0.174517 0)
(0.981399 -0.1682 -2.84038e-18)
(0.9862 -0.161471 -2.87593e-18)
(0.993794 -0.154697 0)
(1.00426 -0.148253 -2.72616e-18)
(1.01784 -0.142501 4.91413e-18)
(1.03392 -0.137793 0)
(1.05437 -0.134369 0)
(1.07166 -0.132536 0)
(1.10757 -0.132338 9.14432e-19)
(0.975035 0.218503 8.34244e-18)
(0.977128 0.207476 0)
(0.979623 0.200809 1.42791e-17)
(0.980942 0.197721 0)
(0.980747 0.19518 6.21534e-18)
(0.979838 0.191822 0)
(0.978657 0.187907 5.47431e-18)
(0.977183 0.183665 0)
(0.975607 0.178996 -5.03775e-18)
(0.974443 0.173901 0)
(0.974276 0.168554 8.88274e-18)
(0.975585 0.163117 -4.11189e-18)
(0.97867 0.157625 0)
(0.983549 0.151981 7.30875e-18)
(0.98988 0.146034 -1.87092e-19)
(0.997005 0.139702 -6.68303e-18)
(1.00406 0.133123 6.47725e-18)
(1.01037 0.126384 0)
(1.01555 0.119346 0)
(1.01936 0.111913 6.08797e-18)
(1.02167 0.104154 0)
(1.02251 0.096207 -2.96189e-18)
(1.02211 0.0881902 0)
(1.02073 0.0801777 2.80548e-18)
(1.01865 0.0722134 0)
(1.01613 0.0643249 2.89737e-18)
(1.01339 0.0565281 0)
(1.01063 0.0488219 0)
(1.008 0.0411962 1.44775e-18)
(1.00562 0.0336535 6.95873e-19)
(1.00357 0.026204 0)
(1.00192 0.0188533 0)
(1.0007 0.0116044 -1.08803e-18)
(0.999943 0.00445686 0)
(0.999609 -0.00249879 0)
(0.999675 -0.00932409 0)
(1.00013 -0.016088 -1.78103e-19)
(1.00092 -0.0228076 0)
(1.00199 -0.0294788 -1.10521e-18)
(1.00329 -0.0360992 -7.50158e-19)
(1.00475 -0.0426658 7.23928e-19)
(1.0063 -0.0491706 0)
(1.00788 -0.0556001 0)
(1.00941 -0.0619378 1.54252e-18)
(1.01084 -0.0681647 -1.49737e-18)
(1.01211 -0.074258 -1.51484e-18)
(1.01318 -0.080189 0)
(1.01403 -0.085923 -5.77578e-20)
(1.01465 -0.0914275 1.63718e-18)
(1.01509 -0.0966834 0)
(1.0154 -0.101698 1.63116e-18)
(1.01566 -0.10652 1.70583e-18)
(1.01597 -0.111248 -1.67219e-18)
(1.01636 -0.116035 0)
(1.01684 -0.121067 0)
(1.01732 -0.126527 0)
(1.01763 -0.132551 -1.68003e-18)
(1.01751 -0.139176 0)
(1.01672 -0.146304 0)
(1.01503 -0.153704 0)
(1.01235 -0.161038 3.65478e-18)
(1.00872 -0.167927 -1.79988e-18)
(1.00432 -0.174014 0)
(0.999468 -0.179009 -2.00106e-18)
(0.994521 -0.182709 -2.22376e-18)
(0.989866 -0.184997 4.61623e-18)
(0.985874 -0.185827 -4.89297e-18)
(0.982887 -0.18522 -5.17603e-18)
(0.981209 -0.183263 0)
(0.9811 -0.180108 -5.70191e-18)
(0.982782 -0.175966 0)
(0.986445 -0.171102 0)
(0.992255 -0.165827 0)
(1.00039 -0.160477 5.9974e-18)
(1.01094 -0.155404 -5.74385e-18)
(1.02421 -0.150939 -8.00884e-18)
(1.0397 -0.147381 0)
(1.05928 -0.144891 3.61207e-18)
(1.07583 -0.143671 0)
(1.11019 -0.143548 -1.50574e-18)
(0.975434 0.21769 -9.46288e-18)
(0.979143 0.206091 -9.21127e-18)
(0.983423 0.200245 -1.64456e-17)
(0.985581 0.197997 0)
(0.985486 0.19568 -1.41321e-17)
(0.984787 0.192415 -6.73236e-18)
(0.984201 0.188728 0)
(0.983455 0.184722 1.19987e-17)
(0.982356 0.180197 1.12007e-17)
(0.981037 0.175099 0)
(0.979708 0.16952 -1.00458e-17)
(0.97861 0.163557 0)
(0.978058 0.157273 0)
(0.978386 0.150693 8.71029e-18)
(0.979815 0.143821 8.07299e-18)
(0.982408 0.136689 -1.82368e-19)
(0.986017 0.129509 1.84391e-19)
(0.990372 0.122435 0)
(0.995181 0.115369 0)
(1.0001 0.108191 -6.97593e-18)
(1.00479 0.100879 -7.06694e-18)
(1.00904 0.0934713 1.03577e-17)
(1.01274 0.0860117 3.45229e-18)
(1.01587 0.0785304 3.42407e-18)
(1.01847 0.0710446 0)
(1.02058 0.0635635 -3.27293e-18)
(1.02224 0.0560919 0)
(1.02352 0.0486303 0)
(1.02447 0.0411801 -3.30682e-18)
(1.02512 0.0337498 0)
(1.02552 0.0263546 0)
(1.0257 0.01901 0)
(1.02568 0.011733 8.2072e-19)
(1.02551 0.00455237 -4.27939e-19)
(1.02523 -0.00251291 2.13829e-19)
(1.02486 -0.00946964 0)
(1.02441 -0.0163386 0)
(1.0239 -0.023127 0)
(1.02332 -0.0298309 8.33878e-19)
(1.02265 -0.0364454 8.38533e-19)
(1.02187 -0.0429664 -1.74942e-18)
(1.02099 -0.0493868 0)
(1.01998 -0.0556967 0)
(1.01884 -0.0618839 -3.52959e-18)
(1.01758 -0.0679353 -1.81432e-18)
(1.0162 -0.0738358 0)
(1.01471 -0.0795683 0)
(1.01314 -0.0851144 1.82753e-18)
(1.01153 -0.09046 5.60381e-20)
(1.00996 -0.095604 0)
(1.00848 -0.100567 0)
(1.00719 -0.1054 -1.94026e-18)
(1.00616 -0.110191 0)
(1.00542 -0.115062 0)
(1.00498 -0.120155 0)
(1.00476 -0.125608 0)
(1.00462 -0.131518 0)
(1.00439 -0.137909 -4.16238e-18)
(1.00388 -0.144703 0)
(1.00292 -0.151724 0)
(1.00144 -0.158713 1.67751e-19)
(0.999452 -0.165367 0)
(0.997075 -0.171388 0)
(0.994504 -0.176514 0)
(0.991979 -0.180544 9.97612e-18)
(0.989747 -0.183338 -5.22951e-18)
(0.988044 -0.184822 5.53528e-18)
(0.98709 -0.184983 1.52136e-20)
(0.98708 -0.183874 0)
(0.988199 -0.181616 6.43248e-18)
(0.990622 -0.178398 -6.55245e-18)
(0.99453 -0.174469 0)
(1.00012 -0.170131 0)
(1.00761 -0.16572 -1.45679e-19)
(1.01718 -0.161579 6.494e-18)
(1.02922 -0.158029 5.98478e-18)
(1.04336 -0.155319 0)
(1.0615 -0.15357 -4.10005e-18)
(1.07692 -0.152799 0)
(1.10945 -0.152759 1.13493e-18)
(0.975986 0.216474 0)
(0.981692 0.204215 2.12191e-17)
(0.98777 0.199647 1.88258e-17)
(0.990442 0.198412 0)
(0.990123 0.196237 8.03127e-18)
(0.989272 0.192976 -7.77176e-18)
(0.988773 0.189391 0)
(0.988283 0.185465 -1.35674e-17)
(0.987614 0.181002 0)
(0.986856 0.175999 0)
(0.986045 0.170516 0)
(0.985152 0.164581 0)
(0.984214 0.158203 0)
(0.983352 0.151388 1.82844e-19)
(0.982712 0.144142 -9.52985e-18)
(0.982436 0.136519 -1.82221e-19)
(0.982669 0.128774 1.83631e-19)
(0.983508 0.121141 0)
(0.984951 0.113603 0)
(0.986878 0.106085 0)
(0.989104 0.0985655 -2.02538e-19)
(0.991461 0.0910672 2.06444e-19)
(0.993838 0.0836149 -3.95335e-18)
(0.996161 0.0762184 -3.92221e-18)
(0.998375 0.0688744 0)
(1.00043 0.0615735 -3.98669e-18)
(1.0023 0.0543062 3.97418e-18)
(1.00395 0.0470646 0)
(1.00537 0.0398439 1.92581e-18)
(1.00652 0.0326458 1.98403e-18)
(1.00741 0.0254802 0)
(1.00804 0.0183622 0)
(1.00841 0.0113055 1.0027e-18)
(1.00855 0.00434815 -1.48385e-20)
(1.00851 -0.0025459 -4.95068e-19)
(1.00832 -0.00935122 0)
(1.00799 -0.0160649 0)
(1.00755 -0.0226961 -1.01151e-18)
(1.00701 -0.0292472 0)
(1.00636 -0.0357152 -1.0212e-18)
(1.00561 -0.0420961 -5.91673e-20)
(1.00478 -0.0483841 0)
(1.00387 -0.0545714 2.08774e-18)
(1.00289 -0.0606487 4.15591e-18)
(1.00187 -0.0666059 2.07077e-18)
(1.00082 -0.0724322 0)
(0.999758 -0.0781163 -4.35754e-18)
(0.998729 -0.0836475 0)
(0.997772 -0.0890202 -2.1806e-18)
(0.996938 -0.0942393 0)
(0.996287 -0.0993279 0)
(0.995878 -0.104333 0)
(0.995758 -0.109328 0)
(0.995951 -0.114412 0)
(0.996443 -0.119699 -4.7822e-18)
(0.997169 -0.125295 4.8129e-18)
(0.99802 -0.131273 0)
(0.998851 -0.13765 4.72347e-18)
(0.999506 -0.144361 -4.91415e-18)
(0.999852 -0.15126 0)
(0.999806 -0.158131 -4.90666e-18)
(0.999354 -0.164715 0)
(0.998552 -0.170744 0)
(0.997509 -0.175973 0)
(0.996366 -0.180197 -5.67792e-18)
(0.995274 -0.183265 6.02008e-18)
(0.994381 -0.185086 -6.29067e-18)
(0.993838 -0.185628 1.31436e-17)
(0.993799 -0.184929 -6.84373e-18)
(0.994435 -0.183103 0)
(0.995944 -0.180337 7.39943e-18)
(0.998564 -0.176889 -7.45341e-18)
(1.00256 -0.173069 0)
(1.00826 -0.169226 -1.16762e-19)
(1.01594 -0.165705 -7.11701e-18)
(1.02609 -0.162826 0)
(1.03844 -0.160787 0)
(1.05498 -0.159711 -4.57682e-18)
(1.0692 -0.159299 0)
(1.10036 -0.159527 -1.28767e-18)
(0.976761 0.214804 0)
(0.984936 0.20201 -1.22249e-17)
(0.992771 0.199205 -1.07059e-17)
(0.99565 0.198992 0)
(0.994984 0.196872 1.84302e-17)
(0.993958 0.193637 1.74039e-17)
(0.993391 0.190142 0)
(0.992831 0.186207 1.56681e-17)
(0.992164 0.181688 -1.48784e-17)
(0.991564 0.176665 0)
(0.99108 0.171205 0)
(0.990642 0.165316 0)
(0.99019 0.15899 0)
(0.989704 0.152211 -1.13237e-17)
(0.989174 0.144966 -1.1128e-17)
(0.988607 0.13728 1.02287e-17)
(0.988077 0.129387 -3.02792e-17)
(0.987707 0.121536 0)
(0.987578 0.113748 0)
(0.987694 0.105984 9.70381e-18)
(0.988005 0.0982458 1.89791e-17)
(0.988458 0.0905638 -9.29288e-18)
(0.989023 0.082967 0)
(0.989679 0.075466 0)
(0.990404 0.0680566 -4.66018e-18)
(0.99117 0.0607281 9.18094e-18)
(0.991947 0.0534688 -9.15825e-18)
(0.992705 0.0462682 0)
(0.993415 0.0391174 0)
(0.994051 0.0320138 -2.26103e-18)
(0.994594 0.0249616 0)
(0.995028 0.0179692 2.33154e-18)
(0.995351 0.0110501 -1.14264e-18)
(0.995585 0.00420142 -1.44807e-20)
(0.995741 -0.00258995 -7.26227e-21)
(0.995822 -0.00930186 0)
(0.995844 -0.0159293 0)
(0.995819 -0.0224818 -2.90219e-20)
(0.995751 -0.0289631 1.18352e-18)
(0.995643 -0.0353706 3.53934e-18)
(0.995498 -0.0416996 4.72819e-18)
(0.995324 -0.0479453 2.40966e-18)
(0.995126 -0.0541012 -2.37059e-18)
(0.994915 -0.0601598 -2.39194e-18)
(0.994701 -0.0661129 2.4731e-18)
(0.994497 -0.071952 0)
(0.994324 -0.0776689 4.94036e-18)
(0.994204 -0.0832567 -5.11288e-18)
(0.994169 -0.0887134 0)
(0.994257 -0.0940467 0)
(0.994509 -0.0992791 0)
(0.994965 -0.104453 0)
(0.995655 -0.109632 0)
(0.99659 -0.114898 0)
(0.997747 -0.120344 5.40009e-18)
(0.999067 -0.126056 -1.09928e-17)
(1.00045 -0.13209 -5.59862e-18)
(1.00178 -0.138455 5.64056e-18)
(1.0029 -0.14509 5.541e-18)
(1.00369 -0.151868 -5.76535e-18)
(1.00406 -0.158594 5.86358e-18)
(1.00393 -0.165032 0)
(1.00332 -0.170932 6.15904e-18)
(1.00225 -0.176056 -6.35952e-18)
(1.00078 -0.180198 0)
(0.998995 -0.183199 -1.36441e-17)
(0.997011 -0.184963 7.10189e-18)
(0.994961 -0.185457 -1.48571e-17)
(0.993027 -0.184728 7.74903e-18)
(0.991443 -0.182904 0)
(0.990499 -0.180195 8.23678e-18)
(0.990541 -0.176882 8.49321e-18)
(0.991955 -0.173296 -8.46935e-18)
(0.995174 -0.169801 -8.47185e-18)
(1.00057 -0.166743 8.16121e-18)
(1.00873 -0.164443 0)
(1.01941 -0.163037 0)
(1.03476 -0.1627 5.26769e-18)
(1.04819 -0.162659 0)
(1.07925 -0.163517 1.48569e-18)
(0.977833 0.212617 1.62099e-17)
(0.988995 0.19965 0)
(0.998472 0.199059 -2.41013e-17)
(1.00125 0.199734 2.18351e-17)
(1.00018 0.197591 -2.08222e-17)
(0.999031 0.194436 1.9971e-17)
(0.998401 0.191035 0)
(0.997726 0.18706 1.60199e-19)
(0.996949 0.182458 1.67977e-17)
(0.996282 0.17737 0)
(0.995797 0.17186 0)
(0.995448 0.165934 0)
(0.995195 0.159589 2.77131e-17)
(0.995012 0.152815 0)
(0.994856 0.145596 2.46955e-17)
(0.99468 0.137939 0)
(0.994472 0.130053 4.6191e-17)
(0.994275 0.122178 0)
(0.994128 0.11434 0)
(0.994035 0.106514 -2.20876e-17)
(0.993976 0.0987069 -1.08179e-17)
(0.993934 0.09095 0)
(0.993914 0.0832736 0)
(0.993932 0.0756921 0)
(0.993998 0.0682061 5.26202e-18)
(0.994114 0.0608094 -5.24491e-18)
(0.994277 0.0534939 -1.07981e-19)
(0.994478 0.046251 0)
(0.994703 0.0390722 5.34096e-18)
(0.99494 0.0319542 0)
(0.995178 0.0248992 0)
(0.995407 0.0179116 -2.63537e-18)