/*--------------------------------*- C++ -*----------------------------------*\
| =========                 |                                                 |
| \\      /  F ield         | OpenFOAM: The Open Source CFD Toolbox           |
|  \\    /   O peration     | Version:  v1912                                 |
|   \\  /    A nd           | Website:  www.openfoam.com                      |
|    \\/     M anipulation  |                                                 |
\*---------------------------------------------------------------------------*/
FoamFile
{
    version     2.0;
    format      ascii;
    class       volScalarField;
    location    "525";
    object      p;
}
// * * * * * * * * * * * * * * * * * * * * * * * * * * * * * * * * * * * * * //

dimensions      [0 2 -2 0 0 0 0];


internalField   nonuniform List<scalar> 
2000
(
-0.0459979
0.0714134
0.125994
0.119105
0.103277
0.0969716
0.0963663
0.0977151
0.0979327
0.0977116
0.0978511
0.0975253
0.0972655
0.0972097
0.0972671
0.0972883
0.0972465
0.0972269
0.0972229
0.0972277
0.0972327
0.0972278
0.0972086
0.0971763
0.097137
0.0970965
0.0970599
0.097029
0.0970017
0.0969758
0.0969498
0.0969232
0.0968959
0.0968679
0.0968391
0.0968096
0.0967796
0.0967492
0.096718
0.0966863
0.0966548
0.0966243
0.0965964
0.0965729
0.0965553
0.0965452
0.0965435
0.0965518
0.0965715
0.0966015
0.0966304
0.0966141
0.0964326
0.0958421
0.094479
0.0919514
0.0879693
0.0824825
0.0759578
0.0698215
0.0661833
0.0661465
0.0707054
0.0794731
0.0914885
0.105744
0.121389
0.137624
0.15353
0.168017
0.180037
0.188714
0.193212
0.192718
0.186441
0.173719
0.153429
0.125373
0.0838485
0.0415361
0.00724907
0.0924256
0.131243
0.118048
0.100307
0.0961087
0.0996492
0.102089
0.0993351
0.0960914
0.0956529
0.0969519
0.0973996
0.0972685
0.0974905
0.0973899
0.0972666
0.0971666
0.0971342
0.0971245
0.0971438
0.0971861
0.0971954
0.0971743
0.0971411
0.0971047
0.0970696
0.0970377
0.0970099
0.0969833
0.0969549
0.0969259
0.0968975
0.0968701
0.0968427
0.0968149
0.0967867
0.0967585
0.0967297
0.0966994
0.0966677
0.0966359
0.0966055
0.0965783
0.096556
0.0965405
0.0965339
0.0965407
0.0965742
0.0966568
0.0967903
0.0968851
0.0966591
0.095552
0.0927893
0.0877065
0.0801488
0.0707185
0.0610485
0.0542257
0.0538256
0.0590534
0.0674572
0.0783001
0.0911189
0.105553
0.121036
0.136797
0.151917
0.165384
0.176182
0.183331
0.185931
0.183248
0.174619
0.159512
0.13702
0.107315
0.0664068
0.0294354
0.0583168
0.0921147
0.114806
0.113249
0.104051
0.0998755
0.0999133
0.0992763
0.0973712
0.0966857
0.0982724
0.099869
0.0988894
0.0964289
0.095535
0.0964101
0.0972944
0.097469
0.0973125
0.0972125
0.0971581
0.0971241
0.0971065
0.0971189
0.0971271
0.0971163
0.0970854
0.0970396
0.0970023
0.0969663
0.0969383
0.0969142
0.0968921
0.0968734
0.0968572
0.0968402
0.0968197
0.0967949
0.0967664
0.096735
0.0967018
0.0966679
0.0966336
0.0965988
0.0965687
0.0965639
0.0966201
0.0967707
0.0970447
0.0974514
0.0979291
0.0982527
0.0980028
0.0965563
0.0932373
0.087629
0.0799608
0.0714411
0.0641211
0.059584
0.058514
0.0619127
0.0691492
0.0790952
0.0909767
0.104328
0.118577
0.132902
0.146339
0.157895
0.166613
0.171637
0.172252
0.167903
0.158113
0.142547
0.120618
0.0928602
0.0565622
0.0249985
0.0833038
0.0933176
0.105868
0.109947
0.107254
0.104235
0.102574
0.100842
0.09922
0.0984018
0.0982127
0.0981144
0.097769
0.0970705
0.0965465
0.0974927
0.098747
0.0980112
0.096857
0.0964572
0.0964101
0.0965857
0.0968744
0.0970983
0.0972279
0.0973063
0.0973494
0.097323
0.0972341
0.0971313
0.0970333
0.0969518
0.0968953
0.0968705
0.0968637
0.0968601
0.0968482
0.0968302
0.0968079
0.0967811
0.0967506
0.0967171
0.0966789
0.0966344
0.0965919
0.0965892
0.096694
0.0969373
0.0973579
0.0979522
0.0986742
0.0991644
0.0990308
0.0977294
0.0947509
0.0898692
0.0833671
0.0760605
0.0691311
0.0644492
0.0631308
0.0658748
0.0722853
0.0813425
0.0922086
0.104275
0.116878
0.129193
0.140334
0.149451
0.155778
0.158662
0.157567
0.152074
0.14183
0.126613
0.106034
0.0807033
0.0487362
0.0208086
0.0956443
0.0992448
0.106765
0.110735
0.109606
0.107277
0.105896
0.104857
0.103554
0.102102
0.100751
0.0996615
0.0989335
0.0980938
0.0971318
0.0971629
0.0977172
0.0979311
0.0977833
0.0973367
0.0970015
0.0968907
0.0969498
0.0971316
0.0973256
0.0974404
0.097396
0.0972052
0.0970698
0.0969631
0.0968804
0.0968228
0.0967921
0.0968055
0.0968483
0.0968928
0.0969188
0.0969173
0.0968942
0.0968562
0.0968074
0.0967489
0.0966783
0.096588
0.0964771
0.0963678
0.0963421
0.0965471
0.0969711
0.09758
0.0982682
0.0987572
0.0986331
0.0974046
0.0946569
0.0902565
0.0845191
0.0782693
0.0727606
0.0694137
0.0690736
0.0719695
0.0777525
0.0857053
0.0950998
0.1053
0.115667
0.125505
0.134102
0.140796
0.144999
0.146204
0.143983
0.137986
0.127905
0.113552
0.0946127
0.0716727
0.043241
0.0181893
0.104085
0.105919
0.109873
0.112043
0.111228
0.10962
0.108661
0.107985
0.107026
0.105834
0.104705
0.103714
0.1027
0.101377
0.100003
0.0992961
0.0991662
0.0990364
0.0984729
0.0975933
0.0969811
0.0967798
0.09687
0.0970782
0.0972491
0.0973428
0.0973811
0.0973692
0.0972805
0.0971612
0.097044
0.0969473
0.0968806
0.0968594
0.0968345
0.0968166
0.0968206
0.0968202
0.0967964
0.0967627
0.0967261
0.0966861
0.096642
0.0965957
0.0965596
0.0965702
0.0966971
0.0970137
0.0975074
0.0981142
0.0987036
0.0990287
0.0987493
0.0975231
0.0951238
0.0915723
0.0872271
0.0827827
0.0791343
0.0771536
0.0774009
0.0800268
0.0848177
0.0912873
0.0988509
0.106945
0.115024
0.122536
0.128925
0.133667
0.136284
0.136347
0.133475
0.127336
0.117622
0.10414
0.0865854
0.0654906
0.0395073
0.0165504
0.110896
0.111719
0.112956
0.113294
0.112507
0.111522
0.110863
0.110324
0.109656
0.1089
0.108174
0.107454
0.106594
0.105485
0.104318
0.103465
0.102951
0.102354
0.101387
0.100291
0.0994797
0.0990422
0.0988535
0.0987635
0.0986777
0.098575
0.0984532
0.0982839
0.0980577
0.0978336
0.0976465
0.0975005
0.097389
0.0973412
0.0975197
0.09762
0.097651
0.0976819
0.0977212
0.0977657
0.0978159
0.0978741
0.0979438
0.0980315
0.0981515
0.0983312
0.0986096
0.0990184
0.0995425
0.100111
0.100595
0.100805
0.100504
0.0994816
0.0976284
0.0950135
0.0919281
0.0888676
0.0864401
0.085231
0.085645
0.0878067
0.0915706
0.0965903
0.102427
0.108633
0.114774
0.120408
0.125088
0.128377
0.12986
0.129147
0.125875
0.119714
0.110349
0.0975689
0.0810578
0.0612931
0.0369653
0.0155109
0.116773
0.116718
0.115803
0.114594
0.113771
0.113253
0.112777
0.112306
0.111863
0.111425
0.110973
0.110475
0.109876
0.109134
0.108328
0.107637
0.107096
0.106469
0.105604
0.104653
0.103857
0.10329
0.102893
0.102581
0.102304
0.10204
0.101777
0.101499
0.101215
0.100961
0.100758
0.100612
0.100529
0.100539
0.100653
0.100735
0.100782
0.100842
0.100925
0.101025
0.101138
0.101268
0.101416
0.101588
0.101794
0.102049
0.102371
0.10277
0.103221
0.103659
0.103981
0.104047
0.103704
0.102825
0.101362
0.0993888
0.0971283
0.0949331
0.0932273
0.0924148
0.0927804
0.0944221
0.09725
0.101031
0.10545
0.110162
0.114811
0.119032
0.122443
0.124664
0.12532
0.124049
0.120501
0.114348
0.105269
0.0930317
0.077298
0.058486
0.0352966
0.0148345
0.122177
0.121187
0.118223
0.11568
0.114924
0.114835
0.114501
0.114093
0.113827
0.113609
0.113339
0.113013
0.112624
0.112145
0.111608
0.111118
0.110706
0.110234
0.109602
0.108884
0.108236
0.107732
0.107349
0.107035
0.106752
0.106479
0.106208
0.105935
0.105668
0.105427
0.105229
0.105084
0.105002
0.104988
0.105002
0.105062
0.105131
0.105206
0.105297
0.105403
0.105522
0.105654
0.105801
0.105966
0.106154
0.106374
0.106631
0.106922
0.107225
0.107486
0.107625
0.107547
0.107149
0.106353
0.105139
0.103573
0.101821
0.100139
0.0988282
0.0981799
0.0984056
0.0995923
0.101692
0.104543
0.107908
0.111509
0.115047
0.118207
0.12066
0.122066
0.122088
0.12039
0.116637
0.110508
0.101671
0.089872
0.0747389
0.0566261
0.0342319
0.0143785
0.127407
0.12522
0.120025
0.116381
0.115917
0.116244
0.116015
0.115692
0.115606
0.115574
0.115451
0.115259
0.115017
0.114706
0.114345
0.114007
0.113716
0.113384
0.112933
0.11241
0.111926
0.111546
0.111258
0.111021
0.110803
0.110589
0.110373
0.110156
0.109943
0.109749
0.109588
0.10947
0.109402
0.109382
0.109352
0.109394
0.109457
0.109518
0.109585
0.109662
0.109748
0.109843
0.109947
0.110061
0.110189
0.110334
0.110498
0.110672
0.110835
0.110947
0.110946
0.110763
0.110326
0.109586
0.108534
0.107226
0.10579
0.104418
0.103336
0.102763
0.102863
0.10371
0.105277
0.107441
0.110015
0.112768
0.115446
0.117776
0.11947
0.120229
0.119749
0.117718
0.113819
0.107733
0.0991203
0.0876982
0.0730509
0.055467
0.0336143
0.0141098
0.132645
0.128796
0.121103
0.116712
0.116804
0.117495
0.117323
0.117109
0.117212
0.117348
0.117359
0.117287
0.117166
0.11698
0.116746
0.116516
0.116312
0.116071
0.11574
0.115353
0.114992
0.11471
0.1145
0.114328
0.11417
0.114013
0.113853
0.113692
0.113534
0.113388
0.113266
0.113175
0.113118
0.113084
0.113062
0.113087
0.113131
0.113173
0.113217
0.113268
0.113325
0.113386
0.11345
0.11352
0.113595
0.113678
0.113766
0.113852
0.113915
0.113923
0.11383
0.113582
0.113129
0.112435
0.111502
0.110376
0.109158
0.107996
0.107067
0.106538
0.106539
0.107131
0.108291
0.109926
0.111881
0.113961
0.115949
0.117609
0.118689
0.118925
0.118042
0.115755
0.111761
0.105742
0.0973463
0.0862633
0.0720233
0.0548508
0.033332
0.0140282
0.138012
0.131843
0.121429
0.116769
0.117636
0.118599
0.118449
0.118372
0.118658
0.11894
0.119069
0.11911
0.119099
0.119025
0.118898
0.118759
0.118626
0.118456
0.118212
0.11792
0.117646
0.117431
0.117272
0.117144
0.117028
0.116912
0.116794
0.116673
0.116554
0.116444
0.116351
0.11628
0.116234
0.116205
0.116193
0.116209
0.116241
0.116273
0.116305
0.11634
0.116376
0.116413
0.11645
0.116486
0.116522
0.116558
0.11659
0.116611
0.116604
0.11654
0.116386
0.116098
0.11564
0.114989
0.114147
0.113156
0.112096
0.111086
0.110264
0.109761
0.109679
0.110065
0.110903
0.112113
0.113567
0.115098
0.11652
0.117628
0.118203
0.118013
0.116812
0.114334
0.110288
0.104357
0.0961761
0.0854048
0.0715141
0.0546716
0.0333104
0.0141478
0.143584
0.134256
0.121037
0.116674
0.118436
0.119553
0.119419
0.119507
0.119962
0.120363
0.120596
0.12074
0.12083
0.120854
0.120822
0.120766
0.120701
0.120597
0.120427
0.120214
0.120008
0.119846
0.119728
0.119635
0.11955
0.119466
0.119378
0.119287
0.119198
0.119114
0.119042
0.118986
0.118949
0.118933
0.118927
0.118938
0.118961
0.118986
0.119009
0.119031
0.119052
0.11907
0.119085
0.119094
0.119099
0.119098
0.119087
0.119058
0.118997
0.118881
0.118682
0.118368
0.11791
0.117294
0.116524
0.115635
0.114694
0.113796
0.113049
0.112558
0.112402
0.112618
0.113189
0.114048
0.115085
0.11616
0.117112
0.117766
0.11793
0.117401
0.115955
0.113343
0.109284
0.103458
0.0954839
0.0849976
0.071409
0.0548406
0.033493
0.0144729
0.149403
0.135918
0.120023
0.116541
0.119202
0.120361
0.120266
0.120534
0.121137
0.121637
0.121962
0.122198
0.122376
0.122487
0.122538
0.122557
0.122557
0.122514
0.12241
0.122264
0.122119
0.122005
0.121924
0.121863
0.121807
0.121749
0.121687
0.121622
0.121557
0.121495
0.121441
0.121399
0.121372
0.121362
0.121359
0.121367
0.121385
0.121404
0.121419
0.121431
0.121439
0.121441
0.121437
0.121424
0.121403
0.12137
0.121323
0.121253
0.121149
0.120991
0.120756
0.120421
0.119964
0.119375
0.118659
0.117848
0.116995
0.116176
0.115479
0.114986
0.114758
0.114823
0.115165
0.115727
0.116417
0.117114
0.117682
0.117969
0.117809
0.117021
0.115397
0.112702
0.108658
0.102943
0.0951624
0.084931
0.0716025
0.0552726
0.0338304
0.0149847
0.155477
0.136721
0.118537
0.116463
0.119916
0.121035
0.121017
0.12147
0.122195
0.122778
0.123186
0.123504
0.12376
0.123945
0.124069
0.124155
0.124213
0.124225
0.12418
0.124093
0.124001
0.123931
0.123885
0.123852
0.123823
0.123791
0.123752
0.12371
0.123667
0.123624
0.123585
0.123555
0.123537
0.123531
0.123531
0.123538
0.123552
0.123565
0.123574
0.123577
0.123574
0.123562
0.123541
0.123509
0.123464
0.123404
0.123324
0.123219
0.123076
0.122881
0.122616
0.122261
0.1218
0.121226
0.120548
0.119789
0.118995
0.118226
0.117554
0.117042
0.11674
0.116668
0.116812
0.117125
0.117528
0.117921
0.118186
0.118191
0.11779
0.116815
0.115073
0.112335
0.108325
0.102718
0.0951103
0.085101
0.0719937
0.0558821
0.0342783
0.015639
0.161785
0.136589
0.116752
0.116487
0.120554
0.121595
0.121695
0.122322
0.123146
0.123801
0.124285
0.124676
0.124999
0.12525
0.125437
0.125582
0.125692
0.125755
0.125761
0.125726
0.125681
0.125648
0.125633
0.125628
0.125623
0.125613
0.125597
0.125575
0.125551
0.125524
0.125499
0.12548
0.12547
0.125467
0.12547
0.125476
0.125486
0.125494
0.125496
0.125491
0.125476
0.125451
0.125413
0.125361
0.125292
0.125203
0.125092
0.12495
0.12477
0.124538
0.124239
0.123859
0.123386
0.122815
0.122154
0.121423
0.12066
0.119915
0.119244
0.118699
0.118322
0.118127
0.118106
0.118217
0.118397
0.118558
0.118598
0.1184
0.11783
0.116731
0.114917
0.112166
0.1082
0.102694
0.0952351
0.0854151
0.0724938
0.0565894
0.0347989
0.0163812
0.168274
0.13551
0.114849
0.116625
0.121096
0.122064
0.122317
0.123098
0.124001
0.12472
0.125271
0.125727
0.12611
0.126418
0.126662
0.126859
0.127016
0.127123
0.127174
0.127184
0.127179
0.12718
0.127192
0.12721
0.127227
0.127237
0.127238
0.127233
0.127226
0.127213
0.127198
0.127187
0.127182
0.127182
0.127183
0.127187
0.12719
0.12719
0.127181
0.127163
0.127133
0.12709
0.12703
0.126953
0.126855
0.126735
0.126587
0.126407
0.126186
0.125913
0.125578
0.125168
0.124674
0.124093
0.123433
0.12271
0.121957
0.121214
0.120529
0.119946
0.119499
0.119204
0.119053
0.119013
0.119029
0.119026
0.118911
0.118577
0.117898
0.116724
0.114875
0.112128
0.108211
0.102794
0.0954604
0.0858
0.0730344
0.0573285
0.0353583
0.0171609
0.174863
0.133507
0.112987
0.116857
0.121536
0.122467
0.12289
0.1238
0.124767
0.125542
0.126153
0.126664
0.127098
0.127456
0.127747
0.127989
0.128186
0.128331
0.12842
0.128467
0.128495
0.128524
0.128559
0.128595
0.128628
0.128652
0.128666
0.128673
0.128678
0.128671
0.12866
0.128652
0.128646
0.128641
0.128635
0.128629
0.128619
0.128604
0.128578
0.128541
0.128489
0.128421
0.128334
0.128227
0.128097
0.127941
0.127756
0.127536
0.127275
0.126964
0.126592
0.126152
0.125635
0.125039
0.12437
0.123645
0.122889
0.122139
0.121435
0.120816
0.120314
0.119943
0.119699
0.119554
0.11946
0.119348
0.119134
0.118716
0.117973
0.11676
0.114898
0.112169
0.108299
0.10296
0.0957307
0.0862042
0.0735687
0.058051
0.0359279
0.0179381
0.181457
0.130678
0.111279
0.117142
0.121875
0.122818
0.123412
0.124421
0.125435
0.126256
0.126915
0.12747
0.127944
0.12834
0.128668
0.128944
0.129172
0.129345
0.129463
0.129537
0.129589
0.129637
0.129685
0.129733
0.129775
0.129807
0.129827
0.12984
0.129842
0.129833
0.129821
0.129808
0.129793
0.129776
0.129758
0.129736
0.129708
0.129673
0.129627
0.129566
0.12949
0.129396
0.129282
0.129146
0.128985
0.128798
0.12858
0.128327
0.128033
0.12769
0.127291
0.126825
0.126289
0.125679
0.125001
0.12427
0.123508
0.122748
0.122027
0.121381
0.120839
0.120417
0.120112
0.119899
0.119736
0.119558
0.119285
0.11882
0.118044
0.116815
0.114956
0.11225
0.108424
0.103152
0.0960094
0.0865953
0.0740686
0.0587259
0.0364861
0.0186856
0.187965
0.127152
0.109794
0.11743
0.122121
0.123114
0.123857
0.124932
0.125976
0.126827
0.127517
0.128101
0.128599
0.12902
0.129371
0.129669
0.129916
0.130107
0.130242
0.130333
0.130399
0.130456
0.130511
0.130563
0.130607
0.13064
0.13066
0.130669
0.130663
0.13065
0.130632
0.13061
0.130584
0.130554
0.130522
0.130484
0.13044
0.130387
0.130322
0.130242
0.130146
0.130031
0.129896
0.129737
0.129554
0.129344
0.129103
0.128827
0.128511
0.128147
0.127728
0.127247
0.126697
0.126077
0.125393
0.124657
0.12389
0.123123
0.12239
0.121725
0.121158
0.120703
0.12036
0.120106
0.119902
0.119687
0.119383
0.118895
0.118106
0.116874
0.115027
0.112345
0.10856
0.103345
0.0962754
0.0869555
0.0745207
0.0593371
0.0370189
0.0193886
0.194311
0.123088
0.108571
0.117684
0.122282
0.123337
0.124185
0.125294
0.12635
0.127216
0.127923
0.128521
0.129033
0.129466
0.12983
0.130139
0.130396
0.130596
0.13074
0.130839
0.130911
0.130972
0.131028
0.13108
0.131123
0.131155
0.131173
0.131175
0.131165
0.131148
0.131123
0.131093
0.131058
0.131019
0.130975
0.130927
0.130871
0.130805
0.130728
0.130636
0.130526
0.130398
0.130249
0.130077
0.12988
0.129656
0.129402
0.129113
0.128784
0.128408
0.127979
0.127488
0.126932
0.126307
0.12562
0.12488
0.12411
0.123338
0.122597
0.121921
0.121338
0.120864
0.120499
0.120223
0.119997
0.119762
0.119444
0.118947
0.118156
0.116931
0.115098
0.112442
0.108693
0.103527
0.0965182
0.0872778
0.0749213
0.0598787
0.037518
0.0200424
0.200494
0.118755
0.107639
0.117876
0.122365
0.123469
0.124378
0.125499
0.126559
0.127433
0.128147
0.128751
0.12927
0.129709
0.130079
0.130393
0.130655
0.130859
0.131006
0.131109
0.131184
0.131246
0.131303
0.131354
0.131396
0.131426
0.131441
0.131442
0.131429
0.131408
0.131379
0.131343
0.131303
0.131259
0.13121
0.131154
0.131092
0.13102
0.130936
0.130837
0.13072
0.130585
0.130429
0.13025
0.130047
0.129816
0.129555
0.129259
0.128924
0.128543
0.128109
0.127615
0.127056
0.12643
0.12574
0.125
0.124229
0.123454
0.122708
0.122025
0.121433
0.120948
0.12057
0.120282
0.120046
0.119804
0.11948
0.118983
0.118196
0.116981
0.115164
0.112532
0.108815
0.103691
0.096735
0.0875622
0.0752733
0.060353
0.0379803
0.0206511
0.206657
0.114667
0.107004
0.117993
0.122383
0.123517
0.124457
0.125585
0.126647
0.127524
0.128242
0.12885
0.129371
0.129813
0.130185
0.130502
0.130766
0.130972
0.131121
0.131226
0.131302
0.131365
0.131422
0.131473
0.131514
0.131542
0.131556
0.131558
0.131543
0.13152
0.131489
0.131452
0.131409
0.131362
0.131311
0.131253
0.131187
0.131112
0.131025
0.130923
0.130804
0.130666
0.130507
0.130326
0.130119
0.129886
0.129622
0.129324
0.128988
0.128605
0.12817
0.127675
0.127115
0.126489
0.1258
0.125059
0.124287
0.123511
0.122763
0.122075
0.121478
0.120987
0.120603
0.12031
0.120069
0.119824
0.119502
0.119007
0.118228
0.117025
0.115225
0.112615
0.108927
0.103841
0.0969305
0.0878164
0.075588
0.0607732
0.0384118
0.021234
0.212754
0.111461
0.106608
0.118042
0.122363
0.123511
0.124464
0.125599
0.126665
0.127544
0.128264
0.128874
0.129397
0.12984
0.130214
0.130532
0.130797
0.131004
0.131154
0.131259
0.131336
0.131399
0.131456
0.131507
0.131548
0.131576
0.131591
0.131592
0.131577
0.131554
0.131522
0.131485
0.131442
0.131394
0.131342
0.131283
0.131217
0.131141
0.131053
0.130951
0.130831
0.130692
0.130533
0.13035
0.130143
0.129909
0.129646
0.129348
0.129011
0.128629
0.128194
0.127699
0.127141
0.126515
0.125827
0.125087
0.124315
0.123537
0.122787
0.122098
0.121497
0.121003
0.120616
0.12032
0.120078
0.119834
0.119515
0.119026
0.118256
0.117064
0.115281
0.112693
0.109033
0.103982
0.0971137
0.0880535
0.0758818
0.0611616
0.0388243
0.0218242
0.217481
0.109518
0.106383
0.118069
0.122341
0.123486
0.124449
0.125589
0.126657
0.127539
0.12826
0.128871
0.129394
0.129838
0.130213
0.130531
0.130797
0.131004
0.131154
0.131259
0.131336
0.1314
0.131457
0.131508
0.13155
0.131578
0.131593
0.131594
0.13158
0.131556
0.131525
0.131487
0.131444
0.131396
0.131344
0.131286
0.13122
0.131144
0.131056
0.130954
0.130834
0.130695
0.130536
0.130354
0.130148
0.129914
0.129651
0.129353
0.129017
0.128636
0.128202
0.127709
0.127151
0.126526
0.125839
0.1251
0.124328
0.12355
0.122799
0.122108
0.121505
0.121009
0.12062
0.120323
0.120082
0.119839
0.119523
0.11904
0.118278
0.117099
0.115331
0.112762
0.109127
0.104107
0.0972758
0.0882628
0.0761399
0.0615044
0.0391832
0.0223863
)
;

boundaryField
{
    inlet
    {
        type            zeroGradient;
    }
    outlet
    {
        type            fixedValue;
        value           uniform 0;
    }
    fixedWalls
    {
        type            zeroGradient;
    }
    frontAndBack
    {
        type            empty;
    }
}


// ************************************************************************* //
