/*--------------------------------*- C++ -*----------------------------------*\
| =========                 |                                                 |
| \\      /  F ield         | OpenFOAM: The Open Source CFD Toolbox           |
|  \\    /   O peration     | Version:  v1912                                 |
|   \\  /    A nd           | Website:  www.openfoam.com                      |
|    \\/     M anipulation  |                                                 |
\*---------------------------------------------------------------------------*/
FoamFile
{
    version     2.0;
    format      ascii;
    class       surfaceScalarField;
    location    "525";
    object      phi;
}
// * * * * * * * * * * * * * * * * * * * * * * * * * * * * * * * * * * * * * //

dimensions      [0 3 -1 0 0 0 0];
oriented        oriented;


internalField   nonuniform List<scalar> 
3895
(
0.000814746
0.000381431
0.000499361
0.000315385
0.000251565
0.000247796
6.48626e-05
0.000186702
-6.21969e-05
0.00012706
-0.00012733
6.51326e-05
-0.000137644
1.0314e-05
-0.000113636
-2.40077e-05
-9.03478e-05
-2.32881e-05
-8.49368e-05
-5.41094e-06
-6.60934e-05
-1.88434e-05
-4.46383e-05
-2.14551e-05
-4.0273e-05
-4.36533e-06
-4.84044e-05
8.13142e-06
-4.54037e-05
-3.00067e-06
-3.18213e-05
-1.35825e-05
-2.51158e-05
-6.70546e-06
-2.60427e-05
9.26895e-07
-2.90922e-05
3.04952e-06
-3.06587e-05
1.56646e-06
-2.94152e-05
-1.24353e-06
-2.5284e-05
-4.13112e-06
-1.91389e-05
-6.14514e-06
-1.27051e-05
-6.43382e-06
-7.05887e-06
-5.64622e-06
-2.81797e-06
-4.2409e-06
-6.8733e-08
-2.74924e-06
1.58162e-06
-1.65035e-06
2.72296e-06
-1.14134e-06
3.74048e-06
-1.01752e-06
4.74763e-06
-1.00715e-06
5.71103e-06
-9.63402e-07
6.60744e-06
-8.96414e-07
7.38962e-06
-7.82172e-07
7.99599e-06
-6.0637e-07
8.34685e-06
-3.50866e-07
8.3816e-06
-3.47513e-08
8.00232e-06
3.79287e-07
7.221e-06
7.81323e-07
6.00747e-06
1.21353e-06
4.29025e-06
1.71722e-06
1.96553e-06
2.32471e-06
-1.08573e-06
3.05126e-06
-4.98095e-06
3.89523e-06
-9.82645e-06
4.8455e-06
-1.57598e-05
5.93339e-06
-2.30974e-05
7.33755e-06
-3.25305e-05
9.43315e-06
-4.53743e-05
1.28438e-05
-6.3772e-05
1.83977e-05
-9.06245e-05
2.68525e-05
-0.000128982
3.83575e-05
-0.000181212
5.22303e-05
-0.000248286
6.70735e-05
-0.000328873
8.05871e-05
-0.000418534
8.96614e-05
-0.000509951
9.14165e-05
-0.000594244
8.42931e-05
-0.000662547
6.83026e-05
-0.000706115
4.35685e-05
-0.000713901
7.78617e-06
-0.000696346
-1.75555e-05
-0.000657786
-3.85596e-05
-0.00060177
-5.60161e-05
-0.000532188
-6.95824e-05
-0.00045209
-8.00976e-05
-0.000363477
-8.86132e-05
-0.00026791
-9.55667e-05
-0.000167018
-0.000100893
-6.25153e-05
-0.000104502
4.36086e-05
-0.000106124
0.000149371
-0.000105763
0.000253183
-0.000103812
0.000353686
-0.000100503
0.000449995
-9.63088e-05
0.000542036
-9.20419e-05
0.000630066
-8.80297e-05
0.000717219
-8.71525e-05
0.000803845
-8.66261e-05
-0.000107377
0.00108795
0.000349294
0.00104738
0.000355946
0.000933278
0.000361903
0.000775746
0.000344234
0.000598429
0.000304376
0.000410383
0.000253179
0.00022125
0.000199447
5.3878e-05
0.000143364
-6.0431e-05
9.1021e-05
-0.000110211
4.43686e-05
-0.00013194
2.8856e-06
-0.000124081
-2.93132e-05
-0.000105815
-2.26314e-05
-0.000107871
1.01865e-05
-0.000103402
-7.46894e-06
-9.0598e-05
-2.63868e-05
-7.63371e-05
-2.09663e-05
-7.82613e-05
2.85112e-06
-8.64477e-05
1.12359e-05
-9.18909e-05
7.00967e-06
-9.38101e-05
6.7563e-07
-9.01451e-05
-7.79615e-06
-8.39745e-05
-1.23157e-05
-7.72544e-05
-1.3154e-05
-7.0739e-05
-1.21616e-05
-6.51538e-05
-9.82611e-06
-6.11167e-05
-6.78624e-06
-5.90624e-05
-3.70474e-06
-5.88773e-05
-1.32643e-06
-6.00412e-05
1.46409e-07
-6.23514e-05
1.30301e-06
-6.51173e-05
1.80259e-06
-6.80299e-05
2.01611e-06
-7.10031e-05
2.19107e-06
-7.41884e-05
2.57889e-06
-7.77354e-05
3.19618e-06
-8.17695e-05
3.99929e-06
-8.63345e-05
4.94432e-06
-9.15513e-05
5.9981e-06
-9.74765e-05
7.13877e-06
-0.00010412
8.36062e-06
-0.000111466
9.67125e-06
-0.000119487
1.10717e-05
-0.000128126
1.25346e-05
-0.000137287
1.40057e-05
-0.000146827
1.54741e-05
-0.000156639
1.71493e-05
-0.000166727
1.95207e-05
-0.00017722
2.33374e-05
-0.000188273
2.94502e-05
-0.000200122
3.8702e-05
-0.000213121
5.13561e-05
-0.000227327
6.64364e-05
-0.000241923
8.16691e-05
-0.000254754
9.34183e-05
-0.00026197
9.68776e-05
-0.000258753
8.81998e-05
-0.00024094
6.64796e-05
-0.000207201
3.45639e-05
-0.000166439
2.80612e-06
-0.000120022
-3.86308e-05
-6.81858e-05
-6.93913e-05
-1.37215e-05
-9.30239e-05
4.24341e-05
-0.000112172
0.000101883
-0.000129031
0.000165848
-0.000144063
0.000234223
-0.000156988
0.000305958
-0.000167302
0.000379506
-0.00017444
0.000453073
-0.00017807
0.000525117
-0.000178168
0.000594393
-0.000175038
0.00065983
-0.000169249
0.000720857
-0.000161529
0.000777312
-0.000152764
0.000829305
-0.000144035
0.000877705
-0.000136429
0.000922543
-0.000131991
0.00096654
-0.000130623
-0.000141928
0.000975282
0.000305926
0.00102604
0.000305188
0.00106097
0.000326974
0.00105862
0.000346585
0.00101217
0.000350821
0.000925047
0.000340306
0.000805751
0.000318744
0.000661761
0.000287353
0.000504923
0.00024786
0.000345842
0.000203449
0.000190172
0.000158556
4.70439e-05
0.000113815
-4.99164e-05
7.4329e-05
-8.61752e-05
4.64452e-05
-0.000106133
1.24892e-05
-0.000114181
-1.83389e-05
-0.000102161
-3.2986e-05
-9.17147e-05
-7.59571e-06
-9.90111e-05
1.85323e-05
-0.000108358
1.6357e-05
-0.000114733
7.05049e-06
-0.000119231
-3.29813e-06
-0.00012118
-1.03667e-05
-0.000119993
-1.43407e-05
-0.000118314
-1.38412e-05
-0.000118049
-1.00911e-05
-0.000119807
-5.0285e-06
-0.00012372
2.08128e-07
-0.00012788
2.83404e-06
-0.000132475
4.7414e-06
-0.000137071
5.89914e-06
-0.000141702
6.43347e-06
-0.000146245
6.55877e-06
-0.000150611
6.55745e-06
-0.000154867
6.83489e-06
-0.000159184
7.5129e-06
-0.000163679
8.49406e-06
-0.000168345
9.61123e-06
-0.000173113
1.0766e-05
-0.000177901
1.19262e-05
-0.000182616
1.30759e-05
-0.000187152
1.42076e-05
-0.000191379
1.52984e-05
-0.000195082
1.62377e-05
-0.000197886
1.68096e-05
-0.000199118
1.6706e-05
-0.000197734
1.57653e-05
-0.000192763
1.45498e-05
-0.000183227
1.38013e-05
-0.000168066
1.42896e-05
-0.000145917
1.65532e-05
-0.000116085
2.15235e-05
-7.77384e-05
2.80901e-05
-3.02864e-05
3.42171e-05
2.59502e-05
3.71817e-05
8.8402e-05
3.44258e-05
0.00015258
2.4022e-05
0.000212327
6.73207e-06
0.000266875
-1.99836e-05
0.000318796
-4.91146e-05
0.000361178
-8.10128e-05
0.000402269
-0.000110483
0.0004456
-0.000136355
0.000492725
-0.000159296
0.000543143
-0.000179449
0.000595469
-0.000196389
0.000647983
-0.000209502
0.000698969
-0.000218288
0.000747015
-0.000222485
0.00079109
-0.000222145
0.000830571
-0.000217649
0.000865192
-0.000209659
0.000894988
-0.000199045
0.000920259
-0.000186801
0.000941485
-0.00017399
0.000959171
-0.000161722
0.00097392
-0.000151177
0.000985606
-0.000143678
0.000995296
-0.000140313
-0.000144758
0.000857109
0.000271374
0.000897356
0.000264941
0.000950165
0.000274165
0.00100471
0.000292043
0.00104637
0.000309154
0.00106531
0.000321374
0.00105664
0.000327413
0.00101793
0.000326056
0.000949549
0.000316244
0.000855078
0.000297921
0.000740893
0.000272741
0.000611929
0.000242779
0.000476497
0.000209761
0.000348309
0.000174633
0.00022349
0.000137308
0.00010215
0.000103002
-3.05844e-07
6.94698e-05
-5.19444e-05
4.40429e-05
-6.33411e-05
2.9929e-05
-6.52797e-05
1.82955e-05
-6.7656e-05
9.4268e-06
-7.35148e-05
2.5607e-06
-8.08686e-05
-3.01292e-06
-8.92193e-05
-5.99009e-06
-9.63734e-05
-6.687e-06
-0.000101696
-4.76885e-06
-0.000106535
-1.8948e-07
-0.000111891
5.56464e-06
-0.000117501
8.44335e-06
-0.000122679
9.92026e-06
-0.000127087
1.03066e-05
-0.000130645
9.99134e-06
-0.000133412
9.32571e-06
-0.00013522
8.36558e-06
-0.000136388
8.00323e-06
-0.000137017
8.14168e-06
-0.000137217
8.69415e-06
-0.000136691
9.08549e-06
-0.000135266
9.34104e-06
-0.000132829
9.48893e-06
-0.000129246
9.4926e-06
-0.000124352
9.31355e-06
-0.000117999
8.94556e-06
-0.000109977
8.21584e-06
-0.000100017
6.84995e-06
-8.78721e-05
4.56078e-06
-7.25167e-05
4.10024e-07
-5.43193e-05
-3.64763e-06
-3.19979e-05
-8.52016e-06
-4.0966e-06
-1.36116e-05
3.06308e-05
-1.81742e-05
7.41702e-05
-2.20159e-05
0.000127298
-2.50375e-05
0.000189379
-2.78641e-05
0.000258337
-3.17764e-05
0.000331178
-3.84146e-05
0.000404524
-4.9324e-05
0.000476709
-6.54535e-05
0.000543577
-8.68512e-05
0.000605778
-0.000111316
0.000661852
-0.000137087
0.000713478
-0.000162109
0.000761955
-0.000184832
0.000807179
-0.00020452
0.000848376
-0.000220645
0.000884665
-0.000232678
0.00091535
-0.000240188
0.000940051
-0.000242989
0.000958756
-0.00024119
0.000971798
-0.000235188
0.000979771
-0.000225623
0.000983432
-0.000213319
0.000983595
-0.000199209
0.000981052
-0.000184258
0.000976493
-0.00016943
0.000970426
-0.000155655
0.000963147
-0.000143897
0.000954485
-0.000135016
0.000944298
-0.000130126
-0.000130216
0.000759397
0.000238011
0.000790536
0.000233803
0.000828351
0.00023635
0.000874986
0.000245409
0.000927002
0.000257138
0.000978871
0.000269504
0.00102441
0.000281871
0.00105755
0.00029292
0.00107319
0.000300605
0.00106786
0.000303249
0.00104042
0.000300183
0.000991563
0.000291633
0.000923242
0.000278082
0.000838863
0.000259012
0.000741528
0.000234643
0.000636635
0.000207895
0.000532143
0.000173963
0.000433879
0.000142307
0.000348876
0.000114932
0.000275907
9.12642e-05
0.000213559
7.17746e-05
0.00016019
5.59302e-05
0.000113833
4.33441e-05
7.41724e-05
3.36702e-05
4.12965e-05
2.61889e-05
1.61414e-05
2.03862e-05
-8.25287e-08
1.60345e-05
-7.59821e-06
1.30803e-05
-9.76083e-06
1.0606e-05
-8.48713e-06
8.64656e-06
-5.14282e-06
6.96226e-06
-5.62942e-07
5.41147e-06
4.83921e-06
3.92356e-06
1.07431e-05
2.46169e-06
1.7151e-05
1.59534e-06
2.4756e-05
5.36682e-07
3.39963e-05
-5.46152e-07
4.4863e-05
-1.78121e-06
5.76336e-05
-3.42958e-06
7.25824e-05
-5.45989e-06
8.9993e-05
-7.91798e-06
0.000110162
-1.08555e-05
0.000133427
-1.43191e-05
0.000160022
-1.8379e-05
0.000190006
-2.31343e-05
0.000223258
-2.86919e-05
0.000258731
-3.50624e-05
0.00029697
-4.18866e-05
0.000337488
-4.90383e-05
0.000380116
-5.62399e-05
0.000425069
-6.31266e-05
0.000472549
-6.94957e-05
0.000522945
-7.54338e-05
0.000576441
-8.13598e-05
0.000632713
-8.80491e-05
0.000690767
-9.64683e-05
0.000748938
-0.000107495
0.000805053
-0.000121568
0.000856697
-0.000138496
0.000902673
-0.000157292
0.00094219
-0.000176604
0.000975083
-0.000195001
0.00100143
-0.000211179
0.00102116
-0.000224246
0.00103417
-0.000233664
0.0010406
-0.000239103
0.00104083
-0.000240421
0.00103555
-0.000237705
0.00102563
-0.000231278
0.00101211
-0.000221661
0.000996008
-0.000209522
0.000978305
-0.000195617
0.00095983
-0.000180733
0.000941223
-0.00016565
0.000922907
-0.000151115
0.000905072
-0.00013782
0.000887648
-0.000126473
0.000870258
-0.000117626
0.000852261
-0.000112129
-0.000110121
0.000672433
0.000206414
0.000702275
0.000203961
0.000733372
0.000205253
0.000767839
0.000210941
0.000806615
0.000218363
0.000850037
0.000226082
0.000897302
0.000234606
0.000946032
0.00024419
0.000992642
0.000253995
0.00103305
0.000262837
0.00106349
0.000269747
0.00108117
0.000273952
0.00108445
0.000274808
0.00107208
0.000271382
0.0010437
0.000263014
0.00100104
0.000250559
0.000949045
0.000225958
0.000891674
0.000199678
0.000831917
0.000174689
0.00077217
0.000151012
0.000714627
0.000129317
0.000660577
0.00010998
0.000610823
9.3098e-05
0.000565957
7.85371e-05
0.00052618
6.59651e-05
0.000491478
5.5089e-05
0.000461832
4.56798e-05
0.000437465
3.74477e-05
0.00041803
3.00407e-05
0.000403296
2.33805e-05
0.000392928
1.73303e-05
0.000386566
1.17739e-05
0.00038393
6.55896e-06
0.000385249
1.14268e-06
0.000390147
-3.30274e-06
0.000398679
-7.99518e-06
0.000410812
-1.26791e-05
0.000426405
-1.7374e-05
0.000445195
-2.22196e-05
0.000466993
-2.72573e-05
0.000491595
-3.25206e-05
0.000518787
-3.80476e-05
0.000548339
-4.38705e-05
0.000579977
-5.00177e-05
0.000613355
-5.65124e-05
0.000648017
-6.3353e-05
0.000683434
-7.04795e-05
0.000719266
-7.77187e-05
0.000755107
-8.48797e-05
0.000790639
-9.17718e-05
0.000825725
-9.82123e-05
0.000860356
-0.000104127
0.000894561
-0.000109639
0.000928292
-0.000115091
0.000961264
-0.000121021
0.000992851
-0.000128055
0.00102208
-0.000136719
0.00104775
-0.000147246
0.0010687
-0.000159443
0.00108405
-0.000172641
0.00109328
-0.000185837
0.00109624
-0.000197956
0.0010931
-0.000208039
0.00108425
-0.000215402
0.00107025
-0.000219663
0.00105181
-0.000220661
0.0010298
-0.000218415
0.00100521
-0.000213108
0.00097901
-0.00020508
0.000952144
-0.000194795
0.000925416
-0.000182794
0.000899462
-0.000169662
0.000874724
-0.000155996
0.000851451
-0.000142378
0.000829703
-0.000129367
0.000809358
-0.000117475
0.000790117
-0.000107232
0.000771462
-9.89711e-05
0.000752757
-9.34233e-05
-9.01412e-05
0.000594386
0.000177665
0.00062317
0.000175177
0.000652323
0.0001761
0.000682115
0.000181149
0.000712924
0.000187553
0.000745613
0.000193393
0.000781182
0.000199038
0.000820194
0.000205177
0.000862413
0.000211777
0.000906709
0.000218541
0.000951218
0.000225237
0.000993663
0.000231507
0.00103172
0.000236756
0.00106298
0.000240113
0.0010853
0.000240694
0.00109753
0.00023833
0.00109977
0.000223716
0.0010937
0.000205756
0.00108084
0.000187548
0.00106269
0.000169159
0.00104094
0.000151069
0.00101713
0.000133788
0.000992605
0.000117623
0.000968452
0.000102689
0.00094546
8.89574e-05
0.000924208
7.63415e-05
0.00090515
6.47375e-05
0.00088861
5.39878e-05
0.000874723
4.39277e-05
0.000863627
3.44763e-05
0.000855394
2.55632e-05
0.000850062
1.71062e-05
0.000847616
9.00462e-06
0.000847437
1.32223e-06
0.000850319
-6.18489e-06
0.000855681
-1.33572e-05
0.000863396
-2.03946e-05
0.000873318
-2.72952e-05
0.000885199
-3.41015e-05
0.000898795
-4.08532e-05
0.000913848
-4.75737e-05
0.00093008
-5.42797e-05
0.000947192
-6.0982e-05
0.000964859
-6.76845e-05
0.000982727
-7.43806e-05
0.00100042
-8.10424e-05
0.00101754
-8.76061e-05
0.00103378
-9.39564e-05
0.00104886
-9.99591e-05
0.00106259
-0.000105501
0.00107488
-0.000110507
0.00108575
-0.000114991
0.00109521
-0.000119098
0.00110324
-0.000123121
0.00110968
-0.000127463
0.00111418
-0.000132554
0.0011162
-0.000138738
0.00111509
-0.000146139
0.00111023
-0.000154581
0.00110116
-0.000163577
0.00108774
-0.000172413
0.0010701
-0.00018032
0.00104868
-0.000186616
0.00102408
-0.000190804
0.000997019
-0.000192599
0.000968256
-0.000191898
0.000938576
-0.000188734
0.000908725
-0.000183257
0.000879366
-0.000175721
0.000851036
-0.000166465
0.000824127
-0.000155885
0.000798883
-0.000144418
0.000775406
-0.00013252
0.000753675
-0.000120646
0.000733558
-0.00010925
0.000714819
-9.87356e-05
0.000697124
-8.9537e-05
0.000679969
-8.18164e-05
0.000662885
-7.63398e-05
-7.1939e-05
0.000525111
0.000151816
0.000551936
0.000148352
0.000579146
0.00014889
0.000606468
0.000153828
0.000634007
0.000160014
0.000661954
0.000165446
0.000690629
0.000170363
0.000720606
0.000175199
0.000752536
0.000179847
0.000786875
0.000184201
0.000823725
0.000188388
0.000862733
0.000192498
0.000903084
0.000196405
0.000943491
0.000199707
0.000982313
0.000201872
0.00101803
0.000202612
0.00104833
0.000193423
0.00107278
0.000181302
0.00109162
0.000168709
0.00110524
0.000155541
0.00111427
0.000142032
0.00111951
0.00012855
0.00112176
0.000115372
0.0011218
0.000102654
0.0011203
9.04585e-05
0.00111785
7.87915e-05
0.00111495
6.7635e-05
0.00111199
5.69434e-05
0.00110926
4.6658e-05
0.00110699
3.67467e-05
0.00110536
2.71955e-05
0.00110448
1.79847e-05
0.00110438
9.10798e-06
0.00110498
7.215e-07
0.00110639
-7.59971e-06
0.00110844
-1.54024e-05
0.00111101
-2.29623e-05
0.001114
-3.02891e-05
0.00111729
-3.73917e-05
0.00112073
-4.42904e-05
0.00112415
-5.09989e-05
0.0011274
-5.7523e-05
0.00113028
-6.38635e-05
0.00113261
-7.00162e-05
0.0011342
-7.59687e-05
0.00113485
-8.16946e-05
0.00113439
-8.71466e-05
0.00113269
-9.22542e-05
0.00112967
-9.69406e-05
0.00112532
-0.000101151
0.00111969
-0.000104873
0.00111286
-0.000108162
0.00110493
-0.000111165
0.00109593
-0.000114123
0.0010858
-0.00011734
0.00107437
-0.000121125
0.00106135
-0.000125711
0.00104638
-0.000131171
0.00102917
-0.000137368
0.00100954
-0.00014395
0.000987533
-0.000150407
0.000963391
-0.000156178
0.000937524
-0.000160749
0.000910442
-0.000163721
0.000882687
-0.000164845
0.000854788
-0.000164
0.000827229
-0.000161174
0.00080042
-0.000156448
0.000774683
-0.000149985
0.000750241
-0.000142023
0.00072722
-0.000132864
0.00070566
-0.000122859
0.000685532
-0.000112391
0.000666746
-0.000101861
0.000649165
-9.16684e-05
0.000632591
-8.21615e-05
0.000616769
-7.37154e-05
0.000601306
-6.63531e-05
0.000585873
-6.09066e-05
-5.54617e-05
0.00046394
0.000128551
0.000488639
0.000123652
0.00051348
0.000124049
0.000538159
0.000129149
0.000563123
0.000135051
0.000588446
0.000140123
0.000613971
0.000144838
0.000639764
0.000149406
0.000666084
0.000153527
0.000693247
0.000157039
0.000721612
0.000160022
0.000751522
0.000162588
0.000783173
0.000164754
0.000816478
0.000166403
0.000851003
0.000167347
0.000886115
0.000167499
0.000919684
0.000159854
0.000950826
0.00015016
0.000979169
0.000140366
0.00100445
0.000130261
0.00102659
0.000119892
0.00104569
0.000109444
0.00106198
9.90819e-05
0.00107574
8.88982e-05
0.00108726
7.89347e-05
0.00109685
6.92038e-05
0.00110478
5.97057e-05
0.00111129
5.04297e-05
0.00111659
4.13585e-05
0.00112085
3.249e-05
0.00112421
2.38396e-05
0.00112677
1.54259e-05
0.0011286
7.2729e-06
0.00112979
-4.66678e-07
0.00113027
-8.08336e-06
0.00113012
-1.52509e-05
0.00112931
-2.21501e-05
0.00112782
-2.87997e-05
0.00112563
-3.52017e-05
0.0011227
-4.13637e-05
0.001119
-4.72928e-05
0.00111447
-5.29919e-05
0.00110906
-5.84601e-05
0.00110274
-6.36931e-05
0.00109545
-6.86811e-05
0.00108716
-7.34058e-05
0.00107785
-7.78372e-05
0.00106753
-8.1935e-05
0.00105625
-8.56589e-05
0.00104409
-8.89881e-05
0.00103115
-9.19377e-05
0.00101757
-9.45743e-05
0.00100343
-9.70282e-05
0.000988798
-9.94914e-05
0.000973653
-0.000102195
0.000957892
-0.000105365
0.000941346
-0.000109165
0.000923821
-0.000113645
0.000905151
-0.000118698
0.000885262
-0.00012406
0.000864202
-0.000129348
0.000842146
-0.000134122
0.000819363
-0.000137965
0.000796171
-0.000140529
0.000772895
-0.000141569
0.000749833
-0.000140938
0.000727239
-0.00013858
0.000705313
-0.000134522
0.000684198
-0.000128869
0.000663981
-0.000121806
0.000644704
-0.000113587
0.000626371
-0.000104526
0.000608959
-9.49798e-05
0.000592424
-8.53258e-05
0.000576696
-7.594e-05
0.00056167
-6.71358e-05
0.000547188
-5.92333e-05
0.000532984
-5.21498e-05
0.000518776
-4.66983e-05
-4.04033e-05
0.000410014
0.000107501
0.000432754
0.000100912
0.000455183
0.00010162
0.000477152
0.000107179
0.000499455
0.000112748
0.000522203
0.000117375
0.000545203
0.000121837
0.000568441
0.000126168
0.00059194
0.000130028
0.000615687
0.000133292
0.000639723
0.000135986
0.000664191
0.000138121
0.000689283
0.000139662
0.000715155
0.000140531
0.000741867
0.000140635
0.00076939
0.000139976
0.000796436
0.000132808
0.000822522
0.000124073
0.000847427
0.000115462
0.000870883
0.000106805
0.000892676
9.80989e-05
0.00091268
8.94404e-05
0.000930845
8.0917e-05
0.000947174
7.25688e-05
0.000961707
6.44021e-05
0.000974502
5.64084e-05
0.000985632
4.85759e-05
0.000995171
4.08909e-05
0.00100319
3.3341e-05
0.00100975
2.59271e-05
0.00101492
1.86662e-05
0.00101877
1.15832e-05
0.00102133
4.71024e-06
0.00102275
-1.88604e-06
0.00102297
-8.30753e-06
0.00102216
-1.44344e-05
0.00102032
-2.03113e-05
0.00101749
-2.59674e-05
0.00101369
-3.14075e-05
0.00100896
-3.6634e-05
0.00100332
-4.16507e-05
0.000996788
-4.646e-05
0.000989389
-5.10616e-05
0.000981148
-5.54518e-05
0.00097209
-5.96232e-05
0.000962247
-6.35624e-05
0.000951659
-6.72495e-05
0.000940383
-7.06594e-05
0.000928495
-7.377e-05
0.000916082
-7.65756e-05
0.000903244
-7.90993e-05
0.000890073
-8.14041e-05
0.000876645
-8.35995e-05
0.000862992
-8.58384e-05
0.000849096
-8.8299e-05
0.000834884
-9.11522e-05
0.000820239
-9.45204e-05
0.000805029
-9.84355e-05
0.000789142
-0.000102811
0.000772521
-0.000107439
0.000755183
-0.00011201
0.000737223
-0.000116162
0.000718793
-0.000119535
0.000700076
-0.000121812
0.000681257
-0.00012275
0.000662503
-0.000122184
0.000643954
-0.000120032
0.000625722
-0.00011629
0.000607889
-0.000111036
0.000590517
-0.000104434
0.00057365
-9.67198e-05
0.000557324
-8.81995e-05
0.000541567
-7.92232e-05
0.000526401
-7.01597e-05
0.00051183
-6.13689e-05
0.000497832
-5.31378e-05
0.000484322
-4.57232e-05
0.000471147
-3.89748e-05
0.000457989
-3.35405e-05
-2.67131e-05
0.000362528
8.82933e-05
0.000383496
7.99439e-05
0.000403597
8.15195e-05
0.000423064
8.77121e-05
0.00044288
9.29316e-05
0.000463078
9.71775e-05
0.000483524
0.000101391
0.000504297
0.000105395
0.00052542
0.000108905
0.000546806
0.000111906
0.000568368
0.000114425
0.00059006
0.000116429
0.000611867
0.000117855
0.000633786
0.000118611
0.000655816
0.000118605
0.000677973
0.000117819
0.000699348
0.000111432
0.00071975
0.000103671
0.000739188
9.60238e-05
0.0007576
8.83939e-05
0.000774906
8.07927e-05
0.000791045
7.33007e-05
0.000805976
6.59866e-05
0.000819668
5.88767e-05
0.000832103
5.19667e-05
0.000843272
4.52396e-05
0.000853172
3.8676e-05
0.000861806
3.22568e-05
0.000869181
2.59665e-05
0.000875307
1.98003e-05
0.000880205
1.37683e-05
0.000883901
7.88738e-06
0.000886439
2.17232e-06
0.000887892
-3.33881e-06
0.000888281
-8.69675e-06
0.000887696
-1.38492e-05
0.000886178
-1.87934e-05
0.000883763
-2.35522e-05
0.00088049
-2.81342e-05
0.000876397
-3.25409e-05
0.00087152
-3.67744e-05
0.000865896
-4.08362e-05
0.00085956
-4.47254e-05
0.000852547
-4.84381e-05
0.000844891
-5.19672e-05
0.000836629
-5.53012e-05
0.000827804
-5.84244e-05
0.000818464
-6.13194e-05
0.000808667
-6.39726e-05
0.000798476
-6.63847e-05
0.000787957
-6.85805e-05
0.00077717
-7.0617e-05
0.000766158
-7.25871e-05
0.000754935
-7.46162e-05
0.000743484
-7.68475e-05
0.000731748
-7.94162e-05
0.000719645
-8.24171e-05
0.000707081
-8.58717e-05
0.000693975
-8.97056e-05
0.000680279
-9.3743e-05
0.000665991
-9.7722e-05
0.000651157
-0.000101329
0.000635862
-0.00010424
0.000620209
-0.000106159
0.000604306
-0.000106847
0.000588253
-0.000106132
0.000572142
-0.000103921
0.000556055
-0.000100202
0.000540069
-9.50507e-05
0.000524263
-8.86272e-05
0.000508717
-8.11739e-05
0.000493516
-7.29988e-05
0.000478745
-6.44524e-05
0.000464482
-5.58966e-05
0.000450784
-4.76712e-05
0.000437684
-4.00376e-05
0.000425138
-3.3177e-05
0.000413078
-2.69145e-05
0.00040111
-2.15727e-05
-1.45897e-05
0.000320758
7.05686e-05
0.000340087
6.06149e-05
0.000357962
6.36442e-05
0.000375206
7.04682e-05
0.000392819
7.5318e-05
0.00041069
7.93071e-05
0.000428757
8.33238e-05
0.000447162
8.69901e-05
0.000465939
9.01274e-05
0.000485024
9.28216e-05
0.000504348
9.51007e-05
0.000523847
9.69287e-05
0.000543448
9.82544e-05
0.000563058
9.90011e-05
0.000582583
9.90804e-05
0.000601946
9.84561e-05
0.000620301
9.30769e-05
0.000637492
8.64805e-05
0.000653583
7.9933e-05
0.0006686
7.33772e-05
0.000682556
6.68363e-05
0.000695469
6.03876e-05
0.000707358
5.40979e-05
0.000718239
4.79959e-05
0.000728124
4.20812e-05
0.000737024
3.63402e-05
0.000744944
3.07555e-05
0.000751891
2.53099e-05
0.00075787
1.99875e-05
0.000762888
1.47823e-05
0.000766956
9.70004e-06
0.000770091
4.75288e-06
0.000772327
-6.35876e-08
0.000773698
-4.70995e-06
0.000774228
-9.22693e-06
0.00077396
-1.35809e-05
0.00077293
-1.77635e-05
0.000771166
-2.1789e-05
0.000768699
-2.56671e-05
0.000765558
-2.93998e-05
0.000761772
-3.29878e-05
0.000757367
-3.64315e-05
0.000752371
-3.97294e-05
0.00074681
-4.28771e-05
0.00074071
-4.58672e-05
0.000734098
-4.86895e-05
0.000727005
-5.13308e-05
0.000719463
-5.37781e-05
0.000711514
-5.60229e-05
0.000703199
-5.80694e-05
0.000694561
-5.99426e-05
0.000685638
-6.16943e-05
0.000676456
-6.34055e-05
0.000667023
-6.51826e-05
0.00065732
-6.71449e-05
0.000647307
-6.94032e-05
0.000636923
-7.20326e-05
0.000626097
-7.50462e-05
0.000614767
-7.83749e-05
0.000602885
-8.18616e-05
0.000590436
-8.5273e-05
0.000577433
-8.83254e-05
0.000563914
-9.07207e-05
0.000549936
-9.21812e-05
0.000535566
-9.24767e-05
0.000520878
-9.1444e-05
0.000505955
-8.89976e-05
0.00049089
-8.5137e-05
0.000475789
-7.99504e-05
0.000460775
-7.36128e-05
0.000445978
-6.63767e-05
0.000431532
-5.85529e-05
0.000417565
-5.04852e-05
0.000404186
-4.25184e-05
0.000391476
-3.49607e-05
0.000379483
-2.80449e-05
0.000368174
-2.18677e-05
0.000357536
-1.62762e-05
0.000347093
-1.11306e-05
-4.35857e-06
0.000284047
5.3995e-05
0.000301804
4.28576e-05
0.000317587
4.78613e-05
0.000332893
5.51622e-05
0.000348559
5.96519e-05
0.000364356
6.35102e-05
0.000380321
6.7359e-05
0.000396611
7.06996e-05
0.000413237
7.35017e-05
0.000430147
7.59116e-05
0.000447303
7.79446e-05
0.000464665
7.95667e-05
0.000482172
8.0747e-05
0.000499742
8.14314e-05
0.000517273
8.15497e-05
0.000534663
8.10661e-05
0.000551105
7.66343e-05
0.000566421
7.11643e-05
0.000580651
6.57032e-05
0.000593819
6.02091e-05
0.00060595
5.47051e-05
0.000617077
4.92606e-05
0.000627238
4.39375e-05
0.000636468
3.87654e-05
0.000644802
3.37478e-05
0.000652266
2.88754e-05
0.000658886
2.41358e-05
0.00066468
1.95154e-05
0.000669667
1.50008e-05
0.000673862
1.05873e-05
0.000677281
6.28092e-06
0.000679945
2.08895e-06
0.000681869
-1.98718e-06
0.000683084
-5.92484e-06
0.0006836
-9.74351e-06
0.000683448
-1.34282e-05
0.000682654
-1.69703e-05
0.000681244
-2.03781e-05
0.000679237
-2.36605e-05
0.000676657
-2.68199e-05
0.000673526
-2.98564e-05
0.000669863
-3.27694e-05
0.000665691
-3.55565e-05
0.000661026
-3.82129e-05
0.00065589
-4.07312e-05
0.000650302
-4.31014e-05
0.000644284
-4.53122e-05
0.000637858
-4.73524e-05
0.000631052
-4.92165e-05
0.000623892
-5.09101e-05
0.000616407
-5.2457e-05
0.000608617
-5.39045e-05
0.000600535
-5.53242e-05
0.000592161
-5.68084e-05
0.000583475
-5.84588e-05
0.00057444
-6.03679e-05
0.000565003
-6.25958e-05
0.000555104
-6.51472e-05
0.000544683
-6.79542e-05
0.000533692
-7.08709e-05
0.000522102
-7.36829e-05
0.000509907
-7.61303e-05
0.000497126
-7.79391e-05
0.0004838
-7.88549e-05
0.000469993
-7.86702e-05
0.000455794
-7.72445e-05
0.000441312
-7.45163e-05
0.000426685
-7.05093e-05
0.000412066
-6.53321e-05
0.000397627
-5.91736e-05
0.000383539
-5.22885e-05
0.000369964
-4.49782e-05
0.000357042
-3.75635e-05
0.000344881
-3.0357e-05
0.000333544
-2.36242e-05
0.000323067
-1.7567e-05
0.000313395
-1.21963e-05
0.000304553
-7.43408e-06
0.000296009
-2.58595e-06
3.69713e-06
0.000251798
3.82832e-05
0.000267991
2.66646e-05
0.000281861
3.39916e-05
0.000295501
4.15221e-05
0.000309433
4.57202e-05
0.00032339
4.95526e-05
0.000337519
5.32304e-05
0.00035196
5.62586e-05
0.000366692
5.87697e-05
0.00038167
6.09334e-05
0.000396869
6.27462e-05
0.000412257
6.41788e-05
0.000427788
6.52159e-05
0.000443399
6.58199e-05
0.000459012
6.59367e-05
0.00047454
6.55378e-05
0.000489255
6.192e-05
0.000502979
5.74396e-05
0.000515737
5.29456e-05
0.000527541
4.84054e-05
0.000538406
4.38403e-05
0.000548356
3.93106e-05
0.000557421
3.48717e-05
0.000565636
3.05513e-05
0.00057303
2.63536e-05
0.000579633
2.22721e-05
0.000585472
1.82973e-05
0.000590568
1.44189e-05
0.000594945
1.06244e-05
0.00059862
6.91189e-06
0.000601612
3.2885e-06
0.000603941
-2.39606e-07
0.000605623
-3.66895e-06
0.000606683
-6.98527e-06
0.000607136
-1.01964e-05
0.000607004
-1.32962e-05
0.000606311
-1.62772e-05
0.000605077
-1.9144e-05
0.00060332
-2.19037e-05
0.000601059
-2.45585e-05
0.00059831
-2.71075e-05
0.000595089
-2.95488e-05
0.000591411
-3.18787e-05
0.00058729
-3.40912e-05
0.000582737
-3.61781e-05
0.000577764
-3.81289e-05
0.000572384
-3.99323e-05
0.00056661
-4.15782e-05
0.000560455
-4.30619e-05
0.000553935
-4.43894e-05
0.000547061
-4.55835e-05
0.000539844
-4.66876e-05
0.000532286
-4.77662e-05
0.000524379
-4.89012e-05
0.000516101
-5.0181e-05
0.000507417
-5.16841e-05
0.00049828
-5.34586e-05
0.000488635
-5.55023e-05
0.000478429
-5.77477e-05
0.000467617
-6.00586e-05
0.000456172
-6.22386e-05
0.000444095
-6.40526e-05
0.000431412
-6.52564e-05
0.000418184
-6.56274e-05
0.000404506
-6.49914e-05
0.000390501
-6.32402e-05
0.000376327
-6.03424e-05
0.000362163
-5.63452e-05
0.000348203
-5.13717e-05
0.000334641
-4.56119e-05
0.00032166
-3.93076e-05
0.000309415
-3.27332e-05
0.000298024
-2.61718e-05
0.00028756
-1.98929e-05
0.000278048
-1.41128e-05
0.000269489
-9.00753e-06
0.000261797
-4.50468e-06
0.000255022
-6.5895e-07
0.000248625
3.8113e-06
9.47125e-06
0.000223468
2.31975e-05
0.000238065
1.20681e-05
0.000250245
2.18106e-05
0.00026246
2.93078e-05
0.000274839
3.33409e-05
0.000287177
3.72148e-05
0.000299707
4.07006e-05
0.000312531
4.34345e-05
0.000325606
4.5694e-05
0.000338897
4.7643e-05
0.000352381
4.92619e-05
0.00036603
5.05297e-05
0.000379803
5.14432e-05
0.000393647
5.19759e-05
0.000407498
5.20851e-05
0.000421287
5.17494e-05
0.000434366
4.88404e-05
0.00044658
4.52263e-05
0.000457946
4.15794e-05
0.000468476
3.78756e-05
0.00047818
3.41354e-05
0.000487078
3.04133e-05
0.00049519
2.67592e-05
0.000502543
2.31986e-05
0.000509161
1.97359e-05
0.000515067
1.63654e-05
0.000520285
1.308e-05
0.000524832
9.87139e-06
0.00052873
6.72652e-06
0.000531995
3.64673e-06
0.000534645
6.38497e-07
0.000536699
-2.29391e-06
0.000538175
-5.14463e-06
0.000539092
-7.90247e-06
0.000539465
-1.05692e-05
0.000539311
-1.31416e-05
0.000538646
-1.56131e-05
0.000537488
-1.79853e-05
0.000535847
-2.0263e-05
0.000533736
-2.24475e-05
0.000531165
-2.45365e-05
0.000528143
-2.65262e-05
0.000524675
-2.84114e-05
0.000520769
-3.01849e-05
0.000516428
-3.18374e-05
0.000511658
-3.33583e-05
0.000506462
-3.47368e-05
0.000500848
-3.59639e-05
0.000494822
-3.70365e-05
0.000488395
-3.79621e-05
0.000481575
-3.87634e-05
0.000474369
-3.94817e-05
0.000466779
-4.01767e-05
0.0004588
-4.09221e-05
0.000450415
-4.17961e-05
0.000441597
-4.28656e-05
0.000432307
-4.4169e-05
0.000422504
-4.56989e-05
0.000412146
-4.73903e-05
0.000401206
-4.91181e-05
0.000389674
-5.07067e-05
0.000377571
-5.19498e-05
0.000364952
-5.26376e-05
0.000351909
-5.25844e-05
0.00033857
-5.16518e-05
0.000325093
-4.97638e-05
0.000311665
-4.69136e-05
0.000298482
-4.31627e-05
0.000285746
-3.86356e-05
0.000273643
-3.35087e-05
0.000262332
-2.7997e-05
0.000251935
-2.23364e-05
0.000242528
-1.67646e-05
0.00023414
-1.15048e-05
0.000226752
-6.72507e-06
0.00022033
-2.5852e-06
0.000214758
1.06788e-06
0.000210097
4.00144e-06
0.000205886
8.02254e-06
1.30468e-05
0.00019856
8.56665e-06
0.000211521
-8.92847e-07
0.000222268
1.10641e-05