/*--------------------------------*- C++ -*----------------------------------*\
| =========                 |                                                 |
| \\      /  F ield         | OpenFOAM: The Open Source CFD Toolbox           |
|  \\    /   O peration     | Version:  v1912                                 |
|   \\  /    A nd           | Website:  www.openfoam.com                      |
|    \\/     M anipulation  |                                                 |
\*---------------------------------------------------------------------------*/
FoamFile
{
    version     2.0;
    format      ascii;
    class       volVectorField;
    location    "525";
    object      U;
}
// * * * * * * * * * * * * * * * * * * * * * * * * * * * * * * * * * * * * * //

dimensions      [0 1 -1 0 0 0 0];


internalField   nonuniform List<vector> 
2000
(
(0.84616 0.187394 0)
(0.515133 0.124089 0)
(0.223448 0.0684416 0)
(0.0598065 0.0174442 6.19518e-20)
(-0.00455602 -0.0232224 1.20679e-17)
(-0.064205 -0.0384841 1.0423e-17)
(-0.0776036 -0.0372462 0)
(-0.0715974 -0.0166663 0)
(-0.0590613 0.011692 0)
(-0.0421512 0.025436 2.36687e-17)
(-0.0415754 0.010935 -1.45007e-17)
(-0.0273505 -0.000676763 -1.36189e-17)
(-0.0162402 -0.0027007 0)
(-0.0199521 -0.0026375 0)
(-0.0217889 -0.00221244 -1.08201e-17)
(-0.016753 0.000931881 0)
(-0.0104933 0.00360033 9.7399e-18)
(-0.00965356 0.00629123 3.1555e-21)
(-0.0106905 0.00615237 9.41421e-18)
(-0.0114587 0.00491178 -4.64655e-18)
(-0.0113311 0.00281779 9.18657e-18)
(-0.0101669 0.000852343 0)
(-0.00807754 -0.000139031 0)
(-0.00561973 -0.000566728 -5.10561e-23)
(-0.00338001 -0.000739805 0)
(-0.00158833 -0.00077415 -4.51578e-18)
(-0.000374561 -0.000739629 0)
(0.000334156 -0.000701396 4.52824e-18)
(0.000757442 -0.000719257 0)
(0.00108688 -0.000741318 0)
(0.00140159 -0.000669628 0)
(0.00171648 -0.000557063 1.1498e-18)
(0.00201505 -0.000465349 0)
(0.00228621 -0.000423386 -5.83541e-19)
(0.00251308 -0.000414276 1.94748e-14)
(0.00267294 -0.000417391 1.94608e-14)
(0.00275646 -0.000433885 6.01774e-19)
(0.00270909 -0.000503066 -6.09274e-19)
(0.00252417 -0.000624291 0)
(0.0022043 -0.000771553 2.50614e-18)
(0.00173424 -0.000919858 0)
(0.00108238 -0.00105157 -2.58852e-18)
(0.000207551 -0.00115064 0)
(-0.000946457 -0.00120133 -5.35665e-18)
(-0.00242759 -0.00122546 2.72155e-18)
(-0.00427315 -0.00131047 0)
(-0.00656688 -0.00150236 0)
(-0.00946384 -0.00171233 -2.85632e-18)
(-0.0132831 -0.00163312 0)
(-0.0186356 -0.000675554 2.93472e-18)
(-0.0264976 0.00185801 0)
(-0.038153 0.00626557 5.91891e-18)
(-0.0549931 0.0120137 -5.86949e-18)
(-0.078173 0.0177102 5.7491e-18)
(-0.108052 0.0214468 -2.74669e-18)
(-0.143727 0.0213701 0)
(-0.183104 0.0162858 2.33533e-18)
(-0.223275 0.00604664 -2.07815e-18)
(-0.260511 -0.00832201 -4.08568e-18)
(-0.289978 -0.024618 3.30613e-18)
(-0.306793 -0.0396308 -3.2568e-18)
(-0.309399 -0.0501573 3.47923e-18)
(-0.303088 -0.0562187 -3.9663e-18)
(-0.288166 -0.0591566 4.76957e-18)
(-0.265711 -0.0600096 -1.2443e-20)
(-0.236571 -0.0595111 7.15495e-18)
(-0.201162 -0.0578655 0)
(-0.159664 -0.0550608 0)
(-0.112347 -0.0510857 7.62163e-20)
(-0.0599635 -0.0459802 0)
(-0.00378826 -0.0396792 1.99021e-17)
(0.0559829 -0.0318457 0)
(0.119604 -0.0223363 1.98879e-17)
(0.186592 -0.0113132 -4.8817e-19)
(0.256199 0.000978427 1.71686e-17)
(0.329735 0.0142355 2.98677e-17)
(0.40371 0.028083 7.34396e-19)
(0.491309 0.0420656 -1.01485e-17)
(0.5572 0.0545342 -6.53052e-18)
(0.713678 0.0652517 0)
(1.0153 0.210384 0)
(0.944633 0.194211 0)
(0.804474 0.179983 -3.52875e-18)
(0.654422 0.152313 7.28789e-18)
(0.509223 0.111169 0)
(0.36004 0.0683713 -7.28868e-18)
(0.216492 0.0293267 0)
(0.0821341 -0.00530668 0)
(-0.0282858 -0.0180341 0)
(-0.0562125 -0.0189 -1.73086e-17)
(-0.066754 -0.024983 1.57458e-17)
(-0.0719316 -0.0160054 1.4442e-17)
(-0.0638391 0.006337 0)
(-0.0509393 0.0206423 6.32258e-18)
(-0.0545612 0.00990844 0)
(-0.0482911 -0.00297099 0)
(-0.037497 -0.00401533 0)
(-0.0326665 -0.00107477 5.27111e-18)
(-0.0364224 0.000879738 -1.03395e-17)
(-0.038584 0.000874815 -5.09319e-18)
(-0.0392655 7.42725e-05 0)
(-0.0381602 -0.00107808 0)
(-0.0354355 -0.00226912 0)
(-0.0321935 -0.00285192 -7.41744e-18)
(-0.029051 -0.00266896 0)
(-0.0262686 -0.00189669 4.95349e-18)
(-0.0240856 -0.000859333 2.48405e-18)
(-0.0226649 5.34857e-07 0)
(-0.0220743 0.000355356 0)
(-0.022173 0.000377981 0)
(-0.0227789 0.000195846 0)
(-0.0236616 1.28797e-06 -6.32842e-19)
(-0.024647 -0.000158477 0)
(-0.0256756 -0.000251547 3.20315e-19)
(-0.0267711 -0.00023962 1.61375e-19)
(-0.0280036 -0.000104309 0)
(-0.0294184 0.000137822 0)
(-0.0310394 0.000454097 6.62925e-19)
(-0.0329331 0.000823769 0)
(-0.0351242 0.00124313 -1.35273e-18)
(-0.03763 0.00171787 0)
(-0.0404562 0.00225802 -1.38232e-18)
(-0.0436074 0.00286894 0)
(-0.0470836 0.00354114 1.41325e-18)
(-0.0508703 0.00426118 1.43017e-18)
(-0.0549349 0.00506743 0)
(-0.0592481 0.00614406 0)
(-0.0638056 0.00786727 -2.97075e-18)
(-0.0685985 0.0107553 0)
(-0.0735929 0.0154074 1.408e-20)
(-0.0788139 0.0223567 0)
(-0.0844654 0.0317455 0)
(-0.0909098 0.0428843 0)
(-0.0984762 0.054122 0)
(-0.106915 0.0631085 6.04178e-18)
(-0.114706 0.0673858 0)
(-0.119426 0.0649831 -5.49571e-18)
(-0.119135 0.0550081 2.65771e-18)
(-0.112373 0.0384144 -2.3134e-18)
(-0.0952654 0.0179852 -4.88093e-18)
(-0.0635866 -0.00450089 5.02199e-18)
(-0.0454702 -0.0304521 -5.53367e-18)
(-0.0203366 -0.0511487 6.47284e-18)
(0.00752399 -0.0658938 0)
(0.0384251 -0.0762862 -1.29118e-17)
(0.0728685 -0.0837848 -9.64035e-18)
(0.111626 -0.0890988 0)
(0.154885 -0.0922161 5.7321e-18)
(0.202272 -0.0928336 1.2552e-17)
(0.253195 -0.0907386 0)
(0.306988 -0.0858403 0)
(0.363062 -0.0781238 0)
(0.420942 -0.067735 0)
(0.480364 -0.0550181 -1.36219e-17)
(0.541078 -0.0405169 5.93771e-18)
(0.603942 -0.0248997 -1.1772e-17)
(0.667378 -0.00910533 1.01628e-17)
(0.73917 0.00582974 -3.46843e-18)
(0.796089 0.0174696 0)
(0.911753 0.0229815 0)
(0.978489 0.201538 0)
(0.978854 0.193006 -2.78552e-18)
(0.969154 0.205111 3.48122e-18)
(0.939083 0.208532 -3.06024e-18)
(0.878033 0.194607 2.88484e-18)
(0.785605 0.16872 2.84288e-18)
(0.669348 0.138081 0)
(0.541011 0.106021 0)
(0.408218 0.075064 0)
(0.285938 0.0459374 6.8659e-18)
(0.173876 0.0180271 0)
(0.0721844 -0.00639633 0)
(-0.0214873 -0.0141395 0)
(-0.0470035 -0.00388507 -7.18318e-18)
(-0.050956 -0.0117173 0)
(-0.0588568 -0.0182027 -6.04893e-18)
(-0.0594692 -0.0113107 0)
(-0.0482643 0.00897046 5.87436e-18)
(-0.0464867 0.0164266 2.87256e-18)
(-0.0508871 0.0125614 0)
(-0.0531833 0.00615699 -2.79001e-18)
(-0.0549163 -0.000246296 0)
(-0.0554712 -0.00462294 0)
(-0.0545195 -0.00644439 5.4379e-18)
(-0.0529329 -0.00652467 0)
(-0.0517422 -0.00565995 1.35873e-18)
(-0.0515609 -0.00416959 -4.07883e-18)
(-0.0523938 -0.00218797 0)
(-0.0537897 -0.000188318 0)
(-0.0553022 0.00126084 -6.81654e-19)
(-0.0569356 0.00219406 0)
(-0.0586696 0.00269997 1.02601e-22)
(-0.0604243 0.00292372 0)
(-0.0621552 0.00303121 6.90915e-19)
(-0.0638703 0.00318729 8.69168e-20)
(-0.0656459 0.00345234 0)
(-0.0675461 0.00381752 1.76428e-19)
(-0.0695916 0.00424137 -3.55786e-19)
(-0.0717684 0.00471279 -3.58959e-19)
(-0.0740475 0.00523113 -7.24777e-19)
(-0.0763937 0.00579839 7.32185e-19)
(-0.0787696 0.00641796 7.39556e-19)
(-0.0811413 0.00708522 0)
(-0.0834631 0.00777334 1.51598e-18)
(-0.0856206 0.00844882 -3.07415e-18)
(-0.0873524 0.00913223 0)
(-0.0882398 0.0100051 -1.59026e-18)
(-0.0878073 0.0114653 3.2449e-18)
(-0.0855252 0.0139927 0)
(-0.0807419 0.0181732 -1.69877e-18)
(-0.0727583 0.0245094 1.78305e-18)
(-0.0610732 0.0332741 -1.85074e-18)
(-0.0453289 0.0435797 -1.92016e-18)
(-0.0254968 0.0538878 0)
(-0.00179643 0.0619691 -3.95059e-18)
(0.0258119 0.0652807 -1.88994e-18)
(0.0572366 0.0615232 1.63896e-18)
(0.0906754 0.049834 1.53409e-18)
(0.124591 0.0292467 2.57181e-18)
(0.15635 0.00250602 0)
(0.186446 -0.0238822 0)
(0.214094 -0.0459136 0)
(0.242237 -0.0642519 -1.30985e-18)
(0.273849 -0.0800283 0)
(0.309877 -0.0937846 3.2128e-18)
(0.349763 -0.105472 0)
(0.392561 -0.114725 -1.98466e-18)
(0.437384 -0.121064 -4.45923e-18)
(0.48343 -0.124062 0)
(0.530025 -0.123477 -2.47432e-18)
(0.576684 -0.119313 2.57916e-18)
(0.623147 -0.111843 0)
(0.669364 -0.101593 0)
(0.715523 -0.0892666 0)
(0.761868 -0.0757051 -5.41233e-18)
(0.809276 -0.0618317 0)
(0.857044 -0.0488318 -1.8859e-18)
(0.910117 -0.0378104 3.37033e-18)
(0.952995 -0.0311412 0)
(1.03532 -0.0302015 3.93393e-19)
(0.970611 0.209117 0)
(0.963917 0.194766 1.52496e-18)
(0.96643 0.198514 0)
(0.977152 0.206408 1.69425e-18)
(0.982035 0.208885 -3.00372e-18)
(0.968293 0.204267 -1.3408e-18)
(0.930748 0.193727 0)
(0.870756 0.177879 0)
(0.791128 0.156582 0)
(0.695409 0.131332 1.35076e-18)
(0.589478 0.105411 1.38251e-18)
(0.48005 0.0807016 0)
(0.369263 0.0580012 0)
(0.266644 0.0376114 0)
(0.179633 0.0185432 0)
(0.100362 0.0026738 6.39939e-18)
(0.0299564 -0.00993649 -3.38633e-18)
(-0.0311477 -0.0094087 0)
(-0.0330807 0.000926299 -3.28162e-18)
(-0.0349685 0.00238713 1.61777e-18)
(-0.0349414 0.0012866 3.20973e-18)
(-0.0361941 -0.00135824 0)
(-0.0393628 -0.00402117 0)
(-0.0436613 -0.00526325 -3.11922e-18)
(-0.047272 -0.00436154 0)
(-0.0494641 -0.00163088 -1.54382e-18)
(-0.0510635 0.0018018 1.54355e-18)
(-0.0535529 0.00433748 0)
(-0.0556966 0.00549449 0)
(-0.0579639 0.00602701 7.66902e-19)
(-0.0599327 0.00607386 0)
(-0.061583 0.00577901 -7.69939e-19)
(-0.0628612 0.00530909 0)
(-0.0637488 0.00484382 -1.94791e-19)
(-0.0643707 0.00462091 -9.81354e-20)
(-0.0648148 0.00472776 -2.47609e-20)
(-0.0651099 0.00512743 -3.00032e-19)
(-0.0651626 0.00574026 4.04384e-19)
(-0.0648886 0.00645588 4.09382e-19)
(-0.0642174 0.00720708 1.24534e-18)
(-0.0630688 0.00796503 -4.21156e-19)
(-0.0613583 0.00870947 4.28381e-19)
(-0.0590241 0.009406 0)
(-0.0560082 0.00997688 8.91505e-19)
(-0.0521943 0.0102447 9.13063e-19)
(-0.0472703 0.00990919 0)
(-0.0407597 0.00859993 1.93478e-18)
(-0.0327673 0.00627556 9.99234e-19)
(-0.0225606 0.00368498 0)
(-0.00993064 0.00143641 -3.26428e-18)
(0.0065833 0.000108201 -2.23489e-18)
(0.0280172 0.000313482 1.10884e-18)
(0.054267 0.00188455 2.17285e-18)
(0.0859398 0.00394312 0)
(0.123059 0.00495116 9.84276e-19)
(0.164775 0.00309259 2.69069e-18)
(0.209796 -0.00321393 1.59066e-18)
(0.256037 -0.0145016 -1.39367e-18)
(0.302934 -0.0296529 -6.43904e-19)
(0.348808 -0.0470436 0)
(0.393147 -0.0658829 0)
(0.435944 -0.0848766 0)
(0.478062 -0.102949 1.7105e-18)
(0.520302 -0.119459 6.4484e-19)
(0.562595 -0.133913 0)
(0.604271 -0.145752 -1.56294e-18)
(0.644612 -0.154401 1.73875e-18)
(0.683116 -0.159411 -1.87333e-18)
(0.719531 -0.160563 -2.02165e-18)
(0.753845 -0.1579 1.27182e-19)
(0.786278 -0.151733 -2.42122e-18)
(0.81725 -0.142595 0)
(0.847322 -0.131187 0)
(0.87717 -0.118304 0)
(0.907403 -0.104811 0)
(0.938933 -0.09159 0)
(0.971424 -0.0796918 3.67916e-18)
(1.00821 -0.0699599 -1.34633e-18)
(1.03844 -0.0643165 0)
(1.09567 -0.062588 -4.24158e-19)
(0.972988 0.216082 0)
(0.965831 0.201809 1.8707e-18)
(0.959206 0.195601 2.49223e-19)
(0.961489 0.195547 1.90716e-18)
(0.972668 0.197537 0)
(0.98552 0.199236 -1.6074e-18)
(0.992497 0.199297 0)
(0.988452 0.196255 -3.62519e-19)
(0.970218 0.189035 0)
(0.935631 0.177565 -1.60569e-18)
(0.88473 0.162751 -1.24288e-18)
(0.819617 0.145669 -3.15412e-19)
(0.743323 0.126731 3.13096e-19)
(0.65809 0.106112 0)
(0.56916 0.0852837 3.13147e-19)
(0.479344 0.0662433 0)
(0.393486 0.0502676 2.65409e-18)
(0.314092 0.0363414 -3.51294e-19)
(0.247049 0.0242755 0)
(0.192342 0.014722 -1.89957e-18)
(0.147686 0.00791365 0)
(0.110581 0.00339448 0)
(0.0797254 0.000804914 0)
(0.0538067 -0.000642131 0)
(0.0322614 -0.00162115 -2.21756e-19)
(0.0154708 -0.00207199 0)
(0.00258172 -0.00141515 0)
(-0.00277869 0.000705374 1.15591e-19)
(-0.00527469 0.00213647 0)
(-0.00527127 0.00313104 0)
(-0.00391681 0.00368344 0)
(-0.00164833 0.00391865 -5.87327e-20)
(0.000951988 0.00396224 0)
(0.00442443 0.00373768 -2.67942e-19)
(0.00745839 0.00421294 0)
(0.0111358 0.00506515 3.01247e-20)
(0.0155556 0.00562195 1.514e-19)
(0.0208908 0.0056379 3.0405e-20)
(0.0273109 0.00534403 -6.10156e-20)
(0.0348983 0.0048601 -4.89326e-19)
(0.0438194 0.00417665 -4.89839e-19)
(0.054295 0.00325666 4.89588e-19)
(0.0665266 0.00206565 -1.22079e-19)
(0.0807079 0.000564303 -9.72408e-19)
(0.097039 -0.00130832 9.65903e-19)
(0.115509 -0.0036137 -1.19721e-19)
(0.13633 -0.00643702 0)
(0.158948 -0.00983304 -9.38945e-19)
(0.183545 -0.0137377 0)
(0.210192 -0.0179797 9.19098e-19)
(0.238878 -0.0222091 0)
(0.269813 -0.0262949 8.97981e-19)
(0.30332 -0.0302079 0)
(0.339763 -0.0341636 -2.12574e-19)
(0.379375 -0.0386866 -8.07833e-19)
(0.422046 -0.0445292 -7.49636e-19)
(0.467193 -0.0524631 1.7413e-19)
(0.513755 -0.0630397 0)
(0.560325 -0.0765609 5.44753e-19)
(0.60548 -0.0925044 -1.37377e-19)
(0.648352 -0.109883 0)
(0.688531 -0.127336 1.36912e-19)
(0.725889 -0.143599 -5.33137e-19)
(0.760349 -0.157807 -5.88612e-19)
(0.791724 -0.169374 0)
(0.81979 -0.177841 1.47571e-18)
(0.844469 -0.182865 0)
(0.865935 -0.184296 1.83173e-18)
(0.884611 -0.182207 2.01031e-18)
(0.901117 -0.176889 2.17561e-18)
(0.916208 -0.168812 2.70838e-19)
(0.930713 -0.15858 0)
(0.945457 -0.146882 0)
(0.961234 -0.134444 0)
(0.978657 -0.122008 -2.69808e-19)
(0.998473 -0.110303 0)
(1.02031 -0.100131 -1.67592e-18)
(1.04665 -0.0921438 1.65038e-18)
(1.06865 -0.087559 1.04031e-19)
(1.11229 -0.086309 4.51083e-20)
(0.974194 0.218514 -1.23233e-18)
(0.970935 0.206364 1.19274e-18)
(0.965119 0.198173 -2.82018e-19)
(0.961139 0.194113 0)
(0.962197 0.191943 0)
(0.96826 0.190545 0)
(0.977772 0.189886 0)
(0.988503 0.189483 1.25235e-18)
(0.997433 0.188311 0)
(1.00094 0.185361 -1.11964e-18)
(0.995775 0.179958 -1.3957e-18)
(0.979841 0.171907 3.20001e-19)
(0.952676 0.161435 9.66771e-19)
(0.914339 0.148646 0)
(0.86565 0.133741 -1.47545e-18)
(0.808254 0.117843 0)
(0.746076 0.102468 -1.17953e-18)
(0.683654 0.087972 2.95015e-19)
(0.622849 0.0743834 -1.23409e-18)
(0.56576 0.0621099 -9.50368e-19)
(0.513203 0.0513515 0)
(0.465535 0.042094 0)
(0.422929 0.0342175 -6.83199e-19)
(0.385341 0.0276156 0)
(0.352634 0.022155 -5.42482e-19)
(0.3246 0.0176582 0)
(0.300834 0.0138581 0)
(0.281121 0.0104829 -9.56055e-20)
(0.265317 0.00757416 0)
(0.253083 0.00513283 0)
(0.244064 0.00308554 0)
(0.237974 0.00134964 5.05245e-20)
(0.234483 -0.000146904 2.04808e-19)
(0.233642 -0.00138787 1.29061e-19)
(0.235218 -0.00284489 0)
(0.239301 -0.00446522 0)
(0.24582 -0.00611749 -2.59784e-20)
(0.254703 -0.00783077 -1.30159e-19)
(0.265907 -0.00969362 5.17151e-20)
(0.279326 -0.0117812 0)
(0.294872 -0.0141485 0)
(0.312478 -0.0168382 -2.04036e-19)
(0.332075 -0.0198877 1.00417e-19)
(0.353578 -0.02334 -4.00452e-19)
(0.376876 -0.0272437 3.96146e-19)
(0.401812 -0.0316452 9.69091e-20)
(0.428173 -0.0365534 0)
(0.455714 -0.0418367 3.84182e-19)
(0.484261 -0.0473521 0)
(0.513668 -0.0529416 0)
(0.543831 -0.0584321 0)
(0.574752 -0.0637178 0)
(0.60652 -0.0688309 0)
(0.639233 -0.0740048 1.78582e-19)
(0.6729 -0.0796844 0)
(0.707323 -0.0864478 6.71576e-19)
(0.742023 -0.0948527 -1.53038e-19)
(0.77624 -0.105243 0)
(0.809039 -0.117564 5.80956e-19)
(0.839493 -0.13123 1.27834e-19)
(0.866873 -0.145332 5.6682e-19)
(0.890715 -0.15887 -1.32156e-19)
(0.910811 -0.170957 0)
(0.927179 -0.180935 -6.61243e-19)
(0.939995 -0.188365 0)
(0.949564 -0.192968 0)
(0.956349 -0.194611 -8.52507e-19)
(0.960989 -0.193325 0)
(0.964255 -0.189311 0)
(0.966991 -0.182916 -1.06333e-18)
(0.970044 -0.174595 -2.95638e-19)
(0.974208 -0.164876 0)
(0.98018 -0.154325 0)
(0.988553 -0.143516 0)
(0.999711 -0.133023 3.01464e-19)
(1.01413 -0.123398 -1.03058e-18)
(1.03127 -0.115221 -2.40203e-19)
(1.05319 -0.108964 -1.88598e-19)
(1.07174 -0.105346 -1.17823e-19)
(1.11017 -0.104476 -2.40745e-19)
(0.974501 0.21901 4.35458e-18)
(0.973757 0.208036 -4.1813e-18)
(0.971714 0.200425 0)
(0.969159 0.196211 -2.53684e-18)
(0.967054 0.192938 0)
(0.966166 0.189313 -2.23686e-18)
(0.96742 0.185819 0)
(0.97167 0.18301 2.97878e-18)
(0.978979 0.180732 -3.69854e-18)
(0.988285 0.178486 1.68875e-18)
(0.997693 0.175775 1.5788e-18)
(1.00497 0.172153 0)
(1.00811 0.167267 -4.27059e-18)
(1.00545 0.1607 -2.72009e-18)
(0.995591 0.152109 3.82325e-18)
(0.977798 0.141794 0)
(0.953049 0.130622 1.17108e-18)
(0.923759 0.119342 0)
(0.891702 0.10814 1.16759e-18)
(0.858167 0.0969981 1.16734e-18)
(0.824195 0.0861261 0)
(0.790774 0.0758008 0)
(0.758786 0.0662263 -6.39344e-19)
(0.728901 0.0575083 0)
(0.701565 0.0496299 6.20928e-19)
(0.677012 0.0425063 0)
(0.655363 0.0360425 0)
(0.636652 0.0301495 0)
(0.620912 0.0247365 0)
(0.60808 0.0197181 0)
(0.598076 0.0150154 0)
(0.590831 0.0105607 0)
(0.586262 0.00628567 1.76992e-19)
(0.584245 0.00212977 -8.58876e-20)
(0.584539 -0.00205078 4.39851e-20)
(0.587259 -0.00628416 0)
(0.592306 -0.010541 0)
(0.599494 -0.0148387 8.62554e-20)
(0.608675 -0.0192326 -3.52083e-19)
(0.619718 -0.0237647 3.51577e-19)
(0.63248 -0.0284624 0)
(0.646811 -0.0333482 8.7122e-19)
(0.662545 -0.0384428 -6.9864e-19)
(0.679507 -0.0437636 -3.57443e-19)
(0.697502 -0.0493212 -3.38476e-19)
(0.716313 -0.0551099 0)
(0.735704 -0.0610884 0)
(0.755442 -0.0671638 -1.03303e-18)
(0.775326 -0.0732299 0)
(0.795206 -0.0791808 0)
(0.81499 -0.0849257 0)
(0.834657 -0.0904337 7.04785e-19)
(0.854239 -0.0957852 1.40818e-18)
(0.873766 -0.101193 0)
(0.893199 -0.106984 0)
(0.912358 -0.113536 -6.50313e-19)
(0.93088 -0.121163 0)
(0.94823 -0.13 1.29489e-18)
(0.963769 -0.139912 6.86814e-19)
(0.976878 -0.150476 0)
(0.987093 -0.16107 6.99647e-19)
(0.994198 -0.17101 1.33372e-18)
(0.998251 -0.179657 1.40453e-18)
(0.999544 -0.186514 7.12859e-19)
(0.99854 -0.191258 -1.6138e-18)
(0.99581 -0.193722 1.74424e-18)
(0.992006 -0.193874 2.82912e-18)
(0.987838 -0.191805 0)
(0.984036 -0.187718 0)
(0.981297 -0.18191 1.19485e-18)
(0.980248 -0.174744 0)
(0.981419 -0.166627 2.49883e-18)
(0.98523 -0.157994 2.53192e-18)
(0.992015 -0.149289 0)
(1.00194 -0.140956 2.40256e-18)
(1.01528 -0.133428 -1.04111e-18)
(1.03141 -0.127142 0)
(1.05223 -0.122443 0)
(1.06988 -0.119773 0)
(1.10678 -0.119323 -1.93096e-19)
(0.974733 0.218938 -3.35448e-18)
(0.975458 0.208202 3.21121e-18)
(0.976056 0.201059 -6.23663e-18)
(0.975936 0.197367 2.86918e-18)
(0.974875 0.19446 0)
(0.9732 0.190786 2.52982e-18)
(0.971487 0.186585 -4.84277e-18)
(0.970473 0.18234 -4.48991e-18)
(0.970995 0.178131 -7.92448e-20)
(0.973706 0.173952 0)
(0.978809 0.16987 0)
(0.985968 0.165858 3.59628e-18)
(0.994367 0.161686 3.29148e-18)
(1.00284 0.15694 -3.27733e-18)
(1.00996 0.151227 -8.89723e-18)
(1.01427 0.144449 0)
(1.0149 0.136904 0)
(1.01186 0.128896 0)
(1.00564 0.120415 0)
(0.996718 0.111443 0)
(0.985584 0.102187 0)
(0.972871 0.092924 0)
(0.959263 0.0838647 1.24016e-18)
(0.945389 0.0751234 -2.58668e-18)
(0.931773 0.0667346 0)
(0.918823 0.0586983 0)
(0.906858 0.0510066 0)
(0.896119 0.0436292 0)
(0.886774 0.0365049 0)
(0.87892 0.0295904 -6.62194e-19)
(0.872621 0.0228584 0)
(0.867914 0.0162809 0)
(0.864799 0.00982428 1.26224e-20)
(0.86322 0.00342398 0)
(0.863081 -0.00277658 -4.10331e-20)
(0.864334 -0.0088394 0)
(0.866892 -0.0148488 1.70764e-19)
(0.870634 -0.0208383 0)
(0.875447 -0.0268273 6.72625e-19)
(0.881221 -0.0328334 -3.3063e-19)
(0.887839 -0.03887 -6.88723e-19)
(0.895169 -0.0449466 -6.64769e-19)
(0.903076 -0.0510677 6.67071e-19)
(0.911415 -0.0572326 6.69853e-19)
(0.920035 -0.063433 1.40064e-18)
(0.928778 -0.069647 1.40956e-18)
(0.93749 -0.0758331 0)
(0.946029 -0.0819256 -7.43662e-19)
(0.954293 -0.0878489 0)
(0.962224 -0.0935363 0)
(0.969816 -0.0989478 -1.48042e-18)
(0.977109 -0.104097 -7.23689e-19)
(0.984167 -0.109077 4.75273e-20)
(0.991041 -0.114067 0)
(0.997716 -0.119313 0)
(1.00407 -0.125077 0)
(1.00986 -0.131566 1.49447e-18)
(1.01471 -0.138858 -1.40066e-18)
(1.01824 -0.146846 -1.38978e-18)
(1.02006 -0.155232 0)
(1.01998 -0.163566 -1.42749e-18)
(1.01799 -0.171341 9.52001e-20)
(1.01427 -0.178083 -1.57436e-18)
(1.00922 -0.183423 1.75545e-18)
(1.00331 -0.187126 -4.77376e-20)
(0.997082 -0.189077 -1.97641e-18)
(0.991085 -0.189259 -2.14021e-18)
(0.985855 -0.187736 0)
(0.981894 -0.184652 0)
(0.97964 -0.180216 0)
(0.979462 -0.174693 0)
(0.981655 -0.168395 -2.83576e-18)
(0.986446 -0.161667 -2.87148e-18)
(0.994025 -0.154878 0)
(1.00447 -0.148409 -2.72258e-18)
(1.01802 -0.142624 4.90785e-18)
(1.03407 -0.13788 0)
(1.05449 -0.13442 0)
(1.07176 -0.132559 0)
(1.10762 -0.132323 9.13589e-19)
(0.975035 0.218503 8.34e-18)
(0.977127 0.207476 0)
(0.979623 0.200809 1.42747e-17)
(0.980942 0.19772 0)
(0.980747 0.195179 6.21341e-18)
(0.979838 0.19182 0)
(0.978656 0.187905 5.47261e-18)
(0.977182 0.183663 0)
(0.975605 0.178994 -5.03629e-18)
(0.974441 0.173898 0)
(0.974272 0.168551 8.88024e-18)
(0.97558 0.163113 -4.11076e-18)
(0.978663 0.157622 0)
(0.983541 0.151978 7.3069e-18)
(0.98987 0.146032 -1.87057e-19)
(0.996995 0.139701 -6.68138e-18)
(1.00405 0.133123 6.47561e-18)
(1.01036 0.126385 0)
(1.01554 0.119348 0)
(1.01936 0.111916 6.08624e-18)
(1.02166 0.104156 0)
(1.02251 0.0962097 -2.96098e-18)
(1.0221 0.0881928 0)
(1.02072 0.0801808 2.80458e-18)
(1.01864 0.0722179 0)
(1.01612 0.0643322 2.89649e-18)
(1.01338 0.0565395 0)
(1.01062 0.048838 0)
(1.008 0.0412161 1.4472e-18)
(1.00563 0.0336741 6.95548e-19)
(1.00359 0.0262199 0)
(1.00195 0.0188576 0)
(1.00073 0.0115902 -1.0873e-18)
(0.99998 0.00442166 0)
(0.999641 -0.00255542 0)
(0.999689 -0.00939589 0)
(1.00011 -0.0161616 -1.78049e-19)
(1.00087 -0.0228657 0)
(1.00191 -0.0295055 -1.10554e-18)
(1.00319 -0.0360822 -7.50491e-19)
(1.00464 -0.0425983 7.24503e-19)
(1.0062 -0.0490534 0)
(1.0078 -0.0554435 0)
(1.00939 -0.061761 1.54253e-18)
(1.01089 -0.0679938 -1.49663e-18)
(1.01223 -0.0741216 -1.51308e-18)
(1.01337 -0.0801134 0)
(1.01427 -0.0859269 -5.8274e-20)
(1.01491 -0.0915175 1.63359e-18)
(1.01533 -0.0968536 0)
(1.0156 -0.101931 1.62711e-18)
(1.01579 -0.106789 1.70269e-18)
(1.016 -0.111522 -1.66976e-18)
(1.01629 -0.116281 0)
(1.01668 -0.121256 0)
(1.01707 -0.126638 0)
(1.01732 -0.132574 -1.68218e-18)
(1.01717 -0.13911 0)
(1.01637 -0.146159 0)
(1.01471 -0.153498 0)
(1.01207 -0.160794 3.66057e-18)
(1.00849 -0.167669 -1.80257e-18)
(1.00416 -0.173767 0)
(0.999377 -0.178794 -2.00219e-18)
(0.994498 -0.182546 -2.22454e-18)
(0.989905 -0.184897 4.61517e-18)
(0.985969 -0.185796 -4.88985e-18)
(0.98303 -0.185257 -5.17091e-18)
(0.98139 -0.183361 0)
(0.981312 -0.180255 -5.69337e-18)
(0.983016 -0.176146 0)
(0.986693 -0.171298 0)
(0.992508 -0.166019 0)
(1.00063 -0.160652 5.98706e-18)
(1.01117 -0.155551 -5.73436e-18)
(1.02442 -0.15105 -7.99688e-18)
(1.03988 -0.147454 0)
(1.05942 -0.144927 3.6073e-18)
(1.07594 -0.143678 0)
(1.11024 -0.143518 -1.50408e-18)
(0.975434 0.21769 -9.46012e-18)
(0.979143 0.20609 -9.20863e-18)
(0.983423 0.200245 -1.64406e-17)
(0.98558 0.197996 0)
(0.985486 0.195679 -1.41278e-17)
(0.984786 0.192414 -6.73032e-18)
(0.9842 0.188726 0)
(0.983453 0.18472 1.19951e-17)
(0.982354 0.180194 1.11974e-17)
(0.981034 0.175097 0)
(0.979704 0.169517 -1.0043e-17)
(0.978605 0.163554 0)
(0.978053 0.15727 0)
(0.978379 0.150691 8.70812e-18)
(0.979807 0.143819 8.071e-18)
(0.982399 0.136688 -1.82341e-19)
(0.986008 0.129509 1.84367e-19)
(0.990363 0.122436 0)
(0.995173 0.115371 0)
(1.00009 0.108194 -6.97394e-18)
(1.00479 0.100882 -7.0649e-18)
(1.00903 0.0934738 1.03546e-17)
(1.01273 0.0860143 3.45126e-18)
(1.01587 0.0785336 3.42304e-18)
(1.01847 0.0710492 0)
(1.02057 0.0635706 -3.27192e-18)
(1.02224 0.0561022 0)
(1.02353 0.0486439 0)
(1.02448 0.0411958 -3.30555e-18)
(1.02514 0.0337648 0)
(1.02555 0.0263644 0)
(1.02573 0.0190097 0)
(1.02572 0.0117184 8.20193e-19)
(1.02554 0.00452538 -4.2767e-19)
(1.02525 -0.00255527 2.13709e-19)
(1.02486 -0.00952262 0)
(1.02438 -0.0163909 0)
(1.02384 -0.0231652 0)
(1.02323 -0.029843 8.34092e-19)
(1.02255 -0.0364235 8.38905e-19)
(1.02177 -0.0429071 -1.75009e-18)
(1.02091 -0.0492924 0)
(1.01994 -0.0555761 0)
(1.01886 -0.0617524 -3.52941e-18)
(1.01766 -0.0678127 -1.81351e-18)
(1.01634 -0.0737433 0)
(1.0149 -0.0795247 0)
(1.01337 -0.0851323 1.824e-18)
(1.01177 -0.0905432 5.64726e-20)
(1.01018 -0.0957464 0)
(1.00866 -0.100754 0)
(1.00731 -0.10561 -1.93674e-18)
(1.00619 -0.110399 0)
(1.00537 -0.115243 0)
(1.00484 -0.120287 0)
(1.00455 -0.125675 0)
(1.00436 -0.131512 0)
(1.0041 -0.13783 -4.16661e-18)
(1.00357 -0.14456 0)
(1.00262 -0.151533 0)
(1.00117 -0.158491 1.67379e-19)
(0.999214 -0.165137 0)
(0.996883 -0.171171 0)
(0.994366 -0.17633 0)
(0.991897 -0.180409 9.97896e-18)
(0.989723 -0.183264 -5.22836e-18)
(0.988078 -0.184815 5.53178e-18)
(0.987179 -0.185041 1.44086e-20)
(0.987221 -0.183991 0)
(0.988385 -0.181779 6.4227e-18)
(0.990844 -0.17859 -6.54149e-18)
(0.994778 -0.174672 0)
(1.00037 -0.170327 0)
(1.00786 -0.165893 -1.46269e-19)
(1.01742 -0.161718 6.48327e-18)
(1.02944 -0.158128 5.97556e-18)
(1.04354 -0.155377 0)
(1.06164 -0.153589 -4.09477e-18)
(1.07703 -0.152788 0)
(1.10949 -0.152712 1.13367e-18)
(0.975986 0.216474 0)
(0.981692 0.204215 2.12131e-17)
(0.98777 0.199647 1.88202e-17)
(0.990442 0.198411 0)
(0.990122 0.196236 8.0288e-18)
(0.989271 0.192975 -7.76946e-18)
(0.988772 0.18939 0)
(0.988281 0.185463 -1.35634e-17)
(0.987612 0.180999 0)
(0.986853 0.175996 0)
(0.986042 0.170513 0)
(0.985148 0.164578 0)
(0.984209 0.158201 0)
(0.983346 0.151385 1.82824e-19)
(0.982705 0.144141 -9.52752e-18)
(0.982429 0.136518 -1.82197e-19)
(0.982662 0.128774 1.8361e-19)
(0.983501 0.121142 0)
(0.984944 0.113605 0)
(0.986872 0.106087 0)
(0.989098 0.0985677 -2.0254e-19)
(0.991456 0.0910694 2.0645e-19)
(0.993834 0.0836173 -3.95216e-18)
(0.996157 0.0762214 -3.92103e-18)
(0.998371 0.0688785 0)
(1.00043 0.0615795 -3.98548e-18)
(1.0023 0.0543146 3.97293e-18)
(1.00396 0.0470753 0)
(1.00538 0.0398556 1.92508e-18)
(1.00654 0.0326562 1.98321e-18)
(1.00744 0.0254861 0)
(1.00807 0.0183598 0)
(1.00844 0.0112928 1.00218e-18)
(1.00857 0.00432219 -1.48598e-20)
(1.00853 -0.00258308 -4.94805e-19)
(1.00831 -0.00939402 0)
(1.00796 -0.0161043 0)
(1.00749 -0.0227221 -1.01142e-18)
(1.00693 -0.0292513 0)
(1.00627 -0.0356919 -1.02141e-18)
(1.00553 -0.0420437 -5.89807e-20)
(1.00471 -0.0483054 0)
(1.00384 -0.0544745 2.088e-18)
(1.00291 -0.0605466 4.15551e-18)
(1.00194 -0.0665145 2.06982e-18)
(1.00094 -0.0723683 0)
(0.999924 -0.0780941 -4.35259e-18)
(0.998927 -0.0836761 0)
(0.997981 -0.0891012 -2.1765e-18)
(0.997138 -0.0943669 0)
(0.996455 -0.0994889 0)
(0.995996 -0.104509 0)
(0.995813 -0.109498 0)
(0.995936 -0.114556 0)
(0.996357 -0.119797 -4.77995e-18)
(0.997019 -0.125335 4.81286e-18)
(0.997816 -0.131248 0)
(0.998606 -0.137561 4.72825e-18)
(0.999237 -0.144217 -4.91962e-18)
(0.999574 -0.151075 0)
(0.999534 -0.157923 -4.91377e-18)
(0.999103 -0.164503 0)
(0.998333 -0.170549 0)
(0.997334 -0.175812 0)
(0.996243 -0.180087 -5.67989e-18)
(0.995209 -0.183218 6.02043e-18)
(0.99438 -0.185106 -6.2884e-18)
(0.993901 -0.185713 1.31327e-17)
(0.993922 -0.185071 -6.83589e-18)
(0.994612 -0.183288 0)
(0.996163 -0.180546 7.38679e-18)
(0.998809 -0.177102 -7.43936e-18)
(1.00282 -0.173268 0)
(1.00851 -0.169394 -1.1743e-19)
(1.01617 -0.165833 -7.10338e-18)
(1.02628 -0.162909 0)
(1.03859 -0.160826 0)
(1.05508 -0.15971 -4.5699e-18)
(1.06927 -0.159266 0)
(1.10036 -0.159462 -1.28613e-18)
(0.976761 0.214804 0)
(0.984936 0.20201 -1.22215e-17)
(0.992771 0.199204 -1.07027e-17)
(0.99565 0.198991 0)
(0.994983 0.196871 1.84246e-17)
(0.993958 0.193636 1.73987e-17)
(0.99339 0.190141 0)
(0.992829 0.186206 1.56636e-17)
(0.992163 0.181686 -1.48743e-17)
(0.991561 0.176663 0)
(0.991077 0.171203 0)
(0.990638 0.165314 0)
(0.990185 0.158988 0)
(0.989698 0.152209 -1.13209e-17)
(0.989167 0.144965 -1.11253e-17)
(0.9886 0.137279 1.02262e-17)
(0.98807 0.129387 -3.02717e-17)
(0.9877 0.121537 0)
(0.987572 0.11375 0)
(0.987688 0.105986 9.70121e-18)
(0.987999 0.0982479 1.89738e-17)
(0.988454 0.090566 -9.2902e-18)
(0.989019 0.0829693 0)
(0.989675 0.0754688 0)
(0.9904 0.0680604 -4.65882e-18)
(0.991168 0.0607333 9.17818e-18)
(0.991947 0.0534757 -9.15539e-18)
(0.992709 0.0462765 0)
(0.993425 0.0391261 0)
(0.994068 0.0320209 -2.2601e-18)
(0.994617 0.0249647 0)
(0.995057 0.0179655 2.33046e-18)
(0.99538 0.0110369 -1.14203e-18)
(0.99561 0.00417881 -1.4494e-20)
(0.995754 -0.00261887 -7.26618e-21)
(0.995819 -0.00933268 0)
(0.99582 -0.0159558 0)
(0.995774 -0.0224965 -2.89833e-20)
(0.995689 -0.0289597 1.18355e-18)
(0.995571 -0.0353451 3.53989e-18)
(0.995427 -0.0416516 4.72927e-18)
(0.995266 -0.0478781 2.4101e-18)
(0.995094 -0.0540223 -2.37086e-18)
(0.994919 -0.0600802 -2.39167e-18)
(0.994749 -0.0660457 2.47216e-18)
(0.994591 -0.0719106 0)
(0.99446 -0.0776641 4.93474e-18)
(0.994371 -0.083295 -5.10617e-18)
(0.994353 -0.0887949 0)
(0.99444 -0.0941651 0)
(0.994672 -0.0994223 0)
(0.995093 -0.104604 0)
(0.995734 -0.109773 0)
(0.996609 -0.11501 0)
(0.997703 -0.120412 5.39756e-18)
(0.998961 -0.126069 -1.09921e-17)
(1.00029 -0.132043 -5.60028e-18)
(1.00157 -0.13835 5.64441e-18)
(1.00266 -0.144937 5.54724e-18)
(1.00343 -0.151679 -5.77231e-18)
(1.00379 -0.158387 5.87122e-18)
(1.00368 -0.164828 0)
(1.00309 -0.17075 6.16601e-18)
(1.00205 -0.175915 -6.36513e-18)
(1.00064 -0.180112 0)
(0.998921 -0.183179 -1.36453e-17)
(0.997006 -0.185012 7.099e-18)
(0.995025 -0.185571 -1.48456e-17)
(0.993154 -0.184896 7.73975e-18)
(0.99162 -0.183109 0)
(0.990711 -0.180417 8.22229e-18)
(0.990769 -0.177099 8.47708e-18)
(0.99218 -0.17349 -8.45201e-18)
(0.99538 -0.169957 -8.45535e-18)
(1.00074 -0.166852 8.14598e-18)
(1.00886 -0.164503 0)
(1.0195 -0.163052 0)
(1.0348 -0.162675 5.26015e-18)
(1.04819 -0.162602 0)
(1.0792 -0.163434 1.48402e-18)
(0.977833 0.212617 1.62059e-17)
(0.988995 0.19965 0)
(0.998472 0.199059 -2.40941e-17)
(1.00125 0.199734 2.18284e-17)
(1.00018 0.19759 -2.08159e-17)
(0.999031 0.194435 1.99652e-17)
(0.9984 0.191033 0)
(0.997725 0.187059 1.60209e-19)
(0.996947 0.182456 1.6793e-17)
(0.996279 0.177368 0)
(0.995793 0.171858 0)
(0.995444 0.165931 0)
(0.99519 0.159587 2.77062e-17)
(0.995006 0.152813 0)
(0.99485 0.145595 2.46895e-17)
(0.994673 0.137938 0)
(0.994466 0.130054 4.61797e-17)
(0.994268 0.122179 0)
(0.994122 0.114342 0)
(0.99403 0.106516 -2.20817e-17)
(0.993971 0.0987089 -1.08149e-17)
(0.993929 0.0909521 0)
(0.99391 0.0832759 0)
(0.993928 0.0756949 0)
(0.993994 0.0682096 5.26048e-18)
(0.994112 0.0608141 -5.24335e-18)
(0.994277 0.0534998 -1.07967e-19)
(0.994481 0.0462576 0)
(0.994711 0.0390787 5.33909e-18)
(0.994954 0.0319589 0)
(0.995198 0.0249001 0)
(0.995431 0.0179067 -2.63416e-18)