/*--------------------------------*- C++ -*----------------------------------*\
| =========                 |                                                 |
| \\      /  F ield         | OpenFOAM: The Open Source CFD Toolbox           |
|  \\    /   O peration     | Version:  v1912                                 |
|   \\  /    A nd           | Website:  www.openfoam.com                      |
|    \\/     M anipulation  |                                                 |
\*---------------------------------------------------------------------------*/
FoamFile
{
    version     2.0;
    format      ascii;
    class       volScalarField;
    location    "230";
    object      nut;
}
// * * * * * * * * * * * * * * * * * * * * * * * * * * * * * * * * * * * * * //

dimensions      [0 2 -1 0 0 0 0];


internalField   nonuniform List<scalar> 
12441
(
5.82202e-24
1.79051e-20
8.10484e-20
3.32537e-19
1.06828e-18
3.88822e-18
1.01053e-17
2.50047e-17
6.13818e-17
1.27523e-16
3.05646e-16
7.71979e-16
2.17681e-15
7.4078e-15
1.03804e-13
1.89498e-11
0.000197222
0.000987884
0.00316413
0.0026764
0.0036459
0.00775321
6.34211e-24
3.03348e-20
1.11731e-19
4.23944e-19
1.30208e-18
4.80721e-18
1.21982e-17
3.00102e-17
7.36082e-17
1.54447e-16
3.79797e-16
1.03001e-15
2.82236e-15
9.38074e-15
1.13235e-13
3.90038e-11
5.83927e-05
0.00119817
0.00362141
0.00291366
0.00400813
0.00781733
6.36487e-24
3.58954e-20
1.20778e-19
4.48128e-19
1.37772e-18
4.90666e-18
1.29287e-17
3.20413e-17
8.0513e-17
1.71766e-16
4.17888e-16
1.11838e-15
2.77874e-15
7.67177e-15
5.36178e-14
6.57454e-12
1.11668e-05
0.000877628
0.00144074
0.00274819
0.00416096
0.0078909
6.31934e-24
3.76916e-20
1.18533e-19
4.29308e-19
1.32534e-18
4.7135e-18
1.25132e-17
3.13272e-17
7.84934e-17
1.7367e-16
4.23763e-16
1.15494e-15
2.60505e-15
8.47916e-15
3.85589e-14
1.54315e-12
1.62955e-06
0.000610768
0.00107309
0.00266933
0.0043235
0.0079647
6.28529e-24
4.3883e-20
1.29778e-19
4.58313e-19
1.40268e-18
4.77929e-18
1.30907e-17
3.27951e-17
8.42972e-17
1.87522e-16
4.54175e-16
1.28575e-15
3.01228e-15
4.0756e-14
2.47655e-13
2.29799e-12
1.39838e-07
0.000430231
0.00105134
0.00265555
0.00446416
0.00803394
6.23513e-24
4.1288e-20
1.20539e-19
4.29188e-19
1.34271e-18
4.62203e-18
1.27503e-17
3.23935e-17
8.28938e-17
1.92685e-16
4.76963e-16
1.44677e-15
4.52353e-15
1.32967e-12
1.19131e-11
5.10345e-11
4.59121e-07
0.000393676
0.00111504
0.00271257
0.00459171
0.00809948
6.20022e-24
5.02639e-20
1.37795e-19
4.75768e-19
1.46014e-18
4.79243e-18
1.35931e-17
3.44542e-17
9.07028e-17
2.11125e-16
5.20867e-16
2.0018e-15
2.49676e-14
4.14965e-11
6.59028e-10
9.37693e-09
1.87558e-05
0.000408489
0.0012993
0.00290026
0.00473959
0.00816218
6.15045e-24
4.34522e-20
1.23172e-19
4.40158e-19
1.40816e-18
4.72276e-18
1.35122e-17
3.48455e-17
9.13198e-17
2.23849e-16
5.72541e-16
5.44065e-15
6.08582e-13
2.25472e-09
8.42531e-08
4.97434e-06
0.00019449
0.000464409
0.00175584
0.00328654
0.00493478
0.00822577
6.11765e-24
5.57043e-20
1.46131e-19
4.99678e-19
1.55412e-18
4.95864e-18
1.46118e-17
3.75714e-17
1.02075e-16
2.50949e-16
6.45387e-16
6.14024e-14
2.58459e-11
7.43414e-08
1.04442e-05
0.000153466
0.000790533
0.000821906
0.00270632
0.00394935
0.00521082
0.00829204
6.07081e-24
4.43498e-20
1.25436e-19
4.56632e-19
1.50754e-18
4.95361e-18
1.47475e-17
3.87262e-17
1.04879e-16
2.75125e-16
7.4867e-16
1.68342e-12
1.08107e-09
4.43613e-06
0.000190571
0.000606629
0.00165258
0.00154089
0.00444294
0.00496768
0.00558193
0.00836448
6.04163e-24
6.02604e-20
1.53434e-19
5.25909e-19
1.67272e-18
5.20596e-18
1.60252e-17
4.20357e-17
1.19296e-16
3.17376e-16
8.9214e-16
5.23523e-11
5.49019e-08
8.18582e-05
0.000710279
0.00165104
0.00354315
0.00303178
0.00738417
0.00643888
0.00606131
0.00844366
5.99623e-24
4.46292e-20
1.27736e-19
4.76945e-19
1.6337e-18
5.28096e-18
1.64023e-17
4.40662e-17
1.25502e-16
3.64638e-16
1.15869e-15
1.45795e-09
3.24057e-06
0.000343434
0.00152894
0.00361407
0.00725042
0.00598928
0.011953
0.00840211
0.00663692
0.00853143
5.9706e-24
6.41498e-20
1.60451e-19
5.53813e-19
1.81497e-18
5.54195e-18
1.79086e-17
4.82233e-17
1.46707e-16
4.44738e-16
1.69468e-15
3.52497e-08
7.24218e-05
0.00105586
0.00367407
0.00781948
0.01422
0.011365
0.0182863
0.0108333
0.0072981
0.00862633
5.92665e-24
4.43257e-20
1.29671e-19
4.99317e-19
1.78321e-18
5.69194e-18
1.85326e-17
5.13853e-17
1.59855e-16
5.59169e-16
3.60165e-15
7.9716e-07
0.000343224
0.002666
0.0079701
0.0153781
0.025695
0.0199542
0.026069
0.0136006
0.008011
0.00872852
5.90426e-24
6.75162e-20
1.66655e-19
5.82626e-19
1.97801e-18
5.94017e-18
2.02693e-17
5.67843e-17
1.9606e-16
7.78732e-16
1.65184e-14
1.51832e-05
0.00109995
0.00614401
0.015583
0.0272207
0.0421826
0.0318196
0.0345314
0.0165417
0.00875424
0.00883515
5.86059e-24
4.39594e-20
1.31999e-19
5.24812e-19
1.95782e-18
6.18561e-18
2.12025e-17
6.16812e-17
2.28174e-16
1.21631e-15
3.02185e-13
0.000136748
0.00267949
0.0124049
0.0273594
0.0435909
0.0630021
0.0459026
0.042744
0.0194544
0.00948999
0.00894576
5.84148e-24
7.05411e-20
1.73506e-19
6.1513e-19
2.17063e-18
6.43962e-18
2.3311e-17
6.93807e-17
3.08241e-16
2.30502e-15
1.26034e-11
0.000515808
0.00598736
0.0222109
0.0432296
0.0638829
0.0860842
0.0602272
0.0498984
0.0222004
0.0102029
0.00905718
5.79755e-24
4.35028e-20
1.34495e-19
5.53148e-19
2.16071e-18
6.77171e-18
2.46189e-17
7.72331e-17
4.08481e-16
5.44583e-15
5.48029e-10
0.0013007
0.0117858
0.0358588
0.0627095
0.0864752
0.108312
0.072606
0.0555949
0.0246585
0.0108652
0.00916919
5.78117e-24
7.3265e-20
1.80291e-19
6.49146e-19
2.38806e-18
7.01181e-18
2.71832e-17
8.90749e-17
6.61753e-16
1.69237e-14
4.40837e-08
0.00310061
0.0207967
0.0526715
0.0841845
0.109036
0.12639
0.0815674
0.0598067
0.0267995
0.0114767
0.00927899
5.73666e-24
4.30541e-20
1.36874e-19
5.8242e-19
2.38695e-18
7.43838e-18
2.90083e-17
1.02321e-16
1.08047e-15
7.5275e-14
8.53539e-06
0.00645548
0.033068
0.0717479
0.105975
0.128902
0.137878
0.086813
0.0628238
0.0285969
0.0120232
0.00938714
5.72357e-24
7.5731e-20
1.86806e-19
6.83198e-19
2.62934e-18
7.67328e-18
3.23052e-17
1.22252e-16
2.19386e-15
7.80226e-13
0.000165655
0.01215
0.0480162
0.0915155
0.125749
0.14389
0.141999
0.0891348
0.0650042
0.0300907
0.0125186
0.00949146
5.67824e-24
4.24353e-20
1.38576e-19
6.10947e-19
2.63522e-18
8.19361e-18
3.49414e-17
1.46473e-16
4.34038e-15
1.34065e-11
0.000638719
0.0205836
0.0646079
0.110724
0.141903
0.152741
0.139772
0.0897766
0.0666991
0.0312963
0.0129604
0.00959327
5.66783e-24
7.80246e-20
1.92475e-19
7.15506e-19
2.88998e-18
8.41862e-18
3.94348e-17
1.83593e-16
1.02762e-14
1.66108e-10
0.00165008
0.0316211
0.0816608
0.127843
0.153016
0.155521
0.133449
0.0898449
0.0681291
0.0322774
0.0133738
0.00969106
5.62196e-24
4.19656e-20
1.39797e-19
6.38029e-19
2.90274e-18
9.03804e-18
4.35034e-17
2.31507e-16
2.24216e-14
1.55806e-09
0.00371149
0.0447149
0.0980919
0.141997
0.15899
0.153341
0.125528
0.0899575
0.0694388
0.0330662
0.0137665
0.00978684
5.61509e-24
8.02776e-20
1.97584e-19
7.45843e-19
3.17132e-18
9.26776e-18
5.02666e-17
3.06445e-16
5.64433e-14
1.37794e-08
0.00730855
0.0589043
0.113042
0.152416
0.160213
0.147967
0.117925
0.090307
0.0706755
0.0337398
0.0141722
0.00987966
5.56743e-24
4.17935e-20
1.40769e-19
6.639e-19
3.1922e-18
9.99303e-18
5.71557e-17
4.08489e-16
1.30489e-13
3.18851e-07
0.0128126
0.0733171
0.125903
0.159142
0.157975
0.141149
0.111626
0.0908281
0.0718632
0.034344
0.0146048
0.00997203
5.56305e-24
8.24865e-20
2.02104e-19
7.74047e-19
3.47305e-18
1.02328e-17
6.84637e-17
5.73394e-16
3.92562e-13
1.86767e-05
0.0201454
0.0870934
0.136327
0.162389
0.153459
0.134258
0.106846
0.0913904
0.0729845
0.0349614
0.0151015
0.0100634
5.51426e-24
4.18612e-20
1.41228e-19
6.87559e-19
3.50174e-18
1.10696e-17
8.13342e-17
8.10455e-16
1.83007e-12
0.000209662
0.0289986
0.0996981
0.144196
0.162912
0.147956
0.128077
0.103377
0.091874
0.0740286
0.0356339
0.0156749
0.0101564
5.51325e-24
8.46784e-20
2.05805e-19
7.99252e-19
3.79643e-18
1.13448e-17
1.02519e-16
1.20447e-15
1.28022e-11
0.000693491
0.038769
0.110716
0.149609
0.161364
0.142239
0.122924
0.100881
0.0922114
0.0749657
0.0364243
0.0163555
0.0102507
5.4622e-24
4.20364e-20
1.40973e-19
7.08456e-19
3.83387e-18
1.23056e-17
1.28838e-16
1.7959e-15
7.40968e-11
0.00138055
0.0489602
0.119975
0.152817
0.158548
0.136906
0.11879
0.0990476
0.0923711
0.0757793
0.0373441
0.0171429
0.0103488
5.46322e-24
8.68097e-20
2.08986e-19
8.21839e-19
4.14341e-18
1.26539e-17
1.72487e-16
2.80979e-15
3.56419e-10
0.00236965
0.0590437
0.127378
0.154173
0.154977
0.132137
0.115533
0.0976464
0.0923558
0.0764413
0.0384156
0.0180502
0.01045
5.41112e-24
4.22486e-20
1.39907e-19
7.26655e-19
4.19116e-18
1.37426e-17
2.30152e-16
4.39003e-15
1.38693e-09
0.00375758
0.0686848
0.132993
0.15406
0.151145
0.128043
0.112962
0.0965223
0.0921793
0.0769369
0.0396099
0.0190561
0.0105565
5.41524e-24
8.89215e-20
2.11422e-19
8.42423e-19
4.52288e-18
1.41941e-17
3.26418e-16
7.0841e-15
4.74631e-09
0.00567431
0.0775634
0.136927
0.152853
0.147275
0.124537
0.110908
0.0955801
0.0918672
0.077242
0.0409145
0.0201526
0.010667
5.35966e-24
4.22812e-20
1.37817e-19
7.42929e-19
4.58531e-18
1.5455e-17
4.58298e-16
1.12969e-14
1.44509e-08
0.00822327
0.0855457
0.139389
0.150881
0.143584
0.121574
0.10923
0.0947652
0.0914432
0.0773455
0.042279
0.0212985
0.0107831
5.36572e-24
8.8461e-20
2.10347e-19
8.57277e-19
4.93685e-18
1.60489e-17
6.78023e-16
1.85086e-14
4.27949e-08
0.0114963
0.0925361
0.140584
0.148417
0.14011
0.119026
0.107825
0.0940488
0.0909346
0.0772282
0.0436845
0.0224731
0.0109032
5.30612e-24
4.14885e-20
1.32584e-19
7.51678e-19
5.01057e-18
1.74644e-17
9.80578e-16
2.99219e-14
2.19476e-07
0.0156312
0.0986012
0.140765
0.145673
0.13693
0.116839
0.106618
0.0934184
0.0903641
0.0768839
0.0450926
0.0236282
0.0110282
5.31255e-24
8.52669e-20
2.03834e-19
8.62111e-19
5.38139e-18
1.81878e-17
1.47481e-15
5.74638e-14
1.11705e-05
0.0208253
0.103827
0.140147
0.14281
0.134013
0.114915
0.105559
0.0928719
0.0897573
0.0763006
0.0465112
0.0247453
0.0111563
5.24618e-24
4.16177e-20
1.27334e-19
7.5776e-19
5.4832e-18
1.98593e-17
2.14261e-15
4.6509e-13
0.000192035
0.0274248
0.108394
0.13896
0.139941
0.131391
0.113228
0.104616
0.0924136
0.0891356
0.0754812
0.0479388
0.0257873
0.0112883
5.24951e-24
5.37924e-20
1.5473e-19
7.99532e-19
5.76923e-18
2.06407e-17
3.20179e-15
2.31307e-11
0.00129442
0.0358667
0.112437
0.137379
0.137144
0.129022
0.111714
0.103773
0.0920522
0.0885227
0.0744264
0.0494219
0.0267579
0.011422
5.17278e-24
4.32836e-20
1.14482e-19
7.24342e-19
5.94102e-18
2.35478e-17
4.66329e-15
1.03289e-09
0.00495212
0.046433
0.116102
0.135579
0.134466
0.126939
0.110376
0.103023
0.0917991
0.0879375
0.073156
0.0509859
0.0276495
0.0115584
5.16609e-24
1.93961e-21
1.12098e-20
4.00679e-19
5.44955e-18
2.44403e-17
7.20792e-15
1.82988e-07
0.0131468
0.0590641
0.119428
0.133682
0.131931
0.12511
0.109175
0.102371
0.0916667
0.0873986
0.0716923
0.0526702
0.0285009
0.0116955
5.078e-24
1.71179e-20
4.47773e-20
4.17427e-19
5.46299e-18
3.6213e-17
1.80089e-14
4.6594e-05
0.0274983
0.0734841
0.122429
0.131813
0.129539
0.123586
0.108141
0.101824
0.091666
0.086915
0.0700817
0.0544218
0.0293267
0.0118345
5.03914e-24
6.7206e-22
8.45983e-23
2.35265e-19
5.06684e-18
8.28278e-17
3.7083e-13
0.000968945
0.0490684
0.0892604
0.125018
0.130051
0.127274
0.122336
0.107247
0.101404
0.0918073
0.0864907
0.068376
0.0560757
0.0301281
0.011976
4.8385e-24
2.10346e-19
4.58189e-19
1.02965e-18
7.26145e-18
9.13689e-16
7.18234e-12
0.00581786
0.0782463
0.106164
0.127301
0.128542
0.125118
0.121409
0.106523
0.10112
0.0920853
0.0860718
0.0666401
0.0572091
0.0306009
0.0121338
0.00987657
0.0195767
0.0211865
0.00814726
0.0070814
0.007304
0.00749479
0.00768703
0.00753777
0.00776256
0.0105482
0.00976367
0.00923353
0.00920759
0.00947775
0.0107795
0.0132725
0.0156179
0.0162142
0.0143294
0.0127932
0.0125584
0.0126839
0.0129542
0.0134471
0.0127683
0.0221175
0.0849166
0.116984
0.116406
0.110632
0.107347
0.107945
0.118145
0.136163
0.00986353
0.0198543
0.0204242
0.00779162
0.00690209
0.00713898
0.00748817
0.00771544
0.00750915
0.00771934
0.0102444
0.00937373
0.00884868
0.00889496
0.00924592
0.0104919
0.0130398
0.0155755
0.0163005
0.0143132
0.0126482
0.0123955
0.0125229
0.012779
0.0132633
0.0126091
0.0213873
0.0843417
0.116867
0.116294
0.110554
0.107281
0.107913
0.118113
0.136147
0.00983842
0.0200559
0.0191112
0.00719374
0.0066876
0.00692191
0.00753657
0.00779552
0.00748671
0.00766115
0.00932919
0.00831223
0.00794126
0.00807496
0.0082911
0.00913745
0.0112177
0.0135657
0.0146502
0.0133041
0.0120615
0.0119765
0.0121813
0.012462
0.012956
0.0124691
0.0208411
0.0833766
0.11657
0.116012
0.110345
0.107099
0.107803
0.118004
0.136068
0.00979929
0.0201829
0.0174409
0.00656911
0.00649922
0.0067344
0.00762013
0.00784067
0.00745986
0.00760093
0.00830404
0.00711198
0.00687175
0.00715341
0.00730962
0.00772049
0.00907919
0.0109018
0.0121531
0.0116486
0.0110786
0.011282
0.0116341
0.0119783
0.0124971
0.0122471
0.0203046
0.0819946
0.116096
0.115562
0.110006
0.106801
0.107614
0.117817
0.135927
0.00974597
0.0201634
0.0155504
0.00594841
0.00628874
0.00653168
0.00765068
0.00778244
0.00736595
0.00747425
0.0073731
0.00601278
0.00586268
0.00632057
0.00651468
0.00659058
0.00724512
0.00839795
0.00951944
0.00967253
0.00976185
0.0103031
0.0108632
0.011314
0.0118745
0.0118689
0.0196551
0.0801758
0.115457
0.11496
0.10955
0.106398
0.107358
0.117564
0.135736
0.00967615
0.0199382
0.0135611
0.00533439
0.00602874
0.0062754
0.00756505
0.00758962
0.007161
0.00722253
0.00654308
0.00505409
0.00492486
0.0055005
0.00581355
0.00571095
0.0058372
0.00637648
0.00717545
0.00765493
0.00820793
0.00905457
0.00986228
0.0104649
0.0110891
0.0112888
0.018817
0.0779086
0.11468
0.114231
0.108999
0.105911
0.107053
0.117263
0.135513
0.00959042
0.0194735
0.0115923
0.00475513
0.00573542
0.00596947
0.00735125
0.00726918
0.00683953
0.00683292
0.00577722
0.00421478
0.00402009
0.00458264
0.00505136
0.00492354
0.00474294
0.00484145
0.0052859
0.0058059
0.00655517
0.00759317
0.00864459
0.00943757
0.0101533
0.0104918
0.0177552
0.0751913
0.113794
0.113409
0.108378
0.105366
0.10672
0.116938
0.135282
0.00948687
0.0187482
0.00975075
0.00425351
0.00544931
0.00564585
0.00703733
0.0068537
0.00642609
0.00633274
0.00505882
0.00349273
0.00317461
0.00358415
0.00417853
0.00412975
0.00382767
0.00367752
0.0038481
0.00425684
0.00497259
0.00603295
0.00725787
0.00825419
0.00908966
0.00949374
0.0164679
0.0720337
0.112832
0.112528
0.107718
0.104791
0.106384
0.116618
0.13507
0.00936733
0.0177703
0.00811372
0.00386486
0.00521262
0.00534503
0.00666999
0.00638604
0.00595801
0.00576784
0.0043966
0.00290459
0.00247059
0.00265402
0.00328134
0.00334753
0.00303891
0.00278892
0.0028006
0.00306937
0.00362351
0.00453975
0.00579893
0.00696126
0.00793214
0.0083403
0.0149787
0.0684583
0.111827
0.111626
0.107048
0.104215
0.106073
0.11633
0.134906
0.0092307
0.0165589
0.00672271
0.00360492
0.00505756
0.0051041
0.00629979
0.00591079
0.00547615
0.00518702
0.00380766
0.00246492
0.00197504
0.00195953
0.00251068
0.00266448
0.00239931
0.00213826
0.00208535
0.0022502
0.00261891
0.00328937
0.00441346
0.0056393
0.00672904
0.00710245
0.0133295
0.0645034
0.110812
0.110738
0.1064
0.10367
0.105814
0.116105
0.134819
0.00908003
0.0151581
0.00558521
0.00347091
0.00500374
0.00495181
0.00597269
0.00546844
0.00501808
0.004633
0.00330691
0.00217109
0.00169865
0.00157244
0.00198468
0.00216256
0.00194518
0.00171127
0.00164852
0.00175917
0.00198569
0.0024023
0.00326318
0.00440354
0.00554646
0.00586976
0.0115785
0.0602279
0.109817
0.109899
0.105803
0.103186
0.105633
0.115972
0.134839
0.00891508
0.013618
0.00468667
0.00344975
0.00506094
0.00490781
0.0057271
0.00509447
0.00461714
0.00414123
0.00290635
0.00200329
0.00160356
0.00145179
0.00172332
0.00186226
0.00167199
0.00147044
0.00141938
0.0015143
0.00166577
0.00189489
0.00246202
0.00338152
0.00446725
0.00473978
0.00980197
0.0557187
0.108871
0.10914
0.105284
0.10279
0.105557
0.11596
0.134994
0.00874002
0.0120079
0.00400307
0.00352728
0.00523371
0.00498374
0.00559256
0.00481797
0.00430053
0.00373857
0.00261423
0.00193188
0.00163302
0.00151127
0.00166663
0.00172291
0.00153211
0.0013541
0.00131926
0.00142068
0.00155539
0.00168929
0.00202379
0.00266493
0.00357739
0.00380244
0.00809758
0.0511018
0.108002
0.108488
0.104868
0.102508
0.10561
0.116097
0.135312
0.00855535
0.010397
0.00351839
0.0036945
0.00552614
0.00518569
0.00559012
0.00466075
0.00408949
0.00344445
0.00243292
0.00192752
0.00173025
0.00166254
0.00172744
0.0016782
0.00146625
0.00130299
0.00128489
0.00140326
0.0015575
0.00167526
0.00187446
0.00226683
0.00293772
0.00311954
0.00657941
0.0465537
0.107238
0.107966
0.104577
0.102365
0.105813
0.116409
0.135816
0.00836592
0.00886138
0.00322135
0.00395037
0.00594602
0.00551778
0.00573329
0.00463737
0.00399744
0.00327054
0.0023552
0.00196818
0.00184995
0.00183396
0.00182718
0.00166916
0.00142921
0.00127786
0.00127832
0.00141883
0.00160818
0.00175957
0.00191189
0.00212858
0.00255781
0.00270708
0.00535645
0.0423057
0.106613
0.107592
0.104429
0.102381
0.106188
0.116918
0.13653
0.00817267
0.00746554
0.00311133
0.00430251
0.00650726
0.00598739
0.00603137
0.00475776
0.00403199
0.00322101
0.00237061
0.00203951
0.00196296
0.00197852
0.001912
0.00165853
0.00139719
0.00126057
0.00128307
0.00145001
0.00167826
0.00188317
0.00204741
0.00216415
0.00239824
0.00253553
0.00449947
0.0386246
0.106167
0.107383
0.10444
0.102576
0.106752
0.117648
0.137475
0.00798033
0.00626355
0.00319624
0.0047675
0.00723128
0.00661328
0.00649401
0.00502911
0.00419649
0.00329223
0.0024666
0.00213556
0.00205723
0.00207626
0.00195662
0.00163096
0.00136276
0.0012467
0.00129541
0.00149401
0.00176164
0.00201978
0.00222079
0.00229478
0.00239762
0.00255087
0.00402012
0.0357574
0.105942
0.107349
0.104621
0.102964
0.107521
0.118617
0.13867
0.00778933
0.005292
0.00349161
0.00537325
0.00815013
0.0074266
0.00713684
0.00546027
0.0044939
0.00347919
0.00263627
0.00225571
0.00213294
0.00212404
0.0019561
0.00158553
0.00132697
0.00123758
0.00131671
0.00155316
0.00186176
0.00216393
0.00240079
0.00246431
0.00249809
0.00269875
0.00388069
0.0338584
0.105987
0.1075
0.104984
0.103559
0.10851
0.119845
0.14013
0.00760307
0.00456586
0.00402155
0.0061584
0.00930784
0.00847363
0.00798503
0.00606595
0.00492942
0.0037786
0.0028779
0.00240569
0.00219993
0.00213191
0.00191782
0.00152811
0.00129345
0.00123583
0.00134937
0.00163045
0.00198321
0.00231835
0.00257666
0.00264187
0.00265802
0.00293848
0.00402323
0.032957
0.106339
0.107841
0.105537
0.104375
0.10973
0.121349
0.141871
0.00742066
0.004074
0.00482734
0.00717129
0.01076
0.00981495
0.00907466
0.00686998
0.00551472
0.00419505
0.00320128
0.00259631
0.00227343
0.00211475
0.00185378
0.00146645
0.00126606
0.00124384
0.00139531
0.00172768
0.00212817
0.00248608
0.00274803
0.00281629
0.00285425
0.00324634
0.00439468
0.0329915
0.107024
0.108377
0.106285
0.10542
0.111193
0.123142
0.143906
0.00724378
0.00378148
0.00598298
0.00846789
0.0125712
0.0115207
0.0104502
0.00790605
0.00626789
0.00474041
0.00362404
0.00284618
0.00237412
0.00209242
0.00177815
0.001408
0.00124819
0.00126381
0.00145593
0.00184534
0.00229594
0.00266752
0.00291788
0.00298832
0.00307852
0.00361299
0.0049586
0.0338667
0.108051
0.109112
0.107233
0.106706
0.112909
0.125242
0.146247
0.00707145
0.00364639
0.00759942
0.0101169
0.0148157
0.0136662
0.0121612
0.00921327
0.00721342
0.00543464
0.00417338
0.00317988
0.00252624
0.00208478
0.0017045
0.00135939
0.00124324
0.00129823
0.00153229
0.00198218
0.00248322
0.0028603
0.00308931
0.0031642
0.00333204
0.00403859
0.00569699
0.0354933
0.109416
0.110045
0.108387
0.108241
0.114889
0.127661
0.148905
0.00690537
0.00364233
0.00980903
0.0122119
0.0175828
0.0163331
0.0142612
0.0108315
0.00837717
0.00629805
0.00487445
0.00362647
0.00275872
0.00211541
0.00164653
0.00132677
0.00125494
0.00135035
0.00162562
0.00213558
0.00268492
0.00306057
0.00326484
0.003352
0.00362089
0.00452886
0.00660751
0.0377996
0.111105
0.111178
0.109749
0.110033
0.11714
0.130412
0.151888
0.00674534
0.0037508
0.0127579
0.0148885
0.0209883
0.0196172
0.0168098
0.0127984
0.00978268
0.00734634
0.00574366
0.00420899
0.00309857
0.00220885
0.00161759
0.00131634
0.00128801
0.00142465
0.00173771
0.00230136
0.00289473
0.00326423
0.0034468
0.00355985
0.00395288
0.00509219
0.00769971
0.0407304
0.113095
0.112512
0.111322
0.112089
0.119671
0.13351
0.155206
0.00659312
0.0039683
0.0165762
0.0183386
0.0251808
0.0236302
0.0198715
0.0151436
0.0114422
0.00857824
0.0067711
0.00493283
0.00356157
0.00239253
0.00163336
0.00133545
0.00134855
0.00152716
0.0018717
0.00247516
0.00310618
0.00346807
0.00363794
0.00379542
0.00433589
0.00573838
0.00899175
0.0442408
0.115366
0.114045
0.113109
0.114418
0.12249
0.136965
0.158865
0.00644962
0.00431537
0.0213516
0.0228098
0.0303302
0.0284794
0.0234986
0.0178756
0.0133463
0.00996753
0.00791496
0.00576975
0.00413423
0.00268194
0.00171135
0.00139375
0.00144493
0.0016658
0.00203263
0.00265335
0.00331348
0.00367046
0.00384187
0.00406573
0.00477692
0.0064779
0.0105081
0.0482909
0.117893
0.115777
0.11511
0.117026
0.125604
0.140789
0.162872
0.00631698
0.00483944
0.0271119
0.0285812
0.0365917
0.0342182
0.027693
0.0209553
0.0154437
0.0114487
0.00909132
0.00665285
0.00476682
0.00306746
0.00186868
0.0015044
0.00158825
0.00185046
0.00222795
0.00283546
0.0035129
0.00387177
0.00406322
0.00437723
0.00528194
0.00732213
0.0122778
0.0528424
0.120656
0.117707
0.117328
0.11992
0.129019
0.144995
0.16723
0.00619775
0.00561531
0.0338469
0.0359216
0.0440505
0.0407794
0.0323569
0.0242668
0.0176255
0.0129117
0.0101803
0.00747715
0.005375
0.00349961
0.0021103
0.00168309
0.00179298
0.002093
0.00246728
0.00302519
0.00370355
0.00407446
0.00430758
0.0047356
0.00585584
0.00828353
0.0143338
0.0578564
0.123638
0.119832
0.119763
0.123106
0.132743
0.149591
0.171942
0.00609509
0.006728
0.0415612
0.0450446
0.0526642
0.0479206
0.0372547
0.0275968
0.0197142
0.0142
0.0110315
0.00811518
0.00585899
0.00390576
0.00241919
0.00194328
0.00207545
0.00240618
0.00276157
0.0032318
0.00388847
0.00428323
0.00458132
0.00514572
0.00650276
0.00937634
0.0167117
0.063293
0.126822
0.122151
0.122415
0.126589
0.136779
0.154589
0.177012
0.00601408
0.00825439
0.0503319
0.0560552
0.0622078
0.0552036
0.0420072
0.0306416
0.021477
0.0151292
0.0114907
0.00843807
0.00612315
0.0042089
0.00275557
0.00228763
0.00244953
0.00280107
0.00312088
0.00346882
0.00407489
0.00450482
0.00489125
0.00561142
0.00722634
0.0106169
0.0194487
0.069112
0.130195
0.124659
0.125284
0.130375
0.141134
0.159997
0.182439
0.00596079
0.0102439
0.0603017
0.0688452
0.0722137
0.0620078
0.0461228
0.0330388
0.0226555
0.0155179
0.0114311
0.00835265
0.0061052
0.00435675
0.00307353
0.00270197
0.00291887
0.0032819
0.00355111
0.00375287
0.00427454
0.00474796
0.00524427
0.00613529
0.00803026
0.0120243
0.0225832
0.0752733
0.133746
0.127353
0.12837
0.134467
0.145813
0.165825
0.188224
0.00594609
0.0127301
0.0716041
0.082923
0.0819221
0.0675853
0.0490655
0.0344274
0.0230195
0.0152384
0.0108073
0.00784304
0.00580131
0.00433318
0.00333682
0.00315715
0.00347049
0.00384013
0.00404902
0.00409916
0.00450299
0.00502302
0.00564686
0.00671842
0.00891855
0.0136206
0.0261532
0.0817387
0.137465
0.130228
0.13167
0.13887
0.150821
0.172084
0.194366
0.00598322
0.0157439
0.08419
0.0972525
0.0903008
0.0711695
0.0503527
0.0345217
0.0224247
0.0142651
0.00969509
0.00700742
0.00528685
0.00417205
0.00353227
0.00361911
0.00407393
0.0044513
0.00459872
0.00451759
0.00477883
0.00534169
0.00610456
0.00736028
0.009896
0.0154308
0.0301952
0.088472
0.141345
0.133277
0.135185
0.143589
0.156164
0.178785
0.200866
0.00609167
0.0193412
0.097647
0.110277
0.0962015
0.0721403
0.0496714
0.03319
0.0208667
0.0127071
0.00829928
0.0060442
0.0047008
0.00394435
0.00367008
0.00405921
0.00468813
0.00507728
0.00517076
0.00500623
0.0051213
0.00571614
0.00662127
0.00805839
0.0109683
0.0174832
0.0347428
0.0954411
0.145377
0.136494
0.138916
0.148632
0.161852
0.185944
0.207727
0.00628805
0.0235884
0.111092
0.120239
0.0986426
0.0701976
0.0469708
0.0305049
0.0184994
0.0107913
0.00688621
0.00517395
0.00419315
0.0037365
0.00377894
0.00446121
0.00527195
0.00567511
0.00572796
0.00554944
0.0055471
0.00615794
0.00719846
0.00880821
0.0121419
0.0198088
0.0398258
0.102618
0.149555
0.139873
0.142866
0.154008
0.167897
0.193581
0.214956
0.00658505
0.0285642
0.12333
0.125705
0.0971084
0.065468
0.0424984
0.0267456
0.0156099
0.00880019
0.00567925
0.00453696
0.00385751
0.00361023
0.00388862
0.00481913
0.00579202
0.00620582
0.00623327
0.0061175
0.00606521
0.00667587
0.00783428
0.00960281
0.0134243
0.0224408
0.0454696
0.10998
0.153874
0.143412
0.147041
0.159733
0.174317
0.201723
0.222565
0.00697682
0.0342818
0.133136
0.126
0.091704
0.0584812
0.0367464
0.0223355
0.0125466
0.00698581
0.0047792
0.00415411
0.00370557
0.00358513
0.00401691
0.00513269
0.00622709
0.00664275
0.00665971
0.00667579
0.00667218
0.00727349
0.00852273
0.0104328
0.0148231
0.0254146
0.0516945
0.117511
0.158333
0.147108
0.151454
0.16583
0.181136
0.210407
0.230574
0.00744499
0.0406313
0.139543
0.121291
0.0830886
0.0500252
0.0303319
0.0177435
0.0096379
0.00550871
0.00416909
0.00396045
0.00368471
0.00363592
0.00416028
0.00540001
0.00656632
0.00697254
0.00699344
0.00719163
0.00734881
0.00794567
0.00925303
0.0112865
0.0163465
0.0287675
0.0585178
0.125206
0.162932
0.150968
0.156122
0.172332
0.188387
0.219681
0.239012
0.00795396
0.0471481
0.141856
0.112344
0.0722391
0.0409451
0.0238564
0.0133845
0.00713113
0.00441559
0.00377018
0.00386514
0.0037194
0.00371834
0.00430272
0.00561803
0.0068083
0.00719554
0.00723595
0.00764517
0.00806263
0.00867674
0.0100098
0.0121504
0.0180027
0.0325388
0.0659554
0.133068
0.167678
0.155002
0.161072
0.179282
0.196111
0.229605
0.247916
0.00846726
0.0529367
0.139607
0.100184
0.0601859
0.031978
0.0178048
0.00956473
0.00516961
0.00366232
0.00350141
0.00379275
0.00374455
0.00378868
0.00442479
0.00578249
0.00695643
0.00731983
0.0073984
0.00802867
0.00877394
0.00944021
0.0107741
0.0130109
0.0198007
0.0367709
0.074026
0.141117
0.172586
0.159232
0.166339
0.186736
0.204363
0.240254
0.257338
0.00894498
0.056615
0.132471
0.0858359
0.0478285
0.0236648
0.0125057
0.00647591
0.00378268
0.00315997
0.00330152
0.00369874
0.00372366
0.0038233
0.00451616
0.00589279
0.00701825
0.00735928
0.00749928
0.00834901
0.00944568
0.0102031
0.0115264
0.0138559
0.0217512
0.0415109
0.0827555
0.149389
0.177678
0.163686
0.171966
0.194761
0.213203
0.251715
0.267337
0.0093615
0.0567844
0.120343
0.0702599
0.0358861
0.0163611
0.00816087
0.00421524
0.00288814
0.00282008
0.00312835
0.0035613
0.00364232
0.00381355
0.00457531
0.00595071
0.007001
0.00732732
0.00755734
0.00861939
0.0100503
0.0109322
0.0122504
0.014678
0.023868
0.0468127
0.0921825
0.157939
0.182987
0.168406
0.178006
0.203433
0.222702
0.264086
0.277982
0.0096768
0.052273
0.103376
0.0543797
0.024962
0.0103162
0.00490275
0.00276378
0.00233634
0.00256922
0.00294764
0.00336972
0.00349776
0.00376395
0.00461217
0.00596269
0.00691244
0.00723753
0.00759167
0.0088593
0.0105753
0.0116027
0.012937
0.0154767
0.0261705
0.0527402
0.102363
0.166844
0.188553
0.173441
0.184517
0.212839
0.232938
0.277472
0.28935
0.00988074
0.043034
0.0822957
0.039066
0.0155864
0.00572572
0.00277224
0.00192931
0.00197144
0.0023363
0.00272107
0.00310811
0.00327986
0.00367037
0.00463198
0.00592636
0.00675074
0.00709451
0.0076157
0.00908688
0.0110219
0.0122013
0.0135865
0.0162608
0.0286855
0.0593691
0.113371
0.176196
0.194425
0.178842
0.191557
0.223065
0.243987
0.291981
0.301517
4.88274e-24
3.15605e-19
1.14392e-18
4.32442e-18
2.50958e-17
3.16823e-14
9.06916e-11
0.0212929
0.105623
0.119215
0.12871
0.127621
0.123587
0.120974
0.106128
0.101068
0.0924552
0.0856499
0.0653458
0.0574361
0.0302116
0.0121461
4.99654e-24
7.39778e-20
8.36216e-20
6.25958e-18
6.26778e-17
2.47246e-13
9.28862e-10
0.0400686
0.124227
0.127093
0.129211
0.127048
0.122699
0.120889
0.106074
0.101199
0.0928993
0.085393
0.0647067
0.057241
0.0297746
0.012197
5.10254e-24
2.76636e-19
8.77989e-19
8.9047e-18
1.22413e-16
9.311e-13
9.35191e-09
0.062429
0.140876
0.133581
0.129444
0.126575
0.122016
0.120981
0.106217
0.101481
0.0935041
0.0852055
0.0643932
0.0566792
0.0292369
0.0123569
5.06237e-24
5.72597e-20
2.14761e-20
6.84928e-18
1.92271e-16
2.27969e-12
1.69613e-07
0.0860247
0.155298
0.138891
0.129673
0.126272
0.121584
0.121281
0.106583
0.101899
0.0942411
0.085093
0.0643936
0.0557812
0.0286328
0.0126154
5.16611e-24
2.21291e-19
6.32058e-19
7.22673e-18
2.87939e-16
3.60611e-12
6.53539e-06
0.10726
0.167487
0.143238
0.130084
0.126191
0.121442
0.121778
0.107156
0.102444
0.0950789
0.0850567
0.0646764
0.0546158
0.0280078
0.0129636
5.11438e-24
4.59227e-20
1.20654e-20
4.61336e-18
4.09384e-16
4.86465e-12
1.85677e-05
0.122203
0.177542
0.146853
0.130829
0.126391
0.121626
0.122509
0.107964
0.103108
0.0959847
0.085093
0.0652075
0.0532391
0.027372
0.0134188
5.22956e-24
1.78674e-19
4.73238e-19
4.63409e-18
5.79723e-16
5.05264e-12
3.4307e-05
0.128951
0.185635
0.149925
0.131995
0.126911
0.122165
0.123466
0.108991
0.103892
0.0969287
0.0851988
0.0659356
0.0517314
0.026751
0.0139945
5.17051e-24
3.80396e-20
7.87938e-21
2.77879e-18
7.71506e-16
4.36953e-12
2.56613e-05
0.12804
0.191898
0.152627
0.133649
0.127797
0.123081
0.12469
0.110272
0.104801
0.0978865
0.0853655
0.0668152
0.0501473
0.0261425
0.0147085
5.29821e-24
1.46645e-19
3.69456e-19
2.85977e-18
9.84865e-16
2.87563e-12
2.72737e-05
0.121447
0.196438
0.15507
0.13581
0.129073
0.12439
0.126172
0.111793
0.105849
0.0988435
0.0855867
0.06779
0.0485586
0.0255658
0.0155644
5.2238e-24
3.24407e-20
5.88674e-21
1.68621e-18
1.14692e-15
1.6866e-12
3.51297e-05
0.111023
0.199248
0.157333
0.138491
0.130772
0.126105
0.127953
0.113592
0.107052
0.099797
0.085852
0.0688188
0.0470056
0.0250119
0.0165657
5.35795e-24
1.2192e-19
2.97315e-19
1.84125e-18
1.25101e-15
8.51171e-13
3.99656e-05
0.0979461
0.200249
0.159426
0.141664
0.132907
0.128232
0.13002
0.115656
0.108438
0.100758
0.0861563
0.0698536
0.0455446
0.024496
0.0176978
5.27139e-24
2.8427e-20
4.69131e-21
1.08018e-18
1.23789e-15
4.15967e-13
4.09506e-05
0.0833006
0.199233
0.161317
0.145303
0.135501
0.130777
0.132407
0.118023
0.110027
0.101749
0.0864927
0.0708677
0.0441985
0.0240051
0.0189452
5.41236e-24
1.02856e-19
2.48086e-19
1.2622e-18
1.14715e-15
1.8908e-13
3.48048e-05
0.0679872
0.195929
0.162897