/*--------------------------------*- C++ -*----------------------------------*\
| =========                 |                                                 |
| \\      /  F ield         | OpenFOAM: The Open Source CFD Toolbox           |
|  \\    /   O peration     | Version:  v1912                                 |
|   \\  /    A nd           | Website:  www.openfoam.com                      |
|    \\/     M anipulation  |                                                 |
\*---------------------------------------------------------------------------*/
FoamFile
{
    version     2.0;
    format      ascii;
    class       volScalarField;
    location    "230";
    object      p;
}
// * * * * * * * * * * * * * * * * * * * * * * * * * * * * * * * * * * * * * //

dimensions      [0 2 -2 0 0 0 0];


internalField   nonuniform List<scalar> 
12441
(
8.45539
8.74582
9.57672
10.8663
12.5397
14.6542
17.2996
20.5844
24.6852
29.761
36.0342
43.7447
53.3936
65.6003
81.346
100.801
128.707
163.295
219.269
281.351
372.853
437.4
8.45538
8.74582
9.57671
10.8663
12.5397
14.6541
17.2996
20.5843
24.6851
29.7608
36.0338
43.744
53.3926
65.5987
81.343
100.794
128.691
163.271
219.187
281.275
372.802
437.2
8.45537
8.7458
9.57669
10.8662
12.5396
14.6541
17.2995
20.5841
24.6848
29.7603
36.0331
43.7428
53.3906
65.5953
81.337
100.78
128.667
163.215
219.016
281.093
372.666
436.838
8.45534
8.74577
9.57665
10.8662
12.5396
14.654
17.2993
20.5838
24.6844
29.7596
36.032
43.7409
53.3876
65.5904
81.328
100.76
128.635
163.13
218.836
280.813
372.42
436.275
8.45531
8.74574
9.57661
10.8661
12.5395
14.6538
17.299
20.5834
24.6838
29.7587
36.0305
43.7383
53.3835
65.5838
81.316
100.733
128.593
163.024
218.67
280.463
372.075
435.507
8.45528
8.74569
9.57655
10.866
12.5393
14.6536
17.2987
20.5829
24.683
29.7575
36.0287
43.7352
53.3785
65.5756
81.301
100.7
128.541
162.9
218.483
280.039
371.634
434.535
8.45523
8.74564
9.57648
10.8659
12.5392
14.6534
17.2984
20.5823
24.6821
29.7561
36.0265
43.7314
53.3724
65.5657
81.2831
100.66
128.481
162.754
218.264
279.545
371.104
433.359
8.45518
8.74558
9.5764
10.8658
12.539
14.6531
17.2979
20.5817
24.6811
29.7545
36.0239
43.7269
53.3654
65.5542
81.2622
100.615
128.414
162.587
218.026
278.994
370.489
431.976
8.45512
8.74551
9.57631
10.8657
12.5388
14.6528
17.2975
20.5809
24.6799
29.7526
36.021
43.7219
53.3573
65.5411
81.2389
100.566
128.345
162.408
217.788
278.398
369.793
430.381
8.45505
8.74544
9.5762
10.8655
12.5386
14.6524
17.2969
20.58
24.6786
29.7505
36.0177
43.7162
53.3482
65.5265
81.2142
100.517
128.279
162.226
217.574
277.769
369.017
428.57
8.45497
8.74535
9.57609
10.8654
12.5383
14.652
17.2963
20.579
24.6771
29.7482
36.0141
43.7098
53.3381
65.5107
81.1893
100.471
128.229
162.056
217.412
277.117
368.159
426.535
8.45489
8.74525
9.57596
10.8652
12.538
14.6516
17.2956
20.5779
24.6755
29.7456
36.01
43.7028
53.3271
65.4946
81.1672
100.438
128.22
161.93
217.329
276.444
367.214
424.268
8.4548
8.74515
9.57582
10.865
12.5377
14.6511
17.2949
20.5768
24.6738
29.7428
36.0057
43.6953
53.3154
65.4801
81.1554
100.435
128.288
161.888
217.331
275.744
366.173
421.757
8.4547
8.74504
9.57567
10.8647
12.5374
14.6506
17.2941
20.5755
24.6718
29.7398
36.0009
43.6871
53.3037
65.4711
81.1662
100.484
128.467
161.963
217.392
274.996
365.027
418.991
8.4546
8.74492
9.57551
10.8645
12.537
14.6501
17.2933
20.5741
24.6698
29.7365
35.9958
43.6783
53.2932
65.4743
81.2126
100.602
128.773
162.154
217.451
274.175
363.765
415.956
8.45448
8.74479
9.57534
10.8642
12.5367
14.6495
17.2924
20.5726
24.6676
29.733
35.9903
43.6692
53.2866
65.4973
81.3042
100.792
129.186
162.418
217.44
273.254
362.38
412.64
8.45436
8.74465
9.57515
10.864
12.5363
14.6488
17.2914
20.5711
24.6652
29.7292
35.9843
43.6602
53.288
65.5463
81.4423
101.044
129.651
162.667
217.303
272.214
360.863
409.028
8.45423
8.7445
9.57495
10.8637
12.5358
14.6482
17.2903
20.5694
24.6627
29.7252
35.978
43.6525
53.3023
65.6229
81.6185
101.331
130.083
162.812
217.014
271.046
359.209
405.107
8.4541
8.74435
9.57475
10.8634
12.5354
14.6475
17.2893
20.5676
24.6601
29.721
35.9712
43.6477
53.3333
65.7231
81.8166
101.612
130.392
162.791
216.576
269.746
357.415
400.862
8.45395
8.74418
9.57453
10.863
12.5349
14.6467
17.2881
20.5658
24.6573
29.7165
35.9641
43.6484
53.3815
65.8384
82.0136
101.844
130.512
162.594
216.013
268.319
355.479
396.278
8.4538
8.74401
9.57429
10.8627
12.5344
14.6459
17.2869
20.5638
24.6544
29.7118
35.957
43.6576
53.4439
65.958
82.1856
101.988
130.422
162.254
215.353
266.772
353.399
391.338
8.45364
8.74383
9.57405
10.8623
12.5338
14.6451
17.2856
20.5618
24.6513
29.7068
35.9502
43.6771
53.5146
66.0704
82.3106
102.022
130.151
161.826
214.623
265.112
351.177
386.028
8.45348
8.74364
9.5738
10.8619
12.5333
14.6442
17.2843
20.5596
24.648
29.7015
35.9446
43.7065
53.5874
66.1653
82.3752
101.948
129.758
161.355
213.839
263.35
348.814
380.33
8.4533
8.74344
9.57353
10.8616
12.5327
14.6433
17.2829
20.5573
24.6446
29.6959
35.9413
43.7433
53.6563
66.2344
82.3754
101.784
129.311
160.87
213.011
261.493
346.312
374.226
8.45312
8.74323
9.57325
10.8611
12.5321
14.6424
17.2814
20.555
24.6411
29.6901
35.9418
43.784
53.7164
66.2731
82.3181
101.559
128.86
160.38
212.143
259.552
343.674
367.696
8.45293
8.74302
9.57296
10.8607
12.5314
14.6414
17.2799
20.5525
24.6373
29.684
35.947
43.8251
53.7644
66.2806
82.2159
101.303
128.435
159.883
211.238
257.536
340.904
360.721
8.45274
8.74279
9.57266
10.8603
12.5308
14.6404
17.2783
20.55
24.6335
29.6778
35.9571
43.8634
53.7985
66.2596
82.0847
101.04
128.041
159.374
210.294
255.455
338.003
353.278
8.45253
8.74256
9.57235
10.8598
12.5301
14.6393
17.2767
20.5474
24.6294
29.6716
35.9714
43.8966
53.8177
66.2152
81.9378
100.783
127.674
158.847
209.31
253.316
334.974
345.344
8.45232
8.74232
9.57202
10.8593
12.5294
14.6382
17.275
20.5446
24.6252
29.6656
35.9882
43.9234
53.8227
66.1531
81.786
100.539
127.325
158.301
208.287
251.127
331.816
336.891
8.4521
8.74207
9.57169
10.8588
12.5287
14.6371
17.2732
20.5418
24.6209
29.6598
36.0057
43.9429
53.8147
66.0792
81.6349
100.308
126.984
157.734
207.224
248.891
328.527
327.894
8.45188
8.74181
9.57134
10.8583
12.5279
14.6359
17.2714
20.5388
24.6163
29.6544
36.0226
43.9549
53.7956
65.9979
81.488
100.086
126.646
157.147
206.121
246.612
325.104
318.32
8.45164
8.74154
9.57098
10.8578
12.5271
14.6347
17.2695
20.5358
24.6116
29.6496
36.0378
43.9595
53.7674
65.9128
81.3457
99.8713
126.306
156.54
204.978
244.288
321.538
308.138
8.4514
8.74127
9.57061
10.8572
12.5263
14.6334
17.2676
20.5326
24.6067
29.6455
36.0506
43.9572
53.7323
65.8261
81.2078
99.6604
125.962
155.915
203.796
241.921
317.822
297.314
8.45115
8.74098
9.57023
10.8567
12.5255
14.6321
17.2656
20.5293
24.6017
29.6425
36.0606
43.9486
53.6918
65.739
81.073
99.4512
125.611
155.273
202.574
239.509
313.943
285.81
8.4509
8.74069
9.56983
10.8561
12.5246
14.6308
17.2635
20.526
24.5965
29.6406
36.0676
43.9347
53.6477
65.6522
80.9406
99.2416
125.254
154.615
201.313
237.053
309.891
273.586
8.45063
8.74039
9.56943
10.8555
12.5237
14.6294
17.2614
20.5225
24.5911
29.6401
36.0716
43.9162
53.6009
65.5661
80.8093
99.0308
124.89
153.943
200.014
234.553
305.654
260.603
8.45036
8.74008
9.56901
10.8549
12.5228
14.628
17.2592
20.5189
24.5856
29.6416
36.0729
43.8941
53.5524
65.4807
80.6786
98.8176
124.519
153.255
198.677
232.012
301.22
246.817
8.45008
8.73976
9.56858
10.8542
12.5218
14.6265
17.257
20.5153
24.5803
29.6459
36.0721
43.8691
53.5028
65.3959
80.5476
98.6018
124.142
152.555
197.305
229.436
296.579
232.18
8.44979
8.73943
9.56814
10.8536
12.5209
14.625
17.2547
20.5115
24.576
29.6537
36.0694
43.8421
53.4525
65.3117
80.4161
98.383
123.758
151.842
195.898
226.828
291.724
216.645
8.4495
8.73909
9.56768
10.8529
12.5199
14.6235
17.2523
20.5076
24.5747
29.665
36.0651
43.8135
53.4019
65.2281
80.2836
98.1614
123.368
151.117
194.459
224.194
286.649
200.16
8.4492
8.73875
9.56722
10.8522
12.5189
14.6219
17.2499
20.5035
24.5791
29.6798
36.0596
43.7839
53.351
65.1451
80.1503
97.9367
122.972
150.381
192.991
221.54
281.352
182.67
8.44889
8.7384
9.56674
10.8515
12.5178
14.6203
17.2474
20.4996
24.5918
29.6976
36.0527
43.7536
53.2997
65.0628
80.0159
97.7095
122.571
149.633
191.5
218.867
275.832
164.129
8.44857
8.73803
9.56626
10.8508
12.5168
14.6187
17.2448
20.4964
24.6146
29.7177
36.0443
43.7232
53.2481
64.9814
79.8805
97.4797
122.164
148.873
189.988
216.171
270.063
144.449
8.44825
8.73766
9.56576
10.8501
12.5157
14.617
17.2422
20.4965
24.6466
29.739
36.0345
43.6932
53.1966
64.9007
79.7442
97.2483
121.754
148.099
188.462
213.441
263.966
122.892
-17.3517
-29.1029
-33.387
-24.3058
-18.538
-15.4704
-14.0652
-13.0646
-11.4463
-6.95431
-1.00572
4.6725
6.93438
3.52998
2.01571
7.88908
16.0613
20.1355
19.3739
16.5421
13.7782
11.2649
9.10454
7.42542
6.03196
2.31036
-2.76256
-1.04433
8.71374
7.59981
5.5416
3.797
2.65123
1.4442
0.665156
-17.3762
-29.1118
-33.415
-24.3038
-18.5318
-15.4661
-14.0633
-13.0628
-11.4444
-6.95342
-1.00497
4.67057
6.93586
3.53847
2.02872
7.90316
16.0736
20.145
19.3798
16.546
13.7813
11.2676
9.10696
7.42767
6.03559
2.31256
-2.76146
-1.08031
8.70367
7.59943
5.5419
3.79712
2.65124
1.44422
0.665158
-17.4167
-29.1427
-33.4641
-24.2997
-18.5233
-15.4599
-14.0611
-13.0616
-11.4439
-6.95312
-1.00374
4.67348
6.94209
3.55054
2.04734
7.93021
16.1069
20.1769
19.4018
16.5574
13.7876
11.2722
9.11084
7.43121
6.04036
2.31476
-2.76006
-1.11295
8.69372
7.59921
5.54225
3.79725
2.65127
1.44425
0.665166
-17.4734
-29.2038
-33.5346
-24.2972
-18.5136
-15.4524
-14.0582
-13.0607
-11.4442
-6.95312
-1.00218
4.67888
6.94991
3.56305
2.06655
7.96227
16.153
20.2262
19.4394
16.5774
13.7979
11.2793
9.11646
7.43618
6.04605
2.31861
-2.75468
-1.1346
8.68423
7.59914
5.54264
3.79741
2.65131
1.44429
0.66518
-17.5458
-29.2988
-33.6235
-24.2983
-18.5018
-15.4436
-14.0543
-13.0603
-11.4452
-6.95355
-1.00048
4.68523
6.95822
3.57359
2.08072
7.98821
16.1955
20.2759
19.4814
16.602
13.8116
11.2889
9.12396
7.44273
6.05288
2.32543
-2.74493
-1.14325
8.67562
7.59927
5.54306
3.7976
2.65136
1.44435
0.665198
-17.6323
-29.4312
-33.7269
-24.3026
-18.4871
-15.433
-14.0493
-13.0605
-11.4468
-6.95422
-0.999055
4.69201
6.96686
3.58253
2.09054
8.0065
16.2281
20.3168
19.5197
16.6277
13.8278
11.3008
9.1333
7.45084
6.06096
2.33601
-2.72997
-1.13889
8.66791
7.59958
5.54352
3.7978
2.65143
1.44442
0.66522
-17.7313
-29.6028
-33.8407
-24.3104
-18.4698
-15.421
-14.0432
-13.0616
-11.4491
-6.95519
-0.997936
4.69877
6.97601
3.59113
2.09887
8.02019
16.2518
20.347
19.5505
16.6518
13.8454
11.3147
9.14432
7.46037
6.07025
2.35054
-2.70906
-1.12182
8.66101
7.60005
5.544
3.79801
2.65149
1.44449
0.665244
-17.8412
-29.8132
-33.9607
-24.3223
-18.4511
-15.4082
-14.0366
-13.0635
-11.452
-6.95658
-0.997317
4.70492
6.98498
3.59969
2.10755
8.03192
16.2689
20.3674
19.5727
16.6719
13.8627
11.3295
9.15661
7.47106
6.08055
2.36868
-2.68214
-1.0923
8.65487
7.60066
5.5445
3.79823
2.65156
1.44457
0.665266
-17.9601
-30.0592
-34.0826
-24.3391
-18.4326
-15.3956
-14.03
-13.0663
-11.4557
-6.95875
-0.997405
4.70977
6.99272
3.60755
2.11634
8.04199
16.2803
20.3793
19.5862
16.6866
13.8776
11.3439
9.16942
7.4825
6.0916
2.38968
-2.64984
-1.05066
8.64939
7.6014
5.54501
3.79843
2.65161
1.44464
0.665286
-18.0862
-30.3347
-34.2028
-24.3605
-18.4157
-15.384
-14.0239
-13.0701
-11.4602
-6.96194
-0.998364
4.71256
6.99815
3.61396
2.12419
8.04939
16.286
20.3833
19.5916
16.6949
13.8885
11.3563
9.18171
7.49408
6.10299
2.4125
-2.61329
-0.997324
8.64458
7.60225
5.54552
3.79863
2.65165
1.4447
0.665301
-18.2175
-30.6308
-34.3184
-24.3859
-18.4017
-15.3742
-14.019
-13.0748
-11.4658
-6.96646
-1.00045
4.71311
7.0009
3.61858
2.13008
8.05308
16.2858
20.3804
19.59
16.6969
13.8943
11.3652
9.19227
7.50499
6.11424
2.43591
-2.57396
-0.933007
8.64043
7.60319
5.54604
3.79879
2.65167
1.44475
0.665309
-18.3521
-30.9368
-34.4275
-24.4138
-18.3912
-15.3669
-14.0157
-13.0805
-11.4724
-6.97233
-1.00368
4.71149
7.00115
3.62159
2.13381
8.05311
16.2804
20.3717
19.5827
16.6934
13.8951
11.37
9.2001
7.51434
6.12472
2.45867
-2.53365
-0.858697
8.6371
7.60419
5.54655
3.79893
2.65167
1.44478
0.665309
-18.4877
-31.2403
-34.5288
-24.4425
-18.3848
-15.3624
-14.0145
-13.087
-11.4801
-6.97962
-1.00816
4.70845
6.99954
3.62342
2.13567
8.05026
16.2708
20.3585
19.5713
16.686
13.8918
11.3709
9.20475
7.52141
6.13384
2.47977
-2.49447
-0.776037
8.63479
7.60525
5.54704
3.79904
2.65163
1.44479
0.665297
-18.6222
-31.5287
-34.621
-24.4701
-18.3824
-15.3611
-14.0158
-13.0946
-11.4891
-6.98824
-1.01376
4.7045
6.99664
3.6244
2.13637
8.0458
16.2584
20.3419
19.5567
16.6759
13.8857
11.3689
9.20645
7.52593
6.14115
2.49873
-2.45873
-0.687477
8.63385
7.60633
5.54752
3.79909
2.65156
1.44477
0.665274
-18.7532
-31.7897
-34.7031
-24.4947
-18.384
-15.3632
-14.0196
-13.1035
-11.4993
-6.99827
-1.02054
4.70044
6.99302
3.62474
2.13645
8.04075
16.244
20.3224
19.5397
16.664
13.8781
11.365
9.20598
7.52816
6.1466
2.51569
-2.42842
-0.596778
8.63471
7.60744
5.54797
3.79911
2.65145
1.44472
0.665237
-18.8782
-32.0127
-34.774
-24.5145
-18.3893
-15.3691
-14.0263
-13.1138
-11.5109
-7.00972
-1.02836
4.69636
6.98889
3.62447
2.13649
8.03591
16.2281
20.3002
19.5203
16.6506
13.8696
11.3602
9.20419
7.52872
6.15052
2.53115
-2.40448
-0.508858
8.63786
7.60854
5.5484
3.79907
2.6513
1.44464
0.665186
-18.9945
-32.1905
-34.833
-24.5277
-18.3986
-15.3789
-14.0359
-13.1259
-11.5241
-7.02284
-1.03735
4.69258
6.98447
3.62361
2.13679
8.03161
16.2109
20.2753
19.4984
16.6357
13.8603
11.3549
9.2018
7.52828
6.15346
2.54571
-2.38635
-0.429213
8.64367
7.60965
5.5488
3.79897
2.6511
1.44452
0.66512
-19.0993
-32.3206
-34.8806
-24.5327
-18.4129
-15.3929
-14.0486
-13.1403
-11.5392
-7.03781
-1.04749
4.68864
6.97948
3.62205
2.13775
8.02805
16.1921
20.2474
19.4739
16.6192
13.8504
11.3494
9.19919
7.52738
6.15593
2.55985
-2.37238
-0.362266
8.65233
7.61073
5.54917
3.79882
2.65086
1.44437
0.665039
-19.1899
-32.4051
-34.9181
-24.5298
-18.4322
-15.4111
-14.065
-13.1576
-11.557
-7.05519
-1.05924
4.68454
6.97378
3.61976
2.13956
8.02515
16.1717
20.2164
19.4466
16.6009
13.8396
11.3436
9.1965
7.52634
6.15833
2.57385
-2.36067
-0.310176
8.6637
7.6118
5.5495
3.7986
2.65057
1.44418
0.664942
-19.2639
-32.4493
-34.9479
-24.5207
-18.4557
-15.4337
-14.0855
-13.1787
-11.5781
-7.07553
-1.073
4.67941
6.96673
3.61656
2.14253
8.02293
16.1493
20.182
19.4165
16.581
13.8279
11.3374
9.19374
7.5253
6.16085
2.58791
-2.34971
-0.272288
8.67744
7.61282
5.54978
3.79832
2.65023
1.44394
0.664828
-19.3195
-32.4592
-34.9715
-24.5069
-18.4824
-15.4612
-14.111
-13.2047
-11.6039
-7.09986
-1.08978
4.67304
6.9581
3.61239
2.14673
8.0212
16.1248
20.1442
19.3836
16.5594
13.8152
11.3308
9.19087
7.52434
6.16358
2.60217
-2.33862
-0.246109
8.69295
7.61383
5.55003
3.79797
2.64984
1.44367
0.664699
-19.3576
-32.4413
-34.9872
-24.4899
-18.5112
-15.4937
-14.1422
-13.2368
-11.6356
-7.12918
-1.11046
4.66422
6.94719
3.60706
2.15235
8.01993
16.0978
20.1027
19.3479
16.5362
13.8018
11.3237
9.18785
7.52343
6.16652
2.6167
-2.32693
-0.228275
8.7097
7.61478
5.55022
3.79756
2.6494
1.44335
0.664555
-19.3821
-32.3973
-34.9903
-24.47
-18.5409
-15.5315
-14.1804
-13.2769
-11.6751
-7.16497
-1.13629
4.65285
6.93379
3.60026
2.15918
8.01878
16.0682
20.0576
19.3095
16.5116
13.7876
11.3162
9.18468
7.52256
6.16965
2.63156
-2.31448
-0.21571
8.72715
7.61573
5.55037
3.79707
2.64891
1.443
0.664394
-19.3955
-32.3263
-34.9754
-24.4469
-18.5704
-15.5753
-14.2266
-13.3264
-11.7238
-7.20834
-1.16789
4.63789
6.91716
3.59125
2.16693
8.01752
16.0356
20.0086
19.2684
16.4857
13.7726
11.3082
9.18136
7.52169
6.17291
2.64673
-2.3012
-0.205808
8.745
7.61663
5.55045
3.79652
2.64837
1.4426
0.664219
-19.3968
-32.2297
-34.9325
-24.4191
-18.5987
-15.6256
-14.2826
-13.3875
-11.7839
-7.26066
-1.20574
4.62016
6.89745
3.57896
2.17445
8.01534
15.9996
19.9556
19.2246
16.4585
13.7571
11.3
9.1779
7.52077
6.17627
2.66218
-2.28711
-0.196767
8.76299
7.61753
5.55048
3.79588
2.64778
1.44216
0.664029
-19.3851
-32.111
-34.8458
-24.3838
-18.6249
-15.6833
-14.3495
-13.4616
-11.8567
-7.3223
-1.24898
4.5997
6.87453
3.56203
2.18024
8.01132
15.9598
19.8988
19.1783
16.4301
13.741
11.2914
9.17433
7.51976
6.17965
2.67785
-2.27222
-0.187154
8.7811
7.61842
5.55044
3.79518
2.64714
1.44168
0.663826
-19.3598
-31.9749
-34.6971
-24.3364
-18.6482
-15.7489
-14.4289
-13.5501
-11.9434
-7.39331
-1.29623
4.5791
6.84977
3.53972
2.18217
8.0039
15.9156
19.838
19.1296
16.4006
13.7244
11.2826
9.17065
7.51863
6.18302
2.6937
-2.25659
-0.176095
8.7993
7.61932
5.55034
3.79439
2.64646
1.44116
0.663609
-19.321
-31.8275
-34.4728
-24.2709
-18.6677
-15.8224
-14.5203
-13.6525
-12.0429
-7.47175
-1.34437
4.55964
6.82413
3.5123
2.17888
7.99183
15.8665
19.7733
19.0785
16.3699
13.7073
11.2735
9.16684
7.5173
6.18632
2.70966
-2.24022
-0.162762
8.81774
7.62024
5.55017
3.79352
2.64572
1.4406
0.663379
-19.2695
-31.6769
-34.1702
-24.1805
-18.6832
-15.9025
-14.6222
-13.7671
-12.1535
-7.55472
-1.38982
4.54506
6.79973
3.48147
2.16973
7.97396
15.8123
19.7051
19.0253
16.3382
13.6897
11.2643
9.16291
7.51574
6.18952
2.72571
-2.22317
-0.146708
8.8365
7.62122
5.54993
3.79258
2.64494
1.44
0.663138
-19.2074
-31.5324
-33.7992
-24.0593
-18.6946
-15.9867
-14.7298
-13.8886
-12.2698
-7.6368
-1.42766
4.53662
6.77725
3.44972
2.15609
7.95053
15.7531
19.6335
18.9703
16.3056
13.6717
11.255
9.15881
7.51387
6.19254
2.74177
-2.20543
-0.127358
8.85578
7.62224
5.54961
3.79155
2.64411
1.43936
0.662886
-19.1386
-31.4029
-33.3767
-23.9039
-18.7032
-16.071
-14.8367
-14.0104
-12.3855
-7.712
-1.4536
4.53707
6.75786
3.4198
2.13994
7.92237
15.6894
19.5593
18.9138
16.2721
13.6533
11.2456
9.15452
7.51164
6.19535
2.75781
-2.18706
-0.104484
8.87568
7.62337
5.54923
3.79043
2.64323
1.43869
0.662624
-19.0689
-31.2973
-32.9201
-23.7169
-18.7108
-16.1495
-14.934
-14.1234
-12.4918
-7.77312
-1.46397
4.54519
6.74064
3.39383
2.12446
7.89173
15.6226
19.4832
18.8564
16.2379
13.6345
11.236
9.14996
7.50897
6.19789
2.77376
-2.16804
-0.0776371
8.89642
7.62458
5.54876
3.78923
2.64231
1.43798
0.662353
-19.0045
-31.2245
-32.445
-23.5091
-18.7202
-16.2162
-15.0128
-14.219
-12.581
-7.81482
-1.45819
4.55986
6.72466
3.37286
2.11177
7.86043
15.554
19.406
18.7985
16.2032
13.6155
11.2263
9.1451
7.50581
6.20011
2.78959
-2.14848
-0.0467307
8.91809
7.62594
5.54822
3.78794
2.64135
1.43723
0.662073
-18.9514
-31.1959
-31.9678
-23.3008
-18.7347
-16.2647
-15.0648
-14.2891
-12.6456
-7.83376
-1.4391
4.57566
6.7069
3.3566
2.10397
7.83069
15.485
19.3286
18.7405
16.1683
13.5961
11.2165
9.13985
7.50207
6.20195
2.80522
-2.12833
-0.0113794
8.94089
7.62743
5.5476
3.78656
2.64034
1.43644
0.661784
-18.9141
-31.2271
-31.5073
-23.1186
-18.7573
-16.291
-15.0858
-14.3298
-12.6823
-7.83128
-1.41328
4.58789
6.68475
3.34359
2.10108
7.80316
15.4165
19.2516
18.6831
16.1335
13.5765
11.2064
9.13414
7.49772
6.20337
2.82062
-2.10774
0.0283967
8.9649
7.62911
5.5469
3.78509
2.63928
1.43562
0.661489
-18.8948
-31.3391
-31.0832
-22.9881
-18.7897
-16.2935
-15.0751
-14.3406
-12.6904
-7.81235
-1.3887
4.59069
6.65488
3.33185
2.103
7.77853
15.3491
19.1754
18.6265
16.0991
13.5568
11.1962
9.12788
7.49267
6.2043
2.83569
-2.08666
0.0729419
8.9903
7.63097
5.54611
3.78352
2.63818
1.43476
0.661186
-18.8924
-31.5566
-30.711
-22.9273
-18.8327
-16.2747
-15.0376
-14.3255
-12.6736
-7.7853
-1.37191
4.58182
6.61596
3.31935
2.10796
7.756
15.2828
19.1001
18.5707
16.0656
13.5372
11.1856
9.121
7.48691
6.20472
2.85039
-2.06526
0.122168
9.01714
7.63306
5.54525
3.78185
2.63703
1.43386
0.660875
-18.9028
-31.9032
-30.3986
-22.9423
-18.8851
-16.2394
-14.981
-14.2898
-12.6378
-7.75835
-1.36561
4.56032
6.56719
3.30475
2.11526
7.73563
15.2177
19.0255
18.5157
16.033
13.5179
11.1748
9.11344
7.48039
6.20455
2.8646
-2.04348
0.176442
9.04562
7.63536
5.54428
3.78007
2.63583
1.43291
0.660556
-18.9194
-32.3882
-30.1459
-23.029
-18.9451
-16.1942
-14.9143
-14.2391
-12.5922
-7.73743
-1.36892
4.52833
6.50977
3.28768
2.12395
7.71667
15.1532
18.9514
18.4613
16.0015
13.4991
11.1638
9.10518
7.47317
6.20383
2.87823
-2.02153
0.235716
9.07579
7.63794
5.54322
3.77817
2.63458
1.43191
0.660228
-18.9346
-32.9876
-29.9485
-23.1765
-19.0098
-16.1453
-14.8442
-14.1782
-12.5471
-7.72362
-1.37938
4.48725
6.44495
3.26935
2.13518
7.69946
15.089
18.877
18.4069
15.9707
13.481
11.1526
9.09628
7.46525
6.20245
2.89108
-1.99925
0.30049
9.10784
7.64075
5.54203
3.77613
2.63326
1.43086
0.659889
-18.9404
-33.6223
-29.7993
-23.3706
-19.076
-16.0973
-14.7737
-14.1146
-12.5106
-7.7151
-1.39547
4.43903
6.37598
3.25253
2.1496
7.68263
15.0236
18.8016
18.3522
15.9406
13.4638
11.1414
9.08692
7.45677
6.2004
2.9031
-1.97679
0.37025
9.1415
7.64381
5.54074
3.77394
2.63187
1.42975
0.659539
-18.9284
-34.1434
-29.6894
-23.594
-19.1392
-16.0511
-14.7039
-14.0595
-12.4837
-7.70966
-1.41696
4.38513
6.30732
3.2408
2.16725
7.66375
14.955
18.7244
18.2969
15.9111
13.4479
11.1309
9.07734
7.44767
6.19755
2.9143
-1.95445
0.443213
9.17581
7.64695
5.53931
3.77161
2.63041
1.42857
0.659173
-18.8942
-34.3472
-29.6057
-23.8279
-19.1932
-16.0044
-14.6403
-14.0211
-12.4633
-7.70756
-1.44286
4.33129
6.24655
3.23549
2.1821
7.63629
14.881
18.6462
18.2425
15.8833
13.4343
11.1215
9.06745
7.43772
6.19389
2.92489
-1.93361
0.516663
9.21011
7.65024
5.53781
3.76912
2.62886
1.42731
0.658786
-18.8891
-34.0639
-29.5312
-24.0595
-19.2358
-15.9575
-14.5933
-13.9987
-12.4475
-7.70918
-1.47003
4.28254
6.19544
3.23081
2.18443
7.59596
14.8041
18.5713
18.1924
15.8593
13.4234
11.1123
9.05546
7.42513
6.18796
2.93209
-1.91224
0.607724
9.25454
7.65504
5.53593
3.76628
2.6272
1.42597
0.658398
8.44799
8.73737
9.56536
10.8495
12.5148
14.6156
17.2401
20.5058
24.6769
29.7549
36.0259
43.6716
53.1588
64.8379
79.6385
97.0678
121.433
147.483
187.273
211.28
258.929
101.23
8.4478
8.73715
9.56507
10.8491
12.5142
14.6146
17.2385
20.521
24.6987
29.764
36.0187
43.6575
53.1339
64.7922
79.5621
96.9377
121.2
147.029
186.409
209.708
255.082
98.3242
8.4476
8.73692
9.56476
10.8486
12.5135
14.6136
17.2369
20.54
24.7168
29.7697
36.0102
43.6432
53.1094
64.7457
79.4844
96.8035
120.958
146.557
185.523
208.075
251.077
100.021
8.44739
8.73668
9.56443
10.8481
12.5128
14.6125
17.2351
20.5591
24.7311
29.7726
36.0009
43.6284
53.0845
64.6985
79.4047
96.6645
120.706
146.066
184.612
206.375
246.959
99.9267
8.44716
8.73643
9.56409
10.8476
12.512
14.6113
17.2333
20.5754
24.7421
29.7733
35.9916
43.6134
53.0594
64.6505
79.3233
96.5198
120.442
145.554
183.671
204.607
242.717
98.1485
8.44693
8.73616
9.56373
10.8471
12.5112
14.6101
17.2314
20.5861
24.75
29.7722
35.9825
43.5982
53.0341
64.6017
79.2394
96.3691
120.165
145.019
182.695
202.773
238.348
96.1144
8.44668
8.73587
9.56334
10.8465
12.5104
14.6088
17.2294
20.589
24.7551
29.7697
35.9738
43.5831
53.0089
64.5521
79.1534
96.2117
119.872
144.462
181.677
200.874
233.856
94.2201
8.44642
8.73558
9.56294
10.8459
12.5095
14.6074
17.2272
20.5845
24.7574
29.7661
35.9658
43.5681
52.9836
64.5014
79.0645
96.0476
119.564
143.879
180.613
198.912
229.246
92.3034
8.44614
8.73526
9.56252
10.8453
12.5086
14.6059
17.225
20.5745
24.7572
29.7616
35.9583
43.5533
52.9585
64.4497
78.9731
95.876
119.238
143.271
179.496
196.885
224.522
90.2662
8.44585
8.73493
9.56207
10.8447
12.5076
14.6044
17.2226
20.5606
24.7544
29.7562
35.9515
43.5388
52.9332
64.3969
78.8783
95.6969
118.894
142.636
178.321
194.795
219.689
88.1329
8.44555
8.73458
9.56159
10.844
12.5066
14.6027
17.2201
20.544
24.7488
29.7501
35.9452
43.5246
52.908
64.3429
78.7806
95.5098
118.53
141.972
177.082
192.639
214.752
85.9383
8.44522
8.7342
9.56109
10.8432
12.5055
14.601
17.2174
20.5257
24.7403
29.743
35.9392
43.5105
52.8825
64.2874
78.679
95.3146
118.146
141.277
175.774
190.418
209.715
83.6935
8.44488
8.73381
9.56056
10.8425
12.5043
14.5992
17.2146
20.5064
24.7283
29.7348
35.9333
43.4967
52.8568
64.2305
78.5738
95.1108
117.742
140.55
174.395
188.13
204.583
81.4026
8.44452
8.7334
9.56
10.8416
12.5031
14.5972
17.2116
20.4872
24.7126
29.7252
35.9273
43.483
52.8306
64.1718
78.4642
94.8982
117.317
139.79
172.94
185.774
199.363
79.0744
8.44413
8.73296
9.5594
10.8408
12.5018
14.5951
17.2085
20.4689
24.6924
29.7136
35.9207
43.4694
52.804
64.1111
78.3503
94.6761
116.871
138.994
171.407
183.349
194.057
76.7212
8.44372
8.73249
9.55877
10.8398
12.5004
14.593
17.2051
20.4522
24.6676
29.6994
35.913
43.4557
52.7767
64.0481
78.2312
94.4442
116.403
138.162
169.793
180.852
188.672
74.3562
8.44329
8.732
9.55811
10.8389
12.499
14.5906
17.2015
20.4376
24.638
29.6818
35.9036
43.4418
52.7488
63.9825
78.1069
94.2017
115.912
137.292
168.098
178.282
183.212
71.9935
8.44284
8.73148
9.5574
10.8378
12.4974
14.5882
17.1978
20.4251
24.604
29.66
35.8915
43.4273
52.7199
63.9141
77.9765
93.9481
115.397
136.382
166.321
175.638
177.68
69.6471
8.44236
8.73092
9.55665
10.8367
12.4958
14.5856
17.1938
20.4146
24.5665
29.6331
35.8755
43.4118
52.6902
63.8425
77.8398
93.6825
114.858
135.431
164.46
172.919
172.081
67.3297
8.44184
8.73034
9.55586
10.8356
12.4941
14.5828
17.1895
20.4056
24.5271
29.6002
35.8542
43.3946
52.6593
63.7675
77.696
93.4043
114.293
134.438
162.515
170.123
166.419
65.0518
8.4413
8.72972
9.55502
10.8344
12.4922
14.5799
17.185
20.3975
24.4875
29.5609
35.8258
43.3744
52.6271
63.6886
77.5448
93.1123
113.701
133.4
160.485
167.248
160.699
62.8204
8.44073
8.72906
9.55413
10.8331
12.4903
14.5768
17.1802
20.3897
24.4497
29.5154
35.7881
43.3497
52.5928
63.6057
77.3851
92.8059
113.079
132.316
158.37
164.293
154.926
60.6382
8.44012
8.72836
9.55319
10.8317
12.4882
14.5735
17.1751
20.3819
24.4153
29.4646
35.7392
43.3178
52.5558
63.5183
77.2166
92.484
112.428
131.184
156.169
161.257
149.105
58.5034
8.43947
8.72762
9.55218
10.8302
12.4861
14.57
17.1696
20.3739
24.3852
29.4104
35.6778
43.2755
52.5144
63.426
77.0384
92.1457
111.744
130.003
153.882
158.138
143.245
56.4086
8.43878
8.72683
9.55112
10.8286
12.4837
14.5663
17.1638
20.3654
24.3592
29.355
35.6036
43.2183
52.466
63.3282
76.85
91.7899
111.026
128.769
151.507
154.934
137.353
54.3418
8.43805
8.726
9.54998
10.827
12.4813
14.5623
17.1577
20.3563
24.3365
29.301
35.5182
43.1414
52.4061
63.2235
76.6503
91.4157
110.273
127.482
149.045
151.645
131.44
52.2863
8.43727
8.72511
9.54878
10.8252
12.4786
14.5582
17.1512
20.3466
24.3161
29.25
35.4249
43.0411
52.3282
63.1098
76.4387
91.022
109.484
126.139
146.495
148.267
125.515
50.222
8.43644
8.72416
9.5475
10.8234
12.4758
14.5537
17.1443
20.3362
24.2968
29.203
35.3283
42.9159
52.2233
62.983
76.2133
90.6079
108.656
124.738
143.856
144.8
119.591
48.1261
8.43556
8.72316
9.54614
10.8214
12.4729
14.549
17.1369
20.3252
24.2776
29.1599
35.2329
42.7687
52.0817
62.8362
75.9718
90.1719
107.79
123.278
141.129
141.242
113.681
45.975
8.43462
8.72209
9.5447
10.8193
12.4697
14.544
17.1291
20.3134
24.2581
29.1199
35.1422
42.6064
51.8954
62.6583
75.7091
89.7125
106.883
121.756
138.312
137.592
107.799
43.7449
8.43363
8.72096
9.54316
10.817
12.4664
14.5387
17.1207
20.3008
24.2378
29.0818
35.0579
42.4385
51.6634
62.4353
75.4174
89.2265
105.934
120.17
135.408
133.848
101.958
41.4141
8.43257
8.71975
9.54152
10.8146
12.4628
14.533
17.1119
20.2874
24.2164
29.0443
34.9799
42.2738
51.3933
62.1531
75.083
88.7091
104.943
118.521
132.416
130.011
96.1737
38.9635
8.43144
8.71846
9.53978
10.8121
12.459
14.527
17.1025
20.2731
24.1936
29.0061
34.9066
42.1184
51.1012
61.8037
74.688
88.1517
103.906
116.805
129.337
126.081
90.4602
36.3779
8.43023
8.71708
9.53792
10.8094
12.4549
14.5206
17.0925
20.2579
24.1694
28.9665
34.8358
41.9741
50.8058
61.3917
74.2127
87.5411
102.82
115.021
126.173
122.059
84.8318
33.6472
8.42895
8.71562
9.53594
10.8065
12.4506
14.5138
17.0818
20.2417
24.1436
28.9251
34.7651
41.8392
50.5222
60.9358
73.644
86.859
101.676
113.169
122.926
117.947
79.3021
30.7668
8.42758
8.71406
9.53383
10.8034
12.446
14.5066
17.0705
20.2244
24.1161
28.8812
34.6926
41.7101
50.2576
60.4631
72.9841
86.0859
100.465
111.246
119.598
113.749
73.8842
27.7382
8.42612
8.7124
9.53158
10.8001
12.4411
14.4989
17.0585
20.2061
24.0869
28.8346
34.6169
41.5823
50.0114
59.9989
72.2547
85.2074
99.1722
109.25
116.194
109.47
68.5903
24.5693
8.42456
8.71062
9.52918
10.7966
12.4358
14.4906
17.0456
20.1865
24.0558
28.7851
34.5373
41.452
49.7772
59.558
71.4915
84.2233
97.7828
107.18
112.721
105.117
63.4322
21.2739
8.4229
8.70873
9.52662
10.7928
12.4302
14.4819
17.032
20.1656
24.0227
28.7324
34.453
41.3164
49.5469
59.1421
70.7305
83.1522
96.2876
105.036
109.19
100.7
58.4215
17.8713
8.42112
8.70671
9.52388
10.7888
12.4243
14.4725
17.0174
20.1433
23.9874
28.6764
34.3636
41.1738
49.313
58.7428
69.9942
82.0275
94.6881
102.818
105.617
96.2319
53.5705
14.3861
8.41922
8.70455
9.52097
10.7846
12.4179
14.4626
17.0019
20.1196
23.9498
28.6168
34.2686
41.0231
49.0699
58.347
69.2865
80.8847
92.9999
100.534
102.024
91.732
48.8925
10.847
8.41719
8.70225
9.51785
10.78
12.4111
14.452
16.9854
20.0942
23.9098
28.5535
34.1677
40.8635
48.8145
57.9427
68.5952
79.7475
91.2484
98.192
98.4406
87.2259
44.4034
7.28664
8.41503
8.69979
9.51452
10.7752
12.4038
14.4407
16.9678
20.0672
23.8671
28.486
34.0605
40.6943
48.5449
57.5212
67.9015
78.6213
89.4603
95.804
94.8997
82.7472
40.1214
3.74075
8.41271
8.69715
9.51097
10.77
12.396
14.4286
16.949
20.0384
23.8217
28.4142
33.9466
40.5149
48.26
57.0776
67.1877
77.4946
87.6535
93.376
91.4293
78.3355
36.0676
0.248035
8.41023
8.69434
9.50716
10.7644
12.3877
14.4157
16.9289
20.0076
23.7733
28.3378
33.8256
40.3245
47.9589
56.6098
66.4416
76.3476
85.833
90.9054
88.0425
74.0333
32.2638
-3.1506
8.40758
8.69133
9.5031
10.7585
12.3789
14.4019
16.9076
19.9748
23.7217
28.2564
33.6969
40.1225
47.6403
56.1163
65.6573
75.1611
83.9909
88.3836
84.727
69.8768
28.7306
-6.41314
8.40475
8.68812
9.49876
10.7522
12.3694
14.3872
16.8847
19.9398
23.6666
28.1698
33.5603
39.9083
47.3034
55.5959
64.8332
73.922
82.1101
85.8033
81.4441
65.884
25.4819
-9.4982
8.40171
8.68467
9.49411
10.7454
12.3592
14.3715
16.8604
19.9024
23.608
28.0776
33.415
39.6812
46.947
55.0471
63.969
72.6252
80.1723
83.1613
78.1433
62.0436
22.5189
-12.3678
8.39847
8.68099
9.48913
10.7381
12.3484
14.3548
16.8344
19.8625
23.5455
27.9794
33.2607
39.4404
46.5704
54.4685
63.0641
71.2708
78.1656
80.4554
74.7864
58.3128
19.8224
-14.9913
8.39499
8.67705
9.48381
10.7304
12.3368
14.3368
16.8067
19.8199
23.4789
27.875
33.0968
39.1851
46.1724
53.859
62.1175
69.8604
76.0877
77.6819
71.3619
54.6328
17.3476
-17.3496
8.39126
8.67283
9.47812
10.7221