/*--------------------------------*- C++ -*----------------------------------*\
| =========                 |                                                 |
| \\      /  F ield         | OpenFOAM: The Open Source CFD Toolbox           |
|  \\    /   O peration     | Version:  v1912                                 |
|   \\  /    A nd           | Website:  www.openfoam.com                      |
|    \\/     M anipulation  |                                                 |
\*---------------------------------------------------------------------------*/
FoamFile
{
    version     2.0;
    format      ascii;
    class       surfaceScalarField;
    location    "230";
    object      phi;
}
// * * * * * * * * * * * * * * * * * * * * * * * * * * * * * * * * * * * * * //

dimensions      [0 3 -1 0 0 0 0];
oriented        oriented;


internalField   nonuniform List<scalar> 
24588
(
6.81688e-05
1.90431e-08
6.81167e-05
5.23596e-08
6.80347e-05
8.18281e-08
6.79229e-05
1.11888e-07
6.77769e-05
1.45514e-07
6.75925e-05
1.84246e-07
6.73621e-05
2.30586e-07
6.70715e-05
2.91726e-07
6.67108e-05
3.59737e-07
6.62611e-05
4.48981e-07
6.57079e-05
5.54247e-07
6.50371e-05
6.94059e-07
6.4062e-05
8.94096e-07
6.29556e-05
1.17496e-06
6.15336e-05
1.455e-06
5.91985e-05
2.28873e-06
5.63428e-05
2.85912e-06
5.16732e-05
4.66928e-06
4.50948e-05
6.57865e-06
3.39686e-05
1.11262e-05
2.0235e-05
1.37336e-05
2.02351e-05
6.81691e-05
3.85199e-08
6.81166e-05
1.05186e-07
6.80346e-05
1.63589e-07
6.79229e-05
2.23747e-07
6.77769e-05
2.90784e-07
6.75927e-05
3.68321e-07
6.73623e-05
4.61149e-07
6.70715e-05
5.83951e-07
6.67103e-05
7.19727e-07
6.62597e-05
8.98662e-07
6.57097e-05
1.10566e-06
6.50429e-05
1.38718e-06
6.4047e-05
1.80088e-06
6.29625e-05
2.3265e-06
6.15386e-05
2.91307e-06
5.92586e-05
4.52377e-06
5.63621e-05
5.76183e-06
5.1642e-05
9.3891e-06
4.51365e-05
1.30846e-05
3.38699e-05
2.23929e-05
2.01911e-05
2.74123e-05
4.04264e-05
6.81691e-05
5.80217e-08
6.81165e-05
1.58069e-07
6.80345e-05
2.45387e-07
6.79228e-05
3.35633e-07
6.77767e-05
4.36107e-07
6.75925e-05
5.5243e-07
6.73621e-05
6.91696e-07
6.70713e-05
8.76175e-07
6.67102e-05
1.0797e-06
6.62596e-05
1.34835e-06
6.57089e-05
1.6577e-06
6.50436e-05
2.07969e-06
6.40445e-05
2.70588e-06
6.29569e-05
3.4951e-06
6.15318e-05
4.37519e-06
5.92872e-05
6.71535e-06
5.63583e-05
8.69819e-06
5.16617e-05
1.4085e-05
4.51099e-05
1.96371e-05
3.38878e-05
3.3615e-05
2.02099e-05
4.109e-05
6.06364e-05
6.81691e-05
7.74955e-08
6.81166e-05
2.10867e-07
6.80346e-05
3.27142e-07
6.79229e-05
4.47487e-07
6.77769e-05
5.81356e-07
6.75927e-05
7.36507e-07
6.73623e-05
9.22276e-07
6.70715e-05
1.16836e-06
6.67102e-05
1.43969e-06
6.62597e-05
1.79806e-06
6.57092e-05
2.20962e-06
6.50417e-05
2.77356e-06
6.40487e-05
3.61086e-06
6.29614e-05
4.64662e-06
6.15289e-05
5.84e-06
5.93085e-05
8.89306e-06
5.6384e-05
1.16296e-05
5.16774e-05
1.87913e-05
4.50969e-05
2.62183e-05
3.39143e-05
4.47978e-05
2.02425e-05
5.47617e-05
8.08792e-05
6.81691e-05
9.69973e-08
6.81165e-05
2.63736e-07
6.80345e-05
4.08941e-07
6.79228e-05
5.59369e-07
6.77768e-05
7.26663e-07
6.75925e-05
9.20622e-07
6.73621e-05
1.15283e-06
6.70713e-05
1.4605e-06
6.67102e-05
1.79959e-06
6.62598e-05
2.24772e-06
6.57088e-05
2.76189e-06
6.50435e-05
3.46566e-06
6.40466e-05
4.51305e-06
6.29569e-05
5.81808e-06
6.15257e-05
7.30833e-06
5.93157e-05
1.105e-05
5.64081e-05
1.45448e-05
5.16783e-05
2.35202e-05
4.51142e-05
3.27833e-05
3.39581e-05
5.59538e-05
2.029e-05
6.84297e-05
0.000101169
6.81691e-05
1.16466e-07
6.81166e-05
3.165e-07
6.80346e-05
4.90682e-07
6.79229e-05
6.71209e-07
6.77769e-05
8.71867e-07
6.75927e-05
1.10469e-06
6.73623e-05
1.38342e-06
6.70715e-05
1.75262e-06
6.67104e-05
2.15954e-06
6.62599e-05
2.6974e-06
6.5709e-05
3.31412e-06
6.50404e-05
4.16037e-06
6.40508e-05
5.41743e-06
6.2962e-05
6.96677e-06
6.15229e-05
8.7771e-06
5.93177e-05
1.32146e-05
5.64262e-05
1.74432e-05
5.16884e-05
2.82576e-05
4.51446e-05
3.93278e-05
3.40216e-05
6.7077e-05
2.0354e-05
8.20973e-05
0.000121523
6.81691e-05
1.35973e-07
6.81165e-05
3.69362e-07
6.80345e-05
5.72479e-07
6.79228e-05
7.83083e-07
6.77768e-05
1.01714e-06
6.75926e-05
1.2888e-06
6.73622e-05
1.61396e-06
6.70714e-05
2.04468e-06
6.67104e-05
2.51934e-06
6.626e-05
3.14701e-06
6.5709e-05
3.86639e-06
6.50432e-05
4.85213e-06
6.40479e-05
6.31892e-06
6.29565e-05
8.14261e-06
6.15204e-05
1.02488e-05
5.93116e-05
1.53716e-05
5.64406e-05
2.03204e-05
5.17056e-05
3.29916e-05
4.5189e-05
4.5845e-05
3.41104e-05
7.81554e-05
2.0437e-05
9.57706e-05
0.000141961
6.81691e-05
1.55438e-07
6.81166e-05
4.22095e-07
6.80346e-05
6.54206e-07
6.79229e-05
8.94906e-07
6.7777e-05
1.16229e-06
6.75928e-05
1.47285e-06
6.73624e-05
1.84455e-06
6.70717e-05
2.33673e-06
6.67105e-05
2.87922e-06
6.62601e-05
3.59665e-06
6.57091e-05
4.41884e-06
6.50388e-05
5.54807e-06
6.40524e-05
7.22447e-06
6.29622e-05
9.28812e-06
6.151e-05
1.17262e-05
5.93016e-05
1.75438e-05
5.64585e-05
2.31688e-05
5.17446e-05
3.77056e-05
4.52589e-05
5.23314e-05
3.42332e-05
8.91812e-05
2.05423e-05
0.000109461
0.000162503
6.81691e-05
1.74949e-07
6.81165e-05
4.74948e-07
6.80345e-05
7.36004e-07
6.79228e-05
1.00677e-06
6.77768e-05
1.30752e-06
6.75926e-05
1.65695e-06
6.73622e-05
2.07508e-06
6.70715e-05
2.6287e-06
6.67106e-05
3.23889e-06
6.62603e-05
4.04611e-06
6.57094e-05
4.97102e-06
6.50441e-05
6.23835e-06
6.40504e-05
8.12374e-06
6.2948e-05
1.04752e-05
6.14807e-05
1.32244e-05
5.92987e-05
1.96891e-05
5.6456e-05
2.60143e-05
5.18223e-05
4.23384e-05
4.5366e-05
5.8788e-05
3.43981e-05
0.000100149
2.06735e-05
0.000123186
0.000183177
6.81691e-05
1.94409e-07
6.81166e-05
5.27651e-07
6.80347e-05
8.17719e-07
6.7923e-05
1.11858e-06
6.7777e-05
1.45262e-06
6.75929e-05
1.84099e-06
6.73625e-05
2.30566e-06
6.70718e-05
2.92066e-06
6.67107e-05
3.59872e-06
6.62604e-05
4.49569e-06
6.5709e-05
5.52382e-06
6.50359e-05
6.93647e-06
6.405e-05
9.03667e-06
6.29383e-05
1.16372e-05
6.14457e-05
1.47286e-05
5.93132e-05
2.1803e-05
5.64431e-05
2.88874e-05
5.19357e-05
4.6846e-05
4.55122e-05
6.52119e-05
3.46076e-05
0.000111054
2.08334e-05
0.00013696
0.00020401
6.81691e-05
2.13926e-07
6.81165e-05
5.80498e-07
6.80345e-05
8.99519e-07
6.79228e-05
1.23043e-06
6.77768e-05
1.59781e-06
6.75926e-05
2.02508e-06
6.73623e-05
2.53616e-06
6.70717e-05
3.21254e-06
6.67108e-05
3.95831e-06
6.62608e-05
4.94485e-06
6.57102e-05
6.07568e-06
6.50427e-05
7.62742e-06
6.40564e-05
9.9333e-06
6.29257e-05
1.28405e-05
6.14176e-05
1.62537e-05
5.93273e-05
2.38768e-05
5.64369e-05
3.17783e-05
5.20662e-05
5.1216e-05
4.56834e-05
7.15948e-05
3.48556e-05
0.000121881
2.10228e-05
0.000150793
0.000225033
6.81691e-05
2.33381e-07
6.81167e-05
6.33169e-07
6.80347e-05
9.81224e-07
6.7923e-05
1.34222e-06
6.77771e-05
1.74287e-06
6.7593e-05
2.20909e-06
6.73626e-05
2.76672e-06
6.7072e-05
3.5044e-06
6.67109e-05
4.3181e-06
6.62608e-05
5.39422e-06
6.57095e-05
6.62834e-06
6.50272e-05
8.3327e-06
6.40524e-05
1.08498e-05
6.29258e-05
1.39979e-05
6.13975e-05
1.77817e-05
5.93378e-05
2.59316e-05
5.64436e-05
3.4674e-05
5.21902e-05
5.54698e-05
4.58597e-05
7.79255e-05
3.51298e-05
0.000132612
2.12408e-05
0.000164682
0.000246274
6.81691e-05
2.529e-07
6.81165e-05
6.86006e-07
6.80345e-05
1.06303e-06
6.79228e-05
1.45407e-06
6.77768e-05
1.88804e-06
6.75927e-05
2.39316e-06
6.73624e-05
2.99718e-06
6.70718e-05
3.79616e-06
6.67109e-05
4.67777e-06
6.62611e-05
5.84325e-06
6.57095e-05
7.18113e-06
6.50228e-05
9.03982e-06
6.40564e-05
1.17463e-05
6.29226e-05
1.51678e-05
6.13824e-05
1.93319e-05
5.93445e-05
2.79632e-05
5.64571e-05
3.75612e-05
5.22923e-05
5.96341e-05
4.60265e-05
8.41912e-05
3.54171e-05
0.000143221
2.14844e-05
0.000178614
0.000267758
6.81691e-05
2.72348e-07
6.81167e-05
7.38646e-07
6.80347e-05
1.14473e-06
6.79231e-05
1.56584e-06
6.77772e-05
2.03305e-06
6.7593e-05
2.57715e-06
6.73627e-05
3.2277e-06
6.70722e-05
4.08789e-06
6.67111e-05
5.03761e-06
6.62609e-05
6.29268e-06
6.5706e-05
7.73735e-06
6.49969e-05
9.76688e-06
6.40538e-05
1.26622e-05
6.29176e-05
1.63105e-05
6.1372e-05
2.08735e-05
5.93484e-05
2.99866e-05
5.64712e-05
4.04392e-05
5.23712e-05
6.37344e-05
4.61776e-05
9.0385e-05
3.57079e-05
0.000153691
2.17499e-05
0.000192572
0.000289508
6.81691e-05
2.91871e-07
6.81165e-05
7.91476e-07
6.80345e-05
1.22654e-06
6.79228e-05
1.67768e-06
6.77769e-05
2.17819e-06
6.75928e-05
2.76121e-06
6.73625e-05
3.4581e-06
6.70721e-05
4.37949e-06
6.67111e-05
5.39729e-06
6.62611e-05
6.74192e-06
6.57034e-05
8.2962e-06
6.49833e-05
1.05016e-05
6.4061e-05
1.35525e-05
6.29115e-05
1.74762e-05
6.13652e-05
2.24259e-05
5.93502e-05
3.19983e-05
5.64828e-05
4.33063e-05
5.24317e-05
6.77851e-05
4.63123e-05
9.65044e-05
3.5996e-05
0.000164007
2.20334e-05
0.000206535
0.000311542
6.81691e-05
3.11312e-07
6.81167e-05
8.44083e-07
6.80347e-05
1.30823e-06
6.79231e-05
1.78943e-06
6.77772e-05
2.32316e-06
6.75931e-05
2.94517e-06
6.73629e-05
3.68858e-06
6.70725e-05
4.67102e-06
6.67116e-05
5.75698e-06
6.62618e-05
7.19094e-06
6.56982e-05
8.86101e-06
6.49743e-05
1.12363e-05
6.40618e-05
1.44611e-05
6.29067e-05
1.86294e-05
6.13608e-05
2.39677e-05
5.93507e-05
3.40092e-05
5.64913e-05
4.61662e-05
5.24792e-05
7.17975e-05
4.64322e-05
0.000102552
3.62783e-05
0.000174161
2.23316e-05
0.000220482
0.000333874
6.8169e-05
3.30834e-07
6.81165e-05
8.96902e-07
6.80345e-05
1.39005e-06
6.79228e-05
1.90126e-06
6.77769e-05
2.46828e-06
6.75928e-05
3.1292e-06
6.73626e-05
3.91891e-06
6.70724e-05
4.96234e-06
6.67117e-05
6.11648e-06
6.6263e-05
7.63884e-06
6.56896e-05
9.43549e-06
6.49743e-05
1.19579e-05
6.40608e-05
1.53594e-05
6.29029e-05
1.97962e-05
6.13577e-05
2.55177e-05
5.93503e-05
3.60144e-05
5.64973e-05
4.90189e-05
5.25178e-05
7.57767e-05
4.654e-05
0.000108529
3.65537e-05
0.000184147
2.26418e-05
0.000234393
0.000356515
6.81691e-05
3.50267e-07
6.81167e-05
9.49476e-07
6.80348e-05
1.47173e-06
6.79231e-05
2.01299e-06
6.77773e-05
2.61322e-06
6.75932e-05
3.31314e-06
6.7363e-05
4.14934e-06
6.70729e-05
5.25358e-06
6.67121e-05
6.47609e-06
6.62644e-05
8.08584e-06
6.568e-05
1.00209e-05
6.49744e-05
1.26671e-05
6.40583e-05
1.62781e-05
6.29001e-05
2.09507e-05
6.13556e-05
2.70585e-05
5.93494e-05
3.80216e-05
5.65013e-05
5.18674e-05
5.2551e-05
7.97273e-05
4.66385e-05
0.000114442
3.68224e-05
0.000193963
2.29621e-05
0.000248254
0.000379478
6.8169e-05
3.69791e-07
6.81165e-05
1.00229e-06
6.80345e-05
1.55355e-06
6.79228e-05
2.12481e-06
6.77769e-05
2.75832e-06
6.75929e-05
3.49714e-06
6.73627e-05
4.3796e-06
6.70728e-05
5.54463e-06
6.67121e-05
6.8356e-06
6.62648e-05
8.53239e-06
6.56735e-05
1.0613e-05
6.49735e-05
1.33688e-05
6.40562e-05
1.71867e-05
6.2898e-05
2.21153e-05
6.13542e-05
2.86064e-05
5.93484e-05
4.00257e-05
5.65044e-05
5.47112e-05
5.25812e-05
8.36501e-05
4.67305e-05
0.000120293
3.70854e-05
0.000203608
2.32914e-05
0.000262047
0.000402769
6.81691e-05
3.89215e-07
6.81167e-05
1.05483e-06
6.80348e-05
1.63523e-06
6.79232e-05
2.23652e-06
6.77774e-05
2.90322e-06
6.75934e-05
3.68104e-06
6.73632e-05
4.60998e-06
6.70733e-05
5.83566e-06
6.67125e-05
7.19517e-06
6.62617e-05
8.98247e-06
6.56719e-05
1.12035e-05
6.49713e-05
1.40704e-05
6.40544e-05
1.81077e-05
6.28964e-05
2.32694e-05
6.13532e-05
3.01462e-05
5.93475e-05
4.20324e-05
5.65071e-05
5.75519e-05
5.26104e-05
8.7547e-05
4.68185e-05
0.000126085
3.73444e-05
0.000213082
2.36292e-05
0.000275763
0.000426398
6.8169e-05
4.08738e-07
6.81165e-05
1.10762e-06
6.80345e-05
1.71707e-06
6.79228e-05
2.34832e-06
6.7777e-05
3.04831e-06
6.7593e-05
3.86501e-06
6.73629e-05
4.84018e-06
6.7073e-05
6.12659e-06
6.67126e-05
7.55435e-06
6.62539e-05
9.44051e-06
6.56749e-05
1.17829e-05
6.49692e-05
1.47765e-05
6.40531e-05
1.90174e-05
6.28953e-05
2.44324e-05
6.13528e-05
3.16923e-05
5.9347e-05
4.40367e-05
5.65103e-05
6.03884e-05
5.26402e-05
9.14169e-05
4.69046e-05
0.00013182
3.76013e-05
0.000222385
2.39754e-05
0.000289389
0.000450374
6.81691e-05
4.28153e-07
6.81167e-05
1.16013e-06
6.80348e-05
1.79874e-06
6.79232e-05
2.46001e-06
6.77775e-05
3.19317e-06
6.75935e-05
4.04888e-06
6.73634e-05
5.07049e-06
6.70734e-05
6.4176e-06
6.67134e-05
7.91321e-06
6.62452e-05
9.90804e-06
6.56786e-05
1.23498e-05
6.49674e-05
1.54881e-05
6.40521e-05
1.99367e-05
6.28946e-05
2.5586e-05
6.13529e-05
3.3231e-05
5.93473e-05
4.60432e-05
5.65146e-05
6.32215e-05
5.26715e-05
9.52602e-05
4.69905e-05
0.000137501
3.78581e-05
0.000231518
2.43305e-05
0.000302916
0.000474704
6.8169e-05
4.47676e-07
6.81165e-05
1.21292e-06
6.80345e-05
1.88058e-06
6.79229e-05
2.57181e-06
6.7777e-05
3.33823e-06
6.75931e-05
4.23282e-06
6.7363e-05
5.30059e-06
6.70732e-05
6.70854e-06
6.67138e-05
8.27142e-06
6.62387e-05
1.03825e-05
6.56808e-05
1.29077e-05
6.49659e-05
1.62032e-05
6.40514e-05
2.08459e-05
6.28942e-05
2.67478e-05
6.13536e-05
3.4775e-05
5.93486e-05
4.80468e-05
5.65204e-05
6.60495e-05
5.27052e-05
9.90752e-05
4.70776e-05
0.000143129
3.8117e-05
0.000240478
2.46953e-05
0.000316338
0.0004994
6.81691e-05
4.67081e-07
6.81168e-05
1.26539e-06
6.80349e-05
1.96224e-06
6.79233e-05
2.68347e-06
6.77775e-05
3.48305e-06
6.75936e-05
4.41665e-06
6.73636e-05
5.5308e-06
6.70737e-05
6.99954e-06
6.67145e-05
8.62942e-06
6.62349e-05
1.08614e-05
6.56816e-05
1.34611e-05
6.49648e-05
1.69202e-05
6.40511e-05
2.17636e-05
6.28943e-05
2.79009e-05
6.13548e-05
3.63115e-05
5.93514e-05
5.00512e-05
5.65284e-05
6.88728e-05
5.27415e-05
0.000102862
4.71668e-05
0.000148704
3.83802e-05
0.000249265
2.50708e-05
0.000329647
0.00052447
6.8169e-05
4.86603e-07
6.81165e-05
1.31816e-06
6.80345e-05
2.04409e-06
6.79229e-05
2.79525e-06
6.77771e-05
3.62809e-06
6.75932e-05
4.60056e-06
6.73632e-05
5.76079e-06
6.70735e-05
7.29036e-06
6.67146e-05
8.98708e-06
6.62328e-05
1.13426e-05
6.56815e-05
1.40124e-05
6.4964e-05
1.76378e-05
6.40509e-05
2.2672e-05
6.28946e-05
2.90615e-05
6.13569e-05
3.78524e-05
5.93557e-05
5.20511e-05
5.65386e-05
7.16896e-05
5.27807e-05
0.00010662
4.72589e-05
0.000154225
3.86498e-05
0.000257874
2.54583e-05
0.000342839
0.000549929
6.81691e-05
5.05997e-07
6.81168e-05
1.3706e-06
6.80349e-05
2.12574e-06
6.79233e-05
2.90689e-06
6.77776e-05
3.77287e-06
6.75937e-05
4.78433e-06
6.73638e-05
5.99094e-06
6.70741e-05
7.58113e-06
6.67137e-05
9.34626e-06
6.62326e-05
1.18232e-05
6.56812e-05
1.45638e-05
6.49634e-05
1.83558e-05
6.4051e-05
2.35882e-05
6.28954e-05
3.02134e-05
6.13597e-05
3.93853e-05
5.93617e-05
5.40499e-05
5.65514e-05
7.45003e-05
5.28226e-05
0.000110349
4.73544e-05
0.000159694
3.8928e-05
0.0002663
2.58593e-05
0.000355908
0.000575788
6.8169e-05
5.25519e-07
6.81165e-05
1.42336e-06
6.80345e-05
2.20759e-06
6.79229e-05
3.01865e-06
6.77772e-05
3.91789e-06
6.75933e-05
4.96818e-06
6.73634e-05
6.22088e-06
6.7074e-05
7.87158e-06
6.67089e-05
9.71025e-06
6.62358e-05
1.2296e-05
6.56808e-05
1.51188e-05
6.49631e-05
1.90735e-05
6.40512e-05
2.44957e-05
6.28966e-05
3.13722e-05
6.13633e-05
4.09217e-05
5.93696e-05
5.60423e-05
5.65667e-05
7.7303e-05
5.28673e-05
0.000114048
4.74535e-05
0.000165108
3.92167e-05
0.000274537
2.62753e-05
0.000368849
0.000602063
6.81691e-05
5.44903e-07
6.81168e-05
1.47576e-06
6.80349e-05
2.28924e-06
6.79234e-05
3.13027e-06
6.77777e-05
4.06263e-06
6.75939e-05
5.15189e-06
6.7364e-05
6.45102e-06
6.70747e-05
8.16191e-06
6.67022e-05
1.00816e-05
6.62409e-05
1.2757e-05
6.56805e-05
1.56792e-05
6.49629e-05
1.97913e-05
6.40517e-05
2.54106e-05
6.28982e-05
3.25222e-05
6.13678e-05
4.24492e-05
5.93791e-05
5.80319e-05
5.65846e-05
8.00979e-05
5.29146e-05
0.000117718
4.75562e-05
0.000170466
3.95177e-05
0.000282576
2.6708e-05
0.000381659
0.000628771
6.8169e-05
5.64421e-07
6.81165e-05
1.52851e-06
6.80346e-05
2.37109e-06
6.79229e-05
3.24201e-06
6.77772e-05
4.20763e-06
6.75934e-05
5.33566e-06
6.73636e-05
6.68092e-06
6.70746e-05
8.45193e-06
6.66968e-05
1.04583e-05
6.62449e-05
1.32088e-05
6.56804e-05
1.62437e-05
6.49629e-05
2.05087e-05
6.40524e-05
2.63171e-05
6.29002e-05
3.36785e-05
6.13732e-05
4.39793e-05
5.93903e-05
6.00135e-05
5.66051e-05
8.28829e-05
5.29645e-05
0.000121359
4.76626e-05
0.000175768
3.98322e-05
0.000290406
2.71586e-05
0.000394332
0.00065593
6.81691e-05
5.83794e-07
6.81168e-05
1.58087e-06
6.8035e-05
2.45272e-06
6.79235e-05
3.35359e-06
6.77778e-05
4.35234e-06
6.75941e-05
5.5193e-06
6.73642e-05
6.91103e-06
6.70752e-05
8.7419e-06
6.66937e-05
1.08389e-05
6.62475e-05
1.36548e-05
6.56803e-05
1.68109e-05
6.4963e-05
2.12261e-05
6.40532e-05
2.72304e-05
6.29026e-05
3.48256e-05
6.13793e-05
4.54997e-05
5.94031e-05
6.19906e-05
5.6628e-05
8.56583e-05
5.30171e-05
0.00012497
4.77724e-05
0.000181013
4.0161e-05
0.000298017
2.76284e-05
0.000406865
0.000683559
6.8169e-05
6.03311e-07
6.81165e-05
1.6336e-06
6.80346e-05
2.53457e-06
6.7923e-05
3.4653e-06
6.77773e-05
4.49731e-06
6.75936e-05
5.703e-06
6.73638e-05
7.14085e-06
6.70751e-05
9.03162e-06
6.66916e-05
1.12214e-05
6.62493e-05
1.4097e-05
6.56803e-05
1.73799e-05
6.49633e-05
2.19431e-05
6.40542e-05
2.81356e-05
6.29054e-05
3.59786e-05
6.13862e-05
4.7022e-05
5.94172e-05
6.39582e-05
5.66535e-05
8.84218e-05
5.30722e-05
0.000128551
4.78855e-05
0.000186199
4.05044e-05
0.000305398
2.81184e-05
0.000419251
0.000711677
6.81691e-05
6.22673e-07
6.81169e-05
1.68593e-06
6.8035e-05
2.61619e-06
6.79235e-05
3.57685e-06
6.77779e-05
4.64197e-06
6.75943e-05
5.88657e-06
6.73645e-05
7.37085e-06
6.70757e-05
9.32138e-06
6.66907e-05
1.16055e-05
6.62507e-05
1.45369e-05
6.56805e-05
1.79501e-05
6.49637e-05
2.266e-05
6.40555e-05
2.90473e-05
6.29085e-05
3.71219e-05
6.13938e-05
4.8534e-05
5.94328e-05
6.59201e-05
5.66815e-05
9.11734e-05
5.313e-05
0.000132102
4.80016e-05
0.000191328
4.08624e-05
0.000312538
2.8629e-05
0.000431484
0.000740306
6.8169e-05
6.42189e-07
6.81165e-05
1.73865e-06
6.80346e-05
2.69804e-06
6.7923e-05
3.68855e-06
6.77774e-05
4.78691e-06
6.75937e-05
6.07021e-06
6.73641e-05
7.60048e-06
6.70755e-05
9.61099e-06
6.669e-05
1.199e-05
6.62518e-05
1.49751e-05
6.56808e-05
1.85212e-05
6.49643e-05
2.33765e-05
6.40569e-05
2.99509e-05
6.29121e-05
3.82709e-05
6.1402e-05
5.00473e-05
5.94495e-05
6.78712e-05
5.67119e-05
9.39109e-05
5.31905e-05
0.000135624
4.81206e-05
0.000196398
4.12345e-05
0.000319424
2.91607e-05
0.000443558
0.000769467
6.81691e-05
6.61541e-07
6.81169e-05
1.79094e-06
6.80351e-05
2.77964e-06
6.79236e-05
3.80006e-06
6.77781e-05
4.93152e-06
6.75944e-05
6.25373e-06
6.73649e-05
7.83027e-06
6.7076e-05
9.90078e-06
6.669e-05
1.23752e-05
6.62529e-05
1.54122e-05
6.56811e-05
1.90929e-05
6.49649e-05
2.40929e-05
6.40584e-05
3.08607e-05
6.2916e-05
3.94096e-05
6.14108e-05
5.15497e-05
5.94676e-05
6.98153e-05
5.67448e-05
9.66339e-05
5.32539e-05
0.000139115
4.82426e-05
0.000201409
4.16203e-05
0.000326046
2.97135e-05
0.000455464
0.00079918
6.8169e-05
6.81056e-07
6.81165e-05
1.84364e-06
6.80346e-05
2.86149e-06
6.79231e-05
3.91173e-06
6.77775e-05
5.07642e-06
6.75939e-05
6.43733e-06
6.73645e-05
8.05963e-06
6.70757e-05
1.01905e-05
6.66899e-05
1.27602e-05
6.62538e-05
1.58483e-05
6.56816e-05
1.96652e-05
6.49657e-05
2.48087e-05
6.40602e-05
3.17625e-05
6.29201e-05
4.05542e-05
6.14201e-05
5.30528e-05
5.94868e-05
7.17473e-05
5.67801e-05
9.93404e-05
5.33203e-05
0.000142574
4.83676e-05
0.000206362
4.20194e-05
0.000332394
3.02877e-05
0.000467196
0.000829468
6.81691e-05
7.00399e-07
6.81169e-05
1.8959e-06
6.80351e-05
2.94307e-06
6.79237e-05
4.02321e-06
6.77782e-05
5.22097e-06
6.75946e-05
6.62081e-06
6.73653e-05
8.28914e-06
6.7076e-05
1.04808e-05
6.66904e-05
1.31449e-05
6.62547e-05
1.62839e-05
6.56821e-05
2.02378e-05
6.49666e-05
2.55244e-05
6.40621e-05
3.26703e-05
6.29247e-05
4.16878e-05
6.14301e-05
5.45445e-05
5.95071e-05
7.36712e-05
5.68179e-05
0.00010203
5.33897e-05
0.000146003
4.84961e-05
0.000211255
4.24316e-05
0.000338459
3.08832e-05
0.000478744
0.000860351
6.8169e-05
7.19914e-07
6.81165e-05
1.94859e-06
6.80347e-05
3.02491e-06
6.79231e-05
4.13485e-06
6.77776e-05
5.3658e-06
6.75941e-05
6.80438e-06
6.7365e-05
8.51817e-06
6.70731e-05
1.07737e-05
6.66927e-05
1.35248e-05
6.62556e-05
1.6721e-05
6.56827e-05
2.08107e-05
6.49676e-05
2.62395e-05
6.40642e-05
3.357e-05
6.29295e-05
4.28272e-05
6.14405e-05
5.60367e-05
5.95285e-05
7.55819e-05
5.6858e-05
0.0001047
5.34625e-05
0.000149398
4.86284e-05
0.000216089
4.2857e-05
0.00034423
3.15005e-05
0.000490101
0.000891852
6.81691e-05
7.39248e-07
6.81169e-05
2.00081e-06
6.80352e-05
3.10647e-06
6.79238e-05
4.24629e-06
6.77784e-05
5.51027e-06
6.75948e-05
6.98781e-06
6.73658e-05
8.74745e-06
6.70653e-05
1.1075e-05
6.67009e-05
1.3889e-05
6.62565e-05
1.71654e-05
6.56834e-05
2.13838e-05
6.49687e-05
2.69544e-05
6.40665e-05
3.44755e-05
6.29346e-05
4.3955e-05
6.14515e-05
5.75168e-05
5.95511e-05
7.74832e-05
5.69004e-05
0.000107351
5.35387e-05
0.00015276
4.87648e-05
0.000220863
4.32959e-05
0.000349699
3.214e-05
0.000501257
0.000923992
6.8169e-05
7.58765e-07
6.81165e-05
2.05348e-06
6.80347e-05
3.1883e-06
6.79232e-05
4.3579e-06
6.77777e-05
5.65505e-06
6.75943e-05
7.17127e-06
6.73653e-05
8.97645e-06
6.70587e-05
1.13825e-05
6.67079e-05
1.42397e-05
6.62573e-05
1.7616e-05
6.56842e-05
2.1957e-05
6.49699e-05
2.76686e-05
6.40689e-05
3.53728e-05
6.294e-05
4.50886e-05
6.1463e-05
5.89972e-05
5.95747e-05
7.93703e-05
5.6945e-05
0.000109981
5.36186e-05
0.000156086
4.89056e-05
0.000225576
4.37489e-05
0.000354856
3.28025e-05
0.000512203
0.000956794
6.81691e-05
7.7809e-07
6.81169e-05
2.10567e-06
6.80352e-05
3.26984e-06
6.79238e-05
4.46929e-06
6.77785e-05
5.79946e-06
6.75951e-05
7.35455e-06
6.73659e-05
9.20585e-06
6.70567e-05
1.16925e-05
6.67107e-05
1.45857e-05
6.62581e-05
1.80685e-05
6.5685e-05
2.25301e-05
6.49712e-05
2.83825e-05
6.40715e-05
3.6276e-05
6.29457e-05
4.62101e-05
6.14751e-05
6.04645e-05
5.95993e-05
8.1247e-05
5.69918e-05
0.000112588
5.37025e-05
0.000159376
4.90508e-05
0.000230228
4.42156e-05
0.000359691
3.34883e-05
0.00052293
0.000990283
6.8169e-05
7.97601e-07
6.81166e-05
2.15831e-06
6.80347e-05
3.35164e-06
6.79233e-05
4.58085e-06
6.77779e-05
5.94418e-06
6.75946e-05
7.53781e-06
6.73643e-05
9.43613e-06
6.70566e-05
1.20008e-05
6.67117e-05
1.49305e-05
6.62587e-05
1.85215e-05
6.56858e-05
2.3103e-05
6.49726e-05
2.90957e-05
6.40742e-05
3.71699e-05
6.29516e-05
4.7338e-05
6.14876e-05
6.19328e-05
5.96249e-05
8.31083e-05
5.70406e-05
0.000115173
5.37906e-05
0.000162625
4.92e-05
0.000234819
4.46946e-05
0.000364197
3.41969e-05
0.000533428
0.00102448
6.81691e-05
8.16936e-07
6.81169e-05
2.21051e-06
6.80352e-05
3.4332e-06
6.79239e-05
4.6922e-06
6.77785e-05
6.08862e-06
6.75955e-05
7.72075e-06
6.73568e-05
9.67496e-06
6.70626e-05
1.22953e-05
6.67122e-05
1.52809e-05
6.62593e-05
1.89744e-05
6.56867e-05
2.36756e-05
6.49741e-05
2.98085e-05
6.40771e-05
3.80707e-05
6.29579e-05
4.84524e-05
6.15007e-05
6.33864e-05
5.96516e-05
8.49584e-05
5.70912e-05
0.000117733
5.38833e-05
0.000165833
4.93527e-05
0.000239349
4.51813e-05
0.000368368
3.49251e-05
0.000543684
0.0010594
6.8169e-05
8.36443e-07
6.81166e-05
2.26313e-06
6.80347e-05
3.51499e-06
6.79233e-05
4.80372e-06
6.77779e-05
6.23341e-06
6.75951e-05
7.90358e-06
6.7349e-05
9.92099e-06
6.70682e-05
1.25762e-05
6.67124e-05
1.56367e-05
6.62598e-05
1.9427e-05
6.56876e-05
2.42478e-05
6.49757e-05
3.05204e-05
6.40802e-05
3.89617e-05
6.29644e-05
4.95736e-05
6.15143e-05
6.48408e-05
5.96791e-05
8.67922e-05
5.71435e-05
0.000120269
5.39809e-05
0.000168996
4.95085e-05
0.000243822
4.56663e-05
0.00037221
3.56651e-05
0.000553685
0.00109507
6.8169e-05
8.55727e-07
6.81169e-05
2.31527e-06
6.80351e-05
3.59655e-06
6.79239e-05
4.91502e-06
6.77786e-05
6.37766e-06
6.75959e-05
8.08619e-06
6.7347e-05
1.01701e-05
6.70699e-05
1.28532e-05
6.67125e-05
1.59941e-05
6.62602e-05
1.98793e-05
6.56885e-05
2.48195e-05
6.49773e-05
3.12317e-05
6.40833e-05
3.98595e-05
6.29711e-05
5.06811e-05
6.15282e-05
6.62799e-05
5.97077e-05
8.86138e-05
5.7197e-05
0.00012278
5.40847e-05
0.000172108
4.96663e-05
0.00024824
4.6146e-05
0.000375731
3.64959e-05
0.000563335
0.00113157
-6.29847e-06
6.29832e-06
-1.11031e-05
4.80456e-06
-1.16015e-05
4.98263e-07
-8.96267e-06
-2.63876e-06
-6.59926e-06
-2.36446e-06
-5.39536e-06
-1.20346e-06
-4.87668e-06
-5.18344e-07
-4.63219e-06
-2.43118e-07
-4.14644e-06
-4.80902e-07
-3.53552e-06
-6.00932e-07
-2.9798e-06
-4.64324e-07
-2.33024e-06
-7.2713e-07
-1.31981e-06
-1.01544e-06
7.13678e-07
-2.04966e-06
4.29318e-06
-3.58293e-06
8.91838e-06
-4.6237e-06
1.36567e-05
-4.73523e-06
1.79961e-05
-4.33838e-06
2.19015e-05
-3.90267e-06
2.546e-05
-3.56087e-06
2.88535e-05
-3.39439e-06
3.22316e-05
-3.37719e-06
3.56901e-05
-3.45828e-06
3.9345e-05
-3.65521e-06
4.33177e-05
-3.97208e-06
5.04933e-05
-7.17908e-06
5.993e-05
-9.43543e-06
6.52765e-05
-5.34568e-06
6.65273e-05
-1.24991e-06
6.67798e-05
-2.5307e-07
6.69583e-05
-1.78518e-07
6.7155e-05
-1.96659e-07
6.73225e-05
-1.67568e-07
6.74599e-05
-1.37397e-07
-6.56288e-08
-6.18329e-06
1.24813e-05
-1.09459e-05
9.56708e-06
-1.1444e-05
9.96077e-07
-8.7998e-06
-5.28284e-06
-6.45254e-06
-4.71363e-06
-5.26505e-06
-2.39015e-06
-4.77373e-06
-1.00901e-06
-4.57911e-06
-4.35074e-07
-4.16661e-06
-8.84214e-07
-3.59243e-06
-1.15553e-06
-2.98149e-06
-9.27281e-07
-2.21519e-06
-1.61642e-06
-1.09807e-06
-2.14272e-06
8.28445e-07
-4.00846e-06
4.15687e-06
-6.91816e-06
8.63451e-06
-9.0981e-06
1.34271e-05
-9.52146e-06
1.7865e-05
-8.77419e-06
2.18205e-05
-7.85295e-06
2.53829e-05
-7.12785e-06
2.87561e-05
-6.76941e-06
3.20951e-05
-6.71458e-06
3.55048e-05
-6.86742e-06
3.91166e-05
-7.26771e-06
4.29889e-05
-7.84321e-06
4.99611e-05
-1.4158e-05
5.95093e-05
-1.89814e-05
6.51887e-05
-1.10233e-05
6.65273e-05
-2.58685e-06
6.67857e-05
-5.12532e-07
6.69609e-05
-3.53763e-07
6.71562e-05
-3.91962e-07
6.73236e-05
-3.34998e-07
6.74609e-05
-2.74719e-07
-1.3125e-07
-6.05855e-06
1.85396e-05
-1.07631e-05
1.42715e-05
-1.12387e-05
1.47147e-06
-8.58572e-06
-7.93575e-06
-6.26506e-06
-7.03618e-06
-5.11012e-06
-3.54425e-06
-4.65945e-06
-1.45909e-06
-4.52541e-06
-5.66698e-07
-4.16879e-06
-1.23226e-06
-3.59562e-06
-1.71083e-06
-2.90232e-06
-1.46521e-06
-2.0038e-06
-2.64949e-06
-8.35832e-07
-3.3208e-06
9.29893e-07
-5.80646e-06
4.00915e-06
-1.00043e-05
8.38127e-06
-1.34671e-05
1.32367e-05
-1.43702e-05
1.7767e-05
-1.33024e-05
2.17721e-05
-1.18522e-05
2.53458e-05
-1.07062e-05
2.87023e-05
-1.01277e-05
3.20041e-05
-1.00146e-05
3.53646e-05
-1.02274e-05
3.89325e-05
-1.08363e-05
4.27156e-05
-1.16251e-05
4.94863e-05
-2.09352e-05
5.91183e-05
-2.8611e-05
6.51045e-05
-1.7008e-05
6.65275e-05
-4.00824e-06
6.67918e-05
-7.77831e-07
6.69638e-05
-5.25784e-07
6.71578e-05
-5.85925e-07
6.73249e-05
-5.02181e-07
6.74621e-05
-4.11879e-07
-1.96784e-07
-5.91673e-06
2.4456e-05
-1.05539e-05
1.89086e-05
-1.09857e-05
1.90301e-06
-8.31187e-06
-1.06095e-05
-6.03037e-06
-9.31959e-06
-4.91908e-06
-4.6547e-06
-4.5144e-06
-1.8631e-06
-4.43657e-06
-6.41816e-07
-4.12525e-06
-1.53441e-06
-3.55189e-06
-2.26396e-06
-2.77699e-06
-2.1022e-06
-1.74303e-06
-3.80205e-06
-5.26295e-07
-4.55019e-06
1.07978e-06
-7.45148e-06
3.90842e-06
-1.28411e-05
8.15717e-06
-1.77116e-05
1.3063e-05
-1.92672e-05
1.76903e-05
-1.79267e-05
2.17555e-05
-1.59104e-05
2.53502e-05
-1.43067e-05
2.86961e-05
-1.34757e-05
3.19614e-05
-1.32781e-05
3.52708e-05
-1.35361e-05
3.87914e-05
-1.43576e-05
4.24952e-05
-1.53277e-05
4.90708e-05
-2.7518e-05
5.87566e-05
-3.82944e-05
6.5023e-05
-2.32726e-05
6.65279e-05
-5.51151e-06
6.67982e-05
-1.04913e-06
6.6967e-05
-6.94706e-07
6.71596e-05
-7.78536e-07
6.73265e-05
-6.69036e-07
6.74634e-05
-5.48772e-07
-2.62165e-07
-5.75789e-06
3.02137e-05
-1.0315e-05
2.34656e-05
-1.06765e-05
2.26414e-06
-7.97168e-06
-1.33142e-05
-5.74547e-06
-1.15477e-05
-4.68927e-06
-5.70999e-06
-4.33573e-06
-2.21604e-06
-4.30981e-06
-6.65327e-07
-4.03634e-06
-1.79947e-06
-3.46051e-06
-2.82159e-06
-2.59794e-06
-2.82977e-06
-1.42029e-06
-5.1033e-06
-1.5306e-07
-5.83041e-06
1.29786e-06
-8.94135e-06
3.87787e-06
-1.54293e-05
7.98325e-06
-2.18131e-05
1.29191e-05
-2.41934e-05
1.76451e-05
-2.26495e-05
2.17815e-05
-2.0038e-05
2.54064e-05
-1.79381e-05
2.87455e-05
-1.68169e-05
3.19735e-05
-1.65041e-05
3.52278e-05
-1.67898e-05
3.86957e-05
-1.78262e-05
4.23274e-05
-1.89581e-05
4.87123e-05
-3.39098e-05
5.84229e-05
-4.80027e-05
6.49438e-05
-2.97919e-05
6.65284e-05
-7.09456e-06
6.68047e-05
-1.32645e-06
6.69706e-05
-8.60623e-07
6.71618e-05
-9.69771e-07
6.73282e-05
-8.35469e-07
6.74648e-05
-6.85294e-07
-3.27321e-07
-5.58162e-06
3.5795e-05
-1.0042e-05
2.79258e-05
-1.03014e-05
2.5232e-06
-7.55702e-06
-1.60584e-05
-5.40546e-06
-1.37012e-05
-4.41613e-06
-6.6984e-06
-4.11903e-06
-2.51243e-06
-4.14125e-06
-6.40141e-07
-3.90089e-06
-2.03022e-06
-3.3193e-06
-3.38107e-06
-2.35677e-06
-3.66725e-06
-1.02308e-06
-6.55221e-06
3.00312e-07
-7.17082e-06
1.60594e-06
-1.02968e-05
3.94748e-06
-1.77809e-05
7.89653e-06
-2.57566e-05
1.28381e-05
-2.91222e-05
1.76584e-05
-2.74651e-05
2.18746e-05
-2.4243e-05
2.55351e-05
-2.16072e-05
2.88662e-05
-2.01508e-05
3.20514e-05
-1.96869e-05
3.52436e-05
-1.99814e-05
3.86505e-05
-2.1234e-05
4.22138e-05
-2.252e-05
4.8409e-05
-4.01132e-05
5.81156e-05
-5.77067e-05
6.48669e-05
-3.65413e-05
6.65289e-05
-8.75502e-06
6.68115e-05
-1.6101e-06
6.69745e-05
-1.0237e-06
6.71644e-05
-1.15962e-06
6.73303e-05
-1.0014e-06
6.74663e-05
-8.21339e-07
-3.92185e-07
-5.3872e-06
4.1182e-05
-9.72941e-06
3.22679e-05
-9.85006e-06
2.64344e-06
-7.05905e-06
-1.88493e-05
-5.004e-06
-1.57582e-05
-4.09329e-06
-7.60809e-06
-3.85817e-06
-2.74695e-06
-3.92532e-06
-5.703e-07
-3.71522e-06
-2.23149e-06
-3.12344e-06
-3.95244e-06
-2.04241e-06
-4.62947e-06
-5.33788e-07
-8.18019e-06
8.59715e-07
-8.58229e-06
2.03462e-06
-1.15263e-05
4.15104e-06
-1.99076e-05
7.94188e-06
-2.95423e-05
1.28723e-05
-3.40392e-05
1.77796e-05
-3.2367e-05
2.20796e-05
-2.85279e-05
2.57738e-05
-2.53123e-05
2.90862e-05
-2.34663e-05
3.22147e-05
-2.28127e-05
3.53317e-05
-2.30977e-05
3.8665e-05
-2.45682e-05
4.21592e-05
-2.60126e-05
4.81618e-05
-4.61242e-05
5.78342e-05
-6.73764e-05
6.47922e-05
-4.34976e-05
6.65295e-05
-1.04908e-05
6.68185e-05
-1.90014e-06
6.69788e-05
-1.18404e-06
6.71673e-05
-1.34806e-06
6.73326e-05
-1.16672e-06
6.7468e-05
-9.56798e-07
-4.56687e-07
-5.17364e-06
4.63553e-05
-9.37116e-06
3.64652e-05
-9.3136e-06
2.58539e-06
-6.472e-06
-2.16907e-05
-4.53532e-06
-1.76969e-05
-3.71352e-06
-8.42887e-06
-3.54564e-06
-2.914e-06
-3.65455e-06
-4.57952e-07
-3.47251e-06
-2.40283e-06
-2.86431e-06
-4.53477e-06
-1.63855e-06
-5.73855e-06
7.59371e-08
-1.00127e-05
1.5695e-06
-1.01011e-05
2.63277e-06
-1.26631e-05
4.53223e-06
-2.18206e-05
8.17181e-06
-3.31745e-05
1.30909e-05
-3.894e-05
1.80852e-05
-3.73537e-05
2.24712e-05
-3.28949e-05
2.61877e-05
-2.90432e-05
2.94552e-05
-2.67381e-05
3.24973e-05
-2.58513e-05
3.55141e-05