/*--------------------------------*- C++ -*----------------------------------*\
| =========                 |                                                 |
| \\      /  F ield         | OpenFOAM: The Open Source CFD Toolbox           |
|  \\    /   O peration     | Version:  v1912                                 |
|   \\  /    A nd           | Website:  www.openfoam.com                      |
|    \\/     M anipulation  |                                                 |
\*---------------------------------------------------------------------------*/
FoamFile
{
    version     2.0;
    format      ascii;
    class       volVectorField;
    location    "230";
    object      U;
}
// * * * * * * * * * * * * * * * * * * * * * * * * * * * * * * * * * * * * * //

dimensions      [0 1 -1 0 0 0 0];


internalField   nonuniform List<vector> 
12441
(
(29.9989 1.63591e-05 0)
(29.9859 4.97188e-05 0)
(29.9577 8.70591e-05 0)
(29.9147 0.00013386 0)
(29.8584 0.000195377 0)
(29.7862 0.000278378 0)
(29.6964 0.000391206 0)
(29.5832 0.000555844 0)
(29.4419 0.000770559 0)
(29.266 0.00108113 0)
(29.048 0.00149949 0)
(28.7739 0.00212315 0)
(28.4453 0.00305006 0)
(27.9579 0.0045037 0)
(27.4383 0.00625121 0)
(26.6461 0.0111125 0)
(25.6082 0.0147036 0)
(23.9909 0.0305675 0)
(21.7099 0.0517956 0)
(18.0868 0.0906379 0)
(12.3107 0.123172 0)
(5.92575 0.199992 0)
(29.9989 4.85431e-05 0)
(29.9859 0.000148378 0)
(29.9577 0.000259625 0)
(29.9146 0.000399176 0)
(29.8583 0.000583334 0)
(29.7862 0.000830318 0)
(29.6964 0.00116932 0)
(29.5832 0.00166436 0)
(29.4418 0.00230579 0)
(29.2656 0.00323667 0)
(29.0477 0.00448227 0)
(28.7747 0.00631849 0)
(28.4449 0.00919961 0)
(27.9559 0.0134474 0)
(27.4418 0.0188261 0)
(26.6485 0.0331635 0)
(25.6106 0.0467576 0)
(23.991 0.0875795 0)
(21.7085 0.135158 0)
(18.0832 0.26226 0)
(12.3103 0.361875 0)
(5.92859 0.597142 0)
(29.9989 8.0625e-05 0)
(29.9859 0.000246951 0)
(29.9576 0.000431486 0)
(29.9146 0.000663696 0)
(29.8583 0.000969899 0)
(29.7862 0.00138164 0)
(29.6963 0.00194539 0)
(29.5831 0.00277061 0)
(29.4418 0.00383976 0)
(29.2656 0.00539241 0)
(29.0477 0.00745724 0)
(28.7743 0.0105188 0)
(28.4465 0.0153777 0)
(27.9525 0.0223317 0)
(27.4413 0.0314377 0)
(26.6475 0.054386 0)
(25.611 0.0795035 0)
(23.9953 0.142851 0)
(21.7109 0.21607 0)
(18.0818 0.431554 0)
(12.3148 0.597106 0)
(5.93573 0.992248 0)
(29.9989 0.000113095 0)
(29.9859 0.00034624 0)
(29.9577 0.000604291 0)
(29.9146 0.000929511 0)
(29.8583 0.0013581 0)
(29.7862 0.00193473 0)
(29.6964 0.00272426 0)
(29.5832 0.00388077 0)
(29.4419 0.00537775 0)
(29.2657 0.00755248 0)
(29.0478 0.0104387 0)
(28.7747 0.0147294 0)
(28.4451 0.0215591 0)
(27.9574 0.0312514 0)
(27.4417 0.0440753 0)
(26.6486 0.0756858 0)
(25.6139 0.111498 0)
(24.0005 0.201139 0)
(21.7188 0.321737 0)
(18.0856 0.608851 0)
(12.3259 0.836315 0)
(5.94772 1.389 0)
(29.9989 0.000145628 0)
(29.9859 0.000445448 0)
(29.9576 0.000776924 0)
(29.9146 0.00119506 0)
(29.8583 0.00174588 0)
(29.7862 0.00248732 0)
(29.6964 0.00350256 0)
(29.5832 0.00498989 0)
(29.4419 0.00691431 0)
(29.2657 0.00971123 0)
(29.0479 0.0134192 0)
(28.7745 0.018937 0)
(28.4473 0.0277285 0)
(27.9537 0.0401614 0)
(27.4423 0.0567365 0)
(26.6489 0.096735 0)
(25.6156 0.142985 0)
(24.0049 0.26018 0)
(21.7297 0.410177 0)
(18.0953 0.782336 0)
(12.3449 1.07528 0)
(5.96485 1.78702 0)
(29.9989 0.000178157 0)
(29.9859 0.000544592 0)
(29.9577 0.000949525 0)
(29.9146 0.00146059 0)
(29.8584 0.00213364 0)
(29.7863 0.00303997 0)
(29.6965 0.00428098 0)
(29.5833 0.00609898 0)
(29.442 0.00845096 0)
(29.2658 0.01187 0)
(29.048 0.0164007 0)
(28.7749 0.0231478 0)
(28.4449 0.0338962 0)
(27.9595 0.0490773 0)
(27.4424 0.0694026 0)
(26.6498 0.117685 0)
(25.619 0.174212 0)
(24.0096 0.318649 0)
(21.7424 0.497056 0)
(18.1115 0.95453 0)
(12.3732 1.31392 0)
(5.98746 2.18611 0)
(29.9989 0.000210687 0)
(29.9859 0.000643729 0)
(29.9576 0.00112214 0)
(29.9146 0.00172614 0)
(29.8583 0.00252137 0)
(29.7862 0.00359264 0)
(29.6964 0.0050594 0)
(29.5832 0.0072079 0)
(29.442 0.00998735 0)
(29.2659 0.014029 0)
(29.0481 0.0193828 0)
(28.775 0.027357 0)
(28.4477 0.0400616 0)
(27.9546 0.0579635 0)
(27.4434 0.0820559 0)
(26.6506 0.138464 0)
(25.6214 0.20477 0)
(24.0135 0.374698 0)
(21.7585 0.586117 0)
(18.1364 1.12685 0)
(12.4127 1.55263 0)
(6.01599 2.58659 0)
(29.9989 0.000243215 0)
(29.9859 0.000742839 0)
(29.9577 0.00129473 0)
(29.9146 0.00199165 0)
(29.8584 0.00290901 0)
(29.7863 0.00414526 0)
(29.6965 0.00583778 0)
(29.5834 0.00831667 0)
(29.4421 0.0115237 0)
(29.266 0.0161875 0)
(29.0483 0.0223644 0)
(28.7751 0.0315681 0)
(28.4444 0.0462299 0)
(27.9617 0.0668612 0)
(27.4437 0.0945493 0)
(26.6516 0.158917 0)
(25.6268 0.236898 0)
(24.0191 0.432814 0)
(21.7837 0.676349 0)
(18.1744 1.29868 0)
(12.4662 1.7916 0)
(6.05099 2.98888 0)
(29.9989 0.000275744 0)
(29.9859 0.00084194 0)
(29.9576 0.00146733 0)
(29.9146 0.00225716 0)
(29.8583 0.00329662 0)
(29.7862 0.00469788 0)
(29.6965 0.00661616 0)
(29.5833 0.0094253 0)
(29.4421 0.0130597 0)
(29.2661 0.0183461 0)
(29.0484 0.025347 0)
(28.7755 0.0357808 0)
(28.449 0.0523844 0)
(27.9571 0.0758388 0)
(27.4415 0.10715 0)
(26.6498 0.179815 0)
(25.6316 0.267534 0)
(24.025 0.490471 0)
(21.8239 0.766302 0)
(18.2309 1.46961 0)
(12.5362 2.03102 0)
(6.09305 3.39349 0)
(29.9989 0.000308272 0)
(29.9859 0.000941012 0)
(29.9577 0.00163992 0)
(29.9147 0.00252264 0)
(29.8584 0.00368414 0)
(29.7864 0.00525045 0)
(29.6966 0.0073945 0)
(29.5835 0.0105337 0)
(29.4423 0.0145956 0)
(29.2661 0.0205042 0)
(29.0485 0.0283288 0)
(28.7752 0.0399905 0)
(28.4431 0.0585421 0)
(27.965 0.0846751 0)
(27.4384 0.120398 0)
(26.647 0.20108 0)
(25.6374 0.298613 0)
(24.0353 0.546334 0)
(21.8802 0.855854 0)
(18.3077 1.63973 0)
(12.6248 2.27117 0)
(6.14276 3.80095 0)
(29.9989 0.000340802 0)
(29.9859 0.00104008 0)
(29.9576 0.00181251 0)
(29.9146 0.00278812 0)
(29.8583 0.00407163 0)
(29.7863 0.00580302 0)
(29.6965 0.00817281 0)
(29.5834 0.011642 0)
(29.4422 0.0161313 0)
(29.2663 0.0226621 0)
(29.0489 0.0313119 0)
(28.7762 0.0442047 0)
(28.4496 0.064711 0)
(27.9689 0.0935344 0)
(27.4361 0.133004 0)
(26.642 0.221228 0)
(25.6429 0.330789 0)
(24.0531 0.601645 0)
(21.9444 0.945093 0)
(18.4002 1.8089 0)
(12.7322 2.51227 0)
(6.20065 4.21183 0)
(29.9989 0.00037333 0)
(29.9859 0.00113912 0)
(29.9577 0.00198508 0)
(29.9147 0.00305357 0)
(29.8585 0.00445904 0)
(29.7864 0.00635555 0)
(29.6967 0.00895109 0)
(29.5836 0.0127501 0)
(29.4424 0.0176669 0)
(29.2663 0.0248182 0)
(29.0489 0.0342953 0)
(28.7759 0.0484129 0)
(28.4416 0.0707683 0)
(27.9791 0.102604 0)
(27.432 0.146494 0)
(26.637 0.241775 0)
(25.6485 0.36305 0)
(24.0756 0.655532 0)
(22.0059 1.03338 0)
(18.5001 1.97664 0)
(12.8568 2.75439 0)
(6.26714 4.62671 0)
(29.9989 0.000405857 0)
(29.9859 0.00123815 0)
(29.9576 0.00215766 0)
(29.9146 0.00331901 0)
(29.8584 0.00484643 0)
(29.7863 0.00690806 0)
(29.6966 0.00972928 0)
(29.5835 0.013858 0)
(29.4424 0.0192027 0)
(29.2664 0.026975 0)
(29.0492 0.0372757 0)
(28.7766 0.0527129 0)
(28.4454 0.0767564 0)
(27.9822 0.111716 0)
(27.4261 0.160365 0)
(26.6329 0.262055 0)
(25.6531 0.394991 0)
(24.097 0.70772 0)
(22.0587 1.12041 0)
(18.5994 2.14248 0)
(12.9955 2.99738 0)
(6.3424 5.04613 0)
(29.9989 0.000438382 0)
(29.9859 0.00133714 0)
(29.9577 0.00233024 0)
(29.9147 0.00358444 0)
(29.8585 0.00523376 0)
(29.7865 0.00746054 0)
(29.6967 0.0105074 0)
(29.5837 0.0149656 0)
(29.4426 0.0207385 0)
(29.2664 0.0291331 0)
(29.0491 0.040274 0)
(28.7763 0.0570536 0)
(28.4373 0.0830952 0)
(27.9815 0.120878 0)
(27.4208 0.173856 0)
(26.6303 0.281781 0)
(25.6563 0.426488 0)
(24.1141 0.758523 0)
(22.1018 1.20624 0)
(18.693 2.30615 0)
(13.1447 3.24098 0)
(6.42638 5.47056 0)
(29.9989 0.000470906 0)
(29.9859 0.00143613 0)
(29.9576 0.00250282 0)
(29.9146 0.00384985 0)
(29.8584 0.00562105 0)
(29.7863 0.00801298 0)
(29.6966 0.0112855 0)
(29.5836 0.0160729 0)
(29.4426 0.022275 0)
(29.2665 0.0312897 0)
(29.0493 0.04329 0)
(28.7778 0.0613382 0)
(28.4365 0.0893604 0)
(27.9787 0.129915 0)
(27.4171 0.187243 0)
(26.6287 0.301283 0)
(25.6581 0.457743 0)
(24.1267 0.808376 0)
(22.137 1.29098 0)
(18.7786 2.46747 0)
(13.3011 3.48483 0)
(6.51885 5.9004 0)
(29.9989 0.000503427 0)
(29.986 0.0015351 0)
(29.9577 0.00267539 0)
(29.9147 0.00411524 0)
(29.8585 0.00600829 0)
(29.7865 0.00856539 0)
(29.6968 0.0120634 0)
(29.5838 0.0171799 0)
(29.4429 0.0238101 0)
(29.2667 0.0334493 0)
(29.0498 0.0463081 0)
(28.7791 0.0657712 0)
(28.4321 0.0956778 0)
(27.9765 0.1388 0)
(27.4146 0.200517 0)
(26.6277 0.320728 0)
(25.6588 0.488883 0)
(24.1358 0.857612 0)
(22.1663 1.37474 0)
(18.8561 2.62633 0)
(13.4619 3.72859 0)
(6.6194 6.33596 0)
(29.9989 0.000535946 0)
(29.9859 0.00163405 0)
(29.9576 0.00284797 0)
(29.9146 0.00438061 0)
(29.8584 0.0063955 0)
(29.7864 0.00911777 0)
(29.6967 0.0128413 0)
(29.5837 0.0182864 0)
(29.4429 0.0253454 0)
(29.2668 0.0356016 0)
(29.0508 0.0493864 0)
(28.7795 0.0702456 0)
(28.4293 0.10192 0)
(27.9746 0.147687 0)
(27.4128 0.213807 0)
(26.627 0.340152 0)
(25.6588 0.519951 0)
(24.1422 0.906413 0)
(22.1916 1.45759 0)
(18.9261 2.78265 0)
(13.625 3.9719 0)
(6.72755 6.77751 0)
(29.9989 0.00056846 0)
(29.986 0.00173297 0)
(29.9577 0.00302055 0)
(29.9147 0.00464597 0)
(29.8586 0.00678268 0)
(29.7866 0.00967011 0)
(29.6969 0.013619 0)
(29.5839 0.019392 0)
(29.4432 0.0268809 0)
(29.2669 0.0377445 0)
(29.0518 0.052489 0)
(28.778 0.0747385 0)
(28.4264 0.108147 0)
(27.9734 0.156538 0)
(27.4115 0.227094 0)
(26.6266 0.359578 0)
(25.6582 0.55097 0)
(24.1469 0.954885 0)
(22.2144 1.53959 0)
(18.9899 2.93638 0)
(13.7894 4.21445 0)
(6.84284 7.22526 0)
(29.9989 0.000600973 0)
(29.9859 0.00183188 0)
(29.9576 0.00319312 0)
(29.9146 0.00491131 0)
(29.8584 0.00716981 0)
(29.7864 0.0102224 0)
(29.6967 0.0143967 0)
(29.5838 0.0204974 0)
(29.4432 0.0284156 0)
(29.267 0.0398947 0)
(29.0528 0.0555836 0)
(28.7758 0.0791046 0)
(28.4245 0.114352 0)
(27.9725 0.16541 0)
(27.4106 0.240398 0)
(26.6264 0.379002 0)
(25.6575 0.581951 0)
(24.1505 1.00308 0)
(22.236 1.62078 0)
(19.0487 3.08748 0)
(13.9544 4.45596 0)
(6.96482 7.67939 0)
(29.9989 0.000633482 0)
(29.986 0.00193076 0)
(29.9578 0.0033657 0)
(29.9148 0.00517663 0)
(29.8586 0.00755691 0)
(29.7866 0.0107746 0)
(29.6969 0.0151742 0)
(29.584 0.0216024 0)
(29.4434 0.0299518 0)
(29.2672 0.0420497 0)
(29.0532 0.0587529 0)
(28.7737 0.0833852 0)
(28.4231 0.120574 0)
(27.9719 0.174278 0)
(27.4099 0.253698 0)
(26.6263 0.398434 0)
(25.6567 0.612905 0)
(24.1537 1.05103 0)
(22.2574 1.70118 0)
(19.104 3.23593 0)
(14.12 4.69621 0)
(7.09312 8.14007 0)
(29.9989 0.000665986 0)
(29.9859 0.00202963 0)
(29.9576 0.00353828 0)
(29.9146 0.00544193 0)
(29.8584 0.00794397 0)
(29.7865 0.0113268 0)
(29.6968 0.0159517 0)
(29.5839 0.0227068 0)
(29.4434 0.0314879 0)
(29.2674 0.044216 0)
(29.0528 0.061943 0)
(28.772 0.0876574 0)
(28.4221 0.126788 0)
(27.9714 0.183161 0)
(27.4093 0.267002 0)
(26.6265 0.417871 0)
(25.656 0.643841 0)
(24.1571 1.09872 0)
(22.2792 1.78081 0)
(19.157 3.38174 0)
(14.2864 4.93498 0)
(7.22743 8.60747 0)
(29.9989 0.000698486 0)
(29.986 0.00212847 0)
(29.9578 0.00371086 0)
(29.9148 0.00570721 0)
(29.8586 0.008331 0)
(29.7867 0.011879 0)
(29.697 0.016729 0)
(29.5841 0.0238116 0)
(29.4436 0.0330202 0)
(29.2679 0.0464386 0)
(29.0517 0.0650866 0)
(28.7707 0.0919405 0)
(28.4214 0.133017 0)
(27.9711 0.19204 0)
(27.409 0.2803 0)
(26.6269 0.437316 0)
(25.6558 0.674767 0)
(24.1609 1.14613 0)
(22.302 1.85966 0)
(19.2087 3.5249 0)
(14.4545 5.17211 0)
(7.36756 9.08175 0)
(29.9988 0.000730984 0)
(29.9859 0.00222729 0)
(29.9576 0.00388344 0)
(29.9146 0.00597247 0)
(29.8584 0.00871796 0)
(29.7865 0.012431 0)
(29.6969 0.0175062 0)
(29.5841 0.0249162 0)
(29.4435 0.0345505 0)
(29.2684 0.0487008 0)
(29.0506 0.0682085 0)
(28.7697 0.0962513 0)
(28.4209 0.139242 0)
(27.9709 0.200923 0)
(27.4088 0.293595 0)
(26.6275 0.456768 0)
(25.6563 0.705682 0)
(24.1655 1.19321 0)
(22.326 1.93777 0)
(19.2601 3.66539 0)
(14.6249 5.40745 0)
(7.5134 9.5631 0)
(29.9989 0.000763476 0)
(29.986 0.00232609 0)
(29.9578 0.00405602 0)
(29.9148 0.00623771 0)
(29.8587 0.00910491 0)
(29.7867 0.0129831 0)
(29.6971 0.0182833 0)
(29.5843 0.026021 0)
(29.4437 0.0360775 0)
(29.2687 0.0509882 0)
(29.0497 0.0712503 0)
(28.769 0.100582 0)
(28.4205 0.145474 0)
(27.9709 0.209803 0)
(27.4089 0.306884 0)
(26.6286 0.476222 0)
(25.6576 0.736573 0)
(24.171 1.23993 0)
(22.3514 2.01513 0)
(19.3119 3.8032 0)
(14.7988 5.64088 0)
(7.66493 10.0517 0)
(29.9988 0.000795964 0)
(29.9859 0.00242487 0)
(29.9576 0.00422859 0)
(29.9147 0.00650292 0)
(29.8585 0.00949178 0)
(29.7866 0.0135351 0)
(29.6969 0.0190599 0)
(29.5842 0.0271259 0)
(29.4437 0.0376009 0)
(29.2689 0.0532568 0)
(29.049 0.0742326 0)
(28.7684 0.104926 0)
(28.4203 0.151702 0)
(27.9709 0.218682 0)
(27.4092 0.320166 0)
(26.63 0.49567 0)
(25.6598 0.767415 0)
(24.1776 1.28628 0)
(22.3782 2.09176 0)
(19.3649 3.93829 0)
(14.9773 5.8723 0)
(7.82223 10.5478 0)
(29.9989 0.000828446 0)
(29.986 0.00252362 0)
(29.9578 0.00440118 0)
(29.9148 0.00676812 0)
(29.8587 0.00987866 0)
(29.7868 0.014087 0)
(29.6972 0.0198368 0)
(29.5844 0.0282293 0)
(29.444 0.0391388 0)
(29.2689 0.0555074 0)
(29.0486 0.0771906 0)
(28.768 0.109277 0)
(28.4202 0.15793 0)
(27.9711 0.227556 0)
(27.4097 0.333439 0)
(26.6318 0.515098 0)
(25.6632 0.798179 0)
(24.1854 1.33224 0)
(22.4063 2.16764 0)
(19.4194 4.0706 0)
(15.1616 6.10163 0)
(7.98546 11.0516 0)
(29.9988 0.000860924 0)
(29.9859 0.00262235 0)
(29.9577 0.00457374 0)
(29.9147 0.00703328 0)
(29.8585 0.0102655 0)
(29.7866 0.0146388 0)
(29.697 0.0206134 0)
(29.5843 0.0293338 0)
(29.4441 0.0406828 0)
(29.2687 0.0578578 0)
(29.0482 0.0801595 0)
(28.7677 0.113631 0)
(28.4201 0.164153 0)
(27.9713 0.236427 0)
(27.4104 0.346695 0)
(26.6342 0.534494 0)
(25.6676 0.828848 0)
(24.1943 1.37785 0)
(22.4356 2.24278 0)
(19.4758 4.20002 0)
(15.353 6.32877 0)
(8.15484 11.5635 0)
(29.9989 0.000893396 0)
(29.986 0.00272106 0)
(29.9578 0.00474632 0)
(29.9149 0.00729842 0)
(29.8587 0.0106522 0)
(29.7869 0.0151906 0)
(29.6973 0.0213898 0)
(29.5845 0.0304379 0)
(29.4445 0.0422351 0)
(29.2683 0.0601674 0)
(29.048 0.0831567 0)
(28.7675 0.117987 0)
(28.4201 0.170374 0)
(27.9717 0.245291 0)
(27.4114 0.35993 0)
(26.637 0.553842 0)
(25.6731 0.859415 0)
(24.2045 1.42309 0)
(22.466 2.31716 0)
(19.5344 4.32644 0)
(15.5525 6.55365 0)
(8.33066 12.0837 0)
(29.9988 0.000925863 0)
(29.9859 0.00281974 0)
(29.9577 0.00491887 0)
(29.9147 0.00756352 0)
(29.8585 0.011039 0)
(29.7867 0.0157421 0)
(29.6971 0.0221665 0)
(29.5844 0.0315381 0)
(29.4446 0.0438381 0)
(29.268 0.0623366 0)
(29.0479 0.0861842 0)
(28.7674 0.122343 0)
(28.4202 0.176591 0)
(27.9721 0.254147 0)
(27.4126 0.373137 0)
(26.6403 0.573132 0)
(25.6795 0.889879 0)
(24.2158 1.46797 0)
(22.4975 2.39077 0)
(19.5951 4.44971 0)
(15.7613 6.7762 0)
(8.51326 12.6125 0)
(29.9989 0.000958325 0)
(29.986 0.0029184 0)
(29.9578 0.00509144 0)
(29.9149 0.0078286 0)
(29.8588 0.0114257 0)
(29.787 0.0162936 0)
(29.6974 0.0229431 0)
(29.5847 0.0326383 0)
(29.4449 0.04546 0)
(29.2678 0.0644825 0)
(29.0478 0.0892352 0)
(28.7674 0.126698 0)
(28.4204 0.182804 0)
(27.9727 0.262993 0)
(27.4141 0.386313 0)
(26.6441 0.592357 0)
(25.6867 0.920235 0)
(24.2285 1.51249 0)
(22.53 2.46359 0)
(19.6578 4.56966 0)
(15.98 6.99633 0)
(8.70299 13.1504 0)
(29.9988 0.000990782 0)
(29.9859 0.00301704 0)
(29.9577 0.00526398 0)
(29.9147 0.00809363 0)
(29.8586 0.0118123 0)
(29.7867 0.016845 0)
(29.6973 0.0237194 0)
(29.5845 0.0337387 0)
(29.445 0.0470889 0)
(29.2677 0.0666231 0)
(29.0478 0.0923006 0)
(28.7674 0.131052 0)
(28.4206 0.189012 0)
(27.9733 0.271825 0)
(27.4159 0.399453 0)
(26.6482 0.611511 0)
(25.6948 0.950474 0)
(24.2425 1.55665 0)
(22.5634 2.53562 0)
(19.7225 4.68612 0)
(16.2091 7.21395 0)
(8.90023 13.6977 0)
(29.9989 0.00102323 0)
(29.986 0.00311565 0)
(29.9578 0.00543654 0)
(29.9149 0.00835865 0)
(29.8588 0.012199 0)
(29.787 0.0173963 0)
(29.6976 0.0244956 0)
(29.5848 0.0348385 0)
(29.4452 0.0487254 0)
(29.2679 0.0687452 0)
(29.0478 0.095375 0)
(28.7675 0.135405 0)
(28.4209 0.195215 0)
(27.9741 0.280643 0)
(27.4178 0.412556 0)
(26.6528 0.63059 0)
(25.7037 0.980585 0)
(24.2579 1.60044 0)
(22.5979 2.60684 0)
(19.7888 4.79891 0)
(16.4486 7.42896 0)
(9.10533 14.2548 0)
(29.9988 0.00105568 0)
(29.9859 0.00321423 0)
(29.9577 0.00560906 0)
(29.9147 0.00862361 0)
(29.8586 0.0125855 0)
(29.7868 0.0179475 0)
(29.6974 0.0252714 0)
(29.5848 0.0359382 0)
(29.4451 0.0503664 0)
(29.2681 0.0708549 0)
(29.0479 0.0984552 0)
(28.7676 0.139756 0)
(28.4212 0.201413 0)
(27.975 0.289444 0)
(27.42 0.425617 0)
(26.6577 0.649588 0)
(25.7134 1.01055 0)
(24.2747 1.64387 0)
(22.6334 2.67725 0)
(19.8567 4.90785 0)
(16.6984 7.64124 0)
(9.31863 14.8222 0)
(29.9989 0.00108812 0)
(29.9861 0.0033128 0)
(29.9579 0.0057816 0)
(29.9149 0.00888856 0)
(29.8589 0.012972 0)
(29.7871 0.0184986 0)
(29.6977 0.0260468 0)
(29.5851 0.0370381 0)
(29.4453 0.0520099 0)
(29.2684 0.072954 0)
(29.0481 0.10154 0)
(28.7678 0.144106 0)
(28.4216 0.207604 0)
(27.9759 0.298229 0)
(27.4223 0.438638 0)
(26.6629 0.668499 0)
(25.7237 1.04037 0)
(24.2928 1.68692 0)
(22.6701 2.74686 0)
(19.926 5.01277 0)
(16.9584 7.85066 0)
(9.54041 15.4001 0)
(29.9988 0.00112056 0)
(29.9859 0.00341134 0)
(29.9577 0.0059541 0)
(29.9148 0.00915346 0)
(29.8586 0.0133584 0)
(29.7869 0.0190498 0)
(29.6975 0.0268218 0)
(29.5851 0.0381347 0)
(29.4451 0.0536522 0)
(29.2688 0.0750461 0)
(29.0482 0.104628 0)
(28.768 0.148454 0)
(28.422 0.21379 0)
(27.977 0.306995 0)
(27.4249 0.451613 0)
(26.6684 0.687318 0)
(25.7348 1.07002 0)
(24.3124 1.7296 0)
(22.7079 2.81566 0)
(19.9969 5.11352 0)
(17.2281 8.05709 0)
(9.77095 15.9892 0)
(29.9989 0.00115299 0)
(29.9861 0.00350986 0)
(29.9579 0.00612662 0)
(29.915 0.00941833 0)
(29.8589 0.0137449 0)
(29.7872 0.0196004 0)
(29.6978 0.0275985 0)
(29.5855 0.0392299 0)
(29.4451 0.0552343 0)
(29.2692 0.0771322 0)
(29.0484 0.107718 0)
(28.7683 0.1528 0)
(28.4225 0.219968 0)
(27.9782 0.315743 0)
(27.4276 0.464544 0)
(26.6742 0.706039 0)
(25.7465 1.09948 0)
(24.3334 1.77189 0)
(22.7471 2.88364 0)
(20.0694 5.20992 0)
(17.5075 8.26039 0)
(10.0105 16.5898 0)
(29.9988 0.00118542 0)
(29.986 0.00360835 0)
(29.9577 0.00629908 0)
(29.9148 0.00968316 0)
(29.8587 0.014131 0)
(29.787 0.0201519 0)
(29.6975 0.0283696 0)
(29.5854 0.0403603 0)
(29.4448 0.0566651 0)
(29.2697 0.079222 0)
(29.0486 0.110811 0)
(28.7686 0.157144 0)
(28.4231 0.22614 0)
(27.9794 0.324469 0)
(27.4305 0.477426 0)
(26.6804 0.724657 0)
(25.7589 1.12875 0)
(24.3557 1.81379 0)
(22.7879 2.95081 0)
(20.1438 5.30186 0)
(17.7964 8.46041 0)
(10.2593 17.2022 0)
(29.9989 0.00121785 0)
(29.9861 0.00370683 0)
(29.9579 0.00647157 0)
(29.915 0.00994797 0)
(29.859 0.0145172 0)
(29.7873 0.0207024 0)
(29.6979 0.029146 0)
(29.5858 0.0414713 0)
(29.4451 0.058406 0)
(29.2701 0.0813425 0)
(29.0489 0.113905 0)
(28.7689 0.161485 0)
(28.4237 0.232303 0)
(27.9808 0.333174 0)
(27.4336 0.490258 0)
(26.6868 0.743165 0)
(25.772 1.1578 0)
(24.3794 1.85528 0)
(22.8303 3.01715 0)
(20.2201 5.38917 0)
(18.0951 8.657 0)
(10.5175 17.827 0)
(29.9988 0.00125027 0)
(29.986 0.00380527 0)
(29.9577 0.00664401 0)
(29.9148 0.0102126 0)
(29.8587 0.0149035 0)
(29.7871 0.0212524 0)
(29.6977 0.0299198 0)
(29.5855 0.0426143 0)
(29.4455 0.0601426 0)
(29.2705 0.0834969 0)
(29.0491 0.117 0)
(28.7693 0.165824 0)
(28.4243 0.238458 0)
(27.9822 0.341855 0)
(27.4368 0.50304 0)
(26.6935 0.761559 0)
(25.7856 1.18663 0)
(24.4044 1.89635 0)
(22.8746 3.08265 0)
(20.2983 5.47171 0)
(18.4039 8.85001 0)
(10.7854 18.4646 0)
(29.9989 0.00128269 0)
(29.9861 0.0039037 0)
(29.9579 0.00681646 0)
(29.915 0.0104775 0)
(29.8591 0.015289 0)
(29.7874 0.0218059 0)
(29.6981 0.0306785 0)
(29.5857 0.0437783 0)
(29.4457 0.0616421 0)
(29.2708 0.0856677 0)
(29.0494 0.120095 0)
(28.7697 0.170159 0)
(28.425 0.244605 0)
(27.9837 0.350513 0)
(27.4402 0.515766 0)
(26.7005 0.779833 0)
(25.7999 1.21523 0)
(24.4306 1.93698 0)
(22.9211 3.1473 0)
(20.3783 5.54934 0)
(18.723 9.03928 0)
(11.0632 19.1154 0)
(29.9988 0.00131511 0)
(29.986 0.00400207 0)
(29.9577 0.00698883 0)
(29.9148 0.010742 0)
(29.8588 0.0156752 0)
(29.7871 0.0223532 0)
(29.698 0.0314787 0)
(29.5854 0.0447233 0)
(29.4458 0.0630732 0)
(29.271 0.0878422 0)
(29.0497 0.123189 0)
(28.7702 0.174492 0)
(28.4258 0.25074 0)
(27.9853 0.359149 0)
(27.4437 0.528441 0)
(26.7078 0.797982 0)
(25.8148 1.24358 0)
(24.4579 1.97714 0)
(22.9701 3.21111 0)
(20.4595 5.6219 0)
(19.0515 9.22468 0)
(11.3512 19.7798 0)
(29.9988 0.00134754 0)
(29.9861 0.00410053 0)
(29.9579 0.00716123 0)
(29.915 0.0110067 0)
(29.8591 0.0160615 0)
(29.7874 0.0229036 0)
(29.6984 0.0322692 0)
(29.585 0.045932 0)
(29.4458 0.0645326 0)
(29.2712 0.090016 0)
(29.05 0.126282 0)
(28.7707 0.178821 0)
(28.4266 0.256867 0)
(27.987 0.367758 0)
(27.4474 0.541056 0)
(26.7154 0.816002 0)
(25.8302 1.27167 0)
(24.4863 2.0168 0)
(23.022 3.27408 0)
(20.541 5.68931 0)
(19.3862 9.40622 0)
(11.6495 20.459 0)
(29.9988 0.00137983 0)
(29.986 0.00419899 0)
(29.9577 0.00733349 0)
(29.9148 0.011271 0)
(29.8588 0.0164477 0)
(29.7871 0.0234548 0)
(29.6984 0.0330619 0)
(29.5845 0.0472831 0)
(29.4458 0.0660309 0)
(29.2714 0.0921907 0)
(29.0502 0.129372 0)
(28.7712 0.183144 0)
(28.4274 0.262981 0)
(27.9887 0.376345 0)
(27.4512 0.553612 0)
(26.7232 0.833886 0)
(25.8461 1.29949 0)
(24.5157 2.05593 0)
(23.0772 3.33623 0)
(20.6221 5.75153 0)
(19.7202 9.58357 0)
(11.9577 21.1606 0)
(29.9989 0.00141142 0)
(29.9861 0.00429687 0)
(29.9579 0.00750565 0)
(29.915 0.0115332 0)
(29.8592 0.0168325 0)
(29.7875 0.0239966 0)
(29.6987 0.033901 0)
(29.5843 0.0484159 0)
(29.4457 0.0675435 0)
(29.2715 0.0943636 0)
(29.0505 0.132461 0)
(28.7717 0.18746 0)
(28.4283 0.269081 0)
(27.9906 0.384916 0)
(27.4552 0.566111 0)
(26.7314 0.851634 0)
(25.8625 1.32704 0)
(24.5459 2.09445 0)
(23.1361 3.39757 0)
(20.7029 5.80863 0)
(20.0421 9.75474 0)
(12.3619 21.9059 0)
(-1.40674 0.0649084 0)
(-4.27013 0.0457107 0)
(-5.55318 0.00437571 0)
(-4.60647 -0.0213115 0)
(-3.22694 -0.0176173 0)
(-2.5558 -0.00832731 0)
(-2.1789 -0.00337181 0)
(-2.11091 -0.00152459 0)
(-1.96135 -0.00264619 0)
(-1.67454 -0.00290843 0)
(-1.42549 -0.0018694 0)
(-1.18554 -0.00298351 0)
(-0.850704 -0.00410476 0)
(-0.292704 -0.00780306 0)
(0.968658 -0.012374 0)
(2.88835 -0.0145058 0)
(5.04779 -0.0137507 0)
(7.04963 -0.011711 0)
(8.85816 -0.00970493 0)
(10.4793 -0.00810905 0)
(11.9855 -0.0070937 0)
(13.4644 -0.00650955 0)
(14.9588 -0.00615641 0)
(16.5103 -0.0060045 0)
(18.1801 -0.0060747 0)
(20.0122 -0.0100633 0)
(24.604 -0.0120088 0)
(28.2811 -0.00624442 0)
(29.199 -0.00134977 0)
(29.3509 -0.000255271 0)
(29.418 -0.000168302 0)
(29.509 -0.000170457 0)
(29.5907 -0.000133851 0)
(29.6557 -0.000101334 0)
(29.7113 -4.46903e-05 0)
(-1.37991 0.192432 0)
(-4.20597 0.135961 0)
(-5.48024 0.0131202 0)
(-4.53207 -0.0636319 0)
(-3.15863 -0.0525621 0)
(-2.496 -0.0246914 0)
(-2.12528 -0.0097793 0)
(-2.07456 -0.00413826 0)
(-1.95683 -0.00757529 0)
(-1.70374 -0.00887276 0)
(-1.44416 -0.00645173 0)
(-1.16184 -0.00972391 0)
(-0.756133 -0.0122196 0)
(-0.193487 -0.0221175 0)
(0.954457 -0.0355708 0)
(2.76803 -0.0427103 0)
(4.92578 -0.0408113 0)
(6.97616 -0.0346597 0)
(8.81722 -0.0287594 0)
(10.4477 -0.0241571 0)
(11.9492 -0.0211963 0)
(13.4139 -0.0194313 0)
(14.8884 -0.0183495 0)
(16.4168 -0.0179048 0)
(18.0725 -0.0178907 0)
(19.8284 -0.0299548 0)
(24.3137 -0.0365234 0)
(28.2102 -0.0193336 0)
(29.1957 -0.00416612 0)
(29.3544 -0.000773256 0)
(29.4196 -0.000499935 0)
(29.5095 -0.000509629 0)
(29.5912 -0.00040144 0)
(29.6562 -0.000303967 0)
(29.7117 -0.000134092 0)
(-1.34318 0.317553 0)
(-4.13097 0.225198 0)
(-5.3949 0.0216131 0)
(-4.43474 -0.106133 0)
(-3.06838 -0.0874054 0)
(-2.42197 -0.0408349 0)
(-2.06363 -0.0157861 0)
(-2.03657 -0.00601688 0)
(-1.94875 -0.0115485 0)
(-1.71454 -0.0142809 0)
(-1.43586 -0.0107848 0)
(-1.0977 -0.0177844 0)
(-0.630319 -0.0213464 0)
(-0.0901365 -0.0358118 0)
(0.934339 -0.0568442 0)
(2.6534 -0.0695336 0)
(4.81898 -0.0677113 0)
(6.91785 -0.0577884 0)
(8.79036 -0.0477536 0)
(10.4323 -0.040025 0)
(11.9319 -0.0351033 0)
(13.3834 -0.0321313 0)
(14.838 -0.0303292 0)
(16.3428 -0.0296509 0)
(17.9839 -0.0294717 0)
(19.6739 -0.0490869 0)
(24.0459 -0.0612587 0)
(28.1419 -0.0331755 0)
(29.1926 -0.00719987 0)
(29.3579 -0.00130573 0)
(29.4214 -0.000825149 0)
(29.5103 -0.000846236 0)
(29.5918 -0.000668662 0)
(29.6567 -0.000506404 0)
(29.7122 -0.000223425 0)
(-1.29985 0.439927 0)
(-4.0476 0.313368 0)
(-5.29488 0.0296077 0)
(-4.30885 -0.149054 0)
(-2.95455 -0.121719 0)
(-2.33024 -0.0564291 0)
(-1.98809 -0.0212074 0)
(-1.98543 -0.00721497 0)
(-1.92274 -0.0150457 0)
(-1.70289 -0.0198133 0)
(-1.40912 -0.0161731 0)
(-1.01094 -0.027073 0)
(-0.482912 -0.0308019 0)
(0.032695 -0.0483513 0)
(0.93697 -0.0768748 0)
(2.55659 -0.0964646 0)
(4.72018 -0.0956772 0)
(6.86685 -0.081898 0)
(8.77498 -0.0673033 0)
(10.4333 -0.0561147 0)
(11.9349 -0.0490026 0)
(13.3744 -0.0447104 0)
(14.8087 -0.0421412 0)
(16.2886 -0.0412496 0)
(17.9133 -0.0407668 0)
(19.5484 -0.0677092 0)
(23.801 -0.0861665 0)
(28.0757 -0.0477456 0)
(29.1896 -0.0104107 0)
(29.3615 -0.00184972 0)
(29.4232 -0.0011444 0)
(29.5112 -0.00118054 0)
(29.5925 -0.000935448 0)
(29.6573 -0.000708533 0)
(29.7126 -0.000312598 0)
(-1.25008 0.559256 0)
(-3.9558 0.400154 0)
(-5.17711 0.0366341 0)
(-4.14988 -0.192294 0)
(-2.8159 -0.155257 0)
(-2.21938 -0.0713088 0)
(-1.89771 -0.0260067 0)
(-1.91952 -0.00778301 0)
(-1.87803 -0.0180965 0)
(-1.66992 -0.0253456 0)
(-1.36187 -0.0224482 0)
(-0.896983 -0.0375045 0)
(-0.307418 -0.0406588 0)
(0.182968 -0.0597458 0)
(0.972065 -0.0951726 0)
(2.48866 -0.122585 0)
(4.6363 -0.124056 0)
(6.82741 -0.106715 0)
(8.77572 -0.0872842 0)
(10.4557 -0.0723666 0)
(11.9622 -0.0628694 0)
(13.39 -0.0571441 0)
(14.8028 -0.0537635 0)
(16.2556 -0.0526856 0)
(17.8613 -0.0518348 0)
(19.4509 -0.0857946 0)
(23.5779 -0.111162 0)
(28.0114 -0.0629618 0)
(29.1866 -0.0138007 0)
(29.3652 -0.00240597 0)
(29.4253 -0.0014579 0)
(29.5123 -0.00151249 0)
(29.5934 -0.00120164 0)
(29.658 -0.000910197 0)
(29.7132 -0.000401514 0)
(-1.19386 0.675171 0)
(-3.85523 0.485281 0)
(-5.03799 0.0421725 0)
(-3.95286 -0.236046 0)
(-2.65036 -0.187827 0)
(-2.08719 -0.0853409 0)
(-1.79075 -0.0301257 0)
(-1.83673 -0.00776629 0)
(-1.8134 -0.0207683 0)
(-1.61597 -0.03091 0)
(-1.29167 -0.0296486 0)
(-0.750802 -0.0491707 0)
(-0.0976426 -0.0508845 0)
(0.368992 -0.0699753 0)
(1.05044 -0.111678 0)
(2.46551 -0.14756 0)
(4.58391 -0.152418 0)
(6.81219 -0.132029 0)
(8.80375 -0.107638 0)
(10.5096 -0.0887813 0)
(12.0218 -0.0767036 0)
(13.436 -0.0694162 0)
(14.8244 -0.0651755 0)
(16.2467 -0.0639369 0)
(17.8296 -0.0626942 0)
(19.381 -0.103358 0)
(23.3754 -0.136172 0)
(27.9491 -0.078756 0)
(29.1836 -0.0173638 0)
(29.369 -0.00297476 0)
(29.4275 -0.00176592 0)
(29.5135 -0.00184205 0)
(29.5944 -0.00146709 0)
(29.6589 -0.00111124 0)
(29.7137 -0.000490079 0)
(-1.13115 0.787303 0)
(-3.74531 0.568397 0)
(-4.8733 0.0456244 0)
(-3.71269 -0.280519 0)
(-2.45531 -0.219158 0)
(-1.93068 -0.0983829 0)
(-1.66458 -0.0334998 0)
(-1.7343 -0.00720453 0)
(-1.72675 -0.0231003 0)
(-1.53995 -0.0365424 0)
(-1.19526 -0.0379124 0)
(-0.565715 -0.0621822 0)
(0.155914 -0.061548 0)
(0.60408 -0.0792103 0)
(1.18509 -0.126579 0)
(2.50393 -0.171389 0)
(4.58619 -0.180555 0)
(6.84386 -0.157715 0)
(8.87979 -0.128352 0)
(10.6136 -0.105371 0)
(12.128 -0.0904922 0)
(13.5224 -0.081493 0)
(14.8805 -0.0763405 0)
(16.2667 -0.0749684 0)
(17.8213 -0.0733489 0)
(19.34 -0.120395 0)
(23.1931 -0.161134 0)
(27.8886 -0.0950693 0)
(29.1806 -0.021095 0)
(29.3727 -0.00355643 0)
(29.4298 -0.00206872 0)
(29.515 -0.0021692 0)
(29.5955 -0.00173166 0)
(29.6597 -0.00131149 0)
(29.7143 -0.000578198 0)
(-1.06188 0.895273 0)
(-3.62528 0.649054 0)
(-4.67835 0.0463164 0)
(-3.42626 -0.325837 0)
(-2.22875 -0.248909 0)
(-1.74669 -0.110278 0)
(-1.51599 -0.0360552 0)
(-1.60879 -0.0061312 0)
(-1.61495 -0.0251125 0)
(-1.43903 -0.042287 0)
(-1.06782 -0.0474091 0)
(-0.331935 -0.0768008 0)
(0.469491 -0.0728664 0)
(0.91116 -0.0876661 0)
(1.395 -0.140049 0)
(2.62305 -0.19421 0)
(4.67102 -0.208453 0)
(6.95583 -0.183715 0)
(9.03783 -0.149409 0)
(10.7993 -0.122114 0)
(12.3063 -0.104184 0)
(13.6672 -0.0933076 0)
(14.9827 -0.087196 0)
(16.3233 -0.0857274 0)
(17.8415 -0.0837888 0)
(19.3313 -0.136891 0)
(23.0318 -0.18597 0)
(27.8304 -0.111845 0)
(29.1775 -0.0249889 0)
(29.3765 -0.00415144 0)
(29.4322 -0.00236661 0)
(29.5165 -0.0024939 0)
(29.5967 -0.00199519 0)
(29.6607 -0.00151081 0)
(29.7149 -0.000665777 0)
(-0.985964 0.998678 0)
(-3.49415 0.7267 0)
(-4.44833 0.0435623 0)
(-3.09532 -0.372013 0)
(-1.97062 -0.27676 0)
(-1.53282 -0.120897 0)
(-1.34167 -0.0377284 0)
(-1.4563 -0.00458509 0)
(-1.47393 -0.0268251 0)
(-1.30873 -0.0482129 0)
(-0.90253 -0.0584288 0)
(-0.0373375 -0.0933692 0)
(0.865977 -0.0852474 0)
(1.32541 -0.0955851 0)
(1.70843 -0.152132 0)
(2.8483 -0.21616 0)
(4.87202 -0.236296 0)
(7.19161 -0.210149 0)
(9.32627 -0.170842 0)
(11.1155 -0.138949 0)
(12.5994 -0.117656 0)
(13.9013 -0.10473 0)
(15.1504 -0.0976331 0)
(16.4286 -0.0961316 0)
(17.8979 -0.0939868 0)
(19.3613 -0.152818 0)
(22.8945 -0.210584 0)
(27.7747 -0.129022 0)
(29.1744 -0.0290397 0)
(29.3803 -0.00476022 0)
(29.4348 -0.00265991 0)
(29.5183 -0.00281613 0)
(29.598 -0.00225753 0)
(29.6618 -0.00170903 0)
(29.7156 -0.000752722 0)
(-0.903333 1.09709 0)
(-3.35076 0.800686 0)
(-4.17877 0.0367768 0)
(-2.72807 -0.418925 0)
(-1.6838 -0.30251 0)
(-1.28845 -0.130184 0)
(-1.13874 -0.0384922 0)
(-1.27269 -0.00262153 0)
(-1.29888 -0.0282733 0)
(-1.14299 -0.0544246 0)
(-0.690601 -0.0712708 0)
(0.327064 -0.112441 0)
(1.36657 -0.0993423 0)
(1.88722 -0.103269 0)
(2.15952 -0.162738 0)
(3.20925 -0.23735 0)
(5.22547 -0.264397 0)
(7.59677 -0.237314 0)
(9.79677 -0.192803 0)
(11.6193 -0.155819 0)
(13.0668 -0.130694 0)
(14.274 -0.115517 0)
(15.4152 -0.10746 0)
(16.6017 -0.106048 0)
(18.0026 -0.103894 0)
(19.4412 -0.16813 0)
(22.7865 -0.234853 0)
(27.7222 -0.146528 0)
(29.1712 -0.0332401 0)
(29.3841 -0.00538328 0)
(29.4376 -0.00294903 0)
(29.5202 -0.00313587 0)
(29.5995 -0.00251853 0)
(29.663 -0.00190599 0)
(29.7163 -0.000838939 0)
(-0.813936 1.19005 0)
(-3.19386 0.870279 0)
(-3.86576 0.0255963 0)
(-2.3376 -0.466277 0)
(-1.37422 -0.32615 0)
(-1.0157 -0.138193 0)
(-0.905543 -0.0383907 0)
(-1.05417 -0.000331499 0)
(-1.08486 -0.0295266 0)