/*--------------------------------*- C++ -*----------------------------------*\
| =========                 |                                                 |
| \\      /  F ield         | OpenFOAM: The Open Source CFD Toolbox           |
|  \\    /   O peration     | Version:  v1912                                 |
|   \\  /    A nd           | Website:  www.openfoam.com                      |
|    \\/     M anipulation  |                                                 |
\*---------------------------------------------------------------------------*/
FoamFile
{
    version     2.0;
    format      ascii;
    class       volScalarField;
    location    "500";
    object      alphat;
}
// * * * * * * * * * * * * * * * * * * * * * * * * * * * * * * * * * * * * * //

dimensions      [0 2 -1 0 0 0 0];


internalField   nonuniform List<scalar> 
4000
(
0.000428727
0.000393412
0.000336322
0.000161718
0.000135971
0.00012435
0.000115681
0.000115129
0.000141245
8.06439e-05
0.000152572
0.000110546
0.000109965
0.000115725
0.000125207
0.000135919
0.000166334
0.000359439
0.000405996
0.000436994
0.000459621
0.000427873
0.000370884
0.00031672
0.0002718
0.000164529
0.000153824
0.000154694
0.000161325
0.000135685
0.000176081
0.000154859
0.000151956
0.000154087
0.00016764
0.000278406
0.00032355
0.000382635
0.000435094
0.000465558
0.000478733
0.000456078
0.000414439
0.000367236
0.000322035
0.000271507
0.000198025
0.000169706
0.000173132
0.000179368
0.000181341
0.000171961
0.000165503
0.000208986
0.000277249
0.000326065
0.000369828
0.000417248
0.000460418
0.000483409
0.00049067
0.00047528
0.000439091
0.000389754
0.000339204
0.000295145
0.000248219
0.000200575
0.000179521
0.000193678
0.000192392
0.000175397
0.00020914
0.000255568
0.000300914
0.000343639
0.000394456
0.000442225
0.000478791
0.000494674
0.000499688
0.000492676
0.000469237
0.000430373
0.000381791
0.000333937
0.000291881
0.000247573
0.000215066
0.000191271
0.000190781
0.000217428
0.00025759
0.000301652
0.000342861
0.000390348
0.000436638
0.00047298
0.000496027
0.000503334
0.000507733
0.000509757
0.000500732
0.000483913
0.000464238
0.000443297
0.000421202
0.000396332
0.000368683
0.000347739
0.000352922
0.000378236
0.000404331
0.000428284
0.000449806
0.000469953
0.000488701
0.00050471
0.000513393
0.000511156
0.000516333
0.000528446
0.000533563
0.000533175
0.00053003
0.000523792
0.000514351
0.000501427
0.000485864
0.000467127
0.000469189
0.000488447
0.000504654
0.000517936
0.000527678
0.000534052
0.000537181
0.000537395
0.000532114
0.000519583
0.000526233
0.00054864
0.000565817
0.00057721
0.000584598
0.000587341
0.000585296
0.000577868
0.000564779
0.000543947
0.000544419
0.000564902
0.000578871
0.00058705
0.000589773
0.000587568
0.000580573
0.000569371
0.00055221
0.0005293
0.000538656
0.000572802
0.000600588
0.000621181
0.000636399
0.000645556
0.000648598
0.000644807
0.000632797
0.000609132
0.000608576
0.00063157
0.000644692
0.000649513
0.000647318
0.000638821
0.000624125
0.000603858
0.000576152
0.000541523
0.000556334
0.000601424
0.000637567
0.000664158
0.000684589
0.000699333
0.000708597
0.000711525
0.000705885
0.00068436
0.000682976
0.000703995
0.000710671
0.000708699
0.000700247
0.000686196
0.000666353
0.000640216
0.000604309
0.000558927
0.000393437
0.000363452
0.000309144
0.000189526
0.000186214
0.000175832
0.000145982
0.000124733
9.80974e-05
0.000250561
8.32214e-05
0.000130861
0.000141673
0.000150951
0.000179415
0.000182738
0.000193267
0.000340274
0.000381252
0.000408233
0.000427919
0.000570905
0.000453889
0.000405002
0.000417273
0.000362901
0.000329497
0.0003602
0.000406715
0.000460731
0.000430936
0.000392553
0.000351048
0.000340544
0.000380307
0.000423919
0.000420118
0.000489292
0.000625743
0.000438658
0.000456124
0.000707645
0.000669746
0.000558161
0.000487049
0.000442091
0.000411041
0.000398344
0.000436509
0.000502721
0.000486917
0.000418424
0.000402565
0.000419716
0.000453618
0.000501363
0.000581475
0.000703998
0.000729747
0.000463833
0.000475319
0.000691106
0.000699794
0.000615314
0.00052228
0.000455336
0.000409022
0.000387674
0.000425621
0.000498574
0.000486751
0.000409508
0.000385811
0.00041708
0.000467812
0.000537858
0.0006351
0.000721261
0.00070576
0.000481587
0.000492705
0.000701415
0.00071807
0.00064383
0.000535969
0.000456924
0.000400653
0.000361289
0.000355009
0.000428344
0.00042546
0.000350024
0.000362445
0.000406537
0.000464102
0.000543245
0.000651552
0.000729422
0.000713245
0.00049802
0.000509772
0.00072564
0.000758027
0.000709147
0.000610414
0.000511709
0.000446799
0.000394704
0.000359845
0.000358403
0.000358836
0.000360529
0.000397179
0.000450798
0.00051576
0.000617684
0.000717022
0.000767549
0.000736278
0.000514386
0.000528448
0.000748867
0.000798274
0.000793574
0.000750913
0.000670702
0.000569901
0.000496542
0.000451065
0.000428916
0.000432005
0.000455017
0.000500563
0.000578223
0.00067976
0.000758945
0.000802478
0.000807746
0.000759056
0.000532314
0.000548635
0.000763989
0.000830657
0.000877179
0.000908953
0.000909312
0.000877443
0.000805488
0.000717981
0.000633431
0.000639535
0.000725044
0.000814116
0.000883089
0.000916585
0.000918112
0.000887396
0.000839964
0.000773662
0.00055192
0.000572795
0.000754051
0.000849597
0.000922699
0.000975569
0.000995662
0.000984792
0.000942354
0.000863439
0.000751623
0.000751445
0.000859593
0.000942187
0.000987592
0.00100078
0.000982207
0.000930661
0.000857598
0.000761329
0.00057572
0.000601412
0.000652306
0.000694805
0.000727755
0.000754403
0.000774807
0.000788732
0.000794833
0.000790457
0.000769833
0.000767694
0.000788018
0.00079344
0.000788343
0.000775288
0.000755632
0.000729627
0.000697147
0.00065485
0.000603606
0.000336377
0.00030915
0.000208979
0.000204063
0.000219133
0.000202295
0.000163932
0.000156624
0.00014973
0.000116429
0.000208314
0.000126
0.000157505
0.000176211
0.000211863
0.000218506
0.000204065
0.00029522
0.000342759
0.000363899
0.000370945
0.000453894
0.000438013
0.000464966
0.000486229
0.000437605
0.000396929
0.000410725
0.000469448
0.000521804
0.000510763
0.00044457
0.000407548
0.000411618
0.000451135
0.000478013
0.00044007
0.000432728
0.000491727
0.000388077
0.000414504
0.000669844
0.000654755
0.000592796
0.000549086
0.0005218
0.00049885
0.000478775
0.000508857
0.000580968
0.000560897
0.000488073
0.000480789
0.000507584
0.000529872
0.000557594
0.000605735
0.000681149
0.000713092
0.000422703
0.000439159
0.000699891
0.000743601
0.000680724
0.000602715
0.000544051
0.000505566
0.000495818
0.000524593
0.00058494
0.000571589
0.00051609
0.000494493
0.000515864
0.000560383
0.00062467
0.000710205
0.00078051
0.000727739
0.000447516
0.000469287
0.000718179
0.000776376
0.000727524
0.00062933
0.000549512
0.000493741
0.000462539
0.000476961
0.000575098
0.000569026
0.00046953
0.000462592
0.000500051
0.00055808
0.000638516
0.000738016
0.000793104
0.000736911
0.000476598
0.000500763
0.000758132
0.000832309
0.000791756
0.000675894
0.00056932
0.000493815
0.000438904
0.000408526
0.000423223
0.000419664
0.000403264
0.000437401
0.000495242
0.000572064
0.000682075
0.000802018
0.000847164
0.000774479
0.000506766
0.000533573
0.000798371
0.00089604
0.000886541
0.000787263
0.00067135
0.000569732
0.000490719
0.000434008
0.00040898
0.000408116
0.000431956
0.000489785
0.000571477
0.000675209
0.000794506
0.000898598
0.000911513
0.000813934
0.000538153
0.000565815
0.000830739
0.000970131
0.00103333
0.00102395
0.00095298
0.000871421
0.000776873
0.000676273
0.000581845
0.000580572
0.000675417
0.000778301
0.000873986
0.000959019
0.00103375
0.00104698
0.000985837
0.000845249
0.000569384
0.000600582
0.000849651
0.00107355
0.00126889
0.00139842
0.0014454
0.00143578
0.00137605
0.00125282
0.00105356
0.00105199
0.00124537
0.00137386
0.00143737
0.00145032
0.00140612
0.00128082
0.00108673
0.000861081
0.000603593
0.000637555
0.000694802
0.000743043
0.000781704
0.000813793
0.00083915
0.000857091
0.000865919
0.00086267
0.000840737
0.000837869
0.000859689
0.000863993
0.000856159
0.0008391
0.000814527
0.000783147
0.000745004
0.000696997
0.000639482
0.000161825
0.000189451
0.000203801
0.000227468
0.00022885
0.000210295
0.000185487
0.000167717
0.00015897
0.00015281
0.00015726
0.000160428
0.000174608
0.000193428
0.000216733
0.000231859
0.000223627
0.000204864
0.000197547
0.000201057
0.000316782
0.000404988
0.000464933
0.000505783
0.000509464
0.000468608
0.000443637
0.000458259
0.000513042
0.000582507
0.000557662
0.000491767
0.0004581
0.000453765
0.00047661
0.000505185
0.000486568
0.000440254
0.000420419
0.000327134
0.000367302
0.000558233
0.000592809
0.000583604
0.00057003
0.000566848
0.000547227
0.000527617
0.00056433
0.000643155
0.000618651
0.000545502
0.000528217
0.000554674
0.000572827
0.000577821
0.000592256
0.000608417
0.000589355
0.000375193
0.000389844
0.000615478
0.0006808
0.000660121
0.000618348
0.000584933
0.000563771
0.000562932
0.000591642
0.000654494
0.00063801
0.000577879
0.000562125
0.000574169
0.000602264
0.000642205
0.000690199
0.000716403
0.000647371
0.000401141
0.000430451
0.00064406
0.000727671
0.000713794
0.000655525
0.000598596
0.0005565
0.000537621
0.000567751
0.000663568
0.000652539
0.000557538
0.000538611
0.00056529
0.000611302
0.000670527
0.000730458
0.000747197
0.000666015
0.000441666
0.000483949
0.000709374
0.00079194
0.000779781
0.000705063
0.000622242
0.00055587
0.000508206
0.000487912
0.000519685
0.000515287
0.000482631
0.000508425
0.000560542
0.000630291
0.000717858
0.000798183
0.000813689
0.000731439
0.000491383
0.000533186
0.00079375
0.000886724
0.000888469
0.000819084
0.000720849
0.000629892
0.000553582
0.000492938
0.000466509
0.00046297
0.000488715
0.000553141
0.000633479
0.000728837
0.000833444
0.000907982
0.000910497
0.000814128
0.000538234
0.00057721
0.000877279
0.00103346
0.00110759
0.00110264
0.00103572
0.000952175
0.000854148
0.000741025
0.000630341
0.000624796
0.000737529
0.000854737
0.000955995
0.00104429
0.0011187
0.00113091
0.00105615
0.000894609
0.000580799
0.000621177
0.000922784
0.00126898
0.0015922
0.00176953
0.00180632
0.00179353
0.00171152
0.00154217
0.00129875
0.0012867
0.00153662
0.0017098
0.00179409
0.00180999
0.00177827
0.00160918
0.00128688
0.000936666
0.000624069
0.000664146
0.000727751
0.000781704
0.000826284
0.000864459
0.000895991
0.000918967
0.000931399
0.000930138
0.000911816
0.000907761
0.000926556
0.000928887
0.000917452
0.000895382
0.000864686
0.000827258
0.000783196
0.000729494
0.000665719
0.000136191
0.0001857
0.00021887
0.00022873
0.000225753
0.000210744
0.000194451
0.000179666
0.000170285
0.000169411
0.00016937
0.000174156
0.000186325
0.000201183
0.000216257
0.000229521
0.000232415
0.000218845
0.000183023
0.000140631
0.000271884
0.000417227
0.000486083
0.000509418
0.000501583
0.000481847
0.000475781
0.000498107
0.000565885
0.000650484
0.000620554
0.000536017
0.000492315
0.000483033
0.00049115
0.000504069
0.000506416
0.000478401
0.0004242
0.000283845
0.00032211
0.000487048
0.000549049
0.000569997
0.000582868
0.000586918
0.000565813
0.000556729
0.000612964
0.000702884
0.000674065
0.000585536
0.000555808
0.000574874
0.000593824
0.000590941
0.0005784
0.000559705
0.000506017
0.000331406
0.000339265
0.000522365
0.000602757
0.00061835
0.000611423
0.000602547
0.000598133
0.000599707
0.000629938
0.000703782
0.000685095
0.000614702
0.000599919
0.000607454
0.000618534
0.00063293
0.00064411
0.000630384
0.000546692
0.000348683
0.000381884
0.000536147
0.000629472
0.000655575
0.000640016
0.000613382
0.000590996
0.000587846
0.000629599
0.000710316
0.000696811
0.00061772
0.000589019
0.000601263
0.000628469
0.000657871
0.000674395
0.000648466
0.000556462
0.00039762
0.000464269
0.000610679
0.000676156
0.00070519
0.00068456
0.000641141
0.000597798
0.000567039
0.000565971
0.000627812
0.000624172
0.000563327
0.000571055
0.000607394
0.000655072
0.000702607
0.000726223
0.000698865
0.000634211
0.000472773
0.00053004
0.000751122
0.000787585
0.000819288
0.000806632
0.000753903
0.000689514
0.000628672
0.000580474
0.000575392
0.00057378
0.00057987
0.000633294
0.000699621
0.000770036
0.000829642
0.000846998
0.000816188
0.000774163
0.000535231
0.000584599
0.000909071
0.00102424
0.00110285
0.00112452
0.00108776
0.00102571
0.000940146
0.000826443
0.000709354
0.00070386
0.000824539
0.000943341
0.00103407
0.00110217
0.00114738
0.00113327
0.00105506
0.000928185
0.00058798
0.000636398
0.000975669
0.00139857
0.00176965
0.00194091
0.00204323
0.00207387
0.00200819
0.00181736
0.00151833
0.00150356
0.00180463
0.00200212
0.00207359
0.00204686
0.00195101
0.0017869
0.00141729
0.000990198
0.000638992
0.000684581
0.0007544
0.000813793
0.000864461
0.000910789
0.00094886
0.000977704
0.000995424
0.00099922
0.00098779
0.000982958
0.000994826
0.000992215
0.000975534
0.00094762
0.000910463
0.000864864
0.000814694
0.00075558
0.000685706
0.000124425
0.00017423
0.000203378
0.000210321
0.000210825
0.000204624
0.000195663
0.000186269
0.000180848
0.000184028
0.000183127
0.000184836
0.000193307
0.000203132
0.000211505
0.000217261
0.000218894
0.000213982
0.000181202
0.000129438
0.000164011
0.00036332
0.000437609
0.000468497
0.000481776
0.000487019
0.00049714
0.000527409
0.000603071
0.000691974
0.000660522
0.000570442
0.00051956
0.000503054
0.000497578
0.000492664
0.000479778
0.000455979
0.000387912
0.000177918
0.000271722
0.000442168
0.000521746
0.000566793
0.000586896
0.000583258
0.000567258
0.000573976
0.000640765
0.000723542
0.000695794
0.000611055
0.000571207
0.000578006
0.000594029
0.000595255
0.000574317
0.000531284
0.000456899
0.000282395
0.000295255
0.000455393
0.000544053
0.000584915
0.000602534
0.000611268
0.000611684
0.000611253
0.000648015
0.00071015
0.000694489
0.000633279
0.000613292
0.000621037
0.000624586
0.000619768
0.000604667
0.000564626
0.000473681
0.00030551
0.000334017
0.000457017
0.000549588
0.00059863
0.000613388
0.000611702
0.000607663
0.000618289
0.00066205
0.000723601
0.000714322
0.000651512
0.000618808
0.000617224
0.000626101
0.00062998
0.000615273
0.000564938
0.000471683
0.000348347
0.000443321
0.00051184
0.000569494
0.000622365
0.000641187
0.000633437
0.000616328
0.000607179
0.00062932
0.00070313
0.000700829
0.000628122
0.000613204
0.0006282
0.000648989
0.00065851
0.000639105
0.000584565
0.000526419
0.000452501
0.000523801
0.000670901
0.000671629
0.000721094
0.000754018
0.000747086
0.000715968
0.000680173
0.000658776
0.000687562
0.000689786
0.00066311
0.000689602
0.000730861
0.000767144
0.000778079
0.000746043
0.00069552
0.000696137
0.000528867
0.000587346
0.000909439
0.00095326
0.00103599
0.00108788
0.00109302
0.0010645
0.000998312
0.00089044
0.000775675
0.000773116
0.000891949
0.00100486
0.00107626
0.00111068
0.00111171
0.00106407
0.00098057
0.000929255
0.000590345
0.000645559
0.000995762
0.00144556
0.00180644
0.00204327
0.00219819
0.00225604
0.00218211
0.00193655
0.00154687
0.00153466
0.00192414
0.00217617
0.00225441
0.0022
0.00205175
0.00182138
0.0014644
0.00101008
0.000647689
0.00069933
0.000774807
0.000839152
0.000895994
0.000948863
0.000993173
0.00102794
0.00105144
0.00106176
0.0010593
0.00105391
0.00105695
0.00104779
0.00102524
0.000991284
0.000947859
0.000895751
0.00083939
0.000775331
0.00069991
0.000114691
0.000142551
0.000168926
0.000186309
0.000194593
0.000195672
0.000193379
0.000190656
0.000191497
0.000201441
0.000199944
0.000195114
0.00019777
0.000201407
0.00020365
0.000202631
0.000196251
0.000180575
0.000152451
0.000118811
0.000151561
0.000330056
0.000398266
0.000443939
0.000475823
0.000497168
0.000518721
0.000559462
0.000635356
0.000709958
0.000684609
0.000605309
0.000549046
0.000521419
0.00050507
0.000486332
0.000458572
0.000418818
0.000350266
0.000155534
0.000197817
0.000411489
0.000499184
0.000547391
0.00056588
0.000567289
0.000568316
0.000592736
0.000649855
0.000660643
0.000648834
0.000626991
0.000586846
0.000576693
0.000580621
0.000579402
0.000560115
0.00051264
0.000424201
0.000218708
0.000248488
0.000409283
0.000505727
0.00056385
0.000598175
0.000611708
0.000609778
0.000614896
0.000643329
0.000604389
0.000608025
0.000635405
0.000616843
0.000619883
0.000623518
0.000610959
0.000577904
0.000519939
0.000421428
0.000260017
0.000291995
0.000400796
0.000493851
0.000556561
0.000591024
0.000607674
0.000618177
0.000635954
0.000663348
0.00060483
0.000614322
0.000659035
0.000635894
0.000624976
0.000618657
0.000603682
0.000568813
0.000504629
0.000411381
0.00030638
0.000421209
0.000446894
0.000493949
0.00055598
0.000597859
0.00061635
0.000622847
0.000634238
0.000661141
0.000625842
0.000634579
0.000662059
0.000639489
0.0006334
0.000629683
0.000611242
0.000567173
0.000503067
0.000457113
0.00043061
0.000514356
0.000570011
0.00056992
0.000630096
0.000689658
0.000716029
0.000715163
0.00070797
0.000714145
0.000705525
0.000714691
0.000721723
0.000719019
0.000730719
0.000734821
0.00070937
0.000647914
0.000585833
0.000589383
0.000518985
0.000585306
0.000877559
0.000871614
0.000952384
0.00102586
0.00106457
0.00106154
0.00100708
0.000903725
0.00078665
0.000788638
0.000908559
0.00101601
0.00107429
0.00108128
0.00104604
0.000974218
0.000892659
0.000896935
0.000587726
0.000648609
0.000984884
0.00143591
0.00179361
0.00207392
0.00225606
0.0023122
0.00218938
0.00183141
0.00125333
0.0012535
0.00182016
0.00218861
0.00231374
0.00225848
0.00208085
0.00180592
0.00145221
0.000997491
0.000650045
0.000708603
0.000788739
0.000857098
0.000918973
0.000977709
0.00102794
0.00106885
0.00109939
0.00111995
0.00113413
0.00112799
0.00111474
0.00109541
0.00106573
0.00102554
0.000976038
0.000917996
0.000856546
0.00078848
0.000708528
0.000110594
0.000146036
0.00014403
0.000167858
0.000179735
0.000186244
0.00019063
0.000195961
0.00020438
0.000220175
0.00021816
0.000207141
0.000202272
0.000198176
0.000194169
0.000188011
0.000177631
0.000162413
0.000141664
0.000111656
0.000147902
0.000359633
0.000410454
0.000458716
0.000498204
0.00052746
0.000559487
0.000602287
0.000631974
0.000549189
0.000531657
0.000611944
0.000589842
0.000553762
0.000526011
0.00049952
0.000465423
0.000414368
0.000354924
0.00015284
0.000167978
0.000398047
0.000478796
0.000527754
0.000556804
0.000574027
0.000592765
0.000616295
0.000570557
0.000386583
0.000378826
0.000569624
0.000611404
0.000592064
0.00057848
0.000564385
0.000537612
0.000489519
0.000408178
0.000167407
0.000200186
0.000387563
0.00049588
0.000563014
0.000599771
0.000611293
0.000614915
0.000616093
0.000517723
0.000357558
0.000349682
0.000531874
0.000621006
0.000621296
0.000619967
0.000607752
0.000569487
0.000500082
0.000388614
0.000214764
0.000247338
0.00036127
0.00046259
0.000537672
0.000587877
0.000618306
0.000635962
0.000637742
0.00051233
0.000420602
0.000397705
0.000527436
0.000642026
0.000639211
0.000622923
0.000593087
0.000542495
0.000466133
0.000365812
0.000262795
0.000396241
0.000394687
0.000438978
0.000508292
0.000567096
0.000607203
0.00063424
0.000646328
0.000525162
0.000501079
0.000477764
0.000537792
0.000651919
0.00064082
0.00061534
0.000574497
0.000513327
0.000442773
0.00040146
0.000405915
0.000501423
0.000496542
0.000490803
0.000553722
0.0006288
0.00068025
0.000707998
0.000727302
0.00065713
0.000611283
0.000598807
0.000672335
0.000738055
0.000721061
0.000694775
0.000642306
0.000564234
0.000499114
0.000506122
0.000505421
0.000577889
0.000805523
0.000776979
0.000854297
0.000940287
0.000998408
0.00100713
0.000956544
0.000852376
0.000761322
0.00075404
0.000861156
0.00096809
0.00102064
0.00101359
0.000956731
0.000871184
0.000794359
0.00082685
0.000579576
0.000644835
0.000942462
0.00137619
0.00171154
0.00200827
0.00218218
0.00218942
0.00194695
0.00145
0.00122194
0.00120707
0.00145927
0.0019582
0.00219728
0.0021881
0.00201557
0.00172352
0.00139074
0.000953096
0.000645382
0.00071155
0.000794856
0.000865938
0.000931414
0.000995435
0.00105144
0.00109939
0.00114066
0.00118181
0.00123817
0.00122996
0.00117595
0.0011361
0.00109564
0.00104832
0.000992913
0.000929531
0.000864413
0.000793625
0.000710664
9.50178e-05
0.00017959
0.000136641
0.00015502
0.000169935
0.00018084
0.000191487
0.000204375
0.000213989
0.000229272
0.000227886
0.000216018
0.000208207
0.000196414
0.000186301
0.000175898
0.000162096
0.000129607
0.000178163
0.000102522
0.000142764
0.00041368
0.000467014
0.000513273
0.000566241
0.000603312
0.000635492
0.000632032
0.000483129
0.000539901
0.000522927
0.000473223
0.000621671
0.000619918
0.000586198
0.000551487
0.000504984
0.000454415
0.00040278
0.000151171
0.000173054
0.000437363
0.000509066
0.000564664
0.000613224
0.000640955
0.000649977
0.00057061
0.00036085
0.000675166
0.000644827
0.000357404
0.000578272
0.000642558
0.000628081
0.000602163
0.000559683
0.000499622
0.000425508
0.000174204
0.000180247
0.000425856
0.000524787
0.000591841
0.000630085
0.00064812
0.000643402
0.000517761
0.000373036
0.000937208
0.00089353
0.000361211
0.000538138
0.00064735
0.000646276
0.00062787
0.000590466
0.000526522
0.000413124
0.000175813
0.000215035
0.000355075
0.000477054
0.000567848
0.000629673
0.000662107
0.000663395
0.000512365
0.000469032
0.00127103
0.00121083
0.000439918
0.000532451
0.000667945
0.000660417
0.00062529
0.000562589
0.000470902
0.000350187
0.000221958
0.000368292
0.000359727
0.000408573
0.000487995
0.000566031
0.000629337
0.000661142
0.000525175
0.000569802
0.00158804
0.00151365
0.000528702
0.00054057
0.000665412
0.000630155
0.000565152
0.000485234
0.000406354
0.000363196
0.000379803
0.000485824
0.000450953
0.000434019
0.000493048
0.000580598
0.000658855
0.000714178
0.000657158
0.000701676
0.00179798
0.00171865
0.000666948
0.000673212
0.000723489
0.000667051
0.000586801
0.000496748
0.000437631
0.000457387
0.000488864
0.000564812
0.000717927
0.000676346
0.000741188
0.000826629
0.000890604
0.00090384
0.000852456
0.000883636
0.0018848
0.00181039
0.000859041
0.000865636
0.000917291
0.000903918
0.000839277
0.000752791
0.000688531
0.000734304
0.000565409
0.000632858
0.000863634
0.0012531
0.00154242
0.00181764
0.00193687
0.00183172
0.00145032
0.00130014
0.00180066
0.00175143
0.00127752
0.0014708
0.00184687
0.00194658
0.00182416
0.00155072
0.00126313
0.000870153
0.000632136
0.000705945
0.000790514
0.000862719
0.000930179
0.000999251
0.00106177
0.00111994
0.00118178
0.00126462
0.0013715
0.00136223
0.00125591
0.00117534
0.00111472
0.00105731
0.000995332
0.000926884
0.000859786
0.000787937
0.00070396
0.000189181
7.64424e-05
0.000173713
0.000156849
0.000169862
0.000184074
0.000201427
0.000220164
0.000229266
0.00023758
0.00023703
0.000229717
0.000220673
0.000202489
0.00018567
0.000172046
0.000160033
0.000196192
7.93278e-05
0.000171324
0.000178457
0.000443728
0.000528607
0.000582009
0.00065054
0.000692109
0.000710071
0.000549336
0.000539971
0.000355157
0.000352048
0.000532145
0.0005462
0.000701301
0.00067762
0.000637645
0.000570698
0.000520208
0.000436213
0.000179153
0.000180956
0.000502436
0.000581113
0.000643255
0.000703078
0.000723713
0.000660812
0.000386698
0.000675179
0.000518368
0.000512834
0.000655229
0.000388442
0.000664292
0.000713175
0.000691769
0.000632624
0.000570112
0.00049163
0.000183945
0.000193246
0.000498686
0.000585127
0.00065471
0.00070398
0.000710314
0.000604576
0.000357623
0.000937124
0.0006937
0.000688084
0.000903148
0.000356307
0.000618029
0.000706781
0.000697828
0.000648947
0.000579868
0.000491747
0.000195007
0.000191286
0.000428335
0.000575236
0.000663766
0.000710468
0.000723747
0.00060503
0.000420518
0.00127079
0.000895027
0.000891413
0.00121826
0.000404677
0.000620433
0.000721475
0.000703611
0.000657259
0.000563204
0.00040375
0.000194488
0.000346777
0.000358044
0.000423185
0.00051972
0.000627836
0.000703166
0.000625984
0.000500838
0.00158755
0.00111652
0.00111653
0.00151648
0.000479197
0.000635022
0.000696409
0.000616259
0.000507236
0.000414692
0.000356817
0.000357911
0.000467111
0.000428809
0.000408971
0.000466588
0.000575474
0.000687598
0.000705611
0.00061099
0.0017973
0.00133642
0.00134203
0.00171703
0.000595609
0.000713941
0.000686941
0.000572416
0.000463538
0.000409418
0.000433549
0.000469189
0.000544003
0.000633471
0.000582011
0.000630581
0.000709602
0.000775888
0.000786826
0.000761137
0.00188394
0.00149706
0.00150786
0.00180357
0.000753349
0.000797683
0.000784063
0.00071537
0.000635334
0.000588411
0.000644341
0.000543111
0.000609219
0.000751931
0.00105413
0.00129943
0.00151902
0.00154762
0.00125406
0.00122172
0.00180001
0.00161442
0.00162255
0.00174204
0.00120289
0.00126825
0.00155804
0.0015203
0.00129836
0.00105489
0.000751472
0.000606602
0.000684461
0.000769932
0.000840835
0.00091191
0.000987859
0.00105933
0.0011341
0.00123806
0.00137135
0.00139185
0.0014007
0.00135961
0.00122714
0.00112581
0.00105266
0.00098198
0.000906599
0.000836112
0.000765644
0.000680749
9.55952e-05
0.000226605
0.000101281
0.000153228
0.00016946
0.000183556
0.000200156
0.000218245
0.000227926
0.000237027
0.000236528
0.000228287
0.000219105
0.000201017
0.000184528
0.000171028
0.000155531
0.000107194
0.000230715
8.91985e-05
0.000131478
0.000441787
0.000501008
0.00055814
0.000620334
0.000660443
0.000684703
0.000531777
0.00052294
0.000352042
0.000353037
0.0005292
0.00054247
0.00069439
0.00066965
0.000629925
0.000566056
0.00050447
0.00044428
0.000135176
0.00017653
0.00048677
0.000560592
0.000618584
0.000674036
0.000695815
0.000649134
0.000379029
0.000644684
0.000512814
0.000513271
0.000646135
0.000384104
0.000657522
0.000702919
0.000681336
0.00062374
0.000562349
0.0004858
0.000178676
0.000192163
0.000486527
0.000571486
0.000638007
0.000685169
0.000694626
0.00060847
0.000349807
0.000893117
0.000688079
0.000687153
0.000886562
0.00034966
0.000612782
0.000696337
0.000686901
0.000639231
0.000571685
0.000485954
0.000193661
0.000190492
0.000424724
0.000568922
0.000652537
0.000696869
0.000714472
0.000614781
0.000397589
0.00120998
0.000891454
0.000888632
0.00119284
0.000392468
0.000615826
0.000710764
0.000692092
0.000646578
0.000553315
0.000395966
0.000194777
0.000353436
0.000358924
0.000419594
0.000515172
0.000624136
0.000700918
0.000634953
0.00047754
0.00151239
0.00111665
0.00111164
0.00148255
0.000463695
0.000629974
0.000686584
0.000606759
0.000499218
0.000409632
0.000357029
0.000363636
0.000469331
0.000432158
0.000408165
0.000462961
0.000573805
0.000689894
0.00071496
0.000598719
0.00171723
0.00134227
0.00133556
0.00167841
0.000582448
0.000708518
0.000680005
0.000565867
0.000458759
0.000408541
0.000436233
0.00047012
0.000544503
0.000639874
0.000580721
0.000624844
0.00070386
0.000773126
0.000788733
0.000753936
0.00180902
0.00150824
0.00150097
0.00176446
0.000742876
0.000791228
0.000776471
0.000707517
0.000629297
0.0005865
0.000647829
0.000542383
0.000608634
0.000751649
0.00105232
0.00128694
0.00150353
0.00153461
0.00125381
0.00120683
0.00175048
0.0016229
0.00161396
0.00171602
0.00119012
0.00126476
0.00154929
0.00150696
0.00128569
0.00105063
0.000748173
0.000604734
0.000683013
0.000767704
0.000837856
0.000907706
0.000982857
0.00105377
0.00112783
0.00122973
0.00136197
0.00140082
0.00139462
0.00134984
0.00121854
0.00111875
0.00104645
0.000976298
0.000901493
0.000831967
0.000762114
0.000677875
0.000113383
0.000132186
0.000164284
0.000161363
0.000174007
0.000184815
0.000195162
0.000207202
0.000216046
0.000229684
0.000228326
0.000215057
0.000206669
0.000194769
0.000184708
0.000174541
0.000163345
0.000156667
0.000113236
0.00013259
0.000147611
0.000393684
0.00044748
0.000492015
0.00053611
0.000570448
0.000605315
0.000611976
0.00047312
0.0005318
0.000529439
0.000474575
0.000616278
0.00061025
0.000575767
0.000541577
0.000496503
0.000450723
0.000394303
0.000154743
0.000170378
0.000418514
0.000488287
0.000545692
0.000585633
0.000611118
0.000627097
0.000569904
0.000357401
0.00065469
0.000646516
0.000356008
0.000573099
0.000631165
0.000615617
0.000590584
0.000550293
0.00049142
0.000419923
0.00017186
0.000175591
0.000409585
0.000516168
0.000578046
0.000614892
0.000633459
0.000635635
0.000532305
0.000361091
0.000902332
0.000887053
0.000355891
0.000533345
0.000636217
0.000634309
0.000616571
0.000580273
0.000517082
0.000407744
0.000173408
0.000217474
0.000349988
0.000469484
0.000557572
0.00061781
0.000651643
0.000659238
0.000527874
0.000439379
0.00121702
0.00119342
0.000428522
0.000527653
0.000656366
0.000647749
0.000612918
0.000551806
0.00046261
0.000345227
0.000221594
0.000378498
0.000360654
0.000403253
0.000482615
0.000563379
0.000628238
0.000662251
0.000538186
0.000527975
0.0015148
0.00148319
0.000510945
0.000536612
0.000655638
0.000620499
0.00055642
0.000477345
0.000400972
0.000363693
0.000385402
0.000488548
0.000455229
0.000432042
0.000488737
0.000579947
0.000663291
0.000721999
0.000672759
0.000666368
0.0017151
0.00167904
0.000647364
0.000668186
0.000715555
0.000659292
0.000578946
0.000490142
0.000435166
0.000459412
0.000488416
0.00056492
0.000725303
0.000675481
0.00073752
0.000824543
0.000892007
0.000908696
0.0008614
0.00085864
0.00180159
0.00176503
0.000842666
0.00086113
0.000910104
0.000894766
0.000829192
0.000743824
0.000682604
0.000733358
0.000562851
0.00063154
0.000859484
0.00124513
0.00153629
0.00180416
0.00192362
0.00181964
0.00145939
0.00127706
0.00174069
0.0017163
0.00126164
0.00147709
0.00184278
0.0019334
0.00180754
0.00153606
0.00124586
0.000859278
0.000628293
0.00070394
0.000787944
0.00085959
0.000926428
0.00099467
0.00105677
0.00111455
0.00117575
0.00125565
0.00135928
0.00134988
0.00124594
0.00116757
0.00110786
0.00105082
0.000989122
0.000921131
0.000854527
0.000783176
0.000699652
0.000113688
0.000132206
0.000154771
0.000175413
0.00018672
0.000193476
0.000197882
0.000202369
0.000208246
0.000220649
0.000219133
0.000206676
0.000201146
0.000196915
0.000192918
0.000186811
0.000176039
0.000158482
0.000133393
0.000116314
0.000150694
0.000350867
0.000407379
0.00045841
0.000492547
0.000519694
0.000549075
0.000589704
0.000621244
0.000545774
0.000542857
0.000616547
0.00058691
0.000547678
0.000519415
0.000493281
0.000459861
0.000409287
0.000351051
0.000154717
0.000164428
0.00040304
0.000481128
0.000528609
0.000556149
0.000571457
0.000586966
0.000611372
0.000578158
0.000388222
0.000384314
0.000573296
0.000607996
0.00058577
0.000572098
0.000558578
0.000532483
0.000484974
0.000404057
0.000166557
0.000209293
0.000385939
0.000494717
0.000562417
0.000600237
0.000613592
0.000617062
0.00062111
0.000538278
0.000356105
0.000349836
0.000533443
0.000616688
0.000614875
0.000613096
0.000600566
0.000562545
0.000493963
0.000384103