/*--------------------------------*- C++ -*----------------------------------*\
| =========                 |                                                 |
| \\      /  F ield         | OpenFOAM: The Open Source CFD Toolbox           |
|  \\    /   O peration     | Version:  v1912                                 |
|   \\  /    A nd           | Website:  www.openfoam.com                      |
|    \\/     M anipulation  |                                                 |
\*---------------------------------------------------------------------------*/
FoamFile
{
    version     2.0;
    format      ascii;
    class       volScalarField;
    location    "500";
    object      epsilon;
}
// * * * * * * * * * * * * * * * * * * * * * * * * * * * * * * * * * * * * * //

dimensions      [0 2 -3 0 0 0 0];


internalField   nonuniform List<scalar> 
4000
(
4.36707e-07
3.36576e-07
2.08608e-07
2.33461e-08
1.39462e-08
1.06535e-08
8.47127e-09
8.01816e-09
9.48729e-09
8.84362e-09
1.0381e-08
7.77632e-09
7.70836e-09
8.70041e-09
1.09312e-08
1.39609e-08
2.54758e-08
2.56067e-07
3.70887e-07
4.63191e-07
5.39062e-07
4.34381e-07
2.81963e-07
1.75863e-07
1.108e-07
2.45284e-08
1.97675e-08
1.93999e-08
2.00882e-08
1.98838e-08
2.11836e-08
1.94244e-08
1.92408e-08
2.03187e-08
2.611e-08
1.19524e-07
1.87785e-07
3.10344e-07
4.57305e-07
5.60659e-07
6.09562e-07
5.26842e-07
3.95366e-07
2.74927e-07
1.85082e-07
1.10749e-07
4.23737e-08
2.67804e-08
2.86703e-08
3.25566e-08
3.20636e-08
2.79282e-08
2.50653e-08
5.02341e-08
1.18185e-07
1.9248e-07
2.81118e-07
4.03886e-07
5.42516e-07
6.27978e-07
6.56544e-07
5.96588e-07
4.70305e-07
3.28715e-07
2.16597e-07
1.42525e-07
8.47027e-08
4.44223e-08
3.23763e-08
4.03545e-08
3.95856e-08
3.01765e-08
5.06471e-08
9.25734e-08
1.51329e-07
2.25557e-07
3.41189e-07
4.81014e-07
6.10381e-07
6.73135e-07
6.9357e-07
6.64746e-07
5.74131e-07
4.42838e-07
3.08837e-07
2.06566e-07
1.37831e-07
8.41264e-08
5.52835e-08
3.89353e-08
3.85602e-08
5.71932e-08
9.46744e-08
1.52255e-07
2.23845e-07
3.30489e-07
4.62763e-07
5.88597e-07
6.78872e-07
7.09257e-07
7.27714e-07
7.36422e-07
6.9798e-07
6.29897e-07
5.56038e-07
4.84015e-07
4.15036e-07
3.45377e-07
2.77623e-07
2.32346e-07
2.43915e-07
3.0006e-07
3.67045e-07
4.36541e-07
5.05952e-07
5.77236e-07
6.49255e-07
7.15267e-07
7.528e-07
7.42956e-07
7.65418e-07
8.2058e-07
8.44707e-07
8.42882e-07
8.28067e-07
7.9916e-07
7.56652e-07
7.00939e-07
6.37536e-07
5.66485e-07
5.74106e-07
6.4791e-07
7.14734e-07
7.72848e-07
8.17448e-07
8.47537e-07
8.6257e-07
8.63608e-07
8.38334e-07
7.80414e-07
8.10396e-07
9.18452e-07
1.0076e-06
1.06982e-06
1.11151e-06
1.12728e-06
1.1155e-06
1.07352e-06
1.00214e-06
8.95258e-07
8.97637e-07
1.00294e-06
1.07936e-06
1.12593e-06
1.14182e-06
1.12911e-06
1.08924e-06
1.02733e-06
9.37087e-07
8.25119e-07
8.69255e-07
1.04538e-06
1.20524e-06
1.33371e-06
1.43432e-06
1.49724e-06
1.51849e-06
1.49198e-06
1.41013e-06
1.25779e-06
1.25441e-06
1.40211e-06
1.49151e-06
1.52541e-06
1.51014e-06
1.45146e-06
1.3535e-06
1.22575e-06
1.06448e-06
8.83707e-07
9.57786e-07
1.21029e-06
1.44219e-06
1.63051e-06
1.78586e-06
1.90387e-06
1.9806e-06
2.00527e-06
1.95795e-06
1.78417e-06
1.7735e-06
1.94252e-06
1.99847e-06
1.98201e-06
1.91202e-06
1.79921e-06
1.6475e-06
1.46099e-06
1.22849e-06
9.71799e-07
3.36643e-07
2.64745e-07
1.60578e-07
3.76848e-08
3.57017e-08
2.96261e-08
1.65691e-08
1.28616e-08
1.12542e-08
1.89689e-08
1.1292e-08
1.26721e-08
1.44691e-08
1.85263e-08
3.17892e-08
3.38925e-08
4.00224e-08
2.16638e-07
3.06628e-07
3.76938e-07
4.3452e-07
5.20856e-07
3.0808e-07
2.12552e-07
1.76962e-07
8.66722e-08
3.2057e-08
2.41525e-08
1.97462e-08
1.89155e-08
1.89366e-08
2.04249e-08
2.80121e-08
3.68558e-08
1.0428e-07
1.88436e-07
2.32029e-07
3.4938e-07
5.92865e-07
4.68612e-07
5.27001e-07
6.97544e-07
5.50151e-07
3.54177e-07
2.38069e-07
1.66614e-07
1.11788e-07
4.77317e-08
2.96266e-08
2.65094e-08
2.68582e-08
3.13513e-08
6.18359e-08
1.21677e-07
1.76966e-07
2.52837e-07
3.80379e-07
5.95704e-07
7.27496e-07
5.54576e-07
5.96737e-07
6.16907e-07
5.25175e-07
3.71326e-07
2.46986e-07
1.68337e-07
1.14114e-07
7.81654e-08
5.20832e-08
3.80454e-08
3.91664e-08
5.59763e-08
8.35537e-08
1.22923e-07
1.80188e-07
2.63264e-07
3.9522e-07
5.5301e-07
6.38658e-07
6.21065e-07
6.64864e-07
6.32239e-07
5.557e-07
4.28648e-07
2.82471e-07
1.89012e-07
1.29421e-07
8.88148e-08
6.59885e-08
5.85307e-08
5.8141e-08
6.71545e-08
9.41745e-08
1.38386e-07
2.00611e-07
2.96925e-07
4.42557e-07
5.72213e-07
6.51924e-07
6.87044e-07
7.36489e-07
6.8762e-07
6.3393e-07
5.46733e-07
4.38717e-07
3.2663e-07
2.53767e-07
1.95772e-07
1.52515e-07
1.31577e-07
1.35434e-07
1.60085e-07
2.04411e-07
2.6417e-07
3.3819e-07
4.52573e-07
5.58437e-07
6.47324e-07
7.0544e-07
7.57155e-07
8.20595e-07
7.63101e-07
7.3244e-07
6.88008e-07
6.39795e-07
5.58165e-07
4.50539e-07
3.71308e-07
3.19713e-07
2.86861e-07
2.91305e-07
3.25186e-07
3.76444e-07
4.59601e-07
5.67448e-07
6.48512e-07
6.99209e-07
7.44977e-07
7.80009e-07
8.39259e-07
9.18429e-07
8.78868e-07
8.87655e-07
8.94272e-07
9.14511e-07
9.08218e-07
8.63522e-07
7.68806e-07
6.60009e-07
5.44231e-07
5.51846e-07
6.67007e-07
7.74632e-07
8.64415e-07
9.1199e-07
9.22861e-07
9.07012e-07
9.01986e-07
8.96489e-07
9.3559e-07
1.04535e-06
1.1263e-06
1.25537e-06
1.35885e-06
1.45347e-06
1.51005e-06
1.5125e-06
1.44641e-06
1.30377e-06
1.06824e-06
1.06393e-06
1.29241e-06
1.44274e-06
1.51534e-06
1.51836e-06
1.46601e-06
1.37562e-06
1.27468e-06
1.14661e-06
1.06209e-06
1.21023e-06
1.54458e-06
1.867e-06
2.14577e-06
2.39051e-06
2.58997e-06
2.73219e-06
2.79608e-06
2.75017e-06
2.54051e-06
2.51955e-06
2.72512e-06
2.78195e-06
2.72889e-06
2.5957e-06
2.40322e-06
2.16341e-06
1.88691e-06
1.56358e-06
1.22426e-06
2.08711e-07
1.60628e-07
5.0452e-08
4.74478e-08
5.82745e-08
4.6005e-08
2.51539e-08
1.91155e-08
1.63627e-08
1.47738e-08
1.92388e-08
1.56459e-08
2.08826e-08
2.96201e-08
5.24456e-08
5.8006e-08
4.7149e-08
1.40026e-07
2.21699e-07
2.66088e-07
2.82108e-07
3.08122e-07
2.40159e-07
2.14282e-07
1.78933e-07
9.39909e-08
4.42098e-08
3.25261e-08
2.43061e-08
2.29094e-08
2.27806e-08
2.66044e-08
3.79718e-08
5.43945e-08
1.10116e-07
1.81223e-07
2.02342e-07
2.42096e-07
3.54482e-07
3.23862e-07
3.95554e-07
5.50343e-07
4.37937e-07
3.14277e-07
2.29598e-07
1.72135e-07
1.22258e-07
6.84891e-08
3.91618e-08
3.21033e-08
3.36046e-08
4.51032e-08
7.96117e-08
1.33768e-07
1.83081e-07
2.43907e-07
3.37448e-07
4.85146e-07
6.12383e-07
4.1987e-07
4.70532e-07
5.25329e-07
4.56581e-07
3.40634e-07
2.42278e-07
1.74399e-07
1.25926e-07
9.2897e-08
6.57158e-08
4.83559e-08
5.0845e-08
7.18391e-08
9.99143e-08
1.36762e-07
1.89158e-07
2.63229e-07
3.71772e-07
5.00603e-07
5.62943e-07
4.9837e-07
5.74319e-07
5.55838e-07
4.79646e-07
3.73887e-07
2.60035e-07
1.81964e-07
1.30337e-07
9.60753e-08
7.78001e-08
7.27137e-08
7.29412e-08
7.94247e-08
1.00683e-07
1.37861e-07
1.91251e-07
2.70279e-07
3.8435e-07
4.9664e-07
5.81708e-07
6.02149e-07
6.98113e-07
6.34046e-07
5.51678e-07
4.45571e-07
3.31232e-07
2.39459e-07
1.79781e-07
1.36923e-07
1.06726e-07
9.30897e-08
9.33382e-08
1.08267e-07
1.40192e-07
1.84843e-07
2.45464e-07
3.38613e-07
4.53283e-07
5.64967e-07
6.55182e-07
7.24017e-07
8.4476e-07
7.32551e-07
6.60627e-07
5.51568e-07
4.36088e-07
3.48404e-07
2.75327e-07
2.2011e-07
1.80703e-07
1.57332e-07
1.58095e-07
1.81152e-07
2.20246e-07
2.76562e-07
3.50045e-07
4.38676e-07
5.58668e-07
6.74528e-07
7.52269e-07
8.67251e-07
1.00759e-06
8.87753e-07
8.85657e-07
8.12813e-07
6.73188e-07
5.93142e-07
5.36557e-07
4.63109e-07
3.80506e-07
2.95907e-07
2.95084e-07
3.79e-07
4.6065e-07
5.32574e-07
5.90022e-07
6.7408e-07
8.21588e-07
9.03417e-07
9.08467e-07
1.0274e-06
1.20521e-06
1.25545e-06
1.5165e-06
1.76268e-06
1.96436e-06
2.06586e-06
2.05789e-06
1.90075e-06
1.56115e-06
1.05398e-06
1.04655e-06
1.55884e-06
1.90296e-06
2.06181e-06
2.07368e-06
1.97495e-06
1.7818e-06
1.54011e-06
1.2799e-06
1.22415e-06
1.4421e-06
1.86697e-06
2.28402e-06
2.65989e-06
3.00147e-06
3.29115e-06
3.50683e-06
3.61626e-06
3.57569e-06
3.31005e-06
3.27647e-06
3.53913e-06
3.59281e-06
3.4963e-06
3.29169e-06
3.01084e-06
2.6759e-06
2.30331e-06
1.88573e-06
1.45602e-06
2.3363e-08
3.76713e-08
4.74122e-08
6.48297e-08
6.63092e-08
5.1427e-08
3.53643e-08
2.6097e-08
2.15762e-08
2.05023e-08
2.07811e-08
2.29626e-08
2.95018e-08
3.99515e-08
5.63176e-08
6.91439e-08
6.19141e-08
4.75717e-08
4.21614e-08
3.93781e-08
1.75946e-07
2.12573e-07
2.14283e-07
1.9414e-07
1.46381e-07
8.01558e-08
5.14877e-08
3.75664e-08
2.99745e-08
2.89838e-08
2.98718e-08
3.38767e-08
4.41829e-08
5.95075e-08
9.01421e-08
1.49991e-07
1.88679e-07
2.03471e-07
2.34413e-07
1.94871e-07
2.75069e-07
3.54317e-07
3.14314e-07
2.52419e-07
1.98351e-07
1.60211e-07
1.1448e-07
6.83569e-08
4.54926e-08
3.92081e-08
4.11586e-08
5.20464e-08
7.93638e-08
1.26584e-07
1.7154e-07
2.1259e-07
2.69856e-07
3.4119e-07
3.9327e-07
2.9405e-07
3.28961e-07
3.7155e-07
3.4072e-07
2.73968e-07
2.0994e-07
1.61279e-07
1.23666e-07
9.46285e-08
6.93314e-08
5.60154e-08
5.84921e-08
7.54791e-08
1.02919e-07
1.35064e-07
1.76485e-07
2.30756e-07
3.02191e-07
3.77996e-07
4.10761e-07
3.5878e-07
4.43097e-07
4.28912e-07
3.74022e-07
2.99971e-07
2.25047e-07
1.6763e-07
1.26492e-07
9.86722e-08
8.38699e-08
7.91958e-08
7.93895e-08
8.54297e-08
1.03285e-07
1.33952e-07
1.76994e-07
2.35843e-07
3.12346e-07
3.92282e-07
4.5843e-07
4.78868e-07
6.30054e-07
5.46932e-07
4.457e-07
3.51351e-07
2.65845e-07
1.97753e-07
1.50303e-07
1.1684e-07
9.42516e-08
8.45077e-08
8.35583e-08
9.44343e-08
1.19113e-07
1.54416e-07
2.03191e-07
2.73097e-07
3.61363e-07
4.61442e-07
5.71186e-07
6.59986e-07
8.42947e-07
6.88125e-07
5.51704e-07
4.30146e-07
3.38161e-07
2.67367e-07
2.13672e-07
1.72102e-07
1.38767e-07
1.1653e-07
1.15291e-07
1.37311e-07
1.71449e-07
2.14214e-07
2.69105e-07
3.42216e-07
4.37883e-07
5.67621e-07
7.07053e-07
8.67645e-07
1.06982e-06
8.94333e-07
8.12955e-07
6.54639e-07
5.9743e-07
5.6629e-07
5.3382e-07
4.74011e-07
3.81438e-07
2.75627e-07
2.69432e-07
3.78343e-07
4.73561e-07
5.34402e-07
5.68141e-07
6.01751e-07
6.62872e-07
8.32557e-07
9.11698e-07
1.09052e-06
1.33369e-06
1.35894e-06
1.76276e-06
2.19168e-06
2.48276e-06
2.79123e-06
2.969e-06
2.88809e-06
2.46005e-06
1.79836e-06
1.75327e-06
2.44626e-06
2.88512e-06
2.97081e-06
2.80051e-06
2.50069e-06
2.21955e-06
1.78893e-06
1.38286e-06
1.35317e-06
1.63042e-06
2.14574e-06
2.65989e-06
3.14202e-06
3.59835e-06
4.00698e-06
4.32327e-06
4.50101e-06
4.48274e-06
4.22315e-06
4.1673e-06
4.43155e-06
4.46541e-06
4.30296e-06
4.00012e-06
3.60262e-06
3.15458e-06
2.67645e-06
2.16229e-06
1.64288e-06
1.39673e-08
3.56726e-08
5.82281e-08
6.62236e-08
6.37365e-08
5.18561e-08
4.07058e-08
3.21032e-08
2.72888e-08
2.70754e-08
2.69367e-08
2.91981e-08
3.58742e-08
4.51179e-08
5.60577e-08
6.70635e-08
6.97145e-08
5.84843e-08
3.42011e-08
1.53312e-08
1.10926e-07
1.76929e-07
1.78873e-07
1.46374e-07
1.02885e-07
6.84993e-08
5.14021e-08
3.99818e-08
3.57674e-08
3.90642e-08
3.86733e-08
3.84949e-08
4.57268e-08
5.8558e-08
7.62299e-08
1.08033e-07
1.51893e-07
1.83909e-07
1.91822e-07
1.27175e-07
1.85197e-07
2.38114e-07
2.29605e-07
1.98344e-07
1.67996e-07
1.36682e-07
9.51432e-08
6.12913e-08
4.68791e-08
4.56281e-08
4.66293e-08
5.20466e-08
7.16299e-08
1.08204e-07
1.49154e-07
1.82186e-07
2.13639e-07
2.4739e-07
2.60667e-07
2.02411e-07
2.1672e-07
2.47099e-07
2.42336e-07
2.09953e-07
1.73054e-07
1.40704e-07
1.13515e-07
8.72025e-08
6.60369e-08
5.9176e-08
6.08485e-08
7.19595e-08
9.6278e-08
1.2455e-07
1.54902e-07
1.91172e-07
2.32465e-07
2.68677e-07
2.73288e-07
2.35598e-07
3.09054e-07
2.8267e-07
2.60161e-07
2.25089e-07
1.83224e-07
1.45895e-07
1.16172e-07
9.58566e-08
8.46906e-08
8.00567e-08
8.01864e-08
8.62324e-08
1.00224e-07
1.23533e-07
1.55428e-07
1.94722e-07
2.38922e-07
2.79189e-07
3.13254e-07
3.48959e-07
5.56163e-07
4.38948e-07
3.31405e-07
2.65918e-07
2.11746e-07
1.66307e-07
1.31587e-07
1.06828e-07
9.21031e-08
8.93368e-08
8.8381e-08
9.2322e-08
1.09264e-07
1.35987e-07
1.72453e-07
2.201e-07
2.77525e-07
3.48851e-07
4.6575e-07
5.87649e-07
8.28123e-07
6.39919e-07
4.36256e-07
3.38251e-07
2.76615e-07
2.28909e-07
1.91736e-07
1.62167e-07
1.3686e-07
1.21819e-07
1.20423e-07
1.36011e-07
1.62857e-07
1.94038e-07
2.33072e-07
2.83437e-07
3.48104e-07
4.49785e-07
6.58081e-07
8.53149e-07
1.11153e-06
9.14554e-07
6.73446e-07
5.97554e-07
6.17522e-07
6.44282e-07
6.50862e-07
6.104e-07
5.04556e-07
3.62283e-07
3.53178e-07
5.00158e-07
6.11937e-07
6.55459e-07
6.51882e-07
6.28559e-07
6.10442e-07
6.9106e-07
9.27573e-07
1.13151e-06
1.43431e-06
1.45355e-06
1.96447e-06
2.48292e-06
3.19024e-06
3.8764e-06
4.31092e-06
4.34134e-06
3.7862e-06
2.77249e-06
2.70418e-06
3.7247e-06
4.31469e-06
4.29118e-06
3.87243e-06
3.20803e-06
2.51442e-06
1.98618e-06
1.4741e-06
1.45269e-06
1.78579e-06
2.39047e-06
3.00147e-06
3.59836e-06
4.20901e-06
4.75951e-06
5.20688e-06
5.495e-06
5.55812e-06
5.36977e-06
5.29162e-06
5.48554e-06
5.4428e-06
5.17343e-06
4.74232e-06
4.20606e-06
3.60499e-06
3.01281e-06
2.40285e-06
1.79547e-06
1.0674e-08
2.95739e-08
4.61719e-08
5.13349e-08
5.18288e-08
4.74507e-08
4.14797e-08
3.57942e-08
3.28071e-08
3.46373e-08
3.41983e-08
3.50073e-08
4.00627e-08
4.64749e-08
5.2467e-08
5.6848e-08
5.80487e-08
5.41619e-08
3.31214e-08
1.20099e-08
2.453e-08
8.68395e-08
9.39885e-08
8.00967e-08
6.84777e-08
5.69988e-08
4.70323e-08
3.99116e-08
3.97961e-08
4.85466e-08
4.63837e-08
4.15998e-08
4.52498e-08
5.40491e-08
6.47507e-08
7.69581e-08
9.27551e-08
1.15863e-07
1.12935e-07
3.11351e-08
1.10849e-07
1.66645e-07
1.72092e-07
1.6018e-07
1.36675e-07
1.05243e-07
7.39525e-08
5.32999e-08
4.6597e-08
5.10954e-08
5.02783e-08
5.03078e-08
6.2106e-08
8.64729e-08
1.18872e-07
1.50078e-07
1.7313e-07
1.85458e-07
1.818e-07
1.24873e-07
1.42619e-07
1.68385e-07
1.74414e-07
1.61279e-07
1.40702e-07
1.19643e-07
9.73845e-08
7.45803e-08
6.10119e-08
6.10289e-08
6.12768e-08
6.58584e-08
8.35305e-08
1.08183e-07
1.32144e-07
1.55691e-07
1.78459e-07
1.93095e-07
1.86438e-07
1.58303e-07
2.06659e-07
1.89094e-07
1.82027e-07
1.6766e-07
1.45903e-07
1.22936e-07
1.02909e-07
8.85686e-08
8.0582e-08
8.05797e-08
8.03692e-08
8.22967e-08
9.26081e-08
1.09508e-07
1.31705e-07
1.56445e-07
1.79966e-07
1.97055e-07
2.09131e-07
2.34492e-07
4.84078e-07
3.26712e-07
2.39548e-07
1.97811e-07
1.66327e-07
1.38279e-07
1.15074e-07
9.87721e-08
9.15993e-08
9.92025e-08
9.80988e-08
9.18838e-08
1.01112e-07
1.19378e-07
1.44272e-07
1.74042e-07
2.07623e-07
2.52919e-07
3.47662e-07
5.15025e-07
7.99197e-07
5.58298e-07
3.48526e-07
2.67458e-07
2.28947e-07
2.02349e-07
1.81495e-07
1.64914e-07
1.51366e-07
1.54583e-07
1.54229e-07
1.52022e-07
1.6708e-07
1.85215e-07
2.07693e-07
2.35924e-07
2.7575e-07
3.59396e-07
5.79101e-07
8.22968e-07
1.1273e-06
9.08284e-07
5.93257e-07
5.66392e-07
6.4434e-07
7.27503e-07
7.77665e-07
7.56116e-07
6.30825e-07
4.55555e-07
4.47192e-07
6.27876e-07
7.59396e-07
7.83729e-07
7.36447e-07
6.56528e-07
5.77218e-07
5.98976e-07
9.19128e-07
1.14518e-06
1.49726e-06
1.51013e-06
2.06597e-06
2.79131e-06
3.87663e-06
4.85499e-06
5.51371e-06
5.59868e-06
4.76909e-06
3.37886e-06
3.30906e-06
4.70239e-06
5.56287e-06
5.47766e-06
4.82354e-06
3.88009e-06
2.81534e-06
2.08991e-06
1.52732e-06
1.51285e-06
1.90384e-06
2.58996e-06
3.29117e-06
4.00702e-06
4.75955e-06
5.45817e-06
6.05163e-06
6.47594e-06
6.66865e-06
6.62282e-06
6.52259e-06
6.57878e-06
6.40959e-06
6.00514e-06
5.42853e-06
4.74604e-06
4.00527e-06
3.29529e-06
2.59633e-06
1.90942e-06
8.45761e-09
1.6429e-08
2.57964e-08
3.55346e-08
4.07098e-08
4.14725e-08
4.00548e-08
3.84123e-08
3.89861e-08
4.54554e-08
4.44904e-08
4.12425e-08
4.29196e-08
4.53129e-08
4.68356e-08
4.60944e-08
4.17003e-08
3.2048e-08
1.97344e-08
9.40137e-09
1.96746e-08
3.22737e-08
4.44651e-08
5.15252e-08
5.14016e-08
4.70343e-08
4.246e-08
4.07367e-08
4.75744e-08
7.20951e-08
6.66301e-08
4.77157e-08
4.52267e-08
4.87984e-08
5.42671e-08
5.92413e-08
6.09198e-08
5.73712e-08
3.80177e-08
2.12224e-08
4.23924e-08
1.12163e-07
1.2239e-07
1.1453e-07
9.51651e-08
7.39598e-08
5.73438e-08
4.81744e-08
5.08406e-08
7.18376e-08
6.74684e-08
5.21967e-08
5.47968e-08
6.75808e-08
8.69647e-08
1.09829e-07
1.29552e-07
1.37647e-07
1.26497e-07
5.7539e-08
8.48523e-08
1.14275e-07
1.26014e-07
1.23706e-07
1.13536e-07
9.73944e-08
7.83683e-08
6.32e-08
6.13974e-08
8.70758e-08
8.22001e-08
6.36924e-08
7.05923e-08
8.86397e-08
1.0892e-07
1.26009e-07
1.37225e-07
1.3991e-07
1.27082e-07
9.7395e-08
1.37937e-07
1.29521e-07
1.30406e-07
1.26531e-07
1.1619e-07
1.02916e-07
9.0007e-08
7.98678e-08
7.97033e-08
1.16206e-07
1.09136e-07
8.0217e-08
8.34089e-08
9.54403e-08
1.10065e-07
1.24827e-07
1.36315e-07
1.41521e-07
1.43366e-07
1.59343e-07
4.15061e-07
2.53815e-07
1.79836e-07
1.50346e-07
1.31609e-07
1.15081e-07
1.01035e-07
9.222e-08
9.60165e-08
1.53532e-07
1.45703e-07
9.50958e-08
9.38987e-08
1.04472e-07
1.19964e-07
1.37643e-07
1.57534e-07
1.89276e-07
2.69881e-07
4.4362e-07
7.56675e-07
4.50612e-07
2.75398e-07
2.13735e-07
1.91775e-07
1.81507e-07
1.74998e-07
1.711e-07
1.75192e-07
2.4533e-07
2.41743e-07
1.76102e-07
1.73643e-07
1.78864e-07
1.86387e-07
1.97161e-07
2.19231e-07
2.82674e-07
4.67429e-07
7.77535e-07
1.11555e-06
8.63604e-07
5.36616e-07
5.33872e-07
6.50898e-07
7.77657e-07
8.61005e-07
8.4063e-07
6.79972e-07
5.26237e-07
5.19313e-07
6.79517e-07
8.46644e-07
8.68795e-07
7.87028e-07
6.618e-07
5.42413e-07
5.39741e-07
8.72227e-07
1.12987e-06
1.51855e-06
1.51258e-06
2.05791e-06
2.96896e-06
4.31086e-06
5.51337e-06
6.35251e-06
6.32777e-06
4.91887e-06
3.39795e-06
3.34723e-06
4.85914e-06
6.3135e-06
6.33351e-06
5.49374e-06
4.31348e-06
2.98964e-06
2.07804e-06
1.52398e-06
1.52931e-06
1.98063e-06
2.73224e-06
3.50689e-06
4.32333e-06
5.20693e-06
6.05163e-06
6.80307e-06
7.403e-06
7.82618e-06
8.12742e-06
7.9968e-06
7.71786e-06
7.32339e-06
6.74478e-06
6.01058e-06
5.18178e-06
4.31097e-06
3.50134e-06
2.73057e-06
1.98078e-06
7.90601e-09
1.37226e-08
1.83608e-08
2.62211e-08
3.21436e-08
3.57932e-08
3.84091e-08
4.17582e-08
4.74366e-08
5.93806e-08
5.77728e-08
4.93903e-08
4.59492e-08
4.31904e-08
4.06114e-08
3.68491e-08
3.09492e-08
2.24758e-08
1.50581e-08
8.23476e-09
1.90557e-08
2.40449e-08
3.24717e-08
3.76738e-08
3.99934e-08
3.99087e-08
4.0734e-08
4.64147e-08
6.6098e-08
1.1406e-07
1.03216e-07
6.274e-08
4.90513e-08
4.54445e-08
4.55506e-08
4.63063e-08
4.52493e-08
3.94891e-08
2.96091e-08
2.03417e-08
2.66179e-08
4.7456e-08
6.85382e-08
6.83768e-08
6.12959e-08
5.32984e-08
4.8173e-08
5.05565e-08
7.4262e-08
1.97229e-07
1.80448e-07
7.03827e-08
5.41243e-08
5.50651e-08
6.25944e-08
7.28142e-08
8.17729e-08
8.32495e-08
6.75424e-08
2.61543e-08
4.43458e-08
7.81388e-08
9.29358e-08
9.46622e-08
8.72216e-08
7.45873e-08
6.32009e-08
6.08997e-08
9.61918e-08
3.74258e-07
3.40216e-07
8.95619e-08
6.50121e-08
7.10924e-08
8.4657e-08
9.82975e-08
1.0558e-07
1.02781e-07
8.58561e-08
5.49505e-08
8.40458e-08
8.88164e-08
9.61062e-08
9.86999e-08
9.5874e-08
8.85774e-08
7.98706e-08
7.7509e-08
1.32974e-07
7.06957e-07
6.15796e-07
1.20855e-07
7.94438e-08
8.41031e-08
9.37104e-08
1.01693e-07
1.05236e-07
1.03177e-07
9.75058e-08
1.00521e-07
3.45157e-07
1.9568e-07
1.36918e-07
1.16858e-07
1.06842e-07
9.87768e-08
9.22192e-08
9.35995e-08
1.74226e-07
1.08098e-06
9.63031e-07
1.58393e-07
9.34749e-08
9.42915e-08
1.01855e-07
1.10638e-07
1.21293e-07
1.43099e-07
2.08034e-07
3.71367e-07
7.00922e-07
3.71293e-07
2.20124e-07
1.72133e-07
1.62191e-07
1.64921e-07
1.71098e-07
1.85833e-07
2.94944e-07
1.40535e-06
1.28747e-06
2.81821e-07
1.87226e-07
1.74218e-07
1.68513e-07
1.65506e-07
1.74879e-07
2.2353e-07
3.79491e-07
7.17979e-07
1.07361e-06
7.68818e-07
4.63128e-07
4.7403e-07
6.1042e-07
7.56118e-07
8.40627e-07
7.87619e-07
6.82511e-07
1.61728e-06
1.51411e-06
6.78526e-07
7.98845e-07
8.51261e-07
7.66242e-07
6.20082e-07
4.81334e-07
4.66435e-07
7.79815e-07
1.08335e-06
1.49214e-06
1.44656e-06
1.9007e-06
2.88785e-06
4.3412e-06
5.59851e-06
6.32745e-06
5.70985e-06
3.96568e-06
5.59914e-06
5.39042e-06
3.98802e-06
5.75525e-06
6.33878e-06
5.59845e-06
4.34681e-06
2.90951e-06
1.91955e-06
1.45131e-06
1.49646e-06
2.00544e-06
2.79629e-06
3.61646e-06
4.50119e-06
5.49516e-06
6.47599e-06
7.40293e-06
8.26797e-06
9.19537e-06
1.05746e-05
1.03663e-05
9.06004e-06
8.17e-06
7.32829e-06
6.41966e-06
5.45474e-06
4.47513e-06
3.59838e-06
2.78416e-06
1.99863e-06
7.98065e-09
1.4669e-08
1.57209e-08
2.12702e-08
2.72735e-08
3.28177e-08
3.89946e-08
4.74442e-08
5.44861e-08
6.70575e-08
6.58345e-08
5.60374e-08
5.01536e-08
4.20841e-08
3.58904e-08
3.02218e-08
2.4076e-08
1.67027e-08
1.53354e-08
8.16805e-09
1.90054e-08
1.97292e-08
2.43028e-08
2.99762e-08
3.58042e-08
3.98232e-08
4.75902e-08
6.61063e-08
1.08855e-07
7.80755e-07
7.1058e-07
1.02383e-07
6.45734e-08
4.90964e-08
4.25092e-08
3.93114e-08
3.47371e-08
2.78091e-08
2.16179e-08
2.02822e-08
2.88294e-08
2.96731e-08
3.91394e-08
4.5524e-08
4.69021e-08
4.66116e-08
5.08491e-08
7.42676e-08
2.41953e-07
2.92699e-06
2.72483e-06
2.25335e-07
7.23661e-08
5.3641e-08
5.12327e-08
5.30215e-08
5.33663e-08
4.69478e-08
3.29029e-08
2.92329e-08
3.26498e-08
5.21255e-08
6.57426e-08
6.93646e-08
6.60579e-08
6.1023e-08
6.14013e-08
9.61921e-08
5.21297e-07
6.09972e-06
5.7049e-06
4.63514e-07
9.19479e-08
6.52443e-08
6.70813e-08
7.36162e-08
7.78762e-08
7.48946e-08
5.82967e-08
3.03103e-08
5.53151e-08
6.6025e-08
7.78333e-08
8.39041e-08
8.47173e-08
8.05975e-08
7.97067e-08
1.32958e-07
1.04776e-06
1.05985e-05
9.91806e-06
9.15891e-07
1.23705e-07
8.21507e-08
8.40733e-08
8.81856e-08
8.73796e-08
8.10838e-08
6.91933e-08
6.08001e-08
2.77168e-07
1.52346e-07
1.06691e-07
9.42589e-08
9.21136e-08
9.16018e-08
9.60048e-08
1.74171e-07
1.62561e-06
1.51692e-05
1.41439e-05
1.40998e-06
1.60047e-07
9.62208e-08
9.27602e-08
9.33819e-08
9.60837e-08
1.10618e-07
1.63073e-07
3.0394e-07
6.37456e-07
3.19605e-07
1.80667e-07
1.3878e-07
1.36885e-07
1.51378e-07
1.75184e-07
2.94864e-07
2.14258e-06
1.798e-05
1.67244e-05
1.88827e-06
2.8107e-07
1.76472e-07
1.53207e-07
1.38171e-07
1.39703e-07
1.82714e-07
3.25728e-07
6.49609e-07
1.0023e-06
6.59873e-07
3.80472e-07
3.81513e-07
5.04675e-07
6.30965e-07
6.80122e-07
6.8255e-07
2.406e-06
1.71767e-05
1.59761e-05
2.16254e-06
6.82501e-07
6.91114e-07
6.39531e-07
5.10835e-07
3.85871e-07
3.82926e-07
6.68158e-07
1.00568e-06
1.41048e-06
1.30409e-06
1.56085e-06
2.46053e-06
3.78685e-06
4.77012e-06
4.92034e-06
3.96611e-06
5.32354e-06
1.35634e-05
1.28808e-05
5.06098e-06
4.00041e-06
4.95387e-06
4.77221e-06
3.77295e-06
2.46688e-06
1.57373e-06
1.29941e-06
1.40601e-06
1.95839e-06
2.75069e-06
3.57624e-06
4.48327e-06
5.55858e-06
6.66884e-06
7.82592e-06
9.19471e-06
1.12666e-05
1.43704e-05
1.40815e-05
1.1036e-05
9.04585e-06
7.71769e-06
6.58597e-06
5.49431e-06
4.4366e-06
3.54055e-06
2.72445e-06
1.94242e-06
1.27279e-08
1.137e-08
1.77091e-08
2.07891e-08
2.71069e-08
3.46342e-08
4.54479e-08
5.93819e-08
6.706e-08
7.4627e-08
7.40729e-08
6.74112e-08
5.97598e-08
4.61668e-08
3.55693e-08
2.81735e-08
2.18252e-08
1.94188e-08
1.18058e-08
1.17611e-08
2.24505e-08
1.96543e-08
2.24815e-08
2.91232e-08
3.90863e-08
4.85558e-08
7.2097e-08
1.14106e-07
7.80752e-07
1.13649e-06
1.09866e-06
7.35121e-07
1.08131e-07
7.00328e-08
4.8346e-08
4.02685e-08
3.09467e-08
2.38826e-08
2.01296e-08
2.26e-08
3.24649e-08
2.64765e-08
3.21587e-08
3.92491e-08
4.56642e-08
5.11153e-08
7.18462e-08
1.97277e-07
2.92661e-06
2.51664e-06
2.46673e-06
2.76338e-06
1.85975e-07
7.03772e-08
5.17598e-08
4.79247e-08
4.23204e-08
3.48221e-08
2.81914e-08
3.35926e-08
4.0292e-08
3.80498e-08
4.83928e-08
5.60599e-08
5.92109e-08
6.10499e-08
8.70777e-08
3.74272e-07
6.09856e-06
4.36949e-06
4.34811e-06
5.73882e-06
3.48407e-07
8.50799e-08
6.25519e-08
6.2143e-08
6.0069e-08
5.27926e-08
4.17375e-08
4.12494e-08
3.89309e-08
5.85375e-08
7.276e-08
7.92483e-08
8.00978e-08
8.06067e-08
1.16188e-07
7.06617e-07
1.05958e-05
6.80511e-06
6.86693e-06
9.92136e-06
6.30084e-07
1.11976e-07
8.18529e-08
8.19982e-08
8.13041e-08
7.40216e-08
5.83627e-08
4.09425e-08
2.31857e-07
1.31446e-07
9.30592e-08
8.45183e-08
8.93525e-08
9.92102e-08
1.53462e-07
1.08002e-06
1.51633e-05
9.64863e-06
9.84257e-06
1.40912e-05
9.64413e-07
1.46065e-07
9.79467e-08
8.84524e-08
8.46158e-08
9.55248e-08
1.39995e-07
2.54542e-07
5.66498e-07
2.86809e-07
1.57312e-07
1.16549e-07
1.21848e-07
1.54585e-07
2.45195e-07
1.40384e-06
1.7971e-05
1.2452e-05
1.28245e-05
1.66031e-05
1.27144e-06
2.38581e-07
1.53435e-07
1.20837e-07
1.16305e-07
1.59084e-07
2.92272e-07
5.74077e-07
8.95491e-07
5.44228e-07
2.96003e-07
2.75844e-07
3.62585e-07
4.5588e-07
5.26382e-07
1.61567e-06
1.7165e-05
1.38889e-05
1.44108e-05
1.5799e-05
1.48969e-06
5.25988e-07
4.58339e-07
3.62345e-07
2.74813e-07
2.95875e-07
5.49389e-07
8.91126e-07
1.25825e-06
1.06874e-06
1.05512e-06
1.80022e-06
2.77495e-06
3.38175e-06
3.39953e-06
5.59681e-06
1.35557e-05
1.43479e-05
1.47913e-05
1.27318e-05
5.32651e-06
3.34636e-06
3.35902e-06
2.73851e-06
1.77047e-06
1.0383e-06
1.05194e-06
1.24223e-06
1.78487e-06
2.54139e-06
3.31112e-06
4.22435e-06
5.37079e-06
6.6233e-06
8.12668e-06
1.05717e-05
1.43657e-05
1.50176e-05
1.53071e-05
1.39997e-05
1.02948e-05
7.95023e-06
6.49949e-06
5.27598e-06
4.15141e-06
3.25594e-06
2.49944e-06
1.75625e-06
8.50189e-09
1.74319e-08
1.40942e-08
2.06449e-08
2.7007e-08
3.42662e-08
4.45374e-08
5.7808e-08
6.58644e-08
7.40734e-08
7.35615e-08
6.61281e-08
5.84552e-08
4.50879e-08
3.47678e-08
2.75625e-08
2.11936e-08
1.47859e-08
1.82315e-08
8.67546e-09
1.85431e-08
1.85853e-08
2.31002e-08
2.96399e-08
3.87397e-08
4.64221e-08
6.6664e-08
1.0318e-07
7.10275e-07
1.09808e-06
1.09275e-06
7.18083e-07
1.05641e-07
6.82171e-08
4.7234e-08
3.94616e-08
3.0309e-08
2.37497e-08
1.94713e-08
1.97937e-08
3.16455e-08
2.68665e-08
3.35568e-08
4.12322e-08
4.66987e-08
5.0323e-08
6.75055e-08
1.80344e-07
2.72282e-06
2.46581e-06
2.4443e-06
2.69019e-06
1.7968e-07
6.78295e-08
5.04643e-08
4.70636e-08
4.18686e-08
3.44126e-08
2.79197e-08
3.26878e-08
3.95482e-08
3.92439e-08
5.0934e-08
5.85919e-08
6.0932e-08
6.13362e-08
8.22278e-08
3.39851e-07
5.69891e-06
4.3473e-06
4.29779e-06
5.56898e-06
3.32608e-07
8.12929e-08
6.09997e-08
6.10841e-08
5.93337e-08
5.23627e-08
4.16782e-08
4.04356e-08
3.85892e-08
5.8147e-08
7.29839e-08
7.9447e-08
8.02443e-08
8.04192e-08
1.09127e-07
6.14588e-07
9.90455e-06
6.86697e-06
6.77866e-06
9.61078e-06
5.92271e-07
1.06427e-07
7.96038e-08
8.00625e-08
7.93825e-08
7.23195e-08
5.7295e-08
4.12572e-08
2.44495e-07
1.35646e-07
9.34028e-08
8.3578e-08
8.83881e-08
9.81104e-08
1.45647e-07
9.61002e-07
1.41209e-05
9.84428e-06
9.7115e-06
1.36227e-05
9.05789e-07
1.39033e-07
9.52676e-08
8.66446e-08
8.37337e-08
9.61541e-08
1.44302e-07
2.6603e-07
5.74551e-07
2.91539e-07
1.58177e-07
1.15304e-07
1.20407e-07
1.54208e-07
2.41669e-07
1.2852e-06
1.66944e-05
1.28289e-05
1.26572e-05
1.60366e-05
1.20694e-06
2.30787e-07
1.49992e-07
1.18617e-07
1.15437e-07
1.60119e-07
2.9579e-07
5.77461e-07
8.97992e-07
5.52257e-07
2.95182e-07
2.69428e-07
3.53051e-07
4.46998e-07
5.19074e-07
1.51165e-06
1.59462e-05
1.44183e-05
1.42427e-05
1.52415e-05
1.42848e-06
5.14321e-07
4.47517e-07
3.52602e-07
2.68757e-07
2.94706e-07
5.53493e-07
8.87572e-07
1.25469e-06
1.06419e-06
1.04693e-06
1.75353e-06
2.70333e-06
3.30792e-06
3.34603e-06
5.38416e-06
1.28621e-05
1.47975e-05
1.45927e-05
1.23799e-05
5.18898e-06
3.28912e-06
3.2967e-06
2.6756e-06
1.72287e-06
1.02501e-06
1.04155e-06
1.23081e-06
1.77368e-06
2.51954e-06
3.27623e-06
4.16645e-06
5.28991e-06
6.52004e-06
7.99318e-06
1.03603e-05
1.4073e-05
1.5312e-05
1.51031e-05
1.36999e-05
1.00801e-05
7.80192e-06
6.38533e-06
5.18504e-06
4.08171e-06
3.20779e-06
2.46507e-06
1.73415e-06
7.84756e-09
1.25317e-08
1.75128e-08
2.30726e-08
2.92351e-08
3.50449e-08
4.12885e-08
4.94412e-08
5.60662e-08
6.73816e-08
6.61629e-08
5.52463e-08
4.90065e-08
4.09863e-08
3.49112e-08
2.93593e-08
2.35409e-08
1.7595e-08
1.21021e-08
8.83229e-09
1.91146e-08
2.03082e-08
2.68288e-08
3.40426e-08
3.85741e-08
4.16636e-08
4.77709e-08
6.27633e-08
1.02287e-07
7.33959e-07
7.18829e-07
1.01336e-07
6.3107e-08
4.77963e-08
4.14772e-08
3.84243e-08
3.41471e-08
2.74576e-08
2.10634e-08
2.02543e-08
2.78218e-08
3.15063e-08
4.53105e-08
5.22296e-08
5.2189e-08
5.04123e-08
5.22719e-08
7.03943e-08
2.25051e-07
2.75942e-06
2.69188e-06
2.19359e-07
6.9929e-08
5.20853e-08
5.01942e-08
5.22496e-08
5.28996e-08
4.67277e-08
3.25525e-08
2.84024e-08
3.01677e-08
5.61561e-08
7.2022e-08
7.5662e-08
7.2123e-08
6.59855e-08
6.37816e-08
8.95327e-08
4.627e-07
5.73008e-06
5.57164e-06
4.45725e-07
8.78215e-08
6.32547e-08
6.56926e-08
7.23275e-08
7.65385e-08
7.35822e-08
5.78844e-08
2.90883e-08
5.73144e-08
6.72295e-08
7.94999e-08
8.55098e-08
8.63118e-08
8.23705e-08
8.0274e-08
1.20724e-07
9.13237e-07
9.90465e-06
9.61425e-06
8.69897e-07
1.1695e-07
7.91938e-08
8.14586e-08
8.54172e-08
8.47704e-08
7.89409e-08
6.79892e-08
6.06855e-08
3.00821e-07
1.60438e-07
1.08396e-07
9.44873e-08
9.23545e-08
9.19142e-08
9.51176e-08
1.58176e-07
1.4057e-06
1.40643e-05
1.3627e-05
1.32531e-06
1.5105e-07
9.30662e-08
9.03959e-08
9.1367e-08
9.47445e-08
1.11085e-07
1.68285e-07
3.17501e-07
6.48263e-07
3.25441e-07
1.81243e-07
1.37323e-07
1.36006e-07
1.52032e-07
1.76125e-07
2.81599e-07
1.88303e-06
1.65684e-05
1.60409e-05
1.77734e-06
2.69132e-07
1.72152e-07
1.49907e-07
1.35352e-07
1.37782e-07
1.82533e-07
3.27463e-07
6.47749e-07
1.00298e-06
6.67207e-07
3.78945e-07
3.78194e-07
4.99922e-07
6.27592e-07
6.79269e-07
6.78308e-07
2.15726e-06
1.57642e-05
1.52455e-05
2.04598e-06
6.70886e-07
6.80233e-07
6.26142e-07
4.98517e-07
3.77241e-07
3.77626e-07
6.65204e-07
9.92059e-07
1.40185e-06
1.292e-06
1.5581e-06
2.44473e-06
3.72187e-06
4.69887e-06
4.85559e-06
3.98742e-06
5.05372e-06
1.27109e-05
1.23814e-05
4.85824e-06
3.96915e-06
4.90003e-06
4.68725e-06
3.69207e-06
2.41253e-06
1.53997e-06
1.27267e-06
1.38049e-06
1.94199e-06
2.72427e-06
3.53783e-06
4.42965e-06
5.48293e-06
6.57549e-06
7.7139e-06
9.05534e-06
1.10291e-05
1.39898e-05
1.37011e-05
1.07746e-05
8.8671e-06
7.57569e-06
6.46512e-06
5.39203e-06
4.35446e-06
3.47596e-06
2.67537e-06
1.90697e-06
7.85789e-09
1.40236e-08
2.07864e-08
2.9648e-08
3.59708e-08
4.01345e-08
4.29898e-08
4.60179e-08
5.01832e-08
5.97208e-08
5.84909e-08
4.90118e-08
4.51361e-08
4.23085e-08
3.97273e-08
3.59591e-08
3.00718e-08
2.18111e-08
1.4504e-08
8.19246e-09
1.92283e-08
2.80511e-08
3.81535e-08
4.43362e-08
4.58534e-08
4.53505e-08
4.53082e-08
4.91037e-08
6.45018e-08
1.07914e-07
1.05783e-07
6.31487e-08
4.8432e-08
4.46667e-08
4.48075e-08
4.5588e-08
4.45327e-08
3.89524e-08
2.92325e-08
2.00901e-08
2.49724e-08
6.23814e-08
7.99747e-08
7.96445e-08
7.18632e-08
6.22832e-08
5.4923e-08
5.41939e-08
7.22793e-08
1.85629e-07
1.79864e-07