/*--------------------------------*- C++ -*----------------------------------*\
| =========                 |                                                 |
| \\      /  F ield         | OpenFOAM: The Open Source CFD Toolbox           |
|  \\    /   O peration     | Version:  v1912                                 |
|   \\  /    A nd           | Website:  www.openfoam.com                      |
|    \\/     M anipulation  |                                                 |
\*---------------------------------------------------------------------------*/
FoamFile
{
    version     2.0;
    format      ascii;
    class       volScalarField;
    location    "500";
    object      k;
}
// * * * * * * * * * * * * * * * * * * * * * * * * * * * * * * * * * * * * * //

dimensions      [0 2 -2 0 0 0 0];


internalField   nonuniform List<scalar> 
4000
(
4.20543e-05
3.53755e-05
2.57593e-05
5.97449e-06
4.23524e-06
3.53822e-06
3.03064e-06
2.89306e-06
2.92856e-06
3.99733e-06
3.02533e-06
2.89223e-06
2.88059e-06
3.1018e-06
3.60296e-06
4.23658e-06
6.32843e-06
2.9493e-05
3.772e-05
4.37295e-05
4.83799e-05
4.19061e-05
3.1437e-05
2.29407e-05
1.68691e-05
6.16338e-06
5.31799e-06
5.20771e-06
5.22527e-06
5.80834e-06
5.16088e-06
5.21036e-06
5.23275e-06
5.4429e-06
6.43202e-06
1.77311e-05
2.39585e-05
3.34969e-05
4.33556e-05
4.9655e-05
5.2503e-05
4.76428e-05
3.93427e-05
3.08829e-05
2.373e-05
1.68593e-05
8.90104e-06
6.51304e-06
6.83142e-06
7.47277e-06
7.31655e-06
6.70522e-06
6.24181e-06
9.95426e-06
1.75925e-05
2.4349e-05
3.13377e-05
3.98979e-05
4.85738e-05
5.35471e-05
5.51623e-05
5.17519e-05
4.41664e-05
3.47896e-05
2.63459e-05
1.99387e-05
1.41005e-05
9.17557e-06
7.41802e-06
8.59239e-06
8.48488e-06
7.07954e-06
1.00052e-05
1.49487e-05
2.07406e-05
2.70596e-05
3.56572e-05
4.48244e-05
5.25385e-05
5.60801e-05
5.72139e-05
5.56175e-05
5.04456e-05
4.2433e-05
3.33825e-05
2.55367e-05
1.95059e-05
1.40427e-05
1.06068e-05
8.39659e-06
8.33912e-06
1.08446e-05
1.51862e-05
2.08358e-05
2.6932e-05
3.49154e-05
4.36903e-05
5.1278e-05
5.63946e-05
5.80658e-05
5.90739e-05
5.95441e-05
5.74554e-05
5.36598e-05
4.93843e-05
4.5028e-05
4.06469e-05
3.59715e-05
3.11172e-05
2.76296e-05
2.85618e-05
3.27708e-05
3.74565e-05
4.20338e-05
4.63699e-05
5.06217e-05
5.47441e-05
5.83911e-05
6.04157e-05
5.98885e-05
6.1095e-05
6.39951e-05
6.52438e-05
6.5151e-05
6.43869e-05
6.28814e-05
6.06334e-05
5.76223e-05
5.40963e-05
5.00016e-05
5.04489e-05
5.46796e-05
5.83726e-05
6.14902e-05
6.38296e-05
6.53835e-05
6.61525e-05
6.62046e-05
6.49068e-05
6.18829e-05
6.34633e-05
6.89842e-05
7.33777e-05
7.63674e-05
7.83384e-05
7.90767e-05
7.85255e-05
7.65434e-05
7.31127e-05
6.7818e-05
6.79373e-05
7.31501e-05
7.68179e-05
7.9009e-05
7.97482e-05
7.91543e-05
7.72798e-05
7.43235e-05
6.99061e-05
6.42221e-05
6.64978e-05
7.51984e-05
8.26794e-05
8.84532e-05
9.28452e-05
9.55393e-05
9.64407e-05
9.53147e-05
9.17957e-05
8.5058e-05
8.49045e-05
9.14454e-05
9.52912e-05
9.67278e-05
9.60799e-05
9.35743e-05
8.93164e-05
8.36053e-05
7.61032e-05
6.72251e-05
7.09369e-05
8.29088e-05
9.31843e-05
0.000101126
0.000107449
0.00011213
0.000115122
0.000116075
0.00011424
0.000107376
0.000106946
0.000113637
0.000115809
0.000115171
0.000112443
0.000107976
0.000101819
9.39831e-05
8.37294e-05
7.16195e-05
3.53803e-05
3.01618e-05
2.1675e-05
8.21271e-06
7.90558e-06
6.97268e-06
4.71438e-06
4.17009e-06
4.35372e-06
3.70186e-06
4.87673e-06
3.98929e-06
4.262e-06
5.09245e-06
7.32184e-06
7.64259e-06
8.54914e-06
2.63987e-05
3.32393e-05
3.81328e-05
4.19153e-05
5.30428e-05
3.63632e-05
2.85179e-05
2.64116e-05
1.72411e-05
9.99019e-06
9.06381e-06
8.77081e-06
8.90824e-06
8.88561e-06
8.7156e-06
9.63127e-06
1.08897e-05
1.93604e-05
2.74711e-05
3.03512e-05
4.02008e-05
5.92269e-05
4.40681e-05
4.76526e-05
6.83027e-05
5.90187e-05
4.32259e-05
3.31019e-05
2.63837e-05
2.08362e-05
1.33993e-05
1.1053e-05
1.12148e-05
1.11144e-05
1.11322e-05
1.53359e-05
2.19645e-05
2.754e-05
3.46093e-05
4.572e-05
6.29572e-05
7.082e-05
4.92907e-05
5.17607e-05
6.34682e-05
5.89317e-05
4.64669e-05
3.49142e-05
2.6914e-05
2.1001e-05
1.69172e-05
1.44673e-05
1.33849e-05
1.34205e-05
1.47153e-05
1.74498e-05
2.20078e-05
2.8221e-05
3.65771e-05
4.86991e-05
6.13872e-05
6.52522e-05
5.31503e-05
5.56242e-05
6.47246e-05
6.13976e-05
5.10589e-05
3.78186e-05
2.85653e-05
2.21344e-05
1.7412e-05
1.48747e-05
1.53819e-05
1.52789e-05
1.49e-05
1.7956e-05
2.30533e-05
2.96567e-05
3.90351e-05
5.21893e-05
6.27904e-05
6.62731e-05
5.68469e-05
5.95477e-05
6.86532e-05
6.7374e-05
6.05183e-05
5.02966e-05
3.97347e-05
3.27276e-05
2.70181e-05
2.27718e-05
2.11014e-05
2.14345e-05
2.33539e-05
2.76944e-05
3.35395e-05
4.05891e-05
5.13837e-05
6.14977e-05
6.85046e-05
7.00419e-05
6.06488e-05
6.39959e-05
7.34695e-05
7.43149e-05
7.18134e-05
6.73643e-05
5.94655e-05
4.92483e-05
4.17327e-05
3.69109e-05
3.4094e-05
3.44828e-05
3.73884e-05
4.21896e-05
5.01011e-05
6.03577e-05
6.81791e-05
7.27962e-05
7.53874e-05
7.47792e-05
6.49545e-05
6.8983e-05
7.9635e-05
8.34505e-05
8.60748e-05
8.86062e-05
8.83183e-05
8.45968e-05
7.64836e-05
6.69087e-05
5.70704e-05
5.77445e-05
6.75924e-05
7.71819e-05
8.49098e-05
8.88508e-05
8.94523e-05
8.71843e-05
8.4587e-05
8.09334e-05
6.98312e-05
7.51967e-05
8.95588e-05
0.000100362
0.000108815
0.000115717
0.000119154
0.000118599
0.000113455
0.000103108
8.7077e-05
8.68911e-05
0.000102429
0.0001133
0.000118876
0.000119784
0.000116605
0.000109951
0.000101602
9.07946e-05
7.59884e-05
8.29058e-05
9.75424e-05
0.00011068
0.000121436
0.000130499
0.000137658
0.000142651
0.000144866
0.000143275
0.000135896
0.000135146
0.000142401
0.000144373
0.00014253
0.000137852
0.000130951
0.000122089
0.000111454
9.83301e-05
8.35366e-05
2.57687e-05
2.16811e-05
9.98575e-06
9.57161e-06
1.09702e-05
9.39317e-06
6.32444e-06
5.11438e-06
4.57525e-06
4.95126e-06
4.2499e-06
4.94085e-06
5.50872e-06
6.97349e-06
1.02274e-05
1.09374e-05
9.53527e-06
1.97756e-05
2.68027e-05
3.02517e-05
3.14488e-05
3.63666e-05
3.15274e-05
3.06806e-05
2.86701e-05
1.9715e-05
1.28816e-05
1.12217e-05
1.03599e-05
1.06983e-05
1.0376e-05
1.0603e-05
1.2081e-05
1.45435e-05
2.16641e-05
2.86031e-05
2.89971e-05
3.14655e-05
4.05966e-05
3.44642e-05
3.93558e-05
5.90336e-05
5.20615e-05
4.19617e-05
3.45164e-05
2.91336e-05
2.40074e-05
1.75993e-05
1.37164e-05
1.32741e-05
1.33407e-05
1.44221e-05
1.90154e-05
2.53269e-05
3.02729e-05
3.58451e-05
4.39465e-05
5.5882e-05
6.42442e-05
4.09437e-05
4.41811e-05
5.89446e-05
5.66423e-05
4.68122e-05
3.71485e-05
2.99443e-05
2.45269e-05
2.08591e-05
1.80452e-05
1.63454e-05
1.65689e-05
1.87145e-05
2.16039e-05
2.58177e-05
3.16474e-05
3.94173e-05
4.99502e-05
6.0765e-05
6.22134e-05
4.58973e-05
5.04568e-05
6.141e-05
5.93108e-05
5.06901e-05
3.93186e-05
3.07354e-05
2.4657e-05
2.04885e-05
1.87196e-05
1.98707e-05
1.97989e-05
1.87668e-05
2.09742e-05
2.55185e-05
3.17526e-05
4.03752e-05
5.17623e-05
6.09978e-05
6.3634e-05
5.20634e-05
5.74627e-05
6.73848e-05
6.58584e-05
5.77266e-05
4.59854e-05
3.58837e-05
2.89571e-05
2.38237e-05
2.02913e-05
1.92858e-05
1.92334e-05
2.03054e-05
2.40643e-05
2.94027e-05
3.64161e-05
4.67036e-05
5.85962e-05
6.72353e-05
6.92302e-05
5.88672e-05
6.52465e-05
7.43251e-05
7.47743e-05
6.79601e-05
5.69432e-05
4.69992e-05
3.84879e-05
3.19378e-05
2.72155e-05
2.46515e-05
2.46861e-05
2.71844e-05
3.19163e-05
3.86312e-05
4.72416e-05
5.73691e-05
6.88539e-05
7.62016e-05
7.60456e-05
6.63907e-05
7.33775e-05
8.34592e-05
9.00814e-05
8.90607e-05
8.06774e-05
7.3057e-05
6.64453e-05
5.82875e-05
4.92978e-05
4.03255e-05
4.02254e-05
4.91682e-05
5.81842e-05
6.62926e-05
7.30896e-05
8.11091e-05
9.01225e-05
9.17079e-05
8.51572e-05
7.43266e-05
8.2678e-05
0.000100368
0.000123995
0.000145331
0.000161056
0.000167909
0.000167028
0.000157155
0.000135903
0.000102398
0.000101961
0.000135396
0.000157117
0.000167274
0.000168506
0.000161926
0.000146795
0.000125714
0.000102016
8.35317e-05
9.31807e-05
0.000110679
0.000126596
0.000140125
0.000151873
0.000161491
0.000168472
0.000171959
0.000170671
0.000162108
0.000161008
0.000169502
0.000171209
0.000168126
0.000161499
0.000152177
0.000140673
0.000127295
0.000111407
9.37695e-05
5.9781e-06
8.21796e-06
9.57574e-06
1.17621e-05
1.19592e-05
1.00988e-05
7.87106e-06
6.42738e-06
5.62534e-06
5.51933e-06
5.48292e-06
5.91252e-06
6.9826e-06
8.53669e-06
1.07305e-05
1.23041e-05
1.14088e-05
9.59957e-06
8.87947e-06
8.70436e-06
2.29496e-05
2.85193e-05
3.06801e-05
3.04581e-05
2.65454e-05
1.884e-05
1.46925e-05
1.27519e-05
1.20474e-05
1.26252e-05
1.2549e-05
1.25445e-05
1.38275e-05
1.59725e-05
2.01462e-05
2.67529e-05
2.94419e-05
2.90829e-05
3.05122e-05
2.4533e-05
3.08943e-05
4.32377e-05
4.19649e-05
3.73122e-05
3.26873e-05
2.92943e-05
2.43316e-05
1.84598e-05
1.55713e-05
1.54324e-05
1.55085e-05
1.63772e-05
1.9902e-05
2.57559e-05
3.04676e-05
3.40652e-05
3.88565e-05
4.42857e-05
4.6798e-05
3.22767e-05
3.48078e-05
4.64875e-05
4.68208e-05
4.13426e-05
3.50263e-05
2.9858e-05
2.56666e-05
2.24335e-05
1.9685e-05
1.86093e-05
1.87758e-05
2.02993e-05
2.33788e-05
2.70684e-05
3.16906e-05
3.74203e-05
4.43946e-05
5.05856e-05
5.0124e-05
3.68719e-05
4.24499e-05
5.10839e-05
5.07044e-05
4.49748e-05
3.73327e-05
3.079e-05
2.57885e-05
2.23857e-05
2.12063e-05
2.22789e-05
2.21213e-05
2.12101e-05
2.29235e-05
2.67454e-05
3.19703e-05
3.86503e-05
4.6424e-05
5.26186e-05
5.37042e-05
4.46992e-05
5.36689e-05
6.05391e-05
5.77417e-05
5.08722e-05
4.20774e-05
3.40922e-05
2.80917e-05
2.36813e-05
2.08388e-05
2.0362e-05
2.01621e-05
2.07453e-05
2.39144e-05
2.85911e-05
3.47782e-05
4.30297e-05
5.21935e-05
5.9551e-05
6.28194e-05
5.5347e-05
6.51543e-05
7.18275e-05
6.79755e-05
6.00806e-05
5.11468e-05
4.26624e-05
3.565e-05
2.99937e-05
2.54148e-05
2.26561e-05
2.24497e-05
2.51714e-05
2.9923e-05
3.57941e-05
4.30338e-05
5.18971e-05
6.12755e-05
6.98628e-05
7.37339e-05
6.64117e-05
7.63675e-05
8.60826e-05
8.9074e-05
8.27461e-05
7.88665e-05
7.44134e-05
6.92716e-05
6.18258e-05
5.16608e-05
4.05039e-05
3.98694e-05
5.13274e-05
6.18145e-05
6.94435e-05
7.48363e-05
7.97186e-05
8.413e-05
9.11198e-05
8.7764e-05
7.73397e-05
8.84521e-05
0.000108823
0.000145339
0.000181521
0.000203661
0.000218168
0.000224212
0.000216028
0.000189264
0.000148504
0.000145948
0.000188391
0.000215804
0.000224308
0.000218743
0.000204889
0.000183635
0.000147436
0.000110595
8.93004e-05
0.000101123
0.000121434
0.000140124
0.000156576
0.000171387
0.000184125
0.000193691
0.000198966
0.000198428
0.000190691
0.000189004
0.000196911
0.000197909
0.000193075
0.000183903
0.00017151
0.000156979
0.000140691
0.000122046
0.000101627
4.23821e-06
7.92211e-06
1.0977e-05
1.19521e-05
1.16528e-05
1.01579e-05
8.6425e-06
7.37549e-06
6.61223e-06
6.58706e-06
6.56013e-06
6.9208e-06
7.94723e-06
9.25705e-06
1.06969e-05
1.20535e-05
1.23708e-05
1.10076e-05
7.69534e-06
4.51176e-06
1.68826e-05
2.6407e-05
2.86621e-05
2.65436e-05
2.20825e-05
1.76605e-05
1.5201e-05
1.37149e-05
1.38242e-05
1.54901e-05
1.50523e-05
1.39598e-05
1.45829e-05
1.63473e-05
1.88073e-05
2.26802e-05
2.69541e-05
2.88242e-05
2.77189e-05
1.8459e-05
2.37398e-05
3.31051e-05
3.45159e-05
3.26858e-05
3.04179e-05
2.75326e-05
2.25551e-05
1.79549e-05
1.64738e-05
1.7404e-05
1.72297e-05
1.69663e-05
1.93946e-05
2.42429e-05
2.89266e-05
3.1891e-05
3.41658e-05
3.61668e-05
3.52998e-05
2.51683e-05
2.6356e-05
3.49252e-05
3.71543e-05
3.50274e-05
3.16215e-05
2.83047e-05
2.5329e-05
2.22284e-05
1.98228e-05
1.98339e-05
1.9844e-05
2.04419e-05
2.33604e-05
2.67365e-05
3.00879e-05
3.38125e-05
3.76142e-05
4.00045e-05
3.75707e-05
2.78564e-05
3.33979e-05
3.78382e-05
3.93325e-05
3.73376e-05
3.32855e-05
2.90777e-05
2.54689e-05
2.30716e-05
2.2441e-05
2.31755e-05
2.29734e-05
2.24304e-05
2.36147e-05
2.64895e-05
3.03778e-05
3.47876e-05
3.90141e-05
4.13546e-05
4.05802e-05
3.62119e-05
4.93917e-05
5.03209e-05
4.60063e-05
4.2087e-05
3.70032e-05
3.17363e-05
2.72585e-05
2.39194e-05
2.21873e-05
2.30122e-05
2.28225e-05
2.2161e-05
2.42748e-05
2.79305e-05
3.26648e-05
3.82181e-05
4.36301e-05
4.79865e-05
5.2822e-05
5.12305e-05
6.43898e-05
6.73802e-05
5.69658e-05
5.116e-05
4.59051e-05
4.03699e-05
3.53325e-05
3.10265e-05
2.73883e-05
2.57256e-05
2.55415e-05
2.72873e-05
3.12043e-05
3.58008e-05
4.11657e-05
4.71225e-05
5.27671e-05
5.88807e-05
6.9367e-05
6.56716e-05
7.83389e-05
8.8614e-05
8.07044e-05
7.88821e-05
8.09692e-05
8.13368e-05
7.93826e-05
7.36001e-05
6.27416e-05
4.9257e-05
4.84447e-05
6.23928e-05
7.3813e-05
7.99804e-05
8.23486e-05
8.25098e-05
8.08158e-05
8.29686e-05
9.01711e-05
7.92651e-05
9.28448e-05
0.000115726
0.000161069
0.000203674
0.000241773
0.000273438
0.000290515
0.000286893
0.000254882
0.000199362
0.00019593
0.000251915
0.000285572
0.000289819
0.00027353
0.000243067
0.000205959
0.00016303
0.0001174
9.36254e-05
0.000107446
0.000130497
0.000151873
0.000171388
0.000190261
0.000206506
0.000219253
0.000227271
0.000229009
0.000223804
0.000221625
0.000227007
0.000225822
0.000218303
0.000205996
0.000190158
0.000171582
0.000152241
0.000130935
0.000107824
3.54133e-06
7.00477e-06
9.3967e-06
1.00894e-05
1.01542e-05
9.57549e-06
8.75374e-06
7.93238e-06
7.48109e-06
7.75471e-06
7.69392e-06
7.81212e-06
8.55159e-06
9.44131e-06
1.02356e-05
1.07969e-05
1.09494e-05
1.04542e-05
7.5427e-06
3.83256e-06
6.17463e-06
1.72664e-05
1.97152e-05
1.88305e-05
1.76564e-05
1.61955e-05
1.48625e-05
1.40997e-05
1.50533e-05
1.78105e-05
1.70085e-05
1.49696e-05
1.49019e-05
1.60269e-05
1.74466e-05
1.89257e-05
2.05034e-05
2.234e-05
2.03459e-05
7.25177e-06
1.68635e-05
2.63865e-05
2.91278e-05
2.92897e-05
2.75314e-05
2.40848e-05
1.991e-05
1.7e-05
1.67919e-05
1.86857e-05
1.81769e-05
1.70396e-05
1.83072e-05
2.17314e-05
2.58292e-05
2.90507e-05
3.06476e-05
3.0508e-05
2.80116e-05
1.82477e-05
1.99452e-05
2.69186e-05
2.99454e-05
2.98574e-05
2.83041e-05
2.62878e-05
2.37247e-05
2.07535e-05
1.93248e-05
2.02327e-05
2.00493e-05
1.98489e-05
2.20004e-05
2.51953e-05
2.79253e-05
3.01944e-05
3.19307e-05
3.20956e-05
2.88851e-05
2.13742e-05
2.55423e-05
2.85736e-05
3.07426e-05
3.07935e-05
2.90786e-05
2.66553e-05
2.43063e-05
2.2744e-05
2.24475e-05
2.34674e-05
2.32861e-05
2.25042e-05
2.32667e-05
2.52694e-05
2.79112e-05
3.05138e-05
3.23425e-05
3.24288e-05
3.05267e-05
2.77846e-05
4.50315e-05
3.97444e-05
3.58957e-05
3.41005e-05
3.17393e-05
2.87645e-05
2.58829e-05
2.37998e-05
2.3332e-05
2.56639e-05
2.54787e-05
2.33452e-05
2.41983e-05
2.6614e-05
2.97384e-05
3.29014e-05
3.54016e-05
3.73682e-05
4.15785e-05
4.69237e-05
6.28831e-05
5.94813e-05
4.70171e-05
4.26769e-05
4.03763e-05
3.77826e-05
3.50283e-05
3.25435e-05
3.06833e-05
3.16777e-05
3.16915e-05
3.08486e-05
3.29803e-05
3.5749e-05
3.87862e-05
4.16335e-05
4.40751e-05
4.85853e-05
6.17064e-05
6.41158e-05
7.90776e-05
8.83276e-05
7.30747e-05
7.44295e-05
8.13449e-05
8.66339e-05
8.8392e-05
8.44064e-05
7.28152e-05
5.77554e-05
5.71272e-05
7.27026e-05
8.48603e-05
8.92174e-05
8.78598e-05
8.3e-05
7.61453e-05
7.44665e-05
8.98116e-05
7.99029e-05
9.55399e-05
0.000119163
0.000167923
0.000218178
0.000273449
0.000317403
0.000342679
0.000339614
0.000295286
0.000222131
0.000218954
0.000292272
0.000338059
0.000341422
0.000316491
0.000274126
0.00022001
0.000169981
0.000120692
9.61922e-05
0.000112129
0.000137657
0.000161492
0.000184126
0.000206507
0.000226249
0.000242367
0.000253571
0.000258578
0.000257389
0.000254781
0.000256245
0.00025183
0.000241115
0.000225417
0.000206102
0.000184058
0.000161613
0.000137872
0.000112339
3.03702e-06
4.73978e-06
6.33759e-06
7.89142e-06
8.64516e-06
8.75376e-06
8.55267e-06
8.31546e-06
8.39465e-06
9.29562e-06
9.16664e-06
8.71556e-06
8.95285e-06
9.28327e-06
9.49002e-06
9.38947e-06
8.78133e-06
7.35366e-06
5.34376e-06
3.26312e-06
5.34405e-06
1.00349e-05
1.29362e-05
1.4701e-05
1.52011e-05
1.48631e-05
1.44238e-05
1.46706e-05
1.68941e-05
2.19856e-05
2.07551e-05
1.6515e-05
1.53142e-05
1.55033e-05
1.60912e-05
1.6498e-05
1.62458e-05
1.50674e-05
1.12183e-05
5.61899e-06
8.90951e-06
2.08836e-05
2.40275e-05
2.43399e-05
2.2559e-05
1.99116e-05
1.75472e-05
1.6423e-05
1.76645e-05
2.11726e-05
2.03345e-05
1.75814e-05
1.74291e-05
1.91891e-05
2.18423e-05
2.45199e-05
2.61827e-05
2.58181e-05
2.25131e-05
1.09013e-05
1.41116e-05
2.10214e-05
2.45393e-05
2.56726e-05
2.53322e-05
2.37264e-05
2.12492e-05
1.91606e-05
1.93158e-05
2.22965e-05
2.17284e-05
1.95524e-05
2.02827e-05
2.27852e-05
2.53313e-05
2.69699e-05
2.73724e-05
2.62158e-05
2.24931e-05
1.54663e-05
1.95134e-05
2.21462e-05
2.46662e-05
2.57939e-05
2.54714e-05
2.43073e-05
2.29266e-05
2.1904e-05
2.2347e-05
2.57651e-05
2.51638e-05
2.23458e-05
2.23835e-05
2.37379e-05
2.5363e-05
2.66815e-05
2.70645e-05
2.59736e-05
2.36043e-05
2.14815e-05
4.06497e-05
3.27344e-05
2.89655e-05
2.80985e-05
2.72622e-05
2.58842e-05
2.438e-05
2.35031e-05
2.44842e-05
3.0121e-05
2.95461e-05
2.43825e-05
2.38132e-05
2.49995e-05
2.6711e-05
2.81894e-05
2.90495e-05
2.99884e-05
3.41377e-05
4.24873e-05
6.06345e-05
4.92572e-05
3.84992e-05
3.5661e-05
3.53396e-05
3.50309e-05
3.43749e-05
3.38172e-05
3.43674e-05
4.04218e-05
4.03829e-05
3.46359e-05
3.43295e-05
3.5126e-05
3.59595e-05
3.63395e-05
3.66227e-05
3.95446e-05
5.10125e-05
6.17373e-05
7.85275e-05
8.46063e-05
6.64563e-05
6.92825e-05
7.93905e-05
8.83943e-05
9.28756e-05
8.93855e-05
7.61567e-05
6.25086e-05
6.21723e-05
7.63302e-05
9.00951e-05
9.38459e-05
8.96139e-05
8.0831e-05
7.06269e-05
6.7446e-05
8.59571e-05
7.91906e-05
9.64433e-05
0.000118608
0.000167036
0.000224215
0.000290516
0.00034267
0.000372379
0.000361655
0.00029163
0.000200503
0.00019901
0.000288967
0.00036118
0.000371935
0.00034223
0.000291076
0.000225755
0.000168792
0.000119808
9.68898e-05
0.000115123
0.000142653
0.000168473
0.000193693
0.000219254
0.000242368
0.000262039
0.00027723
0.000287697
0.000295031
0.000291856
0.000285033
0.000275233
0.000260532
0.000241259
0.000218535
0.00019331
0.000168283
0.000142585
0.000115121
2.92856e-06
3.96598e-06
5.19686e-06
6.45512e-06
7.38986e-06
7.93598e-06
8.31614e-06
8.79076e-06
9.56774e-06
1.11098e-05
1.091e-05
9.8288e-06
9.36857e-06
8.99069e-06
8.6301e-06
8.09104e-06
7.20358e-06
5.75653e-06
4.4137e-06
3.02393e-06
5.27508e-06
9.03131e-06
1.12322e-05
1.27774e-05
1.37184e-05
1.40999e-05
1.46705e-05
1.62476e-05
1.98617e-05
2.43232e-05
2.27665e-05
1.90421e-05
1.653e-05
1.54168e-05
1.50436e-05
1.47814e-05
1.41046e-05
1.24232e-05
9.96791e-06
5.47674e-06
6.52138e-06
1.3357e-05
1.761e-05
1.84648e-05
1.79566e-05
1.70004e-05
1.64231e-05
1.71549e-05
2.00062e-05
2.6835e-05
2.54106e-05
1.94613e-05
1.76799e-05
1.75492e-05
1.84955e-05
1.97043e-05
2.03798e-05
1.96201e-05
1.61367e-05
6.44528e-06
9.17017e-06
1.69122e-05
2.08651e-05
2.24392e-05
2.22321e-05
2.07552e-05
1.9161e-05
1.88263e-05
2.16904e-05
3.55467e-05
3.3518e-05
2.12143e-05
1.95294e-05
2.04277e-05
2.22683e-05
2.37574e-05
2.38333e-05
2.20349e-05
1.77539e-05
1.05734e-05
1.40289e-05
1.74112e-05
2.04929e-05
2.23899e-05
2.30743e-05
2.27454e-05
2.19045e-05
2.16081e-05
2.53675e-05
5.29832e-05
4.80866e-05
2.45376e-05
2.19496e-05
2.2535e-05
2.34824e-05
2.3869e-05
2.32222e-05
2.13137e-05
1.83563e-05
1.58096e-05
3.59615e-05
2.70122e-05
2.38255e-05
2.36852e-05
2.39221e-05
2.38008e-05
2.3503e-05
2.3902e-05
2.93935e-05
7.15024e-05
6.58988e-05
2.83596e-05
2.39885e-05
2.3888e-05
2.43296e-05
2.4501e-05
2.42491e-05
2.4462e-05
2.80898e-05
3.77504e-05
5.7621e-05
4.17321e-05
3.19417e-05
3.00002e-05
3.10319e-05
3.2546e-05
3.38176e-05
3.5719e-05
4.27705e-05
9.00436e-05
8.5295e-05
4.22846e-05
3.61136e-05
3.44356e-05
3.32462e-05
3.16811e-05
3.05234e-05
3.24586e-05
4.25944e-05
5.85473e-05
7.65474e-05
7.64859e-05
5.82928e-05
6.18325e-05
7.36067e-05
8.44105e-05
8.93876e-05
8.43214e-05
7.40967e-05
0.0001078
0.0001038
7.42546e-05
8.54248e-05
9.05455e-05
8.56115e-05
7.48285e-05
6.29168e-05
5.91487e-05
7.80417e-05
7.7004e-05
9.53215e-05
0.000113467
0.00015716
0.000216021
0.000286894
0.000339615
0.00036165
0.000323966
0.000232989
0.000254148
0.00024784
0.000234391
0.000326189
0.000362615
0.000340062
0.00028759
0.000217577
0.000158762
0.000114288
9.54991e-05
0.000116081
0.000144873
0.000171965
0.000198971
0.000227275
0.000253572
0.000277228
0.000298427
0.000320346
0.000351629
0.000346992
0.000317191
0.000296059
0.000275354
0.00025209
0.000226148
0.000198191
0.000171381
0.000144446
0.000115813
3.27064e-06
3.65373e-06
4.68168e-06
5.64093e-06
6.62506e-06
7.48873e-06
8.39825e-06
9.56939e-06
1.0493e-05
1.20491e-05
1.19034e-05
1.06918e-05
9.93025e-06
8.83495e-06
7.94676e-06
7.09212e-06
6.12635e-06
5.13479e-06
3.84816e-06
3.17676e-06
5.38386e-06
8.71229e-06
1.03682e-05
1.20565e-05
1.3836e-05
1.50617e-05
1.68989e-05
1.98639e-05
2.22865e-05
6.30925e-05
5.92393e-05
2.13926e-05
1.94716e-05
1.69536e-05
1.53401e-05
1.43089e-05
1.28706e-05
1.09667e-05
9.01161e-06
5.50097e-06
6.86639e-06
1.10657e-05
1.37177e-05
1.55813e-05
1.6481e-05
1.67968e-05
1.76675e-05
2.00077e-05
2.87152e-05
0.000136604
0.000128814
2.75816e-05
1.98829e-05
1.80431e-05
1.74333e-05
1.73655e-05
1.67974e-05
1.48868e-05
1.14975e-05
6.92399e-06
7.4523e-06
1.44763e-05
1.80521e-05
1.9693e-05
1.98282e-05
1.93281e-05
1.93174e-05
2.16911e-05
4.2851e-05
0.000232332
0.000219397
3.97638e-05
2.16212e-05
1.99743e-05
2.02368e-05
2.08958e-05
2.0842e-05
1.92994e-05
1.50829e-05
7.09429e-06
1.06086e-05
1.48803e-05
1.87254e-05
2.12125e-05
2.2446e-05
2.24507e-05
2.23482e-05
2.53667e-05
6.81115e-05
0.000356636
0.00033674
6.16796e-05
2.49431e-05
2.2766e-05
2.29006e-05
2.28212e-05
2.15471e-05
1.89891e-05
1.51274e-05
1.12954e-05
3.1092e-05
2.27595e-05
2.02902e-05
2.08417e-05
2.21899e-05
2.33327e-05
2.44827e-05
2.93891e-05
9.35041e-05
0.000476906
0.000449601
8.38845e-05
2.85811e-05
2.45887e-05
2.34945e-05
2.23243e-05
2.09825e-05
2.06039e-05
2.36597e-05
3.30553e-05
5.4093e-05
3.69016e-05
2.72136e-05
2.5419e-05
2.73937e-05
3.06864e-05
3.43672e-05
4.27656e-05
0.000119118
0.000552471
0.000520948
0.000109017
4.22565e-05
3.47156e-05
3.10613e-05
2.76679e-05
2.5598e-05
2.74798e-05
3.75161e-05
5.47744e-05
7.31204e-05
6.68996e-05
4.92984e-05
5.16717e-05
6.27561e-05
7.283e-05
7.61699e-05
7.41023e-05
0.000141654
0.000552876
0.000522571
0.000132408
7.46651e-05
7.73474e-05
7.38646e-05
6.3616e-05
5.23688e-05
4.98986e-05
6.80798e-05
7.32804e-05
9.18109e-05
0.000103132
0.000135906
0.000189299
0.000254924
0.000295342
0.000291698
0.000233027
0.000255619
0.000480208
0.000461528
0.000247053
0.000235678
0.000293895
0.00029614
0.000254904
0.000190045
0.000137004
0.000103332
9.16125e-05
0.000114257
0.000143294
0.000170688
0.000198444
0.000229022
0.000258583
0.000287691
0.000320331
0.000366809
0.000431416
0.000425612
0.000361782
0.00031686
0.000285027
0.000256429
0.000227245
0.000197056
0.000169543
0.000142375
0.000113632
3.12705e-06
5.18418e-06
4.41581e-06
5.4713e-06
6.58326e-06
7.75896e-06
9.29852e-06
1.11117e-05
1.205e-05
1.29399e-05
1.28773e-05
1.20935e-05
1.11598e-05
9.39679e-06
7.89971e-06
6.76177e-06
5.66069e-06
4.45542e-06
5.22858e-06
3.11536e-06
5.36964e-06
9.24131e-06
1.05229e-05
1.26536e-05
1.54955e-05
1.78135e-05
2.19875e-05
2.4331e-05
6.30964e-05
6.17395e-05
6.04405e-05
6.07841e-05
2.36196e-05
2.15373e-05
1.75892e-05
1.55721e-05
1.29272e-05
1.07312e-05
9.23978e-06
5.40429e-06
7.40665e-06
1.12139e-05
1.32838e-05
1.54423e-05
1.74132e-05
1.86913e-05
2.11762e-05
2.68418e-05
0.000136597
0.000110993
0.000109305
0.000130768
2.6123e-05
2.10149e-05
1.86723e-05
1.76956e-05
1.59026e-05
1.36915e-05
1.14416e-05
7.55803e-06
8.58894e-06
1.33887e-05
1.63542e-05
1.86197e-05
1.98424e-05
2.02384e-05
2.22999e-05
3.55505e-05
0.0002323
0.000169185
0.000168093
0.000221235
3.424e-05
2.22874e-05
2.04357e-05
2.02396e-05
1.91895e-05
1.70056e-05
1.39257e-05
8.72092e-06
8.39459e-06
1.53825e-05
1.98795e-05
2.22895e-05
2.31839e-05
2.34737e-05
2.57672e-05
5.29657e-05
0.000356559
0.000239823
0.00024043
0.000337834
4.90672e-05
2.5616e-05
2.36176e-05
2.33443e-05
2.24662e-05
1.984e-05
1.49146e-05
8.67934e-06
2.76324e-05
2.11011e-05
1.92865e-05
2.03652e-05
2.3015e-05
2.56656e-05
3.01174e-05
7.14541e-05
0.000476743
0.000318946
0.000322143
0.000449187
6.60469e-05
2.95936e-05
2.53788e-05
2.26866e-05
2.01303e-05
1.93424e-05
2.17354e-05
2.93922e-05
5.00043e-05
3.4091e-05
2.46513e-05
2.26603e-05
2.57306e-05
3.16787e-05
4.0413e-05
8.99742e-05
0.00055223
0.000396405
0.000403139
0.000518821
8.45381e-05
4.00978e-05
3.15454e-05
2.55553e-05
2.25618e-05
2.48013e-05
3.46e-05
5.04454e-05
6.78296e-05
5.70722e-05
4.03381e-05
4.05278e-05
4.92862e-05
5.77839e-05
6.2524e-05
0.000107734
0.000552565
0.000443097
0.000452974
0.000518698
0.000102913
6.29284e-05
5.82427e-05
4.94689e-05
4.06034e-05
4.05493e-05
5.78311e-05
6.76063e-05
8.5079e-05
8.71155e-05
0.000102481
0.00014862
0.000199495
0.000222279
0.000200608
0.000254072
0.000479987
0.000467677
0.000476046
0.000457626
0.000245941
0.000200154
0.000222273
0.000198262
0.000147324
0.000101697
8.64016e-05
8.43531e-05
0.000107404
0.000135928
0.000162143
0.000190728
0.000223833
0.000257401
0.000295014
0.000351565
0.000431323
0.000444289
0.000449973
0.000423967
0.000345398
0.000290725
0.00025418
0.000221186
0.000188521
0.000160333
0.000134425
0.000106252
3.45015e-06
3.66024e-06
5.19621e-06
5.53012e-06
6.57514e-06
7.70187e-06
9.17287e-06
1.09147e-05
1.19071e-05
1.28773e-05
1.28194e-05
1.19404e-05
1.09971e-05
9.24877e-06
7.77634e-06
6.66006e-06
5.61702e-06
5.21614e-06
3.7741e-06
3.68445e-06
5.56708e-06
8.6888e-06
1.05544e-05
1.24924e-05
1.50653e-05
1.70152e-05
2.07618e-05
2.27648e-05
5.92269e-05
6.04236e-05
6.03649e-05
5.99096e-05
2.32661e-05
2.11512e-05
1.7283e-05
1.53221e-05
1.27152e-05
1.07389e-05
8.91906e-06
5.80116e-06
7.3657e-06
1.11132e-05
1.33309e-05
1.55205e-05
1.72417e-05
1.8185e-05
2.03446e-05
2.54098e-05
0.000128752
0.000109281
0.000108856
0.000128126
2.55338e-05
2.05257e-05
1.8304e-05
1.74032e-05
1.57057e-05
1.35227e-05
1.1319e-05
7.5275e-06
8.48065e-06
1.3431e-05
1.65826e-05
1.87919e-05
1.98585e-05
2.00608e-05
2.17399e-05
3.35059e-05
0.000219232
0.000168075
0.00016701
0.000215923
3.3142e-05
2.16937e-05
2.00312e-05
1.99091e-05
1.89294e-05
1.68171e-05
1.38335e-05
8.60512e-06
8.34753e-06
1.52716e-05
1.98024e-05
2.21292e-05
2.29826e-05
2.32958e-05
2.51722e-05
4.80325e-05
0.000336393
0.000240435
0.000238514
0.000329007
4.68485e-05
2.48814e-05
2.3118e-05
2.28783e-05
2.20195e-05
1.94401e-05
1.46375e-05
8.72705e-06
2.86061e-05
2.14529e-05
1.92389e-05
2.01628e-05
2.2823e-05
2.54819e-05
2.95491e-05
6.58138e-05
0.000449049
0.000322185
0.000319299
0.000436674
6.29622e-05
2.87583e-05
2.48527e-05
2.22806e-05
1.98669e-05
1.92867e-05
2.20667e-05
3.02557e-05
5.04748e-05
3.45033e-05
2.46945e-05
2.2451e-05
2.55404e-05
3.16918e-05
4.03841e-05
8.5213e-05
0.000520267
0.00040324
0.000399545
0.000504104
8.14477e-05
3.92876e-05
3.10318e-05
2.51745e-05
2.23618e-05
2.48562e-05
3.49154e-05
5.06424e-05
6.79551e-05
5.77815e-05
4.02375e-05
3.98707e-05
4.84359e-05
5.71148e-05
6.21611e-05
0.000103708
0.000521887
0.000453144
0.00044931
0.000503886
0.000100072
6.19743e-05
5.7272e-05
4.85311e-05
3.99627e-05
4.04039e-05
5.8204e-05
6.74264e-05
8.49173e-05
8.69136e-05
0.000101995
0.000145972
0.000195896
0.000218911
0.000198998
0.000247671
0.00046107
0.000476195
0.000471601
0.000447863
0.000241449
0.000198161
0.000219584
0.000195111
0.00014462
0.00010084
8.57854e-05
8.38354e-05
0.000106954
0.000135147
0.000161001
0.000188978
0.000221577
0.000254715
0.000291769
0.000346858
0.000425442
0.000450061
0.000446003
0.000417896
0.000340577
0.000287097
0.000251194
0.000218637
0.000186405
0.000158748
0.00013319
0.000105359
2.86072e-06
3.90743e-06
4.55313e-06
5.90716e-06
6.937e-06
7.82467e-06
8.7248e-06
9.83636e-06
1.06956e-05
1.20898e-05
1.19449e-05
1.05928e-05
9.78011e-06
8.68267e-06
7.8034e-06
6.95215e-06
5.9711e-06
4.71344e-06
4.21445e-06
2.85963e-06
5.29713e-06
8.67607e-06
1.06148e-05
1.25765e-05
1.3974e-05
1.4981e-05
1.65246e-05
1.90461e-05
2.138e-05
6.07157e-05
5.99544e-05
2.13138e-05
1.91657e-05
1.65966e-05
1.50172e-05
1.40182e-05
1.26544e-05
1.07838e-05
8.87658e-06
5.40256e-06
6.72541e-06
1.11601e-05
1.44538e-05
1.64081e-05
1.69905e-05
1.70579e-05
1.75955e-05
1.94676e-05
2.7564e-05
0.000130619
0.000128204
2.71615e-05
1.94583e-05
1.76214e-05
1.7084e-05
1.70727e-05
1.65836e-05
1.47254e-05
1.13659e-05
6.81286e-06
7.06873e-06
1.47396e-05
1.87399e-05
2.0327e-05
2.04683e-05
1.98709e-05
1.95696e-05
2.12195e-05
3.97222e-05
0.000220964
0.000216034
3.87064e-05
2.10375e-05
1.94982e-05
1.98406e-05
2.05258e-05
2.04842e-05
1.8958e-05
1.49315e-05
6.89991e-06
1.08624e-05
1.49072e-05
1.87749e-05
2.12207e-05
2.24424e-05
2.25166e-05
2.23573e-05
2.45346e-05
6.15522e-05
0.000337375
0.000329147
5.93253e-05
2.41444e-05
2.21585e-05
2.23251e-05
2.22377e-05
2.10199e-05
1.85721e-05
1.489e-05
1.12808e-05
3.28281e-05
2.33853e-05
2.03176e-05
2.07509e-05
2.2166e-05
2.33513e-05
2.43889e-05
2.83506e-05
8.3699e-05
0.000448508
0.000436837
7.99448e-05
2.76649e-05
2.40042e-05
2.30151e-05
2.19112e-05
2.06659e-05
2.051e-05
2.40503e-05
3.40276e-05
5.4699e-05
3.74119e-05
2.71939e-05
2.51731e-05
2.72886e-05
3.08537e-05
3.46447e-05
4.22809e-05
0.000108818
0.000517984
0.000504268
0.000104196
4.1194e-05
3.40987e-05
3.05453e-05
2.71999e-05
2.52515e-05
2.73884e-05
3.76983e-05
5.46684e-05
7.3152e-05
6.76143e-05
4.91667e-05
5.13168e-05
6.23778e-05
7.26879e-05
7.63212e-05
7.42524e-05
0.000132214
0.000517839
0.000504037
0.000127551
7.38331e-05
7.64338e-05
7.27154e-05
6.24651e-05
5.14704e-05
4.93385e-05
6.78861e-05
7.26176e-05
9.14344e-05
0.000102406
0.00013535
0.000188311
0.000251785
0.000292121
0.000288817
0.000234381
0.000246831
0.000457071
0.000447927
0.000240542
0.000235263
0.000291977
0.000292499
0.000251006
0.00018705
0.000134597
0.000101624
9.05013e-05
0.000113617
0.000142372
0.000169461
0.000196855
0.000226935
0.00025616
0.000284935
0.000317081
0.000361632
0.000423766
0.00041792
0.000356053
0.000312676
0.000281524
0.000253285
0.000224417
0.000194617
0.000167475
0.00014066
0.000112245
2.85766e-06
4.32216e-06
5.53677e-06
6.99245e-06
7.96039e-06
8.56342e-06
8.96351e-06
9.37818e-06
9.93432e-06
1.11546e-05
1.10023e-05
9.78055e-06
9.25961e-06
8.86953e-06
8.50491e-06
7.9569e-06
7.06525e-06
5.67747e-06
4.42227e-06
2.91462e-06
5.25554e-06
9.64932e-06
1.2128e-05
1.38571e-05
1.4606e-05
1.49201e-05
1.53283e-05
1.65367e-05
1.94539e-05
2.35863e-05
2.329e-05
1.91763e-05
1.63849e-05
1.52007e-05
1.48272e-05
1.45751e-05
1.39109e-05
1.22737e-05
9.84857e-06
5.3699e-06
6.24965e-06
1.5415e-05
1.9069e-05
1.99445e-05
1.9432e-05
1.83372e-05
1.74509e-05
1.76908e-05
1.9869e-05
2.6091e-05
2.5554e-05
1.94676e-05
1.75088e-05