/*--------------------------------*- C++ -*----------------------------------*\
| =========                 |                                                 |
| \\      /  F ield         | OpenFOAM: The Open Source CFD Toolbox           |
|  \\    /   O peration     | Version:  v1912                                 |
|   \\  /    A nd           | Website:  www.openfoam.com                      |
|    \\/     M anipulation  |                                                 |
\*---------------------------------------------------------------------------*/
FoamFile
{
    version     2.0;
    format      ascii;
    class       volScalarField;
    location    "500";
    object      nut;
}
// * * * * * * * * * * * * * * * * * * * * * * * * * * * * * * * * * * * * * //

dimensions      [0 2 -1 0 0 0 0];


internalField   nonuniform List<scalar> 
4000
(
0.000364479
0.00033463
0.000286273
0.000137604
0.000115756
0.00010576
9.75803e-05
9.39468e-05
8.13597e-05
0.000162612
7.93503e-05
9.68129e-05
9.68823e-05
9.95248e-05
0.000106879
0.000115707
0.000141484
0.000305722
0.000345259
0.000371562
0.000390782
0.000363853
0.000315452
0.000269329
0.000231148
0.000139384
0.000128761
0.000125816
0.000122326
0.000152703
0.000113159
0.000125785
0.000128079
0.000131222
0.000142604
0.000236733
0.000275107
0.000325392
0.000369937
0.000395794
0.000406998
0.000387755
0.000352349
0.000312219
0.000273824
0.000230984
0.000168278
0.000142559
0.000146498
0.000154371
0.00015026
0.000144886
0.000139892
0.000177526
0.000235688
0.000277216
0.000314404
0.000354718
0.000391412
0.000410932
0.000417122
0.000404037
0.000373291
0.000331376
0.000288413
0.000251042
0.000211259
0.000170572
0.000152965
0.000164656
0.00016368
0.000149481
0.000177885
0.000217251
0.000255837
0.000292165
0.000335383
0.000375935
0.000407003
0.000420492
0.000424772
0.000418803
0.000398913
0.000365936
0.000324751
0.000284128
0.000248445
0.000210966
0.000183153
0.000162969
0.00016231
0.000185065
0.000219233
0.000256622
0.000291629
0.000331986
0.000371238
0.000402057
0.000421628
0.000427838
0.000431592
0.000433305
0.000425658
0.000411407
0.000394744
0.000377006
0.000358271
0.000337182
0.000313898
0.000295704
0.000301007
0.000322114
0.000344014
0.000364263
0.000382478
0.000399543
0.000415433
0.00042901
0.000436377
0.000434476
0.00043889
0.000449175
0.000453539
0.000453229
0.000450581
0.000445301
0.000437291
0.000426327
0.000413116
0.000397211
0.000398982
0.000415316
0.000429058
0.000440312
0.000448566
0.000453963
0.000456605
0.000456774
0.000452279
0.00044163
0.000447292
0.000466321
0.000480933
0.000490624
0.000496909
0.00049924
0.0004975
0.00049119
0.000480065
0.000462364
0.000462762
0.000480171
0.00049204
0.000498981
0.000501289
0.00049941
0.00049346
0.000483934
0.000469345
0.000449877
0.000457836
0.000486838
0.000510463
0.000527966
0.000540898
0.000548674
0.000551253
0.000548025
0.000537809
0.000517683
0.000517206
0.000536764
0.000547927
0.000552026
0.00055016
0.000542941
0.000530453
0.000513227
0.000489678
0.000460253
0.000472845
0.000511156
0.000541884
0.000564481
0.000581839
0.000594362
0.000602227
0.000604706
0.000599901
0.00058159
0.000580415
0.000598298
0.000603985
0.000602316
0.000595136
0.000583197
0.000566335
0.000544121
0.000513601
0.000475038
0.000334653
0.000309264
0.000263316
0.000161083
0.000157551
0.000147696
0.000120723
0.000121685
0.000151583
6.50191e-05
0.000189553
0.000113028
0.000112987
0.000125981
0.000151776
0.000155103
0.000164355
0.000289517
0.000324291
0.000347192
0.000363896
0.000486158
0.000386281
0.000344359
0.000354774
0.00030867
0.000280199
0.000306127
0.000350621
0.00037758
0.000375245
0.000334716
0.000298033
0.000289581
0.000323496
0.000360438
0.000357315
0.000416308
0.000532505
0.000372973
0.000387797
0.000601931
0.000569823
0.0004748
0.000414235
0.000376012
0.000349529
0.000338534
0.000371128
0.000426994
0.000413943
0.000355755
0.00034231
0.000356843
0.000385727
0.000426371
0.000494581
0.00059883
0.000620474
0.000394286
0.000404073
0.000587672
0.000595164
0.000523329
0.000444197
0.000387276
0.000347844
0.000329524
0.000361675
0.000423809
0.000413872
0.000348157
0.000327988
0.000354619
0.000397797
0.000457371
0.000540064
0.00061329
0.000600019
0.000409371
0.000418829
0.000596349
0.000610527
0.000547374
0.000455701
0.000388534
0.000340701
0.000307224
0.000301768
0.000363814
0.000361364
0.000297537
0.000308126
0.000345635
0.000394577
0.000461855
0.000553906
0.000620113
0.000606345
0.000423323
0.000433318
0.000616901
0.000644445
0.000602893
0.000518963
0.000435037
0.00037987
0.000335584
0.000306003
0.000304571
0.00030531
0.000306628
0.000337694
0.000383241
0.00043843
0.000525056
0.000609517
0.000652469
0.000625891
0.000437222
0.000449177
0.000636612
0.000678614
0.000674622
0.000638354
0.000570177
0.000484498
0.000422144
0.000383523
0.000364692
0.000367367
0.000386887
0.000425552
0.000491538
0.000577806
0.0006451
0.000682108
0.00068659
0.000645215
0.000452445
0.000466317
0.000649422
0.000706083
0.000745633
0.000772649
0.000772954
0.000745893
0.000684798
0.000610461
0.000538618
0.000543808
0.000616463
0.000692115
0.000750648
0.000779067
0.000780349
0.000754234
0.000713921
0.000657587
0.00046909
0.000486832
0.000640923
0.000722124
0.000784235
0.000829147
0.000846191
0.000836972
0.000800935
0.000733883
0.000638825
0.000638677
0.000730612
0.000800775
0.000839312
0.000850481
0.000834718
0.000790933
0.000728862
0.000647064
0.000489302
0.000511146
0.000554396
0.00059052
0.000618518
0.000641157
0.000658491
0.000670321
0.000675502
0.000671777
0.000654236
0.000652421
0.000669708
0.000674322
0.000669991
0.000658896
0.000642193
0.000620093
0.000592488
0.000556538
0.000513008
0.000286341
0.00026338
0.000177879
0.000173779
0.000185864
0.000172609
0.000143114
0.000123152
0.000115137
0.000149342
8.44932e-05
0.000140425
0.000130785
0.00014776
0.0001795
0.000185609
0.000173555
0.000251357
0.000291633
0.00030954
0.000315525
0.0003863
0.000372494
0.000395352
0.000413438
0.000372179
0.000337801
0.000348438
0.000397407
0.000449631
0.00042534
0.000380318
0.000345929
0.000349965
0.000383594
0.000406309
0.000373994
0.000368065
0.000418434
0.000330079
0.000352415
0.000569912
0.000557012
0.00050424
0.000467009
0.000443773
0.000424282
0.000407017
0.000432373
0.000493974
0.000476652
0.000415044
0.000408769
0.000431574
0.000450513
0.000474108
0.000515091
0.000579314
0.00060658
0.000359338
0.000373359
0.000595249
0.000632421
0.000578991
0.000512638
0.00046273
0.000429944
0.000421533
0.00044596
0.000497259
0.00048594
0.000438771
0.000420416
0.000438644
0.000476534
0.000531231
0.000604006
0.000663829
0.000618794
0.000380422
0.000398958
0.000610621
0.00066007
0.000618513
0.000535065
0.000467234
0.000419813
0.000393235
0.000405373
0.000488713
0.000483671
0.000399089
0.00039324
0.000425122
0.000474458
0.000542826
0.000627399
0.000674263
0.000626492
0.000405138
0.000425686
0.000644535
0.000707585
0.000673098
0.000574579
0.000483957
0.000419767
0.000373063
0.00034721
0.000359595
0.000356695
0.000342747
0.000371761
0.000420934
0.000486228
0.000579749
0.000681729
0.000720136
0.000658372
0.000430765
0.000453548
0.000678697
0.000761712
0.000753617
0.000669193
0.000570612
0.000484219
0.000417074
0.000368901
0.000347628
0.000346921
0.000367146
0.000416254
0.000485655
0.00057381
0.000675234
0.000763741
0.000774767
0.000691859
0.000457416
0.000480931
0.000706153
0.000824607
0.000878261
0.000870182
0.000809855
0.000740552
0.000660253
0.000574827
0.000494591
0.000493513
0.000574078
0.000661426
0.000742665
0.000814865
0.000878355
0.000889724
0.000837853
0.000718417
0.000483939
0.000510458
0.000722169
0.000912444
0.00107841
0.00118843
0.00122827
0.00122011
0.00116943
0.00106478
0.000895355
0.000894016
0.00105841
0.0011675
0.00122137
0.00123234
0.00119486
0.00108844
0.000923547
0.000731822
0.000512993
0.000541873
0.000590517
0.000631515
0.000664364
0.000691627
0.00071317
0.000728417
0.000735922
0.000733161
0.000714523
0.000712085
0.000730627
0.000734283
0.000727621
0.00071312
0.000692238
0.00066557
0.000633155
0.000592359
0.000543496
0.00013767
0.000161347
0.000174059
0.000192061
0.00019412
0.000178479
0.000157668
0.000142469
0.000131997
0.000133725
0.000130196
0.000137015
0.00014874
0.000164168
0.00018401
0.000197056
0.000189205
0.00017434
0.000168306
0.000173165
0.000269409
0.000344359
0.000395338
0.000430062
0.000433245
0.000398539
0.000377337
0.000389575
0.000435791
0.000494951
0.000474459
0.000418072
0.000389473
0.000385847
0.000405231
0.000429456
0.000413478
0.000374124
0.000357443
0.000277968
0.00031229
0.000474872
0.000504256
0.000496391
0.000484805
0.000482078
0.00046543
0.000448656
0.00047968
0.000546682
0.000525919
0.000463799
0.000449171
0.000471645
0.000487026
0.000491272
0.000503546
0.000517336
0.000501195
0.000318859
0.000331475
0.000523476
0.000579058
0.000561485
0.00052594
0.000497493
0.000479436
0.000478644
0.000503019
0.000556407
0.00054243
0.000491337
0.000477959
0.000488233
0.000512148
0.00054614
0.000586976
0.000609268
0.000550484
0.000341039
0.000366014
0.000547573
0.000618639
0.000606877
0.000557374
0.000508992
0.000473188
0.000457075
0.000482577
0.000564063
0.000554757
0.000473934
0.000457893
0.00048061
0.000519731
0.000570067
0.000620999
0.000635219
0.000566221
0.000375514
0.000411443
0.000603088
0.000673255
0.000662922
0.000599393
0.000528969
0.000472532
0.000431979
0.000414667
0.000441555
0.000437849
0.00041016
0.00043212
0.000476443
0.000535739
0.000610184
0.000678472
0.000691677
0.000621802
0.00041773
0.00045324
0.000674772
0.000753774
0.000755258
0.000696235
0.00061267
0.000535321
0.000470453
0.000418918
0.000396436
0.000393431
0.000415291
0.000470021
0.000538292
0.000619356
0.000708318
0.000771716
0.000773883
0.00069203
0.000457499
0.000490624
0.000745716
0.000878371
0.000941317
0.000937003
0.000880047
0.000809018
0.000725761
0.00062971
0.000535691
0.000530972
0.000626695
0.000726185
0.000812153
0.00088718
0.000950485
0.000960981
0.00089754
0.000760369
0.000493643
0.000527962
0.000784306
0.00107848
0.00135306
0.00150357
0.00153472
0.00152388
0.0014543
0.00131049
0.00110367
0.00109342
0.00130575
0.00145277
0.00152425
0.00153771
0.00151085
0.00136737
0.00109359
0.000796033
0.000530393
0.00056447
0.000618514
0.000664363
0.000702241
0.000734676
0.000761467
0.000780997
0.00079157
0.000790506
0.000774937
0.000771487
0.000787456
0.000789429
0.0007797
0.000760937
0.000734854
0.000703047
0.000665605
0.000619972
0.00056579
0.000115743
0.00015834
0.000186241
0.000194142
0.000191741
0.000179081
0.000165145
0.000152502
0.000144196
0.000144228
0.000143788
0.000147639
0.00015845
0.000170938
0.000183707
0.000194977
0.000197567
0.000186461
0.000155832
0.000119498
0.000231253
0.000354717
0.000413348
0.000433211
0.000426569
0.000409789
0.000404583
0.000423413
0.000480879
0.000552804
0.000527275
0.000455612
0.000418561
0.000410722
0.000417608
0.000428531
0.000430481
0.000406587
0.000360491
0.000241132
0.000273882
0.000414236
0.000466982
0.000484778
0.00049568
0.000499146
0.00048123
0.00047338
0.000521017
0.000597459
0.00057298
0.000497766
0.000472619
0.000488841
0.000504895
0.000502417
0.000491751
0.00047586
0.00043023
0.000281654
0.000288471
0.000444272
0.000512676
0.000525942
0.000520027
0.00051245
0.000508657
0.000509953
0.000535534
0.000598293
0.000582439
0.000522631
0.000510123
0.000516543
0.000525978
0.000538237
0.000547757
0.000536079
0.000464858
0.00029643
0.000324823
0.000455852
0.000535186
0.000557417
0.000544217
0.000521581
0.000502527
0.000499775
0.000535172
0.000603815
0.000592369
0.000525106
0.000500765
0.000511217
0.000534352
0.000559338
0.000573364
0.000551305
0.000473122
0.000338198
0.000394775
0.000519191
0.000574802
0.000599501
0.000581977
0.000545062
0.000508198
0.00048201
0.000481038
0.000533495
0.000530407
0.000478759
0.000485377
0.0005163
0.000556842
0.000597255
0.000617324
0.000594074
0.000539161
0.000401959
0.000450591
0.000638532
0.000669467
0.000696409
0.000685629
0.000640759
0.000585986
0.00053425
0.000493283
0.000488944
0.000487558
0.000492709
0.000538099
0.000594484
0.00065437
0.000705088
0.00071988
0.000693719
0.000658066
0.00045496
0.00049691
0.000772748
0.00087043
0.000937178
0.000955498
0.000924146
0.000871374
0.000798701
0.000702173
0.000602741
0.000598055
0.000700493
0.000801312
0.000878343
0.000936238
0.000974781
0.00096292
0.000896508
0.000788912
0.000499747
0.000540896
0.000829229
0.00118856
0.00150367
0.00164905
0.00173593
0.00176201
0.00170632
0.00154426
0.00129019
0.00127764
0.00153341
0.00170108
0.00176165
0.00173888
0.00165751
0.00151832
0.00120437
0.000841501
0.000543072
0.000581831
0.000641153
0.000691626
0.000734676
0.000774038
0.000806393
0.000830914
0.000845984
0.000849219
0.000839506
0.000835393
0.000845476
0.000843246
0.000829057
0.000805324
0.000773744
0.000734995
0.000692365
0.000642135
0.000582773
0.000105742
0.000149321
0.000172114
0.000178466
0.000179045
0.000173909
0.000166262
0.000158211
0.000153534
0.000156253
0.000155788
0.000156899
0.000164284
0.000172619
0.000179714
0.000184554
0.00018588
0.000181607
0.000154592
0.000110073
0.000139884
0.00030898
0.000372196
0.00039843
0.000409732
0.000414157
0.000422698
0.000448295
0.000512468
0.000588077
0.000561315
0.000484811
0.000441679
0.000427715
0.000423079
0.000418881
0.000407903
0.000387673
0.000329889
0.000152013
0.00023089
0.000376022
0.000443707
0.000482019
0.000499126
0.000496064
0.000482429
0.000487995
0.000544611
0.000615008
0.00059143
0.000519426
0.000485681
0.000491514
0.000505108
0.000506104
0.000488274
0.000451675
0.000388441
0.000239989
0.000251039
0.000387298
0.000462723
0.000497472
0.000512438
0.000519833
0.000520179
0.000519759
0.000550882
0.000603693
0.000590395
0.000538399
0.000521504
0.000528106
0.000531115
0.000527025
0.000514187
0.000480132
0.000402768
0.000259735
0.000284123
0.000388593
0.000467292
0.000509017
0.000521585
0.000520152
0.000516685
0.000525648
0.000562785
0.000615101
0.000607221
0.000553842
0.000526094
0.000524793
0.000532352
0.00053564
0.000523116
0.000480304
0.000401037
0.000296295
0.000377016
0.000435141
0.000484101
0.000529071
0.0005451
0.000538516
0.000523952
0.000516126
0.000534878
0.000597539
0.000595572
0.000533826
0.000521207
0.000533998
0.000551688
0.00055978
0.000543267
0.000496898
0.000447531
0.000384768
0.000445304
0.000570344
0.000570847
0.000612877
0.000640855
0.000634929
0.000608437
0.000577981
0.000559783
0.000584236
0.00058609
0.000563386
0.000585904
0.000621003
0.000651892
0.000661236
0.000634037
0.000591126
0.000591763
0.000449562
0.000499242
0.00077306
0.000810091
0.000880269
0.000924247
0.000928504
0.000904225
0.000848018
0.000756446
0.000659003
0.000656802
0.000757651
0.000853459
0.000914063
0.000943368
0.000944378
0.000904043
0.00083321
0.000789825
0.000501756
0.000548675
0.000846274
0.0012284
0.00153481
0.00173597
0.00186757
0.00191679
0.00185408
0.00164548
0.00131429
0.0013039
0.00163493
0.00184897
0.00191527
0.00186896
0.00174302
0.00154738
0.00124427
0.000858362
0.00055046
0.000594358
0.000658489
0.000713169
0.000761468
0.000806395
0.000844055
0.000873613
0.000893591
0.000902374
0.000900281
0.00089569
0.000898274
0.000890483
0.000871301
0.000842432
0.000805521
0.000761238
0.000713348
0.000658918
0.000594842
9.81499e-05
0.000123069
0.00014013
0.000157726
0.00016523
0.000166292
0.000164358
0.000162011
0.000162681
0.000171086
0.00016998
0.000165763
0.000168077
0.000171168
0.000173062
0.000172138
0.000166427
0.000151862
0.00013023
0.000101934
0.000130641
0.000280817
0.000338716
0.000377498
0.000404592
0.000422714
0.00044098
0.000475503
0.000539934
0.000603413
0.000581867
0.000514442
0.000466699
0.000443288
0.000429421
0.000413504
0.000389911
0.000356145
0.00029793
0.000133895
0.000168524
0.000349949
0.000424536
0.000465546
0.000481286
0.000482456
0.000483251
0.000503885
0.000552374
0.000561616
0.000551584
0.000532975
0.000498927
0.000490376
0.000493736
0.00049268
0.000476242
0.000435837
0.000360605
0.000185883
0.00021122
0.000348028
0.000430078
0.000479504
0.000508694
0.000520202
0.000518544
0.000522809
0.000546913
0.000513828
0.000516921
0.000540198
0.000524491
0.000527133
0.000530213
0.000519516
0.000491399
0.000442098
0.000358308
0.000221045
0.000248444
0.000340801
0.000419903
0.000473239
0.00050255
0.000516695
0.00052559
0.000540652
0.000563902
0.000514137
0.00052219
0.000560233
0.000540612
0.00053137
0.000526013
0.000513277
0.000483612
0.000429026
0.000349765
0.000260639
0.000358298
0.000379955
0.000419881
0.000472626
0.00050825
0.00052397
0.000529465
0.000539097
0.000561912
0.000531842
0.00053923
0.000562648
0.000543525
0.000538401
0.000535268
0.00051959
0.00048211
0.000427615
0.000388633
0.000366227
0.000437293
0.000484596
0.000484379
0.000535494
0.000586106
0.000608488
0.000607704
0.000601543
0.000606764
0.000599408
0.000607135
0.000613098
0.000610832
0.000620837
0.000624388
0.000602807
0.000550606
0.000497888
0.00050105
0.000441182
0.000497505
0.00074599
0.000740715
0.000809195
0.000871498
0.00090428
0.000901655
0.000855406
0.000767659
0.000668251
0.000669896
0.000771676
0.000862868
0.000912338
0.000918339
0.000888529
0.000827661
0.000758524
0.000762389
0.000499528
0.00055126
0.000837047
0.00122022
0.00152394
0.00176205
0.0019168
0.00196457
0.00186029
0.00155611
0.0010648
0.0010649
0.0015466
0.0018596
0.00196577
0.00191872
0.00176778
0.00153426
0.00123394
0.000847687
0.000552462
0.00060223
0.000670324
0.00072842
0.000781
0.000830916
0.000873613
0.000908386
0.000934359
0.000951839
0.000963883
0.00095866
0.000947403
0.000930958
0.000905723
0.00087155
0.000829476
0.000780147
0.000727929
0.000670093
0.000602167
9.7632e-05
0.000103159
0.000132384
0.000143021
0.000152905
0.000158359
0.000162051
0.000166554
0.000173679
0.000187073
0.000185425
0.000176036
0.000171914
0.000168438
0.000165054
0.000159891
0.0001509
0.000132693
0.000116434
9.99388e-05
0.000131425
0.000305296
0.00034968
0.000390021
0.000423507
0.00044834
0.000475526
0.000511878
0.00053714
0.000466819
0.000451949
0.000520149
0.000501344
0.000470708
0.000447151
0.000424654
0.000395688
0.000351751
0.000302013
0.000132708
0.000143796
0.000338352
0.000407221
0.000448767
0.000473432
0.000488028
0.000503905
0.000523891
0.000485069
0.000328605
0.000322048
0.000484304
0.00051977
0.000503362
0.000491856
0.000479896
0.000457123
0.000416161
0.000346972
0.000142949
0.000170665
0.000329438
0.000421601
0.000478718
0.00051001
0.000519792
0.000522823
0.000523792
0.00044019
0.000303858
0.000297197
0.000452247
0.000527992
0.000528276
0.000527173
0.00051677
0.000484205
0.000425157
0.000330416
0.000183103
0.000210752
0.000307189
0.000393276
0.000457119
0.000499802
0.000525663
0.000540659
0.000542154
0.000435542
0.000357376
0.00033795
0.000448376
0.000545804
0.000543433
0.00052959
0.000504222
0.000461196
0.000396257
0.000311016
0.000223784
0.000337211
0.000335595
0.000373134
0.000432055
0.000482059
0.000516145
0.000539099
0.000549335
0.000446303
0.000425665
0.000405842
0.00045699
0.000554054
0.000544665
0.000523037
0.000488324
0.000436312
0.000376349
0.000341355
0.000345368
0.000426318
0.000422148
0.000417148
0.000470574
0.000534357
0.000578044
0.000601565
0.000617902
0.000558203
0.000519235
0.000508572
0.000570996
0.000626928
0.000612582
0.000590327
0.000545794
0.000479482
0.000424194
0.000430275
0.00042968
0.0004912
0.000684829
0.000660345
0.000725889
0.000798819
0.000848097
0.000855449
0.00081246
0.000723988
0.000646689
0.000640447
0.000731346
0.000822143
0.000866789
0.000860876
0.000812694
0.000740165
0.000675059
0.000702917
0.000492605
0.000548044
0.000801025
0.00116954
0.00145432
0.00170638
0.00185415
0.00186033
0.00165431
0.00123196
0.00103823
0.00102556
0.00123984
0.00166386
0.00186693
0.00185905
0.00171245
0.00146436
0.00118178
0.000810002
0.000548498
0.000604724
0.000675519
0.000735935
0.00079158
0.000845991
0.000893593
0.000934356
0.000969436
0.00100441
0.00105232
0.00104534
0.000999433
0.000965557
0.000931154
0.000890925
0.000843829
0.000789958
0.000734619
0.000674465
0.000603979
0.000120634
8.19062e-05
0.000125478
0.000134639
0.000144838
0.000153798
0.000162785
0.000173711
0.000181869
0.000194852
0.000193699
0.000183597
0.000176954
0.000166929
0.000158359
0.000149787
0.000140301
0.000142069
8.69067e-05
0.000111197
0.000137263
0.000346257
0.000398098
0.000436426
0.000481202
0.000512689
0.000540061
0.000537191
0.000410654
0.000458864
0.000444477
0.000402294
0.000528434
0.000526885
0.000498217
0.000468746
0.000429185
0.000389233
0.000338091
0.000134278
0.000147185
0.000371393
0.000432704
0.000479968
0.000521216
0.000544758
0.00055247
0.000485108
0.000306716
0.000573786
0.000548063
0.000303847
0.000491664
0.00054622
0.000533895
0.000511876
0.000475839
0.000424842
0.000361587
0.000147599
0.000153088
0.000361832
0.000446119
0.000503186
0.000535655
0.000550968
0.00054697
0.000440218
0.000317014
0.000796433
0.000759375
0.000307012
0.000457575
0.000550358
0.000549444
0.000533811
0.000502013
0.000447591
0.000351211
0.000149441
0.000183111
0.000301825
0.000405451
0.000482661
0.00053524
0.000562836
0.00056394
0.000435569
0.000398495
0.00108006
0.00102897
0.000373836
0.000452644
0.000567814
0.000561409
0.000531522
0.0004782
0.000400237
0.000297653
0.000188861
0.000313903
0.000306011
0.000347288
0.000414752
0.000481092
0.000534894
0.000561912
0.000446313
0.000484046
0.00134941
0.00128626
0.000449151
0.000459362
0.000565514
0.000535567
0.000480327
0.00041239
0.000345393
0.000308944
0.000323546
0.000413118
0.00038346
0.000368922
0.000419016
0.000493389
0.000559849
0.00060679
0.000558225
0.000596016
0.00152782
0.00146043
0.000566463
0.00057176
0.000614631
0.000566768
0.000498629
0.000422133
0.000371961
0.000388887
0.000415667
0.00048009
0.00061042
0.000574892
0.000629853
0.000702333
0.000756584
0.000767755
0.000724055
0.000750595
0.00160162
0.00153838
0.000729633
0.000735148
0.000779084
0.00076781
0.000713009
0.000639656
0.000585198
0.000624309
0.000480572
0.000537854
0.000734048
0.00106501
0.00131072
0.00154449
0.00164575
0.00155637
0.00123222
0.00110465
0.00153015
0.00148832
0.0010854
0.00124961
0.00156921
0.00165393
0.00154994
0.00131767
0.00107344
0.000739551
0.000537233
0.000599947
0.000671821
0.000733199
0.000790538
0.000849243
0.000902384
0.00095183
0.00100439
0.00107481
0.00116564
0.00115777
0.0010674
0.000998913
0.000947385
0.000898579
0.000845897
0.000787719
0.000730688
0.000669625
0.000598273
6.91442e-05
0.000212736
9.90983e-05
0.000129595
0.000143895
0.000156439
0.00017122
0.000187132
0.000194873
0.000201935
0.00020148
0.000195259
0.000187563
0.000172136
0.000157903
0.000146057
0.000132137
9.20017e-05
0.000208408
7.42695e-05
0.000115586
0.000391067
0.00044329
0.000494801
0.000552877
0.000588167
0.000603497
0.000466933
0.000458922
0.000301859
0.000299252
0.000452338
0.00046434
0.000596108
0.000575934
0.000541964
0.000486001
0.000433969
0.000381708
0.000116309
0.00015208
0.000427456
0.000493844
0.00054681
0.000597617
0.000615135
0.000561741
0.000328692
0.000573801
0.000440566
0.000435911
0.000556937
0.000330243
0.000564759
0.000606243
0.00058805
0.000537808
0.000484498
0.000417926
0.000153044
0.000164779
0.000423998
0.000497418
0.000556592
0.000598452
0.000603824
0.000513974
0.000303911
0.000796367
0.000589568
0.000584847
0.000767585
0.000302846
0.000525452
0.00060087
0.000593275
0.000551719
0.000493008
0.000418167
0.000165939
0.00016291
0.000363798
0.000488833
0.000564225
0.000603943
0.000615223
0.000514299
0.000357312
0.00107987
0.000760658
0.000757633
0.00103533
0.000343895
0.000527404
0.000613312
0.000598135
0.000558712
0.000478596
0.000343029
0.000165593
0.000296388
0.000304863
0.000359742
0.000441639
0.00053353
0.000597571
0.000531957
0.000425468
0.00134902
0.000948877
0.000948925
0.0012887
0.000407085
0.000539624
0.000591825
0.000523687
0.000431015
0.00035249
0.000303715
0.000305455
0.000397246
0.000364696
0.000347665
0.00039652
0.000489016
0.000584265
0.000599477
0.000518991
0.00152725
0.00113574
0.00114054
0.00145911
0.000505886
0.000606524
0.0005837
0.000486414
0.000393906
0.000347987
0.000368645
0.000398947
0.000462402
0.000538655
0.00049474
0.000535901
0.000602954
0.000659182
0.000668396
0.000646536
0.0016009
0.00127225
0.00128145
0.00153265
0.000639865
0.000677578
0.0006661
0.000607835
0.000539921
0.000500151
0.000547881
0.000461613
0.000517749
0.000639087
0.000895838
0.00110426
0.00129078
0.00131492
0.00106541
0.00103804
0.00152961
0.00137197
0.0013789
0.00148038
0.00102202
0.00107746
0.00132375
0.00129183
0.00110331
0.000896463
0.000638695
0.000515516
0.000581671
0.000654316
0.000714604
0.000775015
0.000839563
0.000900306
0.000963859
0.00105223
0.00116553
0.00118297
0.00119048
0.00115555
0.00104295
0.000956814
0.000894632
0.000834558
0.000770488
0.000710574
0.000650669
0.000578536
0.000126009
6.91697e-05
0.000172415
0.000133321
0.000144071
0.0001558
0.000170031
0.000185471
0.000193733
0.000201478
0.00020106
0.000194041
0.000186199
0.000170746
0.000156536
0.000144837
0.000133983
0.000165612
7.0315e-05
0.00014083
0.000150423
0.000365589
0.000434006
0.000473867
0.000527278
0.000561293
0.000581946
0.000452039
0.000444483
0.000299241
0.000300116
0.000449843
0.000461166
0.000590227
0.00056915
0.000535431
0.000480086
0.000437021
0.000367693
0.000153019
0.000154297
0.000413726
0.000476629
0.000525795
0.000572927
0.000591431
0.000551827
0.000322212
0.000547941
0.000435884
0.000436311
0.000549202
0.000326568
0.000559009
0.000597516
0.000579185
0.000530233
0.000478246
0.000412998
0.000156012
0.000163672
0.000413703
0.000485894
0.000542433
0.000582489
0.000590504
0.000517296
0.000297302
0.000759027
0.000584831
0.000584091
0.000753466
0.000297213
0.000521025
0.00059201
0.000584008
0.000543521
0.000486095
0.000413234
0.000164814
0.000162515
0.000360981
0.000483562
0.00055475
0.000592415
0.000607348
0.00052258
0.000337854
0.00102826
0.000757654
0.000755315
0.00101366
0.000333513
0.000523531
0.000604238
0.000588384
0.000549708
0.000470308
0.000336558
0.000166141
0.000301224
0.000305356
0.00035665
0.000437778
0.000530388
0.000595649
0.000539545
0.00040565
0.00128519
0.000949009
0.000944827
0.00125978
0.00039389
0.000535364
0.000583507
0.00051565
0.000424231
0.000348169
0.000303699
0.000309689
0.000399083
0.00036751
0.000346976
0.00039343
0.000487578
0.000586177
0.000607355
0.000508492
0.00145923
0.00114072
0.00113511
0.00142617
0.000494667
0.000601923
0.000577812
0.00048086
0.000389862
0.00034727
0.000370932
0.000399713
0.000462822
0.0005441
0.000493644
0.000531014
0.000598052
0.0006568
0.000669964
0.00064035
0.00153723
0.00128175
0.00127568
0.00149927
0.000630942
0.000672096
0.000659656
0.000601171
0.000534801
0.000498541
0.000550853
0.000460998
0.000517248
0.00063885
0.000894291
0.00109362
0.0012776
0.00130384
0.00106515
0.00102536
0.00148753
0.00137919
0.00137169
0.00145819
0.00101114
0.00107448
0.00131633
0.00128052
0.00109256
0.000892854
0.000635899
0.000513932
0.000580441
0.000652425
0.00071207
0.000771436
0.000835304
0.000895574
0.000958519
0.00104514
0.00115754
0.00119057
0.00118537
0.00114725
0.00103564
0.000950817
0.000889357
0.000829731
0.00076615
0.000707053
0.000647671
0.000576099
9.38553e-05
0.000109651
0.000106539
0.000136114
0.000148143
0.000157235
0.00016593
0.000176125
0.000183632
0.000195226
0.000194084
0.000182793
0.000175661
0.000165543
0.00015698
0.000148161
0.00013631
0.00011364
0.000132089
8.33273e-05
0.000132117
0.000333592
0.00037798
0.000418158
0.000455603
0.000484803
0.000514446
0.000520173
0.000402199
0.000452036
0.000450049
0.00040346
0.000523858
0.000518666
0.000489343
0.000460281
0.000422061
0.000381173
0.00033667
0.000129695
0.000146317
0.000355781
0.000414961
0.000463921
0.000497825
0.000519467
0.00053306
0.00048454
0.000303841
0.000556467
0.000549528
0.000302689
0.000487298
0.000536546
0.000523323
0.000502069
0.000467896
0.000417642
0.00035716
0.000147077
0.000149067
0.000348193
0.000438847
0.000491485
0.000522795
0.000538554
0.000540395
0.000452617
0.000306909
0.000766878
0.000753885
0.000302511
0.000453557
0.000540924
0.000539307
0.00052425
0.000493402
0.000439596
0.000346648
0.000147303
0.000185282
0.000297494
0.000399052
0.000473966
0.000525184
0.000553957
0.000560411
0.000448754
0.000373376
0.00103426
0.00101416
0.000364128
0.000448617
0.000557999
0.000550672
0.000521048
0.000469094
0.000393246
0.00029349
0.000188729
0.000322424
0.000306775
0.000342747
0.000410152
0.000478807
0.000533927
0.000562815
0.000457327
0.000448529
0.00128726
0.00126032
0.000434014
0.000456016
0.000557217
0.000527377
0.00047292
0.000405692
0.000340812
0.000309341
0.000328215
0.000415385
0.000387069
0.00036722
0.000415308
0.000492773
0.000563538
0.000613329
0.000571348
0.000565962
0.00145745
0.00142671
0.000549758
0.000567471
0.000607864
0.000560158
0.000491941
0.000416507
0.000369856
0.000390593
0.000415249
0.000480175
0.000616679
0.000574128
0.000626682
0.000700488
0.000757686
0.000771776
0.000731537
0.000729282
0.00153095
0.00149977
0.000715666
0.0007313
0.000772958
0.000760016
0.00070443
0.00063203
0.000580166
0.000623518
0.000478398
0.000536733
0.000730516
0.00105819
0.00130546
0.001533
0.00163446
0.00154613
0.00123992
0.001085
0.00147922
0.00145844
0.00107188
0.00125502
0.00156582
0.00164275
0.00153583
0.00130522
0.00105877
0.000730329
0.00053397
0.000598248
0.000669642
0.000730539
0.000787343
0.00084534
0.000898122
0.000947239
0.00099926
0.00106718
0.00115527
0.0011473
0.00105893
0.000992319
0.000941565
0.000893066
0.000840624
0.000782833
0.000726221
0.000665581
0.000594614
9.35314e-05
0.000119891
0.000132732
0.000148424
0.000158548
0.000164444
0.000168203
0.00017201
0.000176995
0.000187511
0.000186262
0.000175658
0.000170964
0.000167346
0.000163868
0.000158461
0.000149396
0.000133007
0.000121352
9.33238e-05
0.000129282
0.000298734
0.000346965
0.000389788
0.00041873
0.000441778
0.000466716
0.000501219
0.000528059
0.000463967
0.000461495
0.00052409
0.000498879
0.000465571
0.000441583
0.000419385
0.000391086
0.000348063
0.000298623
0.000129179
0.000140765
0.000342826
0.000409208
0.000449503
0.000472903
0.00048589
0.000499026
0.000519739
0.000491563
0.000330051
0.00032675
0.000487467
0.000516898
0.000498046
0.000486478
0.00047501
0.00045283
0.000412438
0.000343741
0.000141929
0.000178223
0.000328094
0.000420616
0.000478212
0.000510398
0.000521763
0.000524681
0.000528083