/*--------------------------------*- C++ -*----------------------------------*\
| =========                 |                                                 |
| \\      /  F ield         | OpenFOAM: The Open Source CFD Toolbox           |
|  \\    /   O peration     | Version:  v1912                                 |
|   \\  /    A nd           | Website:  www.openfoam.com                      |
|    \\/     M anipulation  |                                                 |
\*---------------------------------------------------------------------------*/
FoamFile
{
    version     2.0;
    format      ascii;
    class       surfaceScalarField;
    location    "500";
    object      phi;
}
// * * * * * * * * * * * * * * * * * * * * * * * * * * * * * * * * * * * * * //

dimensions      [0 3 -1 0 0 0 0];
oriented        oriented;


internalField   nonuniform List<scalar> 
11200
(
0.00282035
-0.00565149
0.00281923
0.00259531
-0.00175005
0.00197491
-0.000241341
0.00192389
0.000912356
-0.001318
0.000989186
8.71822e-05
-0.00131768
0.000139842
-0.000140133
-0.000984657
-0.000279425
-5.34792e-05
-0.000698287
-0.000211017
-7.57791e-05
-0.000469141
-0.0001984
-2.97019e-05
-0.000381899
4.5035e-05
-0.000128117
0.000299234
-0.000786762
0.000107056
0.000329858
0.000172631
-0.000203272
0.000582044
-0.000233925
-2.50583e-05
0.000810507
-0.000207182
-2.00161e-05
0.00111551
-0.000219892
-8.33231e-05
0.00143418
-0.000288169
-2.93716e-05
0.00133602
0.000215441
-0.000116632
5.2034e-05
0.00110013
0.000184167
-0.0031361
0.00170442
0.0014837
-0.00310479
-0.0023213
0.00228985
-0.00611668
0.0030117
0.00174176
-0.00913438
0.00174097
0.00301824
-0.00463624
0.00160929
0.00356682
-0.000145603
0.00152066
0.00210528
0.00115837
0.00129239
-0.0001291
0.00139719
0.000977245
-0.00128357
0.000560444
0.000314808
-0.00120982
-0.000157986
-0.000125799
-0.00086843
-0.000293085
-0.000238806
-0.000272686
-0.000247767
-0.000308192
-0.00013369
-0.0004003
-0.000525437
0.000639598
-0.000319916
-0.000290245
0.000984472
-0.000259947
-0.000315538
0.0013032
-0.000297232
-0.000226015
0.00131553
-0.000100522
-0.000130162
5.3091e-05
0.000593778
0.000381521
-0.00222004
0.00145062
0.00103834
-0.00356463
0.00121825
0.00122635
-0.00299793
-0.000260657
0.00139812
-0.00175699
-0.00507213
0.00150961
-0.00958186
0.00170797
0.00109358
-0.0113216
0.00109347
0.00231027
-0.00713793
0.00128476
0.00356674
-0.00278721
0.00138509
0.00335281
0.000157325
0.00121501
0.00227299
0.00144824
0.00102864
0.000532036
0.0014223
0.000878469
-0.000769133
0.000651006
0.000492233
-0.000957353
4.21345e-05
-0.000145004
-0.00050278
-0.000237202
-0.000462773
4.7037e-05
-0.000222895
-0.000731708
0.000659942
-0.000255443
-0.000678982
0.00105307
-0.000252937
-0.000398908
0.000662695
0.000101123
-6.9843e-06
-0.000784998
0.000746505
0.000601335
-0.00246757
0.00140181
0.000874719
-0.00344996
0.00141296
0.00101996
-0.00348885
0.000104836
0.00115212
-0.00213574
-0.00285632
0.00124232
-0.00103439
-0.0073686
0.00119499
-0.01166
0.00104376
0.000581671
-0.0124857
0.000582333
0.00105901
-0.00868075
0.00106552
0.00187655
-0.00486696
0.00126231
0.00244132
-0.00166672
0.00125928
0.00238993
0.000382386
0.0011169
0.00176025
0.0010579
0.000993451
0.00077876
0.000893343
0.000740014
-0.000167275
0.000560467
0.00042535
-0.000366357
0.000203925
-0.000239414
7.84181e-05
0.000127254
-0.000797041
0.000460681
0.000115923
-0.000753799
0.000106948
0.000224161
-0.000122673
-0.000964168
0.000608338
0.000564305
-0.00191144
0.000853467
0.000840277
-0.0025048
0.000936872
0.00105808
-0.00244806
0.000183488
0.00117242
-0.00175736
-0.00188618
0.00129999
-0.000896752
-0.00495982
0.00124274
-0.000505171
-0.00879898
0.00103873
-0.0127352
0.000569996
0.000168095
-0.0128233
0.000169493
-4.46866e-05
-0.00940069
0.000932837
2.91353e-05
-0.00625649
0.00131575
0.000450582
-0.00368538
0.00159705
0.00103729
-0.00184672
0.00164177
0.0014219
-0.000809882
0.00148216
0.0013707
-0.000316827
0.00126121
0.000948152
-3.55946e-06
0.000984882
0.000323607
0.000170757
0.000657341
6.00185e-05
0.000252564
0.000137829
-0.000196807
0.000229474
0.000142937
-0.000793189
0.000106223
0.00071415
-0.00114541
-0.00012963
0.00108983
-0.00116244
-0.000489696
0.00135975
-0.000763401
-0.00103793
0.00157529
-0.000232337
-0.00209334
0.00174532
0.000113101
-0.00389157
0.00165973
0.000177664
-0.00637003
0.00134565
-8.4744e-05
-0.00949116
0.000954646
-0.0130153
0.000195369
-0.000173477
-0.0124781
-0.000171599
-0.000838698
-0.00954778
0.000812416
-0.00128482
-0.00708587
0.00127549
-0.0013716
-0.00522554
0.00162673
-0.0011654
-0.00393441
0.00188105
-0.000807048
-0.00305857
0.00188971
-0.000476605
-0.00241505
0.00176756
-0.000251592
-0.00187094
0.00164186
-0.000104262
-0.00151808
0.00154123
2.33084e-06
-0.00132853
0.00147428
0.000183354
-0.00143156
0.00147973
0.000418249
-0.00169811
0.00156914
0.000705988
-0.00208306
0.00166539
0.00105489
-0.0026263
0.00178735
0.0013879
-0.00327546
0.00190418
0.00154549
-0.00413544
0.00188426
0.00141807
-0.00539258
0.00162831
0.000956365
-0.00720283
0.00129447
0.000259631
-0.00964141
0.00084698
-0.0126337
-0.000121908
-0.000496165
-0.0114878
-0.000494117
-0.00147069
-0.00915868
0.000585437
-0.00216391
-0.00740232
0.00100959
-0.00243115
-0.00621933
0.00126084
-0.00235359
-0.00544465
0.00143241
-0.00202853
-0.00492165
0.00153771
-0.00153826
-0.00450118
0.00159567
-0.000935127
-0.00408333
0.00160913
-0.000347221
-0.00373842
0.0016323
7.44224e-05
-0.00346327
0.00171303
0.000506908
-0.00356223
0.00169813
0.00110045
-0.0038997
0.00160795
0.00170098
-0.00425268
0.00156897
0.00219318
-0.00466309
0.00154446
0.00251185
-0.00508043
0.00148616
0.00257796
-0.00559426
0.00139256
0.00229532
-0.00635144
0.00124135
0.00158844
-0.00750841
0.00101232
0.000580787
-0.00924795
0.000614082
-0.0116168
-0.000436276
-0.000895974
-0.00969785
-0.000893925
-0.00215778
-0.00796207
6.51053e-05
-0.00302067
-0.00687854
0.000338956
-0.00335636
-0.00628517
0.00040133
-0.00324959
-0.0059566
0.000405003
-0.00280138
-0.00576886
0.000398868
-0.00211316
-0.00561305
0.000423591
-0.00128214
-0.0054168
0.000502472
-0.000470044
-0.00519301
0.000642541
9.10452e-05
-0.00492529
0.000901019
0.000645103
-0.00498843
0.000872243
0.00144234
-0.00529054
0.000593703
0.00226524
-0.00551475
0.00043923
0.00295123
-0.00570904
0.00035996
0.00339589
-0.0058642
0.000339063
0.00349647
-0.00604885
0.000353897
0.0031509
-0.00637175
0.00036571
0.00227626
-0.0069558
0.000321847
0.000981134
-0.0080357
8.2704e-05
-0.00979607
-0.000839681
-0.0016018
-0.00649625
-0.00159985
-0.00316226
-0.00540721
-0.000994569
-0.00411452
-0.00496203
-0.000964429
-0.00445557
-0.00484854
-0.00109574
-0.00428126
-0.00484863
-0.0012824
-0.00370962
-0.00490734
-0.00143318
-0.00283581
-0.00496165
-0.00152515
-0.00175495
-0.00496759
-0.00152993
-0.000653231
-0.0049139
-0.00138064
9.72191e-05
-0.00479408
-0.000881432
0.000836358
-0.00482188
-0.000905455
0.00191201
-0.00495348
-0.00141253
0.00298211
-0.00500632
-0.0015784
0.00385351
-0.00500071
-0.00157967
0.00442412
-0.00494746
-0.00148735
0.00459529
-0.00488966
-0.00133045
0.00424714
-0.00488974
-0.00113401
0.00328062
-0.00500292
-0.000986564
0.00168688
-0.0054498
-0.000992357
-0.00655374
-0.00155558
-0.00324906
-0.0032473
-0.00516484
-0.00349162
-0.0060744
-0.00405263
-0.0063315
-0.00459155
-0.00604232
-0.00513785
-0.00530218
-0.00564745
-0.00416038
-0.00610336
-0.00268077
-0.00644706
-0.0010366
-0.0065579
0.000102427
-0.0059329
0.0012196
-0.00593886
0.00283757
-0.00657131
0.00431057
-0.00647922
0.00545324
-0.00614332
0.00619429
-0.00568853
0.00648104
-0.00517647
0.0062155
-0.00462432
0.0052879
-0.00407548
0.00333555
-0.0034976
-0.0032183
0.00197607
-0.00175321
0.0025962
0.00151933
0.000911612
0.00151944
-0.000233993
0.00266899
-3.81845e-06
-0.000792255
0.000664775
-1.94322e-05
-0.000740066
-7.55635e-05
-0.000116166
-0.000520588
-0.000306602
3.41561e-05
-0.000338478
-0.000245229
-1.18983e-05
-0.000184737
-0.000219123
4.49323e-05
-5.73988e-05
-0.000322253
7.63949e-05
1.42494e-05
4.47372e-06
2.62906e-05
0.000201893
-0.000468193
7.2306e-05
0.00029939
-0.000161568
3.32933e-05
0.000436843
-0.000193708
3.81859e-05
0.000638336
-0.000273481
-8.18747e-06
0.000858212
-0.000277423
2.97271e-05
0.000906116
-1.39098e-05
-0.000149964
8.01508e-05
0.000879704
0.000130407
-0.00223256
0.0026235
0.00117273
-0.00238816
0.000222609
0.00222253
-0.00259762
0.00322085
0.00161051
-0.00464102
0.00301782
0.00283132
-0.00153069
0.00283036
0.00332098
0.00093144
0.00276847
0.00218868
0.00119478
0.00189496
0.000620566
0.00120834
0.00126145
-0.000456333
0.000497274
0.000587859
-0.000661178
-0.000123504
-3.88616e-05
-0.000428003
-0.000415074
-0.000275142
-0.000227713
-0.000339944
-0.000486515
7.83302e-05
-0.000302379
-0.000529582
0.000210991
-0.000301382
-0.000588643
0.000473159
-0.000342017
-0.000396735
0.000669864
-0.000424413
-0.000189046
0.000349505
-0.000107591
2.61449e-05
-0.000828847
0.000593488
0.000689803
-0.00239006
0.00131393
0.00127189
-0.00344087
0.00135521
0.00180148
-0.00277198
0.00102726
0.00232521
-0.00159868
-0.00214109
0.0026996
-0.00544302
0.00295431
0.00128553
-0.00714266
0.00230934
0.00277076
-0.00450076
0.0027695
0.00384903
-0.00157229
0.00281059
0.00362627
0.000395615
0.00223692
0.0027571
0.00134345
0.00176226
0.00149328
0.0012693
0.00136926
0.000277364
0.000715407
0.000873043
-0.000305486
-1.50535e-05
3.41006e-05
-0.000206574
-0.000341036
-0.000558946
1.7227e-05
-0.000373707
-0.000884471
0.000228756
-0.000369604
-0.000822661
0.000196039
-0.000307271
-0.000399958
-0.00051727
1.54862e-05
0.000267364
-0.00175371
0.000735672
0.00099486
-0.00297294
0.00125932
0.00142808
-0.00377296
0.00133747
0.00179627
-0.00387704
0.000408601
0.00220262
-0.00263678
-0.00157644
0.00260564
-0.00123947
-0.00489959
0.00255609
-0.00772028
0.00208161
0.00106553
-0.00868501
0.00105916
0.00199212
-0.00635349
0.00199174
0.00286995
-0.00353089
0.00234311
0.00321761
-0.000838784
0.00214583
0.00295998
0.000896121
0.00182129
0.00231906
0.00137026
0.00153222
0.0015328
0.00110069
0.00114183
0.000691582
0.000637225
0.000611849
0.000162816
0.000151829
-0.000204021
1.27897e-05
-0.00010487
-0.000915607
-0.000201011
-8.39306e-05
-0.000825453
-0.00083797
0.000198794
8.47871e-06
-0.0017087
0.000653859
0.000796546
-0.0024908
0.00107494
0.00128284
-0.00311176
0.00129635
0.00164166
-0.00330188
0.000781735
0.00191793
-0.00285728
-0.000945361
0.00220916
-0.0018974
-0.00359768
0.00230405
-0.00102865
-0.0066165
0.00188685
-0.00910393
0.000925051
0.00093209
-0.00940417
-4.33249e-05
0.00135143
-0.00719225
0.00135237
0.00160209
-0.00452393
0.00205805
0.00194832
-0.00185506
0.00226678
0.00222341
9.62008e-05
0.00216596
0.00218621
0.000955259
0.0019334
0.00187758
0.00106054
0.00161
0.00133953
0.000963595
0.0011959
0.000649289
0.000832564
0.000666549
7.37612e-05
0.000693585
-8.53414e-05
-0.000528095
0.000710476
-4.99977e-05
-0.00122985
0.000847482
0.00076688
-0.00175443
0.000950279
0.00131758
-0.00205819
0.00101011
0.00172788
-0.00209747
0.000860219
0.00205025
-0.00184089
-2.07618e-05
0.00229086
-0.00152306
-0.00195619
0.00235256
-0.00127399
-0.00458632
0.0020852
-0.000898826
-0.00738015
0.00134316
-0.00972976
-7.76168e-05
0.00081124
-0.00955033
-0.000836572
0.000857586
-0.00728565
0.000859479
0.000618089
-0.00481585
0.00180675
0.000477452
-0.00240285
0.00231477
0.000613383
-0.000683581
0.00252432
0.000790336
0.000271651
0.00239563
0.000741565
0.000718703
0.00215788
0.000510173
0.000964879
0.0018716
0.000221712
0.00107558
0.00158634
3.49692e-05
0.00106798
0.00128639
-0.000103854
0.00104456
0.00128418
-0.000322582
0.00103228
0.00160272
-0.000509157
0.000906771
0.00189511
-0.000546812
0.000648227
0.0021865
-0.000391685
0.000177345
0.00243153
-0.000314673
-0.000774516
0.00256063
-0.000509257
-0.00247648
0.00234289
-0.00076988
-0.0048654
0.00183401
-0.000768524
-0.0074294
0.000894789
-0.00980984
-0.00081043
0.000584092
-0.00916038
-0.00146815
0.000342668
-0.00680398
0.00034506
-0.000133774
-0.0047056
0.0013755
-0.000426665
-0.00283804
0.00198847
-0.000488913
-0.0015271
0.00233767
-0.000377241
-0.000692734
0.00238994
-0.000254717
-0.000145367
0.00233692
-0.000180253
0.000269514
0.00222988
-9.5713e-05
0.000501553
0.00212164
6.99325e-05
0.000592147
0.00202313
0.000253902
0.000544766
0.00201388
0.000373402
0.000416666
0.00210398
0.000467256
0.000187896
0.00219385
0.000587872
-0.000216853
0.0022887
0.000670434
-0.000765643
0.00234626
0.00057099
-0.00159516
0.00231224
0.000254924
-0.002905
0.00198555
-0.000238427
-0.00475855
0.00139849
-0.000529068
-0.00691382
0.000388889
-0.0093579
-0.00141746
6.36932e-05
-0.007963
-0.00215509
-0.000474957
-0.00572794
-0.000472511
-0.0010788
-0.00418002
0.000416889
-0.00136626
-0.00304057
0.000890917
-0.00139243
-0.00225785
0.00116155
-0.00121095
-0.00171472
0.00123912
-0.000882138
-0.00131026
0.00125956
-0.000504419
-0.000950279
0.00134463
-0.000139975
-0.000682011
0.00146181
9.52106e-05
-0.000368478
0.00162666
0.000333658
-0.000425032
0.00160377
0.000700412
-0.000764163
0.00140791
0.00107111
-0.00101216
0.00126862
0.0013885
-0.00135749
0.00118311
0.00155544
-0.00175923
0.00116547
0.00151452
-0.00230288
0.00110218
0.00120637
-0.00309215
0.000860578
0.000588437
-0.00423582
0.000416615
3.90396e-06
-0.00580751
-0.000439414
-0.00809564
-0.00209822
-0.000995749
-0.00540764
-0.00315964
-0.0019994
-0.00372187
-0.00199726
-0.00272055
-0.00287962
-0.00154401
-0.00300896
-0.00241844
-0.00142975
-0.00290411
-0.00214977
-0.00149551
-0.00252544
-0.00199325
-0.00153334
-0.00196786
-0.00188482
-0.00150807
-0.00131053
-0.00177503
-0.00136229
-0.000620132
-0.00168532
-0.00106745
0.00012438
-0.00147349
-0.000520584
0.000836397
-0.00149076
-0.000551428
0.00150038
-0.00170722
-0.00113325
0.00214489
-0.00179321
-0.00144177
0.00269584
-0.0019013
-0.00158681
0.00306805
-0.00201052
-0.0016084
0.00316286
-0.00216968
-0.00155871
0.00285866
-0.00244293
-0.00147936
0.00211251
-0.00291058
-0.00156599
0.00106333
-0.00376591
-0.00198503
-0.00547718
-0.00311085
-0.00349269
-0.00516243
-0.0053541
-0.00535227
-0.00627837
-0.00600815
-0.00655011
-0.00673836
-0.00631905
-0.00751871
-0.00567682
-0.00828289
-0.00466983
-0.00899508
-0.00332269
-0.00956911
-0.00172627
-0.00983949
0.000111091
-0.00924359
0.00192706
-0.00924548
0.00350605
-0.00985744
0.00484362
-0.00960995
0.00584411
-0.00904511
0.0064798
-0.00833478
0.00670172
-0.00756819
0.0064147
-0.0067804
0.00546506
-0.00603659
0.00356069
-0.00535927
-0.00513485
0.000913575
0.00192272
-0.000240519
-3.45777e-06
0.00266968
-0.000233762
-0.000388169
0.000768821
-0.000387925
-0.000269127
-3.79491e-05
-9.99005e-05
-0.000192196
-0.000241337
4.89099e-05
5.4892e-05
-0.000396599
0.000184489
0.000136019
-0.000286518
0.000197536
0.000120151
-0.000202777
0.000264216
5.71414e-05
-0.000153184
0.000294121
9.81531e-05
-0.000264335
0.000250432
-5.10941e-05
-3.7405e-05
0.000262088
-9.18491e-05
-0.000251598
0.000327055
-0.000103204
-0.000221575
0.000274335
-3.10395e-06
-0.000308845
0.000203136
0.000272224
-0.000411505
0.000167574
0.00042899
-0.000219047
-8.68652e-05
0.000250156
0.000368998
-5.9712e-05
-0.00119799
0.00284657
-0.000225783
-0.00154425
0.00261045
-4.18929e-05
0.00145916
0.000217183
0.00152187
-0.000149453
0.00356782
0.0027696
0.000930795
0.00332137
0.00265241
0.0010025
0.0026523
0.00170317
0.0011036
0.00170321
0.000598261
0.000982946
0.00114203
-8.27892e-05
0.000306781
0.000564252
-0.000237432
-0.000248911
8.62611e-05
-0.000112586
-0.000471664
-0.000128842
-2.10994e-05
-0.000406101
-0.000329147
-5.3474e-05
-0.00032006
-0.000440721
1.89169e-05
-0.000336233
-0.000361457
3.50513e-05
-0.00042999
-0.000232385
0.000132716
-0.000510705
4.57857e-06
-0.000116237
-0.000268616
0.000236445
-0.00087203
0.000343267
0.000691501
-0.00198364
0.00100816
0.00115651
-0.0028908
0.0013043
0.0017734
-0.00240953
0.00180801
0.00288234
-0.00148668
0.000933671
0.00345307
-0.000631057
0.00355732
0.00138596
-0.00279263
0.00356647
0.00281208
-0.00157435
0.00384848
0.00350612
-0.000386035
0.00350511
0.00331038
0.000772412
0.00276388
0.00262002
0.0012926
0.00214283
0.00160562
0.00110434
0.00158509
0.000680359
0.000571552
0.000978929
0.000115538
-0.00011061
0.000238183
-2.24219e-05
-0.000452478
-0.000374724
-3.14317e-05
-0.000484672
-0.000710786
-7.14519e-05
-0.000495421
-0.000622669
-0.000286243
-0.000467413
-0.0001469
-0.000932257
-9.61271e-05
0.000499348
-0.00192051
0.000545862
0.00116886
-0.00291732
0.00103228
0.00173584
-0.00357798
0.00118942
0.00227553
-0.00368541
0.000729921
0.00288434
-0.00270389
-0.000187676
0.00361972
-0.00129897
-0.00175203
0.00383682
-0.00328303
0.00343455
0.00126251
-0.00487149
0.00187554
0.00234402
-0.00353338
0.00286923
0.00314154
-0.00198097
0.00314044
0.0033934
-0.000144131
0.00281029
0.00308885
0.00107078
0.00234729
0.00246843
0.00135492
0.00190128
0.00173215
0.00103839
0.0014115
0.000941303
0.00050598
0.000785789
0.000325769
-3.73065e-05
-3.7925e-06
-3.43052e-05
-0.000386114
-0.000653884
-0.000450724
-0.000368473
-0.000535718
-0.0011357
-9.24298e-06
0.000235381
-0.00194878
0.000505822
0.00100757
-0.00269991
0.000986945
0.00159267
-0.0033251
0.00124017
0.00205871
-0.00360818
0.000892529
0.00249768
-0.00330125
-0.000320798
0.00295279
-0.00234858
-0.00207287
0.00323645
-0.00124338
-0.00378165
0.00281126
-0.00529794
0.00169663
0.00131524
-0.00626005
3.00202e-05
0.00205775
-0.00452656
0.00160293
0.00250302
-0.00287155
0.00250314
0.00281737
-0.000920103
0.00272802
0.00287287
0.000626981
0.00255374
0.00262736
0.0012884
0.00224474
0.00218495
0.00123714
0.00185342
0.00157716
0.000938596
0.00137074
0.000824861
0.000642933
0.000738354
4.38734e-05
0.000370026
-6.0662e-05
-0.000760951
0.000380224
5.83401e-06
-0.0015292
0.000663203
0.000862363
-0.00213593
0.000934559
0.00149523
-0.00258675
0.00119676
0.00196852
-0.00284833
0.00119996
0.00235169
-0.00281498
0.000494148
0.00265556
-0.00252505
-0.00105657
0.00279817
-0.00205783
-0.00298816
0.00253312
-0.00130498
-0.00476386
0.00157242
-0.0066163
-6.43354e-05
0.00127459
-0.00708856
-0.00128269
0.00180544
-0.00481837
0.000620276
0.00189626
-0.00305375
0.00189782
0.00188603
-0.00113683
0.00254124
0.00191036
0.000371757
0.00275462
0.00184781
0.00113312
0.00261284
0.00159426
0.00130761
0.00234056
0.00114962
0.00126974
0.00198479
0.000600776
0.00120268
0.00157516
5.18764e-05
0.00115307
0.00105199
-0.000470037
0.00114666
0.00103937
-0.000974797
0.00119162
0.00157876
-0.00139025
0.00124644
0.00199834
-0.00164126
0.00127302
0.00236087
-0.00172923
0.00108027
0.00263877
-0.00176465
0.000307596
0.00278214
-0.00182733
-0.00120968
0.0025583
-0.00174987
-0.00315406
0.00192215
-0.0012378
-0.00502611
0.000644743
-0.00737722
-0.00128752
0.00100863
-0.00740406
-0.00216136
0.00137352
-0.00470736
-0.000131121
0.00128987
-0.00288732
0.00129234
0.00110753
-0.00112201
0.00215543
0.000975931
0.000219331
0.00262111
0.000896982
0.000913081
0.00268842
0.000759487
0.00117898
0.00260272
0.000521903
0.0012958
0.00244123
0.000259779
0.00133937
0.00224693
6.38877e-05
0.00137857
0.0019934
-0.000105508
0.00136019
0.00196958
-0.000324119
0.00130511
0.0022089
-0.000536581
0.00126296
0.00238953
-0.000671902
0.00115047
0.00254623
-0.000775286
0.000886695
0.00264278
-0.000948901
0.000197072
0.00259584
-0.00117086
-0.00115861
0.00215588
-0.00127823
-0.00296681
0.00131813
-0.000955397
-0.00486829
-9.21405e-05
-0.00761935
-0.00213096
0.000338176
-0.00687955
-0.00301793
0.000414862
-0.00418074
-0.00107615
0.000246772
-0.00255238
0.000249528
0.000124732
-0.00119667
0.00108699
0.000129817
-0.00018445
0.00155968
0.00018951
0.000350898
0.00174125
0.000231577
0.000618878
0.00177741
0.00024983
0.000811931
0.0018102
0.000237327
0.000945024
0.00186866
8.83612e-05
0.00122524
0.00192894
-5.56276e-05
0.00119902
0.0019089
-5.23517e-05
0.000895231
0.00181443
-2.99564e-05
0.000773229
0.0017358
1.0432e-05
0.000595615
0.00169732
6.00678e-05
0.000332606
0.0016695
4.89061e-05
-0.000199244
0.00150905
-9.70711e-05
-0.00122559
0.00107287
-0.000295833
-0.00261202
0.00026
-0.000276149
-0.00428038
-0.00104744
-0.00701979
-0.00297413
-0.000965191
-0.00496248
-0.00411169
-0.00154572
-0.00287984
-0.00271795
-0.00188752
-0.00186991
-0.00188511
-0.00191805
-0.00125042
-0.0013459
-0.00166472
-0.000861364
-0.00107225
-0.00123017
-0.00058669
-0.00103046
-0.000762845
-0.000398163
-0.000958394
-0.00033135
-0.000214238
-0.00076759
2.29234e-05
-6.75953e-05
-0.000409056
0.000116078
0.000443126
0.000168404
0.00020947
0.000416699
0.000137476
0.000556874
-8.99827e-05
-0.000495493
0.000972972
-0.000229604
-0.000855115
0.00142658
-0.00040616
-0.00103879
0.00184698
-0.000592094
-0.00110436
0.00208907
-0.000866563
-0.00113387
0.00204234
-0.00126331
-0.00139534
0.0016651
-0.00189612
-0.00190503
0.00103071
-0.00292448
-0.0027068
-0.00503134
-0.0040687
-0.00405339
-0.00607168
-0.00600962
-0.00627606
-0.00694493
-0.00694292
-0.00718993
-0.00774391
-0.00694146
-0.00862863
-0.00629312
-0.00951794
-0.00528717
-0.0103992
-0.0039095
-0.011161
-0.00219662
-0.01162
0.000120786
-0.0111179
0.00240528
-0.0111133
0.00409975
-0.0116419
0.0054629
-0.0112027
0.00645804
-0.0104464
0.00709695
-0.00956588
0.00733619
-0.00867413
0.00707638
-0.00778405
0.00611563
-0.0069721
0.00411745
-0.00628566
-0.00604877
8.77215e-05
0.000989315
-0.00131796
-1.96767e-05
0.000664919
-0.000791428
-9.98685e-05
-3.84607e-05
-0.000268526
1.64359e-05
-0.000230274
1.53256e-05
0.000187309
-0.000366585
0.000245028
0.000440812
-0.00049037
0.00042106
0.000494144
-0.000332811
0.000481351
0.00042601
-0.000249666
0.000585428
0.000252332
-0.000197417
0.000661245
1.98428e-06
-0.000182148
0.000683357
-0.000256813
-0.000188236
0.00071046
-0.000439154
-0.000205483
0.000717258
-0.000496632
-0.000276963
0.000610651
-0.000415297
-0.000372362
0.000495693
-0.000150981
-0.000510406
0.00041472
-2.24373e-05
-0.000396332
0.00018163
8.95836e-05
-0.000215604
4.40615e-05
-0.00010418
0.000361979
-0.000393898
-0.000165695
0.000904328
-0.00088513
0.00128463
-0.00123314
0.00129328
0.00115633
0.00210747
0.00189582
0.00119409
0.00218994
0.00170331
0.00110339
0.00170348
0.00108606
0.00100438
0.00108619
0.000456293
0.000642482
0.000763222
0.000128977
-3.28905e-05
0.000433425
0.000111774
-0.000444919
0.000216237
0.000181121
-0.0005595
0.000115276
0.000111826
-0.000457751
1.81977e-06
-8.40126e-05
-0.000369443
-5.81026e-05
-0.000251924
-0.000384975
5.02702e-06
-0.000308263
-0.000512021
0.000132003
-0.000223485
-0.000617028
0.000261103
-0.000243041
-0.000473872
0.000358409
-0.000563363
-5.17431e-05
0.00055368
-0.00118128
0.000573232
0.000805237
-0.00179893
0.000971218
0.00120438
-0.00188882
0.00129441
0.00203962
-0.00133822
0.00130559
0.00250099
0.00109777
0.00240577
0.00121582
0.000153386
0.00335363
0.00223823
0.000393666
0.00362644
0.00276491
0.000771832
0.00330985
0.00267543
0.00118292
0.0026747
0.00217906
0.00120839
0.00207308
0.00138924
0.000868664
0.00147277
0.000700846
0.000294381
0.000928309
0.000299066
-0.000306969
0.0003877
8.7294e-05
-0.000574105
-4.57965e-05
-7.77281e-05
-0.000602008
-0.000312672
-0.000256737
-0.000619124
-0.000208746
-0.000498539
-0.000602894
0.000186375
-0.000958212
-0.000304725
0.00064706
-0.00168653
0.000263606
0.00115982
-0.00245706
0.000768783
0.0016858
-0.00292924
0.00103831
0.00228257
-0.00295515
0.000985843
0.00289554
-0.0022942
0.000685429
0.00356764
-0.00121478
0.000251407
0.00381155
-0.000195751
0.00351332
0.00125972
-0.0016714
0.00244055
0.00214698
-0.00084179
0.00321715
0.00281163
-0.00014529
0.00339263
0.00303223
0.00074111
0.00303118
0.00280183
0.00125535
0.00253033
0.00229505
0.0012395
0.00203663
0.00162944
0.000841953
0.00152941
0.000928842
0.000261994
0.000917245
0.000348408
-0.000293817
0.000296465
-6.86177e-05
-0.00062871
-0.000209969
-0.000521127
-0.000618154
-8.40254e-05
-0.00115297
-0.000265756
0.00053007
-0.00187944
0.000269343
0.00115981
-0.00255384
0.000791076
0.00173937
-0.00306564
0.00110922
0.00222981
-0.00328484
0.00103166
0.00272331
-0.00302803
0.000456197
0.00322545
-0.002267
-0.000405125
0.00356585
-0.00131122
-0.00116799
0.00327481
-0.00221697
0.00240664
0.00159653
-0.00368877
0.000450663
0.00226679
-0.00185828
0.00194875
0.0027285
-0.000921716
0.00281743
0.00301419
0.000169305
0.00301364
0.00300707
0.0010119
0.00280379
0.0027298
0.00130975
0.00245117
0.00227112
0.0011131
0.0020406
0.00163528
0.000708262
0.00156002
0.000851305
0.000295321
0.000932989
-1.61931e-05
-5.99001e-05
0.000237854
-0.000891193
-5.86394e-05
0.000321061
-0.00166923
0.000306556
0.00106777
-0.00229816
0.000707682
0.00168546
-0.00276675
0.00107803
0.00214976
-0.00306228
0.00121312
0.00254294
-0.00309057
0.000838313
0.00287683
-0.00282681
-5.94538e-05
0.00304971
-0.00234857
-0.00115625
0.00280571
-0.00162317
-0.00215678
0.00183554
-0.00410824
0.000203452
0.0016258
-0.00522787
-0.00136966
0.00231367
-0.00240547
0.000479167
0.00254025
-0.00113842
0.00188743
0.00261867
1.20858e-05
0.00261944
0.00261966
0.000905074
0.00285985
0.00246623
0.00132279
0.00275269
0.00212756
0.0012947
0.00249722
0.00159283
0.00108662
0.00214086
0.000883524
0.000886459
0.00169305
5.28378e-05
0.000771034
0.0010514
-0.000771296
0.000762
0.00104248
-0.00146049
0.000879418
0.00169472
-0.00198003
0.00107921
0.00214596
-0.00232111
0.00127904
0.00250052
-0.00249684
0.00127954
0.00274762
-0.00253612
0.000818512
0.00284071
-0.00249771
-0.000118124
0.00257803
-0.00227455
-0.0013063
0.00184855
-0.00157741
-0.00263997
0.000430326
-0.00554299
-0.00143058
0.00126006
-0.0062208
-0.00242871
0.00198681
-0.00283967
-0.000424138
0.0021533
-0.00112318
0.00111004
0.00206358
0.000190848
0.0020657
0.00196643
0.000994182
0.00262855
0.0018282
0.00134916
0.00279982
0.00156449
0.00139009
0.00277069
0.00113924
0.00132987
0.00262298
0.000613033
0.00125883
0.00240052
7.12105e-05
0.00125789
0.00204809
-0.000454857
0.00124177
0.00201555
-0.000953289
0.00123544
0.00235099
-0.00136142
0.00131293
0.00256361
-0.00162307
0.00137933
0.0027072
-0.001777
0.00133594
0.00273984
-0.00190688
0.00096588
0.00257776
-0.00202936
0.000129788
0.0020298
-0.00188449
-0.00123409
0.00110045
-0.0011949
-0.00300672
-0.000415506
-0.00644692
-0.00242221
0.000400728
-0.00628599
-0.00335366
0.000889224
-0.00304129
-0.00136344
0.00108441
-0.00119718
0.000127716
0.00109395
0.000170737
0.00109685
0.00110672
0.000847716
0.00169284
0.00111665
0.00110799
0.00197213
0.00104168
0.00117457
0.00206766
0.000861158
0.00122601
0.00209442
0.000583639
0.00127895
0.00212588
0.000103202
0.00154749
0.00211957
-0.000386632
0.00154687
0.00209341
-0.000660964
0.00125241
0.00207155
-0.000837116
0.00119763
0.002027
-0.000911048
0.00115596
0.0019943
-0.000904844
0.00109609
0.00190272
-0.000905025
0.000833777
0.00164078
-0.000916968
0.000140867
0.00107306
-0.000755867
-0.00126117
0.000125323
-0.000327864
-0.00313697
-0.00134565
-0.006425
-0.00332406
-0.00109621
-0.00484891
-0.00445272
-0.00143094
-0.00241869
-0.00300612
-0.00134788
-0.00125052
-0.00191525
-0.00101007
-0.000505755
-0.00100763
-0.000628194
1.79481e-06
-0.000608529
-0.000335955
0.000270684
-0.00048561
-0.000101481
0.00042658
-0.00044502
8.03818e-05
0.000619067
-0.000342622
0.000211708
0.000821977
-8.35428e-05
0.00011442
0.00147167
0.000341342
2.60738e-05
0.00144654
0.000325965
0.000155604
0.0007842
-0.000156987
0.000323087
0.000602975
-0.0004281
0.000544791
0.000421869
-0.000526582
0.000825658
0.000270039
-0.00055943
0.00119494
1.59806e-06
-0.000671339
0.00151025
-0.00051202
-0.00105819
0.0015496
-0.00126985
-0.00193606
0.00116348
-0.00245794
-0.0029999
-0.00491325
-0.00441704
-0.00459207
-0.00632864
-0.00673947
-0.00654745
-0.00774556
-0.00718748
-0.00799876
-0.0079966
-0.00773521
-0.00889047
-0.00708208
-0.00990044
-0.00608675
-0.010968
-0.00466038
-0.0119683
-0.00276026
-0.0126982
0.000133379
-0.0125399
0.00298571
-0.0125192
0.0048517
-0.0127238
0.00625559
-0.0120037
0.00723586
-0.0110049
0.00787763
-0.00993769
0.0081316
-0.00892663
0.00786541
-0.00803002
0.00683754
-0.00721417
0.00465241
-0.00655852
-0.0063096
-0.000139007
0.000139414
-0.00131854
-0.000117859
-7.6338e-05
-0.000735477
4.85435e-05
-0.000242538
-0.000191067
0.000245837
-0.000366477
0.000186198
0.000504882
-0.000517562
0.000504004
0.00072539
-0.000494026
0.000694577
0.000780533
-0.000383297
0.000809777
0.00067748
-0.00028553
0.000976417
0.000407214
-0.000222453
0.00115529
-2.96847e-05
-0.000204448
0.00132474
-0.000465364
-0.000207505
0.00135526
-0.000719857
-0.000239332
0.00121228
-0.000790722
-0.000323664
0.00100614
-0.000695073
-0.000421663
0.000822525
-0.000440619
-0.000517859
0.000678847
-0.000163396
-0.000544551
0.000449662
0.000109084
-0.000395246
0.000167273
0.000163248
-0.000212098
-0.000236002
0.000108526
-1.01889e-06
-0.000829772
0.000272493
-0.00139667
0.000978454
0.00139706
-0.000128212
0.00126211
0.00120828
0.000622526
0.00114235
0.000983103
0.000598649
0.000763324
0.000642635
0.000455985
0.000444545
0.000120177
0.000444238
0.000338194
-0.000355686
0.000401284
0.000392257
-0.000630597
0.000409876
0.0004253
-0.000639234
0.000436621
0.000248245
-0.000510688
0.000469145
-0.000130575
-0.000403296
0.000520408
-0.000464083
-0.000433428
0.000565712
-0.000567515
-0.000583683
0.00058081
-0.000486977
-0.000700623
0.000558317
-0.000415075
-0.000657394
0.000522852
-0.000490828
-0.0003825
0.000494508
-0.000790985
6.13755e-05
0.000499934
-0.00116703
0.000591976
0.000593617
-0.00132224
0.00103222
0.000950876
-0.0011114
0.00132782
0.000961393
0.00144443
0.000122956
0.0010294
0.00144744
0.0022741
0.00176336
0.00134306
0.00275786
0.0021438
0.00129256
0.00261975
0.00207389
0.00120849
0.00217854
0.00165914
0.000949259
0.00165851
0.00109255
0.000504613
0.00117873
0.000631706
-6.53762e-05
0.000824093
0.000376185
-0.00054027
0.000544361
0.000158343
-0.000700183
0.000362335
-0.000115652
-0.00067982
0.000238449
-0.000370426
-0.000711206
0.000324401
-0.000586553
-0.000735192
0.000554397
-0.000878449
-0.000532172
0.000770702
-0.00137039
-6.11616e-05
0.00105562
-0.0019311
0.000449631
0.00141437
-0.00231915
0.000827161
0.00190485
-0.00232931
0.00104753
0.0024501
-0.00185521
0.00118651
0.00293929
-0.00105883
0.00129528
0.00304775
0.0013205
0.00257835
0.00111731
0.000380259
0.00239024
0.00182228
0.000894773
0.00296017
0.00234849
0.00107009
0.00308854
0.00253139
0.00125523
0.00280115
0.00237494
0.00126149
0.00237412