/*--------------------------------*- C++ -*----------------------------------*\
| =========                 |                                                 |
| \\      /  F ield         | OpenFOAM: The Open Source CFD Toolbox           |
|  \\    /   O peration     | Version:  v1912                                 |
|   \\  /    A nd           | Website:  www.openfoam.com                      |
|    \\/     M anipulation  |                                                 |
\*---------------------------------------------------------------------------*/
FoamFile
{
    version     2.0;
    format      ascii;
    class       volVectorField;
    location    "500";
    object      U;
}
// * * * * * * * * * * * * * * * * * * * * * * * * * * * * * * * * * * * * * //

dimensions      [0 1 -1 0 0 0 0];


internalField   nonuniform List<vector> 
4000
(
(0.00744924 -0.0184762 0.00744676)
(0.0128413 -0.00510033 0.00632294)
(0.00814522 0.00604714 0.00412966)
(-0.00751736 0.000267843 0.00021735)
(-0.00493773 -0.0029236 -0.00043759)
(-0.00498504 -0.00122547 -0.000393564)
(-0.00317858 -0.000653056 -0.000439966)
(-0.0026833 -0.000792448 -0.00037305)
(-0.00104605 -0.000210024 -0.000201591)
(-0.000472455 -0.0044801 -0.0025957)
(0.000747493 -0.000187874 -0.000310649)
(0.00226109 -0.00104274 -0.000589573)
(0.00278531 -0.000683861 -0.00036188)
(0.00365211 -0.000593083 -0.000392881)
(0.00553136 -0.00122268 -0.000286857)
(0.00514029 -0.00266498 -0.000253414)
(0.008087 0.000905902 0.000484576)
(-0.0109344 0.00427278 0.00559667)
(-0.0141115 -0.00769758 0.00698887)
(-0.00828778 -0.0204826 0.00809386)
(0.00373679 -0.0304093 0.00373678)
(0.00976456 -0.0121109 0.00349867)
(0.0146702 0.00637167 0.00394524)
(0.0122757 0.0072247 0.00347127)
(0.00591589 0.00517976 0.00287099)
(-0.00623828 -0.000678934 0.000141544)
(-0.00494726 -0.00138274 -0.000713915)
(-0.00440481 -0.000932616 -0.00104552)
(-0.00231572 -0.00011159 -0.00118815)
(-0.00117869 -0.00192702 -0.00169348)
(0.00123601 -0.000124778 -0.00113718)
(0.00335207 -0.000878429 -0.00120422)
(0.00484085 -0.00107706 -0.00102579)
(0.0052531 -0.00152975 -0.000736702)
(0.00622744 -0.000662181 0.000240555)
(-0.00667016 0.00542486 0.00312169)
(-0.0120732 0.00731324 0.00341018)
(-0.0150308 0.00584533 0.00387665)
(-0.00944974 -0.0140935 0.00352614)
(-0.00391784 -0.0322553 0.00396083)
(0.00219162 -0.0422277 0.0021935)
(0.00644144 -0.0248295 0.00265658)
(0.0120235 -0.00727121 0.00298635)
(0.0154742 0.00256235 0.00288752)
(0.012049 0.00583093 0.00267112)
(0.0063178 0.00504319 0.00232019)
(-0.00187244 0.000575969 0.000718418)
(-0.00446879 -0.00140995 -0.00110554)
(-0.00302912 -0.0012523 -0.00183236)
(-0.00102916 -0.0015776 -0.00266605)
(0.00162405 -0.00115637 -0.00256267)
(0.00345155 -0.0013096 -0.00174486)
(0.00488836 -0.00136299 -0.00098666)
(0.000584796 0.00122295 0.00119771)
(-0.00715859 0.00517247 0.00228633)
(-0.0127356 0.00602405 0.002664)
(-0.0154477 0.00289812 0.0027575)
(-0.0113796 -0.00743914 0.0027587)
(-0.00590831 -0.0260889 0.00263135)
(-0.00211609 -0.0438052 0.00230951)
(0.00121339 -0.0484558 0.00121698)
(0.00335075 -0.0324849 0.00233002)
(0.00509284 -0.0158381 0.00291463)
(0.0090928 -0.0024726 0.00334966)
(0.0108026 0.00530561 0.00307988)
(0.00871492 0.00632886 0.00284699)
(0.00519914 0.00435137 0.00211268)
(0.00108387 0.00165808 0.00111983)
(-0.00217993 -0.000860795 -0.00142827)
(-0.000629517 -0.00107428 -0.00303876)
(0.00114194 -0.00109268 -0.00291833)
(0.00252462 -0.000843413 -0.00130197)
(-0.00189032 0.00218865 0.00159981)
(-0.00585699 0.00454532 0.00244054)
(-0.00931806 0.00617258 0.00302843)
(-0.0111512 0.0048966 0.00325774)
(-0.00870109 -0.00319103 0.00352125)
(-0.00447227 -0.0161369 0.00293035)
(-0.00283513 -0.0330937 0.00236454)
(-0.00103845 -0.0495902 0.00135098)
(0.000432635 -0.0513438 0.000437709)
(0.000720392 -0.0368373 0.0020322)
(-0.000961469 -0.0228386 0.00291274)
(0.000724347 -0.0108787 0.00415838)
(0.0029351 -0.00229612 0.00489337)
(0.00549033 0.00222088 0.00463506)
(0.00590009 0.00328998 0.00407993)
(0.00497722 0.00350053 0.00331653)
(0.00264149 0.00330589 0.00236197)
(0.000328502 0.00306907 0.000737481)
(0.000145953 0.00319635 0.000644137)
(-0.00211422 0.00345662 0.0024916)
(-0.00419299 0.00327524 0.00365267)
(-0.00490219 0.00270939 0.00436617)
(-0.00448542 0.00130627 0.00486477)
(-0.00172162 -0.00349236 0.0051307)
(-0.000124774 -0.0118659 0.00425468)
(0.00149354 -0.0232805 0.002979)
(-0.000246256 -0.0371702 0.00211792)
(-0.000206947 -0.0522058 0.000610306)
(-0.000307797 -0.0512118 -0.000301774)
(-0.00142571 -0.0383038 0.00150622)
(-0.00509861 -0.0270591 0.00219813)
(-0.00543227 -0.0183292 0.00303312)
(-0.00540778 -0.012303 0.00378184)
(-0.00395813 -0.00842065 0.00416824)
(-0.00254347 -0.0055376 0.0041609)
(-0.00141163 -0.00312364 0.00419238)
(-0.000537325 -0.00151635 0.00428448)
(-0.00023353 -0.000826089 0.0045047)
(0.000303233 -0.001289 0.00445313)
(0.00108984 -0.0023298 0.00424125)
(0.00222454 -0.00402302 0.0040668)
(0.00352532 -0.00642942 0.00400903)
(0.00492751 -0.00936113 0.00398082)
(0.0062082 -0.0131485 0.00361323)
(0.0060297 -0.0190363 0.00292928)
(0.00558183 -0.0275361 0.00218316)
(0.00187048 -0.0386957 0.0015659)
(0.000558786 -0.0518891 -0.000103642)
(-0.00123811 -0.0487327 -0.00123195)
(-0.00329085 -0.0381499 0.00041117)
(-0.00818302 -0.0296823 0.000521751)
(-0.00939169 -0.0236366 0.000516372)
(-0.00994654 -0.019546 0.000451999)
(-0.00893025 -0.0167494 0.000338926)
(-0.00727018 -0.0146262 0.000261735)
(-0.00503218 -0.0127059 0.000330129)
(-0.00241163 -0.0113111 0.000644839)
(-0.000402075 -0.010318 0.00146974)
(0.00101733 -0.0107384 0.00136087)
(0.00306517 -0.0119884 0.000484738)
(0.00568573 -0.013464 8.47691e-05)
(0.00792724 -0.015372 3.65081e-06)
(0.00958386 -0.0174993 8.79067e-05)
(0.0105606 -0.0202612 0.00024755)
(0.00995043 -0.0242523 0.000383488)
(0.00867963 -0.0301461 0.000451199)
(0.00372898 -0.0385224 0.000427522)
(0.00148894 -0.0493066 -0.00103989)
(-0.00265418 -0.0432715 -0.00264814)
(-0.0055033 -0.0352863 -0.00154892)
(-0.0113466 -0.0297331 -0.00208445)
(-0.0130756 -0.0263594 -0.00278011)
(-0.0136555 -0.0243216 -0.00349266)
(-0.0123522 -0.0230398 -0.00417686)
(-0.0100127 -0.0220034 -0.00477182)
(-0.00692828 -0.0209001 -0.00518058)
(-0.00327983 -0.0198857 -0.00515504)
(-0.000575648 -0.0188574 -0.00419337)
(0.00131467 -0.0191547 -0.0042274)
(0.00393789 -0.0203726 -0.00520726)
(0.00754327 -0.0214133 -0.00532411)
(0.0106151 -0.0225077 -0.00495655)
(0.0129468 -0.0235392 -0.00436591)
(0.0142312 -0.0247989 -0.00366256)
(0.0136201 -0.0267981 -0.00290912)
(0.0118482 -0.0301111 -0.00216982)
(0.00594239 -0.035625 -0.00156231)
(0.00291077 -0.0437308 -0.00248123)
(-0.00523989 -0.0324386 -0.00523399)
(-0.00920783 -0.0272994 -0.00473599)
(-0.0155737 -0.024793 -0.00572482)
(-0.0175539 -0.0238732 -0.00681999)
(-0.0179486 -0.0236423 -0.00790837)
(-0.0162827 -0.0237686 -0.00888192)
(-0.0133286 -0.0239231 -0.00972189)
(-0.00939151 -0.0238517 -0.0103448)
(-0.00454496 -0.0234863 -0.0104892)
(-0.00100144 -0.0227332 -0.00938109)
(0.00179307 -0.0228881 -0.0093656)
(0.00520479 -0.0237304 -0.0104809)
(0.00998597 -0.0240891 -0.0104212)
(0.0139055 -0.02416 -0.00984065)
(0.0168568 -0.0240098 -0.00901241)
(0.0185163 -0.023885 -0.00803027)
(0.0181039 -0.0241132 -0.00692119)
(0.016084 -0.0250242 -0.00579695)
(0.00964112 -0.0275378 -0.0047547)
(0.00550545 -0.0327451 -0.00509651)
(-0.0103377 -0.019592 -0.0103319)
(-0.0172842 -0.0155162 -0.0114665)
(-0.0234765 -0.0138745 -0.0135082)
(-0.0252769 -0.0132643 -0.0153752)
(-0.0252379 -0.012887 -0.0172284)
(-0.02305 -0.0125421 -0.0189563)
(-0.0192435 -0.0120128 -0.0205239)
(-0.0139745 -0.0111794 -0.0217474)
(-0.007193 -0.0100719 -0.0222083)
(-0.00207685 -0.00899654 -0.0200158)
(0.00289144 -0.00917479 -0.0200127)
(0.00784214 -0.0102642 -0.0222083)
(0.0145803 -0.0113266 -0.0218348)
(0.019844 -0.0121369 -0.0206504)
(0.0236576 -0.0126572 -0.0190927)
(0.0258448 -0.0129997 -0.0173593)
(0.0258653 -0.0133764 -0.0154886)
(0.0240165 -0.0139883 -0.0135919)
(0.017722 -0.0156373 -0.0114965)
(0.0106219 -0.0197616 -0.0102287)
(0.00632609 -0.00510693 0.0128376)
(0.00877901 0.00355735 0.00877454)
(0.00388309 0.00954288 0.00343075)
(-0.00477288 -0.00176707 0.000313101)
(-0.00263749 -0.0039767 -0.000672316)
(-0.00280638 -0.00190296 -6.4418e-05)
(-0.00160567 -0.000637097 -0.000242307)
(-0.000749751 -0.000491428 5.40385e-05)
(-0.00118011 -0.00149429 0.000535729)
(-9.96005e-05 -0.000818534 0.000118378)
(0.00132744 -0.00262441 0.000311658)
(0.000430304 -0.000406257 0.000167694)
(0.00144196 -0.00032363 -4.37308e-05)
(0.00213439 -0.000725888 -0.000301196)
(0.00323868 -0.00204372 -2.94265e-05)
(0.00293699 -0.00411679 -0.00069021)
(0.00617236 -0.000884786 0.000849308)
(-0.00730524 0.00860519 0.00641626)
(-0.0109092 0.000625559 0.0105209)
(-0.00723522 -0.00836402 0.0138278)
(0.00350111 -0.0121293 0.00975908)
(0.00970827 0.00141203 0.00970148)
(0.0127938 0.00992477 0.00885979)
(0.0122908 0.00711474 0.006715)
(0.0066079 0.00450111 0.00483069)
(-0.00139224 -0.00021104 0.00216065)
(-0.00273016 -0.00194143 -0.000394513)
(-0.00240937 -0.00159252 -0.00113006)
(-0.0011874 -0.0012049 -0.00169875)
(-0.000311718 -0.000148886 -0.00224794)
(0.000510417 -0.00119772 -0.00172024)
(0.00142472 -0.00102434 -0.00158177)
(0.0024404 -0.00168902 -0.000909036)
(0.00272575 -0.00208991 -0.000367399)
(0.00055927 0.000294175 0.0025489)
(-0.00769499 0.00502794 0.00494513)
(-0.0124944 0.00769714 0.00631753)
(-0.0134121 0.0102667 0.00777961)
(-0.00911722 -0.00140712 0.00863075)
(-0.00367926 -0.0155788 0.00910654)
(0.00265757 -0.024849 0.00643919)
(0.00797741 -0.0136369 0.00797258)
(0.0138966 -0.00200076 0.00851154)
(0.0162053 0.00322318 0.00706499)
(0.0132868 0.00532262 0.00571161)
(0.00873593 0.00430608 0.00464817)
(0.00344576 0.00152406 0.00308119)
(-0.00126307 -0.0017295 -0.00029256)
(-0.00118689 -0.0018216 -0.00217308)
(-0.000440719 -0.00150837 -0.00342461)
(0.000594452 -0.00152445 -0.00324442)
(0.0012109 -0.00181224 -0.00173994)
(0.000378048 -0.00156999 0.000674317)
(-0.00456005 0.0017874 0.00343981)
(-0.00967156 0.00448871 0.00469429)
(-0.014109 0.00566239 0.0056693)
(-0.0165176 0.00384854 0.00671249)
(-0.0136469 -0.00157484 0.00759776)
(-0.00744197 -0.0154904 0.00717138)
(-0.00267055 -0.0275637 0.00585118)
(0.00232924 -0.032503 0.00335281)
(0.00636069 -0.0227438 0.00636002)
(0.0094851 -0.0112559 0.00746482)
(0.0128751 -0.000868666 0.00689432)
(0.0130738 0.00502795 0.00591569)
(0.0108221 0.00582521 0.00511245)
(0.00772026 0.00409488 0.00385136)
(0.00449943 0.00164644 0.00217272)
(0.00119839 -0.000977358 -0.000743637)
(0.000140124 -0.00177311 -0.00363313)
(-3.18179e-05 -0.00174368 -0.00336232)
(-0.00163958 -0.00071881 3.24609e-05)
(-0.00519008 0.00177467 0.00280784)
(-0.00843964 0.00407017 0.00431088)
(-0.0115085 0.00562116 0.00543551)
(-0.0136122 0.00468265 0.00617989)
(-0.0129757 -0.00128932 0.00704003)
(-0.00919395 -0.0115558 0.00726978)
(-0.00604282 -0.0240086 0.00607239)
(-0.00228502 -0.0344167 0.00308338)
(0.00203 -0.0368534 0.000726655)
(0.00539417 -0.0279258 0.00539795)
(0.00546639 -0.016918 0.00752367)
(0.00691213 -0.00590916 0.00827493)
(0.00874562 0.00222845 0.00785058)
(0.00916922 0.00522877 0.00698829)
(0.00833809 0.00495678 0.00586148)
(0.00665846 0.00377104 0.00445256)
(0.00404361 0.00260889 0.00272857)
(0.00140185 0.00150048 0.000180946)
(-0.00083804 0.00168091 0.00025434)
(-0.00361378 0.00280188 0.00305226)
(-0.00619336 0.00379569 0.00492168)
(-0.00782283 0.00477832 0.00631584)
(-0.00869739 0.0048316 0.00744377)
(-0.00820259 0.00165057 0.00835537)
(-0.00658502 -0.00637841 0.00862365)
(-0.00512456 -0.0171777 0.00766199)
(-0.00516778 -0.0287834 0.00546189)
(-0.00195822 -0.0383013 0.000747023)
(0.00150368 -0.0383157 -0.00141674)
(0.00468015 -0.0295436 0.00468692)
(0.00236816 -0.0191913 0.00753751)
(0.00222505 -0.00883352 0.00917572)
(0.00168456 -0.00131697 0.0100587)
(0.00316386 0.00267822 0.00958995)
(0.00325058 0.0039325 0.0086753)
(0.00264931 0.00447779 0.00767611)
(0.00147563 0.00470223 0.00681098)
(0.000371828 0.00464049 0.00603011)
(-8.07913e-05 0.00456652 0.00607156)
(-0.000833555 0.00457761 0.0069764)
(-0.00178614 0.00429535 0.00788233)
(-0.00225715 0.00367214 0.00888902)
(-0.00223788 0.00229399 0.00980794)
(-0.000823226 -0.00170965 0.0102131)
(-0.00177117 -0.0091535 0.00928159)
(-0.00194444 -0.0194263 0.00766966)
(-0.00441964 -0.0301983 0.00487744)
(-0.00139939 -0.0394856 -0.00122378)
(0.000408803 -0.0381584 -0.00328056)
(0.00355707 -0.0288971 0.00356556)
(-0.000410132 -0.0195178 0.00663882)
(-0.00105147 -0.0107091 0.0083402)
(-0.00221088 -0.00473513 0.00940843)
(-0.00179291 -0.00120961 0.00996626)
(-0.00119213 0.000983092 0.010176)
(-0.000833536 0.00236505 0.00999993)
(-0.000559557 0.0030238 0.00973282)
(-0.000104123 0.0031073 0.00953132)
(0.00066186 0.00295193 0.00954723)
(0.00127576 0.00273682 0.00974846)
(0.00165833 0.00202474 0.00995557)
(0.00206658 0.000625471 0.0100501)
(0.00260609 -0.0016069 0.00981818)
(0.00284484 -0.00506857 0.00930368)
(0.0015638 -0.0109976 0.00831373)
(0.000886143 -0.019679 0.00672009)
(-0.00322151 -0.0294046 0.00376245)
(-0.000280357 -0.0390763 -0.00301778)
(-0.0015511 -0.0352914 -0.00549276)
(0.000889072 -0.0256193 0.000898523)
(-0.0040987 -0.0181185 0.00349501)
(-0.00493365 -0.0118996 0.00447443)
(-0.00584384 -0.00732996 0.00491326)
(-0.0053227 -0.00413109 0.00522061)
(-0.00429564 -0.00179829 0.00566899)
(-0.00278239 0.000213876 0.00642929)
(-0.00118967 0.0013981 0.00722219)
(-2.18665e-05 0.00189292 0.00814356)
(0.00078964 0.00169907 0.00801512)
(0.00197284 0.00105708 0.00698729)
(0.00356404 -3.61402e-05 0.00613861)
(0.00502438 -0.00195864 0.00540738)
(0.006007 -0.00428628 0.00496421)
(0.00646667 -0.00751177 0.00469384)
(0.00548903 -0.0121224 0.0043282)
(0.0045767 -0.0183628 0.00345515)
(-0.000472189 -0.0259803 0.00105281)
(0.00169545 -0.0359531 -0.00522952)
(-0.00473842 -0.0273015 -0.00919787)
(-0.00499266 -0.0198034 -0.00498521)
(-0.0103683 -0.015593 -0.00383757)
(-0.0116842 -0.0132216 -0.00393891)
(-0.0122058 -0.0119737 -0.00455363)
(-0.0110294 -0.0113932 -0.00508302)
(-0.00911796 -0.0111978 -0.00532493)
(-0.00665988 -0.0111059 -0.00515164)
(-0.00376694 -0.0110544 -0.00438731)
(-0.00131976 -0.0100516 -0.00227266)
(0.00228551 -0.0101656 -0.00238826)
(0.00456149 -0.0112292 -0.00454328)
(0.00738459 -0.0112674 -0.00539705)
(0.00980936 -0.0113508 -0.00560202)
(0.0116998 -0.0115446 -0.0053627)
(0.0128434 -0.0121266 -0.00480582)
(0.0122781 -0.0133918 -0.0041369)
(0.0108785 -0.0157838 -0.00393269)
(0.00538729 -0.0200621 -0.00493978)
(0.00490251 -0.0276771 -0.00898354)
(-0.0114694 -0.0155173 -0.0172754)
(-0.0179933 -0.00918956 -0.0179872)
(-0.0243118 -0.00618239 -0.0204741)
(-0.0260811 -0.00439312 -0.0230988)
(-0.0262065 -0.003054 -0.0258537)
(-0.024326 -0.00186388 -0.0285094)
(-0.0210169 -0.000567413 -0.0309357)
(-0.0163427 0.000956386 -0.0328449)
(-0.0100315 0.00260128 -0.0336583)
(-0.00428365 0.00443781 -0.0313901)
(0.00516316 0.00426352 -0.0313926)
(0.0107738 0.00245832 -0.0337154)
(0.0170559 0.000873923 -0.0329943)
(0.021698 -0.000619219 -0.0311236)
(0.0249829 -0.00190557 -0.0287045)
(0.0268346 -0.00309859 -0.0260389)
(0.0266647 -0.00444774 -0.0232539)
(0.0248197 -0.00625677 -0.020576)
(0.0183666 -0.00929888 -0.0180044)
(0.0116728 -0.0157039 -0.0171487)
(0.00413406 0.0060468 0.0081517)
(0.0034355 0.00954653 0.00388563)
(-0.0025718 -0.00144332 -0.00257283)
(-0.0013145 -0.00472376 -0.000500537)
(-0.000663834 -0.00378582 -0.000113207)
(-0.000617503 -0.00227089 0.000444208)
(0.000540782 -0.0009349 0.000289586)
(0.000477227 -0.000354424 0.000417721)
(0.000608309 -0.0003046 0.000274255)
(-1.01983e-05 -0.00109566 0.000784598)
(4.97861e-05 -0.000115633 -5.13369e-05)
(-3.75133e-06 -0.000700836 0.000563413)
(-0.000510467 -0.00039349 0.000497837)
(-0.000408992 -0.00102652 0.000310766)
(0.000918663 -0.00258876 0.000394588)
(0.000614461 -0.00407976 -0.000512745)
(0.00388287 -0.00322275 8.06068e-06)
(-0.0029064 0.00975399 0.002971)
(-0.0066858 0.00858695 0.00750079)
(-0.00586463 0.00373586 0.0115325)
(0.00394887 0.00636097 0.014672)
(0.00886569 0.00992631 0.0127928)
(0.0118178 0.00754472 0.0118146)
(0.00974271 0.00543627 0.00815055)
(0.00471806 0.00307439 0.00530082)
(-5.69052e-05 -0.000760957 0.00258738)
(-0.000870394 -0.00223589 9.36578e-05)
(-0.000827852 -0.00182307 -0.000902704)
(-0.00020836 -0.00117352 -0.00181832)
(-6.3284e-05 -0.00102811 -0.00227349)
(-0.000130977 -0.000599523 -0.00208681)
(3.51014e-05 -0.00145355 -0.0014897)
(0.00053127 -0.00206035 -0.000500148)
(0.000319217 -0.00237418 0.00063993)
(-0.000947867 -0.000410608 0.00307445)
(-0.00610588 0.00343743 0.00528667)
(-0.011064 0.00667397 0.00777479)
(-0.01082 0.0115587 0.0106518)
(-0.00826044 0.010162 0.0133321)
(-0.00406601 0.00446336 0.0149685)
(0.00298783 -0.007292 0.0120183)
(0.00851722 -0.00200737 0.0138915)
(0.0134493 0.00137384 0.0134433)
(0.0144912 0.00398686 0.0106786)
(0.0121634 0.0048886 0.00829155)
(0.00870981 0.0034802 0.00624999)
(0.0044052 0.000914601 0.00393497)
(0.0010103 -0.00182592 0.000716982)
(-7.98549e-05 -0.00218522 -0.00207937)
(-0.000126858 -0.00176579 -0.0034703)
(-0.000122849 -0.00184348 -0.00316173)
(-0.000420106 -0.00231049 -0.00124696)
(-0.00184307 -0.00176638 0.00166441)
(-0.00566544 0.000954351 0.00456061)
(-0.0099135 0.00341374 0.00666437)
(-0.0133841 0.00486995 0.00858379)
(-0.0155307 0.00461252 0.0107464)
(-0.0134331 0.00375945 0.013056)
(-0.00796712 -0.00223631 0.0133067)
(-0.00283178 -0.00914306 0.0109975)
(0.00291395 -0.0158591 0.00509201)
(0.00746737 -0.0112654 0.00948305)
(0.011065 -0.00535707 0.0110606)
(0.0137778 0.00161942 0.0101855)
(0.0134579 0.00526853 0.00862506)
(0.0113402 0.00538276 0.00710131)
(0.00843308 0.00363689 0.00526546)
(0.0054351 0.00112942 0.00284567)
(0.002188 -0.0013478 -0.000598547)
(0.000494239 -0.0022368 -0.00337047)
(-0.000767919 -0.00219876 -0.00292603)
(-0.00291246 -0.00127148 0.000360523)
(-0.00625615 0.00115175 0.00366953)
(-0.00934733 0.00342138 0.00591886)
(-0.0122942 0.0048967 0.00763903)
(-0.0144182 0.00447712 0.00910997)
(-0.0145646 0.000712993 0.0105616)
(-0.0113572 -0.00579867 0.0111315)
(-0.00736645 -0.0122892 0.00910846)
(-0.00284166 -0.0177367 0.00444892)
(0.00291052 -0.0228542 -0.000956913)
(0.00752216 -0.0169284 0.00547036)
(0.00901008 -0.0105396 0.00901114)
(0.0107321 -0.00285065 0.0100033)
(0.0117879 0.00319745 0.00953376)
(0.0112688 0.00535531 0.00846812)
(0.00977835 0.00465642 0.00700846)
(0.00769815 0.00291171 0.00513902)
(0.00492169 0.00113693 0.0027114)
(0.00193873 -0.000694736 -0.000607449)
(-0.00160862 -0.000601157 -0.000408721)
(-0.00471903 0.0012706 0.00318403)
(-0.00749908 0.00289952 0.00564689)
(-0.00959187 0.00445053 0.00749348)
(-0.0111519 0.00490346 0.00894094)
(-0.0117202 0.00251559 0.0100146)
(-0.0107962 -0.00347936 0.0103437)
(-0.00905017 -0.010964 0.00914859)
(-0.00752114 -0.0179113 0.00539884)
(-0.0028124 -0.024416 -0.00120199)
(0.00219561 -0.0270719 -0.00509032)
(0.0075332 -0.0192018 0.00237681)
(0.00722131 -0.0123454 0.00722768)
(0.00764826 -0.00444939 0.00977431)
(0.00749309 0.00196765 0.0107335)
(0.00776307 0.00511702 0.0101616)
(0.00707328 0.0054845 0.00908165)
(0.00567005 0.00491966 0.00773043)
(0.0035461 0.00436731 0.00626967)
(0.00131836 0.00402296 0.00457712)
(-0.000898682 0.00401621 0.00454896)
(-0.00292219 0.00437792 0.00631619)
(-0.00488982 0.00487373 0.00781624)
(-0.00622095 0.00535083 0.0092043)
(-0.00698144 0.0048567 0.0103279)
(-0.00682891 0.00159798 0.0109163)
(-0.007344 -0.0048661 0.00990748)
(-0.006944 -0.0128068 0.00735272)
(-0.00738735 -0.0201088 0.00250709)
(-0.00202915 -0.0283746 -0.00504645)
(0.000519931 -0.029691 -0.00817291)
(0.00663298 -0.0195275 -0.000399476)
(0.00493371 -0.0122449 0.00494368)
(0.00500826 -0.00489417 0.00832031)
(0.00398466 0.000599956 0.0102715)
(0.00379708 0.00355107 0.0104407)
(0.00341496 0.00453942 0.0100493)
(0.00265304 0.00476255 0.00943925)
(0.00153531 0.0047546 0.00879607)
(0.00058262 0.00471699 0.00808627)
(-6.83035e-05 0.00465676 0.00801541)
(-0.000815738 0.00463578 0.00866474)
(-0.0017908 0.00460661 0.00923299)
(-0.00249274 0.00437613 0.0098124)
(-0.00292727 0.00336889 0.0102568)
(-0.00324795 0.000425362 0.0101778)
(-0.00449882 -0.00510056 0.00832672)
(-0.0044556 -0.0125994 0.00506047)
(-0.0063654 -0.0202899 -0.000222953)
(-0.000345269 -0.0307051 -0.00801676)
(-0.00208579 -0.0297384 -0.0113357)
(0.00348972 -0.0181229 -0.00408865)
(0.00055162 -0.010716 0.000562318)
(0.000912284 -0.00364046 0.00352575)
(0.000365335 0.00196183 0.00552009)
(0.00069958 0.00471582 0.00618835)
(0.000863023 0.00598871 0.00625606)
(0.000977568 0.00679197 0.00643437)
(0.0010606 0.00715985 0.00678735)
(0.000744946 0.00739374 0.00725487)
(-4.16015e-05 0.00733753 0.00716867)
(-0.000300719 0.00708519 0.00654754)
(-0.000167905 0.00676864 0.00609863)
(-5.08114e-05 0.00600177 0.00589009)
(7.76581e-05 0.00473837 0.00585728)
(0.000376741 0.00199585 0.00526666)
(-0.000286043 -0.0037014 0.00342667)
(4.54782e-05 -0.0109858 0.000591316)
(-0.00314119 -0.0186347 -0.00397111)
(0.00224819 -0.0304502 -0.0111394)
(-0.00572608 -0.0247954 -0.0155627)
(-0.0038429 -0.0155941 -0.0103587)
(-0.00779507 -0.0107174 -0.00778676)
(-0.00763337 -0.00765387 -0.00665023)
(-0.0074777 -0.00587904 -0.00648194)
(-0.00580554 -0.00486222 -0.00607405)
(-0.00398095 -0.0045399 -0.00538595)
(-0.00216769 -0.00439456 -0.00411786)
(-0.000407 -0.0044308 -0.00216309)
(0.000392964 -0.00235581 0.000667121)
(0.000534673 -0.00248283 0.000474372)
(0.00133867 -0.0046669 -0.00258698)
(0.00304005 -0.00461342 -0.00452775)
(0.00479107 -0.00469159 -0.00574128)
(0.00656578 -0.00497876 -0.00638836)
(0.00817583 -0.00597411 -0.00672532)
(0.00830386 -0.00777712 -0.00684904)
(0.00835311 -0.010891 -0.0078737)
(0.00424303 -0.0158582 -0.0103113)
(0.00587129 -0.0251744 -0.0153827)
(-0.0135102 -0.0138755 -0.0234661)
(-0.0204788 -0.00618293 -0.0243034)
(-0.0270314 -0.00256751 -0.0270244)
(-0.0286906 -0.000286622 -0.0301873)
(-0.0287229 0.00142849 -0.0336345)
(-0.0267815 0.00293654 -0.0370426)
(-0.0234993 0.00455739 -0.0402614)
(-0.0188108 0.00642396 -0.0429253)
(-0.0122982 0.00842214 -0.0443178)
(-0.00569742 0.0104491 -0.0417762)
(0.00663927 0.0103106 -0.0417952)
(0.0130669 0.00833072 -0.0443926)
(0.0195416 0.0063845 -0.0430955)
(0.0241783 0.00453901 -0.0404669)
(0.0274214 0.00292337 -0.0372552)
(0.0293279 0.00140974 -0.0338374)
(0.0292533 -0.000318834 -0.0303637)
(0.0275201 -0.00263042 -0.0271486)
(0.0208318 -0.00629024 -0.0243417)
(0.0137024 -0.0140534 -0.0233696)
(0.000217908 0.000273519 -0.0075188)
(0.000316126 -0.00176406 -0.0047769)
(-0.000496592 -0.00472502 -0.00131669)
(-6.51328e-05 -0.00403716 -7.00164e-05)
(0.000396031 -0.00323821 0.000600538)
(0.00110035 -0.0023109 0.00114595)
(0.00206583 -0.00111841 0.0013052)
(0.00194321 -0.000502694 0.00163958)
(0.00145439 -0.000378811 0.00181441)
(0.000631835 -0.000454371 0.00158306)
(-0.000622427 -0.000504389 0.00199534)
(-0.00151634 -0.000292375 0.00192105)
(-0.00198081 -0.000520383 0.00172932)
(-0.00200331 -0.00122453 0.00136333)
(-0.000944123 -0.002468 0.0011081)
(-0.000420947 -0.00339691 0.000164467)
(0.000208148 -0.00422936 -0.000107627)
(0.000103356 -0.00325934 -0.0037362)
(-0.000698974 -0.000660294 -0.00603785)
(-0.000815565 0.00233965 -0.00673745)
(0.0034742 0.00722114 0.0122794)
(0.00671928 0.00711518 0.0122932)
(0.00815322 0.0054363 0.00974313)
(0.00589913 0.00355662 0.00589921)
(0.00296337 0.00110308 0.00393698)
(0.000533213 -0.00200068 0.00194649)
(0.000459102 -0.00245839 0.000637132)
(0.000566316 -0.00200185 -9.65235e-05)
(0.000714102 -0.00136199 -0.000827323)
(0.000145118 -0.00103056 -0.00120978)
(-0.000779134 -0.00104876 -0.000970922)
(-0.00124219 -0.00156573 -0.000265083)
(-0.00104437 -0.00228984 0.000558495)
(-0.00088389 -0.0026608 0.00124645)
(-0.000981976 -0.00194716 0.00245618)
(-0.00333325 0.00101915 0.00410233)
(-0.00656754 0.00382581 0.00657814)
(-0.0080161 0.00668586 0.0111498)
(-0.00678093 0.00769326 0.0126802)
(-0.00372595 0.0072135 0.0122513)
(0.00288935 0.00255093 0.0154757)
(0.00707003 0.00321853 0.0162047)
(0.0106839 0.00398571 0.0144884)
(0.0114067 0.00470026 0.0114034)
(0.00996206 0.00411856 0.00879889)
(0.00745579 0.00225857 0.00642737)
(0.00389343 -0.000408621 0.00395389)
(0.00168448 -0.00239054 0.00127354)
(0.000670299 -0.00247263 -0.000902889)
(2.1675e-05 -0.00206829 -0.00218005)
(-0.000641373 -0.00218488 -0.00178046)
(-0.00139534 -0.00271013 9.23589e-05)
(-0.00256427 -0.00244945 0.00236273)
(-0.0050968 -0.000436271 0.00483631)
(-0.0085956 0.0020365 0.00719703)
(-0.0110583 0.0037423 0.00954504)
(-0.0124176 0.00442143 0.0122104)
(-0.0111007 0.00452779 0.0153743)
(-0.00707005 0.00345472 0.0165072)
(-0.00289834 0.00198994 0.0154091)
(0.00334999 -0.00249344 0.00908513)
(0.00689797 -0.000879803 0.012871)
(0.0101911 0.0016159 0.0137733)
(0.0122089 0.00450483 0.0122038)
(0.0120411 0.00554023 0.0101302)
(0.010406 0.00470584 0.00813176)
(0.00796385 0.00276733 0.0060448)
(0.00512414 0.000143197 0.00347951)
(0.0023446 -0.00202548 0.000607885)
(0.000561768 -0.00280019 -0.00180807)
(-0.00111696 -0.00278118 -0.00131296)
(-0.00316096 -0.00194294 0.00155615)
(-0.00609969 0.000199892 0.00442724)
(-0.00898597 0.00255543 0.00684354)
(-0.0114624 0.00415537 0.00885233)
(-0.013102 0.00458086 0.0108417)
(-0.0132065 0.00323081 0.0129066)
(-0.0108464 0.000423579 0.0142833)
(-0.00720116 -0.00219446 0.0126914)
(-0.00346565 -0.00471285 0.00826077)
(0.00415523 -0.0108948 0.00072702)
(0.00827435 -0.00592217 0.00691479)
(0.0100042 -0.00285644 0.0107321)
(0.011712 0.00134627 0.0117094)
(0.0123637 0.004377 0.0109178)
(0.0117042 0.00509938 0.00953811)
(0.0101493 0.00390436 0.00787204)
(0.00801831 0.00187627 0.00588055)
(0.00509915 -0.000320397 0.00327735)
(0.00194875 -0.00228137 0.000200653)
(-0.00210317 -0.00222549 0.000532244)
(-0.00524698 -0.00021855 0.00379708)
(-0.00811815 0.00186896 0.00637708)
(-0.0102699 0.00369806 0.0083174)
(-0.0118918 0.00458453 0.00992997)
(-0.0126274 0.00350101 0.0112578)
(-0.0120857 0.000251719 0.0119155)
(-0.0103757 -0.00385747 0.0107866)
(-0.00855671 -0.00723182 0.0067259)
(-0.00405392 -0.0129158 0.000257519)
(0.00303002 -0.0183402 -0.00542397)
(0.0091719 -0.00884602 0.00223372)
(0.00976945 -0.00445639 0.00765455)
(0.010428 8.85306e-05 0.0104314)
(0.0105454 0.00382963 0.0112996)
(0.0103734 0.00551544 0.0107738)
(0.00936964 0.00519722 0.00968004)
(0.00765493 0.00405774 0.00820307)
(0.00507185 0.00299717 0.00641416)
(0.00214395 0.00226113 0.00399949)
(-0.00172393 0.00222557 0.00393165)
(-0.00458728 0.00299138 0.00640467)
(-0.00707829 0.00405099 0.00822764)
(-0.00876404 0.00511404 0.0097221)
(-0.00982757 0.00525488 0.010818)
(-0.0101139 0.0033256 0.0113325)
(-0.0102169 -0.0006213 0.0104179)
(-0.00959703 -0.00528911 0.0077098)
(-0.00905614 -0.00992691 0.00228186)
(-0.00275387 -0.0197509 -0.00553126)
(0.000514443 -0.023644 -0.00938167)
(0.00833585 -0.0107173 -0.001041)
(0.00831171 -0.0048997 0.0050183)
(0.00866923 -0.000346228 0.00867791)
(0.00799418 0.00305883 0.0106242)
(0.00768814 0.00471238 0.0110286)
(0.00693329 0.00477728 0.0107234)
(0.00556991 0.00420981 0.0100426)
(0.00353912 0.00362071 0.00914829)
(0.00143235 0.00333313 0.00786682)
(-0.000860615 0.00328015 0.00773871)
(-0.00284545 0.00354383 0.00895565)
(-0.00477601 0.00413825 0.00980926)
(-0.00609954 0.00471637 0.0104831)
(-0.0068857 0.00460999 0.010829)
(-0.0072797 0.00285347 0.0104991)
(-0.00815444 -0.000705249 0.00865807)
(-0.00780121 -0.00544008 0.00509297)
(-0.00805135 -0.0115185 -0.00092667)
(-0.000261344 -0.0247353 -0.00930797)
(-0.00278125 -0.0263638 -0.0130647)
(0.0044705 -0.0119043 -0.00492256)
(0.00351632 -0.00364442 0.000923924)
(0.00478281 0.0027063 0.00479413)
(0.00431408 0.00574589 0.00680389)
(0.00450709 0.0070041 0.00761188)
(0.00441674 0.00739012 0.00780442)
(0.00388705 0.00759805 0.00785171)
(0.00301819 0.0077177 0.00796502)
(0.00159889 0.00805157 0.00801396)
(-0.000785333 0.00798559 0.00792245)
(-0.00224029 0.00766346 0.00774563)
(-0.00306835 0.00759466 0.00756951)
(-0.00359244 0.00742063 0.00750217)
(-0.00369082 0.00704529 0.00734176)
(-0.00351643 0.00576242 0.00662791)
(-0.00409456 0.00261942 0.00475785)
(-0.00283899 -0.0039757 0.000966435)
(-0.00408594 -0.0124143 -0.00482595)
(0.0029873 -0.0270873 -0.0129182)
(-0.00682075 -0.0238751 -0.0175424)
(-0.00394236 -0.0132226 -0.0116731)
(-0.0066563 -0.00765405 -0.00762252)
(-0.00456019 -0.00386463 -0.00455065)
(-0.0030789 -0.00161074 -0.00236994)
(-0.00187863 -0.000960806 -0.00217216)
(-0.000829234 -0.00120722 -0.00215772)
(-4.28226e-05 -0.0014184 -0.00178339)
(0.000750405 -0.00161028 -0.00074729)
(0.000770164 0.000565356 0.00112118)
(0.000161795 0.000575561 0.00105805)
(0.000205813 -0.00183619 -0.00105356)
(0.000964391 -0.00160799 -0.00212197)
(0.00168681 -0.00132811 -0.00248112)
(0.00268984 -0.00103852 -0.00247061)
(0.00384904 -0.0016775 -0.00262517)
(0.00528441 -0.00396436 -0.00474073)
(0.00720696 -0.00779195 -0.00769994)
(0.00434627 -0.0134559 -0.0116356)
(0.0069737 -0.0242305 -0.0173846)
(-0.0153765 -0.0132652 -0.0252657)
(-0.0231021 -0.00439388 -0.026071)
(-0.0301928 -0.000287058 -0.0286816)
(-0.031943 0.00224661 -0.0319353)
(-0.0319218 0.00408788 -0.0355431)
(-0.0299055 0.00568813 -0.0391864)
(-0.0267101 0.00749111 -0.0429666)
(-0.0220058 0.00959113 -0.0463424)
(-0.0150778 0.0119131 -0.0485328)
(-0.00739314 0.0145407 -0.0469625)
(0.0084286 0.0143693 -0.0469131)
(0.0158855 0.0118608 -0.0486489)
(0.0227191 0.00957235 -0.0465091)
(0.027349 0.00747755 -0.043142)
(0.0304951 0.00567283 -0.039361)
(0.0324727 0.00406821 -0.0357067)
(0.0324531 0.00221792 -0.0320821)
(0.0306405 -0.000344001 -0.0287945)
(0.0234313 -0.00449228 -0.0261135)
(0.0155628 -0.01343 -0.0251835)
(-0.000436545 -0.00292203 -0.00494101)
(-0.000668787 -0.00397506 -0.00263468)
(-0.00011221 -0.00378936 -0.00066803)
(0.000603334 -0.00323668 0.000387341)
(0.00144338 -0.00286205 0.00143821)
(0.00246365 -0.00202103 0.00218727)
(0.00317801 -0.00112869 0.00255087)
(0.00307695 -0.000553428 0.00307346)
(0.00234042 -0.000394397 0.00354483)
(0.000996008 -0.000482892 0.00384573)
(-0.00125144 -0.000438113 0.00398465)
(-0.00254609 -0.000341753 0.00376504)